<event>
 8    1  0.1520917E-013  0.7961428E+02  0.7818608E-02  0.1330150E+00
          2   -1    0    0  501    0  0.00000000000E+00  0.00000000000E+00  0.15950981109E+02  0.15950981313E+02  0.25500000000E-02 0. -1.
         -1   -1    0    0    0  501 -0.00000000000E+00 -0.00000000000E+00 -0.99342373641E+02  0.99342373769E+02  0.50400000000E-02 0.  1.
         24    2    1    2    0    0  0.88817841970E-15  0.00000000000E+00 -0.83391392532E+02  0.11529335508E+03  0.79614278730E+02 0.  0.
         66    2    3    3    0    0 -0.29335454027E+01  0.31024030748E+02 -0.59111288690E+01  0.31781088955E+02  0.19999995507E+01 0.  0.
        -13    1    3    3    0    0  0.29335454027E+01 -0.31024030748E+02 -0.77480263663E+02  0.83512266127E+02  0.10566000000E+00 0.  1.
         13    1    4    4    0    0 -0.88001252416E+00  0.11637604674E+02 -0.17138155805E+01  0.11796465253E+02  0.10566000000E+00 0. -1.
        -13    1    4    4    0    0 -0.12873736004E+00  0.62039909820E+00 -0.35105017112E+00  0.73203046874E+00  0.10566000000E+00 0. -1.
         14    1    4    4    0    0 -0.19247955185E+01  0.18766026976E+02 -0.38462631173E+01  0.19252593233E+02  0.00000000000E+00 0. -1.
<mgrwt>
<rscale>  0 0.79614279E+02</rscale>
<asrwt>0</asrwt>
<pdfrwt beam="1">  1        2 0.24539972E-02 0.79614279E+02</pdfrwt>
<pdfrwt beam="2">  1       -1 0.15283442E-01 0.79614279E+02</pdfrwt>
<totfact> 0.12013575E+05</totfact>
</mgrwt>
</event>
<event>
 8    1  0.1520917E-013  0.7835637E+02  0.7818608E-02  0.1333782E+00
         -1   -1    0    0    0  501 -0.00000000000E+00  0.00000000000E+00  0.84795980189E+01  0.84795995167E+01  0.50400000000E-02 0.  1.
          2   -1    0    0  501    0  0.00000000000E+00 -0.00000000000E+00 -0.18101449190E+03  0.18101449191E+03  0.25500000000E-02 0. -1.
         24    2    1    2    0    0  0.00000000000E+00 -0.17763568394E-14 -0.17253489388E+03  0.18949409143E+03  0.78356372313E+02 0.  0.
         66    2    3    3    0    0 -0.23361487033E+02  0.14580824792E+02 -0.15362898640E+03  0.15609043849E+03  0.19999998491E+01 0.  0.
        -13    1    3    3    0    0  0.23361487033E+02 -0.14580824792E+02 -0.18905907482E+02  0.33403652940E+02  0.10566000000E+00 0.  1.
         13    1    4    4    0    0 -0.14472698732E+02  0.80972431541E+01 -0.91685626606E+02  0.93173438519E+02  0.10566000000E+00 0. -1.
        -13    1    4    4    0    0 -0.86543075580E+00  0.80086578900E+00 -0.75326143392E+01  0.76250769979E+01  0.10566000000E+00 0.  1.
        -14    1    4    4    0    0 -0.80233575453E+01  0.56827158488E+01 -0.54410745450E+02  0.55291922974E+02  0.00000000000E+00 0.  1.
<mgrwt>
<rscale>  0 0.78356372E+02</rscale>
<asrwt>0</asrwt>
<pdfrwt beam="1">  1        2 0.27848380E-01 0.78356372E+02</pdfrwt>
<pdfrwt beam="2">  1       -1 0.13045538E-02 0.78356372E+02</pdfrwt>
<totfact> 0.22516116E+05</totfact>
</mgrwt>
</event>
<event>
 8    1  0.1520917E-013  0.7918020E+02  0.7818608E-02  0.1331394E+00
          2   -1    0    0  501    0  0.00000000000E+00  0.00000000000E+00  0.78427386836E+03  0.78427386836E+03  0.25500000000E-02 0. -1.
         -1   -1    0    0    0  501 -0.00000000000E+00 -0.00000000000E+00 -0.19985027913E+01  0.19985091464E+01  0.50400000000E-02 0.  1.
         24    2    1    2    0    0  0.00000000000E+00  0.00000000000E+00  0.78227536557E+03  0.78627237751E+03  0.79180199927E+02 0.  0.
         66    2    3    3    0    0 -0.11000568600E+02 -0.12304960115E+02  0.74845106087E+03  0.74863570250E+03  0.19999995311E+01 0.  0.
        -13    1    3    3    0    0  0.11000568600E+02  0.12304960115E+02  0.33824304703E+02  0.37636675008E+02  0.10566000000E+00 0.  1.
         13    1    4    4    0    0 -0.66746043825E+01 -0.64070700218E+01  0.41289602915E+03  0.41299968879E+03  0.10566000000E+00 0. -1.
        -13    1    4    4    0    0 -0.32591879316E+00 -0.49097560979E+00  0.18606550244E+02  0.18616179955E+02  0.10566000000E+00 0. -1.
         14    1    4    4    0    0 -0.40000454247E+01 -0.54069144831E+01  0.31694848148E+03  0.31701983376E+03  0.00000000000E+00 0. -1.
<mgrwt>
<rscale>  0 0.79180200E+02</rscale>
<asrwt>0</asrwt>
<pdfrwt beam="1">  1        2 0.12065764E+00 0.79180200E+02</pdfrwt>
<pdfrwt beam="2">  1       -1 0.30746214E-03 0.79180200E+02</pdfrwt>
<totfact> 0.35173285E+05</totfact>
</mgrwt>
</event>
<event>
 8    1  0.1520917E-013  0.7970568E+02  0.7818608E-02  0.1329889E+00
          2   -1    0    0  501    0  0.00000000000E+00  0.00000000000E+00  0.90453819822E+02  0.90453819858E+02  0.25500000000E-02 0. -1.
         -1   -1    0    0    0  501 -0.00000000000E+00 -0.00000000000E+00 -0.17558669136E+02  0.17558669860E+02  0.50400000000E-02 0.  1.
         24    2    1    2    0    0  0.00000000000E+00  0.35527136788E-14  0.72895150686E+02  0.10801248972E+03  0.79705676972E+02 0.  0.
         66    2    3    3    0    0  0.10381729478E+02  0.19153892704E+02  0.81651622193E+02  0.84531883466E+02  0.20000007295E+01 0.  0.
        -13    1    3    3    0    0 -0.10381729478E+02 -0.19153892704E+02 -0.87564715069E+01  0.23480606252E+02  0.10566000000E+00 0.  1.
         13    1    4    4    0    0  0.62799007276E+01  0.11978080337E+02  0.51735456405E+02  0.53474107521E+02  0.10566000000E+00 0. -1.
        -13    1    4    4    0    0  0.40950839305E+01  0.71030323838E+01  0.28948856044E+02  0.30087708648E+02  0.10566000000E+00 0.  1.
        -14    1    4    4    0    0  0.67448202427E-02  0.72779983326E-01  0.96730974436E+00  0.97006729669E+00  0.00000000000E+00 0.  1.
<mgrwt>
<rscale>  0 0.79705677E+02</rscale>
<asrwt>0</asrwt>
<pdfrwt beam="1">  1        2 0.13915972E-01 0.79705677E+02</pdfrwt>
<pdfrwt beam="2">  1       -1 0.27013337E-02 0.79705677E+02</pdfrwt>
<totfact> 0.17415573E+05</totfact>
</mgrwt>
</event>
<event>
 8    1  0.1520917E-013  0.7885620E+02  0.7818608E-02  0.1332329E+00
         -1   -1    0    0    0  501 -0.00000000000E+00  0.00000000000E+00  0.23540468071E+01  0.23540522024E+01  0.50400000000E-02 0.  1.
          2   -1    0    0  501    0  0.00000000000E+00 -0.00000000000E+00 -0.66038334067E+03  0.66038334068E+03  0.25500000000E-02 0. -1.
         24    2    1    2    0    0  0.71054273576E-14  0.00000000000E+00 -0.65802929387E+03  0.66273739288E+03  0.78856200366E+02 0.  0.
         66    2    3    3    0    0  0.19767309060E+02 -0.14189110082E+02 -0.58969268365E+03  0.59019788080E+03  0.20000008458E+01 0.  0.
        -13    1    3    3    0    0 -0.19767309060E+02  0.14189110082E+02 -0.68336610220E+02  0.72539512080E+02  0.10566000000E+00 0.  1.
         13    1    4    4    0    0  0.60204194903E+01 -0.43626529525E+01 -0.18429544160E+03  0.18444538257E+03  0.10566000000E+00 0. -1.
        -13    1    4    4    0    0  0.68537817966E+00 -0.24414120863E+00 -0.24282178949E+02  0.24293306213E+02  0.10566000000E+00 0.  1.
        -14    1    4    4    0    0  0.13061511390E+02 -0.95823159204E+01 -0.38111506309E+03  0.38145919202E+03  0.00000000000E+00 0.  1.
<mgrwt>
<rscale>  0 0.78856200E+02</rscale>
<asrwt>0</asrwt>
<pdfrwt beam="1">  1        2 0.10159729E+00 0.78856200E+02</pdfrwt>
<pdfrwt beam="2">  1       -1 0.36216199E-03 0.78856200E+02</pdfrwt>
<totfact> 0.34246580E+05</totfact>
</mgrwt>
</event>
<event>
 8    1  0.1520917E-013  0.7922230E+02  0.7818608E-02  0.1331273E+00
          2   -1    0    0  501    0  0.00000000000E+00  0.00000000000E+00  0.24048741470E+02  0.24048741605E+02  0.25500000000E-02 0. -1.
         -1   -1    0    0    0  501 -0.00000000000E+00 -0.00000000000E+00 -0.65244298011E+02  0.65244298206E+02  0.50400000000E-02 0.  1.
         24    2    1    2    0    0  0.00000000000E+00  0.44408920985E-15 -0.41195556541E+02  0.89293039811E+02  0.79222301658E+02 0.  0.
         66    2    3    3    0    0 -0.25542535443E+02  0.33930429424E+01  0.13260998588E+02  0.29048028251E+02  0.20000011171E+01 0.  0.
        -13    1    3    3    0    0  0.25542535443E+02 -0.33930429424E+01 -0.54456555129E+02  0.60245011560E+02  0.10566000000E+00 0.  1.
         13    1    4    4    0    0 -0.75917720646E+01  0.99907339844E+00  0.30577166603E+01  0.82458441622E+01  0.10566000000E+00 0. -1.
        -13    1    4    4    0    0 -0.89692027239E+01  0.15907642062E+01  0.50304225523E+01  0.10406413568E+02  0.10566000000E+00 0.  1.
         14    1    4    4    0    0 -0.89815606543E+01  0.80320533784E+00  0.51728593758E+01  0.10395770521E+02  0.00000000000E+00 0. -1.
<mgrwt>
<rscale>  0 0.79222302E+02</rscale>
<asrwt>0</asrwt>
<pdfrwt beam="1">  1        2 0.36998064E-02 0.79222302E+02</pdfrwt>
<pdfrwt beam="2">  1       -1 0.10037584E-01 0.79222302E+02</pdfrwt>
<totfact> 0.13243101E+05</totfact>
</mgrwt>
</event>
<event>
 8    1  0.1520917E-013  0.8459277E+02  0.7818608E-02  0.1316501E+00
         -1   -1    0    0    0  501 -0.00000000000E+00  0.00000000000E+00  0.23880452188E+01  0.23880505373E+01  0.50400000000E-02 0.  1.
          2   -1    0    0  501    0  0.00000000000E+00 -0.00000000000E+00 -0.74914087203E+03  0.74914087203E+03  0.25500000000E-02 0. -1.
         24    2    1    2    0    0  0.00000000000E+00  0.17763568394E-14 -0.74675282681E+03  0.75152892257E+03  0.84592772216E+02 0.  0.
         66    2    3    3    0    0 -0.28697364236E+02 -0.93118847350E+01 -0.63663872236E+03  0.63735634672E+03  0.19999990581E+01 0.  0.
        -13    1    3    3    0    0  0.28697364236E+02  0.93118847350E+01 -0.11011410446E+03  0.11417257585E+03  0.10566000000E+00 0.  1.
         13    1    4    4    0    0 -0.41216639115E+01 -0.16957803928E+01 -0.94717415923E+02  0.94822274955E+02  0.10566000000E+00 0. -1.
        -13    1    4    4    0    0 -0.88073484844E+00  0.42568308861E-02 -0.19528662462E+02  0.19548798776E+02  0.10566000000E+00 0.  1.
         14    1    4    4    0    0 -0.23694965477E+02 -0.76203611730E+01 -0.52239264397E+03  0.52298527299E+03  0.00000000000E+00 0. -1.
<mgrwt>
<rscale>  0 0.84592772E+02</rscale>
<asrwt>0</asrwt>
<pdfrwt beam="1">  1        2 0.11525225E+00 0.84592772E+02</pdfrwt>
<pdfrwt beam="2">  1       -1 0.36739258E-03 0.84592772E+02</pdfrwt>
<totfact> 0.29349577E+05</totfact>
</mgrwt>
</event>
<event>
 8    1  0.1520917E-013  0.8063447E+02  0.7818608E-02  0.1327260E+00
          2   -1    0    0  501    0  0.00000000000E+00  0.00000000000E+00  0.14709542824E+04  0.14709542824E+04  0.25500000000E-02 0. -1.
         -1   -1    0    0    0  501 -0.00000000000E+00 -0.00000000000E+00 -0.11050452359E+01  0.11050567293E+01  0.50400000000E-02 0.  1.
         24    2    1    2    0    0 -0.17763568394E-14  0.35527136788E-14  0.14698492371E+04  0.14720593391E+04  0.80634471116E+02 0.  0.
         66    2    3    3    0    0  0.11262734192E+02  0.16597283490E+02  0.13733305089E+04  0.13734784329E+04  0.20000010724E+01 0.  0.
        -13    1    3    3    0    0 -0.11262734192E+02 -0.16597283490E+02  0.96518728235E+02  0.98580906188E+02  0.10566000000E+00 0.  1.
         13    1    4    4    0    0  0.18879029980E+01  0.33120557388E+01  0.22019886784E+03  0.22023189245E+03  0.10566000000E+00 0. -1.
        -13    1    4    4    0    0  0.64543949200E+01  0.93996005249E+01  0.78513303112E+03  0.78521582983E+03  0.10566000000E+00 0. -1.
         14    1    4    4    0    0  0.29204362744E+01  0.38856272262E+01  0.36799860993E+03  0.36803071062E+03  0.00000000000E+00 0. -1.
<mgrwt>
<rscale>  0 0.80634471E+02</rscale>
<asrwt>0</asrwt>
<pdfrwt beam="1">  1        2 0.22630073E+00 0.80634471E+02</pdfrwt>
<pdfrwt beam="2">  1       -1 0.17000779E-03 0.80634471E+02</pdfrwt>
<totfact> 0.32807287E+05</totfact>
</mgrwt>
</event>
<event>
 8    1  0.1520917E-013  0.7328612E+02  0.7818608E-02  0.1349262E+00
         -1   -1    0    0    0  501 -0.00000000000E+00  0.00000000000E+00  0.87340954634E+02  0.87340954779E+02  0.50400000000E-02 0.  1.
          2   -1    0    0  501    0  0.00000000000E+00 -0.00000000000E+00 -0.15373242156E+02  0.15373242368E+02  0.25500000000E-02 0. -1.
         24    2    1    2    0    0  0.00000000000E+00  0.00000000000E+00  0.71967712478E+02  0.10271419715E+03  0.73286115031E+02 0.  0.
         66    2    3    3    0    0 -0.18816983854E+02  0.24044879007E+02  0.76842160330E+01  0.31548094493E+02  0.20000005640E+01 0.  0.
        -13    1    3    3    0    0  0.18816983854E+02 -0.24044879007E+02  0.64283496445E+02  0.71166102654E+02  0.10566000000E+00 0.  1.
         13    1    4    4    0    0 -0.87523890556E+01  0.11916953784E+02  0.35813171852E+01  0.15213648428E+02  0.10566000000E+00 0. -1.
        -13    1    4    4    0    0 -0.72340528101E+01  0.78437323201E+01  0.29641331706E+01  0.11074877257E+02  0.10566000000E+00 0.  1.
        -14    1    4    4    0    0 -0.28305419885E+01  0.42841929031E+01  0.11387656771E+01  0.52595688081E+01  0.00000000000E+00 0.  1.
<mgrwt>
<rscale>  0 0.73286115E+02</rscale>
<asrwt>0</asrwt>
<pdfrwt beam="1">  1        2 0.23651142E-02 0.73286115E+02</pdfrwt>
<pdfrwt beam="2">  1       -1 0.13437070E-01 0.73286115E+02</pdfrwt>
<totfact> 0.15152245E+05</totfact>
</mgrwt>
</event>
<event>
 8    1  0.1520917E-013  0.8460552E+02  0.7818608E-02  0.1316467E+00
          2   -1    0    0  501    0  0.00000000000E+00  0.00000000000E+00  0.98044637044E+01  0.98044640360E+01  0.25500000000E-02 0. -1.
         -1   -1    0    0    0  501 -0.00000000000E+00 -0.00000000000E+00 -0.18252131596E+03  0.18252131603E+03  0.50400000000E-02 0.  1.
         24    2    1    2    0    0 -0.17763568394E-14  0.00000000000E+00 -0.17271685226E+03  0.19232578007E+03  0.84605523607E+02 0.  0.
         66    2    3    3    0    0  0.15755391695E+02  0.32236218761E+02 -0.35570402942E+02  0.50563422964E+02  0.20000022482E+01 0.  0.
        -13    1    3    3    0    0 -0.15755391695E+02 -0.32236218761E+02 -0.13714644931E+03  0.14176235710E+03  0.10566000000E+00 0.  1.
         13    1    4    4    0    0  0.51954451307E+01  0.11751463538E+02 -0.12913815508E+02  0.18217226474E+02  0.10566000000E+00 0. -1.
        -13    1    4    4    0    0  0.90212969637E+01  0.17910590613E+02 -0.20262494400E+02  0.28508821413E+02  0.10566000000E+00 0.  1.
        -14    1    4    4    0    0  0.15386496008E+01  0.25741646098E+01 -0.23940930338E+01  0.38373750777E+01  0.00000000000E+00 0.  1.
<mgrwt>
<rscale>  0 0.84605524E+02</rscale>
<asrwt>0</asrwt>
<pdfrwt beam="1">  1        2 0.15083792E-02 0.84605524E+02</pdfrwt>
<pdfrwt beam="2">  1       -1 0.28080200E-01 0.84605524E+02</pdfrwt>
<totfact> 0.88746089E+04</totfact>
</mgrwt>
</event>
<event>
 8    1  0.1520917E-013  0.8057498E+02  0.7818608E-02  0.1327428E+00
         -1   -1    0    0    0  501 -0.00000000000E+00  0.00000000000E+00  0.13334836071E+01  0.13334931315E+01  0.50400000000E-02 0.  1.
          2   -1    0    0  501    0  0.00000000000E+00 -0.00000000000E+00 -0.12171697425E+04  0.12171697425E+04  0.25500000000E-02 0. -1.
         24    2    1    2    0    0  0.00000000000E+00  0.00000000000E+00 -0.12158362589E+04  0.12185032356E+04  0.80574976341E+02 0.  0.
         66    2    3    3    0    0 -0.77832607912E+01  0.11722257987E+02 -0.11787738475E+04  0.11788595226E+04  0.20000004158E+01 0.  0.
        -13    1    3    3    0    0  0.77832607912E+01 -0.11722257987E+02 -0.37062411446E+02  0.39643713084E+02  0.10566000000E+00 0.  1.
         13    1    4    4    0    0 -0.12005389572E+01  0.15753419439E+01 -0.19061779986E+03  0.19062811908E+03  0.10566000000E+00 0.  1.
        -13    1    4    4    0    0 -0.29370487627E+01  0.32578508982E+01 -0.38485180279E+03  0.38487681292E+03  0.10566000000E+00 0. -1.
         14    1    4    4    0    0 -0.36456730714E+01  0.68890651449E+01 -0.60330424481E+03  0.60335459056E+03  0.00000000000E+00 0. -1.
<mgrwt>
<rscale>  0 0.80574976E+02</rscale>
<asrwt>0</asrwt>
<pdfrwt beam="1">  1        2 0.18725600E+00 0.80574976E+02</pdfrwt>
<pdfrwt beam="2">  1       -1 0.20515303E-03 0.80574976E+02</pdfrwt>
<totfact> 0.34335138E+05</totfact>
</mgrwt>
</event>
<event>
 8    1  0.1520917E-013  0.7955754E+02  0.7818608E-02  0.1330312E+00
          2   -1    0    0  501    0  0.00000000000E+00  0.00000000000E+00  0.10770150992E+04  0.10770150992E+04  0.25500000000E-02 0. -1.
         -1   -1    0    0    0  501 -0.00000000000E+00 -0.00000000000E+00 -0.14691957780E+01  0.14692044227E+01  0.50400000000E-02 0.  1.
         24    2    1    2    0    0  0.00000000000E+00  0.00000000000E+00  0.10755459034E+04  0.10784843036E+04  0.79557543947E+02 0.  0.
         66    2    3    3    0    0  0.13590933290E+02 -0.21023238468E+02  0.95673985826E+03  0.95706940523E+03  0.20000008413E+01 0.  0.
        -13    1    3    3    0    0 -0.13590933290E+02  0.21023238468E+02  0.11880604514E+03  0.12141489838E+03  0.10566000000E+00 0.  1.
         13    1    4    4    0    0  0.64390453309E+01 -0.84091276636E+01  0.40118547720E+03  0.40132527084E+03  0.10566000000E+00 0. -1.
        -13    1    4    4    0    0  0.29061128283E+01 -0.50148802653E+01  0.20811272254E+03  0.20819344602E+03  0.10566000000E+00 0.  1.
         14    1    4    4    0    0  0.42457751311E+01 -0.75992305394E+01  0.34744165852E+03  0.34755068837E+03  0.00000000000E+00 0. -1.
<mgrwt>
<rscale>  0 0.79557544E+02</rscale>
<asrwt>0</asrwt>
<pdfrwt beam="1">  1        2 0.16569489E+00 0.79557544E+02</pdfrwt>
<pdfrwt beam="2">  1       -1 0.22603043E-03 0.79557544E+02</pdfrwt>
<totfact> 0.35780274E+05</totfact>
</mgrwt>
</event>
<event>
 8    1  0.1520917E-013  0.7831344E+02  0.7818608E-02  0.1333907E+00
         -1   -1    0    0    0  501 -0.00000000000E+00  0.00000000000E+00  0.19565580774E+03  0.19565580780E+03  0.50400000000E-02 0.  1.
          2   -1    0    0  501    0  0.00000000000E+00 -0.00000000000E+00 -0.78364581697E+01  0.78364585846E+01  0.25500000000E-02 0. -1.
         24    2    1    2    0    0  0.00000000000E+00  0.00000000000E+00  0.18781934957E+03  0.20349226639E+03  0.78313436952E+02 0.  0.
         66    2    3    3    0    0  0.71159968419E+01  0.37010656169E+02  0.66617059862E+02  0.76565388717E+02  0.20000009114E+01 0.  0.
        -13    1    3    3    0    0 -0.71159968419E+01 -0.37010656169E+02  0.12120228970E+03  0.12692687767E+03  0.10566000000E+00 0.  1.
         13    1    4    4    0    0  0.19446412302E+01  0.63404772694E+01  0.11724303805E+02  0.13470476802E+02  0.10566000000E+00 0. -1.
        -13    1    4    4    0    0  0.13695348711E+01  0.84848438702E+01  0.15662837864E+02  0.17866277040E+02  0.10566000000E+00 0.  1.
         14    1    4    4    0    0  0.38018207406E+01  0.22185335029E+02  0.39229918192E+02  0.45228634875E+02  0.00000000000E+00 0. -1.
<mgrwt>
<rscale>  0 0.78313437E+02</rscale>
<asrwt>0</asrwt>
<pdfrwt beam="1">  1        2 0.12056091E-02 0.78313437E+02</pdfrwt>
<pdfrwt beam="2">  1       -1 0.30100891E-01 0.78313437E+02</pdfrwt>
<totfact> 0.10584623E+05</totfact>
</mgrwt>
</event>
<event>
 8    1  0.1520917E-013  0.8395148E+02  0.7818608E-02  0.1318198E+00
          2   -1    0    0  501    0  0.00000000000E+00  0.00000000000E+00  0.27258640592E+03  0.27258640593E+03  0.25500000000E-02 0. -1.
         -1   -1    0    0    0  501 -0.00000000000E+00 -0.00000000000E+00 -0.64638681691E+01  0.64638701340E+01  0.50400000000E-02 0.  1.
         24    2    1    2    0    0  0.35527136788E-14  0.00000000000E+00  0.26612253775E+03  0.27905027607E+03  0.83951482855E+02 0.  0.
         66    2    3    3    0    0 -0.31422352471E+02 -0.16099584377E+02  0.20845144965E+03  0.21142981748E+03  0.20000022065E+01 0.  0.
        -13    1    3    3    0    0  0.31422352471E+02  0.16099584377E+02  0.57671088104E+02  0.67620458584E+02  0.10566000000E+00 0.  1.
         13    1    4    4    0    0 -0.15516739878E+02 -0.72873811421E+01  0.10144163449E+03  0.10287998596E+03  0.10566000000E+00 0. -1.
        -13    1    4    4    0    0 -0.93576692750E+01 -0.47503065601E+01  0.59203791894E+02  0.60126795402E+02  0.10566000000E+00 0.  1.
         14    1    4    4    0    0 -0.65479433184E+01 -0.40618966745E+01  0.47806023266E+02  0.48423036118E+02  0.00000000000E+00 0. -1.
<mgrwt>
<rscale>  0 0.83951483E+02</rscale>
<asrwt>0</asrwt>
<pdfrwt beam="1">  1        2 0.41936364E-01 0.83951483E+02</pdfrwt>
<pdfrwt beam="2">  1       -1 0.99444157E-03 0.83951483E+02</pdfrwt>
<totfact> 0.21690294E+05</totfact>
</mgrwt>
</event>
<event>
 8    1  0.1520917E-013  0.8110882E+02  0.7818608E-02  0.1325934E+00
         -1   -1    0    0    0  501 -0.00000000000E+00  0.00000000000E+00  0.39932908610E+02  0.39932908928E+02  0.50400000000E-02 0.  1.
          2   -1    0    0  501    0  0.00000000000E+00 -0.00000000000E+00 -0.41185581909E+02  0.41185581988E+02  0.25500000000E-02 0. -1.
         24    2    1    2    0    0 -0.71054273576E-14  0.00000000000E+00 -0.12526732987E+01  0.81118490916E+02  0.81108818128E+02 0.  0.
         66    2    3    3    0    0 -0.33608510392E+02  0.20921185409E+02 -0.93126327419E+01  0.40717970129E+02  0.19999982901E+01 0.  0.
        -13    1    3    3    0    0  0.33608510392E+02 -0.20921185409E+02  0.80599594432E+01  0.40400520788E+02  0.10566000000E+00 0.  1.
         13    1    4    4    0    0 -0.98989386542E+00  0.64944248026E+00 -0.51520554837E-01  0.11897410656E+01  0.10566000000E+00 0. -1.
        -13    1    4    4    0    0 -0.93525982484E+01  0.51596174289E+01 -0.27923347141E+01  0.11040880545E+02  0.10566000000E+00 0.  1.
         14    1    4    4    0    0 -0.23266018278E+02  0.15112125500E+02 -0.64687774729E+01  0.28487348518E+02  0.00000000000E+00 0. -1.
<mgrwt>
<rscale>  0 0.81108818E+02</rscale>
<asrwt>0</asrwt>
<pdfrwt beam="1">  1        2 0.63362434E-02 0.81108818E+02</pdfrwt>
<pdfrwt beam="2">  1       -1 0.61435245E-02 0.81108818E+02</pdfrwt>
<totfact> 0.13805989E+05</totfact>
</mgrwt>
</event>
<event>
 8    1  0.1520917E-013  0.8225962E+02  0.7818608E-02  0.1322759E+00
          2   -1    0    0  501    0  0.00000000000E+00  0.00000000000E+00  0.58530811735E+03  0.58530811735E+03  0.25500000000E-02 0. -1.
         -1   -1    0    0    0  501 -0.00000000000E+00 -0.00000000000E+00 -0.28902038817E+01  0.28902082761E+01  0.50400000000E-02 0.  1.
         24    2    1    2    0    0 -0.55511151231E-16 -0.35527136788E-14  0.58241791346E+03  0.58819832563E+03  0.82259615529E+02 0.  0.
         66    2    3    3    0    0  0.39252153513E+00  0.26464408088E+02  0.51626814229E+03  0.51695001085E+03  0.20000007378E+01 0.  0.
        -13    1    3    3    0    0 -0.39252153513E+00 -0.26464408088E+02  0.66149771176E+02  0.71248314782E+02  0.10566000000E+00 0.  1.
         13    1    4    4    0    0  0.16144711295E+00  0.13762258771E+02  0.27574678693E+03  0.27609007135E+03  0.10566000000E+00 0. -1.
        -13    1    4    4    0    0  0.81260853966E-01  0.12508302691E+02  0.23418111503E+03  0.23451496763E+03  0.10566000000E+00 0.  1.
        -14    1    4    4    0    0  0.14981356821E+00  0.19384662592E+00  0.63402403265E+01  0.63449718689E+01  0.00000000000E+00 0.  1.
<mgrwt>
<rscale>  0 0.82259616E+02</rscale>
<asrwt>0</asrwt>
<pdfrwt beam="1">  1        2 0.90047398E-01 0.82259616E+02</pdfrwt>
<pdfrwt beam="2">  1       -1 0.44464711E-03 0.82259616E+02</pdfrwt>
<totfact> 0.29703279E+05</totfact>
</mgrwt>
</event>
<event>
 8    1  0.1520917E-013  0.7653013E+02  0.7818608E-02  0.1339197E+00
         -1   -1    0    0    0  501 -0.00000000000E+00  0.00000000000E+00  0.11303867685E+01  0.11303980043E+01  0.50400000000E-02 0.  1.
          2   -1    0    0  501    0  0.00000000000E+00 -0.00000000000E+00 -0.12953160292E+04  0.12953160292E+04  0.25500000000E-02 0. -1.
         24    2    1    2    0    0  0.88817841970E-15  0.00000000000E+00 -0.12941856424E+04  0.12964464272E+04  0.76530134858E+02 0.  0.
         66    2    3    3    0    0 -0.74782918485E+01  0.17326162411E+02 -0.12109340890E+04  0.12110827753E+04  0.19999974022E+01 0.  0.
        -13    1    3    3    0    0  0.74782918485E+01 -0.17326162411E+02 -0.83251553417E+02  0.85363651886E+02  0.10566000000E+00 0.  1.
         13    1    4    4    0    0 -0.35948501940E+01  0.97095994819E+01 -0.61808496424E+03  0.61817168606E+03  0.10566000000E+00 0. -1.
        -13    1    4    4    0    0 -0.22055134421E+01  0.42639339530E+01 -0.35329735805E+03  0.35332998711E+03  0.10566000000E+00 0.  1.
        -14    1    4    4    0    0 -0.16779282124E+01  0.33526289758E+01 -0.23955176674E+03  0.23958110216E+03  0.00000000000E+00 0.  1.
<mgrwt>
<rscale>  0 0.76530135E+02</rscale>
<asrwt>0</asrwt>
<pdfrwt beam="1">  1        2 0.19927820E+00 0.76530135E+02</pdfrwt>
<pdfrwt beam="2">  1       -1 0.17390756E-03 0.76530135E+02</pdfrwt>
<totfact> 0.38858397E+05</totfact>
</mgrwt>
</event>
<event>
 8    1  0.1520917E-013  0.7823510E+02  0.7818608E-02  0.1334136E+00
         -1   -1    0    0    0  501 -0.00000000000E+00  0.00000000000E+00  0.17475734110E+02  0.17475734836E+02  0.50400000000E-02 0.  1.
          2   -1    0    0  501    0  0.00000000000E+00 -0.00000000000E+00 -0.87560412460E+02  0.87560412497E+02  0.25500000000E-02 0. -1.
         24    2    1    2    0    0  0.00000000000E+00  0.00000000000E+00 -0.70084678350E+02  0.10503614733E+03  0.78235095112E+02 0.  0.
         66    2    3    3    0    0 -0.78672173963E+01  0.23054597672E+02 -0.76112944733E+02  0.79941152952E+02  0.19999989979E+01 0.  0.
        -13    1    3    3    0    0  0.78672173963E+01 -0.23054597672E+02  0.60282663826E+01  0.25094994381E+02  0.10566000000E+00 0.  1.
         13    1    4    4    0    0 -0.29720239078E+01  0.89322844115E+01 -0.30372294395E+02  0.31797893983E+02  0.10566000000E+00 0. -1.
        -13    1    4    4    0    0 -0.79200466801E+00  0.14308265290E+01 -0.39793610902E+01  0.43036048462E+01  0.10566000000E+00 0.  1.
        -14    1    4    4    0    0 -0.41031888205E+01  0.12691486732E+02 -0.41761289248E+02  0.43839654123E+02  0.00000000000E+00 0.  1.
<mgrwt>
<rscale>  0 0.78235095E+02</rscale>
<asrwt>0</asrwt>
<pdfrwt beam="1">  1        2 0.13470832E-01 0.78235095E+02</pdfrwt>
<pdfrwt beam="2">  1       -1 0.26885746E-02 0.78235095E+02</pdfrwt>
<totfact> 0.18149689E+05</totfact>
</mgrwt>
</event>
<event>
 8    1  0.1520917E-013  0.8123132E+02  0.7818608E-02  0.1325593E+00
         -1   -1    0    0    0  501 -0.00000000000E+00  0.00000000000E+00  0.37345914832E+01  0.37345948840E+01  0.50400000000E-02 0.  1.
          2   -1    0    0  501    0  0.00000000000E+00 -0.00000000000E+00 -0.44171665368E+03  0.44171665369E+03  0.25500000000E-02 0. -1.
         24    2    1    2    0    0  0.88817841970E-15  0.00000000000E+00 -0.43798206220E+03  0.44545124857E+03  0.81231324301E+02 0.  0.
         66    2    3    3    0    0 -0.66658414865E+01  0.35771271522E+02 -0.31777121766E+03  0.31985397305E+03  0.19999991223E+01 0.  0.
        -13    1    3    3    0    0  0.66658414865E+01 -0.35771271522E+02 -0.12021084454E+03  0.12559727552E+03  0.10566000000E+00 0.  1.
         13    1    4    4    0    0 -0.33905170772E+01  0.20328787707E+02 -0.18566271151E+03  0.18680312852E+03  0.10566000000E+00 0. -1.
        -13    1    4    4    0    0 -0.33946648053E+00  0.30633402201E+01 -0.26326496838E+02  0.26506506571E+02  0.10566000000E+00 0.  1.
         14    1    4    4    0    0 -0.29358579288E+01  0.12379143595E+02 -0.10578200931E+03  0.10654433796E+03  0.00000000000E+00 0. -1.
<mgrwt>
<rscale>  0 0.81231324E+02</rscale>
<asrwt>0</asrwt>
<pdfrwt beam="1">  1        2 0.67956367E-01 0.81231324E+02</pdfrwt>
<pdfrwt beam="2">  1       -1 0.57455315E-03 0.81231324E+02</pdfrwt>
<totfact> 0.28091784E+05</totfact>
</mgrwt>
</event>
<event>
 8    1  0.1520917E-013  0.7946200E+02  0.7818608E-02  0.1330585E+00
          2   -1    0    0  501    0  0.00000000000E+00  0.00000000000E+00  0.46762219688E+03  0.46762219689E+03  0.25500000000E-02 0. -1.
         -1   -1    0    0    0  501 -0.00000000000E+00 -0.00000000000E+00 -0.33756986100E+01  0.33757023724E+01  0.50400000000E-02 0.  1.
         24    2    1    2    0    0  0.00000000000E+00  0.00000000000E+00  0.46424649827E+03  0.47099789926E+03  0.79462003188E+02 0.  0.
         66    2    3    3    0    0  0.17971595446E+02  0.20817313787E+02  0.40202452824E+03  0.40296905600E+03  0.19999985463E+01 0.  0.
        -13    1    3    3    0    0 -0.17971595446E+02 -0.20817313787E+02  0.62221970034E+02  0.68028843259E+02  0.10566000000E+00 0.  1.
         13    1    4    4    0    0  0.11454376854E+02  0.14330064185E+02  0.26134050084E+03  0.26198362932E+03  0.10566000000E+00 0. -1.
        -13    1    4    4    0    0  0.10351701675E+01  0.94282673035E+00  0.18942321075E+02  0.18994293650E+02  0.10566000000E+00 0. -1.
        -14    1    4    4    0    0  0.54820484246E+01  0.55444228724E+01  0.12174170632E+03  0.12199113303E+03  0.00000000000E+00 0.  1.
<mgrwt>
<rscale>  0 0.79462003E+02</rscale>
<asrwt>0</asrwt>
<pdfrwt beam="1">  1        2 0.71941860E-01 0.79462003E+02</pdfrwt>
<pdfrwt beam="2">  1       -1 0.51933866E-03 0.79462003E+02</pdfrwt>
<totfact> 0.30325849E+05</totfact>
</mgrwt>
</event>
<event>
 8    1  0.1520917E-013  0.7611067E+02  0.7818608E-02  0.1340466E+00
         -1   -1    0    0    0  501 -0.00000000000E+00  0.00000000000E+00  0.51526131261E+01  0.51526155910E+01  0.50400000000E-02 0.  1.
          2   -1    0    0  501    0  0.00000000000E+00 -0.00000000000E+00 -0.28106285711E+03  0.28106285712E+03  0.25500000000E-02 0. -1.
         24    2    1    2    0    0  0.00000000000E+00  0.00000000000E+00 -0.27591024398E+03  0.28621547271E+03  0.76110669980E+02 0.  0.
         66    2    3    3    0    0  0.82912968680E+01  0.31879333522E+02 -0.20951637648E+03  0.21209938596E+03  0.20000003074E+01 0.  0.
        -13    1    3    3    0    0 -0.82912968680E+01 -0.31879333522E+02 -0.66393867505E+02  0.74116086755E+02  0.10566000000E+00 0.  1.
         13    1    4    4    0    0  0.77719609002E+01  0.28044838543E+02 -0.18680470383E+03  0.18905799344E+03  0.10566000000E+00 0. -1.
        -13    1    4    4    0    0  0.28799725339E+00  0.17308660413E+01 -0.11128101358E+02  0.11266083772E+02  0.10566000000E+00 0. -1.
         14    1    4    4    0    0  0.23133871439E+00  0.21036289379E+01 -0.11583571286E+02  0.11775308745E+02  0.00000000000E+00 0. -1.
<mgrwt>
<rscale>  0 0.76110670E+02</rscale>
<asrwt>0</asrwt>
<pdfrwt beam="1">  1        2 0.43240428E-01 0.76110670E+02</pdfrwt>
<pdfrwt beam="2">  1       -1 0.79271012E-03 0.76110670E+02</pdfrwt>
<totfact> 0.28369083E+05</totfact>
</mgrwt>
</event>
<event>
 8    1  0.1520917E-013  0.8032615E+02  0.7818608E-02  0.1328128E+00
          2   -1    0    0  501    0  0.00000000000E+00  0.00000000000E+00  0.66032243475E+03  0.66032243476E+03  0.25500000000E-02 0. -1.
         -1   -1    0    0    0  501 -0.00000000000E+00 -0.00000000000E+00 -0.24428534895E+01  0.24428586886E+01  0.50400000000E-02 0.  1.
         24    2    1    2    0    0  0.00000000000E+00  0.00000000000E+00  0.65787958126E+03  0.66276529344E+03  0.80326152365E+02 0.  0.
         66    2    3    3    0    0 -0.10918738079E+02  0.36651215719E+02  0.42970204116E+03  0.43140511660E+03  0.20000009647E+01 0.  0.
        -13    1    3    3    0    0  0.10918738079E+02 -0.36651215719E+02  0.22817754011E+03  0.23136017684E+03  0.10566000000E+00 0.  1.
         13    1    4    4    0    0 -0.19471770554E+01  0.52443049274E+01  0.67495390437E+02  0.67726901058E+02  0.10566000000E+00 0.  1.
        -13    1    4    4    0    0 -0.53703738843E+00  0.24581630438E+01  0.30698542681E+02  0.30801666537E+02  0.10566000000E+00 0. -1.
         14    1    4    4    0    0 -0.84345236353E+01  0.28948747747E+02  0.33150810804E+03  0.33287654901E+03  0.00000000000E+00 0. -1.
<mgrwt>
<rscale>  0 0.80326152E+02</rscale>
<asrwt>0</asrwt>
<pdfrwt beam="1">  1        2 0.10158796E+00 0.80326152E+02</pdfrwt>
<pdfrwt beam="2">  1       -1 0.37582440E-03 0.80326152E+02</pdfrwt>
<totfact> 0.32640712E+05</totfact>
</mgrwt>
</event>
<event>
 8    1  0.1520917E-013  0.7820665E+02  0.7818608E-02  0.1334219E+00
          2   -1    0    0  501    0  0.00000000000E+00  0.00000000000E+00  0.12352139097E+04  0.12352139097E+04  0.25500000000E-02 0. -1.
         -1   -1    0    0    0  501 -0.00000000000E+00 -0.00000000000E+00 -0.12378938330E+01  0.12379040930E+01  0.50400000000E-02 0.  1.
         24    2    1    2    0    0  0.88817841970E-15  0.35527136788E-14  0.12339760158E+04  0.12364518138E+04  0.78206649995E+02 0.  0.
         66    2    3    3    0    0  0.56999380498E+01  0.21382273649E+02  0.11266054346E+04  0.11268245188E+04  0.20000002672E+01 0.  0.
        -13    1    3    3    0    0 -0.56999380498E+01 -0.21382273649E+02  0.10737058126E+03  0.10962729498E+03  0.10566000000E+00 0.  1.
         13    1    4    4    0    0  0.45240754663E+01  0.17413839427E+02  0.92386205600E+03  0.92403723883E+03  0.10566000000E+00 0. -1.
        -13    1    4    4    0    0  0.11404676615E+01  0.36688300729E+01  0.19525916080E+03  0.19529698415E+03  0.10566000000E+00 0.  1.
        -14    1    4    4    0    0  0.35394922014E-01  0.29960414877E+00  0.74842177723E+01  0.74902957958E+01  0.00000000000E+00 0.  1.
<mgrwt>
<rscale>  0 0.78206650E+02</rscale>
<asrwt>0</asrwt>
<pdfrwt beam="1">  1        2 0.19003396E+00 0.78206650E+02</pdfrwt>
<pdfrwt beam="2">  1       -1 0.19044494E-03 0.78206650E+02</pdfrwt>
<totfact> 0.37026301E+05</totfact>
</mgrwt>
</event>
<event>
 8    1  0.1520917E-013  0.8399380E+02  0.7818608E-02  0.1318085E+00
         -1   -1    0    0    0  501 -0.00000000000E+00  0.00000000000E+00  0.54787818583E+01  0.54787841765E+01  0.50400000000E-02 0.  1.
          2   -1    0    0  501    0  0.00000000000E+00 -0.00000000000E+00 -0.32192179665E+03  0.32192179666E+03  0.25500000000E-02 0. -1.
         24    2    1    2    0    0  0.00000000000E+00  0.17763568394E-14 -0.31644301479E+03  0.32740058084E+03  0.83993801686E+02 0.  0.
         66    2    3    3    0    0 -0.34921203303E+02  0.11683418907E+02 -0.23682678322E+03  0.23968086691E+03  0.19999987927E+01 0.  0.
        -13    1    3    3    0    0  0.34921203303E+02 -0.11683418907E+02 -0.79616231570E+02  0.87719713925E+02  0.10566000000E+00 0.  1.
         13    1    4    4    0    0 -0.26409292513E+02  0.92741373183E+01 -0.17774742065E+03  0.17993781444E+03  0.10566000000E+00 0. -1.
        -13    1    4    4    0    0 -0.84162719262E+01  0.24011689389E+01 -0.57670752854E+02  0.58331176434E+02  0.10566000000E+00 0.  1.
        -14    1    4    4    0    0 -0.95638864218E-01  0.81126499749E-02 -0.14086097198E+01  0.14118760392E+01  0.00000000000E+00 0.  1.
<mgrwt>
<rscale>  0 0.83993802E+02</rscale>
<asrwt>0</asrwt>
<pdfrwt beam="1">  1        2 0.49526416E-01 0.83993802E+02</pdfrwt>
<pdfrwt beam="2">  1       -1 0.84288995E-03 0.83993802E+02</pdfrwt>
<totfact> 0.23012559E+05</totfact>
</mgrwt>
</event>
<event>
 8    1  0.1520917E-013  0.7874981E+02  0.7818608E-02  0.1332637E+00
         -1   -1    0    0    0  501 -0.00000000000E+00  0.00000000000E+00  0.10519718632E+03  0.10519718644E+03  0.50400000000E-02 0.  1.
          2   -1    0    0  501    0  0.00000000000E+00 -0.00000000000E+00 -0.14737876112E+02  0.14737876333E+02  0.25500000000E-02 0. -1.
         24    2    1    2    0    0 -0.88817841970E-15  0.35527136788E-14  0.90459310206E+02  0.11993506277E+03  0.78749809390E+02 0.  0.
         66    2    3    3    0    0 -0.51358956971E+01 -0.18943822353E+02 -0.66823626604E+01  0.20830261670E+02  0.20000001462E+01 0.  0.
        -13    1    3    3    0    0  0.51358956971E+01  0.18943822353E+02  0.97141672866E+02  0.99104801101E+02  0.10566000000E+00 0.  1.
         13    1    4    4    0    0 -0.65725015944E+00 -0.13066523907E+01 -0.42244183448E+00  0.15260862955E+01  0.10566000000E+00 0. -1.
        -13    1    4    4    0    0 -0.69022723613E+00 -0.42687905078E+01 -0.20418533829E+01  0.47832327259E+01  0.10566000000E+00 0.  1.
        -14    1    4    4    0    0 -0.37884183015E+01 -0.13368379454E+02 -0.42180674431E+01  0.14520942649E+02  0.00000000000E+00 0.  1.
<mgrwt>
<rscale>  0 0.78749809E+02</rscale>
<asrwt>0</asrwt>
<pdfrwt beam="1">  1        2 0.22673657E-02 0.78749809E+02</pdfrwt>
<pdfrwt beam="2">  1       -1 0.16184182E-01 0.78749809E+02</pdfrwt>
<totfact> 0.12194389E+05</totfact>
</mgrwt>
</event>
<event>
 8    1  0.1520917E-013  0.8444041E+02  0.7818608E-02  0.1316902E+00
         -1   -1    0    0    0  501 -0.00000000000E+00  0.00000000000E+00  0.15685282535E+01  0.15685363507E+01  0.50400000000E-02 0.  1.
          2   -1    0    0  501    0  0.00000000000E+00 -0.00000000000E+00 -0.11364417018E+04  0.11364417018E+04  0.25500000000E-02 0. -1.
         24    2    1    2    0    0  0.00000000000E+00  0.00000000000E+00 -0.11348731736E+04  0.11380102382E+04  0.84440405653E+02 0.  0.
         66    2    3    3    0    0 -0.12309772854E+02  0.16946093123E+02 -0.10614347999E+04  0.10616433182E+04  0.19999992611E+01 0.  0.
        -13    1    3    3    0    0  0.12309772854E+02 -0.16946093123E+02 -0.73438373650E+02  0.76366919986E+02  0.10566000000E+00 0.  1.
         13    1    4    4    0    0 -0.25867931561E+01  0.43053963230E+01 -0.23415382118E+03  0.23420770926E+03  0.10566000000E+00 0. -1.
        -13    1    4    4    0    0 -0.70895652018E+01  0.94858055701E+01 -0.63976823636E+03  0.63987783980E+03  0.10566000000E+00 0.  1.
        -14    1    4    4    0    0 -0.26334144962E+01  0.31548912303E+01 -0.18751274236E+03  0.18755776912E+03  0.00000000000E+00 0.  1.
<mgrwt>
<rscale>  0 0.84440406E+02</rscale>
<asrwt>0</asrwt>
<pdfrwt beam="1">  1        2 0.17483653E+00 0.84440406E+02</pdfrwt>
<pdfrwt beam="2">  1       -1 0.24131357E-03 0.84440406E+02</pdfrwt>
<totfact> 0.30581601E+05</totfact>
</mgrwt>
</event>
<event>
 8    1  0.1520917E-013  0.7612198E+02  0.7818608E-02  0.1340431E+00
         -1   -1    0    0    0  501 -0.00000000000E+00  0.00000000000E+00  0.84851650324E+01  0.84851665292E+01  0.50400000000E-02 0.  1.
          2   -1    0    0  501    0  0.00000000000E+00 -0.00000000000E+00 -0.17072606611E+03  0.17072606613E+03  0.25500000000E-02 0. -1.
         24    2    1    2    0    0  0.71054273576E-14 -0.35527136788E-14 -0.16224090108E+03  0.17921123266E+03  0.76121980587E+02 0.  0.
         66    2    3    3    0    0 -0.22629570169E+02  0.29374215782E+02 -0.10111012218E+03  0.10771350338E+03  0.20000012572E+01 0.  0.
        -13    1    3    3    0    0  0.22629570169E+02 -0.29374215782E+02 -0.61130778901E+02  0.71497729278E+02  0.10566000000E+00 0.  1.
         13    1    4    4    0    0 -0.11590656133E+02  0.14293728964E+02 -0.49644448044E+02  0.52945598334E+02  0.10566000000E+00 0.  1.
        -13    1    4    4    0    0 -0.74285547765E+01  0.10947016940E+02 -0.35480817299E+02  0.37867138342E+02  0.10566000000E+00 0. -1.
        -14    1    4    4    0    0 -0.36103592593E+01  0.41334698774E+01 -0.15984856836E+02  0.16900766707E+02  0.00000000000E+00 0.  1.
<mgrwt>
<rscale>  0 0.76121981E+02</rscale>
<asrwt>0</asrwt>
<pdfrwt beam="1">  1        2 0.26265546E-01 0.76121981E+02</pdfrwt>
<pdfrwt beam="2">  1       -1 0.13054103E-02 0.76121981E+02</pdfrwt>
<totfact> 0.23827928E+05</totfact>
</mgrwt>
</event>
<event>
 8    1  0.1520917E-013  0.7639553E+02  0.7818608E-02  0.1339603E+00
         -1   -1    0    0    0  501 -0.00000000000E+00  0.00000000000E+00  0.16246724863E+01  0.16246803037E+01  0.50400000000E-02 0.  1.
          2   -1    0    0  501    0  0.00000000000E+00 -0.00000000000E+00 -0.89806754452E+03  0.89806754452E+03  0.25500000000E-02 0. -1.
         24    2    1    2    0    0 -0.35527136788E-14  0.35527136788E-14 -0.89644287203E+03  0.89969222483E+03  0.76395527321E+02 0.  0.
         66    2    3    3    0    0 -0.21051770268E+02 -0.21697136013E+02 -0.72298491633E+03  0.72361946628E+03  0.19999979220E+01 0.  0.
        -13    1    3    3    0    0  0.21051770268E+02  0.21697136013E+02 -0.17345795570E+03  0.17607275855E+03  0.10566000000E+00 0.  1.
         13    1    4    4    0    0 -0.10948294156E+02 -0.11724604618E+02 -0.37137067933E+03  0.37171699467E+03  0.10566000000E+00 0. -1.
        -13    1    4    4    0    0 -0.56876058042E+00 -0.72300681332E+00 -0.29234159507E+02  0.29248820037E+02  0.10566000000E+00 0.  1.
        -14    1    4    4    0    0 -0.95347155313E+01 -0.92495245811E+01 -0.32238007749E+03  0.32265365157E+03  0.00000000000E+00 0.  1.
<mgrwt>
<rscale>  0 0.76395527E+02</rscale>
<asrwt>0</asrwt>
<pdfrwt beam="1">  1        2 0.13816384E+00 0.76395527E+02</pdfrwt>
<pdfrwt beam="2">  1       -1 0.24995093E-03 0.76395527E+02</pdfrwt>
<totfact> 0.39370297E+05</totfact>
</mgrwt>
</event>
<event>
 8    1  0.1520917E-013  0.8245820E+02  0.7818608E-02  0.1322217E+00
          2   -1    0    0  501    0  0.00000000000E+00  0.00000000000E+00  0.30935662917E+03  0.30935662918E+03  0.25500000000E-02 0. -1.
         -1   -1    0    0    0  501 -0.00000000000E+00 -0.00000000000E+00 -0.54947537493E+01  0.54947560608E+01  0.50400000000E-02 0.  1.
         24    2    1    2    0    0 -0.71054273576E-14 -0.35527136788E-14  0.30386187542E+03  0.31485138524E+03  0.82458204286E+02 0.  0.
         66    2    3    3    0    0  0.29856792427E+02  0.25856803125E+02  0.10719241141E+03  0.11425504539E+03  0.20000030588E+01 0.  0.
        -13    1    3    3    0    0 -0.29856792427E+02 -0.25856803125E+02  0.19666946401E+03  0.20059633985E+03  0.10566000000E+00 0.  1.
         13    1    4    4    0    0  0.22756382715E+02  0.20196751814E+02  0.81280546917E+02  0.86788825371E+02  0.10566000000E+00 0. -1.
        -13    1    4    4    0    0  0.34985650492E+00  0.29262902165E+00  0.17398247385E+01  0.18017173682E+01  0.10566000000E+00 0. -1.
        -14    1    4    4    0    0  0.67505532064E+01  0.53674222887E+01  0.24172039752E+02  0.25664502653E+02  0.00000000000E+00 0.  1.
<mgrwt>
<rscale>  0 0.82458204E+02</rscale>
<asrwt>0</asrwt>
<pdfrwt beam="1">  1        2 0.47593341E-01 0.82458204E+02</pdfrwt>
<pdfrwt beam="2">  1       -1 0.84534667E-03 0.82458204E+02</pdfrwt>
<totfact> 0.23810832E+05</totfact>
</mgrwt>
</event>
<event>
 8    1  0.1520917E-013  0.7903026E+02  0.7818608E-02  0.1331826E+00
          2   -1    0    0  501    0  0.00000000000E+00  0.00000000000E+00  0.40897023959E+03  0.40897023960E+03  0.25500000000E-02 0. -1.
         -1   -1    0    0    0  501 -0.00000000000E+00 -0.00000000000E+00 -0.38179913600E+01  0.38179946866E+01  0.50400000000E-02 0.  1.
         24    2    1    2    0    0 -0.35527136788E-14  0.17763568394E-14  0.40515224823E+03  0.41278823429E+03  0.79030260774E+02 0.  0.
         66    2    3    3    0    0  0.22623961068E+02 -0.12971093160E+02  0.35759222948E+03  0.35854748006E+03  0.19999987015E+01 0.  0.
        -13    1    3    3    0    0 -0.22623961068E+02  0.12971093160E+02  0.47560018750E+02  0.54240754232E+02  0.10566000000E+00 0.  1.
         13    1    4    4    0    0  0.11701516708E+02 -0.69830170122E+01  0.17946441356E+03  0.17998104044E+03  0.10566000000E+00 0. -1.
        -13    1    4    4    0    0  0.26832225634E+01 -0.16491785158E+01  0.51942742141E+02  0.52038246495E+02  0.10566000000E+00 0.  1.
        -14    1    4    4    0    0  0.82392217970E+01 -0.43388976324E+01  0.12618507378E+03  0.12652819312E+03  0.00000000000E+00 0.  1.
<mgrwt>
<rscale>  0 0.79030261E+02</rscale>
<asrwt>0</asrwt>
<pdfrwt beam="1">  1        2 0.62918439E-01 0.79030261E+02</pdfrwt>
<pdfrwt beam="2">  1       -1 0.58738410E-03 0.79030261E+02</pdfrwt>
<totfact> 0.29393680E+05</totfact>
</mgrwt>
</event>
<event>
 8    1  0.1520917E-013  0.8007993E+02  0.7818608E-02  0.1328825E+00
         -1   -1    0    0    0  501 -0.00000000000E+00  0.00000000000E+00  0.56982715395E+01  0.56982737684E+01  0.50400000000E-02 0.  1.
          2   -1    0    0  501    0  0.00000000000E+00 -0.00000000000E+00 -0.28134823455E+03  0.28134823456E+03  0.25500000000E-02 0. -1.
         24    2    1    2    0    0  0.35527136788E-14 -0.71054273576E-14 -0.27564996301E+03  0.28704650833E+03  0.80079934046E+02 0.  0.
         66    2    3    3    0    0 -0.22708663671E+02 -0.32873205455E+02 -0.14581528596E+03  0.15120326937E+03  0.20000014019E+01 0.  0.
        -13    1    3    3    0    0  0.22708663671E+02  0.32873205455E+02 -0.12983467705E+03  0.13584323896E+03  0.10566000000E+00 0.  1.
         13    1    4    4    0    0 -0.12577729478E+02 -0.19088471526E+02 -0.82205348685E+02  0.85324671347E+02  0.10566000000E+00 0. -1.
        -13    1    4    4    0    0 -0.69002537348E+01 -0.99747082185E+01 -0.43780692505E+02  0.45429819567E+02  0.10566000000E+00 0.  1.
        -14    1    4    4    0    0 -0.32306804585E+01 -0.38100257107E+01 -0.19829244775E+02  0.20448778459E+02  0.00000000000E+00 0.  1.
<mgrwt>
<rscale>  0 0.80079934E+02</rscale>
<asrwt>0</asrwt>
<pdfrwt beam="1">  1        2 0.43284333E-01 0.80079934E+02</pdfrwt>
<pdfrwt beam="2">  1       -1 0.87665755E-03 0.80079934E+02</pdfrwt>
<totfact> 0.24843294E+05</totfact>
</mgrwt>
</event>
<event>
 8    1  0.5174871E-013  0.8054511E+02  0.7818608E-02  0.1327512E+00
         -1   -1    0    0    0  501 -0.00000000000E+00  0.00000000000E+00  0.49600346107E+00  0.49602906668E+00  0.50400000000E-02 0.  1.
          2   -1    0    0  501    0  0.00000000000E+00 -0.00000000000E+00 -0.32698094321E+04  0.32698094321E+04  0.25500000000E-02 0. -1.
         24    2    1    2    0    0  0.00000000000E+00  0.17763568394E-14 -0.32693134286E+04  0.32703054612E+04  0.80545109500E+02 0.  0.
         66    2    3    3    0    0  0.11638637475E+01 -0.11216659816E+02 -0.32043485478E+04  0.32043690150E+04  0.20000008754E+01 0.  0.
        -13    1    3    3    0    0 -0.11638637475E+01  0.11216659816E+02 -0.64964880797E+02  0.65936446198E+02  0.10566000000E+00 0.  1.
         13    1    4    4    0    0  0.76595605293E+00 -0.79732173770E+01 -0.21266948468E+04  0.21267099335E+04  0.10566000000E+00 0. -1.
        -13    1    4    4    0    0  0.33622504131E+00 -0.36313745217E+00 -0.20509153086E+03  0.20509215516E+03  0.10566000000E+00 0.  1.
        -14    1    4    4    0    0  0.61682653216E-01 -0.28803049866E+01 -0.87256217019E+03  0.87256692626E+03  0.00000000000E+00 0.  1.
<mgrwt>
<rscale>  0 0.80545109E+02</rscale>
<asrwt>0</asrwt>
<pdfrwt beam="1">  1        2 0.50303035E+00 0.80545109E+02</pdfrwt>
<pdfrwt beam="2">  1       -1 0.76312813E-04 0.80545109E+02</pdfrwt>
<totfact> 0.11102687E+05</totfact>
</mgrwt>
</event>
<event>
 8    1  0.1520917E-013  0.8110328E+02  0.7818608E-02  0.1325949E+00
         -1   -1    0    0    0  501 -0.00000000000E+00  0.00000000000E+00  0.38178878219E+01  0.38178911485E+01  0.50400000000E-02 0.  1.
          2   -1    0    0  501    0  0.00000000000E+00 -0.00000000000E+00 -0.43071845091E+03  0.43071845092E+03  0.25500000000E-02 0. -1.
         24    2    1    2    0    0  0.00000000000E+00  0.00000000000E+00 -0.42690056309E+03  0.43453634207E+03  0.81103278671E+02 0.  0.
         66    2    3    3    0    0  0.21422842657E+02 -0.68360042827E+01 -0.39422322084E+03  0.39486911374E+03  0.20000003151E+01 0.  0.
        -13    1    3    3    0    0 -0.21422842657E+02  0.68360042827E+01 -0.32677342257E+02  0.39667228326E+02  0.10566000000E+00 0.  1.
         13    1    4    4    0    0  0.25741277690E+01 -0.10249731917E+01 -0.43450160257E+02  0.43538538034E+02  0.10566000000E+00 0. -1.
        -13    1    4    4    0    0  0.68688341095E+01 -0.28881623172E+01 -0.13018172370E+03  0.13039484159E+03  0.10566000000E+00 0.  1.
        -14    1    4    4    0    0  0.11979880778E+02 -0.29228687738E+01 -0.22059133688E+03  0.22093573412E+03  0.00000000000E+00 0.  1.
<mgrwt>
<rscale>  0 0.81103279E+02</rscale>
<asrwt>0</asrwt>
<pdfrwt beam="1">  1        2 0.66264339E-01 0.81103279E+02</pdfrwt>
<pdfrwt beam="2">  1       -1 0.58736796E-03 0.81103279E+02</pdfrwt>
<totfact> 0.27966904E+05</totfact>
</mgrwt>
</event>
<event>
 8    1  0.1520917E-013  0.8030190E+02  0.7818608E-02  0.1328197E+00
         -1   -1    0    0    0  501 -0.00000000000E+00  0.00000000000E+00  0.84769748246E+00  0.84771246503E+00  0.50400000000E-02 0.  1.
          2   -1    0    0  501    0  0.00000000000E+00 -0.00000000000E+00 -0.19017217221E+04  0.19017217221E+04  0.25500000000E-02 0. -1.
         24    2    1    2    0    0  0.00000000000E+00  0.17763568394E-14 -0.19008740246E+04  0.19025694346E+04  0.80301904597E+02 0.  0.
         66    2    3    3    0    0  0.47200808369E+01  0.11557143478E+02 -0.18545366696E+04  0.18545797653E+04  0.19999996141E+01 0.  0.
        -13    1    3    3    0    0 -0.47200808369E+01 -0.11557143478E+02 -0.46337354998E+02  0.47989669313E+02  0.10566000000E+00 0.  1.
         13    1    4    4    0    0  0.22804517617E+01  0.59609030434E+01 -0.10209598222E+04  0.10209797757E+04  0.10566000000E+00 0. -1.
        -13    1    4    4    0    0  0.22028747934E+01  0.51698262340E+01 -0.71289278674E+03  0.71291494325E+03  0.10566000000E+00 0.  1.
        -14    1    4    4    0    0  0.23675428177E+00  0.42641420061E+00 -0.12068406071E+03  0.12068504626E+03  0.00000000000E+00 0.  1.
<mgrwt>
<rscale>  0 0.80301905E+02</rscale>
<asrwt>0</asrwt>
<pdfrwt beam="1">  1        2 0.29256916E+00 0.80301905E+02</pdfrwt>
<pdfrwt beam="2">  1       -1 0.13041767E-03 0.80301905E+02</pdfrwt>
<totfact> 0.28717860E+05</totfact>
</mgrwt>
</event>
<event>
 8    1  0.1520917E-013  0.8074631E+02  0.7818608E-02  0.1326947E+00
         -1   -1    0    0    0  501 -0.00000000000E+00  0.00000000000E+00  0.11077755209E+03  0.11077755221E+03  0.50400000000E-02 0.  1.
          2   -1    0    0  501    0  0.00000000000E+00 -0.00000000000E+00 -0.14714097326E+02  0.14714097547E+02  0.25500000000E-02 0. -1.
         24    2    1    2    0    0  0.00000000000E+00  0.00000000000E+00  0.96063454764E+02  0.12549164975E+03  0.80746311472E+02 0.  0.
         66    2    3    3    0    0 -0.39774108892E+02 -0.27871261411E+01  0.38450636720E+02  0.55427423665E+02  0.20000049188E+01 0.  0.
        -13    1    3    3    0    0  0.39774108892E+02  0.27871261411E+01  0.57612818044E+02  0.70064226088E+02  0.10566000000E+00 0.  1.
         13    1    4    4    0    0 -0.71271417833E+01 -0.43954942199E+00  0.77284746409E+01  0.10522824621E+02  0.10566000000E+00 0. -1.
        -13    1    4    4    0    0 -0.13134593980E+02 -0.46663467903E+00  0.12676296994E+02  0.18260201983E+02  0.10566000000E+00 0.  1.
         14    1    4    4    0    0 -0.19512373128E+02 -0.18809420401E+01  0.18045865086E+02  0.26644397061E+02  0.00000000000E+00 0. -1.
<mgrwt>
<rscale>  0 0.80746311E+02</rscale>
<asrwt>0</asrwt>
<pdfrwt beam="1">  1        2 0.22637074E-02 0.80746311E+02</pdfrwt>
<pdfrwt beam="2">  1       -1 0.17042700E-01 0.80746311E+02</pdfrwt>
<totfact> 0.11325220E+05</totfact>
</mgrwt>
</event>
<event>
 8    1  0.1520917E-013  0.7961003E+02  0.7818608E-02  0.1330162E+00
         -1   -1    0    0    0  501 -0.00000000000E+00  0.00000000000E+00  0.11374496735E+01  0.11374608395E+01  0.50400000000E-02 0.  1.
          2   -1    0    0  501    0  0.00000000000E+00 -0.00000000000E+00 -0.13929682780E+04  0.13929682780E+04  0.25500000000E-02 0. -1.
         24    2    1    2    0    0 -0.17763568394E-14  0.00000000000E+00 -0.13918308284E+04  0.13941057389E+04  0.79610026956E+02 0.  0.
         66    2    3    3    0    0  0.13044208810E+02 -0.18372710451E+02 -0.12704393019E+04  0.12706406761E+04  0.20000010523E+01 0.  0.
        -13    1    3    3    0    0 -0.13044208810E+02  0.18372710451E+02 -0.12139152649E+03  0.12346506283E+03  0.10566000000E+00 0.  1.
         13    1    4    4    0    0  0.29666011344E+01 -0.33814458772E+01 -0.25343154279E+03  0.25347148350E+03  0.10566000000E+00 0. -1.
        -13    1    4    4    0    0  0.40100784141E+00 -0.24783559743E+00 -0.30220981901E+02  0.30224843108E+02  0.10566000000E+00 0.  1.
         14    1    4    4    0    0  0.96765998339E+01 -0.14743428976E+02 -0.98678677718E+03  0.98694434945E+03  0.00000000000E+00 0. -1.
<mgrwt>
<rscale>  0 0.79610027E+02</rscale>
<asrwt>0</asrwt>
<pdfrwt beam="1">  1        2 0.21430145E+00 0.79610027E+02</pdfrwt>
<pdfrwt beam="2">  1       -1 0.17499423E-03 0.79610027E+02</pdfrwt>
<totfact> 0.34496778E+05</totfact>
</mgrwt>
</event>
<event>
 8    1  0.1520917E-013  0.8005250E+02  0.7818608E-02  0.1328903E+00
          2   -1    0    0  501    0  0.00000000000E+00  0.00000000000E+00  0.12335133800E+04  0.12335133800E+04  0.25500000000E-02 0. -1.
         -1   -1    0    0    0  501 -0.00000000000E+00 -0.00000000000E+00 -0.12988061610E+01  0.12988159398E+01  0.50400000000E-02 0.  1.
         24    2    1    2    0    0  0.00000000000E+00 -0.17763568394E-14  0.12322145739E+04  0.12348121960E+04  0.80052503191E+02 0.  0.
         66    2    3    3    0    0 -0.79793980686E+01 -0.13194369489E+02  0.11858255877E+04  0.11859275217E+04  0.20000072718E+01 0.  0.
        -13    1    3    3    0    0  0.79793980686E+01  0.13194369489E+02  0.46388986142E+02  0.48884674276E+02  0.10566000000E+00 0.  1.
         13    1    4    4    0    0 -0.54436473228E+01 -0.86397073745E+01  0.83317367387E+03  0.83323625692E+03  0.10566000000E+00 0. -1.
        -13    1    4    4    0    0 -0.35473981062E+00 -0.11493984194E+01  0.69768553596E+02  0.69779002515E+02  0.10566000000E+00 0.  1.
         14    1    4    4    0    0 -0.21810109352E+01 -0.34052636953E+01  0.28288336026E+03  0.28291226227E+03  0.00000000000E+00 0. -1.
<mgrwt>
<rscale>  0 0.80052503E+02</rscale>
<asrwt>0</asrwt>
<pdfrwt beam="1">  1        2 0.18977042E+00 0.80052503E+02</pdfrwt>
<pdfrwt beam="2">  1       -1 0.19981800E-03 0.80052503E+02</pdfrwt>
<totfact> 0.34859277E+05</totfact>
</mgrwt>
</event>
<event>
 8    1  0.1520917E-013  0.8172516E+02  0.7818608E-02  0.1324226E+00
         -1   -1    0    0    0  501 -0.00000000000E+00  0.00000000000E+00  0.21943769450E+01  0.21943827329E+01  0.50400000000E-02 0.  1.
          2   -1    0    0  501    0  0.00000000000E+00 -0.00000000000E+00 -0.76092136483E+03  0.76092136483E+03  0.25500000000E-02 0. -1.
         24    2    1    2    0    0  0.00000000000E+00  0.00000000000E+00 -0.75872698788E+03  0.76311574757E+03  0.81725161608E+02 0.  0.
         66    2    3    3    0    0  0.14053384465E+02 -0.15739959440E+02 -0.70607213333E+03  0.70639019063E+03  0.20000021305E+01 0.  0.
        -13    1    3    3    0    0 -0.14053384465E+02  0.15739959440E+02 -0.52654854554E+02  0.56725556941E+02  0.10566000000E+00 0.  1.
         13    1    4    4    0    0  0.96060741273E+00 -0.68668451629E+00 -0.37198881645E+02  0.37217768094E+02  0.10566000000E+00 0. -1.
        -13    1    4    4    0    0  0.10723476233E+02 -0.11792751038E+02 -0.54957976057E+03  0.54981086413E+03  0.10566000000E+00 0.  1.
         14    1    4    4    0    0  0.23693008184E+01 -0.32605238865E+01 -0.11929349112E+03  0.11936155841E+03  0.00000000000E+00 0. -1.
<mgrwt>
<rscale>  0 0.81725162E+02</rscale>
<asrwt>0</asrwt>
<pdfrwt beam="1">  1        2 0.11706461E+00 0.81725162E+02</pdfrwt>
<pdfrwt beam="2">  1       -1 0.33759751E-03 0.81725162E+02</pdfrwt>
<totfact> 0.32212140E+05</totfact>
</mgrwt>
</event>
<event>
 8    1  0.1520917E-013  0.8158557E+02  0.7818608E-02  0.1324611E+00
          2   -1    0    0  501    0  0.00000000000E+00  0.00000000000E+00  0.22082496664E+03  0.22082496665E+03  0.25500000000E-02 0. -1.
         -1   -1    0    0    0  501 -0.00000000000E+00 -0.00000000000E+00 -0.75356106376E+01  0.75356123230E+01  0.50400000000E-02 0.  1.
         24    2    1    2    0    0  0.17763568394E-14  0.00000000000E+00  0.21328935600E+03  0.22836057897E+03  0.81585566413E+02 0.  0.
         66    2    3    3    0    0 -0.12181591429E+02 -0.35832194258E+02  0.14913112787E+03  0.15387147430E+03  0.19999967536E+01 0.  0.
        -13    1    3    3    0    0  0.12181591429E+02  0.35832194258E+02  0.64158228125E+02  0.74489104675E+02  0.10566000000E+00 0.  1.
         13    1    4    4    0    0 -0.23380683666E+01 -0.87454858558E+01  0.37627464782E+02  0.38701257816E+02  0.10566000000E+00 0. -1.
        -13    1    4    4    0    0 -0.25994833294E+01 -0.76064483916E+01  0.30024207703E+02  0.31081820779E+02  0.10566000000E+00 0.  1.
         14    1    4    4    0    0 -0.72440397333E+01 -0.19480260011E+02  0.81479455387E+02  0.84088395703E+02  0.00000000000E+00 0. -1.
<mgrwt>
<rscale>  0 0.81585566E+02</rscale>
<asrwt>0</asrwt>
<pdfrwt beam="1">  1        2 0.33973068E-01 0.81585566E+02</pdfrwt>
<pdfrwt beam="2">  1       -1 0.11593250E-02 0.81585566E+02</pdfrwt>
<totfact> 0.21685585E+05</totfact>
</mgrwt>
</event>
<event>
 8    1  0.1520917E-013  0.8222915E+02  0.7818608E-02  0.1322842E+00
          2   -1    0    0  501    0  0.00000000000E+00  0.00000000000E+00  0.88069928943E+01  0.88069932634E+01  0.25500000000E-02 0. -1.
         -1   -1    0    0    0  501 -0.00000000000E+00 -0.00000000000E+00 -0.19193931930E+03  0.19193931936E+03  0.50400000000E-02 0.  1.
         24    2    1    2    0    0  0.00000000000E+00  0.00000000000E+00 -0.18313232640E+03  0.20074631263E+03  0.82229149695E+02 0.  0.
         66    2    3    3    0    0 -0.70572702777E+01 -0.39949401637E+02 -0.10756238100E+03  0.11497576076E+03  0.20000004038E+01 0.  0.
        -13    1    3    3    0    0  0.70572702777E+01  0.39949401637E+02 -0.75569945406E+02  0.85770551867E+02  0.10566000000E+00 0.  1.
         13    1    4    4    0    0 -0.53780181828E+01 -0.29704568005E+02 -0.81305845228E+02  0.86729095880E+02  0.10566000000E+00 0. -1.
        -13    1    4    4    0    0 -0.26713359418E+00 -0.38381830244E+01 -0.10153896887E+02  0.10858903964E+02  0.10566000000E+00 0.  1.
         14    1    4    4    0    0 -0.14121185007E+01 -0.64066506073E+01 -0.16102638884E+02  0.17387760917E+02  0.00000000000E+00 0. -1.
<mgrwt>
<rscale>  0 0.82229150E+02</rscale>
<asrwt>0</asrwt>
<pdfrwt beam="1">  1        2 0.13549222E-02 0.82229150E+02</pdfrwt>
<pdfrwt beam="2">  1       -1 0.29529123E-01 0.82229150E+02</pdfrwt>
<totfact> 0.94025264E+04</totfact>
</mgrwt>
</event>
<event>
 8    1  0.1520917E-013  0.7982705E+02  0.7818608E-02  0.1329543E+00
         -1   -1    0    0    0  501 -0.00000000000E+00  0.00000000000E+00  0.15608554407E+02  0.15608555221E+02  0.50400000000E-02 0.  1.
          2   -1    0    0  501    0  0.00000000000E+00 -0.00000000000E+00 -0.10206514729E+03  0.10206514732E+03  0.25500000000E-02 0. -1.
         24    2    1    2    0    0 -0.55511151231E-16  0.00000000000E+00 -0.86456592880E+02  0.11767370254E+03  0.79827049407E+02 0.  0.
         66    2    3    3    0    0  0.36778485839E+00  0.37757900817E+02 -0.62207259684E+02  0.72797922165E+02  0.19999935757E+01 0.  0.
        -13    1    3    3    0    0 -0.36778485839E+00 -0.37757900817E+02 -0.24249333196E+02  0.44875780375E+02  0.10566000000E+00 0.  1.
         13    1    4    4    0    0  0.19351466220E+00  0.19173157935E+02 -0.32554280568E+02  0.37781474038E+02  0.10566000000E+00 0. -1.
        -13    1    4    4    0    0 -0.88340455210E-01  0.40242655838E+00 -0.49213701847E+00  0.65047217578E+00  0.10566000000E+00 0.  1.
         14    1    4    4    0    0  0.26261065140E+00  0.18182316324E+02 -0.29160842097E+02  0.34365975951E+02  0.00000000000E+00 0. -1.
<mgrwt>
<rscale>  0 0.79827049E+02</rscale>
<asrwt>0</asrwt>
<pdfrwt beam="1">  1        2 0.15702330E-01 0.79827049E+02</pdfrwt>
<pdfrwt beam="2">  1       -1 0.24013162E-02 0.79827049E+02</pdfrwt>
<totfact> 0.17931541E+05</totfact>
</mgrwt>
</event>
<event>
 8    1  0.1520917E-013  0.7718967E+02  0.7818608E-02  0.1337221E+00
          2   -1    0    0  501    0  0.00000000000E+00  0.00000000000E+00  0.41645842169E+03  0.41645842170E+03  0.25500000000E-02 0. -1.
         -1   -1    0    0    0  501 -0.00000000000E+00 -0.00000000000E+00 -0.35767326512E+01  0.35767362022E+01  0.50400000000E-02 0.  1.
         24    2    1    2    0    0  0.00000000000E+00  0.00000000000E+00  0.41288168904E+03  0.42003515790E+03  0.77189667239E+02 0.  0.
         66    2    3    3    0    0 -0.20888134316E+02  0.30275112379E+02  0.26972496518E+03  0.27222867856E+03  0.20000011788E+01 0.  0.
        -13    1    3    3    0    0  0.20888134316E+02 -0.30275112379E+02  0.14315672386E+03  0.14780647934E+03  0.10566000000E+00 0.  1.
         13    1    4    4    0    0 -0.29322573818E+01  0.50154878200E+01  0.44985406028E+02  0.45359135475E+02  0.10566000000E+00 0.  1.
        -13    1    4    4    0    0 -0.50561080436E+01  0.62195034728E+01  0.57674008812E+02  0.58228420110E+02  0.10566000000E+00 0. -1.
        -14    1    4    4    0    0 -0.12899768890E+02  0.19040121086E+02  0.16706555034E+03  0.16864112297E+03  0.00000000000E+00 0.  1.
<mgrwt>
<rscale>  0 0.77189667E+02</rscale>
<asrwt>0</asrwt>
<pdfrwt beam="1">  1        2 0.64070500E-01 0.77189667E+02</pdfrwt>
<pdfrwt beam="2">  1       -1 0.55026706E-03 0.77189667E+02</pdfrwt>
<totfact> 0.31451359E+05</totfact>
</mgrwt>
</event>
<event>
 8    1  0.1520917E-013  0.8052858E+02  0.7818608E-02  0.1327558E+00
          2   -1    0    0  501    0  0.00000000000E+00  0.00000000000E+00  0.32124177177E+03  0.32124177178E+03  0.25500000000E-02 0. -1.
         -1   -1    0    0    0  501 -0.00000000000E+00 -0.00000000000E+00 -0.50467055035E+01  0.50467080202E+01  0.50400000000E-02 0.  1.
         24    2    1    2    0    0  0.00000000000E+00  0.00000000000E+00  0.31619506627E+03  0.32628847980E+03  0.80528579518E+02 0.  0.
         66    2    3    3    0    0  0.20759424785E+02 -0.32343064893E+02  0.20650863667E+03  0.21006390595E+03  0.20000003545E+01 0.  0.
        -13    1    3    3    0    0 -0.20759424785E+02  0.32343064893E+02  0.10968642960E+03  0.11622457385E+03  0.10566000000E+00 0.  1.
         13    1    4    4    0    0  0.64747465659E+01 -0.91913951844E+01  0.62220233888E+02  0.63227942855E+02  0.10566000000E+00 0. -1.
        -13    1    4    4    0    0  0.89886462214E+01 -0.15066350042E+02  0.95927865907E+02  0.97519009869E+02  0.10566000000E+00 0.  1.
        -14    1    4    4    0    0  0.52960319982E+01 -0.80853196662E+01  0.48360536873E+02  0.49316953228E+02  0.00000000000E+00 0.  1.
<mgrwt>
<rscale>  0 0.80528580E+02</rscale>
<asrwt>0</asrwt>
<pdfrwt beam="1">  1        2 0.49421801E-01 0.80528580E+02</pdfrwt>
<pdfrwt beam="2">  1       -1 0.77641659E-03 0.80528580E+02</pdfrwt>
<totfact> 0.25685651E+05</totfact>
</mgrwt>
</event>
<event>
 8    1  0.1520917E-013  0.8000295E+02  0.7818608E-02  0.1329043E+00
         -1   -1    0    0    0  501 -0.00000000000E+00  0.00000000000E+00  0.15670769816E+01  0.15670850863E+01  0.50400000000E-02 0.  1.
          2   -1    0    0  501    0  0.00000000000E+00 -0.00000000000E+00 -0.10210819432E+04  0.10210819432E+04  0.25500000000E-02 0. -1.
         24    2    1    2    0    0 -0.88817841970E-15 -0.17763568394E-14 -0.10195148662E+04  0.10226490283E+04  0.80002953827E+02 0.  0.
         66    2    3    3    0    0 -0.71195700995E+01 -0.83353313930E+01 -0.10014919675E+04  0.10015539561E+04  0.20000005359E+01 0.  0.
        -13    1    3    3    0    0  0.71195700995E+01  0.83353313930E+01 -0.18022898681E+02  0.21095072143E+02  0.10566000000E+00 0.  1.
         13    1    4    4    0    0 -0.80117332318E+00 -0.63383693107E+00 -0.97883275808E+02  0.97888663669E+02  0.10566000000E+00 0. -1.
        -13    1    4    4    0    0 -0.55182241165E+01 -0.62818788110E+01 -0.80120156581E+03  0.80124520155E+03  0.10566000000E+00 0.  1.
        -14    1    4    4    0    0 -0.80017265988E+00 -0.14196156509E+01 -0.10240712591E+03  0.10242009091E+03  0.00000000000E+00 0.  1.
<mgrwt>
<rscale>  0 0.80002954E+02</rscale>
<asrwt>0</asrwt>
<pdfrwt beam="1">  1        2 0.15708900E+00 0.80002954E+02</pdfrwt>
<pdfrwt beam="2">  1       -1 0.24109021E-03 0.80002954E+02</pdfrwt>
<totfact> 0.35253095E+05</totfact>
</mgrwt>
</event>
<event>
 8    1  0.1520917E-013  0.7648565E+02  0.7818608E-02  0.1339331E+00
         -1   -1    0    0    0  501 -0.00000000000E+00  0.00000000000E+00  0.40760556498E+01  0.40760587658E+01  0.50400000000E-02 0.  1.
          2   -1    0    0  501    0  0.00000000000E+00 -0.00000000000E+00 -0.35880599261E+03  0.35880599262E+03  0.25500000000E-02 0. -1.
         24    2    1    2    0    0 -0.35527136788E-14  0.00000000000E+00 -0.35472993696E+03  0.36288205139E+03  0.76485652521E+02 0.  0.
         66    2    3    3    0    0  0.28843744561E+02 -0.19937733226E+02 -0.24960055598E+03  0.25205934290E+03  0.19999978857E+01 0.  0.
        -13    1    3    3    0    0 -0.28843744561E+02  0.19937733226E+02 -0.10512938098E+03  0.11082270849E+03  0.10566000000E+00 0.  1.
         13    1    4    4    0    0  0.26848581197E+02 -0.19057975469E+02 -0.23540253435E+03  0.23769395677E+03  0.10566000000E+00 0. -1.
        -13    1    4    4    0    0  0.91718476304E+00 -0.39259244883E+00 -0.64114275594E+01  0.64894471341E+01  0.10566000000E+00 0.  1.
         14    1    4    4    0    0  0.10779786007E+01 -0.48716530771E+00 -0.77865940641E+01  0.78759389929E+01  0.00000000000E+00 0. -1.
<mgrwt>
<rscale>  0 0.76485653E+02</rscale>
<asrwt>0</asrwt>
<pdfrwt beam="1">  1        2 0.55200897E-01 0.76485653E+02</pdfrwt>
<pdfrwt beam="2">  1       -1 0.62708601E-03 0.76485653E+02</pdfrwt>
<totfact> 0.30571389E+05</totfact>
</mgrwt>
</event>
<event>
 8    1  0.1520917E-013  0.8272664E+02  0.7818608E-02  0.1321487E+00
         -1   -1    0    0    0  501 -0.00000000000E+00  0.00000000000E+00  0.43326946241E+01  0.43326975555E+01  0.50400000000E-02 0.  1.
          2   -1    0    0  501    0  0.00000000000E+00 -0.00000000000E+00 -0.39488677511E+03  0.39488677512E+03  0.25500000000E-02 0. -1.
         24    2    1    2    0    0  0.00000000000E+00  0.00000000000E+00 -0.39055408049E+03  0.39921947267E+03  0.82726643699E+02 0.  0.
         66    2    3    3    0    0 -0.29840693719E+02 -0.10822484314E+02 -0.32318953072E+03  0.32475077524E+03  0.20000207638E+01 0.  0.
        -13    1    3    3    0    0  0.29840693719E+02  0.10822484314E+02 -0.67364549762E+02  0.74468697430E+02  0.10566000000E+00 0.  1.
         13    1    4    4    0    0 -0.20586985529E+02 -0.81488664650E+01 -0.22576357017E+03  0.22684670767E+03  0.10566000000E+00 0. -1.
        -13    1    4    4    0    0 -0.45801941084E+00 -0.28159453898E+00 -0.52599670807E+01  0.52884302955E+01  0.10566000000E+00 0.  1.
         14    1    4    4    0    0 -0.87956887787E+01 -0.23920233097E+01 -0.92165993469E+02  0.92615637279E+02  0.00000000000E+00 0. -1.
<mgrwt>
<rscale>  0 0.82726644E+02</rscale>
<asrwt>0</asrwt>
<pdfrwt beam="1">  1        2 0.60751784E-01 0.82726644E+02</pdfrwt>
<pdfrwt beam="2">  1       -1 0.66656894E-03 0.82726644E+02</pdfrwt>
<totfact> 0.25764835E+05</totfact>
</mgrwt>
</event>
<event>
 8    1  0.1520917E-013  0.8115065E+02  0.7818608E-02  0.1325817E+00
         -1   -1    0    0    0  501 -0.00000000000E+00  0.00000000000E+00  0.82520614067E+01  0.82520629458E+01  0.50400000000E-02 0.  1.
          2   -1    0    0  501    0  0.00000000000E+00 -0.00000000000E+00 -0.19950855647E+03  0.19950855649E+03  0.25500000000E-02 0. -1.
         24    2    1    2    0    0  0.00000000000E+00  0.00000000000E+00 -0.19125649507E+03  0.20776061943E+03  0.81150650539E+02 0.  0.
         66    2    3    3    0    0  0.13749159624E+02 -0.10015583600E+02 -0.18992741012E+03  0.19069811856E+03  0.20000007868E+01 0.  0.
        -13    1    3    3    0    0 -0.13749159624E+02  0.10015583600E+02 -0.13290849463E+01  0.17062500873E+02  0.10566000000E+00 0.  1.
         13    1    4    4    0    0  0.10108231716E+02 -0.83009226742E+01 -0.14687016725E+03  0.14745147967E+03  0.10566000000E+00 0. -1.
        -13    1    4    4    0    0  0.36243978191E+01 -0.17259898368E+01 -0.42964046707E+02  0.43151312541E+02  0.10566000000E+00 0.  1.
         14    1    4    4    0    0  0.16530088758E-01  0.11328911273E-01 -0.93196165242E-01  0.95326351450E-01  0.00000000000E+00 0. -1.
<mgrwt>
<rscale>  0 0.81150651E+02</rscale>
<asrwt>0</asrwt>
<pdfrwt beam="1">  1        2 0.30693620E-01 0.81150651E+02</pdfrwt>
<pdfrwt beam="2">  1       -1 0.12695482E-02 0.81150651E+02</pdfrwt>
<totfact> 0.21224051E+05</totfact>
</mgrwt>
</event>
<event>
 8    1  0.1625370E-013  0.7772891E+02  0.7818608E-02  0.1335623E+00
         -1   -1    0    0    0  501 -0.00000000000E+00  0.00000000000E+00  0.12226955524E+01  0.12227059399E+01  0.50400000000E-02 0.  1.
          2   -1    0    0  501    0  0.00000000000E+00 -0.00000000000E+00 -0.12353355753E+04  0.12353355754E+04  0.25500000000E-02 0. -1.
         24    2    1    2    0    0  0.00000000000E+00  0.00000000000E+00 -0.12341128798E+04  0.12365582813E+04  0.77728906790E+02 0.  0.
         66    2    3    3    0    0  0.16541453238E+02  0.10673458878E+02 -0.11500809903E+04  0.11502512015E+04  0.19999963304E+01 0.  0.
        -13    1    3    3    0    0 -0.16541453238E+02 -0.10673458878E+02 -0.84031889509E+02  0.86307079769E+02  0.10566000000E+00 0.  1.
         13    1    4    4    0    0  0.96279826636E+01  0.60232254909E+01 -0.64798111416E+03  0.64808063755E+03  0.10566000000E+00 0. -1.
        -13    1    4    4    0    0  0.47336808583E+01  0.34140595786E+01 -0.38149524902E+03  0.38153990581E+03  0.10566000000E+00 0.  1.
        -14    1    4    4    0    0  0.21797897156E+01  0.12361738082E+01 -0.12060462711E+03  0.12063065817E+03  0.00000000000E+00 0.  1.
<mgrwt>
<rscale>  0 0.77728907E+02</rscale>
<asrwt>0</asrwt>
<pdfrwt beam="1">  1        2 0.19005063E+00 0.77728907E+02</pdfrwt>
<pdfrwt beam="2">  1       -1 0.18810880E-03 0.77728907E+02</pdfrwt>
<totfact> 0.37618027E+05</totfact>
</mgrwt>
</event>
<event>
 8    1  0.1520917E-013  0.7958196E+02  0.7818608E-02  0.1330242E+00
         -1   -1    0    0    0  501 -0.00000000000E+00  0.00000000000E+00  0.47462969610E+01  0.47462996370E+01  0.50400000000E-02 0.  1.
          2   -1    0    0  501    0  0.00000000000E+00 -0.00000000000E+00 -0.33359092491E+03  0.33359092492E+03  0.25500000000E-02 0. -1.
         24    2    1    2    0    0  0.00000000000E+00  0.71054273576E-14 -0.32884462795E+03  0.33833722456E+03  0.79581958947E+02 0.  0.
         66    2    3    3    0    0  0.22595175763E+01  0.39490518729E+02 -0.14714661407E+03  0.15238350477E+03  0.20000015034E+01 0.  0.
        -13    1    3    3    0    0 -0.22595175763E+01 -0.39490518729E+02 -0.18169801388E+03  0.18595371979E+03  0.10566000000E+00 0.  1.
         13    1    4    4    0    0 -0.25868199528E+00  0.26058083430E+01 -0.91782030964E+01  0.95450369098E+01  0.10566000000E+00 0. -1.
        -13    1    4    4    0    0  0.89949192448E+00  0.12015447211E+02 -0.43507083468E+02  0.45144850574E+02  0.10566000000E+00 0.  1.
         14    1    4    4    0    0  0.16187076471E+01  0.24869263175E+02 -0.94461327504E+02  0.97693617290E+02  0.00000000000E+00 0. -1.
<mgrwt>
<rscale>  0 0.79581959E+02</rscale>
<asrwt>0</asrwt>
<pdfrwt beam="1">  1        2 0.51321662E-01 0.79581959E+02</pdfrwt>
<pdfrwt beam="2">  1       -1 0.73020000E-03 0.79581959E+02</pdfrwt>
<totfact> 0.26855752E+05</totfact>
</mgrwt>
</event>
<event>
 8    1  0.1520917E-013  0.8135327E+02  0.7818608E-02  0.1325254E+00
          2   -1    0    0  501    0  0.00000000000E+00  0.00000000000E+00  0.22073853561E+03  0.22073853562E+03  0.25500000000E-02 0. -1.
         -1   -1    0    0    0  501 -0.00000000000E+00 -0.00000000000E+00 -0.74956939456E+01  0.74956956400E+01  0.50400000000E-02 0.  1.
         24    2    1    2    0    0 -0.71054273576E-14  0.00000000000E+00  0.21324284166E+03  0.22823423126E+03  0.81353271599E+02 0.  0.
         66    2    3    3    0    0 -0.39619347858E+02  0.83308517580E+01  0.11698901999E+03  0.12381246549E+03  0.19999994213E+01 0.  0.
        -13    1    3    3    0    0  0.39619347858E+02 -0.83308517580E+01  0.96253821675E+02  0.10442176577E+03  0.10566000000E+00 0.  1.
         13    1    4    4    0    0 -0.16021135923E+02  0.31301594245E+01  0.48606999015E+02  0.51275005720E+02  0.10566000000E+00 0. -1.
        -13    1    4    4    0    0 -0.16779958749E+02  0.39668229539E+01  0.50297289104E+02  0.53170773506E+02  0.10566000000E+00 0.  1.
        -14    1    4    4    0    0 -0.68182531864E+01  0.12338693796E+01  0.18084731869E+02  0.19366686266E+02  0.00000000000E+00 0.  1.
<mgrwt>
<rscale>  0 0.81353272E+02</rscale>
<asrwt>0</asrwt>
<pdfrwt beam="1">  1        2 0.33959769E-01 0.81353272E+02</pdfrwt>
<pdfrwt beam="2">  1       -1 0.11531840E-02 0.81353272E+02</pdfrwt>
<totfact> 0.21846358E+05</totfact>
</mgrwt>
</event>
<event>
 8    1  0.1520917E-013  0.8080871E+02  0.7818608E-02  0.1326772E+00
          2   -1    0    0  501    0  0.00000000000E+00  0.00000000000E+00  0.34304894232E+03  0.34304894233E+03  0.25500000000E-02 0. -1.
         -1   -1    0    0    0  501 -0.00000000000E+00 -0.00000000000E+00 -0.47588296712E+01  0.47588323401E+01  0.50400000000E-02 0.  1.
         24    2    1    2    0    0  0.00000000000E+00 -0.88817841970E-15  0.33829011265E+03  0.34780777467E+03  0.80808711193E+02 0.  0.
         66    2    3    3    0    0  0.39763816322E+02 -0.66176732327E+01  0.15910652307E+03  0.16414578996E+03  0.19999980160E+01 0.  0.
        -13    1    3    3    0    0 -0.39763816322E+02  0.66176732327E+01  0.17918358959E+03  0.18366198471E+03  0.10566000000E+00 0.  1.
         13    1    4    4    0    0  0.18058763932E+02 -0.24123499763E+01  0.72464688349E+02  0.74720014780E+02  0.10566000000E+00 0. -1.
        -13    1    4    4    0    0  0.14342216357E+02 -0.23815443225E+01  0.55341869545E+02  0.57219792137E+02  0.10566000000E+00 0.  1.
        -14    1    4    4    0    0  0.73628360326E+01 -0.18237789339E+01  0.31299965171E+02  0.32205983043E+02  0.00000000000E+00 0.  1.
<mgrwt>
<rscale>  0 0.80808711E+02</rscale>
<asrwt>0</asrwt>
<pdfrwt beam="1">  1        2 0.52776761E-01 0.80808711E+02</pdfrwt>
<pdfrwt beam="2">  1       -1 0.73212785E-03 0.80808711E+02</pdfrwt>
<totfact> 0.26061479E+05</totfact>
</mgrwt>
</event>
<event>
 8    1  0.1520917E-013  0.7625408E+02  0.7818608E-02  0.1340031E+00
         -1   -1    0    0    0  501 -0.00000000000E+00  0.00000000000E+00  0.12125626527E+03  0.12125626537E+03  0.50400000000E-02 0.  1.
          2   -1    0    0  501    0  0.00000000000E+00 -0.00000000000E+00 -0.11988421563E+02  0.11988421835E+02  0.25500000000E-02 0. -1.
         24    2    1    2    0    0 -0.35527136788E-14  0.00000000000E+00  0.10926784370E+03  0.13324468721E+03  0.76254081865E+02 0.  0.
         66    2    3    3    0    0  0.31402575046E+02 -0.20991820867E+02  0.45954088475E+02  0.59519379286E+02  0.20000000326E+01 0.  0.
        -13    1    3    3    0    0 -0.31402575046E+02  0.20991820867E+02  0.63313755229E+02  0.73725307921E+02  0.10566000000E+00 0.  1.
         13    1    4    4    0    0  0.67757152837E+01 -0.41182540573E+01  0.87242527663E+01  0.11789575245E+02  0.10566000000E+00 0.  1.
        -13    1    4    4    0    0  0.12204919200E+02 -0.85580811203E+01  0.19279860710E+02  0.24370576484E+02  0.10566000000E+00 0. -1.
         14    1    4    4    0    0  0.12421940562E+02 -0.83154856899E+01  0.17949974999E+02  0.23359227557E+02  0.00000000000E+00 0. -1.
<mgrwt>
<rscale>  0 0.76254082E+02</rscale>
<asrwt>0</asrwt>
<pdfrwt beam="1">  1        2 0.18443726E-02 0.76254082E+02</pdfrwt>
<pdfrwt beam="2">  1       -1 0.18654809E-01 0.76254082E+02</pdfrwt>
<totfact> 0.12809968E+05</totfact>
</mgrwt>
</event>
<event>
 8    1  0.1520917E-013  0.8010946E+02  0.7818608E-02  0.1328741E+00
          2   -1    0    0  501    0  0.00000000000E+00  0.00000000000E+00  0.69092077601E+02  0.69092077648E+02  0.25500000000E-02 0. -1.
         -1   -1    0    0    0  501 -0.00000000000E+00 -0.00000000000E+00 -0.23220913861E+02  0.23220914408E+02  0.50400000000E-02 0.  1.
         24    2    1    2    0    0  0.88817841970E-15  0.00000000000E+00  0.45871163740E+02  0.92312992056E+02  0.80109455368E+02 0.  0.
         66    2    3    3    0    0 -0.64618225074E+01 -0.26734502708E+02  0.56464538032E+02  0.62838943672E+02  0.20000003836E+01 0.  0.
        -13    1    3    3    0    0  0.64618225074E+01  0.26734502708E+02 -0.10593374292E+02  0.29474048383E+02  0.10566000000E+00 0.  1.
         13    1    4    4    0    0 -0.25603772696E+01 -0.12009794529E+02  0.25077270088E+02  0.27922595429E+02  0.10566000000E+00 0. -1.
        -13    1    4    4    0    0 -0.26248822035E+01 -0.81492055754E+01  0.16408007604E+02  0.18507658837E+02  0.10566000000E+00 0.  1.
        -14    1    4    4    0    0 -0.12765630342E+01 -0.65755026039E+01  0.14979260340E+02  0.16408689406E+02  0.00000000000E+00 0.  1.
<mgrwt>
<rscale>  0 0.80109455E+02</rscale>
<asrwt>0</asrwt>
<pdfrwt beam="1">  1        2 0.10629550E-01 0.80109455E+02</pdfrwt>
<pdfrwt beam="2">  1       -1 0.35724484E-02 0.80109455E+02</pdfrwt>
<totfact> 0.16035745E+05</totfact>
</mgrwt>
</event>
<event>
 8    1  0.1520917E-013  0.7997202E+02  0.7818608E-02  0.1329131E+00
          2   -1    0    0  501    0  0.00000000000E+00  0.00000000000E+00  0.51023177949E+03  0.51023177949E+03  0.25500000000E-02 0. -1.
         -1   -1    0    0    0  501 -0.00000000000E+00 -0.00000000000E+00 -0.31336344615E+01  0.31336385146E+01  0.50400000000E-02 0.  1.
         24    2    1    2    0    0  0.00000000000E+00  0.00000000000E+00  0.50709814503E+03  0.51336541801E+03  0.79972018345E+02 0.  0.
         66    2    3    3    0    0 -0.10668664394E+02  0.14930813904E+02  0.48158164255E+03  0.48193529445E+03  0.19999999143E+01 0.  0.
        -13    1    3    3    0    0  0.10668664394E+02 -0.14930813904E+02  0.25516502480E+02  0.31430123555E+02  0.10566000000E+00 0.  1.
         13    1    4    4    0    0 -0.14626801571E+01  0.17066424646E+01  0.63126592529E+02  0.63166683545E+02  0.10566000000E+00 0.  1.
        -13    1    4    4    0    0 -0.15628776037E+01  0.34198701430E+01  0.91289326070E+02  0.91366790009E+02  0.10566000000E+00 0.  1.
         14    1    4    4    0    0 -0.76431066335E+01  0.98043012962E+01  0.32716572395E+03  0.32740182090E+03  0.00000000000E+00 0. -1.
<mgrwt>
<rscale>  0 0.79972018E+02</rscale>
<asrwt>0</asrwt>
<pdfrwt beam="1">  1        2 0.78497135E-01 0.79972018E+02</pdfrwt>
<pdfrwt beam="2">  1       -1 0.48209831E-03 0.79972018E+02</pdfrwt>
<totfact> 0.30675312E+05</totfact>
</mgrwt>
</event>
<event>
 8    1  0.1520917E-013  0.7986452E+02  0.7818608E-02  0.1329436E+00
         -1   -1    0    0    0  501 -0.00000000000E+00  0.00000000000E+00  0.83004329179E+02  0.83004329332E+02  0.50400000000E-02 0.  1.
          2   -1    0    0  501    0  0.00000000000E+00 -0.00000000000E+00 -0.19210871187E+02  0.19210871356E+02  0.25500000000E-02 0. -1.
         24    2    1    2    0    0  0.00000000000E+00  0.00000000000E+00  0.63793457992E+02  0.10221520069E+03  0.79864522594E+02 0.  0.
         66    2    3    3    0    0  0.15382926573E+02 -0.36726557080E+02  0.28504922535E+02  0.49010254267E+02  0.19999974376E+01 0.  0.
        -13    1    3    3    0    0 -0.15382926573E+02  0.36726557080E+02  0.35288535457E+02  0.53204946421E+02  0.10566000000E+00 0.  1.
         13    1    4    4    0    0  0.10345755232E+02 -0.24002933635E+02  0.18785010320E+02  0.32187936423E+02  0.10566000000E+00 0. -1.
        -13    1    4    4    0    0  0.86703592705E+00 -0.31352212882E+01  0.26954201562E+01  0.42258511189E+01  0.10566000000E+00 0.  1.
        -14    1    4    4    0    0  0.41701354141E+01 -0.95884021569E+01  0.70244920586E+01  0.12596466726E+02  0.00000000000E+00 0.  1.
<mgrwt>
<rscale>  0 0.79864523E+02</rscale>
<asrwt>0</asrwt>
<pdfrwt beam="1">  1        2 0.29555186E-02 0.79864523E+02</pdfrwt>
<pdfrwt beam="2">  1       -1 0.12769897E-01 0.79864523E+02</pdfrwt>
<totfact> 0.12374885E+05</totfact>
</mgrwt>
</event>
<event>
 8    1  0.1520917E-013  0.8041997E+02  0.7818608E-02  0.1327864E+00
         -1   -1    0    0    0  501 -0.00000000000E+00  0.00000000000E+00  0.22701136884E+01  0.22701192832E+01  0.50400000000E-02 0.  1.
          2   -1    0    0  501    0  0.00000000000E+00 -0.00000000000E+00 -0.71222904014E+03  0.71222904014E+03  0.25500000000E-02 0. -1.
         24    2    1    2    0    0  0.00000000000E+00  0.88817841970E-15 -0.70995892645E+03  0.71449915943E+03  0.80419969999E+02 0.  0.
         66    2    3    3    0    0 -0.12932438335E+02  0.75566248116E+01 -0.68649833006E+03  0.68666462536E+03  0.20000002307E+01 0.  0.
        -13    1    3    3    0    0  0.12932438335E+02 -0.75566248116E+01 -0.23460596386E+02  0.27834534066E+02  0.10566000000E+00 0.  1.
         13    1    4    4    0    0 -0.16830291309E+01  0.54369273148E+00 -0.86735313095E+02  0.86753408524E+02  0.10566000000E+00 0. -1.
        -13    1    4    4    0    0 -0.93977542064E+01  0.64402912557E+01 -0.51651346051E+03  0.51663910149E+03  0.10566000000E+00 0.  1.
        -14    1    4    4    0    0 -0.18516549977E+01  0.57264082438E+00 -0.83249556459E+02  0.83272115347E+02  0.00000000000E+00 0.  1.
<mgrwt>
<rscale>  0 0.80419970E+02</rscale>
<asrwt>0</asrwt>
<pdfrwt beam="1">  1        2 0.10957352E+00 0.80419970E+02</pdfrwt>
<pdfrwt beam="2">  1       -1 0.34924926E-03 0.80419970E+02</pdfrwt>
<totfact> 0.33128584E+05</totfact>
</mgrwt>
</event>
<event>
 8    1  0.1520917E-013  0.7967637E+02  0.7818608E-02  0.1329972E+00
          2   -1    0    0  501    0  0.00000000000E+00  0.00000000000E+00  0.32298007935E+03  0.32298007936E+03  0.25500000000E-02 0. -1.
         -1   -1    0    0    0  501 -0.00000000000E+00 -0.00000000000E+00 -0.49138646812E+01  0.49138672659E+01  0.50400000000E-02 0.  1.
         24    2    1    2    0    0  0.71054273576E-14 -0.71054273576E-14  0.31806621467E+03  0.32789394663E+03  0.79676366134E+02 0.  0.
         66    2    3    3    0    0 -0.26917500526E+02  0.29334687636E+02  0.15908390302E+03  0.16400232904E+03  0.19999994330E+01 0.  0.
        -13    1    3    3    0    0  0.26917500526E+02 -0.29334687636E+02  0.15898231165E+03  0.16389161759E+03  0.10566000000E+00 0.  1.
         13    1    4    4    0    0 -0.46041113456E+01  0.52620982556E+01  0.27649316761E+02  0.28519877291E+02  0.10566000000E+00 0. -1.
        -13    1    4    4    0    0 -0.60432584696E+01  0.60054956527E+01  0.36970728776E+02  0.37939859004E+02  0.10566000000E+00 0.  1.
        -14    1    4    4    0    0 -0.16270130711E+02  0.18067093727E+02  0.94463857480E+02  0.97542592743E+02  0.00000000000E+00 0.  1.
<mgrwt>
<rscale>  0 0.79676366E+02</rscale>
<asrwt>0</asrwt>
<pdfrwt beam="1">  1        2 0.49689243E-01 0.79676366E+02</pdfrwt>
<pdfrwt beam="2">  1       -1 0.75597939E-03 0.79676366E+02</pdfrwt>
<totfact> 0.26463036E+05</totfact>
</mgrwt>
</event>
<event>
 8    1  0.1520917E-013  0.8027992E+02  0.7818608E-02  0.1328259E+00
         -1   -1    0    0    0  501 -0.00000000000E+00  0.00000000000E+00  0.12334832675E+02  0.12334833705E+02  0.50400000000E-02 0.  1.
          2   -1    0    0  501    0  0.00000000000E+00 -0.00000000000E+00 -0.13062326975E+03  0.13062326977E+03  0.25500000000E-02 0. -1.
         24    2    1    2    0    0  0.00000000000E+00  0.00000000000E+00 -0.11828843707E+03  0.14295810348E+03  0.80279916573E+02 0.  0.
         66    2    3    3    0    0 -0.38573844611E+02  0.43796293381E+01 -0.77173285379E+02  0.86410870972E+02  0.20000011953E+01 0.  0.
        -13    1    3    3    0    0  0.38573844611E+02 -0.43796293381E+01 -0.41115151696E+02  0.56547232507E+02  0.10566000000E+00 0.  1.
         13    1    4    4    0    0 -0.14629591150E+02  0.20318827008E+01 -0.28491967452E+02  0.32092940935E+02  0.10566000000E+00 0. -1.
        -13    1    4    4    0    0 -0.17528418923E+02  0.12162838468E+01 -0.34837321995E+02  0.39017624020E+02  0.10566000000E+00 0.  1.
        -14    1    4    4    0    0 -0.64158345380E+01  0.11314627905E+01 -0.13843995932E+02  0.15300306017E+02  0.00000000000E+00 0.  1.
<mgrwt>
<rscale>  0 0.80279917E+02</rscale>
<asrwt>0</asrwt>
<pdfrwt beam="1">  1        2 0.20095887E-01 0.80279917E+02</pdfrwt>
<pdfrwt beam="2">  1       -1 0.18976667E-02 0.80279917E+02</pdfrwt>
<totfact> 0.18997340E+05</totfact>
</mgrwt>
</event>
<event>
 8    1  0.1520917E-013  0.7954765E+02  0.7818608E-02  0.1330340E+00
          2   -1    0    0  501    0  0.00000000000E+00  0.00000000000E+00  0.34899296299E+03  0.34899296300E+03  0.25500000000E-02 0. -1.
         -1   -1    0    0    0  501 -0.00000000000E+00 -0.00000000000E+00 -0.45329186864E+01  0.45329214883E+01  0.50400000000E-02 0.  1.
         24    2    1    2    0    0  0.00000000000E+00  0.00000000000E+00  0.34446004430E+03  0.35352588449E+03  0.79547651638E+02 0.  0.
         66    2    3    3    0    0  0.17543865183E+02  0.85643930921E+01  0.32621433231E+03  0.32680411051E+03  0.20000007851E+01 0.  0.
        -13    1    3    3    0    0 -0.17543865183E+02 -0.85643930921E+01  0.18245711990E+02  0.26721773981E+02  0.10566000000E+00 0.  1.
         13    1    4    4    0    0  0.93222151315E+01  0.42532529408E+01  0.16140409366E+03  0.16172905265E+03  0.10566000000E+00 0. -1.
        -13    1    4    4    0    0  0.62507123873E+01  0.35535527515E+01  0.12025104637E+03  0.12046586429E+03  0.10566000000E+00 0.  1.
         14    1    4    4    0    0  0.19709376643E+01  0.75758739982E+00  0.44559192279E+02  0.44609193564E+02  0.00000000000E+00 0. -1.
<mgrwt>
<rscale>  0 0.79547652E+02</rscale>
<asrwt>0</asrwt>
<pdfrwt beam="1">  1        2 0.53691226E-01 0.79547652E+02</pdfrwt>
<pdfrwt beam="2">  1       -1 0.69737231E-03 0.79547652E+02</pdfrwt>
<totfact> 0.27324177E+05</totfact>
</mgrwt>
</event>
<event>
 8    1  0.1520917E-013  0.7300372E+02  0.7818608E-02  0.1350167E+00
          2   -1    0    0  501    0  0.00000000000E+00  0.00000000000E+00  0.11277433320E+04  0.11277433320E+04  0.25500000000E-02 0. -1.
         -1   -1    0    0    0  501 -0.00000000000E+00 -0.00000000000E+00 -0.11814566700E+01  0.11814674201E+01  0.50400000000E-02 0.  1.
         24    2    1    2    0    0  0.00000000000E+00  0.17763568394E-14  0.11265618753E+04  0.11289247994E+04  0.73003724597E+02 0.  0.
         66    2    3    3    0    0 -0.91240943844E+01  0.10166761071E+02  0.10866874233E+04  0.10867751231E+04  0.20000005715E+01 0.  0.
        -13    1    3    3    0    0  0.91240943844E+01 -0.10166761071E+02  0.39874451978E+02  0.42149676317E+02  0.10566000000E+00 0.  1.
         13    1    4    4    0    0 -0.15594287954E+01  0.24664820234E+01  0.20930712730E+03  0.20932749474E+03  0.10566000000E+00 0. -1.
        -13    1    4    4    0    0 -0.66930725504E+01  0.65635306124E+01  0.72526381804E+03  0.72532440610E+03  0.10566000000E+00 0.  1.
        -14    1    4    4    0    0 -0.87159303866E+00  0.11367484355E+01  0.15211647799E+03  0.15212322225E+03  0.00000000000E+00 0.  1.
<mgrwt>
<rscale>  0 0.73003725E+02</rscale>
<asrwt>0</asrwt>
<pdfrwt beam="1">  1        2 0.17349948E+00 0.73003725E+02</pdfrwt>
<pdfrwt beam="2">  1       -1 0.18176286E-03 0.73003725E+02</pdfrwt>
<totfact> 0.44609573E+05</totfact>
</mgrwt>
</event>
<event>
 8    1  0.1520917E-013  0.7918053E+02  0.7818608E-02  0.1331393E+00
          2   -1    0    0  501    0  0.00000000000E+00  0.00000000000E+00  0.53134983440E+03  0.53134983441E+03  0.25500000000E-02 0. -1.
         -1   -1    0    0    0  501 -0.00000000000E+00 -0.00000000000E+00 -0.29498226109E+01  0.29498269165E+01  0.50400000000E-02 0.  1.
         24    2    1    2    0    0  0.00000000000E+00  0.00000000000E+00  0.52840001179E+03  0.53429966132E+03  0.79180525578E+02 0.  0.
         66    2    3    3    0    0 -0.55178804770E+01  0.24973219472E+02  0.46806822779E+03  0.46877070574E+03  0.19999985068E+01 0.  0.
        -13    1    3    3    0    0  0.55178804770E+01 -0.24973219472E+02  0.60331784000E+02  0.65528955587E+02  0.10566000000E+00 0.  1.
         13    1    4    4    0    0 -0.35142079510E+01  0.15676982297E+02  0.28781413800E+03  0.28826221853E+03  0.10566000000E+00 0. -1.
        -13    1    4    4    0    0 -0.14367474380E+01  0.61285020864E+01  0.12892576682E+03  0.12907938369E+03  0.10566000000E+00 0.  1.
         14    1    4    4    0    0 -0.56692508791E+00  0.31677350884E+01  0.51328322971E+02  0.51429103518E+02  0.00000000000E+00 0. -1.
<mgrwt>
<rscale>  0 0.79180526E+02</rscale>
<asrwt>0</asrwt>
<pdfrwt beam="1">  1        2 0.81746137E-01 0.79180526E+02</pdfrwt>
<pdfrwt beam="2">  1       -1 0.45381915E-03 0.79180526E+02</pdfrwt>
<totfact> 0.31879434E+05</totfact>
</mgrwt>
</event>
<event>
 8    1  0.1520917E-013  0.7806943E+02  0.7818608E-02  0.1334621E+00
          2   -1    0    0  501    0  0.00000000000E+00  0.00000000000E+00  0.79080082895E+03  0.79080082896E+03  0.25500000000E-02 0. -1.
         -1   -1    0    0    0  501 -0.00000000000E+00 -0.00000000000E+00 -0.19267888126E+01  0.19267954043E+01  0.50400000000E-02 0.  1.
         24    2    1    2    0    0  0.17763568394E-14  0.35527136788E-14  0.78887404014E+03  0.79272762436E+03  0.78069425630E+02 0.  0.
         66    2    3    3    0    0  0.14344269684E+02  0.27416555625E+02  0.63590203452E+03  0.63665753991E+03  0.20000035999E+01 0.  0.
        -13    1    3    3    0    0 -0.14344269684E+02 -0.27416555625E+02  0.15297200562E+03  0.15607008446E+03  0.10566000000E+00 0.  1.
         13    1    4    4    0    0  0.10052525618E+02  0.20360902905E+02  0.45202399064E+03  0.45259398904E+03  0.10566000000E+00 0. -1.
        -13    1    4    4    0    0  0.19971796255E+01  0.31906507139E+01  0.82234236981E+02  0.82320409828E+02  0.10566000000E+00 0.  1.
         14    1    4    4    0    0  0.22945644403E+01  0.38650020055E+01  0.10164380690E+03  0.10174314104E+03  0.00000000000E+00 0. -1.
<mgrwt>
<rscale>  0 0.78069426E+02</rscale>
<asrwt>0</asrwt>
<pdfrwt beam="1">  1        2 0.12166200E+00 0.78069426E+02</pdfrwt>
<pdfrwt beam="2">  1       -1 0.29642875E-03 0.78069426E+02</pdfrwt>
<totfact> 0.36540183E+05</totfact>
</mgrwt>
</event>
<event>
 8    1  0.1520917E-013  0.8094739E+02  0.7818608E-02  0.1326384E+00
          2   -1    0    0  501    0  0.00000000000E+00  0.00000000000E+00  0.29816551492E+02  0.29816551601E+02  0.25500000000E-02 0. -1.
         -1   -1    0    0    0  501 -0.00000000000E+00 -0.00000000000E+00 -0.54939952705E+02  0.54939952937E+02  0.50400000000E-02 0.  1.
         24    2    1    2    0    0  0.35527136788E-14  0.00000000000E+00 -0.25123401213E+02  0.84756504538E+02  0.80947388920E+02 0.  0.
         66    2    3    3    0    0  0.26480752096E+02 -0.28608938879E+02 -0.23866567684E+02  0.45752755873E+02  0.20000003926E+01 0.  0.
        -13    1    3    3    0    0 -0.26480752096E+02  0.28608938879E+02 -0.12568335289E+01  0.39003748665E+02  0.10566000000E+00 0.  1.
         13    1    4    4    0    0  0.13604543289E+02 -0.14610256980E+02 -0.13258135089E+02  0.23965235596E+02  0.10566000000E+00 0. -1.
        -13    1    4    4    0    0  0.11738156431E+02 -0.12705535538E+02 -0.94438305032E+01  0.19708172121E+02  0.10566000000E+00 0.  1.
        -14    1    4    4    0    0  0.11380523765E+01 -0.12931463607E+01 -0.11646020915E+01  0.20793481559E+01  0.00000000000E+00 0.  1.
<mgrwt>
<rscale>  0 0.80947389E+02</rscale>
<asrwt>0</asrwt>
<pdfrwt beam="1">  1        2 0.45871618E-02 0.80947389E+02</pdfrwt>
<pdfrwt beam="2">  1       -1 0.84523004E-02 0.80947389E+02</pdfrwt>
<totfact> 0.13002161E+05</totfact>
</mgrwt>
</event>
<event>
 8    1  0.1520917E-013  0.7987695E+02  0.7818608E-02  0.1329401E+00
         -1   -1    0    0    0  501 -0.00000000000E+00  0.00000000000E+00  0.49472151176E+01  0.49472176848E+01  0.50400000000E-02 0.  1.
          2   -1    0    0  501    0  0.00000000000E+00 -0.00000000000E+00 -0.32242004518E+03  0.32242004519E+03  0.25500000000E-02 0. -1.
         24    2    1    2    0    0  0.00000000000E+00  0.00000000000E+00 -0.31747283007E+03  0.32736726288E+03  0.79876948955E+02 0.  0.
         66    2    3    3    0    0  0.44876331311E+01 -0.23393746848E+02 -0.29009121702E+03  0.29107442420E+03  0.19999961822E+01 0.  0.
        -13    1    3    3    0    0 -0.44876331311E+01  0.23393746848E+02 -0.27381613042E+02  0.36292838681E+02  0.10566000000E+00 0.  1.
         13    1    4    4    0    0  0.16600879469E+01 -0.61521208044E+01 -0.70226266047E+02  0.70514850133E+02  0.10566000000E+00 0.  1.
        -13    1    4    4    0    0  0.23933804296E+01 -0.14185294262E+02 -0.17709826309E+03  0.17768161637E+03  0.10566000000E+00 0. -1.
        -14    1    4    4    0    0  0.43416475453E+00 -0.30563317811E+01 -0.42766687888E+02  0.42877957693E+02  0.00000000000E+00 0.  1.
<mgrwt>
<rscale>  0 0.79876949E+02</rscale>
<asrwt>0</asrwt>
<pdfrwt beam="1">  1        2 0.49603067E-01 0.79876949E+02</pdfrwt>
<pdfrwt beam="2">  1       -1 0.76111047E-03 0.79876949E+02</pdfrwt>
<totfact> 0.26272943E+05</totfact>
</mgrwt>
</event>
<event>
 8    1  0.1520917E-013  0.7584636E+02  0.7818608E-02  0.1341270E+00
         -1   -1    0    0    0  501 -0.00000000000E+00  0.00000000000E+00  0.74819432888E+02  0.74819433057E+02  0.50400000000E-02 0.  1.
          2   -1    0    0  501    0  0.00000000000E+00 -0.00000000000E+00 -0.19221844888E+02  0.19221845057E+02  0.25500000000E-02 0. -1.
         24    2    1    2    0    0  0.17763568394E-14  0.71054273576E-14  0.55597588000E+02  0.94041278114E+02  0.75846359161E+02 0.  0.
         66    2    3    3    0    0 -0.14212570671E+02 -0.33309968181E+02  0.13977215911E+02  0.38870473497E+02  0.19999999816E+01 0.  0.
        -13    1    3    3    0    0  0.14212570671E+02  0.33309968181E+02  0.41620372089E+02  0.55170804618E+02  0.10566000000E+00 0.  1.
         13    1    4    4    0    0 -0.29141404996E+01 -0.75886214041E+01  0.30883968874E+01  0.86964791172E+01  0.10566000000E+00 0. -1.
        -13    1    4    4    0    0 -0.20978895966E+01 -0.62882218838E+01  0.29083315782E+01  0.72396430730E+01  0.10566000000E+00 0.  1.
        -14    1    4    4    0    0 -0.92005405748E+01 -0.19433124893E+02  0.79804874457E+01  0.22934351307E+02  0.00000000000E+00 0.  1.
<mgrwt>
<rscale>  0 0.75846359E+02</rscale>
<asrwt>0</asrwt>
<pdfrwt beam="1">  1        2 0.29572069E-02 0.75846359E+02</pdfrwt>
<pdfrwt beam="2">  1       -1 0.11510682E-01 0.75846359E+02</pdfrwt>
<totfact> 0.14348293E+05</totfact>
</mgrwt>
</event>
<event>
 8    1  0.1520917E-013  0.7880603E+02  0.7818608E-02  0.1332474E+00
         -1   -1    0    0    0  501 -0.00000000000E+00  0.00000000000E+00  0.59051024700E+01  0.59051046208E+01  0.50400000000E-02 0.  1.
          2   -1    0    0  501    0  0.00000000000E+00 -0.00000000000E+00 -0.26292471686E+03  0.26292471687E+03  0.25500000000E-02 0. -1.
         24    2    1    2    0    0  0.00000000000E+00  0.00000000000E+00 -0.25701961439E+03  0.26882982149E+03  0.78806032401E+02 0.  0.
         66    2    3    3    0    0 -0.38392125577E+02  0.84865424749E+01 -0.13592147431E+03  0.14150838809E+03  0.20000027491E+01 0.  0.
        -13    1    3    3    0    0  0.38392125577E+02 -0.84865424749E+01 -0.12109814007E+03  0.12732143340E+03  0.10566000000E+00 0.  1.
         13    1    4    4    0    0 -0.12176253931E+02  0.30674030053E+01 -0.42261956229E+02  0.44088028186E+02  0.10566000000E+00 0.  1.
        -13    1    4    4    0    0 -0.20187310734E+02  0.35677830712E+01 -0.71802733979E+02  0.74671951640E+02  0.10566000000E+00 0. -1.
         14    1    4    4    0    0 -0.60285609115E+01  0.18513563984E+01 -0.21856784106E+02  0.22748408266E+02  0.00000000000E+00 0. -1.
<mgrwt>
<rscale>  0 0.78806032E+02</rscale>
<asrwt>0</asrwt>
<pdfrwt beam="1">  1        2 0.40449947E-01 0.78806032E+02</pdfrwt>
<pdfrwt beam="2">  1       -1 0.90847768E-03 0.78806032E+02</pdfrwt>
<totfact> 0.25283776E+05</totfact>
</mgrwt>
</event>
<event>
 8    1  0.1520917E-013  0.7816165E+02  0.7818608E-02  0.1334351E+00
          2   -1    0    0  501    0  0.00000000000E+00  0.00000000000E+00  0.14013667973E+02  0.14013668205E+02  0.25500000000E-02 0. -1.
         -1   -1    0    0    0  501 -0.00000000000E+00 -0.00000000000E+00 -0.10898722074E+03  0.10898722086E+03  0.50400000000E-02 0.  1.
         24    2    1    2    0    0  0.00000000000E+00  0.00000000000E+00 -0.94973552770E+02  0.12300088906E+03  0.78161646507E+02 0.  0.
         66    2    3    3    0    0  0.35701023930E+02 -0.15791665662E+02 -0.45678535021E+02  0.60120448918E+02  0.20000005949E+01 0.  0.
        -13    1    3    3    0    0 -0.35701023930E+02  0.15791665662E+02 -0.49295017749E+02  0.62880440146E+02  0.10566000000E+00 0.  1.
         13    1    4    4    0    0  0.13207684686E+02 -0.58112954097E+01 -0.18169516099E+02  0.23202512114E+02  0.10566000000E+00 0.  1.
        -13    1    4    4    0    0  0.16289345987E+02 -0.73697626660E+01 -0.19493409309E+02  0.26451093833E+02  0.10566000000E+00 0. -1.
         14    1    4    4    0    0  0.62039932563E+01 -0.26106075868E+01 -0.80156096137E+01  0.10466842971E+02  0.00000000000E+00 0. -1.
<mgrwt>
<rscale>  0 0.78161647E+02</rscale>
<asrwt>0</asrwt>
<pdfrwt beam="1">  1        2 0.21559490E-02 0.78161647E+02</pdfrwt>
<pdfrwt beam="2">  1       -1 0.16767264E-01 0.78161647E+02</pdfrwt>
<totfact> 0.12329816E+05</totfact>
</mgrwt>
</event>
<event>
 8    1  0.1520917E-013  0.7963795E+02  0.7818608E-02  0.1330082E+00
          2   -1    0    0  501    0  0.00000000000E+00  0.00000000000E+00  0.36168673452E+03  0.36168673453E+03  0.25500000000E-02 0. -1.
         -1   -1    0    0    0  501 -0.00000000000E+00 -0.00000000000E+00 -0.43837664983E+01  0.43837693955E+01  0.50400000000E-02 0.  1.
         24    2    1    2    0    0  0.00000000000E+00  0.00000000000E+00  0.35730296802E+03  0.36607050392E+03  0.79637948783E+02 0.  0.
         66    2    3    3    0    0  0.77228565921E+01 -0.38398396967E+02  0.21109339462E+03  0.21470561394E+03  0.19999997052E+01 0.  0.
        -13    1    3    3    0    0 -0.77228565921E+01  0.38398396967E+02  0.14620957340E+03  0.15136488999E+03  0.10566000000E+00 0.  1.
         13    1    4    4    0    0  0.27052036228E+01 -0.15255656876E+02  0.85185963142E+02  0.86583558912E+02  0.10566000000E+00 0. -1.
        -13    1    4    4    0    0  0.13814130266E+01 -0.85684991872E+01  0.48538092531E+02  0.49308062940E+02  0.10566000000E+00 0.  1.
         14    1    4    4    0    0  0.36362399428E+01 -0.14574240904E+02  0.77369338951E+02  0.78813992086E+02  0.00000000000E+00 0. -1.
<mgrwt>
<rscale>  0 0.79637949E+02</rscale>
<asrwt>0</asrwt>
<pdfrwt beam="1">  1        2 0.55644143E-01 0.79637949E+02</pdfrwt>
<pdfrwt beam="2">  1       -1 0.67442548E-03 0.79637949E+02</pdfrwt>
<totfact> 0.27592019E+05</totfact>
</mgrwt>
</event>
<event>
 8    1  0.1520917E-013  0.8012724E+02  0.7818608E-02  0.1328691E+00
         -1   -1    0    0    0  501 -0.00000000000E+00  0.00000000000E+00  0.15143571489E+02  0.15143572328E+02  0.50400000000E-02 0.  1.
          2   -1    0    0  501    0  0.00000000000E+00 -0.00000000000E+00 -0.10599174368E+03  0.10599174371E+03  0.25500000000E-02 0. -1.
         24    2    1    2    0    0 -0.22204460493E-15  0.00000000000E+00 -0.90848172186E+02  0.12113531603E+03  0.80127238822E+02 0.  0.
         66    2    3    3    0    0  0.17783681821E+01  0.21993189291E+02 -0.95961054927E+02  0.98485466089E+02  0.19999998351E+01 0.  0.
        -13    1    3    3    0    0 -0.17783681821E+01 -0.21993189291E+02  0.51128827411E+01  0.22649849946E+02  0.10566000000E+00 0.  1.
         13    1    4    4    0    0  0.11328306730E+01  0.14213836249E+02 -0.64991476342E+02  0.66537354977E+02  0.10566000000E+00 0. -1.
        -13    1    4    4    0    0  0.11144863150E+00  0.23531761510E+00 -0.12704586503E+01  0.13011627090E+01  0.10566000000E+00 0.  1.
        -14    1    4    4    0    0  0.53408887767E+00  0.75440354270E+01 -0.29699119935E+02  0.30646948402E+02  0.00000000000E+00 0.  1.
<mgrwt>
<rscale>  0 0.80127239E+02</rscale>
<asrwt>0</asrwt>
<pdfrwt beam="1">  1        2 0.16306422E-01 0.80127239E+02</pdfrwt>
<pdfrwt beam="2">  1       -1 0.23297804E-02 0.80127239E+02</pdfrwt>
<totfact> 0.17943678E+05</totfact>
</mgrwt>
</event>
<event>
 8    1  0.1520917E-013  0.8041044E+02  0.7818608E-02  0.1327891E+00
         -1   -1    0    0    0  501 -0.00000000000E+00  0.00000000000E+00  0.17652664483E+02  0.17652665202E+02  0.50400000000E-02 0.  1.
          2   -1    0    0  501    0  0.00000000000E+00 -0.00000000000E+00 -0.91570291052E+02  0.91570291088E+02  0.25500000000E-02 0. -1.
         24    2    1    2    0    0 -0.22204460493E-15  0.00000000000E+00 -0.73917626569E+02  0.10922295629E+03  0.80410438770E+02 0.  0.
         66    2    3    3    0    0  0.10469369117E+01  0.17580600250E+02 -0.86037044824E+02  0.87843876681E+02  0.20000015365E+01 0.  0.
        -13    1    3    3    0    0 -0.10469369117E+01 -0.17580600250E+02  0.12119418255E+02  0.21379079609E+02  0.10566000000E+00 0.  1.
         13    1    4    4    0    0  0.39851550444E+00  0.67761791862E+01 -0.34716701615E+02  0.35374227257E+02  0.10566000000E+00 0. -1.
        -13    1    4    4    0    0 -0.30354709430E+00  0.65600863836E+01 -0.30166236205E+02  0.30872963009E+02  0.10566000000E+00 0.  1.
        -14    1    4    4    0    0  0.95196850158E+00  0.42443346805E+01 -0.21154107005E+02  0.21596686414E+02  0.00000000000E+00 0.  1.
<mgrwt>
<rscale>  0 0.80410439E+02</rscale>
<asrwt>0</asrwt>
<pdfrwt beam="1">  1        2 0.14087737E-01 0.80410439E+02</pdfrwt>
<pdfrwt beam="2">  1       -1 0.27157947E-02 0.80410439E+02</pdfrwt>
<totfact> 0.17065096E+05</totfact>
</mgrwt>
</event>
<event>
 8    1  0.2044246E-013  0.8096720E+02  0.7818608E-02  0.1326329E+00
          2   -1    0    0  501    0  0.00000000000E+00  0.00000000000E+00  0.37223925707E+03  0.37223925708E+03  0.25500000000E-02 0. -1.
         -1   -1    0    0    0  501 -0.00000000000E+00 -0.00000000000E+00 -0.44028702619E+01  0.44028731466E+01  0.50400000000E-02 0.  1.
         24    2    1    2    0    0  0.00000000000E+00 -0.17763568394E-14  0.36783638681E+03  0.37664213022E+03  0.80967195830E+02 0.  0.
         66    2    3    3    0    0  0.10031257290E+02 -0.58430764017E+01  0.36432204020E+03  0.36451243687E+03  0.19999995014E+01 0.  0.
        -13    1    3    3    0    0 -0.10031257290E+02  0.58430764017E+01  0.35143466105E+01  0.12129693351E+02  0.10566000000E+00 0.  1.
         13    1    4    4    0    0  0.21178511899E+01 -0.10876811620E+01  0.79334417688E+02  0.79370204346E+02  0.10566000000E+00 0. -1.
        -13    1    4    4    0    0  0.61570905319E+01 -0.41908624129E+01  0.24292551269E+03  0.24303968600E+03  0.10566000000E+00 0.  1.
        -14    1    4    4    0    0  0.17563155677E+01 -0.56453282674E+00  0.42062109819E+02  0.42102546528E+02  0.00000000000E+00 0.  1.
<mgrwt>
<rscale>  0 0.80967196E+02</rscale>
<asrwt>0</asrwt>
<pdfrwt beam="1">  1        2 0.57267606E-01 0.80967196E+02</pdfrwt>
<pdfrwt beam="2">  1       -1 0.67736455E-03 0.80967196E+02</pdfrwt>
<totfact> 0.26693417E+05</totfact>
</mgrwt>
</event>
<event>
 8    1  0.1520917E-013  0.8117186E+02  0.7818608E-02  0.1325758E+00
          2   -1    0    0  501    0  0.00000000000E+00  0.00000000000E+00  0.17515843575E+03  0.17515843577E+03  0.25500000000E-02 0. -1.
         -1   -1    0    0    0  501 -0.00000000000E+00 -0.00000000000E+00 -0.94041576659E+01  0.94041590164E+01  0.50400000000E-02 0.  1.
         24    2    1    2    0    0  0.35527136788E-14  0.00000000000E+00  0.16575427808E+03  0.18456259478E+03  0.81171858982E+02 0.  0.
         66    2    3    3    0    0 -0.16995255688E+02  0.20059566476E+02  0.15315519860E+03  0.15540830023E+03  0.19999998572E+01 0.  0.
        -13    1    3    3    0    0  0.16995255688E+02 -0.20059566476E+02  0.12599079486E+02  0.29154294556E+02  0.10566000000E+00 0.  1.
         13    1    4    4    0    0 -0.72093428924E+00  0.89653647172E+00  0.58982953149E+01  0.60103723306E+01  0.10566000000E+00 0. -1.
        -13    1    4    4    0    0 -0.61304871735E+00  0.11345338354E+01  0.92498467865E+01  0.93399049975E+01  0.10566000000E+00 0.  1.
         14    1    4    4    0    0 -0.15661272681E+02  0.18028496169E+02  0.13800705650E+03  0.14005802290E+03  0.00000000000E+00 0. -1.
<mgrwt>
<rscale>  0 0.81171859E+02</rscale>
<asrwt>0</asrwt>
<pdfrwt beam="1">  1        2 0.26947450E-01 0.81171859E+02</pdfrwt>
<pdfrwt beam="2">  1       -1 0.14467937E-02 0.81171859E+02</pdfrwt>
<totfact> 0.20283151E+05</totfact>
</mgrwt>
</event>
<event>
 8    1  0.1520917E-013  0.8393987E+02  0.7818608E-02  0.1318228E+00
         -1   -1    0    0    0  501 -0.00000000000E+00  0.00000000000E+00  0.17369225404E+02  0.17369226136E+02  0.50400000000E-02 0.  1.
          2   -1    0    0  501    0  0.00000000000E+00 -0.00000000000E+00 -0.10141357686E+03  0.10141357689E+03  0.25500000000E-02 0. -1.
         24    2    1    2    0    0  0.00000000000E+00  0.00000000000E+00 -0.84044351452E+02  0.11878280302E+03  0.83939867068E+02 0.  0.
         66    2    3    3    0    0  0.36316144308E+02 -0.99641554346E+01 -0.68189748606E+02  0.77922965453E+02  0.19999997643E+01 0.  0.
        -13    1    3    3    0    0 -0.36316144308E+02  0.99641554346E+01 -0.15854602847E+02  0.40859837572E+02  0.10566000000E+00 0.  1.
         13    1    4    4    0    0  0.25120372026E+01 -0.81656408369E+00 -0.46892994057E+01  0.53831032650E+01  0.10566000000E+00 0. -1.
        -13    1    4    4    0    0  0.18527033801E+02 -0.59385604018E+01 -0.35522863934E+02  0.40501882762E+02  0.10566000000E+00 0.  1.
         14    1    4    4    0    0  0.15277073305E+02 -0.32090309491E+01 -0.27977585266E+02  0.32037979426E+02  0.00000000000E+00 0. -1.
<mgrwt>
<rscale>  0 0.83939867E+02</rscale>
<asrwt>0</asrwt>
<pdfrwt beam="1">  1        2 0.15602088E-01 0.83939867E+02</pdfrwt>
<pdfrwt beam="2">  1       -1 0.26721887E-02 0.83939867E+02</pdfrwt>
<totfact> 0.15640428E+05</totfact>
</mgrwt>
</event>
<event>
 8    1  0.1520917E-013  0.7907829E+02  0.7818608E-02  0.1331688E+00
          2   -1    0    0  501    0  0.00000000000E+00  0.00000000000E+00  0.71094462651E+01  0.71094467224E+01  0.25500000000E-02 0. -1.
         -1   -1    0    0    0  501 -0.00000000000E+00 -0.00000000000E+00 -0.21989671903E+03  0.21989671909E+03  0.50400000000E-02 0.  1.
         24    2    1    2    0    0  0.00000000000E+00  0.00000000000E+00 -0.21278727277E+03  0.22700616581E+03  0.79078289468E+02 0.  0.
         66    2    3    3    0    0  0.32008046965E+02 -0.83667844098E+01 -0.44438108996E+02  0.55437024477E+02  0.19999999830E+01 0.  0.
        -13    1    3    3    0    0 -0.32008046965E+02  0.83667844098E+01 -0.16834916377E+03  0.17156914133E+03  0.10566000000E+00 0.  1.
         13    1    4    4    0    0  0.91542592737E+01 -0.17716096101E+01 -0.11584261745E+02  0.14870956515E+02  0.10566000000E+00 0. -1.
        -13    1    4    4    0    0  0.76659868114E+01 -0.23327262210E+01 -0.11544633437E+02  0.14053422737E+02  0.10566000000E+00 0.  1.
         14    1    4    4    0    0  0.15187800880E+02 -0.42624485786E+01 -0.21309213814E+02  0.26512645225E+02  0.00000000000E+00 0. -1.
<mgrwt>
<rscale>  0 0.79078289E+02</rscale>
<asrwt>0</asrwt>
<pdfrwt beam="1">  1        2 0.10937612E-02 0.79078289E+02</pdfrwt>
<pdfrwt beam="2">  1       -1 0.33830259E-01 0.79078289E+02</pdfrwt>
<totfact> 0.99597954E+04</totfact>
</mgrwt>
</event>
<event>
 8    1  0.1520917E-013  0.7792002E+02  0.7818608E-02  0.1335060E+00
         -1   -1    0    0    0  501 -0.00000000000E+00  0.00000000000E+00  0.24413629653E+03  0.24413629658E+03  0.50400000000E-02 0.  1.
          2   -1    0    0  501    0  0.00000000000E+00 -0.00000000000E+00 -0.62173559351E+01  0.62173564580E+01  0.25500000000E-02 0. -1.
         24    2    1    2    0    0 -0.88817841970E-15  0.00000000000E+00  0.23791894060E+03  0.25035365304E+03  0.77920018588E+02 0.  0.
         66    2    3    3    0    0 -0.61701533464E+01 -0.36792593774E+02  0.83243547251E+02  0.91242829338E+02  0.19999994572E+01 0.  0.
        -13    1    3    3    0    0  0.61701533464E+01  0.36792593774E+02  0.15467539335E+03  0.15911082370E+03  0.10566000000E+00 0.  1.
         13    1    4    4    0    0 -0.17877454910E+01 -0.12749843947E+02  0.27386769829E+02  0.30262202172E+02  0.10566000000E+00 0. -1.
        -13    1    4    4    0    0 -0.43702592996E+01 -0.24055647066E+02  0.55821294135E+02  0.60940966230E+02  0.10566000000E+00 0.  1.
        -14    1    4    4    0    0 -0.12148555742E-01  0.12897239369E-01  0.35483286674E-01  0.39660935732E-01  0.00000000000E+00 0.  1.
<mgrwt>
<rscale>  0 0.77920019E+02</rscale>
<asrwt>0</asrwt>
<pdfrwt beam="1">  1        2 0.95651642E-03 0.77920019E+02</pdfrwt>
<pdfrwt beam="2">  1       -1 0.37559427E-01 0.77920019E+02</pdfrwt>
<totfact> 0.99877315E+04</totfact>
</mgrwt>
</event>
<event>
 8    1  0.1520917E-013  0.7810795E+02  0.7818608E-02  0.1334508E+00
          2   -1    0    0  501    0  0.00000000000E+00  0.00000000000E+00  0.84232047805E+03  0.84232047806E+03  0.25500000000E-02 0. -1.
         -1   -1    0    0    0  501 -0.00000000000E+00 -0.00000000000E+00 -0.18107240592E+01  0.18107310734E+01  0.50400000000E-02 0.  1.
         24    2    1    2    0    0  0.00000000000E+00  0.00000000000E+00  0.84050975399E+03  0.84413120913E+03  0.78107948821E+02 0.  0.
         66    2    3    3    0    0 -0.13566969846E+02  0.30502722263E+02  0.63902015827E+03  0.63989471120E+03  0.20000037431E+01 0.  0.
        -13    1    3    3    0    0  0.13566969846E+02 -0.30502722263E+02  0.20148959572E+03  0.20423649793E+03  0.10566000000E+00 0.  1.
         13    1    4    4    0    0 -0.30205029053E+01  0.80119289622E+01  0.16946254633E+03  0.16967875594E+03  0.10566000000E+00 0.  1.
        -13    1    4    4    0    0 -0.19305179511E+01  0.40525063190E+01  0.94351598975E+02  0.94458377608E+02  0.10566000000E+00 0. -1.
         14    1    4    4    0    0 -0.86159489896E+01  0.18438286982E+02  0.37520601296E+03  0.37575757766E+03  0.00000000000E+00 0. -1.
<mgrwt>
<rscale>  0 0.78107949E+02</rscale>
<asrwt>0</asrwt>
<pdfrwt beam="1">  1        2 0.12958749E+00 0.78107949E+02</pdfrwt>
<pdfrwt beam="2">  1       -1 0.27857406E-03 0.78107949E+02</pdfrwt>
<totfact> 0.36869338E+05</totfact>
</mgrwt>
</event>
<event>
 8    1  0.1520917E-013  0.7889455E+02  0.7818608E-02  0.1332218E+00
         -1   -1    0    0    0  501 -0.00000000000E+00  0.00000000000E+00  0.20090537654E+01  0.20090600871E+01  0.50400000000E-02 0.  1.
          2   -1    0    0  501    0  0.00000000000E+00 -0.00000000000E+00 -0.77453633911E+03  0.77453633912E+03  0.25500000000E-02 0. -1.
         24    2    1    2    0    0 -0.35527136788E-14 -0.88817841970E-15 -0.77252728535E+03  0.77654539920E+03  0.78894552530E+02 0.  0.
         66    2    3    3    0    0  0.30352832267E+02  0.48636458302E+01 -0.62943827629E+03  0.63019163207E+03  0.19999985741E+01 0.  0.
        -13    1    3    3    0    0 -0.30352832267E+02 -0.48636458302E+01 -0.14308900905E+03  0.14635376713E+03  0.10566000000E+00 0.  1.
         13    1    4    4    0    0  0.13525119274E+02  0.20614325933E+01 -0.28370926407E+03  0.28403896922E+03  0.10566000000E+00 0. -1.
        -13    1    4    4    0    0  0.10998354610E+02  0.23083028805E+01 -0.21714051317E+03  0.21743115161E+03  0.10566000000E+00 0.  1.
        -14    1    4    4    0    0  0.58293583827E+01  0.49391035634E+00 -0.12858849905E+03  0.12872151124E+03  0.00000000000E+00 0.  1.
<mgrwt>
<rscale>  0 0.78894553E+02</rscale>
<asrwt>0</asrwt>
<pdfrwt beam="1">  1        2 0.11915920E+00 0.78894553E+02</pdfrwt>
<pdfrwt beam="2">  1       -1 0.30908630E-03 0.78894553E+02</pdfrwt>
<totfact> 0.35422955E+05</totfact>
</mgrwt>
</event>
<event>
 8    1  0.1520917E-013  0.8097020E+02  0.7818608E-02  0.1326320E+00
          2   -1    0    0  501    0  0.00000000000E+00  0.00000000000E+00  0.70532049456E+03  0.70532049456E+03  0.25500000000E-02 0. -1.
         -1   -1    0    0    0  501 -0.00000000000E+00 -0.00000000000E+00 -0.23238247698E+01  0.23238302353E+01  0.50400000000E-02 0.  1.
         24    2    1    2    0    0  0.00000000000E+00  0.35527136788E-14  0.70299666979E+03  0.70764432480E+03  0.80970196278E+02 0.  0.
         66    2    3    3    0    0 -0.24767942042E+01 -0.23465540886E+02  0.63895979147E+03  0.63939845264E+03  0.19999993003E+01 0.  0.
        -13    1    3    3    0    0  0.24767942042E+01  0.23465540886E+02  0.64036878318E+02  0.68245872164E+02  0.10566000000E+00 0.  1.
         13    1    4    4    0    0 -0.65428763267E+00 -0.11927667345E+02  0.33601125894E+03  0.33622354861E+03  0.10566000000E+00 0. -1.
        -13    1    4    4    0    0 -0.16021658374E+01 -0.10869961011E+02  0.27972963268E+03  0.27994535458E+03  0.10566000000E+00 0.  1.
        -14    1    4    4    0    0 -0.22034073406E+00 -0.66791252977E+00  0.23218899854E+02  0.23229549449E+02  0.00000000000E+00 0.  1.
<mgrwt>
<rscale>  0 0.80970196E+02</rscale>
<asrwt>0</asrwt>
<pdfrwt beam="1">  1        2 0.10851081E+00 0.80970196E+02</pdfrwt>
<pdfrwt beam="2">  1       -1 0.35751204E-03 0.80970196E+02</pdfrwt>
<totfact> 0.32475028E+05</totfact>
</mgrwt>
</event>
<event>
 8    1  0.1520917E-013  0.8186738E+02  0.7818608E-02  0.1323834E+00
          2   -1    0    0  501    0  0.00000000000E+00  0.00000000000E+00  0.29403524749E+03  0.29403524750E+03  0.25500000000E-02 0. -1.
         -1   -1    0    0    0  501 -0.00000000000E+00 -0.00000000000E+00 -0.56985231587E+01  0.56985253875E+01  0.50400000000E-02 0.  1.
         24    2    1    2    0    0  0.00000000000E+00  0.00000000000E+00  0.28833672433E+03  0.29973377289E+03  0.81867380634E+02 0.  0.
         66    2    3    3    0    0  0.27835448609E+02 -0.30265257411E+01  0.25345343002E+03  0.25500316319E+03  0.19999986519E+01 0.  0.
        -13    1    3    3    0    0 -0.27835448609E+02  0.30265257411E+01  0.34883294313E+02  0.44730609693E+02  0.10566000000E+00 0.  1.
         13    1    4    4    0    0  0.11560143236E+02 -0.18815509578E+01  0.10472194092E+03  0.10537491742E+03  0.10566000000E+00 0. -1.
        -13    1    4    4    0    0  0.77837612666E+01 -0.91766245848E+00  0.75449547396E+02  0.75855615548E+02  0.10566000000E+00 0.  1.
         14    1    4    4    0    0  0.84915441063E+01 -0.22731232482E+00  0.73281941696E+02  0.73772630229E+02  0.00000000000E+00 0. -1.
<mgrwt>
<rscale>  0 0.81867381E+02</rscale>
<asrwt>0</asrwt>
<pdfrwt beam="1">  1        2 0.45236202E-01 0.81867381E+02</pdfrwt>
<pdfrwt beam="2">  1       -1 0.87669584E-03 0.81867381E+02</pdfrwt>
<totfact> 0.23821960E+05</totfact>
</mgrwt>
</event>
<event>
 8    1  0.1520917E-013  0.8064037E+02  0.7818608E-02  0.1327244E+00
         -1   -1    0    0    0  501 -0.00000000000E+00  0.00000000000E+00  0.14452837448E+02  0.14452838327E+02  0.50400000000E-02 0.  1.
          2   -1    0    0  501    0  0.00000000000E+00 -0.00000000000E+00 -0.11248429145E+03  0.11248429148E+03  0.25500000000E-02 0. -1.
         24    2    1    2    0    0  0.00000000000E+00  0.35527136788E-14 -0.98031454005E+02  0.12693712981E+03  0.80640367992E+02 0.  0.
         66    2    3    3    0    0 -0.84595605614E+01 -0.20830729563E+02 -0.10168405136E+03  0.10415915601E+03  0.20000049840E+01 0.  0.
        -13    1    3    3    0    0  0.84595605614E+01  0.20830729563E+02  0.36525973572E+01  0.22777973801E+02  0.10566000000E+00 0.  1.
         13    1    4    4    0    0 -0.29738482025E+01 -0.70793968984E+01 -0.33512428101E+02  0.34381035976E+02  0.10566000000E+00 0. -1.
        -13    1    4    4    0    0 -0.15718746971E+01 -0.29588026127E+01 -0.18039518158E+02  0.18348315518E+02  0.10566000000E+00 0.  1.
        -14    1    4    4    0    0 -0.39138376618E+01 -0.10792530051E+02 -0.50132105104E+02  0.51429804514E+02  0.00000000000E+00 0.  1.
<mgrwt>
<rscale>  0 0.80640368E+02</rscale>
<asrwt>0</asrwt>
<pdfrwt beam="1">  1        2 0.17305275E-01 0.80640368E+02</pdfrwt>
<pdfrwt beam="2">  1       -1 0.22235136E-02 0.80640368E+02</pdfrwt>
<totfact> 0.17946133E+05</totfact>
</mgrwt>
</event>
<event>
 8    1  0.1520917E-013  0.8119864E+02  0.7818608E-02  0.1325684E+00
          2   -1    0    0  501    0  0.00000000000E+00  0.00000000000E+00  0.10229256622E+03  0.10229256625E+03  0.25500000000E-02 0. -1.
         -1   -1    0    0    0  501 -0.00000000000E+00 -0.00000000000E+00 -0.16113630522E+02  0.16113631310E+02  0.50400000000E-02 0.  1.
         24    2    1    2    0    0  0.00000000000E+00  0.35527136788E-14  0.86178935695E+02  0.11840619756E+03  0.81198637076E+02 0.  0.
         66    2    3    3    0    0  0.26133250928E+02  0.29406792395E+02  0.57594908419E+02  0.69777358149E+02  0.19999978641E+01 0.  0.
        -13    1    3    3    0    0 -0.26133250928E+02 -0.29406792395E+02  0.28584027277E+02  0.48628839411E+02  0.10566000000E+00 0.  1.
         13    1    4    4    0    0  0.13634041732E+02  0.15710122810E+02  0.30733528332E+02  0.37111399602E+02  0.10566000000E+00 0. -1.
        -13    1    4    4    0    0  0.36303481889E+01  0.48766992110E+01  0.87926975872E+01  0.10690384374E+02  0.10566000000E+00 0.  1.
         14    1    4    4    0    0  0.88688610070E+01  0.88199703743E+01  0.18068682499E+02  0.21975574173E+02  0.00000000000E+00 0. -1.
<mgrwt>
<rscale>  0 0.81198637E+02</rscale>
<asrwt>0</asrwt>
<pdfrwt beam="1">  1        2 0.15737318E-01 0.81198637E+02</pdfrwt>
<pdfrwt beam="2">  1       -1 0.24790201E-02 0.81198637E+02</pdfrwt>
<totfact> 0.17142213E+05</totfact>
</mgrwt>
</event>
<event>
 8    1  0.1520917E-013  0.7971994E+02  0.7818608E-02  0.1329848E+00
          2   -1    0    0  501    0  0.00000000000E+00  0.00000000000E+00  0.52020996918E+02  0.52020996981E+02  0.25500000000E-02 0. -1.
         -1   -1    0    0    0  501 -0.00000000000E+00 -0.00000000000E+00 -0.30541847295E+02  0.30541847711E+02  0.50400000000E-02 0.  1.
         24    2    1    2    0    0  0.17763568394E-14 -0.35527136788E-14  0.21479149623E+02  0.82562844692E+02  0.79719943898E+02 0.  0.
         66    2    3    3    0    0 -0.14497805552E+02 -0.29661674167E+02  0.33830435308E+02  0.47312785085E+02  0.19999997873E+01 0.  0.
        -13    1    3    3    0    0  0.14497805552E+02  0.29661674167E+02 -0.12351285685E+02  0.35250059607E+02  0.10566000000E+00 0.  1.
         13    1    4    4    0    0 -0.65476627820E+01 -0.11992452002E+02  0.13607742063E+02  0.19283998575E+02  0.10566000000E+00 0. -1.
        -13    1    4    4    0    0 -0.24427283831E+01 -0.59624805027E+01  0.60524485121E+01  0.88408932086E+01  0.10566000000E+00 0.  1.
         14    1    4    4    0    0 -0.55074143871E+01 -0.11706741662E+02  0.14170244733E+02  0.19187893301E+02  0.00000000000E+00 0. -1.
<mgrwt>
<rscale>  0 0.79719944E+02</rscale>
<asrwt>0</asrwt>
<pdfrwt beam="1">  1        2 0.80032303E-02 0.79719944E+02</pdfrwt>
<pdfrwt beam="2">  1       -1 0.46987458E-02 0.79719944E+02</pdfrwt>
<totfact> 0.15218467E+05</totfact>
</mgrwt>
</event>
<event>
 8    1  0.1520917E-013  0.7594940E+02  0.7818608E-02  0.1340956E+00
          2   -1    0    0  501    0  0.00000000000E+00  0.00000000000E+00  0.18580203380E+02  0.18580203555E+02  0.25500000000E-02 0. -1.
         -1   -1    0    0    0  501 -0.00000000000E+00 -0.00000000000E+00 -0.77613674304E+02  0.77613674468E+02  0.50400000000E-02 0.  1.
         24    2    1    2    0    0 -0.22204460493E-15  0.35527136788E-14 -0.59033470925E+02  0.96193878022E+02  0.75949400785E+02 0.  0.
         66    2    3    3    0    0 -0.82988039796E+00  0.16421173514E+02  0.13780591674E+02  0.21546423161E+02  0.20000007779E+01 0.  0.
        -13    1    3    3    0    0  0.82988039796E+00 -0.16421173514E+02 -0.72814062599E+02  0.74647454861E+02  0.10566000000E+00 0.  1.
         13    1    4    4    0    0 -0.86581008148E+00  0.59021542495E+01  0.44033202704E+01  0.74152171459E+01  0.10566000000E+00 0. -1.
        -13    1    4    4    0    0  0.46317905961E-01  0.10478523714E+02  0.94052579313E+01  0.14080896469E+02  0.10566000000E+00 0.  1.
        -14    1    4    4    0    0 -0.10388222440E-01  0.40495550592E-01 -0.27986527542E-01  0.50309546878E-01  0.00000000000E+00 0.  1.
<mgrwt>
<rscale>  0 0.75949401E+02</rscale>
<asrwt>0</asrwt>
<pdfrwt beam="1">  1        2 0.28584929E-02 0.75949401E+02</pdfrwt>
<pdfrwt beam="2">  1       -1 0.11940565E-01 0.75949401E+02</pdfrwt>
<totfact> 0.14198860E+05</totfact>
</mgrwt>
</event>
<event>
 8    1  0.1520917E-013  0.8676705E+02  0.7818608E-02  0.1310875E+00
         -1   -1    0    0    0  501 -0.00000000000E+00  0.00000000000E+00  0.18583430274E+02  0.18583430958E+02  0.50400000000E-02 0.  1.
          2   -1    0    0  501    0  0.00000000000E+00 -0.00000000000E+00 -0.10128003188E+03  0.10128003191E+03  0.25500000000E-02 0. -1.
         24    2    1    2    0    0  0.00000000000E+00  0.00000000000E+00 -0.82696601606E+02  0.11986346287E+03  0.86767054889E+02 0.  0.
         66    2    3    3    0    0  0.39981403958E+02  0.16420903150E+02 -0.46149009962E+02  0.63260491732E+02  0.19999927395E+01 0.  0.
        -13    1    3    3    0    0 -0.39981403958E+02 -0.16420903150E+02 -0.36547591644E+02  0.56602971139E+02  0.10566000000E+00 0.  1.
         13    1    4    4    0    0  0.16415113050E+02  0.64706066061E+01 -0.18557960375E+02  0.25607298640E+02  0.10566000000E+00 0. -1.
        -13    1    4    4    0    0  0.25768471980E+00  0.20164346593E+00 -0.24385174508E+00  0.42153198140E+00  0.10566000000E+00 0. -1.
         14    1    4    4    0    0  0.23308606188E+02  0.97486530783E+01 -0.27347197842E+02  0.37231661110E+02  0.00000000000E+00 0. -1.
<mgrwt>
<rscale>  0 0.86767055E+02</rscale>
<asrwt>0</asrwt>
<pdfrwt beam="1">  1        2 0.15581543E-01 0.86767055E+02</pdfrwt>
<pdfrwt beam="2">  1       -1 0.28589894E-02 0.86767055E+02</pdfrwt>
<totfact> 0.14297539E+05</totfact>
</mgrwt>
</event>
<event>
 8    1  0.1520917E-013  0.7653152E+02  0.7818608E-02  0.1339193E+00
          2   -1    0    0  501    0  0.00000000000E+00  0.00000000000E+00  0.15358667867E+04  0.15358667867E+04  0.25500000000E-02 0. -1.
         -1   -1    0    0    0  501 -0.00000000000E+00 -0.00000000000E+00 -0.95337572209E+00  0.95338904392E+00  0.50400000000E-02 0.  1.
         24    2    1    2    0    0  0.00000000000E+00 -0.22204460493E-15  0.15349134110E+04  0.15368201758E+04  0.76531518868E+02 0.  0.
         66    2    3    3    0    0 -0.20558190965E+02 -0.10277538469E+01  0.14151222476E+04  0.14152733556E+04  0.20000001031E+01 0.  0.
        -13    1    3    3    0    0  0.20558190965E+02  0.10277538469E+01  0.11979116339E+03  0.12154682013E+03  0.10566000000E+00 0.  1.
         13    1    4    4    0    0 -0.31267315479E+01 -0.29173233373E+00  0.24620922195E+03  0.24622927059E+03  0.10566000000E+00 0. -1.
        -13    1    4    4    0    0 -0.59883688691E+01  0.30001612767E+00  0.42632947655E+03  0.42637165045E+03  0.10566000000E+00 0.  1.
         14    1    4    4    0    0 -0.11443090548E+02 -0.10360376409E+01  0.74258354909E+03  0.74267243457E+03  0.00000000000E+00 0. -1.
<mgrwt>
<rscale>  0 0.76531519E+02</rscale>
<asrwt>0</asrwt>
<pdfrwt beam="1">  1        2 0.23628775E+00 0.76531519E+02</pdfrwt>
<pdfrwt beam="2">  1       -1 0.14667387E-03 0.76531519E+02</pdfrwt>
<totfact> 0.36957153E+05</totfact>
</mgrwt>
</event>
<event>
 8    1  0.1520917E-013  0.7951064E+02  0.7818608E-02  0.1330446E+00
         -1   -1    0    0    0  501 -0.00000000000E+00  0.00000000000E+00  0.18631798699E+01  0.18631866866E+01  0.50400000000E-02 0.  1.
          2   -1    0    0  501    0  0.00000000000E+00 -0.00000000000E+00 -0.84827154435E+03  0.84827154435E+03  0.25500000000E-02 0. -1.
         24    2    1    2    0    0  0.00000000000E+00  0.00000000000E+00 -0.84640836448E+03  0.85013473104E+03  0.79510637397E+02 0.  0.
         66    2    3    3    0    0 -0.13806898534E+02 -0.99799146616E+01 -0.80723394967E+03  0.80741617437E+03  0.19999998776E+01 0.  0.
        -13    1    3    3    0    0  0.13806898534E+02  0.99799146616E+01 -0.39174414808E+02  0.42718556663E+02  0.10566000000E+00 0.  1.
         13    1    4    4    0    0 -0.66895308539E+00 -0.14584147750E+00 -0.39996876185E+02  0.40002875354E+02  0.10566000000E+00 0. -1.
        -13    1    4    4    0    0 -0.10751350643E+02 -0.78892570016E+01 -0.64077487783E+03  0.64091363469E+03  0.10566000000E+00 0.  1.
        -14    1    4    4    0    0 -0.23865948051E+01 -0.19448161825E+01 -0.12646219566E+03  0.12649966433E+03  0.00000000000E+00 0.  1.
<mgrwt>
<rscale>  0 0.79510637E+02</rscale>
<asrwt>0</asrwt>
<pdfrwt beam="1">  1        2 0.13050301E+00 0.79510637E+02</pdfrwt>
<pdfrwt beam="2">  1       -1 0.28664426E-03 0.79510637E+02</pdfrwt>
<totfact> 0.35242190E+05</totfact>
</mgrwt>
</event>
<event>
 8    1  0.1520917E-013  0.8049959E+02  0.7818608E-02  0.1327640E+00
         -1   -1    0    0    0  501 -0.00000000000E+00  0.00000000000E+00  0.43076347455E+01  0.43076376940E+01  0.50400000000E-02 0.  1.
          2   -1    0    0  501    0  0.00000000000E+00 -0.00000000000E+00 -0.37608701413E+03  0.37608701414E+03  0.25500000000E-02 0. -1.
         24    2    1    2    0    0  0.00000000000E+00 -0.17763568394E-14 -0.37177937939E+03  0.38039465183E+03  0.80499591349E+02 0.  0.
         66    2    3    3    0    0  0.35769480641E+02 -0.11480688132E+02 -0.25395483853E+03  0.25672616135E+03  0.19999915538E+01 0.  0.
        -13    1    3    3    0    0 -0.35769480641E+02  0.11480688132E+02 -0.11782454086E+03  0.12366849048E+03  0.10566000000E+00 0.  1.
         13    1    4    4    0    0  0.17495788694E+02 -0.64371231680E+01 -0.12692942068E+03  0.12829118510E+03  0.10566000000E+00 0. -1.
        -13    1    4    4    0    0  0.57725675307E+01 -0.13871509887E+01 -0.37585002960E+02  0.38051154191E+02  0.10566000000E+00 0.  1.
        -14    1    4    4    0    0  0.12501124417E+02 -0.36564139750E+01 -0.89440414892E+02  0.90383822064E+02  0.00000000000E+00 0.  1.
<mgrwt>
<rscale>  0 0.80499591E+02</rscale>
<asrwt>0</asrwt>
<pdfrwt beam="1">  1        2 0.57859515E-01 0.80499591E+02</pdfrwt>
<pdfrwt beam="2">  1       -1 0.66271356E-03 0.80499591E+02</pdfrwt>
<totfact> 0.27200299E+05</totfact>
</mgrwt>
</event>
<event>
 8    1  0.1520917E-013  0.7936339E+02  0.7818608E-02  0.1330868E+00
         -1   -1    0    0    0  501 -0.00000000000E+00  0.00000000000E+00  0.30595084717E+01  0.30595126229E+01  0.50400000000E-02 0.  1.
          2   -1    0    0  501    0  0.00000000000E+00 -0.00000000000E+00 -0.51466960804E+03  0.51466960805E+03  0.25500000000E-02 0. -1.
         24    2    1    2    0    0 -0.11102230246E-15  0.35527136788E-14 -0.51161009957E+03  0.51772912067E+03  0.79363394639E+02 0.  0.
         66    2    3    3    0    0  0.69217750006E+00 -0.21081976915E+02 -0.47503547268E+03  0.47550775930E+03  0.19999960573E+01 0.  0.
        -13    1    3    3    0    0 -0.69217750006E+00  0.21081976915E+02 -0.36574626888E+02  0.42221361375E+02  0.10566000000E+00 0.  1.
         13    1    4    4    0    0  0.46524764257E+00 -0.12759673472E+02 -0.27923688324E+03  0.27952866374E+03  0.10566000000E+00 0. -1.
        -13    1    4    4    0    0  0.17139233747E+00 -0.57743699357E+01 -0.12244282934E+03  0.12257907792E+03  0.10566000000E+00 0.  1.
        -14    1    4    4    0    0  0.55537520027E-01 -0.25479335068E+01 -0.73355760101E+02  0.73400017640E+02  0.00000000000E+00 0.  1.
<mgrwt>
<rscale>  0 0.79363395E+02</rscale>
<asrwt>0</asrwt>
<pdfrwt beam="1">  1        2 0.79179871E-01 0.79363395E+02</pdfrwt>
<pdfrwt beam="2">  1       -1 0.47069434E-03 0.79363395E+02</pdfrwt>
<totfact> 0.31376982E+05</totfact>
</mgrwt>
</event>
<event>
 8    1  0.1520917E-013  0.7934026E+02  0.7818608E-02  0.1330934E+00
         -1   -1    0    0    0  501 -0.00000000000E+00  0.00000000000E+00  0.62942362732E+01  0.62942382911E+01  0.50400000000E-02 0.  1.
          2   -1    0    0  501    0  0.00000000000E+00 -0.00000000000E+00 -0.25002539769E+03  0.25002539771E+03  0.25500000000E-02 0. -1.
         24    2    1    2    0    0  0.00000000000E+00  0.00000000000E+00 -0.24373116142E+03  0.25631963600E+03  0.79340259331E+02 0.  0.
         66    2    3    3    0    0 -0.13325281821E+02 -0.30803095699E+02 -0.19011770970E+03  0.19306770157E+03  0.20000012096E+01 0.  0.
        -13    1    3    3    0    0  0.13325281821E+02  0.30803095699E+02 -0.53613451715E+02  0.63251934430E+02  0.10566000000E+00 0.  1.
         13    1    4    4    0    0 -0.16562612350E+01 -0.26487895857E+01 -0.19104239720E+02  0.19358265079E+02  0.10566000000E+00 0. -1.
        -13    1    4    4    0    0 -0.29017386925E+01 -0.75384389031E+01 -0.46644342877E+02  0.47338716026E+02  0.10566000000E+00 0. -1.
         14    1    4    4    0    0 -0.87672818937E+01 -0.20615867210E+02 -0.12436912711E+03  0.12637072046E+03  0.00000000000E+00 0. -1.
<mgrwt>
<rscale>  0 0.79340259E+02</rscale>
<asrwt>0</asrwt>
<pdfrwt beam="1">  1        2 0.38465438E-01 0.79340259E+02</pdfrwt>
<pdfrwt beam="2">  1       -1 0.96834439E-03 0.79340259E+02</pdfrwt>
<totfact> 0.24394354E+05</totfact>
</mgrwt>
</event>
<event>
 8    1  0.1740128E-013  0.7964785E+02  0.7818608E-02  0.1330054E+00
         -1   -1    0    0    0  501 -0.00000000000E+00  0.00000000000E+00  0.61392957706E+01  0.61392978394E+01  0.50400000000E-02 0.  1.
          2   -1    0    0  501    0  0.00000000000E+00 -0.00000000000E+00 -0.25832682813E+03  0.25832682814E+03  0.25500000000E-02 0. -1.
         24    2    1    2    0    0  0.00000000000E+00 -0.17763568394E-14 -0.25218753236E+03  0.26446612598E+03  0.79647851913E+02 0.  0.
         66    2    3    3    0    0  0.27457951377E+02 -0.91794641001E+01 -0.21684840519E+03  0.21878170054E+03  0.20000004462E+01 0.  0.
        -13    1    3    3    0    0 -0.27457951377E+02  0.91794641001E+01 -0.35339127167E+02  0.45684425442E+02  0.10566000000E+00 0.  1.
         13    1    4    4    0    0  0.79062391077E+01 -0.23281480984E+01 -0.63630140848E+02  0.64161786749E+02  0.10566000000E+00 0. -1.
        -13    1    4    4    0    0  0.87640622271E+00 -0.51724711264E+00 -0.95202840601E+01  0.95751033970E+01  0.10566000000E+00 0. -1.
        -14    1    4    4    0    0  0.18675306047E+02 -0.63340688891E+01 -0.14369798028E+03  0.14504481039E+03  0.00000000000E+00 0.  1.
<mgrwt>
<rscale>  0 0.79647852E+02</rscale>
<asrwt>0</asrwt>
<pdfrwt beam="1">  1        2 0.39742580E-01 0.79647852E+02</pdfrwt>
<pdfrwt beam="2">  1       -1 0.94450741E-03 0.79647852E+02</pdfrwt>
<totfact> 0.24432386E+05</totfact>
</mgrwt>
</event>
<event>
 8    1  0.1520917E-013  0.7755895E+02  0.7818608E-02  0.1336125E+00
         -1   -1    0    0    0  501 -0.00000000000E+00  0.00000000000E+00  0.33781037241E+01  0.33781074839E+01  0.50400000000E-02 0.  1.
          2   -1    0    0  501    0  0.00000000000E+00 -0.00000000000E+00 -0.44517483143E+03  0.44517483144E+03  0.25500000000E-02 0. -1.
         24    2    1    2    0    0  0.00000000000E+00 -0.17763568394E-14 -0.44179672771E+03  0.44855293892E+03  0.77558947925E+02 0.  0.
         66    2    3    3    0    0 -0.33662496760E+02 -0.15469039609E+02 -0.28683008520E+03  0.28921955784E+03  0.19999960628E+01 0.  0.
        -13    1    3    3    0    0  0.33662496760E+02  0.15469039609E+02 -0.15496664251E+03  0.15933338109E+03  0.10566000000E+00 0.  1.
         13    1    4    4    0    0 -0.11485165100E+02 -0.52429202120E+01 -0.10181102916E+03  0.10259090628E+03  0.10566000000E+00 0. -1.
        -13    1    4    4    0    0 -0.55281706109E+01 -0.30968752365E+01 -0.45720014536E+02  0.46157146789E+02  0.10566000000E+00 0.  1.
        -14    1    4    4    0    0 -0.16649161050E+02 -0.71292441608E+01 -0.13929904151E+03  0.14047150476E+03  0.00000000000E+00 0.  1.
<mgrwt>
<rscale>  0 0.77558948E+02</rscale>
<asrwt>0</asrwt>
<pdfrwt beam="1">  1        2 0.68488389E-01 0.77558948E+02</pdfrwt>
<pdfrwt beam="2">  1       -1 0.51970891E-03 0.77558948E+02</pdfrwt>
<totfact> 0.31776542E+05</totfact>
</mgrwt>
</event>
<event>
 8    1  0.1520917E-013  0.7913270E+02  0.7818608E-02  0.1331531E+00
          2   -1    0    0  501    0  0.00000000000E+00  0.00000000000E+00  0.29839392153E+03  0.29839392154E+03  0.25500000000E-02 0. -1.
         -1   -1    0    0    0  501 -0.00000000000E+00 -0.00000000000E+00 -0.52464057445E+01  0.52464081654E+01  0.50400000000E-02 0.  1.
         24    2    1    2    0    0  0.00000000000E+00  0.00000000000E+00  0.29314751578E+03  0.30364032970E+03  0.79132697495E+02 0.  0.
         66    2    3    3    0    0  0.22956211492E+02  0.18331115820E+02  0.24822166712E+03  0.24996202407E+03  0.19999994086E+01 0.  0.
        -13    1    3    3    0    0 -0.22956211492E+02 -0.18331115820E+02  0.44925848665E+02  0.53678305633E+02  0.10566000000E+00 0.  1.
         13    1    4    4    0    0  0.11146474764E+02  0.96972369697E+01  0.12958706685E+03  0.13042660527E+03  0.10566000000E+00 0. -1.
        -13    1    4    4    0    0  0.14323332304E+01  0.10616450767E+01  0.12795318726E+02  0.12919365855E+02  0.10566000000E+00 0.  1.
         14    1    4    4    0    0  0.10377403498E+02  0.75722337735E+01  0.10583928154E+03  0.10661605294E+03  0.00000000000E+00 0. -1.
<mgrwt>
<rscale>  0 0.79132697E+02</rscale>
<asrwt>0</asrwt>
<pdfrwt beam="1">  1        2 0.45906761E-01 0.79132697E+02</pdfrwt>
<pdfrwt beam="2">  1       -1 0.80713947E-03 0.79132697E+02</pdfrwt>
<totfact> 0.26182313E+05</totfact>
</mgrwt>
</event>
<event>
 8    1  0.1520917E-013  0.7965820E+02  0.7818608E-02  0.1330024E+00
         -1   -1    0    0    0  501 -0.00000000000E+00  0.00000000000E+00  0.38466754747E+02  0.38466755077E+02  0.50400000000E-02 0.  1.
          2   -1    0    0  501    0  0.00000000000E+00 -0.00000000000E+00 -0.41239690297E+02  0.41239690376E+02  0.25500000000E-02 0. -1.
         24    2    1    2    0    0  0.35527136788E-14  0.00000000000E+00 -0.27729355499E+01  0.79706445453E+02  0.79658196535E+02 0.  0.
         66    2    3    3    0    0 -0.21331200123E+02 -0.20256483145E+02  0.25443206183E+02  0.38944857820E+02  0.20000004130E+01 0.  0.
        -13    1    3    3    0    0  0.21331200123E+02  0.20256483145E+02 -0.28216141733E+02  0.40761587634E+02  0.10566000000E+00 0.  1.
         13    1    4    4    0    0 -0.10883281799E+02 -0.96393713283E+01  0.12678304799E+02  0.19290253470E+02  0.10566000000E+00 0. -1.
        -13    1    4    4    0    0 -0.69499001617E+01 -0.67190046287E+01  0.89590256102E+01  0.13180342916E+02  0.10566000000E+00 0.  1.
        -14    1    4    4    0    0 -0.34980181618E+01 -0.38981071881E+01  0.38058757739E+01  0.64742614341E+01  0.00000000000E+00 0.  1.
<mgrwt>
<rscale>  0 0.79658197E+02</rscale>
<asrwt>0</asrwt>
<pdfrwt beam="1">  1        2 0.63445677E-02 0.79658197E+02</pdfrwt>
<pdfrwt beam="2">  1       -1 0.59179623E-02 0.79658197E+02</pdfrwt>
<totfact> 0.14515738E+05</totfact>
</mgrwt>
</event>
<event>
 8    1  0.1520917E-013  0.8076486E+02  0.7818608E-02  0.1326895E+00
         -1   -1    0    0    0  501 -0.00000000000E+00  0.00000000000E+00  0.38877657928E+01  0.38877690597E+01  0.50400000000E-02 0.  1.
          2   -1    0    0  501    0  0.00000000000E+00 -0.00000000000E+00 -0.41945426165E+03  0.41945426165E+03  0.25500000000E-02 0. -1.
         24    2    1    2    0    0  0.11102230246E-15  0.71054273576E-14 -0.41556649585E+03  0.42334203071E+03  0.80764859270E+02 0.  0.
         66    2    3    3    0    0  0.22172906517E+00  0.39746283482E+02 -0.24457176295E+03  0.24778854582E+03  0.19999978896E+01 0.  0.
        -13    1    3    3    0    0 -0.22172906517E+00 -0.39746283482E+02 -0.17099473290E+03  0.17555348489E+03  0.10566000000E+00 0.  1.
         13    1    4    4    0    0 -0.20795828821E+00  0.54345186311E+01 -0.32852148013E+02  0.33299429912E+02  0.10566000000E+00 0. -1.
        -13    1    4    4    0    0 -0.34157338357E+00  0.27297974307E+02 -0.16862931283E+03  0.17082491734E+03  0.10566000000E+00 0.  1.
        -14    1    4    4    0    0  0.77126073696E+00  0.70137905433E+01 -0.43090302107E+02  0.43664198568E+02  0.00000000000E+00 0.  1.
<mgrwt>
<rscale>  0 0.80764859E+02</rscale>
<asrwt>0</asrwt>
<pdfrwt beam="1">  1        2 0.64531389E-01 0.80764859E+02</pdfrwt>
<pdfrwt beam="2">  1       -1 0.59811840E-03 0.80764859E+02</pdfrwt>
<totfact> 0.28018114E+05</totfact>
</mgrwt>
</event>
<event>
 8    1  0.1520917E-013  0.8275639E+02  0.7818608E-02  0.1321406E+00
          2   -1    0    0  501    0  0.00000000000E+00  0.00000000000E+00  0.18022955163E+02  0.18022955344E+02  0.25500000000E-02 0. -1.
         -1   -1    0    0    0  501 -0.00000000000E+00 -0.00000000000E+00 -0.94998567989E+02  0.94998568123E+02  0.50400000000E-02 0.  1.
         24    2    1    2    0    0  0.71054273576E-14  0.00000000000E+00 -0.76975612826E+02  0.11302152347E+03  0.82756388254E+02 0.  0.
         66    2    3    3    0    0 -0.38238182265E+02  0.12707097640E+02 -0.51213637259E+02  0.65195594699E+02  0.20000033635E+01 0.  0.
        -13    1    3    3    0    0  0.38238182265E+02 -0.12707097640E+02 -0.25761975567E+02  0.47825928768E+02  0.10566000000E+00 0.  1.
         13    1    4    4    0    0 -0.19244044355E+02  0.69323311715E+01 -0.26289605780E+02  0.33309833303E+02  0.10566000000E+00 0. -1.
        -13    1    4    4    0    0 -0.49008633693E+01  0.19586945535E+01 -0.70074957503E+01  0.87733178925E+01  0.10566000000E+00 0.  1.
        -14    1    4    4    0    0 -0.14093274540E+02  0.38160719155E+01 -0.17916535729E+02  0.23112443503E+02  0.00000000000E+00 0.  1.
<mgrwt>
<rscale>  0 0.82756388E+02</rscale>
<asrwt>0</asrwt>
<pdfrwt beam="1">  1        2 0.27727624E-02 0.82756388E+02</pdfrwt>
<pdfrwt beam="2">  1       -1 0.14615164E-01 0.82756388E+02</pdfrwt>
<totfact> 0.11014982E+05</totfact>
</mgrwt>
</event>
<event>
 8    1  0.1520917E-013  0.8001156E+02  0.7818608E-02  0.1329019E+00
         -1   -1    0    0    0  501 -0.00000000000E+00  0.00000000000E+00  0.10657816462E+02  0.10657817654E+02  0.50400000000E-02 0.  1.
          2   -1    0    0  501    0  0.00000000000E+00 -0.00000000000E+00 -0.15016794739E+03  0.15016794741E+03  0.25500000000E-02 0. -1.
         24    2    1    2    0    0 -0.71054273576E-14  0.00000000000E+00 -0.13951013093E+03  0.16082576506E+03  0.80011562148E+02 0.  0.
         66    2    3    3    0    0 -0.36414420392E+02  0.53451495634E+01 -0.38408751460E+02  0.53233568645E+02  0.20000013927E+01 0.  0.
        -13    1    3    3    0    0  0.36414420392E+02 -0.53451495634E+01 -0.10110137947E+03  0.10759219642E+03  0.10566000000E+00 0.  1.
         13    1    4    4    0    0 -0.30708996086E+01  0.26693193583E+00 -0.32589692711E+01  0.44870616009E+01  0.10566000000E+00 0. -1.
        -13    1    4    4    0    0 -0.10709115702E+02  0.13740074523E+01 -0.12394276392E+02  0.16437831576E+02  0.10566000000E+00 0.  1.
         14    1    4    4    0    0 -0.22634405081E+02  0.37042101753E+01 -0.22755505797E+02  0.32308675468E+02  0.00000000000E+00 0. -1.
<mgrwt>
<rscale>  0 0.80011562E+02</rscale>
<asrwt>0</asrwt>
<pdfrwt beam="1">  1        2 0.23102760E-01 0.80011562E+02</pdfrwt>
<pdfrwt beam="2">  1       -1 0.16396643E-02 0.80011562E+02</pdfrwt>
<totfact> 0.20029554E+05</totfact>
</mgrwt>
</event>
<event>
 8    1  0.1520917E-013  0.8003518E+02  0.7818608E-02  0.1328952E+00
         -1   -1    0    0    0  501 -0.00000000000E+00  0.00000000000E+00  0.75307794187E+02  0.75307794356E+02  0.50400000000E-02 0.  1.
          2   -1    0    0  501    0  0.00000000000E+00 -0.00000000000E+00 -0.21264832740E+02  0.21264832893E+02  0.25500000000E-02 0. -1.
         24    2    1    2    0    0  0.71054273576E-14  0.00000000000E+00  0.54042961447E+02  0.96572627249E+02  0.80035183837E+02 0.  0.
         66    2    3    3    0    0 -0.31426512148E+02  0.13116790363E+02  0.17357396499E+01  0.34156824191E+02  0.19999978609E+01 0.  0.
        -13    1    3    3    0    0  0.31426512148E+02 -0.13116790363E+02  0.52307221797E+02  0.62415803058E+02  0.10566000000E+00 0.  1.
         13    1    4    4    0    0 -0.21781814779E+02  0.94033684432E+01  0.10478160059E+01  0.23748260474E+02  0.10566000000E+00 0. -1.
        -13    1    4    4    0    0 -0.44939644061E+00  0.24985701787E+00 -0.15271628903E+00  0.54669186087E+00  0.10566000000E+00 0.  1.
         14    1    4    4    0    0 -0.91953009288E+01  0.34635649019E+01  0.84063993299E+00  0.98618718557E+01  0.00000000000E+00 0. -1.
<mgrwt>
<rscale>  0 0.80035184E+02</rscale>
<asrwt>0</asrwt>
<pdfrwt beam="1">  1        2 0.32715127E-02 0.80035184E+02</pdfrwt>
<pdfrwt beam="2">  1       -1 0.11585815E-01 0.80035184E+02</pdfrwt>
<totfact> 0.12554124E+05</totfact>
</mgrwt>
</event>
<event>
 8    1  0.1520917E-013  0.8032955E+02  0.7818608E-02  0.1328119E+00
         -1   -1    0    0    0  501 -0.00000000000E+00  0.00000000000E+00  0.75330306328E+02  0.75330306496E+02  0.50400000000E-02 0.  1.
          2   -1    0    0  501    0  0.00000000000E+00 -0.00000000000E+00 -0.21415138674E+02  0.21415138826E+02  0.25500000000E-02 0. -1.
         24    2    1    2    0    0 -0.17763568394E-14  0.71054273576E-14  0.53915167654E+02  0.96745445322E+02  0.80329545545E+02 0.  0.
         66    2    3    3    0    0  0.10128434165E+02 -0.35011412143E+02  0.67202777893E+01  0.37115310724E+02  0.19999994177E+01 0.  0.
        -13    1    3    3    0    0 -0.10128434165E+02  0.35011412143E+02  0.47194889864E+02  0.59630134598E+02  0.10566000000E+00 0.  1.
         13    1    4    4    0    0  0.54010453801E+01 -0.15888627963E+02  0.36577625114E+01  0.17175860396E+02  0.10566000000E+00 0. -1.
        -13    1    4    4    0    0  0.83994276321E+00 -0.36550520705E+01  0.46409253487E+00  0.37804041318E+01  0.10566000000E+00 0.  1.
         14    1    4    4    0    0  0.38874460215E+01 -0.15467732110E+02  0.25984227431E+01  0.16159046195E+02  0.00000000000E+00 0. -1.
<mgrwt>
<rscale>  0 0.80329546E+02</rscale>
<asrwt>0</asrwt>
<pdfrwt beam="1">  1        2 0.32946368E-02 0.80329546E+02</pdfrwt>
<pdfrwt beam="2">  1       -1 0.11589278E-01 0.80329546E+02</pdfrwt>
<totfact> 0.12440525E+05</totfact>
</mgrwt>
</event>
<event>
 8    1  0.1520917E-013  0.7973351E+02  0.7818608E-02  0.1329809E+00
          2   -1    0    0  501    0  0.00000000000E+00  0.00000000000E+00  0.11010474626E+03  0.11010474629E+03  0.25500000000E-02 0. -1.
         -1   -1    0    0    0  501 -0.00000000000E+00 -0.00000000000E+00 -0.14434963776E+02  0.14434964656E+02  0.50400000000E-02 0.  1.
         24    2    1    2    0    0  0.00000000000E+00  0.35527136788E-14  0.95669782488E+02  0.12453971095E+03  0.79733508150E+02 0.  0.
         66    2    3    3    0    0 -0.22505520405E+02 -0.26201756024E+02  0.78881408335E+02  0.86135399496E+02  0.19999995252E+01 0.  0.
        -13    1    3    3    0    0  0.22505520405E+02  0.26201756024E+02  0.16788374154E+02  0.38404311453E+02  0.10566000000E+00 0.  1.
         13    1    4    4    0    0 -0.63975433849E+01 -0.69269023969E+01  0.20786780962E+02  0.22825686517E+02  0.10566000000E+00 0. -1.
        -13    1    4    4    0    0 -0.18773981670E+01 -0.18195016232E+01  0.52370608582E+01  0.58543300643E+01  0.10566000000E+00 0.  1.
         14    1    4    4    0    0 -0.14230578853E+02 -0.17455352003E+02  0.52857566515E+02  0.57455382915E+02  0.00000000000E+00 0. -1.
<mgrwt>
<rscale>  0 0.79733508E+02</rscale>
<asrwt>0</asrwt>
<pdfrwt beam="1">  1        2 0.16939191E-01 0.79733508E+02</pdfrwt>
<pdfrwt beam="2">  1       -1 0.22207638E-02 0.79733508E+02</pdfrwt>
<totfact> 0.18381957E+05</totfact>
</mgrwt>
</event>
<event>
 8    1  0.1520917E-013  0.7511288E+02  0.7818608E-02  0.1343522E+00
          2   -1    0    0  501    0  0.00000000000E+00  0.00000000000E+00  0.85963558500E+01  0.85963562282E+01  0.25500000000E-02 0. -1.
         -1   -1    0    0    0  501 -0.00000000000E+00 -0.00000000000E+00 -0.16407952364E+03  0.16407952371E+03  0.50400000000E-02 0.  1.
         24    2    1    2    0    0  0.00000000000E+00  0.00000000000E+00 -0.15548316779E+03  0.17267587994E+03  0.75112875386E+02 0.  0.
         66    2    3    3    0    0  0.34801714836E+02 -0.12990375252E+02 -0.65508379970E+02  0.75334301922E+02  0.19999987693E+01 0.  0.
        -13    1    3    3    0    0 -0.34801714836E+02  0.12990375252E+02 -0.89974787816E+02  0.97341578019E+02  0.10566000000E+00 0.  1.
         13    1    4    4    0    0  0.10915106800E+02 -0.45780031715E+01 -0.19476008281E+02  0.22790869489E+02  0.10566000000E+00 0. -1.
        -13    1    4    4    0    0  0.88193274197E+01 -0.31645433069E+01 -0.17709309827E+02  0.20035610524E+02  0.10566000000E+00 0.  1.
        -14    1    4    4    0    0  0.15067280616E+02 -0.52478287732E+01 -0.28323061862E+02  0.32507821909E+02  0.00000000000E+00 0.  1.
<mgrwt>
<rscale>  0 0.75112875E+02</rscale>
<asrwt>0</asrwt>
<pdfrwt beam="1">  1        2 0.13225164E-02 0.75112875E+02</pdfrwt>
<pdfrwt beam="2">  1       -1 0.25243002E-01 0.75112875E+02</pdfrwt>
<totfact> 0.12360032E+05</totfact>
</mgrwt>
</event>
<event>
 8    1  0.1520917E-013  0.8215385E+02  0.7818608E-02  0.1323048E+00
          2   -1    0    0  501    0  0.00000000000E+00  0.00000000000E+00  0.38719122885E+02  0.38719122969E+02  0.25500000000E-02 0. -1.
         -1   -1    0    0    0  501 -0.00000000000E+00 -0.00000000000E+00 -0.43578305602E+02  0.43578305893E+02  0.50400000000E-02 0.  1.
         24    2    1    2    0    0  0.00000000000E+00  0.00000000000E+00 -0.48591827169E+01  0.82297428862E+02  0.82153850431E+02 0.  0.
         66    2    3    3    0    0 -0.38815340278E+02 -0.37505516062E+01 -0.15283552116E+02  0.41931900009E+02  0.19999986996E+01 0.  0.
        -13    1    3    3    0    0  0.38815340278E+02  0.37505516062E+01  0.10424369399E+02  0.40365528854E+02  0.10566000000E+00 0.  1.
         13    1    4    4    0    0 -0.16206917671E+02 -0.18743525971E+01 -0.62863857631E+01  0.17484484209E+02  0.10566000000E+00 0. -1.
        -13    1    4    4    0    0 -0.26600908458E+01  0.18743663497E+00 -0.84935506190E+00  0.28006756072E+01  0.10566000000E+00 0.  1.
        -14    1    4    4    0    0 -0.19948331761E+02 -0.20636356441E+01 -0.81478112909E+01  0.21646740192E+02  0.00000000000E+00 0.  1.
<mgrwt>
<rscale>  0 0.82153850E+02</rscale>
<asrwt>0</asrwt>
<pdfrwt beam="1">  1        2 0.59567881E-02 0.82153850E+02</pdfrwt>
<pdfrwt beam="2">  1       -1 0.67043548E-02 0.82153850E+02</pdfrwt>
<totfact> 0.13154288E+05</totfact>
</mgrwt>
</event>
<event>
 8    1  0.1520917E-013  0.7981159E+02  0.7818608E-02  0.1329587E+00
         -1   -1    0    0    0  501 -0.00000000000E+00  0.00000000000E+00  0.12267154374E+03  0.12267154385E+03  0.50400000000E-02 0.  1.
          2   -1    0    0  501    0  0.00000000000E+00 -0.00000000000E+00 -0.12981596744E+02  0.12981596995E+02  0.25500000000E-02 0. -1.
         24    2    1    2    0    0  0.00000000000E+00  0.35527136788E-14  0.10968994700E+03  0.13565314084E+03  0.79811591561E+02 0.  0.
         66    2    3    3    0    0 -0.46246676598E+01 -0.28245719957E+02  0.76769156476E+01  0.29700896994E+02  0.20000003794E+01 0.  0.
        -13    1    3    3    0    0  0.46246676598E+01  0.28245719957E+02  0.10201303135E+03  0.10595224385E+03  0.10566000000E+00 0.  1.
         13    1    4    4    0    0 -0.91850616599E+00 -0.58978199994E+01  0.14431745539E+01  0.61418117157E+01  0.10566000000E+00 0. -1.
        -13    1    4    4    0    0 -0.35162653822E+01 -0.16616515779E+02  0.46380072999E+01  0.17606674718E+02  0.10566000000E+00 0.  1.
        -14    1    4    4    0    0 -0.18989611165E+00 -0.57313841784E+01  0.15957337938E+01  0.59524105599E+01  0.00000000000E+00 0.  1.
<mgrwt>
<rscale>  0 0.79811592E+02</rscale>
<asrwt>0</asrwt>
<pdfrwt beam="1">  1        2 0.19971687E-02 0.79811592E+02</pdfrwt>
<pdfrwt beam="2">  1       -1 0.18872545E-01 0.79811592E+02</pdfrwt>
<totfact> 0.11394184E+05</totfact>
</mgrwt>
</event>
<event>
 8    1  0.1520917E-013  0.8133500E+02  0.7818608E-02  0.1325305E+00
         -1   -1    0    0    0  501 -0.00000000000E+00  0.00000000000E+00  0.42296801254E+01  0.42296831281E+01  0.50400000000E-02 0.  1.
          2   -1    0    0  501    0  0.00000000000E+00 -0.00000000000E+00 -0.39100950123E+03  0.39100950124E+03  0.25500000000E-02 0. -1.
         24    2    1    2    0    0  0.00000000000E+00  0.00000000000E+00 -0.38677982111E+03  0.39523918437E+03  0.81335003811E+02 0.  0.
         66    2    3    3    0    0  0.33111893255E+01  0.21774602951E+02 -0.35949203013E+03  0.36017164940E+03  0.19999987403E+01 0.  0.
        -13    1    3    3    0    0 -0.33111893255E+01 -0.21774602951E+02 -0.27287790976E+02  0.35067534970E+02  0.10566000000E+00 0.  1.
         13    1    4    4    0    0  0.14138784604E-01  0.12012215160E+01 -0.23709365855E+02  0.23740015297E+02  0.10566000000E+00 0. -1.
        -13    1    4    4    0    0  0.41411665034E+00  0.50001219320E+01 -0.73298553159E+02  0.73470142039E+02  0.10566000000E+00 0.  1.
         14    1    4    4    0    0  0.28829338906E+01  0.15573259503E+02 -0.26248411112E+03  0.26296149206E+03  0.00000000000E+00 0. -1.
<mgrwt>
<rscale>  0 0.81335004E+02</rscale>
<asrwt>0</asrwt>
<pdfrwt beam="1">  1        2 0.60155280E-01 0.81335004E+02</pdfrwt>
<pdfrwt beam="2">  1       -1 0.65072056E-03 0.81335004E+02</pdfrwt>
<totfact> 0.26842153E+05</totfact>
</mgrwt>
</event>
<event>
 8    1  0.1520917E-013  0.8424186E+02  0.7818608E-02  0.1317427E+00
         -1   -1    0    0    0  501 -0.00000000000E+00  0.00000000000E+00  0.13200926425E+01  0.13201022636E+01  0.50400000000E-02 0.  1.
          2   -1    0    0  501    0  0.00000000000E+00 -0.00000000000E+00 -0.13439708900E+04  0.13439708900E+04  0.25500000000E-02 0. -1.
         24    2    1    2    0    0  0.00000000000E+00  0.00000000000E+00 -0.13426507973E+04  0.13452909922E+04  0.84241855553E+02 0.  0.
         66    2    3    3    0    0  0.50182010229E+01  0.23550879506E+02 -0.12231304552E+04  0.12233690926E+04  0.19999991469E+01 0.  0.
        -13    1    3    3    0    0 -0.50182010229E+01 -0.23550879506E+02 -0.11952034208E+03  0.12192189960E+03  0.10566000000E+00 0.  1.
         13    1    4    4    0    0  0.15173277738E+01  0.57302327445E+01 -0.28636184863E+03  0.28642321373E+03  0.10566000000E+00 0. -1.
        -13    1    4    4    0    0  0.41346676703E-01  0.95428989852E-01 -0.12266917830E+02  0.12267813714E+02  0.10566000000E+00 0. -1.
        -14    1    4    4    0    0  0.34595265724E+01  0.17725217772E+02 -0.92450168878E+03  0.92467806518E+03  0.00000000000E+00 0.  1.
<mgrwt>
<rscale>  0 0.84241856E+02</rscale>
<asrwt>0</asrwt>
<pdfrwt beam="1">  1        2 0.20676366E+00 0.84241856E+02</pdfrwt>
<pdfrwt beam="2">  1       -1 0.20309299E-03 0.84241856E+02</pdfrwt>
<totfact> 0.30045367E+05</totfact>
</mgrwt>
</event>
<event>
 8    1  0.1520917E-013  0.7826023E+02  0.7818608E-02  0.1334062E+00
         -1   -1    0    0    0  501 -0.00000000000E+00  0.00000000000E+00  0.21897238786E+02  0.21897239366E+02  0.50400000000E-02 0.  1.
          2   -1    0    0  501    0  0.00000000000E+00 -0.00000000000E+00 -0.69925069763E+02  0.69925069810E+02  0.25500000000E-02 0. -1.
         24    2    1    2    0    0  0.00000000000E+00  0.00000000000E+00 -0.48027830977E+02  0.91822309176E+02  0.78260232009E+02 0.  0.
         66    2    3    3    0    0 -0.15654626050E+02 -0.32266675364E+02 -0.42317729314E+02  0.55506719124E+02  0.19999994452E+01 0.  0.
        -13    1    3    3    0    0  0.15654626050E+02  0.32266675364E+02 -0.57101016627E+01  0.36315590052E+02  0.10566000000E+00 0.  1.
         13    1    4    4    0    0 -0.80599480179E+00 -0.27460403594E+01 -0.36182763523E+01  0.46144829692E+01  0.10566000000E+00 0. -1.
        -13    1    4    4    0    0 -0.43186529162E+01 -0.92145743164E+01 -0.11992796399E+02  0.15728873842E+02  0.10566000000E+00 0.  1.
        -14    1    4    4    0    0 -0.10529978332E+02 -0.20306060688E+02 -0.26706656563E+02  0.35163362313E+02  0.00000000000E+00 0.  1.
<mgrwt>
<rscale>  0 0.78260232E+02</rscale>
<asrwt>0</asrwt>
<pdfrwt beam="1">  1        2 0.10757703E-01 0.78260232E+02</pdfrwt>
<pdfrwt beam="2">  1       -1 0.33688061E-02 0.78260232E+02</pdfrwt>
<totfact> 0.17130762E+05</totfact>
</mgrwt>
</event>
<event>
 8    1  0.1520917E-013  0.7820550E+02  0.7818608E-02  0.1334222E+00
         -1   -1    0    0    0  501 -0.00000000000E+00  0.00000000000E+00  0.48977825590E+01  0.48977851522E+01  0.50400000000E-02 0.  1.
          2   -1    0    0  501    0  0.00000000000E+00 -0.00000000000E+00 -0.31218714939E+03  0.31218714940E+03  0.25500000000E-02 0. -1.
         24    2    1    2    0    0  0.00000000000E+00  0.00000000000E+00 -0.30728936683E+03  0.31708493456E+03  0.78205503342E+02 0.  0.
         66    2    3    3    0    0 -0.15394333067E+01 -0.17577085535E+02 -0.29511280885E+03  0.29564656897E+03  0.20000008594E+01 0.  0.
        -13    1    3    3    0    0  0.15394333067E+01  0.17577085535E+02 -0.12176557986E+02  0.21438365591E+02  0.10566000000E+00 0.  1.
         13    1    4    4    0    0  0.26710713913E+00 -0.33849467543E+01 -0.61560533143E+02  0.61654193820E+02  0.10566000000E+00 0. -1.
        -13    1    4    4    0    0 -0.85491749649E+00 -0.46105280953E+01 -0.70099424720E+02  0.70256162458E+02  0.10566000000E+00 0.  1.
         14    1    4    4    0    0 -0.95162294937E+00 -0.95816106852E+01 -0.16345285099E+03  0.16373621269E+03  0.00000000000E+00 0. -1.
<mgrwt>
<rscale>  0 0.78205503E+02</rscale>
<asrwt>0</asrwt>
<pdfrwt beam="1">  1        2 0.48028777E-01 0.78205503E+02</pdfrwt>
<pdfrwt beam="2">  1       -1 0.75350545E-03 0.78205503E+02</pdfrwt>
<totfact> 0.27446734E+05</totfact>
</mgrwt>
</event>
<event>
 8    1  0.1520917E-013  0.8592211E+02  0.7818608E-02  0.1313039E+00
         -1   -1    0    0    0  501 -0.00000000000E+00  0.00000000000E+00  0.35453985971E+03  0.35453985975E+03  0.50400000000E-02 0.  1.
          2   -1    0    0  501    0  0.00000000000E+00 -0.00000000000E+00 -0.52057678708E+01  0.52057684954E+01  0.25500000000E-02 0. -1.
         24    2    1    2    0    0  0.00000000000E+00  0.00000000000E+00  0.34933409184E+03  0.35974562824E+03  0.85922111925E+02 0.  0.
         66    2    3    3    0    0  0.19691345553E+02 -0.34767742391E+02  0.10894580081E+03  0.11605917678E+03  0.19999996698E+01 0.  0.
        -13    1    3    3    0    0 -0.19691345553E+02  0.34767742391E+02  0.24038829103E+03  0.24368645147E+03  0.10566000000E+00 0.  1.
         13    1    4    4    0    0  0.68607370679E+01 -0.13295902182E+02  0.42083613413E+02  0.44664218452E+02  0.10566000000E+00 0. -1.
        -13    1    4    4    0    0  0.96975807821E+00 -0.19293635563E+01  0.51915136803E+01  0.56236867614E+01  0.10566000000E+00 0.  1.
         14    1    4    4    0    0  0.11860850407E+02 -0.19542476653E+02  0.61670673719E+02  0.65771271563E+02  0.00000000000E+00 0. -1.
<mgrwt>
<rscale>  0 0.85922112E+02</rscale>
<asrwt>0</asrwt>
<pdfrwt beam="1">  1        2 0.80088721E-03 0.85922112E+02</pdfrwt>
<pdfrwt beam="2">  1       -1 0.54544608E-01 0.85922112E+02</pdfrwt>
<totfact> 0.66892979E+04</totfact>
</mgrwt>
</event>
<event>
 8    1  0.1520917E-013  0.7956516E+02  0.7818608E-02  0.1330290E+00
         -1   -1    0    0    0  501 -0.00000000000E+00  0.00000000000E+00  0.36720492715E+02  0.36720493061E+02  0.50400000000E-02 0.  1.
          2   -1    0    0  501    0  0.00000000000E+00 -0.00000000000E+00 -0.43100008558E+02  0.43100008633E+02  0.25500000000E-02 0. -1.
         24    2    1    2    0    0 -0.71054273576E-14 -0.35527136788E-14 -0.63795158426E+01  0.79820501694E+02  0.79565157376E+02 0.  0.
         66    2    3    3    0    0 -0.35177082968E+02 -0.16086816690E+02 -0.12410151206E+02  0.40672161189E+02  0.20000013767E+01 0.  0.
        -13    1    3    3    0    0  0.35177082968E+02  0.16086816690E+02  0.60306353634E+01  0.39148340505E+02  0.10566000000E+00 0.  1.
         13    1    4    4    0    0 -0.10632019567E+02 -0.55097964774E+01 -0.35239657850E+01  0.12483076391E+02  0.10566000000E+00 0. -1.
        -13    1    4    4    0    0 -0.20675847340E+02 -0.84470165868E+01 -0.74031867493E+01  0.23530004049E+02  0.10566000000E+00 0.  1.
        -14    1    4    4    0    0 -0.38692160611E+01 -0.21300036262E+01 -0.14829986717E+01  0.46590807500E+01  0.00000000000E+00 0.  1.
<mgrwt>
<rscale>  0 0.79565157E+02</rscale>
<asrwt>0</asrwt>
<pdfrwt beam="1">  1        2 0.66307706E-02 0.79565157E+02</pdfrwt>
<pdfrwt beam="2">  1       -1 0.56493066E-02 0.79565157E+02</pdfrwt>
<totfact> 0.14696388E+05</totfact>
</mgrwt>
</event>
<event>
 8    1  0.1520917E-013  0.7959976E+02  0.7818608E-02  0.1330191E+00
          2   -1    0    0  501    0  0.00000000000E+00  0.00000000000E+00  0.10020105770E+04  0.10020105770E+04  0.25500000000E-02 0. -1.
         -1   -1    0    0    0  501 -0.00000000000E+00 -0.00000000000E+00 -0.15808479601E+01  0.15808559943E+01  0.50400000000E-02 0.  1.
         24    2    1    2    0    0  0.35527136788E-14  0.00000000000E+00  0.10004297290E+04  0.10035914330E+04  0.79599759039E+02 0.  0.
         66    2    3    3    0    0  0.17744952241E+02 -0.11847599534E+02  0.92374772453E+03  0.92399627030E+03  0.20000032569E+01 0.  0.
        -13    1    3    3    0    0 -0.17744952241E+02  0.11847599534E+02  0.76682004493E+02  0.79595162678E+02  0.10566000000E+00 0.  1.
         13    1    4    4    0    0  0.10079997509E+02 -0.65097691314E+01  0.51902483131E+03  0.51916352927E+03  0.10566000000E+00 0. -1.
        -13    1    4    4    0    0  0.32190567186E+01 -0.21699037428E+01  0.19599052915E+03  0.19602900165E+03  0.10566000000E+00 0.  1.
        -14    1    4    4    0    0  0.44458980126E+01 -0.31679266594E+01  0.20873236407E+03  0.20880373938E+03  0.00000000000E+00 0.  1.
<mgrwt>
<rscale>  0 0.79599759E+02</rscale>
<asrwt>0</asrwt>
<pdfrwt beam="1">  1        2 0.15415536E+00 0.79599759E+02</pdfrwt>
<pdfrwt beam="2">  1       -1 0.24320818E-03 0.79599759E+02</pdfrwt>
<totfact> 0.35695764E+05</totfact>
</mgrwt>
</event>
<event>
 8    1  0.1520917E-013  0.7797234E+02  0.7818608E-02  0.1334906E+00
          2   -1    0    0  501    0  0.00000000000E+00  0.00000000000E+00  0.67495399772E+03  0.67495399772E+03  0.25500000000E-02 0. -1.
         -1   -1    0    0    0  501 -0.00000000000E+00 -0.00000000000E+00 -0.22518861005E+01  0.22518917406E+01  0.50400000000E-02 0.  1.
         24    2    1    2    0    0  0.00000000000E+00  0.00000000000E+00  0.67270211162E+03  0.67720588946E+03  0.77972339642E+02 0.  0.
         66    2    3    3    0    0  0.16910104404E+02 -0.59017261936E+00  0.64137381085E+03  0.64160008196E+03  0.19999994734E+01 0.  0.
        -13    1    3    3    0    0 -0.16910104404E+02  0.59017261936E+00  0.31328300770E+02  0.35605807502E+02  0.10566000000E+00 0.  1.
         13    1    4    4    0    0  0.36829805482E+01 -0.47445325562E+00  0.12883409627E+03  0.12888764478E+03  0.10566000000E+00 0. -1.
        -13    1    4    4    0    0  0.19805312057E+01 -0.99052571910E-01  0.98432104342E+02  0.98452133774E+02  0.10566000000E+00 0.  1.
         14    1    4    4    0    0  0.11246592650E+02 -0.16666791833E-01  0.41410761023E+03  0.41426030341E+03  0.00000000000E+00 0. -1.
<mgrwt>
<rscale>  0 0.77972340E+02</rscale>
<asrwt>0</asrwt>
<pdfrwt beam="1">  1        2 0.10383924E+00 0.77972340E+02</pdfrwt>
<pdfrwt beam="2">  1       -1 0.34644391E-03 0.77972340E+02</pdfrwt>
<totfact> 0.35452379E+05</totfact>
</mgrwt>
</event>
<event>
 8    1  0.1520917E-013  0.7951230E+02  0.7818608E-02  0.1330441E+00
          2   -1    0    0  501    0  0.00000000000E+00  0.00000000000E+00  0.32556758955E+02  0.32556759055E+02  0.25500000000E-02 0. -1.
         -1   -1    0    0    0  501 -0.00000000000E+00 -0.00000000000E+00 -0.48547563706E+02  0.48547563967E+02  0.50400000000E-02 0.  1.
         24    2    1    2    0    0  0.35527136788E-14  0.17763568394E-14 -0.15990804751E+02  0.81104323022E+02  0.79512297013E+02 0.  0.
         66    2    3    3    0    0  0.31236848845E+02  0.88965358277E+01  0.15341296530E+02  0.35975609212E+02  0.20000008699E+01 0.  0.
        -13    1    3    3    0    0 -0.31236848845E+02 -0.88965358277E+01 -0.31332101281E+02  0.45128713810E+02  0.10566000000E+00 0.  1.
         13    1    4    4    0    0  0.28590415191E+02  0.81738829216E+01  0.14342506609E+02  0.33014282707E+02  0.10566000000E+00 0. -1.
        -13    1    4    4    0    0  0.24315198837E+01  0.61233510521E+00  0.10393557779E+01  0.27163703161E+01  0.10566000000E+00 0.  1.
         14    1    4    4    0    0  0.21491376987E+00  0.11031780086E+00 -0.40565856556E-01  0.24495618870E+00  0.00000000000E+00 0. -1.
<mgrwt>
<rscale>  0 0.79512297E+02</rscale>
<asrwt>0</asrwt>
<pdfrwt beam="1">  1        2 0.50087322E-02 0.79512297E+02</pdfrwt>
<pdfrwt beam="2">  1       -1 0.74688560E-02 0.79512297E+02</pdfrwt>
<totfact> 0.13910232E+05</totfact>
</mgrwt>
</event>
<event>
 8    1  0.1520917E-013  0.7949460E+02  0.7818608E-02  0.1330492E+00
          2   -1    0    0  501    0  0.00000000000E+00  0.00000000000E+00  0.10440359099E+04  0.10440359099E+04  0.25500000000E-02 0. -1.
         -1   -1    0    0    0  501 -0.00000000000E+00 -0.00000000000E+00 -0.15132079648E+01  0.15132163580E+01  0.50400000000E-02 0.  1.
         24    2    1    2    0    0  0.35527136788E-14 -0.17763568394E-14  0.10425227020E+04  0.10455491263E+04  0.79494599661E+02 0.  0.
         66    2    3    3    0    0  0.22816015747E+02 -0.11526255809E+02  0.92148075109E+03  0.92183740419E+03  0.20000002531E+01 0.  0.
        -13    1    3    3    0    0 -0.22816015747E+02  0.11526255809E+02  0.12104195087E+03  0.12371172209E+03  0.10566000000E+00 0.  1.
         13    1    4    4    0    0  0.74181271651E+01 -0.38592416018E+01  0.29117037364E+03  0.29129043927E+03  0.10566000000E+00 0. -1.
        -13    1    4    4    0    0  0.14615725869E+02 -0.70508896077E+01  0.58127722777E+03  0.58150370693E+03  0.10566000000E+00 0.  1.
        -14    1    4    4    0    0  0.78216271381E+00 -0.61612459955E+00  0.49033149671E+02  0.49043257994E+02  0.00000000000E+00 0.  1.
<mgrwt>
<rscale>  0 0.79494600E+02</rscale>
<asrwt>0</asrwt>
<pdfrwt beam="1">  1        2 0.16062091E+00 0.79494600E+02</pdfrwt>
<pdfrwt beam="2">  1       -1 0.23280187E-03 0.79494600E+02</pdfrwt>
<totfact> 0.35855966E+05</totfact>
</mgrwt>
</event>
<event>
 8    1  0.1520917E-013  0.7925883E+02  0.7818608E-02  0.1331168E+00
         -1   -1    0    0    0  501 -0.00000000000E+00  0.00000000000E+00  0.32363531978E+01  0.32363571222E+01  0.50400000000E-02 0.  1.
          2   -1    0    0  501    0  0.00000000000E+00 -0.00000000000E+00 -0.48526520141E+03  0.48526520142E+03  0.25500000000E-02 0. -1.
         24    2    1    2    0    0  0.00000000000E+00  0.71054273576E-14 -0.48202884821E+03  0.48850155854E+03  0.79258830336E+02 0.  0.
         66    2    3    3    0    0  0.14438969622E+02 -0.35573809956E+02 -0.30108410937E+03  0.30352861598E+03  0.20000019531E+01 0.  0.
        -13    1    3    3    0    0 -0.14438969622E+02  0.35573809956E+02 -0.18094473884E+03  0.18497294256E+03  0.10566000000E+00 0.  1.
         13    1    4    4    0    0  0.65806918147E+01 -0.16914418811E+02 -0.14626992338E+03  0.14739167113E+03  0.10566000000E+00 0. -1.
        -13    1    4    4    0    0  0.41148216214E+01 -0.10326953375E+02 -0.80802124972E+02  0.81563302330E+02  0.10566000000E+00 0.  1.
         14    1    4    4    0    0  0.37434561856E+01 -0.83324377706E+01 -0.74012061014E+02  0.74573642522E+02  0.00000000000E+00 0. -1.
<mgrwt>
<rscale>  0 0.79258830E+02</rscale>
<asrwt>0</asrwt>
<pdfrwt beam="1">  1        2 0.74656127E-01 0.79258830E+02</pdfrwt>
<pdfrwt beam="2">  1       -1 0.49790118E-03 0.79258830E+02</pdfrwt>
<totfact> 0.30900502E+05</totfact>
</mgrwt>
</event>
<event>
 8    1  0.1520917E-013  0.7723805E+02  0.7818608E-02  0.1337077E+00
          2   -1    0    0  501    0  0.00000000000E+00  0.00000000000E+00  0.71628516906E+03  0.71628516906E+03  0.25500000000E-02 0. -1.
         -1   -1    0    0    0  501 -0.00000000000E+00 -0.00000000000E+00 -0.20821693563E+01  0.20821754561E+01  0.50400000000E-02 0.  1.
         24    2    1    2    0    0  0.00000000000E+00  0.00000000000E+00  0.71420299970E+03  0.71836734452E+03  0.77238053366E+02 0.  0.
         66    2    3    3    0    0  0.26778862308E+02 -0.10887436798E+02  0.59515089723E+03  0.59585588378E+03  0.20000022493E+01 0.  0.
        -13    1    3    3    0    0 -0.26778862308E+02  0.10887436798E+02  0.11905210247E+03  0.12251146074E+03  0.10566000000E+00 0.  1.
         13    1    4    4    0    0  0.14707709145E+02 -0.61820525743E+01  0.31247706755E+03  0.31288410536E+03  0.10566000000E+00 0. -1.
        -13    1    4    4    0    0  0.15599297337E+01 -0.89452007426E+00  0.39359387093E+02  0.39400584555E+02  0.10566000000E+00 0.  1.
         14    1    4    4    0    0  0.10511223429E+02 -0.38108641495E+01  0.24331444259E+03  0.24357119386E+03  0.00000000000E+00 0. -1.
<mgrwt>
<rscale>  0 0.77238053E+02</rscale>
<asrwt>0</asrwt>
<pdfrwt beam="1">  1        2 0.11019774E+00 0.77238053E+02</pdfrwt>
<pdfrwt beam="2">  1       -1 0.32033414E-03 0.77238053E+02</pdfrwt>
<totfact> 0.36834143E+05</totfact>
</mgrwt>
</event>
<event>
 8    1  0.1520917E-013  0.8190178E+02  0.7818608E-02  0.1323739E+00
         -1   -1    0    0    0  501 -0.00000000000E+00  0.00000000000E+00  0.18765812913E+03  0.18765812919E+03  0.50400000000E-02 0.  1.
          2   -1    0    0  501    0  0.00000000000E+00 -0.00000000000E+00 -0.89363310438E+01  0.89363314076E+01  0.25500000000E-02 0. -1.
         24    2    1    2    0    0  0.17763568394E-14  0.00000000000E+00  0.17872179808E+03  0.19659446060E+03  0.81901775496E+02 0.  0.
         66    2    3    3    0    0 -0.12499486358E+02 -0.34712426052E+02  0.46894262088E+02  0.59701436338E+02  0.20000005955E+01 0.  0.
        -13    1    3    3    0    0  0.12499486358E+02  0.34712426052E+02  0.13182753599E+03  0.13689302426E+03  0.10566000000E+00 0.  1.
         13    1    4    4    0    0 -0.45913671687E+01 -0.10630584876E+02  0.15008095740E+02  0.18956373310E+02  0.10566000000E+00 0. -1.
        -13    1    4    4    0    0 -0.19745691878E+00 -0.88634144511E+00  0.96498317324E+00  0.13292655688E+01  0.10566000000E+00 0. -1.
        -14    1    4    4    0    0 -0.77106622701E+01 -0.23195499731E+02  0.30921183175E+02  0.39415797459E+02  0.00000000000E+00 0.  1.
<mgrwt>
<rscale>  0 0.81901775E+02</rscale>
<asrwt>0</asrwt>
<pdfrwt beam="1">  1        2 0.13748201E-02 0.81901775E+02</pdfrwt>
<pdfrwt beam="2">  1       -1 0.28870483E-01 0.81901775E+02</pdfrwt>
<totfact> 0.95617015E+04</totfact>
</mgrwt>
</event>
<event>
 8    1  0.1520917E-013  0.7981572E+02  0.7818608E-02  0.1329575E+00
         -1   -1    0    0    0  501 -0.00000000000E+00  0.00000000000E+00  0.59044186286E+02  0.59044186501E+02  0.50400000000E-02 0.  1.
          2   -1    0    0  501    0  0.00000000000E+00 -0.00000000000E+00 -0.26973650366E+02  0.26973650487E+02  0.25500000000E-02 0. -1.
         24    2    1    2    0    0 -0.35527136788E-14  0.00000000000E+00  0.32070535919E+02  0.86017836988E+02  0.79815719040E+02 0.  0.
         66    2    3    3    0    0  0.20681521281E+02 -0.45439208754E+01 -0.20378262978E+02  0.29455833759E+02  0.20000002571E+01 0.  0.
        -13    1    3    3    0    0 -0.20681521281E+02  0.45439208754E+01  0.52448798897E+02  0.56562003229E+02  0.10566000000E+00 0.  1.
         13    1    4    4    0    0  0.12965701702E+02 -0.30239306994E+01 -0.11939371633E+02  0.17883325656E+02  0.10566000000E+00 0. -1.
        -13    1    4    4    0    0  0.34824323965E+01 -0.39969970330E+00 -0.42798611282E+01  0.55331248460E+01  0.10566000000E+00 0.  1.
        -14    1    4    4    0    0  0.42333871826E+01 -0.11202904727E+01 -0.41590302163E+01  0.60393832567E+01  0.00000000000E+00 0.  1.
<mgrwt>
<rscale>  0 0.79815719E+02</rscale>
<asrwt>0</asrwt>
<pdfrwt beam="1">  1        2 0.41497924E-02 0.79815719E+02</pdfrwt>
<pdfrwt beam="2">  1       -1 0.90837209E-02 0.79815719E+02</pdfrwt>
<totfact> 0.13262211E+05</totfact>
</mgrwt>
</event>
<event>
 8    1  0.1520917E-013  0.7965727E+02  0.7818608E-02  0.1330027E+00
          2   -1    0    0  501    0  0.00000000000E+00  0.00000000000E+00  0.19900738882E+03  0.19900738883E+03  0.25500000000E-02 0. -1.
         -1   -1    0    0    0  501 -0.00000000000E+00 -0.00000000000E+00 -0.79711616194E+01  0.79711632128E+01  0.50400000000E-02 0.  1.
         24    2    1    2    0    0  0.00000000000E+00  0.00000000000E+00  0.19103622720E+03  0.20697855205E+03  0.79657271515E+02 0.  0.
         66    2    3    3    0    0  0.58127412446E+01  0.30263138779E+02  0.16103782963E+03  0.16397203452E+03  0.20000002755E+01 0.  0.
        -13    1    3    3    0    0 -0.58127412446E+01 -0.30263138779E+02  0.29998397565E+02  0.43006517530E+02  0.10566000000E+00 0.  1.
         13    1    4    4    0    0  0.82943078606E+00  0.43631254494E+01  0.21915181366E+02  0.22360929262E+02  0.10566000000E+00 0. -1.
        -13    1    4    4    0    0  0.48525005567E+01  0.22047510846E+02  0.11845034504E+03  0.12058248173E+03  0.10566000000E+00 0.  1.
        -14    1    4    4    0    0  0.13080990186E+00  0.38525024835E+01  0.20672303223E+02  0.21028623520E+02  0.00000000000E+00 0.  1.
<mgrwt>
<rscale>  0 0.79657272E+02</rscale>
<asrwt>0</asrwt>
<pdfrwt beam="1">  1        2 0.30616521E-01 0.79657272E+02</pdfrwt>
<pdfrwt beam="2">  1       -1 0.12263327E-02 0.79657272E+02</pdfrwt>
<totfact> 0.22271344E+05</totfact>
</mgrwt>
</event>
<event>
 8    1  0.1520917E-013  0.8106789E+02  0.7818608E-02  0.1326048E+00
          2   -1    0    0  501    0  0.00000000000E+00  0.00000000000E+00  0.27606611903E+03  0.27606611904E+03  0.25500000000E-02 0. -1.
         -1   -1    0    0    0  501 -0.00000000000E+00 -0.00000000000E+00 -0.59514737371E+01  0.59514758712E+01  0.50400000000E-02 0.  1.
         24    2    1    2    0    0  0.00000000000E+00 -0.44408920985E-15  0.27011464529E+03  0.28201759491E+03  0.81067886605E+02 0.  0.
         66    2    3    3    0    0  0.33010273618E+02 -0.33142997239E+01  0.21600381849E+03  0.21854590446E+03  0.20000022415E+01 0.  0.
        -13    1    3    3    0    0 -0.33010273618E+02  0.33142997239E+01  0.54110826801E+02  0.63471690447E+02  0.10566000000E+00 0.  1.
         13    1    4    4    0    0  0.96509668496E+01 -0.10231388966E+01  0.59773175920E+02  0.60556021153E+02  0.10566000000E+00 0. -1.
        -13    1    4    4    0    0  0.20170888461E+01 -0.29050822046E-01  0.11372850560E+02  0.11550860801E+02  0.10566000000E+00 0.  1.
        -14    1    4    4    0    0  0.21342217923E+02 -0.22621100053E+01  0.14485779201E+03  0.14643902251E+03  0.00000000000E+00 0.  1.
<mgrwt>
<rscale>  0 0.81067887E+02</rscale>
<asrwt>0</asrwt>
<pdfrwt beam="1">  1        2 0.42471704E-01 0.81067887E+02</pdfrwt>
<pdfrwt beam="2">  1       -1 0.91561165E-03 0.81067887E+02</pdfrwt>
<totfact> 0.23891279E+05</totfact>
</mgrwt>
</event>
<event>
 8    1  0.1520917E-013  0.8470205E+02  0.7818608E-02  0.1316214E+00
         -1   -1    0    0    0  501 -0.00000000000E+00  0.00000000000E+00  0.56546658861E+01  0.56546681322E+01  0.50400000000E-02 0.  1.
          2   -1    0    0  501    0  0.00000000000E+00 -0.00000000000E+00 -0.31719093925E+03  0.31719093926E+03  0.25500000000E-02 0. -1.
         24    2    1    2    0    0  0.22204460493E-15  0.00000000000E+00 -0.31153627336E+03  0.32284560739E+03  0.84702045967E+02 0.  0.
         66    2    3    3    0    0  0.18198258666E+01  0.34936381828E+02 -0.24667366017E+03  0.24915006956E+03  0.20000001649E+01 0.  0.
        -13    1    3    3    0    0 -0.18198258666E+01 -0.34936381828E+02 -0.64862613195E+02  0.73695537829E+02  0.10566000000E+00 0.  1.
         13    1    4    4    0    0 -0.11273208313E+00  0.80820514915E+01 -0.59820451322E+02  0.60364143540E+02  0.10566000000E+00 0. -1.
        -13    1    4    4    0    0  0.34577361745E+00  0.22114148547E+01 -0.17003958985E+02  0.17150967911E+02  0.10566000000E+00 0.  1.
         14    1    4    4    0    0  0.15867843323E+01  0.24642915482E+02 -0.16984924986E+03  0.17163495811E+03  0.00000000000E+00 0. -1.
<mgrwt>
<rscale>  0 0.84702046E+02</rscale>
<asrwt>0</asrwt>
<pdfrwt beam="1">  1        2 0.48798592E-01 0.84702046E+02</pdfrwt>
<pdfrwt beam="2">  1       -1 0.86994902E-03 0.84702046E+02</pdfrwt>
<totfact> 0.22388800E+05</totfact>
</mgrwt>
</event>
<event>
 8    1  0.1520917E-013  0.7816849E+02  0.7818608E-02  0.1334331E+00
         -1   -1    0    0    0  501 -0.00000000000E+00  0.00000000000E+00  0.10420572410E+02  0.10420573628E+02  0.50400000000E-02 0.  1.
          2   -1    0    0  501    0  0.00000000000E+00 -0.00000000000E+00 -0.14659254482E+03  0.14659254484E+03  0.25500000000E-02 0. -1.
         24    2    1    2    0    0  0.00000000000E+00  0.00000000000E+00 -0.13617197241E+03  0.15701311847E+03  0.78168493024E+02 0.  0.
         66    2    3    3    0    0 -0.14690866641E+02 -0.27502361034E+02 -0.11538162602E+03  0.11953711158E+03  0.19999994078E+01 0.  0.
        -13    1    3    3    0    0  0.14690866641E+02  0.27502361034E+02 -0.20790346390E+02  0.37476006886E+02  0.10566000000E+00 0.  1.
         13    1    4    4    0    0 -0.48982060029E+01 -0.98354353845E+01 -0.42418472791E+02  0.43818560099E+02  0.10566000000E+00 0. -1.
        -13    1    4    4    0    0 -0.76294065402E+01 -0.14277236679E+02 -0.60054822151E+02  0.62198393540E+02  0.10566000000E+00 0.  1.
        -14    1    4    4    0    0 -0.21632540979E+01 -0.33896889700E+01 -0.12908331077E+02  0.13520157942E+02  0.00000000000E+00 0.  1.
<mgrwt>
<rscale>  0 0.78168493E+02</rscale>
<asrwt>0</asrwt>
<pdfrwt beam="1">  1        2 0.22552698E-01 0.78168493E+02</pdfrwt>
<pdfrwt beam="2">  1       -1 0.16031652E-02 0.78168493E+02</pdfrwt>
<totfact> 0.21141949E+05</totfact>
</mgrwt>
</event>
<event>
 8    1  0.1520917E-013  0.8413542E+02  0.7818608E-02  0.1317709E+00
         -1   -1    0    0    0  501 -0.00000000000E+00  0.00000000000E+00  0.61335752745E+01  0.61335773452E+01  0.50400000000E-02 0.  1.
          2   -1    0    0  501    0  0.00000000000E+00 -0.00000000000E+00 -0.28852534485E+03  0.28852534486E+03  0.25500000000E-02 0. -1.
         24    2    1    2    0    0  0.35527136788E-14  0.00000000000E+00 -0.28239176958E+03  0.29465892221E+03  0.84135420079E+02 0.  0.
         66    2    3    3    0    0  0.31750339734E+02 -0.21195933950E+02 -0.20297137136E+03  0.20653989756E+03  0.19999999497E+01 0.  0.
        -13    1    3    3    0    0 -0.31750339734E+02  0.21195933950E+02 -0.79420398214E+02  0.88119024653E+02  0.10566000000E+00 0.  1.
         13    1    4    4    0    0  0.11189466963E+02 -0.73903197125E+01 -0.74819763089E+02  0.76012032660E+02  0.10566000000E+00 0. -1.
        -13    1    4    4    0    0  0.68285194259E+01 -0.40052944097E+01 -0.42151623560E+02  0.42888711728E+02  0.10566000000E+00 0.  1.
         14    1    4    4    0    0  0.13732353345E+02 -0.98003198281E+01 -0.85999984714E+02  0.87639153168E+02  0.00000000000E+00 0. -1.
<mgrwt>
<rscale>  0 0.84135420E+02</rscale>
<asrwt>0</asrwt>
<pdfrwt beam="1">  1        2 0.44388504E-01 0.84135420E+02</pdfrwt>
<pdfrwt beam="2">  1       -1 0.94362735E-03 0.84135420E+02</pdfrwt>
<totfact> 0.22016475E+05</totfact>
</mgrwt>
</event>
<event>
 8    1  0.1520917E-013  0.7987777E+02  0.7818608E-02  0.1329399E+00
         -1   -1    0    0    0  501 -0.00000000000E+00  0.00000000000E+00  0.39368977361E+02  0.39368977684E+02  0.50400000000E-02 0.  1.
          2   -1    0    0  501    0  0.00000000000E+00 -0.00000000000E+00 -0.40517042226E+02  0.40517042306E+02  0.25500000000E-02 0. -1.
         24    2    1    2    0    0  0.00000000000E+00  0.00000000000E+00 -0.11480648650E+01  0.79886019990E+02  0.79877769979E+02 0.  0.
         66    2    3    3    0    0 -0.65494873302E+01  0.35978275202E+02 -0.16569088149E+02  0.40197845505E+02  0.20000075853E+01 0.  0.
        -13    1    3    3    0    0  0.65494873302E+01 -0.35978275202E+02  0.15421023284E+02  0.39688174485E+02  0.10566000000E+00 0.  1.
         13    1    4    4    0    0 -0.53122866721E+01  0.28079177293E+02 -0.12778315006E+02  0.31304266252E+02  0.10566000000E+00 0. -1.
        -13    1    4    4    0    0 -0.83602043512E+00  0.26965821528E+01 -0.14286246471E+01  0.31658518431E+01  0.10566000000E+00 0.  1.
         14    1    4    4    0    0 -0.40118022295E+00  0.52025157564E+01 -0.23621484959E+01  0.57277274101E+01  0.00000000000E+00 0. -1.
<mgrwt>
<rscale>  0 0.79877770E+02</rscale>
<asrwt>0</asrwt>
<pdfrwt beam="1">  1        2 0.62333912E-02 0.79877770E+02</pdfrwt>
<pdfrwt beam="2">  1       -1 0.60567657E-02 0.79877770E+02</pdfrwt>
<totfact> 0.14353473E+05</totfact>
</mgrwt>
</event>
<event>
 8    1  0.1520917E-013  0.8060858E+02  0.7818608E-02  0.1327333E+00
         -1   -1    0    0    0  501 -0.00000000000E+00  0.00000000000E+00  0.22549311098E+01  0.22549367423E+01  0.50400000000E-02 0.  1.
          2   -1    0    0  501    0  0.00000000000E+00 -0.00000000000E+00 -0.72039175159E+03  0.72039175160E+03  0.25500000000E-02 0. -1.
         24    2    1    2    0    0  0.00000000000E+00  0.00000000000E+00 -0.71813682048E+03  0.72264668834E+03  0.80608580404E+02 0.  0.
         66    2    3    3    0    0 -0.26789582771E+02  0.86479293069E+01 -0.61755883130E+03  0.61820334725E+03  0.20000012428E+01 0.  0.
        -13    1    3    3    0    0  0.26789582771E+02 -0.86479293069E+01 -0.10057798918E+03  0.10444334109E+03  0.10566000000E+00 0.  1.
         13    1    4    4    0    0 -0.62702804756E+01  0.18747387704E+01 -0.15606560814E+03  0.15620280494E+03  0.10566000000E+00 0. -1.
        -13    1    4    4    0    0 -0.62486239218E+01  0.26394546706E+01 -0.14076557012E+03  0.14092894989E+03  0.10566000000E+00 0. -1.
        -14    1    4    4    0    0 -0.14270678374E+02  0.41337358659E+01 -0.32072765304E+03  0.32107159242E+03  0.00000000000E+00 0.  1.
<mgrwt>
<rscale>  0 0.80608580E+02</rscale>
<asrwt>0</asrwt>
<pdfrwt beam="1">  1        2 0.11082932E+00 0.80608580E+02</pdfrwt>
<pdfrwt beam="2">  1       -1 0.34691349E-03 0.80608580E+02</pdfrwt>
<totfact> 0.33010092E+05</totfact>
</mgrwt>
</event>
<event>
 8    1  0.1520917E-013  0.7872804E+02  0.7818608E-02  0.1332700E+00
          2   -1    0    0  501    0  0.00000000000E+00  0.00000000000E+00  0.29092605308E+03  0.29092605309E+03  0.25500000000E-02 0. -1.
         -1   -1    0    0    0  501 -0.00000000000E+00 -0.00000000000E+00 -0.53261835858E+01  0.53261859704E+01  0.50400000000E-02 0.  1.
         24    2    1    2    0    0  0.35527136788E-14 -0.17763568394E-14  0.28559986950E+03  0.29625223907E+03  0.78728036264E+02 0.  0.
         66    2    3    3    0    0 -0.30473027841E+02  0.11612786471E+02  0.22568247897E+03  0.22803518044E+03  0.19999925726E+01 0.  0.
        -13    1    3    3    0    0  0.30473027841E+02 -0.11612786471E+02  0.59917390532E+02  0.68217058627E+02  0.10566000000E+00 0.  1.
         13    1    4    4    0    0 -0.88222056364E+01  0.28978612848E+01  0.68659355665E+02  0.69284537934E+02  0.10566000000E+00 0. -1.
        -13    1    4    4    0    0 -0.18075029910E+02  0.69422105577E+01  0.13101929583E+03  0.13244231966E+03  0.10566000000E+00 0.  1.
        -14    1    4    4    0    0 -0.35757922942E+01  0.17727146283E+01  0.26003827467E+02  0.26308322840E+02  0.00000000000E+00 0.  1.
<mgrwt>
<rscale>  0 0.78728036E+02</rscale>
<asrwt>0</asrwt>
<pdfrwt beam="1">  1        2 0.44757859E-01 0.78728036E+02</pdfrwt>
<pdfrwt beam="2">  1       -1 0.81941296E-03 0.78728036E+02</pdfrwt>
<totfact> 0.26294050E+05</totfact>
</mgrwt>
</event>
<event>
 8    1  0.1520917E-013  0.7995604E+02  0.7818608E-02  0.1329176E+00
         -1   -1    0    0    0  501 -0.00000000000E+00  0.00000000000E+00  0.11236630679E+02  0.11236631809E+02  0.50400000000E-02 0.  1.
          2   -1    0    0  501    0  0.00000000000E+00 -0.00000000000E+00 -0.14223498518E+03  0.14223498521E+03  0.25500000000E-02 0. -1.
         24    2    1    2    0    0 -0.35527136788E-14  0.00000000000E+00 -0.13099835451E+03  0.15347161702E+03  0.79956040088E+02 0.  0.
         66    2    3    3    0    0  0.22866076531E+02 -0.23622457150E+02 -0.10911448375E+03  0.11397740350E+03  0.20000019194E+01 0.  0.
        -13    1    3    3    0    0 -0.22866076531E+02  0.23622457150E+02 -0.21883870755E+02  0.39494213513E+02  0.10566000000E+00 0.  1.
         13    1    4    4    0    0  0.16005608912E+02 -0.16756620337E+02 -0.76113979112E+02  0.79563263018E+02  0.10566000000E+00 0. -1.
        -13    1    4    4    0    0  0.15592310895E+01 -0.18011209115E+01 -0.96129321143E+01  0.99042852340E+01  0.10566000000E+00 0.  1.
        -14    1    4    4    0    0  0.53012365297E+01 -0.50647159018E+01 -0.23387572523E+02  0.24509855251E+02  0.00000000000E+00 0.  1.
<mgrwt>
<rscale>  0 0.79956040E+02</rscale>
<asrwt>0</asrwt>
<pdfrwt beam="1">  1        2 0.21882304E-01 0.79956040E+02</pdfrwt>
<pdfrwt beam="2">  1       -1 0.17287126E-02 0.79956040E+02</pdfrwt>
<totfact> 0.19721317E+05</totfact>
</mgrwt>
</event>
<event>
 8    1  0.1520917E-013  0.7342595E+02  0.7818608E-02  0.1348816E+00
          2   -1    0    0  501    0  0.00000000000E+00  0.00000000000E+00  0.64677007612E+03  0.64677007612E+03  0.25500000000E-02 0. -1.
         -1   -1    0    0    0  501 -0.00000000000E+00 -0.00000000000E+00 -0.20839560969E+01  0.20839621915E+01  0.50400000000E-02 0.  1.
         24    2    1    2    0    0 -0.88817841970E-15  0.17763568394E-14  0.64468612002E+03  0.64885403831E+03  0.73425946975E+02 0.  0.
         66    2    3    3    0    0 -0.45964784658E+01  0.13328810657E+02  0.62186944440E+03  0.62203246755E+03  0.19999998574E+01 0.  0.
        -13    1    3    3    0    0  0.45964784658E+01 -0.13328810657E+02  0.22816675615E+02  0.26821570759E+02  0.10566000000E+00 0.  1.
         13    1    4    4    0    0 -0.23057507335E+01  0.83613692691E+01  0.39894496637E+03  0.39903925413E+03  0.10566000000E+00 0. -1.
        -13    1    4    4    0    0 -0.54186591712E+00  0.58721496902E+00  0.38507234481E+02  0.38515668389E+02  0.10566000000E+00 0.  1.
        -14    1    4    4    0    0 -0.17488618151E+01  0.43802264190E+01  0.18441724355E+03  0.18447754503E+03  0.00000000000E+00 0.  1.
<mgrwt>
<rscale>  0 0.73425947E+02</rscale>
<asrwt>0</asrwt>
<pdfrwt beam="1">  1        2 0.99503108E-01 0.73425947E+02</pdfrwt>
<pdfrwt beam="2">  1       -1 0.32060904E-03 0.73425947E+02</pdfrwt>
<totfact> 0.40973591E+05</totfact>
</mgrwt>
</event>
<event>
 8    1  0.1520917E-013  0.8096344E+02  0.7818608E-02  0.1326339E+00
          2   -1    0    0  501    0  0.00000000000E+00  0.00000000000E+00  0.57905914168E+03  0.57905914169E+03  0.25500000000E-02 0. -1.
         -1   -1    0    0    0  501 -0.00000000000E+00 -0.00000000000E+00 -0.28300532934E+01  0.28300577812E+01  0.50400000000E-02 0.  1.
         24    2    1    2    0    0  0.35527136788E-14  0.00000000000E+00  0.57622908839E+03  0.58188919947E+03  0.80963437139E+02 0.  0.
         66    2    3    3    0    0 -0.30031705674E+02 -0.11095537571E+02  0.46605166629E+03  0.46715433204E+03  0.19999980282E+01 0.  0.
        -13    1    3    3    0    0  0.30031705674E+02  0.11095537571E+02  0.11017742210E+03  0.11473486743E+03  0.10566000000E+00 0.  1.
         13    1    4    4    0    0 -0.15320232478E+02 -0.63464754520E+01  0.24423685139E+03  0.24479917895E+03  0.10566000000E+00 0. -1.
        -13    1    4    4    0    0 -0.48516801022E+01 -0.19589950879E+01  0.70949374876E+02  0.71142121285E+02  0.10566000000E+00 0.  1.
         14    1    4    4    0    0 -0.98597930932E+01 -0.27900670309E+01  0.15086544002E+03  0.15121303180E+03  0.00000000000E+00 0. -1.
<mgrwt>
<rscale>  0 0.80963437E+02</rscale>
<asrwt>0</asrwt>
<pdfrwt beam="1">  1        2 0.89086110E-01 0.80963437E+02</pdfrwt>
<pdfrwt beam="2">  1       -1 0.43539273E-03 0.80963437E+02</pdfrwt>
<totfact> 0.30864267E+05</totfact>
</mgrwt>
</event>
<event>
 8    1  0.1520917E-013  0.8115449E+02  0.7818608E-02  0.1325807E+00
          2   -1    0    0  501    0  0.00000000000E+00  0.00000000000E+00  0.13324173647E+03  0.13324173649E+03  0.25500000000E-02 0. -1.
         -1   -1    0    0    0  501 -0.00000000000E+00 -0.00000000000E+00 -0.12357333452E+02  0.12357334480E+02  0.50400000000E-02 0.  1.
         24    2    1    2    0    0 -0.88817841970E-15 -0.71054273576E-14  0.12088440302E+03  0.14559907097E+03  0.81154485861E+02 0.  0.
         66    2    3    3    0    0 -0.55227353294E+01 -0.27431666887E+02  0.11313826987E+03  0.11656442449E+03  0.19999981791E+01 0.  0.
        -13    1    3    3    0    0  0.55227353294E+01  0.27431666887E+02  0.77461331429E+01  0.29034646484E+02  0.10566000000E+00 0.  1.
         13    1    4    4    0    0 -0.19261420820E+01 -0.10963859262E+02  0.45543345059E+02  0.46884151655E+02  0.10566000000E+00 0. -1.
        -13    1    4    4    0    0 -0.33887960795E+00 -0.45397899946E+01  0.18511069676E+02  0.19062932544E+02  0.10566000000E+00 0.  1.
         14    1    4    4    0    0 -0.32577136395E+01 -0.11928017630E+02  0.49083855139E+02  0.50617340290E+02  0.00000000000E+00 0. -1.
<mgrwt>
<rscale>  0 0.81154486E+02</rscale>
<asrwt>0</asrwt>
<pdfrwt beam="1">  1        2 0.20498730E-01 0.81154486E+02</pdfrwt>
<pdfrwt beam="2">  1       -1 0.19011282E-02 0.81154486E+02</pdfrwt>
<totfact> 0.18570896E+05</totfact>
</mgrwt>
</event>
<event>
 8    1  0.1520917E-013  0.7981771E+02  0.7818608E-02  0.1329570E+00
          2   -1    0    0  501    0  0.00000000000E+00  0.00000000000E+00  0.76922988731E+03  0.76922988731E+03  0.25500000000E-02 0. -1.
         -1   -1    0    0    0  501 -0.00000000000E+00 -0.00000000000E+00 -0.20705310633E+01  0.20705371973E+01  0.50400000000E-02 0.  1.
         24    2    1    2    0    0 -0.88817841970E-15  0.00000000000E+00  0.76715935624E+03  0.77130042451E+03  0.79817710909E+02 0.  0.
         66    2    3    3    0    0  0.58040886696E+01 -0.18406327879E+02  0.72109876295E+03  0.72135976202E+03  0.19999951606E+01 0.  0.
        -13    1    3    3    0    0 -0.58040886696E+01  0.18406327879E+02  0.46060593291E+02  0.49940662487E+02  0.10566000000E+00 0.  1.
         13    1    4    4    0    0  0.36009478851E+01 -0.10110935114E+02  0.41661285108E+03  0.41675109680E+03  0.10566000000E+00 0. -1.
        -13    1    4    4    0    0  0.11336410947E+01 -0.57316253861E+01  0.21695996757E+03  0.21703864947E+03  0.10566000000E+00 0.  1.
        -14    1    4    4    0    0  0.10694996898E+01 -0.25637673793E+01  0.87525944299E+02  0.87570015749E+02  0.00000000000E+00 0.  1.
<mgrwt>
<rscale>  0 0.79817711E+02</rscale>
<asrwt>0</asrwt>
<pdfrwt beam="1">  1        2 0.11834319E+00 0.79817711E+02</pdfrwt>
<pdfrwt beam="2">  1       -1 0.31854336E-03 0.79817711E+02</pdfrwt>
<totfact> 0.34324601E+05</totfact>
</mgrwt>
</event>
<event>
 8    1  0.1520917E-013  0.7619528E+02  0.7818608E-02  0.1340209E+00
         -1   -1    0    0    0  501 -0.00000000000E+00  0.00000000000E+00  0.12117861338E+03  0.12117861349E+03  0.50400000000E-02 0.  1.
          2   -1    0    0  501    0  0.00000000000E+00 -0.00000000000E+00 -0.11977610372E+02  0.11977610643E+02  0.25500000000E-02 0. -1.
         24    2    1    2    0    0  0.00000000000E+00 -0.17763568394E-14  0.10920100301E+03  0.13315622413E+03  0.76195281784E+02 0.  0.
         66    2    3    3    0    0  0.33744712289E+02 -0.12228587932E+02  0.32451412052E+02  0.48428691140E+02  0.20000027831E+01 0.  0.
        -13    1    3    3    0    0 -0.33744712289E+02  0.12228587932E+02  0.76749590957E+02  0.84727532989E+02  0.10566000000E+00 0.  1.
         13    1    4    4    0    0  0.15193533697E+02 -0.56174855436E+01  0.14818138131E+02  0.21954224918E+02  0.10566000000E+00 0. -1.
        -13    1    4    4    0    0  0.53326295420E+01 -0.13288594672E+01  0.53949910340E+01  0.77019411584E+01  0.10566000000E+00 0.  1.
        -14    1    4    4    0    0  0.13218549049E+02 -0.52822429214E+01  0.12238282887E+02  0.18772525063E+02  0.00000000000E+00 0.  1.
<mgrwt>
<rscale>  0 0.76195282E+02</rscale>
<asrwt>0</asrwt>
<pdfrwt beam="1">  1        2 0.18427093E-02 0.76195282E+02</pdfrwt>
<pdfrwt beam="2">  1       -1 0.18642863E-01 0.76195282E+02</pdfrwt>
<totfact> 0.12836645E+05</totfact>
</mgrwt>
</event>
<event>
 8    1  0.1520917E-013  0.7892677E+02  0.7818608E-02  0.1332125E+00
          2   -1    0    0  501    0  0.00000000000E+00  0.00000000000E+00  0.27733085894E+03  0.27733085895E+03  0.25500000000E-02 0. -1.
         -1   -1    0    0    0  501 -0.00000000000E+00 -0.00000000000E+00 -0.56155247330E+01  0.56155269947E+01  0.50400000000E-02 0.  1.
         24    2    1    2    0    0  0.00000000000E+00  0.00000000000E+00  0.27171533420E+03  0.28294638594E+03  0.78926766542E+02 0.  0.
         66    2    3    3    0    0  0.11600320813E+02  0.35822635231E+02  0.17798543619E+03  0.18193582420E+03  0.19999984290E+01 0.  0.
        -13    1    3    3    0    0 -0.11600320813E+02 -0.35822635231E+02  0.93729898008E+02  0.10101056174E+03  0.10566000000E+00 0.  1.
         13    1    4    4    0    0  0.72868779020E+01  0.22670015545E+02  0.11467892016E+03  0.11712512150E+03  0.10566000000E+00 0. -1.
        -13    1    4    4    0    0  0.37386740627E+01  0.10060770390E+02  0.48319878944E+02  0.49497663074E+02  0.10566000000E+00 0.  1.
         14    1    4    4    0    0  0.57476884857E+00  0.30918492970E+01  0.14986637095E+02  0.15313039630E+02  0.00000000000E+00 0. -1.
<mgrwt>
<rscale>  0 0.78926767E+02</rscale>
<asrwt>0</asrwt>
<pdfrwt beam="1">  1        2 0.42666282E-01 0.78926767E+02</pdfrwt>
<pdfrwt beam="2">  1       -1 0.86392714E-03 0.78926767E+02</pdfrwt>
<totfact> 0.25672603E+05</totfact>
</mgrwt>
</event>
<event>
 8    1  0.1520917E-013  0.7926093E+02  0.7818608E-02  0.1331162E+00
          2   -1    0    0  501    0  0.00000000000E+00  0.00000000000E+00  0.38168709076E+03  0.38168709077E+03  0.25500000000E-02 0. -1.
         -1   -1    0    0    0  501 -0.00000000000E+00 -0.00000000000E+00 -0.41148187834E+01  0.41148218700E+01  0.50400000000E-02 0.  1.
         24    2    1    2    0    0  0.00000000000E+00  0.00000000000E+00  0.37757227198E+03  0.38580191264E+03  0.79260931297E+02 0.  0.
         66    2    3    3    0    0  0.28096331094E+01  0.14362514826E+02  0.36803980872E+03  0.36833609201E+03  0.20000018373E+01 0.  0.
        -13    1    3    3    0    0 -0.28096331094E+01 -0.14362514826E+02  0.95324632583E+01  0.17465820626E+02  0.10566000000E+00 0.  1.
         13    1    4    4    0    0  0.12354905549E+01  0.79272245887E+01  0.19736531019E+03  0.19752833761E+03  0.10566000000E+00 0. -1.
        -13    1    4    4    0    0  0.31464854480E+00  0.21039882437E+00  0.90868807022E+01  0.90953744455E+01  0.10566000000E+00 0.  1.
        -14    1    4    4    0    0  0.12594940097E+01  0.62248914129E+01  0.16158761782E+03  0.16171237996E+03  0.00000000000E+00 0.  1.
<mgrwt>
<rscale>  0 0.79260931E+02</rscale>
<asrwt>0</asrwt>
<pdfrwt beam="1">  1        2 0.58721086E-01 0.79260931E+02</pdfrwt>
<pdfrwt beam="2">  1       -1 0.63304934E-03 0.79260931E+02</pdfrwt>
<totfact> 0.28473929E+05</totfact>
</mgrwt>
</event>
<event>
 8    1  0.1520917E-013  0.8483288E+02  0.7818608E-02  0.1315870E+00
         -1   -1    0    0    0  501 -0.00000000000E+00  0.00000000000E+00  0.19576101727E+02  0.19576102376E+02  0.50400000000E-02 0.  1.
          2   -1    0    0  501    0  0.00000000000E+00 -0.00000000000E+00 -0.91905652865E+02  0.91905652900E+02  0.25500000000E-02 0. -1.
         24    2    1    2    0    0  0.00000000000E+00  0.00000000000E+00 -0.72329551137E+02  0.11148175528E+03  0.84832881548E+02 0.  0.
         66    2    3    3    0    0  0.19056047438E+02  0.20460608172E+02 -0.78059729715E+02  0.82940284723E+02  0.19999989976E+01 0.  0.
        -13    1    3    3    0    0 -0.19056047438E+02 -0.20460608172E+02  0.57301785780E+01  0.28541470553E+02  0.10566000000E+00 0.  1.
         13    1    4    4    0    0  0.13235929591E+02  0.13742735880E+02 -0.55215529914E+02  0.58419333524E+02  0.10566000000E+00 0. -1.
        -13    1    4    4    0    0  0.47530706649E+01  0.52211428903E+01 -0.17587173632E+02  0.18951829838E+02  0.10566000000E+00 0.  1.
         14    1    4    4    0    0  0.10670471821E+01  0.14967294025E+01 -0.52570261693E+01  0.55691213613E+01  0.00000000000E+00 0. -1.
<mgrwt>
<rscale>  0 0.84832882E+02</rscale>
<asrwt>0</asrwt>
<pdfrwt beam="1">  1        2 0.14139331E-01 0.84832882E+02</pdfrwt>
<pdfrwt beam="2">  1       -1 0.30117081E-02 0.84832882E+02</pdfrwt>
<totfact> 0.14786523E+05</totfact>
</mgrwt>
</event>
<event>
 8    1  0.1520917E-013  0.8040189E+02  0.7818608E-02  0.1327915E+00
          2   -1    0    0  501    0  0.00000000000E+00  0.00000000000E+00  0.25190754362E+02  0.25190754491E+02  0.25500000000E-02 0. -1.
         -1   -1    0    0    0  501 -0.00000000000E+00 -0.00000000000E+00 -0.64155116777E+02  0.64155116975E+02  0.50400000000E-02 0.  1.
         24    2    1    2    0    0  0.00000000000E+00  0.71054273576E-14 -0.38964362415E+02  0.89345871466E+02  0.80401885610E+02 0.  0.
         66    2    3    3    0    0  0.43327627335E+01  0.35734115079E+02 -0.39323270530E+02  0.53348096640E+02  0.19999991246E+01 0.  0.
        -13    1    3    3    0    0 -0.43327627335E+01 -0.35734115079E+02  0.35890811530E+00  0.35997774826E+02  0.10566000000E+00 0.  1.
         13    1    4    4    0    0  0.18252134874E+00  0.34296966446E+00 -0.38207169599E+00  0.55505409643E+00  0.10566000000E+00 0.  1.
        -13    1    4    4    0    0  0.36194001319E+01  0.27685816288E+02 -0.30703668143E+02  0.41500974474E+02  0.10566000000E+00 0. -1.
         14    1    4    4    0    0  0.53084125285E+00  0.77053291264E+01 -0.82375306912E+01  0.11292068069E+02  0.00000000000E+00 0. -1.
<mgrwt>
<rscale>  0 0.80401886E+02</rscale>
<asrwt>0</asrwt>
<pdfrwt beam="1">  1        2 0.38755007E-02 0.80401886E+02</pdfrwt>
<pdfrwt beam="2">  1       -1 0.98700179E-02 0.80401886E+02</pdfrwt>
<totfact> 0.12816702E+05</totfact>
</mgrwt>
</event>
<event>
 8    1  0.1520917E-013  0.7988083E+02  0.7818608E-02  0.1329390E+00
          2   -1    0    0  501    0  0.00000000000E+00  0.00000000000E+00  0.76027063840E+02  0.76027063883E+02  0.25500000000E-02 0. -1.
         -1   -1    0    0    0  501 -0.00000000000E+00 -0.00000000000E+00 -0.20982483000E+02  0.20982483606E+02  0.50400000000E-02 0.  1.
         24    2    1    2    0    0 -0.17763568394E-14  0.00000000000E+00  0.55044580840E+02  0.97009547489E+02  0.79880826386E+02 0.  0.
         66    2    3    3    0    0  0.13796513715E+02 -0.14684779615E+02  0.69384355452E+02  0.72278456874E+02  0.20000009028E+01 0.  0.
        -13    1    3    3    0    0 -0.13796513715E+02  0.14684779615E+02 -0.14339774612E+02  0.24731090615E+02  0.10566000000E+00 0.  1.
         13    1    4    4    0    0  0.42702163784E+01 -0.41142364341E+01  0.21233010026E+02  0.22045715415E+02  0.10566000000E+00 0. -1.
        -13    1    4    4    0    0  0.67599806778E-01 -0.31940448645E+00  0.16130400549E+01  0.16491365056E+01  0.10566000000E+00 0.  1.
         14    1    4    4    0    0  0.94586975301E+01 -0.10251138694E+02  0.46538305371E+02  0.48583604954E+02  0.00000000000E+00 0. -1.
<mgrwt>
<rscale>  0 0.79880826E+02</rscale>
<asrwt>0</asrwt>
<pdfrwt beam="1">  1        2 0.11696471E-01 0.79880826E+02</pdfrwt>
<pdfrwt beam="2">  1       -1 0.32280744E-02 0.79880826E+02</pdfrwt>
<totfact> 0.16547166E+05</totfact>
</mgrwt>
</event>
<event>
 8    1  0.1520917E-013  0.7999624E+02  0.7818608E-02  0.1329062E+00
         -1   -1    0    0    0  501 -0.00000000000E+00  0.00000000000E+00  0.19988881963E+01  0.19988945502E+01  0.50400000000E-02 0.  1.
          2   -1    0    0  501    0  0.00000000000E+00 -0.00000000000E+00 -0.80036839441E+03  0.80036839441E+03  0.25500000000E-02 0. -1.
         24    2    1    2    0    0  0.35527136788E-14  0.00000000000E+00 -0.79836950621E+03  0.80236728896E+03  0.79996237086E+02 0.  0.
         66    2    3    3    0    0  0.22432008696E+02 -0.90475428749E+01 -0.71863415346E+03  0.71904387876E+03  0.20000021802E+01 0.  0.
        -13    1    3    3    0    0 -0.22432008696E+02  0.90475428749E+01 -0.79735352749E+02  0.83323410205E+02  0.10566000000E+00 0.  1.
         13    1    4    4    0    0  0.82223060599E+01 -0.35592590861E+01 -0.24814236854E+03  0.24830408952E+03  0.10566000000E+00 0. -1.
        -13    1    4    4    0    0  0.36865562155E+01 -0.12340708660E+01 -0.13527779619E+03  0.13533368735E+03  0.10566000000E+00 0.  1.
        -14    1    4    4    0    0  0.10523146420E+02 -0.42542129228E+01 -0.33521398874E+03  0.33540610189E+03  0.00000000000E+00 0.  1.
<mgrwt>
<rscale>  0 0.79996237E+02</rscale>
<asrwt>0</asrwt>
<pdfrwt beam="1">  1        2 0.12313334E+00 0.79996237E+02</pdfrwt>
<pdfrwt beam="2">  1       -1 0.30752239E-03 0.79996237E+02</pdfrwt>
<totfact> 0.34372565E+05</totfact>
</mgrwt>
</event>
<event>
 8    1  0.1520917E-013  0.7495343E+02  0.7818608E-02  0.1344015E+00
          2   -1    0    0  501    0  0.00000000000E+00  0.00000000000E+00  0.21821640511E+03  0.21821640513E+03  0.25500000000E-02 0. -1.
         -1   -1    0    0    0  501 -0.00000000000E+00 -0.00000000000E+00 -0.64362892423E+01  0.64362912156E+01  0.50400000000E-02 0.  1.
         24    2    1    2    0    0  0.00000000000E+00  0.00000000000E+00  0.21178011587E+03  0.22465269635E+03  0.74953428849E+02 0.  0.
         66    2    3    3    0    0  0.25670471647E+02 -0.15885279640E+02  0.17239187452E+03  0.17502649414E+03  0.20000072167E+01 0.  0.
        -13    1    3    3    0    0 -0.25670471647E+02  0.15885279640E+02  0.39388241355E+02  0.49626202201E+02  0.10566000000E+00 0.  1.
         13    1    4    4    0    0  0.85319011617E+01 -0.57432414515E+01  0.60182922670E+02  0.61055495289E+02  0.10566000000E+00 0. -1.
        -13    1    4    4    0    0  0.19135305416E+01 -0.11981304068E+01  0.10480953141E+02  0.10721877559E+02  0.10566000000E+00 0. -1.
        -14    1    4    4    0    0  0.15225039944E+02 -0.89439077816E+01  0.10172799871E+03  0.10324912130E+03  0.00000000000E+00 0.  1.
<mgrwt>
<rscale>  0 0.74953429E+02</rscale>
<asrwt>0</asrwt>
<pdfrwt beam="1">  1        2 0.33571758E-01 0.74953429E+02</pdfrwt>
<pdfrwt beam="2">  1       -1 0.99019842E-03 0.74953429E+02</pdfrwt>
<totfact> 0.26985137E+05</totfact>
</mgrwt>
</event>
<event>
 8    1  0.1520917E-013  0.8048302E+02  0.7818608E-02  0.1327686E+00
         -1   -1    0    0    0  501 -0.00000000000E+00  0.00000000000E+00  0.35220583890E+02  0.35220584251E+02  0.50400000000E-02 0.  1.
          2   -1    0    0  501    0  0.00000000000E+00 -0.00000000000E+00 -0.45978204354E+02  0.45978204424E+02  0.25500000000E-02 0. -1.
         24    2    1    2    0    0  0.00000000000E+00  0.88817841970E-15 -0.10757620464E+02  0.81198788675E+02  0.80483022336E+02 0.  0.
         66    2    3    3    0    0  0.31503710709E+02 -0.54978342767E+01 -0.29984733626E+02  0.43883871889E+02  0.19999977880E+01 0.  0.
        -13    1    3    3    0    0 -0.31503710709E+02  0.54978342767E+01  0.19227113163E+02  0.37314916786E+02  0.10566000000E+00 0.  1.
         13    1    4    4    0    0  0.47240798141E+01 -0.43708211508E+00 -0.47436641358E+01  0.67098050891E+01  0.10566000000E+00 0. -1.
        -13    1    4    4    0    0  0.60564629638E+01 -0.74370473021E+00 -0.50642554366E+01  0.79304279531E+01  0.10566000000E+00 0.  1.
        -14    1    4    4    0    0  0.20723167931E+02 -0.43170474314E+01 -0.20176814054E+02  0.29243638847E+02  0.00000000000E+00 0.  1.
<mgrwt>
<rscale>  0 0.80483022E+02</rscale>
<asrwt>0</asrwt>
<pdfrwt beam="1">  1        2 0.70735699E-02 0.80483022E+02</pdfrwt>
<pdfrwt beam="2">  1       -1 0.54185514E-02 0.80483022E+02</pdfrwt>
<totfact> 0.14435058E+05</totfact>
</mgrwt>
</event>
<event>
 8    1  0.1520917E-013  0.8471563E+02  0.7818608E-02  0.1316178E+00
         -1   -1    0    0    0  501 -0.00000000000E+00  0.00000000000E+00  0.61267650374E+02  0.61267650582E+02  0.50400000000E-02 0.  1.
          2   -1    0    0  501    0  0.00000000000E+00 -0.00000000000E+00 -0.29284369136E+02  0.29284369247E+02  0.25500000000E-02 0. -1.
         24    2    1    2    0    0  0.00000000000E+00 -0.27755575616E-16  0.31983281239E+02  0.90552019828E+02  0.84715630295E+02 0.  0.
         66    2    3    3    0    0  0.32483770295E+02  0.12829485785E+00 -0.13016892715E+02  0.35052122423E+02  0.19999995517E+01 0.  0.
        -13    1    3    3    0    0 -0.32483770295E+02 -0.12829485785E+00  0.45000173953E+02  0.55499897406E+02  0.10566000000E+00 0.  1.
         13    1    4    4    0    0  0.20584576532E+02  0.18728594054E+00 -0.91592561893E+01  0.22531378231E+02  0.10566000000E+00 0. -1.
        -13    1    4    4    0    0  0.36159418137E+01  0.18651591520E+00 -0.12912274908E+01  0.38455501369E+01  0.10566000000E+00 0.  1.
        -14    1    4    4    0    0  0.82832519503E+01 -0.24550699789E+00 -0.25664090347E+01  0.86751940549E+01  0.00000000000E+00 0.  1.
<mgrwt>
<rscale>  0 0.84715630E+02</rscale>
<asrwt>0</asrwt>
<pdfrwt beam="1">  1        2 0.45052877E-02 0.84715630E+02</pdfrwt>
<pdfrwt beam="2">  1       -1 0.94257922E-02 0.84715630E+02</pdfrwt>
<totfact> 0.11393639E+05</totfact>
</mgrwt>
</event>
<event>
 8    1  0.1520917E-013  0.8979074E+02  0.7818608E-02  0.1303359E+00
          2   -1    0    0  501    0  0.00000000000E+00  0.00000000000E+00  0.94737073917E+03  0.94737073918E+03  0.25500000000E-02 0. -1.
         -1   -1    0    0    0  501 -0.00000000000E+00 -0.00000000000E+00 -0.21275637364E+01  0.21275697061E+01  0.50400000000E-02 0.  1.
         24    2    1    2    0    0  0.00000000000E+00  0.00000000000E+00  0.94524317544E+03  0.94949830888E+03  0.89790744853E+02 0.  0.
         66    2    3    3    0    0  0.33950894169E+02 -0.10801779790E+02  0.76133917987E+03  0.76217497235E+03  0.20000013300E+01 0.  0.
        -13    1    3    3    0    0 -0.33950894169E+02  0.10801779790E+02  0.18390399557E+03  0.18732333654E+03  0.10566000000E+00 0.  1.
         13    1    4    4    0    0  0.11601967297E+02 -0.43428957811E+01  0.25199405690E+03  0.25229839925E+03  0.10566000000E+00 0. -1.
        -13    1    4    4    0    0  0.20871437526E+02 -0.62041257908E+01  0.47695952101E+03  0.47745628483E+03  0.10566000000E+00 0.  1.
         14    1    4    4    0    0  0.14774893461E+01 -0.25475821762E+00  0.32385601964E+02  0.32420288263E+02  0.00000000000E+00 0. -1.
<mgrwt>
<rscale>  0 0.89790745E+02</rscale>
<asrwt>0</asrwt>
<pdfrwt beam="1">  1        2 0.14574948E+00 0.89790745E+02</pdfrwt>
<pdfrwt beam="2">  1       -1 0.32731766E-03 0.89790745E+02</pdfrwt>
<totfact> 0.25975682E+05</totfact>
</mgrwt>
</event>
<event>
 8    1  0.1520917E-013  0.8410653E+02  0.7818608E-02  0.1317786E+00
         -1   -1    0    0    0  501 -0.00000000000E+00  0.00000000000E+00  0.87411093557E+02  0.87411093702E+02  0.50400000000E-02 0.  1.
          2   -1    0    0  501    0  0.00000000000E+00 -0.00000000000E+00 -0.20231722369E+02  0.20231722530E+02  0.25500000000E-02 0. -1.
         24    2    1    2    0    0  0.00000000000E+00  0.00000000000E+00  0.67179371188E+02  0.10764281623E+03  0.84106527530E+02 0.  0.
         66    2    3    3    0    0 -0.89166402207E+01 -0.19844906099E+02 -0.12414805346E+02  0.25128751534E+02  0.19999977429E+01 0.  0.
        -13    1    3    3    0    0  0.89166402207E+01  0.19844906099E+02  0.79594176534E+02  0.82514064698E+02  0.10566000000E+00 0.  1.
         13    1    4    4    0    0 -0.52512276823E+01 -0.10945005865E+02 -0.69268400753E+01  0.13977153609E+02  0.10566000000E+00 0. -1.
        -13    1    4    4    0    0 -0.19436228021E+01 -0.32767406249E+01 -0.24687444764E+01  0.45409869021E+01  0.10566000000E+00 0.  1.
        -14    1    4    4    0    0 -0.17217897363E+01 -0.56231596088E+01 -0.30192207943E+01  0.66106110222E+01  0.00000000000E+00 0.  1.
<mgrwt>
<rscale>  0 0.84106528E+02</rscale>
<asrwt>0</asrwt>
<pdfrwt beam="1">  1        2 0.31125727E-02 0.84106528E+02</pdfrwt>
<pdfrwt beam="2">  1       -1 0.13447861E-01 0.84106528E+02</pdfrwt>
<totfact> 0.10771210E+05</totfact>
</mgrwt>
</event>
<event>
 8    1  0.1520917E-013  0.7871666E+02  0.7818608E-02  0.1332733E+00
         -1   -1    0    0    0  501 -0.00000000000E+00  0.00000000000E+00  0.13572979862E+01  0.13573073436E+01  0.50400000000E-02 0.  1.
          2   -1    0    0  501    0  0.00000000000E+00 -0.00000000000E+00 -0.11412916833E+04  0.11412916833E+04  0.25500000000E-02 0. -1.
         24    2    1    2    0    0  0.00000000000E+00  0.00000000000E+00 -0.11399343854E+04  0.11426489907E+04  0.78716662815E+02 0.  0.
         66    2    3    3    0    0  0.94697835049E+01 -0.19671872180E+02 -0.10452558426E+04  0.10454857416E+04  0.20000007278E+01 0.  0.
        -13    1    3    3    0    0 -0.94697835049E+01  0.19671872180E+02 -0.94678542713E+02  0.97163249066E+02  0.10566000000E+00 0.  1.
         13    1    4    4    0    0  0.18527447442E+01 -0.29703705704E+01 -0.15859703029E+03  0.15863569884E+03  0.10566000000E+00 0. -1.
        -13    1    4    4    0    0  0.30891652239E+01 -0.66427590628E+01 -0.31986393116E+03  0.31994783138E+03  0.10566000000E+00 0.  1.
         14    1    4    4    0    0  0.45278735367E+01 -0.10058742547E+02 -0.56679488119E+03  0.56690221140E+03  0.00000000000E+00 0. -1.
<mgrwt>
<rscale>  0 0.78716663E+02</rscale>
<asrwt>0</asrwt>
<pdfrwt beam="1">  1        2 0.17558257E+00 0.78716663E+02</pdfrwt>
<pdfrwt beam="2">  1       -1 0.20881671E-03 0.78716663E+02</pdfrwt>
<totfact> 0.36698010E+05</totfact>
</mgrwt>
</event>
<event>
 8    1  0.1520917E-013  0.7115859E+02  0.7818608E-02  0.1356197E+00
          2   -1    0    0  501    0  0.00000000000E+00  0.00000000000E+00  0.51164309934E+03  0.51164309934E+03  0.25500000000E-02 0. -1.
         -1   -1    0    0    0  501 -0.00000000000E+00 -0.00000000000E+00 -0.24741558320E+01  0.24741609654E+01  0.50400000000E-02 0.  1.
         24    2    1    2    0    0 -0.35527136788E-14  0.00000000000E+00  0.50916894350E+03  0.51411726031E+03  0.71158585690E+02 0.  0.
         66    2    3    3    0    0  0.27349279457E+02 -0.10387734486E+02  0.40072064776E+03  0.40179214233E+03  0.19999958610E+01 0.  0.
        -13    1    3    3    0    0 -0.27349279457E+02  0.10387734486E+02  0.10844829574E+03  0.11232511798E+03  0.10566000000E+00 0.  1.
         13    1    4    4    0    0  0.74279753338E+01 -0.35213969535E+01  0.11597143978E+03  0.11626246627E+03  0.10566000000E+00 0. -1.
        -13    1    4    4    0    0  0.12179953190E+02 -0.39230049282E+01  0.16698594553E+03  0.16747554566E+03  0.10566000000E+00 0.  1.
         14    1    4    4    0    0  0.77413509330E+01 -0.29433326046E+01  0.11776326245E+03  0.11805413040E+03  0.00000000000E+00 0. -1.
<mgrwt>
<rscale>  0 0.71158586E+02</rscale>
<asrwt>0</asrwt>
<pdfrwt beam="1">  1        2 0.78714287E-01 0.71158586E+02</pdfrwt>
<pdfrwt beam="2">  1       -1 0.38063993E-03 0.71158586E+02</pdfrwt>
<totfact> 0.41541021E+05</totfact>
</mgrwt>
</event>
<event>
 8    1  0.1520917E-013  0.7289422E+02  0.7818608E-02  0.1350519E+00
          2   -1    0    0  501    0  0.00000000000E+00  0.00000000000E+00  0.33783451968E+03  0.33783451969E+03  0.25500000000E-02 0. -1.
         -1   -1    0    0    0  501 -0.00000000000E+00 -0.00000000000E+00 -0.39320763550E+01  0.39320795851E+01  0.50400000000E-02 0.  1.
         24    2    1    2    0    0  0.00000000000E+00  0.44408920985E-15  0.33390244332E+03  0.34176659927E+03  0.72894215967E+02 0.  0.
         66    2    3    3    0    0 -0.24485656624E+02  0.29046012707E+01  0.29274334586E+03  0.29378674353E+03  0.20000102926E+01 0.  0.
        -13    1    3    3    0    0  0.24485656624E+02 -0.29046012707E+01  0.41159097462E+02  0.47979855739E+02  0.10566000000E+00 0.  1.
         13    1    4    4    0    0 -0.87375059019E+01  0.81072619595E+00  0.10978727264E+03  0.11013744905E+03  0.10566000000E+00 0. -1.
        -13    1    4    4    0    0 -0.15753976105E+02  0.21225281044E+01  0.18283376438E+03  0.18352353922E+03  0.10566000000E+00 0.  1.
        -14    1    4    4    0    0  0.58253825582E-02 -0.28653029677E-01  0.12230884871E+00  0.12575526098E+00  0.00000000000E+00 0.  1.
<mgrwt>
<rscale>  0 0.72894216E+02</rscale>
<asrwt>0</asrwt>
<pdfrwt beam="1">  1        2 0.51974541E-01 0.72894216E+02</pdfrwt>
<pdfrwt beam="2">  1       -1 0.60493508E-03 0.72894216E+02</pdfrwt>
<totfact> 0.33904789E+05</totfact>
</mgrwt>
</event>
<event>
 8    1  0.1520917E-013  0.7921959E+02  0.7818608E-02  0.1331281E+00
          2   -1    0    0  501    0  0.00000000000E+00  0.00000000000E+00  0.56922531856E+02  0.56922531913E+02  0.25500000000E-02 0. -1.
         -1   -1    0    0    0  501 -0.00000000000E+00 -0.00000000000E+00 -0.27562647262E+02  0.27562647722E+02  0.50400000000E-02 0.  1.
         24    2    1    2    0    0 -0.35527136788E-14  0.00000000000E+00  0.29359884595E+02  0.84485179636E+02  0.79219585676E+02 0.  0.
         66    2    3    3    0    0  0.16069716547E+02  0.36085273946E+02  0.17418255825E+02  0.43217802116E+02  0.19999995230E+01 0.  0.
        -13    1    3    3    0    0 -0.16069716547E+02 -0.36085273946E+02  0.11941628770E+02  0.41267377520E+02  0.10566000000E+00 0.  1.
         13    1    4    4    0    0  0.51716091995E+01  0.11004930381E+02  0.50192233353E+01  0.13155143531E+02  0.10566000000E+00 0.  1.
        -13    1    4    4    0    0  0.19199278751E+01  0.39600623031E+01  0.25657030088E+01  0.50953127926E+01  0.10566000000E+00 0. -1.
        -14    1    4    4    0    0  0.89781794725E+01  0.21120281262E+02  0.98333294809E+01  0.24967345792E+02  0.00000000000E+00 0.  1.
<mgrwt>
<rscale>  0 0.79219586E+02</rscale>
<asrwt>0</asrwt>
<pdfrwt beam="1">  1        2 0.87573125E-02 0.79219586E+02</pdfrwt>
<pdfrwt beam="2">  1       -1 0.42404074E-02 0.79219586E+02</pdfrwt>
<totfact> 0.15795985E+05</totfact>
</mgrwt>
</event>
<event>
 8    1  0.1520917E-013  0.8466418E+02  0.7818608E-02  0.1316313E+00
          2   -1    0    0  501    0  0.00000000000E+00  0.00000000000E+00  0.14136405875E+03  0.14136405877E+03  0.25500000000E-02 0. -1.
         -1   -1    0    0    0  501 -0.00000000000E+00 -0.00000000000E+00 -0.12676529849E+02  0.12676530851E+02  0.50400000000E-02 0.  1.
         24    2    1    2    0    0  0.35527136788E-14  0.00000000000E+00  0.12868752890E+03  0.15404058962E+03  0.84664178712E+02 0.  0.
         66    2    3    3    0    0 -0.17446150200E+02 -0.35995693689E+02  0.89454903294E+02  0.98011416892E+02  0.19999991898E+01 0.  0.
        -13    1    3    3    0    0  0.17446150200E+02  0.35995693689E+02  0.39232625603E+02  0.56029172729E+02  0.10566000000E+00 0.  1.
         13    1    4    4    0    0 -0.36602433939E+01 -0.71272333412E+01  0.17003971085E+02  0.18797367728E+02  0.10566000000E+00 0. -1.
        -13    1    4    4    0    0 -0.86753528420E+01 -0.17154112653E+02  0.42035596380E+02  0.46222590309E+02  0.10566000000E+00 0.  1.
         14    1    4    4    0    0 -0.51105539645E+01 -0.11714347695E+02  0.30415335830E+02  0.32991458855E+02  0.00000000000E+00 0. -1.
<mgrwt>
<rscale>  0 0.84664179E+02</rscale>
<asrwt>0</asrwt>
<pdfrwt beam="1">  1        2 0.21748317E-01 0.84664179E+02</pdfrwt>
<pdfrwt beam="2">  1       -1 0.19502355E-02 0.84664179E+02</pdfrwt>
<totfact> 0.16899365E+05</totfact>
</mgrwt>
</event>
<event>
 8    1  0.1520917E-013  0.8648897E+02  0.7818608E-02  0.1311584E+00
         -1   -1    0    0    0  501 -0.00000000000E+00  0.00000000000E+00  0.52060680421E+02  0.52060680665E+02  0.50400000000E-02 0.  1.
          2   -1    0    0  501    0  0.00000000000E+00 -0.00000000000E+00 -0.35921261936E+02  0.35921262026E+02  0.25500000000E-02 0. -1.
         24    2    1    2    0    0  0.00000000000E+00  0.00000000000E+00  0.16139418485E+02  0.87981942691E+02  0.86488966988E+02 0.  0.
         66    2    3    3    0    0  0.10354672264E+02 -0.36284296056E+02 -0.13368532826E+02  0.40081006034E+02  0.19999991997E+01 0.  0.
        -13    1    3    3    0    0 -0.10354672264E+02  0.36284296056E+02  0.29507951312E+02  0.47900936657E+02  0.10566000000E+00 0.  1.
         13    1    4    4    0    0  0.52812925924E+00 -0.26037257015E+01 -0.94902491712E+00  0.28231401616E+01  0.10566000000E+00 0. -1.
        -13    1    4    4    0    0  0.73236057127E+01 -0.25014314419E+02 -0.10014935222E+02  0.27922414258E+02  0.10566000000E+00 0.  1.
        -14    1    4    4    0    0  0.25029372919E+01 -0.86662559357E+01 -0.24045726870E+01  0.93354516140E+01  0.00000000000E+00 0.  1.
<mgrwt>
<rscale>  0 0.86488967E+02</rscale>
<asrwt>0</asrwt>
<pdfrwt beam="1">  1        2 0.55263480E-02 0.86488967E+02</pdfrwt>
<pdfrwt beam="2">  1       -1 0.80093355E-02 0.86488967E+02</pdfrwt>
<totfact> 0.11214434E+05</totfact>
</mgrwt>
</event>
<event>
 8    1  0.1520917E-013  0.8229393E+02  0.7818608E-02  0.1322665E+00
         -1   -1    0    0    0  501 -0.00000000000E+00  0.00000000000E+00  0.33674135363E+01  0.33674173080E+01  0.50400000000E-02 0.  1.
          2   -1    0    0  501    0  0.00000000000E+00 -0.00000000000E+00 -0.50278110672E+03  0.50278110673E+03  0.25500000000E-02 0. -1.
         24    2    1    2    0    0  0.22204460493E-15  0.00000000000E+00 -0.49941369319E+03  0.50614852404E+03  0.82293933208E+02 0.  0.
         66    2    3    3    0    0 -0.11248993341E+01  0.31694579066E+02 -0.41085790466E+03  0.41208497856E+03  0.19999997685E+01 0.  0.
        -13    1    3    3    0    0  0.11248993341E+01 -0.31694579066E+02 -0.88555788531E+02  0.94063545474E+02  0.10566000000E+00 0.  1.
         13    1    4    4    0    0 -0.18507676845E+00  0.16918528106E+02 -0.21241443418E+03  0.21308724471E+03  0.10566000000E+00 0. -1.
        -13    1    4    4    0    0  0.19374599328E+00  0.21609423904E+01 -0.30712016490E+02  0.30788737071E+02  0.10566000000E+00 0.  1.
        -14    1    4    4    0    0 -0.11335685589E+01  0.12615108570E+02 -0.16773145399E+03  0.16820899678E+03  0.00000000000E+00 0.  1.
<mgrwt>
<rscale>  0 0.82293933E+02</rscale>
<asrwt>0</asrwt>
<pdfrwt beam="1">  1        2 0.77350880E-01 0.82293933E+02</pdfrwt>
<pdfrwt beam="2">  1       -1 0.51806431E-03 0.82293933E+02</pdfrwt>
<totfact> 0.28335518E+05</totfact>
</mgrwt>
</event>
<event>
 8    1  0.1520917E-013  0.8059606E+02  0.7818608E-02  0.1327368E+00
         -1   -1    0    0    0  501 -0.00000000000E+00  0.00000000000E+00  0.25371338977E+01  0.25371389037E+01  0.50400000000E-02 0.  1.
          2   -1    0    0  501    0  0.00000000000E+00 -0.00000000000E+00 -0.64006456284E+03  0.64006456285E+03  0.25500000000E-02 0. -1.
         24    2    1    2    0    0  0.00000000000E+00  0.00000000000E+00 -0.63752742894E+03  0.64260170175E+03  0.80596057203E+02 0.  0.
         66    2    3    3    0    0  0.87696396449E+01  0.36276014598E+02 -0.43963312001E+03  0.44121892074E+03  0.19999988870E+01 0.  0.
        -13    1    3    3    0    0 -0.87696396449E+01 -0.36276014598E+02 -0.19789430894E+03  0.20138278101E+03  0.10566000000E+00 0.  1.
         13    1    4    4    0    0  0.22627038082E+01  0.10604289078E+02 -0.12462751339E+03  0.12509835744E+03  0.10566000000E+00 0. -1.
        -13    1    4    4    0    0 -0.16776305557E-02  0.87776296504E+00 -0.91331240444E+01  0.91758154669E+01  0.10566000000E+00 0.  1.
         14    1    4    4    0    0  0.65086134672E+01  0.24793962554E+02 -0.30587248257E+03  0.30694474783E+03  0.00000000000E+00 0. -1.
<mgrwt>
<rscale>  0 0.80596057E+02</rscale>
<asrwt>0</asrwt>
<pdfrwt beam="1">  1        2 0.98471343E-01 0.80596057E+02</pdfrwt>
<pdfrwt beam="2">  1       -1 0.39032919E-03 0.80596057E+02</pdfrwt>
<totfact> 0.32101558E+05</totfact>
</mgrwt>
</event>
<event>
 8    1  0.1520917E-013  0.7893599E+02  0.7818608E-02  0.1332098E+00
          2   -1    0    0  501    0  0.00000000000E+00  0.00000000000E+00  0.91871940347E+03  0.91871940347E+03  0.25500000000E-02 0. -1.
         -1   -1    0    0    0  501 -0.00000000000E+00 -0.00000000000E+00 -0.16955330771E+01  0.16955405678E+01  0.50400000000E-02 0.  1.
         24    2    1    2    0    0  0.17763568394E-14 -0.35527136788E-14  0.91702387039E+03  0.92041494404E+03  0.78935988904E+02 0.  0.
         66    2    3    3    0    0  0.10122622168E+02 -0.22911956026E+02  0.81406930686E+03  0.81445703483E+03  0.20000003356E+01 0.  0.
        -13    1    3    3    0    0 -0.10122622168E+02  0.22911956026E+02  0.10295456353E+03  0.10595790921E+03  0.10566000000E+00 0.  1.
         13    1    4    4    0    0  0.35928869883E+01 -0.77603680868E+01  0.30375747986E+03  0.30387785356E+03  0.10566000000E+00 0. -1.
        -13    1    4    4    0    0  0.57030111791E+01 -0.12425435827E+02  0.42211303086E+03  0.42233439095E+03  0.10566000000E+00 0.  1.
         14    1    4    4    0    0  0.82672400090E+00 -0.27261521116E+01  0.88198796147E+02  0.88244790326E+02  0.00000000000E+00 0. -1.
<mgrwt>
<rscale>  0 0.78935989E+02</rscale>
<asrwt>0</asrwt>
<pdfrwt beam="1">  1        2 0.14134105E+00 0.78935989E+02</pdfrwt>
<pdfrwt beam="2">  1       -1 0.26085256E-03 0.78935989E+02</pdfrwt>
<totfact> 0.36259457E+05</totfact>
</mgrwt>
</event>
<event>
 8    1  0.1520917E-013  0.8050403E+02  0.7818608E-02  0.1327627E+00
         -1   -1    0    0    0  501 -0.00000000000E+00  0.00000000000E+00  0.35495822110E+02  0.35495822467E+02  0.50400000000E-02 0.  1.
          2   -1    0    0  501    0  0.00000000000E+00 -0.00000000000E+00 -0.45645503072E+02  0.45645503143E+02  0.25500000000E-02 0. -1.
         24    2    1    2    0    0  0.00000000000E+00  0.35527136788E-14 -0.10149680962E+02  0.81141325610E+02  0.80504029080E+02 0.  0.
         66    2    3    3    0    0 -0.90828953457E+01  0.28688969457E+02 -0.31985059185E+02  0.43961346286E+02  0.19999999710E+01 0.  0.
        -13    1    3    3    0    0  0.90828953457E+01 -0.28688969457E+02  0.21835378223E+02  0.37179979324E+02  0.10566000000E+00 0.  1.
         13    1    4    4    0    0 -0.65622195798E+01  0.21963938429E+02 -0.24881243885E+02  0.33831417032E+02  0.10566000000E+00 0. -1.
        -13    1    4    4    0    0 -0.10579759346E+00  0.14622493839E+00 -0.15018000313E+00  0.25747413915E+00  0.10566000000E+00 0.  1.
         14    1    4    4    0    0 -0.24148781724E+01  0.65788060893E+01 -0.69536352972E+01  0.98724551149E+01  0.00000000000E+00 0. -1.
<mgrwt>
<rscale>  0 0.80504029E+02</rscale>
<asrwt>0</asrwt>
<pdfrwt beam="1">  1        2 0.70223851E-02 0.80504029E+02</pdfrwt>
<pdfrwt beam="2">  1       -1 0.54608957E-02 0.80504029E+02</pdfrwt>
<totfact> 0.14402403E+05</totfact>
</mgrwt>
</event>
<event>
 8    1  0.1520917E-013  0.7608036E+02  0.7818608E-02  0.1340558E+00
          2   -1    0    0  501    0  0.00000000000E+00  0.00000000000E+00  0.14397442486E+02  0.14397442712E+02  0.25500000000E-02 0. -1.
         -1   -1    0    0    0  501 -0.00000000000E+00 -0.00000000000E+00 -0.10050778745E+03  0.10050778757E+03  0.50400000000E-02 0.  1.
         24    2    1    2    0    0  0.00000000000E+00  0.00000000000E+00 -0.86110344959E+02  0.11490523028E+03  0.76080355136E+02 0.  0.
         66    2    3    3    0    0  0.17587244288E+02  0.28094814376E+02 -0.14974313258E+02  0.36426087025E+02  0.20000004805E+01 0.  0.
        -13    1    3    3    0    0 -0.17587244288E+02 -0.28094814376E+02 -0.71136031701E+02  0.78479143259E+02  0.10566000000E+00 0.  1.
         13    1    4    4    0    0  0.77295284692E+00  0.16644367754E+01 -0.65748291907E+00  0.19522432501E+01  0.10566000000E+00 0. -1.
        -13    1    4    4    0    0  0.53043143797E+00  0.49150088342E+00 -0.26339916078E+00  0.77683574987E+00  0.10566000000E+00 0.  1.
         14    1    4    4    0    0  0.16283860003E+02  0.25938876718E+02 -0.14053431178E+02  0.33697008025E+02  0.00000000000E+00 0. -1.
<mgrwt>
<rscale>  0 0.76080355E+02</rscale>
<asrwt>0</asrwt>
<pdfrwt beam="1">  1        2 0.22149912E-02 0.76080355E+02</pdfrwt>
<pdfrwt beam="2">  1       -1 0.15462736E-01 0.76080355E+02</pdfrwt>
<totfact> 0.13419999E+05</totfact>
</mgrwt>
</event>
<event>
 8    1  0.1520917E-013  0.7734183E+02  0.7818608E-02  0.1336769E+00
         -1   -1    0    0    0  501 -0.00000000000E+00  0.00000000000E+00  0.62025356923E+01  0.62025377399E+01  0.50400000000E-02 0.  1.
          2   -1    0    0  501    0  0.00000000000E+00 -0.00000000000E+00 -0.24110130584E+03  0.24110130586E+03  0.25500000000E-02 0. -1.
         24    2    1    2    0    0  0.00000000000E+00  0.35527136788E-14 -0.23489877015E+03  0.24730384360E+03  0.77341831109E+02 0.  0.
         66    2    3    3    0    0 -0.13646571867E+02  0.27278155797E+02 -0.19340507922E+03  0.19580564694E+03  0.19999998741E+01 0.  0.
        -13    1    3    3    0    0  0.13646571867E+02 -0.27278155797E+02 -0.41493690930E+02  0.51498196652E+02  0.10566000000E+00 0.  1.
         13    1    4    4    0    0 -0.18393543893E+01  0.31052688484E+01 -0.20706686337E+02  0.21019132767E+02  0.10566000000E+00 0. -1.
        -13    1    4    4    0    0 -0.29436809793E+01  0.73515564064E+01 -0.49522566941E+02  0.50151833862E+02  0.10566000000E+00 0.  1.
        -14    1    4    4    0    0 -0.88635364988E+01  0.16821330542E+02 -0.12317582594E+03  0.12463468032E+03  0.00000000000E+00 0.  1.
<mgrwt>
<rscale>  0 0.77341831E+02</rscale>
<asrwt>0</asrwt>
<pdfrwt beam="1">  1        2 0.37092501E-01 0.77341831E+02</pdfrwt>
<pdfrwt beam="2">  1       -1 0.95423661E-03 0.77341831E+02</pdfrwt>
<totfact> 0.25747292E+05</totfact>
</mgrwt>
</event>
<event>
 8    1  0.1520917E-013  0.8025992E+02  0.7818608E-02  0.1328315E+00
         -1   -1    0    0    0  501 -0.00000000000E+00  0.00000000000E+00  0.32808353705E+01  0.32808392417E+01  0.50400000000E-02 0.  1.
          2   -1    0    0  501    0  0.00000000000E+00 -0.00000000000E+00 -0.49085446272E+03  0.49085446273E+03  0.25500000000E-02 0. -1.
         24    2    1    2    0    0  0.00000000000E+00  0.00000000000E+00 -0.48757362735E+03  0.49413530197E+03  0.80259918792E+02 0.  0.
         66    2    3    3    0    0  0.19332695921E+02 -0.20785802822E+02 -0.41835860399E+03  0.41932532032E+03  0.20000010444E+01 0.  0.
        -13    1    3    3    0    0 -0.19332695921E+02  0.20785802822E+02 -0.69215023363E+02  0.74809981645E+02  0.10566000000E+00 0.  1.
         13    1    4    4    0    0  0.10257192003E+02 -0.11146062681E+02 -0.20927898641E+03  0.20982647597E+03  0.10566000000E+00 0. -1.
        -13    1    4    4    0    0  0.27556940868E+01 -0.27822532236E+01 -0.59535439954E+02  0.59664181528E+02  0.10566000000E+00 0.  1.
         14    1    4    4    0    0  0.63198098309E+01 -0.68574869180E+01 -0.14954417762E+03  0.14983466282E+03  0.00000000000E+00 0. -1.
<mgrwt>
<rscale>  0 0.80259919E+02</rscale>
<asrwt>0</asrwt>
<pdfrwt beam="1">  1        2 0.75516013E-01 0.80259919E+02</pdfrwt>
<pdfrwt beam="2">  1       -1 0.50474459E-03 0.80259919E+02</pdfrwt>
<totfact> 0.30016887E+05</totfact>
</mgrwt>
</event>
<event>
 8    1  0.1520917E-013  0.7847645E+02  0.7818608E-02  0.1333431E+00
         -1   -1    0    0    0  501 -0.00000000000E+00  0.00000000000E+00  0.14686461106E+01  0.14686547585E+01  0.50400000000E-02 0.  1.
          2   -1    0    0  501    0  0.00000000000E+00 -0.00000000000E+00 -0.10483355507E+04  0.10483355507E+04  0.25500000000E-02 0. -1.
         24    2    1    2    0    0  0.00000000000E+00  0.00000000000E+00 -0.10468669046E+04  0.10498042055E+04  0.78476454304E+02 0.  0.
         66    2    3    3    0    0 -0.18615751274E+02 -0.62119426306E+01 -0.97791192998E+03  0.97811087164E+03  0.20000000974E+01 0.  0.
        -13    1    3    3    0    0  0.18615751274E+02  0.62119426306E+01 -0.68954974608E+02  0.71693333818E+02  0.10566000000E+00 0.  1.
         13    1    4    4    0    0 -0.13701794749E+01 -0.14963070697E+00 -0.63920137490E+02  0.63935083654E+02  0.10566000000E+00 0. -1.
        -13    1    4    4    0    0 -0.13276419621E+02 -0.42757979671E+01 -0.67003640194E+03  0.67018157007E+03  0.10566000000E+00 0.  1.
        -14    1    4    4    0    0 -0.39691521777E+01 -0.17865139565E+01 -0.24395539055E+03  0.24399421792E+03  0.00000000000E+00 0.  1.
<mgrwt>
<rscale>  0 0.78476454E+02</rscale>
<asrwt>0</asrwt>
<pdfrwt beam="1">  1        2 0.16128179E+00 0.78476454E+02</pdfrwt>
<pdfrwt beam="2">  1       -1 0.22594706E-03 0.78476454E+02</pdfrwt>
<totfact> 0.37075872E+05</totfact>
</mgrwt>
</event>
<event>
 8    1  0.1520917E-013  0.7963124E+02  0.7818608E-02  0.1330101E+00
          2   -1    0    0  501    0  0.00000000000E+00  0.00000000000E+00  0.11639432422E+04  0.11639432422E+04  0.25500000000E-02 0. -1.
         -1   -1    0    0    0  501 -0.00000000000E+00 -0.00000000000E+00 -0.13619893272E+01  0.13619986524E+01  0.50400000000E-02 0.  1.
         24    2    1    2    0    0  0.00000000000E+00  0.00000000000E+00  0.11625812528E+04  0.11653052408E+04  0.79631242820E+02 0.  0.
         66    2    3    3    0    0 -0.25432470786E+02  0.56961784414E+01  0.10216491551E+04  0.10219834897E+04  0.19999997540E+01 0.  0.
        -13    1    3    3    0    0  0.25432470786E+02 -0.56961784414E+01  0.14093209771E+03  0.14332175114E+03  0.10566000000E+00 0.  1.
         13    1    4    4    0    0 -0.96670030999E+01  0.18362983841E+01  0.39774542175E+03  0.39786713188E+03  0.10566000000E+00 0. -1.
        -13    1    4    4    0    0 -0.42859115627E+01  0.70253343317E+00  0.14823438526E+03  0.14829803346E+03  0.10566000000E+00 0.  1.
         14    1    4    4    0    0 -0.11479556123E+02  0.31573466241E+01  0.47566934811E+03  0.47581832434E+03  0.00000000000E+00 0. -1.
<mgrwt>
<rscale>  0 0.79631243E+02</rscale>
<asrwt>0</asrwt>
<pdfrwt beam="1">  1        2 0.17906936E+00 0.79631243E+02</pdfrwt>
<pdfrwt beam="2">  1       -1 0.20953617E-03 0.79631243E+02</pdfrwt>
<totfact> 0.35564382E+05</totfact>
</mgrwt>
</event>
<event>
 8    1  0.1520917E-013  0.8046030E+02  0.7818608E-02  0.1327750E+00
          2   -1    0    0  501    0  0.00000000000E+00  0.00000000000E+00  0.53253947754E+01  0.53253953859E+01  0.25500000000E-02 0. -1.
         -1   -1    0    0    0  501 -0.00000000000E+00 -0.00000000000E+00 -0.30391450140E+03  0.30391450144E+03  0.50400000000E-02 0.  1.
         24    2    1    2    0    0  0.35527136788E-14  0.71054273576E-14 -0.29858910662E+03  0.30923989682E+03  0.80460295768E+02 0.  0.
         66    2    3    3    0    0  0.16738280469E+02 -0.33282284249E+02 -0.91279012609E+02  0.98609018933E+02  0.19999985416E+01 0.  0.
        -13    1    3    3    0    0 -0.16738280469E+02  0.33282284249E+02 -0.20731009401E+03  0.21063087789E+03  0.10566000000E+00 0.  1.
         13    1    4    4    0    0  0.75874490515E+01 -0.15943589421E+02 -0.43465564361E+02  0.46915177459E+02  0.10566000000E+00 0. -1.
        -13    1    4    4    0    0  0.46581191699E-01 -0.34159028177E+00 -0.70037344513E+00  0.78774407409E+00  0.10566000000E+00 0.  1.
         14    1    4    4    0    0  0.91042502260E+01 -0.16997104546E+02 -0.47113074803E+02  0.50906097400E+02  0.00000000000E+00 0. -1.
<mgrwt>
<rscale>  0 0.80460296E+02</rscale>
<asrwt>0</asrwt>
<pdfrwt beam="1">  1        2 0.81929179E-03 0.80460296E+02</pdfrwt>
<pdfrwt beam="2">  1       -1 0.46756064E-01 0.80460296E+02</pdfrwt>
<totfact> 0.84721309E+04</totfact>
</mgrwt>
</event>
<event>
 8    1  0.1520917E-013  0.7808733E+02  0.7818608E-02  0.1334569E+00
          2   -1    0    0  501    0  0.00000000000E+00  0.00000000000E+00  0.11637564631E+03  0.11637564634E+03  0.25500000000E-02 0. -1.
         -1   -1    0    0    0  501 -0.00000000000E+00 -0.00000000000E+00 -0.13099027949E+02  0.13099028919E+02  0.50400000000E-02 0.  1.
         24    2    1    2    0    0  0.00000000000E+00  0.00000000000E+00  0.10327661836E+03  0.12947467526E+03  0.78087333370E+02 0.  0.
         66    2    3    3    0    0  0.86365144751E+01 -0.36828063294E+02  0.67533149819E+02  0.77431401574E+02  0.19999992469E+01 0.  0.
        -13    1    3    3    0    0 -0.86365144751E+01  0.36828063294E+02  0.35743468546E+02  0.52043273686E+02  0.10566000000E+00 0.  1.
         13    1    4    4    0    0  0.41376737467E+01 -0.15390664955E+02  0.29103631928E+02  0.33181703802E+02  0.10566000000E+00 0. -1.
        -13    1    4    4    0    0  0.99315004324E+00 -0.42856107653E+01  0.86719283240E+01  0.97245211467E+01  0.10566000000E+00 0.  1.
        -14    1    4    4    0    0  0.35056906852E+01 -0.17151787574E+02  0.29757589567E+02  0.34525176625E+02  0.00000000000E+00 0.  1.
<mgrwt>
<rscale>  0 0.78087333E+02</rscale>
<asrwt>0</asrwt>
<pdfrwt beam="1">  1        2 0.17903945E-01 0.78087333E+02</pdfrwt>
<pdfrwt beam="2">  1       -1 0.20152352E-02 0.78087333E+02</pdfrwt>
<totfact> 0.19750392E+05</totfact>
</mgrwt>
</event>
<event>
 8    1  0.1520917E-013  0.7940078E+02  0.7818608E-02  0.1330761E+00
         -1   -1    0    0    0  501 -0.00000000000E+00  0.00000000000E+00  0.23731178017E+02  0.23731178552E+02  0.50400000000E-02 0.  1.
          2   -1    0    0  501    0  0.00000000000E+00 -0.00000000000E+00 -0.66415618785E+02  0.66415618834E+02  0.25500000000E-02 0. -1.
         24    2    1    2    0    0  0.00000000000E+00  0.00000000000E+00 -0.42684440768E+02  0.90146797386E+02  0.79400778304E+02 0.  0.
         66    2    3    3    0    0  0.45101845769E+01  0.39008183302E+02 -0.27791785603E+02  0.48149387093E+02  0.20000002460E+01 0.  0.
        -13    1    3    3    0    0 -0.45101845769E+01 -0.39008183302E+02 -0.14892655165E+02  0.41997410293E+02  0.10566000000E+00 0.  1.
         13    1    4    4    0    0  0.27572542260E+01  0.18147031762E+02 -0.12492752919E+02  0.22203541433E+02  0.10566000000E+00 0. -1.
        -13    1    4    4    0    0  0.15381848322E+01  0.13076979129E+02 -0.95144290339E+01  0.16245273762E+02  0.10566000000E+00 0.  1.
        -14    1    4    4    0    0  0.21474551860E+00  0.77841724104E+01 -0.57846036500E+01  0.97005718976E+01  0.00000000000E+00 0.  1.
<mgrwt>
<rscale>  0 0.79400778E+02</rscale>
<asrwt>0</asrwt>
<pdfrwt beam="1">  1        2 0.10217787E-01 0.79400778E+02</pdfrwt>
<pdfrwt beam="2">  1       -1 0.36509505E-02 0.79400778E+02</pdfrwt>
<totfact> 0.16270722E+05</totfact>
</mgrwt>
</event>
<event>
 8    1  0.1520917E-013  0.8555181E+02  0.7818608E-02  0.1313996E+00
          2   -1    0    0  501    0  0.00000000000E+00  0.00000000000E+00  0.62714844105E+02  0.62714844156E+02  0.25500000000E-02 0. -1.
         -1   -1    0    0    0  501 -0.00000000000E+00 -0.00000000000E+00 -0.29176158474E+02  0.29176158909E+02  0.50400000000E-02 0.  1.
         24    2    1    2    0    0 -0.35527136788E-14  0.71054273576E-14  0.33538685631E+02  0.91891003065E+02  0.85551814770E+02 0.  0.
         66    2    3    3    0    0 -0.12772610848E+02  0.36615736576E+02  0.36109896190E+02  0.53026185548E+02  0.19999995222E+01 0.  0.
        -13    1    3    3    0    0  0.12772610848E+02 -0.36615736576E+02 -0.25712105594E+01  0.38864817517E+02  0.10566000000E+00 0.  1.
         13    1    4    4    0    0 -0.78593625856E+01  0.20354274735E+02  0.20754821879E+02  0.30113782152E+02  0.10566000000E+00 0. -1.
        -13    1    4    4    0    0 -0.79079472453E+00  0.21288381220E+01  0.23399392714E+01  0.32624818582E+01  0.10566000000E+00 0.  1.
        -14    1    4    4    0    0 -0.41224535383E+01  0.14132623719E+02  0.13015135040E+02  0.19649921538E+02  0.00000000000E+00 0.  1.
<mgrwt>
<rscale>  0 0.85551815E+02</rscale>
<asrwt>0</asrwt>
<pdfrwt beam="1">  1        2 0.96484375E-02 0.85551815E+02</pdfrwt>
<pdfrwt beam="2">  1       -1 0.44886398E-02 0.85551815E+02</pdfrwt>
<totfact> 0.13095773E+05</totfact>
</mgrwt>
</event>
<event>
 8    1  0.1520917E-013  0.8023350E+02  0.7818608E-02  0.1328390E+00
          2   -1    0    0  501    0  0.00000000000E+00  0.00000000000E+00  0.47956847867E+01  0.47956854646E+01  0.25500000000E-02 0. -1.
         -1   -1    0    0    0  501 -0.00000000000E+00 -0.00000000000E+00 -0.33558364117E+03  0.33558364121E+03  0.50400000000E-02 0.  1.
         24    2    1    2    0    0  0.00000000000E+00  0.71054273576E-14 -0.33078795639E+03  0.34037932668E+03  0.80233496358E+02 0.  0.
         66    2    3    3    0    0  0.33170744475E+02  0.20613932486E+02 -0.20393982682E+03  0.20765520814E+03  0.20000010588E+01 0.  0.
        -13    1    3    3    0    0 -0.33170744475E+02 -0.20613932486E+02 -0.12684812957E+03  0.13272411853E+03  0.10566000000E+00 0.  1.
         13    1    4    4    0    0  0.40983875436E+01  0.26035316767E+01 -0.22644446241E+02  0.23159388317E+02  0.10566000000E+00 0.  1.
        -13    1    4    4    0    0  0.18646382770E+01  0.93605462998E+00 -0.11830966032E+02  0.12013991654E+02  0.10566000000E+00 0. -1.
         14    1    4    4    0    0  0.27207718654E+02  0.17074346180E+02 -0.16946441455E+03  0.17248182817E+03  0.00000000000E+00 0. -1.
<mgrwt>
<rscale>  0 0.80233496E+02</rscale>
<asrwt>0</asrwt>
<pdfrwt beam="1">  1        2 0.73779798E-03 0.80233496E+02</pdfrwt>
<pdfrwt beam="2">  1       -1 0.51628234E-01 0.80233496E+02</pdfrwt>
<totfact> 0.81808480E+04</totfact>
</mgrwt>
</event>
<event>
 8    1  0.1520917E-013  0.8002056E+02  0.7818608E-02  0.1328993E+00
          2   -1    0    0  501    0  0.00000000000E+00  0.00000000000E+00  0.34845242895E+02  0.34845242988E+02  0.25500000000E-02 0. -1.
         -1   -1    0    0    0  501 -0.00000000000E+00 -0.00000000000E+00 -0.45940924661E+02  0.45940924938E+02  0.50400000000E-02 0.  1.
         24    2    1    2    0    0  0.00000000000E+00  0.00000000000E+00 -0.11095681767E+02  0.80786167926E+02  0.80020564696E+02 0.  0.
         66    2    3    3    0    0 -0.48215572653E+01 -0.25315299642E+02  0.25314172939E+02  0.36178988076E+02  0.20000040647E+01 0.  0.
        -13    1    3    3    0    0  0.48215572653E+01  0.25315299642E+02 -0.36409854705E+02  0.44607179849E+02  0.10566000000E+00 0.  1.
         13    1    4    4    0    0 -0.23131552412E+00 -0.36172865549E+01  0.33027331195E+01  0.49048424018E+01  0.10566000000E+00 0. -1.
        -13    1    4    4    0    0 -0.38039042332E+01 -0.15497829698E+02  0.16199475737E+02  0.22739538055E+02  0.10566000000E+00 0.  1.
        -14    1    4    4    0    0 -0.78633750806E+00 -0.62001833887E+01  0.58119640823E+01  0.85346076199E+01  0.00000000000E+00 0.  1.
<mgrwt>
<rscale>  0 0.80020565E+02</rscale>
<asrwt>0</asrwt>
<pdfrwt beam="1">  1        2 0.53608066E-02 0.80020565E+02</pdfrwt>
<pdfrwt beam="2">  1       -1 0.70678347E-02 0.80020565E+02</pdfrwt>
<totfact> 0.13851767E+05</totfact>
</mgrwt>
</event>
<event>
 8    1  0.1520917E-013  0.7287356E+02  0.7818608E-02  0.1350585E+00
          2   -1    0    0  501    0  0.00000000000E+00  0.00000000000E+00  0.19341609618E+02  0.19341609787E+02  0.25500000000E-02 0. -1.
         -1   -1    0    0    0  501 -0.00000000000E+00 -0.00000000000E+00 -0.68641587446E+02  0.68641587631E+02  0.50400000000E-02 0.  1.
         24    2    1    2    0    0  0.00000000000E+00  0.00000000000E+00 -0.49299977828E+02  0.87983197418E+02  0.72873556343E+02 0.  0.
         66    2    3    3    0    0 -0.21496558050E+02 -0.29329072609E+02 -0.22462859582E+02  0.42788744353E+02  0.20000186473E+01 0.  0.
        -13    1    3    3    0    0  0.21496558050E+02  0.29329072609E+02 -0.26837118246E+02  0.45194453065E+02  0.10566000000E+00 0.  1.
         13    1    4    4    0    0 -0.99833886771E+01 -0.12629181916E+02 -0.10041866418E+02  0.18974048871E+02  0.10566000000E+00 0. -1.
        -13    1    4    4    0    0 -0.39572628783E+01 -0.58491478772E+01 -0.36772558458E+01  0.79627780936E+01  0.10566000000E+00 0.  1.
         14    1    4    4    0    0 -0.75559064942E+01 -0.10850742816E+02 -0.87437373183E+01  0.15851917389E+02  0.00000000000E+00 0. -1.
<mgrwt>
<rscale>  0 0.72873556E+02</rscale>
<asrwt>0</asrwt>
<pdfrwt beam="1">  1        2 0.29756323E-02 0.72873556E+02</pdfrwt>
<pdfrwt beam="2">  1       -1 0.10560244E-01 0.72873556E+02</pdfrwt>
<totfact> 0.16087583E+05</totfact>
</mgrwt>
</event>
<event>
 8    1  0.1520917E-013  0.8433464E+02  0.7818608E-02  0.1317182E+00
         -1   -1    0    0    0  501 -0.00000000000E+00  0.00000000000E+00  0.18769854345E+01  0.18769922011E+01  0.50400000000E-02 0.  1.
          2   -1    0    0  501    0  0.00000000000E+00 -0.00000000000E+00 -0.94730606649E+03  0.94730606650E+03  0.25500000000E-02 0. -1.
         24    2    1    2    0    0 -0.35527136788E-14 -0.11102230246E-15 -0.94542908106E+03  0.94918305870E+03  0.84334640612E+02 0.  0.
         66    2    3    3    0    0 -0.18834823527E+02 -0.98036870502E+00 -0.89715374879E+03  0.89735420024E+03  0.20000016679E+01 0.  0.
        -13    1    3    3    0    0  0.18834823527E+02  0.98036870502E+00 -0.48275332266E+02  0.51828858463E+02  0.10566000000E+00 0.  1.
         13    1    4    4    0    0 -0.12168635252E+02 -0.11087726274E+01 -0.58056901088E+03  0.58069759136E+03  0.10566000000E+00 0. -1.
        -13    1    4    4    0    0 -0.12568463621E+01 -0.23895141020E-01 -0.43631372658E+02  0.43649605701E+02  0.10566000000E+00 0.  1.
        -14    1    4    4    0    0 -0.54093419136E+01  0.15229906343E+00 -0.27295336526E+03  0.27300700317E+03  0.00000000000E+00 0.  1.
<mgrwt>
<rscale>  0 0.84334641E+02</rscale>
<asrwt>0</asrwt>
<pdfrwt beam="1">  1        2 0.14573901E+00 0.84334641E+02</pdfrwt>
<pdfrwt beam="2">  1       -1 0.28876827E-03 0.84334641E+02</pdfrwt>
<totfact> 0.30608988E+05</totfact>
</mgrwt>
</event>
<event>
 8    1  0.1520917E-013  0.8449719E+02  0.7818608E-02  0.1316753E+00
         -1   -1    0    0    0  501 -0.00000000000E+00  0.00000000000E+00  0.42100340227E+01  0.42100370395E+01  0.50400000000E-02 0.  1.
          2   -1    0    0  501    0  0.00000000000E+00 -0.00000000000E+00 -0.42397361166E+03  0.42397361166E+03  0.25500000000E-02 0. -1.
         24    2    1    2    0    0  0.00000000000E+00  0.00000000000E+00 -0.41976357763E+03  0.42818364870E+03  0.84497194683E+02 0.  0.
         66    2    3    3    0    0  0.57784925755E+01  0.11447828918E+02 -0.41386443147E+03  0.41406788259E+03  0.19999992592E+01 0.  0.
        -13    1    3    3    0    0 -0.57784925755E+01 -0.11447828918E+02 -0.58991461657E+01  0.14115766111E+02  0.10566000000E+00 0.  1.
         13    1    4    4    0    0  0.46103020890E-01  0.15481646504E-01 -0.33765738848E+01  0.33785766833E+01  0.10566000000E+00 0.  1.
        -13    1    4    4    0    0  0.52642572123E+00  0.20017313614E+01 -0.58796231394E+02  0.58832746347E+02  0.10566000000E+00 0.  1.
         14    1    4    4    0    0  0.52059638334E+01  0.94306159102E+01 -0.35169162619E+03  0.35185655956E+03  0.00000000000E+00 0. -1.
<mgrwt>
<rscale>  0 0.84497195E+02</rscale>
<asrwt>0</asrwt>
<pdfrwt beam="1">  1        2 0.65226676E-01 0.84497195E+02</pdfrwt>
<pdfrwt beam="2">  1       -1 0.64769811E-03 0.84497195E+02</pdfrwt>
<totfact> 0.24983986E+05</totfact>
</mgrwt>
</event>
<event>
 8    1  0.1520917E-013  0.7818234E+02  0.7818608E-02  0.1334290E+00
          2   -1    0    0  501    0  0.00000000000E+00  0.00000000000E+00  0.53789532959E+03  0.53789532960E+03  0.25500000000E-02 0. -1.
         -1   -1    0    0    0  501 -0.00000000000E+00 -0.00000000000E+00 -0.28409211363E+01  0.28409256070E+01  0.50400000000E-02 0.  1.
         24    2    1    2    0    0  0.00000000000E+00  0.00000000000E+00  0.53505440845E+03  0.54073625520E+03  0.78182336146E+02 0.  0.
         66    2    3    3    0    0  0.13166406586E+02 -0.35845632333E+02  0.32467287835E+03  0.32691702549E+03  0.20000008390E+01 0.  0.
        -13    1    3    3    0    0 -0.13166406586E+02  0.35845632333E+02  0.21038153011E+03  0.21381922971E+03  0.10566000000E+00 0.  1.
         13    1    4    4    0    0  0.45407262102E+01 -0.13077295587E+02  0.11398162709E+03  0.11481923328E+03  0.10566000000E+00 0. -1.
        -13    1    4    4    0    0  0.32095004933E+01 -0.96170867849E+01  0.83091114906E+02  0.83707429730E+02  0.10566000000E+00 0.  1.
        -14    1    4    4    0    0  0.54161798824E+01 -0.13151249961E+02  0.12760013635E+03  0.12839036248E+03  0.00000000000E+00 0.  1.
<mgrwt>
<rscale>  0 0.78182336E+02</rscale>
<asrwt>0</asrwt>
<pdfrwt beam="1">  1        2 0.82753160E-01 0.78182336E+02</pdfrwt>
<pdfrwt beam="2">  1       -1 0.43706496E-03 0.78182336E+02</pdfrwt>
<totfact> 0.33071943E+05</totfact>
</mgrwt>
</event>
<event>
 8    1  0.1520917E-013  0.8003947E+02  0.7818608E-02  0.1328939E+00
         -1   -1    0    0    0  501 -0.00000000000E+00  0.00000000000E+00  0.43959101151E+01  0.43959130044E+01  0.50400000000E-02 0.  1.
          2   -1    0    0  501    0  0.00000000000E+00 -0.00000000000E+00 -0.36433382086E+03  0.36433382087E+03  0.25500000000E-02 0. -1.
         24    2    1    2    0    0  0.35527136788E-14 -0.35527136788E-14 -0.35993791075E+03  0.36872973388E+03  0.80039471831E+02 0.  0.
         66    2    3    3    0    0  0.22828984188E+02 -0.30270643697E+02 -0.23873470102E+03  0.24173483791E+03  0.19999999480E+01 0.  0.
        -13    1    3    3    0    0 -0.22828984188E+02  0.30270643697E+02 -0.12120320973E+03  0.12699489597E+03  0.10566000000E+00 0.  1.
         13    1    4    4    0    0  0.84186329004E+01 -0.11024636495E+02 -0.91350763674E+02  0.92397993363E+02  0.10566000000E+00 0. -1.
        -13    1    4    4    0    0  0.53854212974E+01 -0.72083244063E+01 -0.58718995131E+02  0.59404496938E+02  0.10566000000E+00 0.  1.
        -14    1    4    4    0    0  0.90249299907E+01 -0.12037682796E+02 -0.88664942214E+02  0.89932347608E+02  0.00000000000E+00 0.  1.
<mgrwt>
<rscale>  0 0.80039472E+02</rscale>
<asrwt>0</asrwt>
<pdfrwt beam="1">  1        2 0.56051333E-01 0.80039472E+02</pdfrwt>
<pdfrwt beam="2">  1       -1 0.67629438E-03 0.80039472E+02</pdfrwt>
<totfact> 0.27302105E+05</totfact>
</mgrwt>
</event>
<event>
 8    1  0.1520917E-013  0.8246250E+02  0.7818608E-02  0.1322205E+00
         -1   -1    0    0    0  501 -0.00000000000E+00  0.00000000000E+00  0.92057689641E+02  0.92057689779E+02  0.50400000000E-02 0.  1.
          2   -1    0    0  501    0  0.00000000000E+00 -0.00000000000E+00 -0.18466854196E+02  0.18466854372E+02  0.25500000000E-02 0. -1.
         24    2    1    2    0    0  0.00000000000E+00  0.00000000000E+00  0.73590835445E+02  0.11052454415E+03  0.82462499345E+02 0.  0.
         66    2    3    3    0    0  0.50691303896E+01 -0.18153277050E+02 -0.12296806035E+02  0.22593118177E+02  0.19999999366E+01 0.  0.
        -13    1    3    3    0    0 -0.50691303896E+01  0.18153277050E+02  0.85887641480E+02  0.87931425973E+02  0.10566000000E+00 0.  1.
         13    1    4    4    0    0  0.29491781745E+01 -0.10793232672E+02 -0.66520064727E+01  0.13017368304E+02  0.10566000000E+00 0. -1.
        -13    1    4    4    0    0  0.16503875988E-01 -0.40264246164E+00 -0.86139237200E-01  0.42541430820E+00  0.10566000000E+00 0. -1.
         14    1    4    4    0    0  0.21034483392E+01 -0.69574019171E+01 -0.55586603251E+01  0.91503355655E+01  0.00000000000E+00 0. -1.
<mgrwt>
<rscale>  0 0.82462499E+02</rscale>
<asrwt>0</asrwt>
<pdfrwt beam="1">  1        2 0.28410546E-02 0.82462499E+02</pdfrwt>
<pdfrwt beam="2">  1       -1 0.14162721E-01 0.82462499E+02</pdfrwt>
<totfact> 0.11187710E+05</totfact>
</mgrwt>
</event>
<event>
 8    1  0.1520917E-013  0.8151115E+02  0.7818608E-02  0.1324817E+00
         -1   -1    0    0    0  501 -0.00000000000E+00  0.00000000000E+00  0.11729407238E+01  0.11729515519E+01  0.50400000000E-02 0.  1.
          2   -1    0    0  501    0  0.00000000000E+00 -0.00000000000E+00 -0.14161067075E+04  0.14161067075E+04  0.25500000000E-02 0. -1.
         24    2    1    2    0    0  0.00000000000E+00  0.00000000000E+00 -0.14149337668E+04  0.14172796591E+04  0.81511150191E+02 0.  0.
         66    2    3    3    0    0  0.22392953450E+01 -0.23354224020E+02 -0.12868156806E+04  0.12870310913E+04  0.20000013862E+01 0.  0.
        -13    1    3    3    0    0 -0.22392953450E+01  0.23354224020E+02 -0.12811808622E+03  0.13024856776E+03  0.10566000000E+00 0.  1.
         13    1    4    4    0    0  0.11371407566E+01 -0.12101492024E+02 -0.65499235986E+03  0.65510513800E+03  0.10566000000E+00 0. -1.
        -13    1    4    4    0    0 -0.18164819142E+00 -0.21021647115E+01 -0.13835895466E+03  0.13837508298E+03  0.10566000000E+00 0. -1.
         14    1    4    4    0    0  0.12838027798E+01 -0.91505672840E+01 -0.49346436605E+03  0.49355087032E+03  0.00000000000E+00 0. -1.
<mgrwt>
<rscale>  0 0.81511150E+02</rscale>
<asrwt>0</asrwt>
<pdfrwt beam="1">  1        2 0.21786120E+00 0.81511150E+02</pdfrwt>
<pdfrwt beam="2">  1       -1 0.18045439E-03 0.81511150E+02</pdfrwt>
<totfact> 0.32290847E+05</totfact>
</mgrwt>
</event>
<event>
 8    1  0.1520917E-013  0.8152491E+02  0.7818608E-02  0.1324779E+00
          2   -1    0    0  501    0  0.00000000000E+00  0.00000000000E+00  0.59379105158E+03  0.59379105159E+03  0.25500000000E-02 0. -1.
         -1   -1    0    0    0  501 -0.00000000000E+00 -0.00000000000E+00 -0.27982508941E+01  0.27982554330E+01  0.50400000000E-02 0.  1.
         24    2    1    2    0    0  0.00000000000E+00  0.00000000000E+00  0.59099280069E+03  0.59658930702E+03  0.81524908993E+02 0.  0.
         66    2    3    3    0    0 -0.91290605428E+01  0.77497856173E+01  0.58061782232E+03  0.58074474128E+03  0.19999997665E+01 0.  0.
        -13    1    3    3    0    0  0.91290605428E+01 -0.77497856173E+01  0.10374978368E+02  0.15844565746E+02  0.10566000000E+00 0.  1.
         13    1    4    4    0    0 -0.42947051445E+01  0.27305052679E+01  0.25872668748E+03  0.25877675732E+03  0.10566000000E+00 0. -1.
        -13    1    4    4    0    0 -0.44635197531E+01  0.43954173202E+01  0.27594191072E+03  0.27601302860E+03  0.10566000000E+00 0.  1.
        -14    1    4    4    0    0 -0.37083564526E+00  0.62386302916E+00  0.45949224120E+02  0.45954955351E+02  0.00000000000E+00 0.  1.
<mgrwt>
<rscale>  0 0.81524909E+02</rscale>
<asrwt>0</asrwt>
<pdfrwt beam="1">  1        2 0.91352545E-01 0.81524909E+02</pdfrwt>
<pdfrwt beam="2">  1       -1 0.43050013E-03 0.81524909E+02</pdfrwt>
<totfact> 0.30530923E+05</totfact>
</mgrwt>
</event>
<event>
 8    1  0.1520917E-013  0.8046716E+02  0.7818608E-02  0.1327731E+00
         -1   -1    0    0    0  501 -0.00000000000E+00  0.00000000000E+00  0.12358234262E+02  0.12358235289E+02  0.50400000000E-02 0.  1.
          2   -1    0    0  501    0  0.00000000000E+00 -0.00000000000E+00 -0.13098481762E+03  0.13098481765E+03  0.25500000000E-02 0. -1.
         24    2    1    2    0    0  0.00000000000E+00 -0.71054273576E-14 -0.11862658336E+03  0.14334305294E+03  0.80467164393E+02 0.  0.
         66    2    3    3    0    0  0.17659616149E+02  0.32880011129E+02 -0.85998014612E+02  0.93768948437E+02  0.19999998491E+01 0.  0.
        -13    1    3    3    0    0 -0.17659616149E+02 -0.32880011129E+02 -0.32628568750E+02  0.49574104501E+02  0.10566000000E+00 0.  1.
         13    1    4    4    0    0  0.79936395664E+01  0.14049568606E+02 -0.37345544469E+02  0.40693850976E+02  0.10566000000E+00 0. -1.
        -13    1    4    4    0    0  0.67225879484E+01  0.12192545690E+02 -0.30704348004E+02  0.33713788121E+02  0.10566000000E+00 0.  1.
         14    1    4    4    0    0  0.29433886346E+01  0.66378968334E+01 -0.17948122139E+02  0.19361309340E+02  0.00000000000E+00 0. -1.
<mgrwt>
<rscale>  0 0.80467164E+02</rscale>
<asrwt>0</asrwt>
<pdfrwt beam="1">  1        2 0.20151510E-01 0.80467164E+02</pdfrwt>
<pdfrwt beam="2">  1       -1 0.19012670E-02 0.80467164E+02</pdfrwt>
<totfact> 0.18895991E+05</totfact>
</mgrwt>
</event>
<event>
 8    1  0.1520917E-013  0.7954667E+02  0.7818608E-02  0.1330343E+00
         -1   -1    0    0    0  501 -0.00000000000E+00  0.00000000000E+00  0.11731613525E+02  0.11731614608E+02  0.50400000000E-02 0.  1.
          2   -1    0    0  501    0  0.00000000000E+00 -0.00000000000E+00 -0.13484231805E+03  0.13484231807E+03  0.25500000000E-02 0. -1.
         24    2    1    2    0    0  0.00000000000E+00  0.00000000000E+00 -0.12311070452E+03  0.14657393268E+03  0.79546666637E+02 0.  0.
         66    2    3    3    0    0  0.11501766016E+02  0.17044101610E+02 -0.12427345808E+03  0.12597890461E+03  0.20000010670E+01 0.  0.
        -13    1    3    3    0    0 -0.11501766016E+02 -0.17044101610E+02  0.11627535535E+01  0.20595028066E+02  0.10566000000E+00 0.  1.
         13    1    4    4    0    0  0.62951646633E+01  0.99496422204E+01 -0.68609125039E+02  0.69612123090E+02  0.10566000000E+00 0. -1.
        -13    1    4    4    0    0  0.31841679799E+01  0.35027818075E+01 -0.31343112088E+02  0.31698742017E+02  0.10566000000E+00 0.  1.
        -14    1    4    4    0    0  0.20224333731E+01  0.35916775819E+01 -0.24321220950E+02  0.24668039507E+02  0.00000000000E+00 0.  1.
<mgrwt>
<rscale>  0 0.79546667E+02</rscale>
<asrwt>0</asrwt>
<pdfrwt beam="1">  1        2 0.20744971E-01 0.79546667E+02</pdfrwt>
<pdfrwt beam="2">  1       -1 0.18048638E-02 0.79546667E+02</pdfrwt>
<totfact> 0.19659583E+05</totfact>
</mgrwt>
</event>
<event>
 8    1  0.1520917E-013  0.8153574E+02  0.7818608E-02  0.1324749E+00
         -1   -1    0    0    0  501 -0.00000000000E+00  0.00000000000E+00  0.61090873329E+01  0.61090894119E+01  0.50400000000E-02 0.  1.
          2   -1    0    0  501    0  0.00000000000E+00 -0.00000000000E+00 -0.27205682802E+03  0.27205682803E+03  0.25500000000E-02 0. -1.
         24    2    1    2    0    0  0.00000000000E+00  0.35527136788E-14 -0.26594774068E+03  0.27816591744E+03  0.81535739714E+02 0.  0.
         66    2    3    3    0    0 -0.21767862572E+02  0.19972288445E+02 -0.22877770884E+03  0.23068587344E+03  0.19999994959E+01 0.  0.
        -13    1    3    3    0    0  0.21767862572E+02 -0.19972288445E+02 -0.37170031848E+02  0.47480044000E+02  0.10566000000E+00 0.  1.
         13    1    4    4    0    0 -0.15531167474E+02  0.14743386907E+02 -0.16746566970E+03  0.16882934079E+03  0.10566000000E+00 0. -1.
        -13    1    4    4    0    0 -0.15110856833E+01  0.12697822654E+01 -0.12201410124E+02  0.12360473292E+02  0.10566000000E+00 0.  1.
        -14    1    4    4    0    0 -0.47256094150E+01  0.39591192726E+01 -0.49110629016E+02  0.49496059359E+02  0.00000000000E+00 0.  1.
<mgrwt>
<rscale>  0 0.81535740E+02</rscale>
<asrwt>0</asrwt>
<pdfrwt beam="1">  1        2 0.41854887E-01 0.81535740E+02</pdfrwt>
<pdfrwt beam="2">  1       -1 0.93985997E-03 0.81535740E+02</pdfrwt>
<totfact> 0.23407958E+05</totfact>
</mgrwt>
</event>
<event>
 8    1  0.1520917E-013  0.7846174E+02  0.7818608E-02  0.1333474E+00
         -1   -1    0    0    0  501 -0.00000000000E+00  0.00000000000E+00  0.11543386736E+02  0.11543387836E+02  0.50400000000E-02 0.  1.
          2   -1    0    0  501    0  0.00000000000E+00 -0.00000000000E+00 -0.13332838265E+03  0.13332838268E+03  0.25500000000E-02 0. -1.
         24    2    1    2    0    0  0.00000000000E+00  0.00000000000E+00 -0.12178499592E+03  0.14487177051E+03  0.78461740109E+02 0.  0.
         66    2    3    3    0    0 -0.27777208347E+02  0.80844987608E+01 -0.10978742887E+03  0.11355268363E+03  0.19999998031E+01 0.  0.
        -13    1    3    3    0    0  0.27777208347E+02 -0.80844987608E+01 -0.11997567048E+02  0.31319086878E+02  0.10566000000E+00 0.  1.
         13    1    4    4    0    0 -0.25608168845E+02  0.69121886491E+01 -0.10006110474E+03  0.10351711216E+03  0.10566000000E+00 0. -1.
        -13    1    4    4    0    0 -0.90229868416E+00  0.44840558763E+00 -0.39723310921E+01  0.40994864102E+01  0.10566000000E+00 0. -1.
         14    1    4    4    0    0 -0.12667408182E+01  0.72390452403E+00 -0.57539930342E+01  0.59360850649E+01  0.00000000000E+00 0. -1.
<mgrwt>
<rscale>  0 0.78461740E+02</rscale>
<asrwt>0</asrwt>
<pdfrwt beam="1">  1        2 0.20512058E-01 0.78461740E+02</pdfrwt>
<pdfrwt beam="2">  1       -1 0.17759058E-02 0.78461740E+02</pdfrwt>
<totfact> 0.20318560E+05</totfact>
</mgrwt>
</event>
<event>
 8    1  0.1520917E-013  0.8060071E+02  0.7818608E-02  0.1327355E+00
         -1   -1    0    0    0  501 -0.00000000000E+00  0.00000000000E+00  0.12571756322E+02  0.12571757332E+02  0.50400000000E-02 0.  1.
          2   -1    0    0  501    0  0.00000000000E+00 -0.00000000000E+00 -0.12918788330E+03  0.12918788332E+03  0.25500000000E-02 0. -1.
         24    2    1    2    0    0  0.00000000000E+00 -0.17763568394E-14 -0.11661612697E+03  0.14175964065E+03  0.80600711212E+02 0.  0.
         66    2    3    3    0    0  0.34112645083E+02 -0.14465728969E+02 -0.86107328827E+02  0.93762476180E+02  0.19999981134E+01 0.  0.
        -13    1    3    3    0    0 -0.34112645083E+02  0.14465728969E+02 -0.30508798147E+02  0.47997164475E+02  0.10566000000E+00 0.  1.
         13    1    4    4    0    0  0.81979233336E+01 -0.29824121835E+01 -0.19732333021E+02  0.21574912744E+02  0.10566000000E+00 0. -1.
        -13    1    4    4    0    0  0.45601506137E+01 -0.15606933073E+01 -0.12064127589E+02  0.12991731053E+02  0.10566000000E+00 0.  1.
        -14    1    4    4    0    0  0.21354571136E+02 -0.99226234784E+01 -0.54310868217E+02  0.59195832384E+02  0.00000000000E+00 0.  1.
<mgrwt>
<rscale>  0 0.80600711E+02</rscale>
<asrwt>0</asrwt>
<pdfrwt beam="1">  1        2 0.19875058E-01 0.80600711E+02</pdfrwt>
<pdfrwt beam="2">  1       -1 0.19341165E-02 0.80600711E+02</pdfrwt>
<totfact> 0.18732706E+05</totfact>
</mgrwt>
</event>
<event>
 8    1  0.1520917E-013  0.7888406E+02  0.7818608E-02  0.1332248E+00
         -1   -1    0    0    0  501 -0.00000000000E+00  0.00000000000E+00  0.22387261871E+02  0.22387262438E+02  0.50400000000E-02 0.  1.
          2   -1    0    0  501    0  0.00000000000E+00 -0.00000000000E+00 -0.69489229257E+02  0.69489229304E+02  0.25500000000E-02 0. -1.
         24    2    1    2    0    0  0.00000000000E+00  0.00000000000E+00 -0.47101967386E+02  0.91876491742E+02  0.78884056711E+02 0.  0.
         66    2    3    3    0    0  0.22469616034E+02  0.86093020329E+01 -0.59927667823E+02  0.64609048115E+02  0.20000003358E+01 0.  0.
        -13    1    3    3    0    0 -0.22469616034E+02 -0.86093020329E+01  0.12825700438E+02  0.27267443627E+02  0.10566000000E+00 0.  1.
         13    1    4    4    0    0  0.34377114497E+01  0.81796348316E+00 -0.78535093229E+01  0.86125313928E+01  0.10566000000E+00 0. -1.
        -13    1    4    4    0    0  0.76948027594E+00  0.17390594837E+00 -0.22712740315E+01  0.24066975165E+01  0.10566000000E+00 0. -1.
         14    1    4    4    0    0  0.18262424308E+02  0.76174326013E+01 -0.49802884469E+02  0.53589819206E+02  0.00000000000E+00 0. -1.
<mgrwt>
<rscale>  0 0.78884057E+02</rscale>
<asrwt>0</asrwt>
<pdfrwt beam="1">  1        2 0.10690651E-01 0.78884057E+02</pdfrwt>
<pdfrwt beam="2">  1       -1 0.34441942E-02 0.78884057E+02</pdfrwt>
<totfact> 0.16741934E+05</totfact>
</mgrwt>
</event>
<event>
 8    1  0.1520917E-013  0.7959349E+02  0.7818608E-02  0.1330209E+00
         -1   -1    0    0    0  501 -0.00000000000E+00  0.00000000000E+00  0.11526218570E+02  0.11526219672E+02  0.50400000000E-02 0.  1.
          2   -1    0    0  501    0  0.00000000000E+00 -0.00000000000E+00 -0.13740678597E+03  0.13740678600E+03  0.25500000000E-02 0. -1.
         24    2    1    2    0    0  0.00000000000E+00 -0.17763568394E-14 -0.12588056740E+03  0.14893300567E+03  0.79593485462E+02 0.  0.
         66    2    3    3    0    0  0.11439587109E+02  0.10742888626E+02 -0.13136095264E+03  0.13231014203E+03  0.19999986840E+01 0.  0.
        -13    1    3    3    0    0 -0.11439587109E+02 -0.10742888626E+02  0.54803852395E+01  0.16622863642E+02  0.10566000000E+00 0.  1.
         13    1    4    4    0    0  0.44582129006E+01  0.43437206567E+01 -0.50205530694E+02  0.50590019250E+02  0.10566000000E+00 0. -1.
        -13    1    4    4    0    0  0.15609672194E+00  0.66037995083E-01 -0.70660353416E+00  0.73428863091E+00  0.10566000000E+00 0. -1.
         14    1    4    4    0    0  0.68252774860E+01  0.63331299746E+01 -0.80448818416E+02  0.80985834147E+02  0.00000000000E+00 0. -1.
<mgrwt>
<rscale>  0 0.79593485E+02</rscale>
<asrwt>0</asrwt>
<pdfrwt beam="1">  1        2 0.21139504E-01 0.79593485E+02</pdfrwt>
<pdfrwt beam="2">  1       -1 0.17732646E-02 0.79593485E+02</pdfrwt>
<totfact> 0.19744742E+05</totfact>
</mgrwt>
</event>
<event>
 8    1  0.1520917E-013  0.7918398E+02  0.7818608E-02  0.1331383E+00
          2   -1    0    0  501    0  0.00000000000E+00  0.00000000000E+00  0.12218087486E+02  0.12218087752E+02  0.25500000000E-02 0. -1.
         -1   -1    0    0    0  501 -0.00000000000E+00 -0.00000000000E+00 -0.12829550480E+03  0.12829550490E+03  0.50400000000E-02 0.  1.
         24    2    1    2    0    0  0.00000000000E+00  0.00000000000E+00 -0.11607741732E+03  0.14051359265E+03  0.79183981394E+02 0.  0.
         66    2    3    3    0    0 -0.61455744287E+00 -0.39494564519E+02 -0.53981726437E+02  0.66919541961E+02  0.19999999300E+01 0.  0.
        -13    1    3    3    0    0  0.61455744287E+00  0.39494564519E+02 -0.62095690881E+02  0.73594050693E+02  0.10566000000E+00 0.  1.
         13    1    4    4    0    0  0.49694482313E+00 -0.15147595562E+02 -0.21684428691E+02  0.26456043113E+02  0.10566000000E+00 0. -1.
        -13    1    4    4    0    0 -0.21380034947E+00 -0.85452738396E+01 -0.11303084622E+02  0.14171743068E+02  0.10566000000E+00 0.  1.
         14    1    4    4    0    0 -0.89770191653E+00 -0.15801695117E+02 -0.20994213124E+02  0.26291755780E+02  0.00000000000E+00 0. -1.
<mgrwt>
<rscale>  0 0.79183981E+02</rscale>
<asrwt>0</asrwt>
<pdfrwt beam="1">  1        2 0.18797059E-02 0.79183981E+02</pdfrwt>
<pdfrwt beam="2">  1       -1 0.19737769E-01 0.79183981E+02</pdfrwt>
<totfact> 0.11501556E+05</totfact>
</mgrwt>
</event>
<event>
 8    1  0.1520917E-013  0.7272212E+02  0.7818608E-02  0.1351074E+00
          2   -1    0    0  501    0  0.00000000000E+00  0.00000000000E+00  0.11763857521E+03  0.11763857524E+03  0.25500000000E-02 0. -1.
         -1   -1    0    0    0  501 -0.00000000000E+00 -0.00000000000E+00 -0.11238885431E+02  0.11238886561E+02  0.50400000000E-02 0.  1.
         24    2    1    2    0    0  0.00000000000E+00 -0.88817841970E-15  0.10639968978E+03  0.12887746180E+03  0.72722116130E+02 0.  0.
         66    2    3    3    0    0 -0.18769645063E+02  0.57446865194E+01  0.10742441577E+03  0.10922136284E+03  0.19999994399E+01 0.  0.
        -13    1    3    3    0    0  0.18769645063E+02 -0.57446865194E+01 -0.10247259893E+01  0.19656098961E+02  0.10566000000E+00 0.  1.
         13    1    4    4    0    0 -0.70095382372E+01  0.21755568687E+01  0.35816155357E+02  0.36560563762E+02  0.10566000000E+00 0. -1.
        -13    1    4    4    0    0 -0.47054772687E+01  0.12151025376E+01  0.30582298913E+02  0.30966209993E+02  0.10566000000E+00 0.  1.
        -14    1    4    4    0    0 -0.70546295568E+01  0.23540271130E+01  0.41025961499E+02  0.41694589082E+02  0.00000000000E+00 0.  1.
<mgrwt>
<rscale>  0 0.72722116E+02</rscale>
<asrwt>0</asrwt>
<pdfrwt beam="1">  1        2 0.18098241E-01 0.72722116E+02</pdfrwt>
<pdfrwt beam="2">  1       -1 0.17290595E-02 0.72722116E+02</pdfrwt>
<totfact> 0.23921504E+05</totfact>
</mgrwt>
</event>
<event>
 8    1  0.1520917E-013  0.8012441E+02  0.7818608E-02  0.1328699E+00
          2   -1    0    0  501    0  0.00000000000E+00  0.00000000000E+00  0.33608498047E+02  0.33608498144E+02  0.25500000000E-02 0. -1.
         -1   -1    0    0    0  501 -0.00000000000E+00 -0.00000000000E+00 -0.47755186874E+02  0.47755187140E+02  0.50400000000E-02 0.  1.
         24    2    1    2    0    0 -0.35527136788E-14  0.35527136788E-14 -0.14146688827E+02  0.81363685284E+02  0.80124406258E+02 0.  0.
         66    2    3    3    0    0  0.16392771220E+02 -0.11329196979E+02  0.28185459563E+02  0.34575913336E+02  0.19999999461E+01 0.  0.
        -13    1    3    3    0    0 -0.16392771220E+02  0.11329196979E+02 -0.42332148390E+02  0.46787771948E+02  0.10566000000E+00 0.  1.
         13    1    4    4    0    0  0.60621785592E+01 -0.42712159510E+01  0.11197638548E+02  0.13430992803E+02  0.10566000000E+00 0. -1.
        -13    1    4    4    0    0  0.28392898845E+01 -0.25089775229E+01  0.58794202932E+01  0.69953757782E+01  0.10566000000E+00 0.  1.
        -14    1    4    4    0    0  0.74913027768E+01 -0.45490035052E+01  0.11108400722E+02  0.14149544755E+02  0.00000000000E+00 0.  1.
<mgrwt>
<rscale>  0 0.80124406E+02</rscale>
<asrwt>0</asrwt>
<pdfrwt beam="1">  1        2 0.51705382E-02 0.80124406E+02</pdfrwt>
<pdfrwt beam="2">  1       -1 0.73469519E-02 0.80124406E+02</pdfrwt>
<totfact> 0.13702345E+05</totfact>
</mgrwt>
</event>
<event>
 8    1  0.1520917E-013  0.8347571E+02  0.7818608E-02  0.1319468E+00
         -1   -1    0    0    0  501 -0.00000000000E+00  0.00000000000E+00  0.26439166097E+02  0.26439166578E+02  0.50400000000E-02 0.  1.
          2   -1    0    0  501    0  0.00000000000E+00 -0.00000000000E+00 -0.65888941331E+02  0.65888941380E+02  0.25500000000E-02 0. -1.
         24    2    1    2    0    0  0.17763568394E-14  0.17763568394E-14 -0.39449775233E+02  0.92328107958E+02  0.83475713552E+02 0.  0.
         66    2    3    3    0    0  0.14939531402E+02  0.15152824966E+02 -0.59419185389E+02  0.63146157903E+02  0.19999906675E+01 0.  0.
        -13    1    3    3    0    0 -0.14939531402E+02 -0.15152824966E+02  0.19969410156E+02  0.29181950054E+02  0.10566000000E+00 0.  1.
         13    1    4    4    0    0  0.64368586437E+01  0.55092609434E+01 -0.22318727322E+02  0.23873036226E+02  0.10566000000E+00 0. -1.
        -13    1    4    4    0    0  0.78088266529E+01  0.90353683606E+01 -0.34909841034E+02  0.36896122020E+02  0.10566000000E+00 0.  1.
        -14    1    4    4    0    0  0.69384610564E+00  0.60819566232E+00 -0.21906170334E+01  0.23769996570E+01  0.00000000000E+00 0.  1.
<mgrwt>
<rscale>  0 0.83475714E+02</rscale>
<asrwt>0</asrwt>
<pdfrwt beam="1">  1        2 0.10136760E-01 0.83475714E+02</pdfrwt>
<pdfrwt beam="2">  1       -1 0.40675641E-02 0.83475714E+02</pdfrwt>
<totfact> 0.14174111E+05</totfact>
</mgrwt>
</event>
<event>
 8    1  0.1520917E-013  0.8152112E+02  0.7818608E-02  0.1324789E+00
         -1   -1    0    0    0  501 -0.00000000000E+00  0.00000000000E+00  0.25036171221E+02  0.25036171728E+02  0.50400000000E-02 0.  1.
          2   -1    0    0  501    0  0.00000000000E+00 -0.00000000000E+00 -0.66360910147E+02  0.66360910196E+02  0.25500000000E-02 0. -1.
         24    2    1    2    0    0  0.00000000000E+00  0.00000000000E+00 -0.41324738926E+02  0.91397081924E+02  0.81521117123E+02 0.  0.
         66    2    3    3    0    0  0.13224274562E+02 -0.60383157639E+01 -0.63338401199E+02  0.65016119363E+02  0.20000038797E+01 0.  0.
        -13    1    3    3    0    0 -0.13224274562E+02  0.60383157639E+01  0.22013662273E+02  0.26380962562E+02  0.10566000000E+00 0.  1.
         13    1    4    4    0    0  0.11513976247E+02 -0.54817039524E+01 -0.57413728464E+02  0.58812992675E+02  0.10566000000E+00 0. -1.
        -13    1    4    4    0    0  0.11050137431E+01 -0.52723594473E+00 -0.38047080435E+01  0.39982496727E+01  0.10566000000E+00 0. -1.
         14    1    4    4    0    0  0.60528457262E+00 -0.29375866732E-01 -0.21199646919E+01  0.22048770148E+01  0.00000000000E+00 0. -1.
<mgrwt>
<rscale>  0 0.81521117E+02</rscale>
<asrwt>0</asrwt>
<pdfrwt beam="1">  1        2 0.10209371E-01 0.81521117E+02</pdfrwt>
<pdfrwt beam="2">  1       -1 0.38517187E-02 0.81521117E+02</pdfrwt>
<totfact> 0.15144816E+05</totfact>
</mgrwt>
</event>
<event>
 8    1  0.1520917E-013  0.7996896E+02  0.7818608E-02  0.1329140E+00
         -1   -1    0    0    0  501 -0.00000000000E+00  0.00000000000E+00  0.89170625167E+02  0.89170625310E+02  0.50400000000E-02 0.  1.
          2   -1    0    0  501    0  0.00000000000E+00 -0.00000000000E+00 -0.17929206235E+02  0.17929206416E+02  0.25500000000E-02 0. -1.
         24    2    1    2    0    0  0.00000000000E+00  0.00000000000E+00  0.71241418933E+02  0.10709983173E+03  0.79968957628E+02 0.  0.
         66    2    3    3    0    0 -0.35491550450E+02  0.85703047465E+01  0.13896698495E+02  0.39118007663E+02  0.20000044166E+01 0.  0.
        -13    1    3    3    0    0  0.35491550450E+02 -0.85703047465E+01  0.57344720437E+02  0.67981824063E+02  0.10566000000E+00 0.  1.
         13    1    4    4    0    0 -0.19778103624E+02  0.43741025902E+01  0.83635274624E+01  0.21914970045E+02  0.10566000000E+00 0. -1.
        -13    1    4    4    0    0 -0.11073706162E+02  0.33030981123E+01  0.36867231838E+01  0.12130149099E+02  0.10566000000E+00 0.  1.
        -14    1    4    4    0    0 -0.46397406646E+01  0.89310404400E+00  0.18464478489E+01  0.50728885191E+01  0.00000000000E+00 0.  1.
<mgrwt>
<rscale>  0 0.79968958E+02</rscale>
<asrwt>0</asrwt>
<pdfrwt beam="1">  1        2 0.27583395E-02 0.79968958E+02</pdfrwt>
<pdfrwt beam="2">  1       -1 0.13718558E-01 0.79968958E+02</pdfrwt>
<totfact> 0.12154506E+05</totfact>
</mgrwt>
</event>
<event>
 8    1  0.1520917E-013  0.7980434E+02  0.7818608E-02  0.1329608E+00
         -1   -1    0    0    0  501 -0.00000000000E+00  0.00000000000E+00  0.72415837878E+01  0.72415855417E+01  0.50400000000E-02 0.  1.
          2   -1    0    0  501    0  0.00000000000E+00 -0.00000000000E+00 -0.21986667572E+03  0.21986667573E+03  0.25500000000E-02 0. -1.
         24    2    1    2    0    0  0.00000000000E+00  0.00000000000E+00 -0.21262509193E+03  0.22710826128E+03  0.79804339612E+02 0.  0.
         66    2    3    3    0    0 -0.55572682887E+01  0.35808013394E+02 -0.15374984294E+03  0.15797503365E+03  0.19999997208E+01 0.  0.
        -13    1    3    3    0    0  0.55572682887E+01 -0.35808013394E+02 -0.58875248994E+02  0.69133227628E+02  0.10566000000E+00 0.  1.
         13    1    4    4    0    0 -0.24642390600E+01  0.21511625520E+02 -0.92799767974E+02  0.95292342855E+02  0.10566000000E+00 0. -1.
        -13    1    4    4    0    0 -0.82267877962E+00  0.36221182306E+01 -0.14656129928E+02  0.15119849515E+02  0.10566000000E+00 0.  1.
         14    1    4    4    0    0 -0.22703504490E+01  0.10674269643E+02 -0.46293945035E+02  0.47562841278E+02  0.00000000000E+00 0. -1.
<mgrwt>
<rscale>  0 0.79804340E+02</rscale>
<asrwt>0</asrwt>
<pdfrwt beam="1">  1        2 0.33825637E-01 0.79804340E+02</pdfrwt>
<pdfrwt beam="2">  1       -1 0.11140901E-02 0.79804340E+02</pdfrwt>
<totfact> 0.22949896E+05</totfact>
</mgrwt>
</event>
<event>
 8    1  0.1520917E-013  0.7965626E+02  0.7818608E-02  0.1330030E+00
         -1   -1    0    0    0  501 -0.00000000000E+00  0.00000000000E+00  0.12828960513E+01  0.12829059514E+01  0.50400000000E-02 0.  1.
          2   -1    0    0  501    0  0.00000000000E+00 -0.00000000000E+00 -0.12364788872E+04  0.12364788872E+04  0.25500000000E-02 0. -1.
         24    2    1    2    0    0  0.88817841970E-15 -0.17763568394E-14 -0.12351959911E+04  0.12377617931E+04  0.79656261788E+02 0.  0.
         66    2    3    3    0    0 -0.59223347565E+01  0.15333089313E+02 -0.11812747995E+04  0.11813908454E+04  0.20000003164E+01 0.  0.
        -13    1    3    3    0    0  0.59223347565E+01 -0.15333089313E+02 -0.53921191609E+02  0.56370947708E+02  0.10566000000E+00 0.  1.
         13    1    4    4    0    0 -0.48876352559E+01  0.13267363081E+02 -0.10139857413E+04  0.10140843193E+04  0.10566000000E+00 0. -1.
        -13    1    4    4    0    0 -0.16525070737E+00  0.10231418423E+01 -0.62626901540E+02  0.62635565676E+02  0.10566000000E+00 0.  1.
        -14    1    4    4    0    0 -0.86944879316E+00  0.10425843891E+01 -0.10466215667E+03  0.10467096045E+03  0.00000000000E+00 0.  1.
<mgrwt>
<rscale>  0 0.79656262E+02</rscale>
<asrwt>0</asrwt>
<pdfrwt beam="1">  1        2 0.19022657E+00 0.79656262E+02</pdfrwt>
<pdfrwt beam="2">  1       -1 0.19737037E-03 0.79656262E+02</pdfrwt>
<totfact> 0.35299441E+05</totfact>
</mgrwt>
</event>
<event>
 8    1  0.1520917E-013  0.8154811E+02  0.7818608E-02  0.1324715E+00
          2   -1    0    0  501    0  0.00000000000E+00  0.00000000000E+00  0.82584159896E+03  0.82584159897E+03  0.25500000000E-02 0. -1.
         -1   -1    0    0    0  501 -0.00000000000E+00 -0.00000000000E+00 -0.20131230689E+01  0.20131293779E+01  0.50400000000E-02 0.  1.
         24    2    1    2    0    0  0.00000000000E+00  0.00000000000E+00  0.82382847589E+03  0.82785472834E+03  0.81548105735E+02 0.  0.
         66    2    3    3    0    0  0.27930028758E+02  0.89028187410E+01  0.69950592557E+03  0.70012276535E+03  0.19999906715E+01 0.  0.
        -13    1    3    3    0    0 -0.27930028758E+02 -0.89028187410E+01  0.12432255033E+03  0.12773196300E+03  0.10566000000E+00 0.  1.
         13    1    4    4    0    0  0.39823764110E+00  0.25951788724E+00  0.83235363557E+01  0.83377673422E+01  0.10566000000E+00 0. -1.
        -13    1    4    4    0    0  0.32399617008E+01  0.10013529948E+01  0.75540280669E+02  0.75616434902E+02  0.10566000000E+00 0.  1.
         14    1    4    4    0    0  0.24291829416E+02  0.76419478589E+01  0.61564210854E+03  0.61616856310E+03  0.00000000000E+00 0. -1.
<mgrwt>
<rscale>  0 0.81548106E+02</rscale>
<asrwt>0</asrwt>
<pdfrwt beam="1">  1        2 0.12705233E+00 0.81548106E+02</pdfrwt>
<pdfrwt beam="2">  1       -1 0.30971227E-03 0.81548106E+02</pdfrwt>
<totfact> 0.32866848E+05</totfact>
</mgrwt>
</event>
<event>
 8    1  0.1520917E-013  0.7972366E+02  0.7818608E-02  0.1329837E+00
         -1   -1    0    0    0  501 -0.00000000000E+00  0.00000000000E+00  0.27486615650E+01  0.27486661857E+01  0.50400000000E-02 0.  1.
          2   -1    0    0  501    0  0.00000000000E+00 -0.00000000000E+00 -0.57808650393E+03  0.57808650394E+03  0.25500000000E-02 0. -1.
         24    2    1    2    0    0  0.17763568394E-14  0.71054273576E-14 -0.57533784237E+03  0.58083517012E+03  0.79723660181E+02 0.  0.
         66    2    3    3    0    0  0.12311256887E+02  0.28780187902E+02 -0.46736156489E+03  0.46841295735E+03  0.20000050430E+01 0.  0.
        -13    1    3    3    0    0 -0.12311256887E+02 -0.28780187902E+02 -0.10797627748E+03  0.11242221277E+03  0.10566000000E+00 0.  1.
         13    1    4    4    0    0  0.75390001913E+01  0.17947888855E+02 -0.28682918957E+03  0.28748905787E+03  0.10566000000E+00 0. -1.
        -13    1    4    4    0    0  0.18175572201E+01  0.28787394060E+01 -0.49290617672E+02  0.49408165411E+02  0.10566000000E+00 0. -1.
        -14    1    4    4    0    0  0.29546994760E+01  0.79535596405E+01 -0.13124175764E+03  0.13151573407E+03  0.00000000000E+00 0.  1.
<mgrwt>
<rscale>  0 0.79723660E+02</rscale>
<asrwt>0</asrwt>
<pdfrwt beam="1">  1        2 0.88936288E-01 0.79723660E+02</pdfrwt>
<pdfrwt beam="2">  1       -1 0.42287183E-03 0.79723660E+02</pdfrwt>
<totfact> 0.32114149E+05</totfact>
</mgrwt>
</event>
<event>
 8    1  0.1520917E-013  0.8067391E+02  0.7818608E-02  0.1327150E+00
         -1   -1    0    0    0  501 -0.00000000000E+00  0.00000000000E+00  0.45462954083E+02  0.45462954362E+02  0.50400000000E-02 0.  1.
          2   -1    0    0  501    0  0.00000000000E+00 -0.00000000000E+00 -0.35788919910E+02  0.35788920001E+02  0.25500000000E-02 0. -1.
         24    2    1    2    0    0  0.00000000000E+00  0.88817841970E-15  0.96740341731E+01  0.81251874363E+02  0.80673912452E+02 0.  0.
         66    2    3    3    0    0  0.19064176545E+02 -0.76466243004E+01 -0.30094990827E+02  0.36491398449E+02  0.19999993355E+01 0.  0.
        -13    1    3    3    0    0 -0.19064176545E+02  0.76466243004E+01  0.39769025000E+02  0.44760475914E+02  0.10566000000E+00 0.  1.
         13    1    4    4    0    0  0.67575151929E+01 -0.19595656446E+01 -0.11317914119E+02  0.13327049679E+02  0.10566000000E+00 0. -1.
        -13    1    4    4    0    0  0.11781818713E+02 -0.53411760256E+01 -0.17905552467E+02  0.22089802777E+02  0.10566000000E+00 0.  1.
        -14    1    4    4    0    0  0.52484263984E+00 -0.34588263017E+00 -0.87152424035E+00  0.10745459934E+01  0.00000000000E+00 0.  1.
<mgrwt>
<rscale>  0 0.80673912E+02</rscale>
<asrwt>0</asrwt>
<pdfrwt beam="1">  1        2 0.55059877E-02 0.80673912E+02</pdfrwt>
<pdfrwt beam="2">  1       -1 0.69943006E-02 0.80673912E+02</pdfrwt>
<totfact> 0.13615027E+05</totfact>
</mgrwt>
</event>
<event>
 8    1  0.1520917E-013  0.7910098E+02  0.7818608E-02  0.1331622E+00
         -1   -1    0    0    0  501 -0.00000000000E+00  0.00000000000E+00  0.23454409580E+01  0.23454463731E+01  0.50400000000E-02 0.  1.
          2   -1    0    0  501    0  0.00000000000E+00 -0.00000000000E+00 -0.66692760935E+03  0.66692760935E+03  0.25500000000E-02 0. -1.
         24    2    1    2    0    0 -0.17763568394E-14 -0.35527136788E-14 -0.66458216839E+03  0.66927305573E+03  0.79100977104E+02 0.  0.
         66    2    3    3    0    0 -0.14486435710E+02  0.30196514957E+02 -0.51009313472E+03  0.51119535641E+03  0.19999958998E+01 0.  0.
        -13    1    3    3    0    0  0.14486435710E+02 -0.30196514957E+02 -0.15448903367E+03  0.15807769932E+03  0.10566000000E+00 0.  1.
         13    1    4    4    0    0 -0.86004469895E+01  0.17545349345E+02 -0.30848218240E+03  0.30910042865E+03  0.10566000000E+00 0. -1.
        -13    1    4    4    0    0 -0.19545299410E+01  0.43837098947E+01 -0.64013572871E+02  0.64193346816E+02  0.10566000000E+00 0.  1.
        -14    1    4    4    0    0 -0.39314587800E+01  0.82674557168E+01 -0.13759737945E+03  0.13790158094E+03  0.00000000000E+00 0.  1.
<mgrwt>
<rscale>  0 0.79100977E+02</rscale>
<asrwt>0</asrwt>
<pdfrwt beam="1">  1        2 0.10260410E+00 0.79100977E+02</pdfrwt>
<pdfrwt beam="2">  1       -1 0.36083802E-03 0.79100977E+02</pdfrwt>
<totfact> 0.34055010E+05</totfact>
</mgrwt>
</event>
<event>
 8    1  0.1520917E-013  0.8006217E+02  0.7818608E-02  0.1328875E+00
          2   -1    0    0  501    0  0.00000000000E+00  0.00000000000E+00  0.16901601009E+02  0.16901601202E+02  0.25500000000E-02 0. -1.
         -1   -1    0    0    0  501 -0.00000000000E+00 -0.00000000000E+00 -0.94812769360E+02  0.94812769494E+02  0.50400000000E-02 0.  1.
         24    2    1    2    0    0 -0.35527136788E-14  0.00000000000E+00 -0.77911168351E+02  0.11171437070E+03  0.80062166259E+02 0.  0.
         66    2    3    3    0    0 -0.19150070518E+02  0.19236894835E+02  0.20276466105E+01  0.27292758385E+02  0.19999964325E+01 0.  0.
        -13    1    3    3    0    0  0.19150070518E+02 -0.19236894835E+02 -0.79938814961E+02  0.84421612311E+02  0.10566000000E+00 0.  1.
         13    1    4    4    0    0 -0.12349575231E+02  0.11652653779E+02  0.13659892137E+01  0.17034477951E+02  0.10566000000E+00 0. -1.
        -13    1    4    4    0    0 -0.59136379545E+00  0.63742267797E+00 -0.20880095708E+00  0.90043360902E+00  0.10566000000E+00 0.  1.
         14    1    4    4    0    0 -0.62091314911E+01  0.69468183781E+01  0.87045835388E+00  0.93578468248E+01  0.00000000000E+00 0. -1.
<mgrwt>
<rscale>  0 0.80062166E+02</rscale>
<asrwt>0</asrwt>
<pdfrwt beam="1">  1        2 0.26002464E-02 0.80062166E+02</pdfrwt>
<pdfrwt beam="2">  1       -1 0.14586580E-01 0.80062166E+02</pdfrwt>
<totfact> 0.11964834E+05</totfact>
</mgrwt>
</event>
<event>
 8    1  0.1520917E-013  0.7868457E+02  0.7818608E-02  0.1332826E+00
         -1   -1    0    0    0  501 -0.00000000000E+00  0.00000000000E+00  0.66814367612E+01  0.66814386621E+01  0.50400000000E-02 0.  1.
          2   -1    0    0  501    0  0.00000000000E+00 -0.00000000000E+00 -0.23165901734E+03  0.23165901736E+03  0.25500000000E-02 0. -1.
         24    2    1    2    0    0  0.00000000000E+00  0.00000000000E+00 -0.22497758058E+03  0.23834045602E+03  0.78684567807E+02 0.  0.
         66    2    3    3    0    0 -0.12726732955E+02  0.18857333970E+02 -0.20969179919E+03  0.21093178854E+03  0.19999982952E+01 0.  0.
        -13    1    3    3    0    0  0.12726732955E+02 -0.18857333970E+02 -0.15285781392E+02  0.27408667479E+02  0.10566000000E+00 0.  1.
         13    1    4    4    0    0 -0.59703842144E+01  0.78361554334E+01 -0.90689503954E+02  0.91223067867E+02  0.10566000000E+00 0. -1.
        -13    1    4    4    0    0 -0.11153761844E+01  0.27212432454E+01 -0.28731777789E+02  0.28882095627E+02  0.10566000000E+00 0.  1.
        -14    1    4    4    0    0 -0.56409725559E+01  0.82999352913E+01 -0.90270517447E+02  0.90826625046E+02  0.00000000000E+00 0.  1.
<mgrwt>
<rscale>  0 0.78684568E+02</rscale>
<asrwt>0</asrwt>
<pdfrwt beam="1">  1        2 0.35639843E-01 0.78684568E+02</pdfrwt>
<pdfrwt beam="2">  1       -1 0.10279137E-02 0.78684568E+02</pdfrwt>
<totfact> 0.24263374E+05</totfact>
</mgrwt>
</event>
<event>
 8    1  0.1520917E-013  0.7941447E+02  0.7818608E-02  0.1330721E+00
         -1   -1    0    0    0  501 -0.00000000000E+00  0.00000000000E+00  0.44707429553E+02  0.44707429837E+02  0.50400000000E-02 0.  1.
          2   -1    0    0  501    0  0.00000000000E+00 -0.00000000000E+00 -0.35266276657E+02  0.35266276749E+02  0.25500000000E-02 0. -1.
         24    2    1    2    0    0  0.00000000000E+00  0.00000000000E+00  0.94411528957E+01  0.79973706586E+02  0.79414472089E+02 0.  0.
         66    2    3    3    0    0  0.13303374217E+02 -0.22181511958E+02 -0.25582552494E+02  0.36434410065E+02  0.20000015962E+01 0.  0.
        -13    1    3    3    0    0 -0.13303374217E+02  0.22181511958E+02  0.35023705390E+02  0.43539296521E+02  0.10566000000E+00 0.  1.
         13    1    4    4    0    0  0.78200266907E+01 -0.12072014165E+02 -0.14189178376E+02  0.20204709611E+02  0.10566000000E+00 0. -1.
        -13    1    4    4    0    0  0.35387427722E-01 -0.87991419919E-01 -0.74948294482E-01  0.16054919018E+00  0.10566000000E+00 0. -1.
         14    1    4    4    0    0  0.54479600986E+01 -0.10021506373E+02 -0.11318425823E+02  0.16069151264E+02  0.00000000000E+00 0. -1.
<mgrwt>
<rscale>  0 0.79414472E+02</rscale>
<asrwt>0</asrwt>
<pdfrwt beam="1">  1        2 0.54255810E-02 0.79414472E+02</pdfrwt>
<pdfrwt beam="2">  1       -1 0.68780662E-02 0.79414472E+02</pdfrwt>
<totfact> 0.14181704E+05</totfact>
</mgrwt>
</event>
<event>
 8    1  0.1520917E-013  0.7693250E+02  0.7818608E-02  0.1337989E+00
         -1   -1    0    0    0  501 -0.00000000000E+00  0.00000000000E+00  0.59295816118E+01  0.59295837538E+01  0.50400000000E-02 0.  1.
          2   -1    0    0  501    0  0.00000000000E+00 -0.00000000000E+00 -0.24953735806E+03  0.24953735807E+03  0.25500000000E-02 0. -1.
         24    2    1    2    0    0  0.00000000000E+00  0.35527136788E-14 -0.24360777645E+03  0.25546694182E+03  0.76932500416E+02 0.  0.
         66    2    3    3    0    0  0.24541302522E+02 -0.29330929047E+02 -0.10899573979E+03  0.11552770320E+03  0.19999969046E+01 0.  0.
        -13    1    3    3    0    0 -0.24541302522E+02  0.29330929047E+02 -0.13461203666E+03  0.13993923862E+03  0.10566000000E+00 0.  1.
         13    1    4    4    0    0  0.36992122069E+01 -0.44820701573E+01 -0.18181426922E+02  0.19087916932E+02  0.10566000000E+00 0. -1.
        -13    1    4    4    0    0  0.67356577914E+01 -0.83297368937E+01 -0.28399870052E+02  0.30353210466E+02  0.10566000000E+00 0.  1.
        -14    1    4    4    0    0  0.14106432524E+02 -0.16519121996E+02 -0.62414442811E+02  0.66086575804E+02  0.00000000000E+00 0.  1.
<mgrwt>
<rscale>  0 0.76932500E+02</rscale>
<asrwt>0</asrwt>
<pdfrwt beam="1">  1        2 0.38390355E-01 0.76932500E+02</pdfrwt>
<pdfrwt beam="2">  1       -1 0.91224369E-03 0.76932500E+02</pdfrwt>
<totfact> 0.26429323E+05</totfact>
</mgrwt>
</event>
<event>
 8    1  0.1520917E-013  0.8092861E+02  0.7818608E-02  0.1326437E+00
         -1   -1    0    0    0  501 -0.00000000000E+00  0.00000000000E+00  0.38994999913E+01  0.38995032483E+01  0.50400000000E-02 0.  1.
          2   -1    0    0  501    0  0.00000000000E+00 -0.00000000000E+00 -0.41988952270E+03  0.41988952271E+03  0.25500000000E-02 0. -1.
         24    2    1    2    0    0  0.00000000000E+00 -0.35527136788E-14 -0.41599002271E+03  0.42378902596E+03  0.80928607597E+02 0.  0.
         66    2    3    3    0    0  0.10010964504E+02  0.23535946799E+02 -0.37215242478E+03  0.37303563830E+03  0.19999932734E+01 0.  0.
        -13    1    3    3    0    0 -0.10010964504E+02 -0.23535946799E+02 -0.43837597932E+02  0.50753387655E+02  0.10566000000E+00 0.  1.
         13    1    4    4    0    0  0.29336316431E+01  0.84868345338E+01 -0.12648396896E+03  0.12680235851E+03  0.10566000000E+00 0. -1.
        -13    1    4    4    0    0  0.49540253797E+01  0.10846738978E+02 -0.18310736375E+03  0.18349526407E+03  0.10566000000E+00 0.  1.
        -14    1    4    4    0    0  0.21233074814E+01  0.42023732873E+01 -0.62561092067E+02  0.62738015721E+02  0.00000000000E+00 0.  1.
<mgrwt>
<rscale>  0 0.80928608E+02</rscale>
<asrwt>0</asrwt>
<pdfrwt beam="1">  1        2 0.64598353E-01 0.80928608E+02</pdfrwt>
<pdfrwt beam="2">  1       -1 0.59992366E-03 0.80928608E+02</pdfrwt>
<totfact> 0.27880162E+05</totfact>
</mgrwt>
</event>
<event>
 8    1  0.1520917E-013  0.8074342E+02  0.7818608E-02  0.1326955E+00
          2   -1    0    0  501    0  0.00000000000E+00  0.00000000000E+00  0.15818068739E+03  0.15818068741E+03  0.25500000000E-02 0. -1.
         -1   -1    0    0    0  501 -0.00000000000E+00 -0.00000000000E+00 -0.10303879277E+02  0.10303880509E+02  0.50400000000E-02 0.  1.
         24    2    1    2    0    0  0.00000000000E+00  0.71054273576E-14  0.14787680811E+03  0.16848456792E+03  0.80743416136E+02 0.  0.
         66    2    3    3    0    0  0.53582835746E+01  0.39971964680E+02  0.76453217553E+02  0.86461341844E+02  0.19999990160E+01 0.  0.
        -13    1    3    3    0    0 -0.53582835746E+01 -0.39971964680E+02  0.71423590558E+02  0.82023226074E+02  0.10566000000E+00 0.  1.
         13    1    4    4    0    0  0.11239236578E+01  0.72977012530E+01  0.14912512405E+02  0.16640728297E+02  0.10566000000E+00 0. -1.
        -13    1    4    4    0    0  0.90214132411E+00  0.40657540686E+01  0.71724974602E+01  0.82945825070E+01  0.10566000000E+00 0.  1.
         14    1    4    4    0    0  0.33322185927E+01  0.28608509358E+02  0.54368207688E+02  0.61526031041E+02  0.00000000000E+00 0. -1.
<mgrwt>
<rscale>  0 0.80743416E+02</rscale>
<asrwt>0</asrwt>
<pdfrwt beam="1">  1        2 0.24335490E-01 0.80743416E+02</pdfrwt>
<pdfrwt beam="2">  1       -1 0.15852123E-02 0.80743416E+02</pdfrwt>
<totfact> 0.19884569E+05</totfact>
</mgrwt>
</event>
<event>
 8    1  0.1520917E-013  0.7975721E+02  0.7818608E-02  0.1329742E+00
          2   -1    0    0  501    0  0.00000000000E+00  0.00000000000E+00  0.61689931749E+03  0.61689931750E+03  0.25500000000E-02 0. -1.
         -1   -1    0    0    0  501 -0.00000000000E+00 -0.00000000000E+00 -0.25778947964E+01  0.25778997233E+01  0.50400000000E-02 0.  1.
         24    2    1    2    0    0  0.00000000000E+00  0.00000000000E+00  0.61432142270E+03  0.61947721722E+03  0.79757208280E+02 0.  0.
         66    2    3    3    0    0 -0.22690898015E+00  0.22205219262E+02  0.56439119673E+03  0.56483143166E+03  0.19999996055E+01 0.  0.
        -13    1    3    3    0    0  0.22690898015E+00 -0.22205219262E+02  0.49930225967E+02  0.54645785558E+02  0.10566000000E+00 0.  1.
         13    1    4    4    0    0 -0.20627787625E+00  0.20777903304E+02  0.52651398508E+03  0.52692385737E+03  0.10566000000E+00 0. -1.
        -13    1    4    4    0    0 -0.24841920965E+00  0.58772770593E+00  0.16466160282E+02  0.16478857194E+02  0.10566000000E+00 0. -1.
         14    1    4    4    0    0  0.22778810575E+00  0.83958825229E+00  0.21411051365E+02  0.21428717097E+02  0.00000000000E+00 0. -1.
<mgrwt>
<rscale>  0 0.79757208E+02</rscale>
<asrwt>0</asrwt>
<pdfrwt beam="1">  1        2 0.94907590E-01 0.79757208E+02</pdfrwt>
<pdfrwt beam="2">  1       -1 0.39659957E-03 0.79757208E+02</pdfrwt>
<totfact> 0.32666859E+05</totfact>
</mgrwt>
</event>
<event>
 8    1  0.1520917E-013  0.8094375E+02  0.7818608E-02  0.1326394E+00
          2   -1    0    0  501    0  0.00000000000E+00  0.00000000000E+00  0.37204553701E+03  0.37204553702E+03  0.25500000000E-02 0. -1.
         -1   -1    0    0    0  501 -0.00000000000E+00 -0.00000000000E+00 -0.44026115345E+01  0.44026144193E+01  0.50400000000E-02 0.  1.
         24    2    1    2    0    0  0.71054273576E-14  0.00000000000E+00  0.36764292548E+03  0.37644815144E+03  0.80943746324E+02 0.  0.
         66    2    3    3    0    0  0.34222585057E+02 -0.18614216060E+02  0.23451603952E+03  0.23773819039E+03  0.20000017855E+01 0.  0.
        -13    1    3    3    0    0 -0.34222585057E+02  0.18614216060E+02  0.13312688596E+03  0.13870996106E+03  0.10566000000E+00 0.  1.
         13    1    4    4    0    0  0.48041603628E+01 -0.26064288941E+01  0.33760379823E+02  0.34200114593E+02  0.10566000000E+00 0. -1.
        -13    1    4    4    0    0  0.14431391249E+02 -0.68558290491E+01  0.94577086929E+02  0.95917172505E+02  0.10566000000E+00 0.  1.
        -14    1    4    4    0    0  0.14987033446E+02 -0.91519581168E+01  0.10617857277E+03  0.10762090329E+03  0.00000000000E+00 0.  1.
<mgrwt>
<rscale>  0 0.80943746E+02</rscale>
<asrwt>0</asrwt>
<pdfrwt beam="1">  1        2 0.57237777E-01 0.80943746E+02</pdfrwt>
<pdfrwt beam="2">  1       -1 0.67732505E-03 0.80943746E+02</pdfrwt>
<totfact> 0.26708711E+05</totfact>
</mgrwt>
</event>
<event>
 8    1  0.1520917E-013  0.7963935E+02  0.7818608E-02  0.1330078E+00
         -1   -1    0    0    0  501 -0.00000000000E+00  0.00000000000E+00  0.56834412758E+01  0.56834435105E+01  0.50400000000E-02 0.  1.
          2   -1    0    0  501    0  0.00000000000E+00 -0.00000000000E+00 -0.27898702428E+03  0.27898702429E+03  0.25500000000E-02 0. -1.
         24    2    1    2    0    0  0.00000000000E+00  0.17763568394E-14 -0.27330358300E+03  0.28467046780E+03  0.79639354315E+02 0.  0.
         66    2    3    3    0    0  0.17150776391E+02 -0.15179623390E+02 -0.25306168647E+03  0.25410389068E+03  0.20000018483E+01 0.  0.
        -13    1    3    3    0    0 -0.17150776391E+02  0.15179623390E+02 -0.20241896535E+02  0.30566577113E+02  0.10566000000E+00 0.  1.
         13    1    4    4    0    0  0.21185564645E+00 -0.28405440553E+00 -0.35521602559E+01  0.35713549585E+01  0.10566000000E+00 0.  1.
        -13    1    4    4    0    0  0.82225394863E+01 -0.67944334122E+01 -0.10960425781E+03  0.11012210938E+03  0.10566000000E+00 0.  1.
         14    1    4    4    0    0  0.87163812580E+01 -0.81011355722E+01 -0.13990526840E+03  0.14041042635E+03  0.00000000000E+00 0. -1.
<mgrwt>
<rscale>  0 0.79639354E+02</rscale>
<asrwt>0</asrwt>
<pdfrwt beam="1">  1        2 0.42921070E-01 0.79639354E+02</pdfrwt>
<pdfrwt beam="2">  1       -1 0.87437597E-03 0.79639354E+02</pdfrwt>
<totfact> 0.25128703E+05</totfact>
</mgrwt>
</event>
<event>
 8    1  0.1520917E-013  0.8015766E+02  0.7818608E-02  0.1328605E+00
          2   -1    0    0  501    0  0.00000000000E+00  0.00000000000E+00  0.15856132187E+03  0.15856132189E+03  0.25500000000E-02 0. -1.
         -1   -1    0    0    0  501 -0.00000000000E+00 -0.00000000000E+00 -0.10130543893E+02  0.10130545147E+02  0.50400000000E-02 0.  1.
         24    2    1    2    0    0  0.00000000000E+00  0.22204460493E-15  0.14843077797E+03  0.16869186703E+03  0.80157658109E+02 0.  0.
         66    2    3    3    0    0  0.16178266888E+02 -0.98831432969E+00  0.15134466631E+03  0.15222326072E+03  0.19999999833E+01 0.  0.
        -13    1    3    3    0    0 -0.16178266888E+02  0.98831432969E+00 -0.29138883326E+01  0.16468606315E+02  0.10566000000E+00 0.  1.
         13    1    4    4    0    0  0.27479042947E+01 -0.52271389956E+00  0.26058513683E+02  0.26208424357E+02  0.10566000000E+00 0. -1.
        -13    1    4    4    0    0  0.11995028605E+02 -0.57842924460E+00  0.11562195848E+03  0.11624398367E+03  0.10566000000E+00 0.  1.
        -14    1    4    4    0    0  0.14353339878E+01  0.11282881447E+00  0.96641941428E+01  0.97708526970E+01  0.00000000000E+00 0.  1.
<mgrwt>
<rscale>  0 0.80157658E+02</rscale>
<asrwt>0</asrwt>
<pdfrwt beam="1">  1        2 0.24394047E-01 0.80157658E+02</pdfrwt>
<pdfrwt beam="2">  1       -1 0.15585455E-02 0.80157658E+02</pdfrwt>
<totfact> 0.20288243E+05</totfact>
</mgrwt>
</event>
<event>
 8    1  0.1520917E-013  0.7952423E+02  0.7818608E-02  0.1330407E+00
         -1   -1    0    0    0  501 -0.00000000000E+00  0.00000000000E+00  0.18757778384E+02  0.18757779061E+02  0.50400000000E-02 0.  1.
          2   -1    0    0  501    0  0.00000000000E+00 -0.00000000000E+00 -0.84286399941E+02  0.84286399980E+02  0.25500000000E-02 0. -1.
         24    2    1    2    0    0  0.00000000000E+00 -0.71054273576E-14 -0.65528621557E+02  0.10304417904E+03  0.79524226441E+02 0.  0.
         66    2    3    3    0    0 -0.22622808568E+01  0.39598922450E+02 -0.35913132861E+02  0.53543866833E+02  0.19999974212E+01 0.  0.
        -13    1    3    3    0    0  0.22622808568E+01 -0.39598922450E+02 -0.29615488697E+02  0.49500312208E+02  0.10566000000E+00 0.  1.
         13    1    4    4    0    0 -0.88510112549E+00  0.15844736928E+02 -0.15174161313E+02  0.21956899323E+02  0.10566000000E+00 0. -1.
        -13    1    4    4    0    0  0.14879499526E+00  0.54385821877E+01 -0.44872998946E+01  0.70531794634E+01  0.10566000000E+00 0.  1.
         14    1    4    4    0    0 -0.15259747266E+01  0.18315603335E+02 -0.16251671653E+02  0.24533788046E+02  0.00000000000E+00 0. -1.
<mgrwt>
<rscale>  0 0.79524226E+02</rscale>
<asrwt>0</asrwt>
<pdfrwt beam="1">  1        2 0.12967138E-01 0.79524226E+02</pdfrwt>
<pdfrwt beam="2">  1       -1 0.28858122E-02 0.79524226E+02</pdfrwt>
<totfact> 0.17197094E+05</totfact>
</mgrwt>
</event>
<event>
 8    1  0.1520917E-013  0.7085154E+02  0.7818608E-02  0.1357221E+00
          2   -1    0    0  501    0  0.00000000000E+00  0.00000000000E+00  0.69470073869E+03  0.69470073869E+03  0.25500000000E-02 0. -1.
         -1   -1    0    0    0  501 -0.00000000000E+00 -0.00000000000E+00 -0.18065084297E+01  0.18065154603E+01  0.50400000000E-02 0.  1.
         24    2    1    2    0    0  0.88817841970E-15  0.00000000000E+00  0.69289423026E+03  0.69650725415E+03  0.70851540297E+02 0.  0.
         66    2    3    3    0    0  0.51033508512E+01 -0.24032526443E+02  0.59723164582E+03  0.59774011517E+03  0.19999998420E+01 0.  0.
        -13    1    3    3    0    0 -0.51033508512E+01  0.24032526443E+02  0.95662584441E+02  0.98767138984E+02  0.10566000000E+00 0.  1.
         13    1    4    4    0    0  0.12036307999E+01 -0.71889950252E+01  0.19188622581E+03  0.19202464736E+03  0.10566000000E+00 0. -1.
        -13    1    4    4    0    0  0.30888914508E+01 -0.14910260511E+02  0.35743194044E+03  0.35775614646E+03  0.10566000000E+00 0.  1.
        -14    1    4    4    0    0  0.81082860048E+00 -0.19332709069E+01  0.47913479566E+02  0.47959321342E+02  0.00000000000E+00 0.  1.
<mgrwt>
<rscale>  0 0.70851540E+02</rscale>
<asrwt>0</asrwt>
<pdfrwt beam="1">  1        2 0.10687708E+00 0.70851540E+02</pdfrwt>
<pdfrwt beam="2">  1       -1 0.27792480E-03 0.70851540E+02</pdfrwt>
<totfact> 0.45697800E+05</totfact>
</mgrwt>
</event>
<event>
 8    1  0.1520917E-013  0.7872911E+02  0.7818608E-02  0.1332697E+00
         -1   -1    0    0    0  501 -0.00000000000E+00  0.00000000000E+00  0.66716268912E+00  0.66718172588E+00  0.50400000000E-02 0.  1.
          2   -1    0    0  501    0  0.00000000000E+00 -0.00000000000E+00 -0.23225908241E+04  0.23225908241E+04  0.25500000000E-02 0. -1.
         24    2    1    2    0    0  0.00000000000E+00  0.00000000000E+00 -0.23219236614E+04  0.23232580058E+04  0.78729106567E+02 0.  0.
         66    2    3    3    0    0  0.11765018411E+02  0.80393652519E+01 -0.22437534438E+04  0.22437995819E+04  0.19999993443E+01 0.  0.
        -13    1    3    3    0    0 -0.11765018411E+02 -0.80393652519E+01 -0.78170217585E+02  0.79458423928E+02  0.10566000000E+00 0.  1.
         13    1    4    4    0    0  0.11271056910E+01  0.11175867192E+01 -0.25387289226E+03  0.25387787607E+03  0.10566000000E+00 0. -1.
        -13    1    4    4    0    0  0.21697792951E+01  0.18534740297E+01 -0.36388337447E+03  0.36389457909E+03  0.10566000000E+00 0.  1.
        -14    1    4    4    0    0  0.84681334246E+01  0.50683045030E+01 -0.16259971771E+04  0.16260271267E+04  0.00000000000E+00 0.  1.
<mgrwt>
<rscale>  0 0.78729107E+02</rscale>
<asrwt>0</asrwt>
<pdfrwt beam="1">  1        2 0.35731519E+00 0.78729107E+02</pdfrwt>
<pdfrwt beam="2">  1       -1 0.10264374E-03 0.78729107E+02</pdfrwt>
<totfact> 0.24431849E+05</totfact>
</mgrwt>
</event>
<event>
 8    1  0.1520917E-013  0.7750061E+02  0.7818608E-02  0.1336298E+00
         -1   -1    0    0    0  501 -0.00000000000E+00  0.00000000000E+00  0.61323777984E+02  0.61323778191E+02  0.50400000000E-02 0.  1.
          2   -1    0    0  501    0  0.00000000000E+00 -0.00000000000E+00 -0.24486197360E+02  0.24486197493E+02  0.25500000000E-02 0. -1.
         24    2    1    2    0    0  0.35527136788E-14  0.88817841970E-15  0.36837580623E+02  0.85809975684E+02  0.77500610196E+02 0.  0.
         66    2    3    3    0    0  0.30873649566E+02 -0.72712597344E+01 -0.61663353200E+01  0.32374019567E+02  0.19999990012E+01 0.  0.
        -13    1    3    3    0    0 -0.30873649566E+02  0.72712597344E+01  0.43003915943E+02  0.53435956117E+02  0.10566000000E+00 0.  1.
         13    1    4    4    0    0  0.11982365639E+01 -0.16816192988E+00 -0.48026322050E+00  0.13060880883E+01  0.10566000000E+00 0. -1.
        -13    1    4    4    0    0  0.64495578879E+01 -0.20661141522E+01 -0.14745898954E+01  0.69318975782E+01  0.10566000000E+00 0.  1.
        -14    1    4    4    0    0  0.23225855114E+02 -0.50369836524E+01 -0.42114822041E+01  0.24136033900E+02  0.00000000000E+00 0.  1.
<mgrwt>
<rscale>  0 0.77500610E+02</rscale>
<asrwt>0</asrwt>
<pdfrwt beam="1">  1        2 0.37671073E-02 0.77500610E+02</pdfrwt>
<pdfrwt beam="2">  1       -1 0.94344275E-02 0.77500610E+02</pdfrwt>
<totfact> 0.14140836E+05</totfact>
</mgrwt>
</event>
<event>
 8    1  0.1520917E-013  0.7256992E+02  0.7818608E-02  0.1351566E+00
         -1   -1    0    0    0  501 -0.00000000000E+00  0.00000000000E+00  0.12426443167E+02  0.12426444189E+02  0.50400000000E-02 0.  1.
          2   -1    0    0  501    0  0.00000000000E+00 -0.00000000000E+00 -0.10595134971E+03  0.10595134974E+03  0.25500000000E-02 0. -1.
         24    2    1    2    0    0  0.44408920985E-15  0.00000000000E+00 -0.93524906544E+02  0.11837779393E+03  0.72569924569E+02 0.  0.
         66    2    3    3    0    0 -0.33780668727E+01  0.95878225599E+01 -0.10356952453E+03  0.10408642620E+03  0.20000073681E+01 0.  0.
        -13    1    3    3    0    0  0.33780668727E+01 -0.95878225599E+01  0.10044617986E+02  0.14291367736E+02  0.10566000000E+00 0.  1.
         13    1    4    4    0    0 -0.20025301480E+01  0.40632273477E+01 -0.47051071702E+02  0.47268747136E+02  0.10566000000E+00 0. -1.
        -13    1    4    4    0    0 -0.49052654271E-01  0.19336481226E+01 -0.15384602089E+02  0.15506080959E+02  0.10566000000E+00 0.  1.
        -14    1    4    4    0    0 -0.13264840704E+01  0.35909470897E+01 -0.41133850739E+02  0.41311598100E+02  0.00000000000E+00 0.  1.
<mgrwt>
<rscale>  0 0.72569925E+02</rscale>
<asrwt>0</asrwt>
<pdfrwt beam="1">  1        2 0.16300207E-01 0.72569925E+02</pdfrwt>
<pdfrwt beam="2">  1       -1 0.19117606E-02 0.72569925E+02</pdfrwt>
<totfact> 0.23346244E+05</totfact>
</mgrwt>
</event>
<event>
 8    1  0.1520917E-013  0.7812388E+02  0.7818608E-02  0.1334462E+00
         -1   -1    0    0    0  501 -0.00000000000E+00  0.00000000000E+00  0.17625821580E+02  0.17625822301E+02  0.50400000000E-02 0.  1.
          2   -1    0    0  501    0  0.00000000000E+00 -0.00000000000E+00 -0.86568158970E+02  0.86568159008E+02  0.25500000000E-02 0. -1.
         24    2    1    2    0    0  0.00000000000E+00 -0.17763568394E-14 -0.68942337390E+02  0.10419398131E+03  0.78123875071E+02 0.  0.
         66    2    3    3    0    0  0.35612897249E+02  0.15215839509E+02 -0.41031533041E+02  0.56456947614E+02  0.20000019412E+01 0.  0.
        -13    1    3    3    0    0 -0.35612897249E+02 -0.15215839509E+02 -0.27910804349E+02  0.47737033694E+02  0.10566000000E+00 0.  1.
         13    1    4    4    0    0  0.35339644584E+01  0.20129745547E+01 -0.46321819749E+01  0.61651638449E+01  0.10566000000E+00 0. -1.
        -13    1    4    4    0    0  0.13700828905E+02  0.53985196103E+01 -0.14832729080E+02  0.20901620574E+02  0.10566000000E+00 0.  1.
         14    1    4    4    0    0  0.18378103886E+02  0.78043453442E+01 -0.21566621987E+02  0.29390163195E+02  0.00000000000E+00 0. -1.
<mgrwt>
<rscale>  0 0.78123875E+02</rscale>
<asrwt>0</asrwt>
<pdfrwt beam="1">  1        2 0.13318178E-01 0.78123875E+02</pdfrwt>
<pdfrwt beam="2">  1       -1 0.27116650E-02 0.78123875E+02</pdfrwt>
<totfact> 0.18164352E+05</totfact>
</mgrwt>
</event>
<event>
 8    1  0.1520917E-013  0.7932437E+02  0.7818608E-02  0.1330980E+00
         -1   -1    0    0    0  501 -0.00000000000E+00  0.00000000000E+00  0.11500052684E+02  0.11500053789E+02  0.50400000000E-02 0.  1.
          2   -1    0    0  501    0  0.00000000000E+00 -0.00000000000E+00 -0.13678970362E+03  0.13678970365E+03  0.25500000000E-02 0. -1.
         24    2    1    2    0    0  0.00000000000E+00  0.00000000000E+00 -0.12528965094E+03  0.14828975744E+03  0.79324369068E+02 0.  0.
         66    2    3    3    0    0 -0.32813991359E+01  0.10238358187E+02 -0.13400423512E+03  0.13444971769E+03  0.19999994951E+01 0.  0.
        -13    1    3    3    0    0  0.32813991359E+01 -0.10238358187E+02  0.87145841818E+01  0.13840039746E+02  0.10566000000E+00 0.  1.
         13    1    4    4    0    0 -0.20856988268E+01  0.56184409961E+01 -0.65164230778E+02  0.65439324231E+02  0.10566000000E+00 0. -1.
        -13    1    4    4    0    0 -0.70412806750E+00  0.12924125150E+01 -0.19289796212E+02  0.19346150221E+02  0.10566000000E+00 0.  1.
        -14    1    4    4    0    0 -0.49157224157E+00  0.33275046762E+01 -0.49550208132E+02  0.49664243239E+02  0.00000000000E+00 0.  1.
<mgrwt>
<rscale>  0 0.79324369E+02</rscale>
<asrwt>0</asrwt>
<pdfrwt beam="1">  1        2 0.21044569E-01 0.79324369E+02</pdfrwt>
<pdfrwt beam="2">  1       -1 0.17692391E-02 0.79324369E+02</pdfrwt>
<totfact> 0.19895139E+05</totfact>
</mgrwt>
</event>
<event>
 8    1  0.1520917E-013  0.7999793E+02  0.7818608E-02  0.1329057E+00
         -1   -1    0    0    0  501 -0.00000000000E+00  0.00000000000E+00  0.15248659330E+02  0.15248660163E+02  0.50400000000E-02 0.  1.
          2   -1    0    0  501    0  0.00000000000E+00 -0.00000000000E+00 -0.10492181153E+03  0.10492181156E+03  0.25500000000E-02 0. -1.
         24    2    1    2    0    0  0.00000000000E+00  0.00000000000E+00 -0.89673152202E+02  0.12017047172E+03  0.79997925278E+02 0.  0.
         66    2    3    3    0    0  0.37350708798E+02  0.87424835158E+01 -0.27975590249E+02  0.47519891681E+02  0.19999974662E+01 0.  0.
        -13    1    3    3    0    0 -0.37350708798E+02 -0.87424835158E+01 -0.61697561953E+02  0.72650580044E+02  0.10566000000E+00 0.  1.
         13    1    4    4    0    0  0.19353463211E+02  0.54823270091E+01 -0.14322628179E+02  0.24693345048E+02  0.10566000000E+00 0.  1.
        -13    1    4    4    0    0  0.60022820369E+01  0.97771939257E+00 -0.46457266949E+01  0.76535786022E+01  0.10566000000E+00 0. -1.
        -14    1    4    4    0    0  0.11994963551E+02  0.22824371141E+01 -0.90072353748E+01  0.15172968031E+02  0.00000000000E+00 0.  1.
<mgrwt>
<rscale>  0 0.79997925E+02</rscale>
<asrwt>0</asrwt>
<pdfrwt beam="1">  1        2 0.16141817E-01 0.79997925E+02</pdfrwt>
<pdfrwt beam="2">  1       -1 0.23459477E-02 0.79997925E+02</pdfrwt>
<totfact> 0.17969255E+05</totfact>
</mgrwt>
</event>
<event>
 8    1  0.1520917E-013  0.7940107E+02  0.7818608E-02  0.1330760E+00
         -1   -1    0    0    0  501 -0.00000000000E+00  0.00000000000E+00  0.16734238039E+01  0.16734313936E+01  0.50400000000E-02 0.  1.
          2   -1    0    0  501    0  0.00000000000E+00 -0.00000000000E+00 -0.94185873524E+03  0.94185873524E+03  0.25500000000E-02 0. -1.
         24    2    1    2    0    0  0.44408920985E-15 -0.71054273576E-14 -0.94018531143E+03  0.94353216663E+03  0.79401068245E+02 0.  0.
         66    2    3    3    0    0 -0.34470991002E+01  0.26072489332E+02 -0.82339471376E+03  0.82381703785E+03  0.20000007401E+01 0.  0.
        -13    1    3    3    0    0  0.34470991002E+01 -0.26072489332E+02 -0.11679059767E+03  0.11971512878E+03  0.10566000000E+00 0.  1.
         13    1    4    4    0    0 -0.10149992798E+01  0.10090072381E+02 -0.28955172544E+03  0.28972927476E+03  0.10566000000E+00 0. -1.
        -13    1    4    4    0    0 -0.10443472575E+01  0.64981328071E+01 -0.21895637861E+03  0.21905529733E+03  0.10566000000E+00 0.  1.
         14    1    4    4    0    0 -0.13877525629E+01  0.94842841441E+01 -0.31488660971E+03  0.31503246576E+03  0.00000000000E+00 0. -1.
<mgrwt>
<rscale>  0 0.79401068E+02</rscale>
<asrwt>0</asrwt>
<pdfrwt beam="1">  1        2 0.14490092E+00 0.79401068E+02</pdfrwt>
<pdfrwt beam="2">  1       -1 0.25745115E-03 0.79401068E+02</pdfrwt>
<totfact> 0.35791130E+05</totfact>
</mgrwt>
</event>
<event>
 8    1  0.1735132E-013  0.8125806E+02  0.7818608E-02  0.1325519E+00
         -1   -1    0    0    0  501 -0.00000000000E+00  0.00000000000E+00  0.95631500076E+01  0.95631513357E+01  0.50400000000E-02 0.  1.
          2   -1    0    0  501    0  0.00000000000E+00 -0.00000000000E+00 -0.17261237065E+03  0.17261237067E+03  0.25500000000E-02 0. -1.
         24    2    1    2    0    0  0.00000000000E+00  0.00000000000E+00 -0.16304922064E+03  0.18217552200E+03  0.81258060926E+02 0.  0.
         66    2    3    3    0    0 -0.14738047400E+02  0.77786679531E+01 -0.16458599226E+03  0.16543961607E+03  0.20000004973E+01 0.  0.
        -13    1    3    3    0    0  0.14738047400E+02 -0.77786679531E+01  0.15367716179E+01  0.16735905931E+02  0.10566000000E+00 0.  1.
         13    1    4    4    0    0 -0.67077242752E+01  0.39614527598E+01 -0.72265038943E+02  0.72683792488E+02  0.10566000000E+00 0. -1.
        -13    1    4    4    0    0 -0.45836370315E+01  0.26458139913E+01 -0.50467966971E+02  0.50744821552E+02  0.10566000000E+00 0.  1.
        -14    1    4    4    0    0 -0.34466860933E+01  0.11714012020E+01 -0.41852986345E+02  0.42011002033E+02  0.00000000000E+00 0.  1.
<mgrwt>
<rscale>  0 0.81258061E+02</rscale>
<asrwt>0</asrwt>
<pdfrwt beam="1">  1        2 0.26555747E-01 0.81258061E+02</pdfrwt>
<pdfrwt beam="2">  1       -1 0.14712541E-02 0.81258061E+02</pdfrwt>
<totfact> 0.20126851E+05</totfact>
</mgrwt>
</event>
<event>
 8    1  0.1520917E-013  0.7909778E+02  0.7818608E-02  0.1331631E+00
          2   -1    0    0  501    0  0.00000000000E+00  0.00000000000E+00  0.70265851368E+03  0.70265851368E+03  0.25500000000E-02 0. -1.
         -1   -1    0    0    0  501 -0.00000000000E+00 -0.00000000000E+00 -0.22259926599E+01  0.22259983655E+01  0.50400000000E-02 0.  1.
         24    2    1    2    0    0 -0.35527136788E-14 -0.35527136788E-14  0.70043252102E+03  0.70488451205E+03  0.79097780156E+02 0.  0.
         66    2    3    3    0    0  0.11891403484E+02  0.27399245044E+02  0.58110705112E+03  0.58187758933E+03  0.19999998029E+01 0.  0.
        -13    1    3    3    0    0 -0.11891403484E+02 -0.27399245044E+02  0.11932546990E+03  0.12300692272E+03  0.10566000000E+00 0.  1.
         13    1    4    4    0    0  0.72849636494E+00  0.12734491650E+01  0.31761743097E+02  0.31795783814E+02  0.10566000000E+00 0. -1.
        -13    1    4    4    0    0  0.51579493042E+01  0.11649806562E+02  0.23146148780E+03  0.23181189342E+03  0.10566000000E+00 0.  1.
         14    1    4    4    0    0  0.60049578149E+01  0.14475989317E+02  0.31788382022E+03  0.31826991209E+03  0.00000000000E+00 0. -1.
<mgrwt>
<rscale>  0 0.79097780E+02</rscale>
<asrwt>0</asrwt>
<pdfrwt beam="1">  1        2 0.10810125E+00 0.79097780E+02</pdfrwt>
<pdfrwt beam="2">  1       -1 0.34246105E-03 0.79097780E+02</pdfrwt>
<totfact> 0.34481854E+05</totfact>
</mgrwt>
</event>
<event>
 8    1  0.1520917E-013  0.8098890E+02  0.7818608E-02  0.1326268E+00
         -1   -1    0    0    0  501 -0.00000000000E+00  0.00000000000E+00  0.18308098431E+03  0.18308098438E+03  0.50400000000E-02 0.  1.
          2   -1    0    0  501    0  0.00000000000E+00 -0.00000000000E+00 -0.89566948015E+01  0.89566951645E+01  0.25500000000E-02 0. -1.
         24    2    1    2    0    0  0.35527136788E-14  0.00000000000E+00  0.17412428950E+03  0.19203767954E+03  0.80988901509E+02 0.  0.
         66    2    3    3    0    0  0.20913102604E+02  0.34555982812E+02  0.93076925407E+02  0.10148294361E+03  0.19999978354E+01 0.  0.
        -13    1    3    3    0    0 -0.20913102604E+02 -0.34555982812E+02  0.81047364097E+02  0.90554735932E+02  0.10566000000E+00 0.  1.
         13    1    4    4    0    0  0.18571774471E+01  0.37223412964E+01  0.10070986758E+02  0.10896828489E+02  0.10566000000E+00 0.  1.
        -13    1    4    4    0    0  0.15862666836E+02  0.26030146203E+02  0.68558924771E+02  0.75030194191E+02  0.10566000000E+00 0. -1.
         14    1    4    4    0    0  0.31932583203E+01  0.48034953127E+01  0.14447013879E+02  0.15555920929E+02  0.00000000000E+00 0. -1.
<mgrwt>
<rscale>  0 0.80988902E+02</rscale>
<asrwt>0</asrwt>
<pdfrwt beam="1">  1        2 0.13779530E-02 0.80988902E+02</pdfrwt>
<pdfrwt beam="2">  1       -1 0.28166306E-01 0.80988902E+02</pdfrwt>
<totfact> 0.99086887E+04</totfact>
</mgrwt>
</event>
<event>
 8    1  0.1520917E-013  0.7932905E+02  0.7818608E-02  0.1330966E+00
          2   -1    0    0  501    0  0.00000000000E+00  0.00000000000E+00  0.27284806936E+02  0.27284807055E+02  0.25500000000E-02 0. -1.
         -1   -1    0    0    0  501 -0.00000000000E+00 -0.00000000000E+00 -0.57661193308E+02  0.57661193528E+02  0.50400000000E-02 0.  1.
         24    2    1    2    0    0  0.00000000000E+00  0.00000000000E+00 -0.30376386372E+02  0.84946000583E+02  0.79329049950E+02 0.  0.
         66    2    3    3    0    0  0.18387821891E+02  0.32103997643E+02  0.39671508737E-01  0.37051048870E+02  0.19999975006E+01 0.  0.
        -13    1    3    3    0    0 -0.18387821891E+02 -0.32103997643E+02 -0.30416057881E+02  0.47894951713E+02  0.10566000000E+00 0.  1.
         13    1    4    4    0    0  0.50603758319E+00  0.82368049941E+00 -0.97480814762E-01  0.97733829637E+00  0.10566000000E+00 0.  1.
        -13    1    4    4    0    0  0.42256293747E+01  0.69030678990E+01 -0.65386939538E+00  0.81207757790E+01  0.10566000000E+00 0.  1.
         14    1    4    4    0    0  0.13656154933E+02  0.24377249245E+02  0.79102171888E+00  0.27952934795E+02  0.00000000000E+00 0. -1.
<mgrwt>
<rscale>  0 0.79329050E+02</rscale>
<asrwt>0</asrwt>
<pdfrwt beam="1">  1        2 0.41976626E-02 0.79329050E+02</pdfrwt>
<pdfrwt beam="2">  1       -1 0.88709528E-02 0.79329050E+02</pdfrwt>
<totfact> 0.13522970E+05</totfact>
</mgrwt>
</event>
<event>
 8    1  0.1520917E-013  0.7943465E+02  0.7818608E-02  0.1330664E+00
         -1   -1    0    0    0  501 -0.00000000000E+00  0.00000000000E+00  0.41237762370E+02  0.41237762678E+02  0.50400000000E-02 0.  1.
          2   -1    0    0  501    0  0.00000000000E+00 -0.00000000000E+00 -0.38252942082E+02  0.38252942167E+02  0.25500000000E-02 0. -1.
         24    2    1    2    0    0  0.00000000000E+00  0.00000000000E+00  0.29848202876E+01  0.79490704844E+02  0.79434646122E+02 0.  0.
         66    2    3    3    0    0  0.23981066234E+01  0.19909565110E+02 -0.32784565755E+02  0.38483365988E+02  0.20000019489E+01 0.  0.
        -13    1    3    3    0    0 -0.23981066234E+01 -0.19909565110E+02  0.35769386042E+02  0.41007338857E+02  0.10566000000E+00 0.  1.
         13    1    4    4    0    0  0.87119827044E+00  0.52475891259E+01 -0.73143838029E+01  0.90447527613E+01  0.10566000000E+00 0. -1.
        -13    1    4    4    0    0  0.20665224768E+00  0.32033956602E+01 -0.61160515024E+01  0.69080893829E+01  0.10566000000E+00 0.  1.
         14    1    4    4    0    0  0.13202561053E+01  0.11458580324E+02 -0.19354130449E+02  0.22530523844E+02  0.00000000000E+00 0. -1.
<mgrwt>
<rscale>  0 0.79434646E+02</rscale>
<asrwt>0</asrwt>
<pdfrwt beam="1">  1        2 0.58850680E-02 0.79434646E+02</pdfrwt>
<pdfrwt beam="2">  1       -1 0.63442712E-02 0.79434646E+02</pdfrwt>
<totfact> 0.14405637E+05</totfact>
</mgrwt>
</event>
<event>
 8    1  0.1520917E-013  0.7888091E+02  0.7818608E-02  0.1332258E+00
         -1   -1    0    0    0  501 -0.00000000000E+00  0.00000000000E+00  0.34714665102E+03  0.34714665106E+03  0.50400000000E-02 0.  1.
          2   -1    0    0  501    0  0.00000000000E+00 -0.00000000000E+00 -0.44809577979E+01  0.44809585235E+01  0.25500000000E-02 0. -1.
         24    2    1    2    0    0  0.71054273576E-14  0.00000000000E+00  0.34266569322E+03  0.35162760958E+03  0.78880913456E+02 0.  0.
         66    2    3    3    0    0  0.35710616571E+02 -0.16450043770E+02  0.18380636517E+03  0.18797508332E+03  0.19999996900E+01 0.  0.
        -13    1    3    3    0    0 -0.35710616571E+02  0.16450043770E+02  0.15885932806E+03  0.16365252626E+03  0.10566000000E+00 0.  1.
         13    1    4    4    0    0  0.69198823845E+01 -0.37094500972E+01  0.37595548179E+02  0.38406785848E+02  0.10566000000E+00 0. -1.
        -13    1    4    4    0    0  0.54611401350E+01 -0.18917813273E+01  0.27739475517E+02  0.28335358726E+02  0.10566000000E+00 0.  1.
         14    1    4    4    0    0  0.23329594052E+02 -0.10848812346E+02  0.11847134147E+03  0.12123293875E+03  0.00000000000E+00 0. -1.
<mgrwt>
<rscale>  0 0.78880913E+02</rscale>
<asrwt>0</asrwt>
<pdfrwt beam="1">  1        2 0.68937814E-03 0.78880913E+02</pdfrwt>
<pdfrwt beam="2">  1       -1 0.53407180E-01 0.78880913E+02</pdfrwt>
<totfact> 0.84169371E+04</totfact>
</mgrwt>
</event>
<event>
 8    1  0.1520917E-013  0.7716719E+02  0.7818608E-02  0.1337288E+00
          2   -1    0    0  501    0  0.00000000000E+00  0.00000000000E+00  0.19165032533E+03  0.19165032535E+03  0.25500000000E-02 0. -1.
         -1   -1    0    0    0  501 -0.00000000000E+00 -0.00000000000E+00 -0.77677594735E+01  0.77677611086E+01  0.50400000000E-02 0.  1.
         24    2    1    2    0    0  0.00000000000E+00  0.00000000000E+00  0.18388256586E+03  0.19941808646E+03  0.77167189787E+02 0.  0.
         66    2    3    3    0    0 -0.71113676843E+01  0.11056869627E+02  0.18567424526E+03  0.18614980867E+03  0.19999999288E+01 0.  0.
        -13    1    3    3    0    0  0.71113676843E+01 -0.11056869627E+02 -0.17916794009E+01  0.13268277785E+02  0.10566000000E+00 0.  1.
         13    1    4    4    0    0 -0.36652269350E+01  0.55516888966E+01  0.95924967944E+02  0.96155425106E+02  0.10566000000E+00 0. -1.
        -13    1    4    4    0    0 -0.17707261680E+00  0.11812470598E+01  0.18948227059E+02  0.18986131044E+02  0.10566000000E+00 0.  1.
         14    1    4    4    0    0 -0.32690681325E+01  0.43239336703E+01  0.70801050256E+02  0.71008252522E+02  0.00000000000E+00 0. -1.
<mgrwt>
<rscale>  0 0.77167190E+02</rscale>
<asrwt>0</asrwt>
<pdfrwt beam="1">  1        2 0.29484665E-01 0.77167190E+02</pdfrwt>
<pdfrwt beam="2">  1       -1 0.11950401E-02 0.77167190E+02</pdfrwt>
<totfact> 0.23902346E+05</totfact>
</mgrwt>
</event>
<event>
 8    1  0.1520917E-013  0.8047520E+02  0.7818608E-02  0.1327708E+00
          2   -1    0    0  501    0  0.00000000000E+00  0.00000000000E+00  0.15352288648E+04  0.15352288648E+04  0.25500000000E-02 0. -1.
         -1   -1    0    0    0  501 -0.00000000000E+00 -0.00000000000E+00 -0.10546018094E+01  0.10546138525E+01  0.50400000000E-02 0.  1.
         24    2    1    2    0    0  0.00000000000E+00  0.17763568394E-14  0.15341742630E+04  0.15362834787E+04  0.80475198443E+02 0.  0.
         66    2    3    3    0    0 -0.58975309840E+01  0.12041574328E+02  0.14912950502E+04  0.14913566666E+04  0.20000014476E+01 0.  0.
        -13    1    3    3    0    0  0.58975309840E+01 -0.12041574328E+02  0.42879212805E+02  0.44926812026E+02  0.10566000000E+00 0.  1.
         13    1    4    4    0    0 -0.14467302022E+01  0.30861655230E+01  0.33010617563E+03  0.33012378860E+03  0.10566000000E+00 0.  1.
        -13    1    4    4    0    0 -0.28279181334E+01  0.59305924544E+01  0.67951603222E+03  0.67954780425E+03  0.10566000000E+00 0. -1.
         14    1    4    4    0    0 -0.16228826485E+01  0.30248163505E+01  0.48167284234E+03  0.48168507378E+03  0.00000000000E+00 0. -1.
<mgrwt>
<rscale>  0 0.80475198E+02</rscale>
<asrwt>0</asrwt>
<pdfrwt beam="1">  1        2 0.23618946E+00 0.80475198E+02</pdfrwt>
<pdfrwt beam="2">  1       -1 0.16224708E-03 0.80475198E+02</pdfrwt>
<totfact> 0.32445696E+05</totfact>
</mgrwt>
</event>
<event>
 8    1  0.1520917E-013  0.7874226E+02  0.7818608E-02  0.1332659E+00
         -1   -1    0    0    0  501 -0.00000000000E+00  0.00000000000E+00  0.79217451444E+01  0.79217467476E+01  0.50400000000E-02 0.  1.
          2   -1    0    0  501    0  0.00000000000E+00 -0.00000000000E+00 -0.19567476300E+03  0.19567476301E+03  0.25500000000E-02 0. -1.
         24    2    1    2    0    0 -0.35527136788E-14  0.00000000000E+00 -0.18775301785E+03  0.20359650976E+03  0.78742257233E+02 0.  0.
         66    2    3    3    0    0 -0.30132351818E+02 -0.10446841385E+02 -0.15351736644E+03  0.15680777060E+03  0.19999998901E+01 0.  0.
        -13    1    3    3    0    0  0.30132351818E+02  0.10446841385E+02 -0.34235651412E+02  0.46788739165E+02  0.10566000000E+00 0.  1.
         13    1    4    4    0    0 -0.47626649532E+01 -0.11817736521E+01 -0.21368949953E+02  0.21925390591E+02  0.10566000000E+00 0.  1.
        -13    1    4    4    0    0 -0.16832446438E+02 -0.58332051475E+01 -0.88154667862E+02  0.89936723118E+02  0.10566000000E+00 0. -1.
        -14    1    4    4    0    0 -0.85372404262E+01 -0.34318625857E+01 -0.43993748626E+02  0.44945656888E+02  0.00000000000E+00 0.  1.
<mgrwt>
<rscale>  0 0.78742257E+02</rscale>
<asrwt>0</asrwt>
<pdfrwt beam="1">  1        2 0.30103806E-01 0.78742257E+02</pdfrwt>
<pdfrwt beam="2">  1       -1 0.12187303E-02 0.78742257E+02</pdfrwt>
<totfact> 0.22826452E+05</totfact>
</mgrwt>
</event>
<event>
 8    1  0.1520917E-013  0.8129049E+02  0.7818608E-02  0.1325429E+00
         -1   -1    0    0    0  501 -0.00000000000E+00  0.00000000000E+00  0.25753536251E+01  0.25753585567E+01  0.50400000000E-02 0.  1.
          2   -1    0    0  501    0  0.00000000000E+00 -0.00000000000E+00 -0.64147862083E+03  0.64147862084E+03  0.25500000000E-02 0. -1.
         24    2    1    2    0    0  0.71054273576E-14  0.88817841970E-15 -0.63890326721E+03  0.64405397940E+03  0.81290488529E+02 0.  0.
         66    2    3    3    0    0 -0.38014670683E+02 -0.54393265804E+01 -0.42455278890E+03  0.42629071303E+03  0.19999991291E+01 0.  0.
        -13    1    3    3    0    0  0.38014670683E+02  0.54393265804E+01 -0.21435047831E+03  0.21776326637E+03  0.10566000000E+00 0.  1.
         13    1    4    4    0    0 -0.10482508582E+02 -0.19513569498E+01 -0.11644122147E+03  0.11692843966E+03  0.10566000000E+00 0. -1.
        -13    1    4    4    0    0 -0.86689393992E+01 -0.71960766149E+00 -0.10275594810E+03  0.10312353940E+03  0.10566000000E+00 0.  1.
        -14    1    4    4    0    0 -0.18863222701E+02 -0.27683619692E+01 -0.20535561934E+03  0.20623873397E+03  0.00000000000E+00 0.  1.
<mgrwt>
<rscale>  0 0.81290489E+02</rscale>
<asrwt>0</asrwt>
<pdfrwt beam="1">  1        2 0.98688891E-01 0.81290489E+02</pdfrwt>
<pdfrwt beam="2">  1       -1 0.39620914E-03 0.81290489E+02</pdfrwt>
<totfact> 0.31410310E+05</totfact>
</mgrwt>
</event>
<event>
 8    1  0.1520917E-013  0.7802128E+02  0.7818608E-02  0.1334762E+00
          2   -1    0    0  501    0  0.00000000000E+00  0.00000000000E+00  0.32378320549E+02  0.32378320650E+02  0.25500000000E-02 0. -1.
         -1   -1    0    0    0  501 -0.00000000000E+00 -0.00000000000E+00 -0.47001510666E+02  0.47001510936E+02  0.50400000000E-02 0.  1.
         24    2    1    2    0    0 -0.35527136788E-14  0.00000000000E+00 -0.14623190116E+02  0.79379831585E+02  0.78021278978E+02 0.  0.
         66    2    3    3    0    0  0.22121898800E+02 -0.24817771624E+02  0.13398015980E+02  0.35899958655E+02  0.20000010874E+01 0.  0.
        -13    1    3    3    0    0 -0.22121898800E+02  0.24817771624E+02 -0.28021206096E+02  0.43479872930E+02  0.10566000000E+00 0.  1.
         13    1    4    4    0    0  0.66671133567E+01 -0.70031504732E+01  0.38522539740E+01  0.10408916456E+02  0.10566000000E+00 0. -1.
        -13    1    4    4    0    0  0.44359916440E+01 -0.61579773916E+01  0.28027843425E+01  0.80910735708E+01  0.10566000000E+00 0.  1.
        -14    1    4    4    0    0  0.11018793799E+02 -0.11656643759E+02  0.67429776634E+01  0.17399968629E+02  0.00000000000E+00 0.  1.
<mgrwt>
<rscale>  0 0.78021279E+02</rscale>
<asrwt>0</asrwt>
<pdfrwt beam="1">  1        2 0.49812801E-02 0.78021279E+02</pdfrwt>
<pdfrwt beam="2">  1       -1 0.72310017E-02 0.78021279E+02</pdfrwt>
<totfact> 0.14647275E+05</totfact>
</mgrwt>
</event>
<event>
 8    1  0.1520917E-013  0.7858664E+02  0.7818608E-02  0.1333111E+00
         -1   -1    0    0    0  501 -0.00000000000E+00  0.00000000000E+00  0.14898381543E+01  0.14898466792E+01  0.50400000000E-02 0.  1.
          2   -1    0    0  501    0  0.00000000000E+00 -0.00000000000E+00 -0.10363276706E+04  0.10363276706E+04  0.25500000000E-02 0. -1.
         24    2    1    2    0    0  0.00000000000E+00  0.00000000000E+00 -0.10348378324E+04  0.10378175172E+04  0.78586638286E+02 0.  0.
         66    2    3    3    0    0  0.11676067067E+02 -0.18414753804E+02 -0.94903186265E+03  0.94928441999E+03  0.20000015688E+01 0.  0.
        -13    1    3    3    0    0 -0.11676067067E+02  0.18414753804E+02 -0.85805969758E+02  0.88533097257E+02  0.10566000000E+00 0.  1.
         13    1    4    4    0    0  0.55123430158E+01 -0.87614690535E+01 -0.47031652129E+03  0.47043043123E+03  0.10566000000E+00 0. -1.
        -13    1    4    4    0    0  0.30903172944E+01 -0.52566076803E+01 -0.23031176657E+03  0.23039249764E+03  0.10566000000E+00 0.  1.
        -14    1    4    4    0    0  0.30734067571E+01 -0.43966770697E+01 -0.24840357479E+03  0.24846149112E+03  0.00000000000E+00 0.  1.
<mgrwt>
<rscale>  0 0.78586638E+02</rscale>
<asrwt>0</asrwt>
<pdfrwt beam="1">  1        2 0.15943445E+00 0.78586638E+02</pdfrwt>
<pdfrwt beam="2">  1       -1 0.22920736E-03 0.78586638E+02</pdfrwt>
<totfact> 0.36936461E+05</totfact>
</mgrwt>
</event>
<event>
 8    1  0.1520917E-013  0.7875767E+02  0.7818608E-02  0.1332614E+00
          2   -1    0    0  501    0  0.00000000000E+00  0.00000000000E+00  0.71911992569E+02  0.71911992614E+02  0.25500000000E-02 0. -1.
         -1   -1    0    0    0  501 -0.00000000000E+00 -0.00000000000E+00 -0.21563756596E+02  0.21563757185E+02  0.50400000000E-02 0.  1.
         24    2    1    2    0    0 -0.17763568394E-14  0.00000000000E+00  0.50348235972E+02  0.93475749799E+02  0.78757672229E+02 0.  0.
         66    2    3    3    0    0  0.11096427441E+02 -0.73487838609E+01  0.69145713090E+02  0.70443345752E+02  0.19999989439E+01 0.  0.
        -13    1    3    3    0    0 -0.11096427441E+02  0.73487838609E+01 -0.18797477118E+02  0.23032404048E+02  0.10566000000E+00 0.  1.
         13    1    4    4    0    0  0.42073107208E+01 -0.24467611122E+01  0.25763195295E+02  0.26219105616E+02  0.10566000000E+00 0. -1.
        -13    1    4    4    0    0  0.35929174228E+01 -0.34437496797E+01  0.25899638910E+02  0.26373678681E+02  0.10566000000E+00 0.  1.
        -14    1    4    4    0    0  0.32961992971E+01 -0.14582730690E+01  0.17482878885E+02  0.17850561455E+02  0.00000000000E+00 0.  1.
<mgrwt>
<rscale>  0 0.78757672E+02</rscale>
<asrwt>0</asrwt>
<pdfrwt beam="1">  1        2 0.11063383E-01 0.78757672E+02</pdfrwt>
<pdfrwt beam="2">  1       -1 0.33175011E-02 0.78757672E+02</pdfrwt>
<totfact> 0.16955711E+05</totfact>
</mgrwt>
</event>
<event>
 8    1  0.1520917E-013  0.7991829E+02  0.7818608E-02  0.1329283E+00
         -1   -1    0    0    0  501 -0.00000000000E+00  0.00000000000E+00  0.48265112435E+01  0.48265138750E+01  0.50400000000E-02 0.  1.
          2   -1    0    0  501    0  0.00000000000E+00 -0.00000000000E+00 -0.33082543472E+03  0.33082543473E+03  0.25500000000E-02 0. -1.
         24    2    1    2    0    0  0.00000000000E+00 -0.35527136788E-14 -0.32599892348E+03  0.33565194861E+03  0.79918286358E+02 0.  0.
         66    2    3    3    0    0 -0.18183518364E+02 -0.24592805921E+02 -0.27094092432E+03  0.27266908683E+03  0.19999985115E+01 0.  0.
        -13    1    3    3    0    0  0.18183518364E+02  0.24592805921E+02 -0.55057999156E+02  0.62982861782E+02  0.10566000000E+00 0.  1.
         13    1    4    4    0    0 -0.16748763390E+02 -0.22867042563E+02 -0.24784211507E+03  0.24945770759E+03  0.10566000000E+00 0. -1.
        -13    1    4    4    0    0 -0.68518242553E+00 -0.10460203246E+01 -0.14152003827E+02  0.14207533559E+02  0.10566000000E+00 0.  1.
        -14    1    4    4    0    0 -0.74957254846E+00 -0.67974303341E+00 -0.89468054284E+01  0.90038456768E+01  0.00000000000E+00 0.  1.
<mgrwt>
<rscale>  0 0.79918286E+02</rscale>
<asrwt>0</asrwt>
<pdfrwt beam="1">  1        2 0.50896203E-01 0.79918286E+02</pdfrwt>
<pdfrwt beam="2">  1       -1 0.74254065E-03 0.79918286E+02</pdfrwt>
<totfact> 0.26481603E+05</totfact>
</mgrwt>
</event>
<event>
 8    1  0.1520917E-013  0.8125532E+02  0.7818608E-02  0.1325526E+00
          2   -1    0    0  501    0  0.00000000000E+00  0.00000000000E+00  0.85751923758E+01  0.85751927550E+01  0.25500000000E-02 0. -1.
         -1   -1    0    0    0  501 -0.00000000000E+00 -0.00000000000E+00 -0.19248626964E+03  0.19248626970E+03  0.50400000000E-02 0.  1.
         24    2    1    2    0    0  0.35527136788E-14  0.00000000000E+00 -0.18391107726E+03  0.20106146246E+03  0.81255321957E+02 0.  0.
         66    2    3    3    0    0 -0.27706160423E+02 -0.22551018606E+02 -0.44258744600E+02  0.56912355811E+02  0.20000011817E+01 0.  0.
        -13    1    3    3    0    0  0.27706160423E+02  0.22551018606E+02 -0.13965233266E+03  0.14414910665E+03  0.10566000000E+00 0.  1.
         13    1    4    4    0    0 -0.12801214936E+02 -0.10075671351E+02 -0.21348297508E+02  0.26854259020E+02  0.10566000000E+00 0. -1.
        -13    1    4    4    0    0 -0.11175392710E+02 -0.92150822459E+01 -0.17638239674E+02  0.22823799111E+02  0.10566000000E+00 0.  1.
        -14    1    4    4    0    0 -0.37295527773E+01 -0.32602650098E+01 -0.52722074194E+01  0.72342976802E+01  0.00000000000E+00 0.  1.
<mgrwt>
<rscale>  0 0.81255322E+02</rscale>
<asrwt>0</asrwt>
<pdfrwt beam="1">  1        2 0.13192605E-02 0.81255322E+02</pdfrwt>
<pdfrwt beam="2">  1       -1 0.29613269E-01 0.81255322E+02</pdfrwt>
<totfact> 0.96838023E+04</totfact>
</mgrwt>
</event>
<event>
 8    1  0.1520917E-013  0.7949159E+02  0.7818608E-02  0.1330500E+00
          2   -1    0    0  501    0  0.00000000000E+00  0.00000000000E+00  0.57927727773E+03  0.57927727774E+03  0.25500000000E-02 0. -1.
         -1   -1    0    0    0  501 -0.00000000000E+00 -0.00000000000E+00 -0.27270654022E+01  0.27270700595E+01  0.50400000000E-02 0.  1.
         24    2    1    2    0    0  0.00000000000E+00  0.17763568394E-14  0.57655021233E+03  0.58200434780E+03  0.79491594004E+02 0.  0.
         66    2    3    3    0    0  0.11309646973E+02  0.93618774162E+01  0.55867912108E+03  0.55887557935E+03  0.19999997760E+01 0.  0.
        -13    1    3    3    0    0 -0.11309646973E+02 -0.93618774162E+01  0.17871091249E+02  0.23128768446E+02  0.10566000000E+00 0.  1.
         13    1    4    4    0    0  0.27922256590E+01  0.28025371071E+01  0.15672170915E+03  0.15677166843E+03  0.10566000000E+00 0. -1.
        -13    1    4    4    0    0  0.21723341830E+00  0.36020401832E-01  0.47910305027E+01  0.47972518321E+01  0.10566000000E+00 0. -1.
         14    1    4    4    0    0  0.83001878952E+01  0.65233199073E+01  0.39716638142E+03  0.39730665909E+03  0.00000000000E+00 0. -1.
<mgrwt>
<rscale>  0 0.79491594E+02</rscale>
<asrwt>0</asrwt>
<pdfrwt beam="1">  1        2 0.89119635E-01 0.79491594E+02</pdfrwt>
<pdfrwt beam="2">  1       -1 0.41954863E-03 0.79491594E+02</pdfrwt>
<totfact> 0.32377816E+05</totfact>
</mgrwt>
</event>
<event>
 8    1  0.1520917E-013  0.7645272E+02  0.7818608E-02  0.1339431E+00
         -1   -1    0    0    0  501 -0.00000000000E+00  0.00000000000E+00  0.17780334886E+01  0.17780406317E+01  0.50400000000E-02 0.  1.
          2   -1    0    0  501    0  0.00000000000E+00 -0.00000000000E+00 -0.82183585466E+03  0.82183585466E+03  0.25500000000E-02 0. -1.
         24    2    1    2    0    0  0.00000000000E+00  0.00000000000E+00 -0.82005782117E+03  0.82361389529E+03  0.76452720420E+02 0.  0.
         66    2    3    3    0    0  0.27085056989E+02  0.53202620488E+01 -0.69479041989E+03  0.69534137880E+03  0.19999999146E+01 0.  0.
        -13    1    3    3    0    0 -0.27085056989E+02 -0.53202620488E+01 -0.12526740128E+03  0.12827251649E+03  0.10566000000E+00 0.  1.
         13    1    4    4    0    0  0.49142987140E+01  0.14341457260E+01 -0.12386440521E+03  0.12397019459E+03  0.10566000000E+00 0. -1.
        -13    1    4    4    0    0  0.16087696853E+02  0.31556545843E+01 -0.42815473015E+03  0.42846850089E+03  0.10566000000E+00 0. -1.
        -14    1    4    4    0    0  0.60830614220E+01  0.73046173844E+00 -0.14277128453E+03  0.14290268331E+03  0.00000000000E+00 0.  1.
<mgrwt>
<rscale>  0 0.76452720E+02</rscale>
<asrwt>0</asrwt>
<pdfrwt beam="1">  1        2 0.12643598E+00 0.76452720E+02</pdfrwt>
<pdfrwt beam="2">  1       -1 0.27354482E-03 0.76452720E+02</pdfrwt>
<totfact> 0.38824645E+05</totfact>
</mgrwt>
</event>
<event>
 8    1  0.1520917E-013  0.8155010E+02  0.7818608E-02  0.1324709E+00
         -1   -1    0    0    0  501 -0.00000000000E+00  0.00000000000E+00  0.39649938063E+02  0.39649938384E+02  0.50400000000E-02 0.  1.
          2   -1    0    0  501    0  0.00000000000E+00 -0.00000000000E+00 -0.41932083525E+02  0.41932083603E+02  0.25500000000E-02 0. -1.
         24    2    1    2    0    0  0.00000000000E+00  0.00000000000E+00 -0.22821454620E+01  0.81582021987E+02  0.81550095791E+02 0.  0.
         66    2    3    3    0    0  0.25285445235E+02 -0.39933483157E+01 -0.32860619968E+02  0.41702768751E+02  0.20000013338E+01 0.  0.
        -13    1    3    3    0    0 -0.25285445235E+02  0.39933483157E+01  0.30578474506E+02  0.39879253236E+02  0.10566000000E+00 0.  1.
         13    1    4    4    0    0  0.11247784513E+02 -0.13251121751E+01 -0.14581520849E+02  0.18463490814E+02  0.10566000000E+00 0. -1.
        -13    1    4    4    0    0  0.68002653897E+01 -0.17841822850E+01 -0.97016170560E+01  0.11981629828E+02  0.10566000000E+00 0.  1.
         14    1    4    4    0    0  0.72373953324E+01 -0.88405385556E+00 -0.85774820631E+01  0.11257648110E+02  0.00000000000E+00 0. -1.
<mgrwt>
<rscale>  0 0.81550096E+02</rscale>
<asrwt>0</asrwt>
<pdfrwt beam="1">  1        2 0.64510898E-02 0.81550096E+02</pdfrwt>
<pdfrwt beam="2">  1       -1 0.60999905E-02 0.81550096E+02</pdfrwt>
<totfact> 0.13651479E+05</totfact>
</mgrwt>
</event>
<event>
 8    1  0.1520917E-013  0.8526667E+02  0.7818608E-02  0.1314737E+00
         -1   -1    0    0    0  501 -0.00000000000E+00  0.00000000000E+00  0.32808049823E+01  0.32808088535E+01  0.50400000000E-02 0.  1.
          2   -1    0    0  501    0  0.00000000000E+00 -0.00000000000E+00 -0.55401046084E+03  0.55401046084E+03  0.25500000000E-02 0. -1.
         24    2    1    2    0    0 -0.71054273576E-14  0.00000000000E+00 -0.55072965586E+03  0.55729126970E+03  0.85266672516E+02 0.  0.
         66    2    3    3    0    0 -0.41786718310E+02  0.54742592817E+01 -0.31659263609E+03  0.31939160065E+03  0.20000001721E+01 0.  0.
        -13    1    3    3    0    0  0.41786718310E+02 -0.54742592817E+01 -0.23413701977E+03  0.23789966905E+03  0.10566000000E+00 0.  1.
         13    1    4    4    0    0 -0.15395332309E+02  0.25369791160E+01 -0.11566651884E+03  0.11671421192E+03  0.10566000000E+00 0. -1.
        -13    1    4    4    0    0 -0.84480080101E+00  0.23892670167E-01 -0.80659428866E+01  0.81107865178E+01  0.10566000000E+00 0.  1.
        -14    1    4    4    0    0 -0.25546585199E+02  0.29133874955E+01 -0.19286017436E+03  0.19456660221E+03  0.00000000000E+00 0.  1.
<mgrwt>
<rscale>  0 0.85266673E+02</rscale>
<asrwt>0</asrwt>
<pdfrwt beam="1">  1        2 0.85232305E-01 0.85266673E+02</pdfrwt>
<pdfrwt beam="2">  1       -1 0.50473997E-03 0.85266673E+02</pdfrwt>
<totfact> 0.26609632E+05</totfact>
</mgrwt>
</event>
<event>
 8    1  0.1520917E-013  0.8136890E+02  0.7818608E-02  0.1325211E+00
          2   -1    0    0  501    0  0.00000000000E+00  0.00000000000E+00  0.43028455344E+02  0.43028455419E+02  0.25500000000E-02 0. -1.
         -1   -1    0    0    0  501 -0.00000000000E+00 -0.00000000000E+00 -0.38468138740E+02  0.38468139070E+02  0.50400000000E-02 0.  1.
         24    2    1    2    0    0  0.00000000000E+00 -0.35527136788E-14  0.45603166041E+01  0.81496594489E+02  0.81368903310E+02 0.  0.
         66    2    3    3    0    0 -0.41433220080E+01  0.15685713258E+02  0.39622889577E+02  0.42862362192E+02  0.19999991538E+01 0.  0.
        -13    1    3    3    0    0  0.41433220080E+01 -0.15685713258E+02 -0.35062572973E+02  0.38634232297E+02  0.10566000000E+00 0.  1.
         13    1    4    4    0    0 -0.22971169190E+01  0.56916007608E+01  0.14002800158E+02  0.15289232867E+02  0.10566000000E+00 0. -1.
        -13    1    4    4    0    0 -0.30258508704E+00  0.35103801051E+01  0.91632323762E+01  0.98178570897E+01  0.10566000000E+00 0.  1.
         14    1    4    4    0    0 -0.15436200020E+01  0.64837323923E+01  0.16456857042E+02  0.17755272235E+02  0.00000000000E+00 0. -1.
<mgrwt>
<rscale>  0 0.81368903E+02</rscale>
<asrwt>0</asrwt>
<pdfrwt beam="1">  1        2 0.66197624E-02 0.81368903E+02</pdfrwt>
<pdfrwt beam="2">  1       -1 0.59181752E-02 0.81368903E+02</pdfrwt>
<totfact> 0.13810475E+05</totfact>
</mgrwt>
</event>
<event>
 8    1  0.1520917E-013  0.7881601E+02  0.7818608E-02  0.1332445E+00
         -1   -1    0    0    0  501 -0.00000000000E+00  0.00000000000E+00  0.35571072726E+01  0.35571108432E+01  0.50400000000E-02 0.  1.
          2   -1    0    0  501    0  0.00000000000E+00 -0.00000000000E+00 -0.43658788717E+03  0.43658788718E+03  0.25500000000E-02 0. -1.
         24    2    1    2    0    0  0.00000000000E+00  0.00000000000E+00 -0.43303077990E+03  0.44014499802E+03  0.78816006902E+02 0.  0.
         66    2    3    3    0    0 -0.14372252677E+02 -0.28811732147E+02 -0.34330088749E+03  0.34481324931E+03  0.19999983331E+01 0.  0.
        -13    1    3    3    0    0  0.14372252677E+02  0.28811732147E+02 -0.89729892404E+02  0.95331748706E+02  0.10566000000E+00 0.  1.
         13    1    4    4    0    0 -0.78734154650E+01 -0.15724138263E+02 -0.19341231550E+03  0.19421012885E+03  0.10566000000E+00 0. -1.
        -13    1    4    4    0    0 -0.22956000005E+00 -0.97141211215E+00 -0.91279627190E+01  0.91829846303E+01  0.10566000000E+00 0.  1.
         14    1    4    4    0    0 -0.62692772120E+01 -0.12116181772E+02 -0.14076060927E+03  0.14142013583E+03  0.00000000000E+00 0. -1.
<mgrwt>
<rscale>  0 0.78816007E+02</rscale>
<asrwt>0</asrwt>
<pdfrwt beam="1">  1        2 0.67167325E-01 0.78816007E+02</pdfrwt>
<pdfrwt beam="2">  1       -1 0.54724790E-03 0.78816007E+02</pdfrwt>
<totfact> 0.30273996E+05</totfact>
</mgrwt>
</event>
<event>
 8    1  0.1520917E-013  0.8462489E+02  0.7818608E-02  0.1316416E+00
          2   -1    0    0  501    0  0.00000000000E+00  0.00000000000E+00  0.43542478461E+03  0.43542478462E+03  0.25500000000E-02 0. -1.
         -1   -1    0    0    0  501 -0.00000000000E+00 -0.00000000000E+00 -0.41117143694E+01  0.41117174584E+01  0.50400000000E-02 0.  1.
         24    2    1    2    0    0  0.00000000000E+00  0.71054273576E-14  0.43131307025E+03  0.43953650208E+03  0.84624890527E+02 0.  0.
         66    2    3    3    0    0 -0.94972635034E+01  0.39425008089E+02  0.27806251115E+03  0.28101119084E+03  0.19999983421E+01 0.  0.
        -13    1    3    3    0    0  0.94972635034E+01 -0.39425008089E+02  0.15325055909E+03  0.15852531124E+03  0.10566000000E+00 0.  1.
         13    1    4    4    0    0 -0.69471060515E+01  0.25574963908E+02  0.18124808535E+03  0.18317538226E+03  0.10566000000E+00 0. -1.
        -13    1    4    4    0    0 -0.13756910531E+01  0.86527972619E+01  0.58430307326E+02  0.59083630597E+02  0.10566000000E+00 0.  1.
        -14    1    4    4    0    0 -0.11744663989E+01  0.51972469192E+01  0.38384118481E+02  0.38752177983E+02  0.00000000000E+00 0.  1.
<mgrwt>
<rscale>  0 0.84624891E+02</rscale>
<asrwt>0</asrwt>
<pdfrwt beam="1">  1        2 0.66988432E-01 0.84624891E+02</pdfrwt>
<pdfrwt beam="2">  1       -1 0.63257165E-03 0.84624891E+02</pdfrwt>
<totfact> 0.25113872E+05</totfact>
</mgrwt>
</event>
<event>
 8    1  0.1520917E-013  0.7817246E+02  0.7818608E-02  0.1334319E+00
          2   -1    0    0  501    0  0.00000000000E+00  0.00000000000E+00  0.22730669052E+03  0.22730669053E+03  0.25500000000E-02 0. -1.
         -1   -1    0    0    0  501 -0.00000000000E+00 -0.00000000000E+00 -0.67210208524E+01  0.67210227421E+01  0.50400000000E-02 0.  1.
         24    2    1    2    0    0 -0.17763568394E-14  0.88817841970E-15  0.22058566966E+03  0.23402771327E+03  0.78172456265E+02 0.  0.
         66    2    3    3    0    0  0.10275293876E+02 -0.72912322349E+01  0.22105150086E+03  0.22141930756E+03  0.19999996804E+01 0.  0.
        -13    1    3    3    0    0 -0.10275293876E+02  0.72912322349E+01 -0.46583119551E+00  0.12608405707E+02  0.10566000000E+00 0.  1.
         13    1    4    4    0    0  0.53701030528E+01 -0.35015722676E+01  0.10746302303E+03  0.10765412904E+03  0.10566000000E+00 0. -1.
        -13    1    4    4    0    0  0.21011536915E+01 -0.87058604362E+00  0.44558995056E+02  0.44617126435E+02  0.10566000000E+00 0.  1.
        -14    1    4    4    0    0  0.28040371320E+01 -0.29190739237E+01  0.69029482770E+02  0.69148052094E+02  0.00000000000E+00 0.  1.
<mgrwt>
<rscale>  0 0.78172456E+02</rscale>
<asrwt>0</asrwt>
<pdfrwt beam="1">  1        2 0.34970261E-01 0.78172456E+02</pdfrwt>
<pdfrwt beam="2">  1       -1 0.10340033E-02 0.78172456E+02</pdfrwt>
<totfact> 0.24518002E+05</totfact>
</mgrwt>
</event>
<event>
 8    1  0.1520917E-013  0.7977602E+02  0.7818608E-02  0.1329688E+00
         -1   -1    0    0    0  501 -0.00000000000E+00  0.00000000000E+00  0.31491961463E+02  0.31491961867E+02  0.50400000000E-02 0.  1.
          2   -1    0    0  501    0  0.00000000000E+00 -0.00000000000E+00 -0.50522516384E+02  0.50522516448E+02  0.25500000000E-02 0. -1.
         24    2    1    2    0    0 -0.35527136788E-14  0.17763568394E-14 -0.19030554921E+02  0.82014478315E+02  0.79776015397E+02 0.  0.
         66    2    3    3    0    0  0.22060049384E+02 -0.70686500607E+01 -0.42872801758E+02  0.48771802568E+02  0.20000006602E+01 0.  0.
        -13    1    3    3    0    0 -0.22060049384E+02  0.70686500607E+01  0.23842246838E+02  0.33242675747E+02  0.10566000000E+00 0.  1.
         13    1    4    4    0    0  0.68920848021E+01 -0.29449596145E+01 -0.14469107737E+02  0.16295393913E+02  0.10566000000E+00 0.  1.
        -13    1    4    4    0    0  0.58363630181E+01 -0.13420164924E+01 -0.10043871708E+02  0.11694215000E+02  0.10566000000E+00 0. -1.
         14    1    4    4    0    0  0.93316015637E+01 -0.27816739538E+01 -0.18359822314E+02  0.20782193655E+02  0.00000000000E+00 0. -1.
<mgrwt>
<rscale>  0 0.79776015E+02</rscale>
<asrwt>0</asrwt>
<pdfrwt beam="1">  1        2 0.77726948E-02 0.79776015E+02</pdfrwt>
<pdfrwt beam="2">  1       -1 0.48449172E-02 0.79776015E+02</pdfrwt>
<totfact> 0.15092303E+05</totfact>
</mgrwt>
</event>
<event>
 8    1  0.1520917E-013  0.8185315E+02  0.7818608E-02  0.1323873E+00
         -1   -1    0    0    0  501 -0.00000000000E+00  0.00000000000E+00  0.14479897300E+02  0.14479898177E+02  0.50400000000E-02 0.  1.
          2   -1    0    0  501    0  0.00000000000E+00 -0.00000000000E+00 -0.11567653696E+03  0.11567653698E+03  0.25500000000E-02 0. -1.
         24    2    1    2    0    0 -0.17763568394E-14  0.00000000000E+00 -0.10119663966E+03  0.13015643516E+03  0.81853147382E+02 0.  0.
         66    2    3    3    0    0 -0.11529375918E+02  0.28280973370E+02 -0.93891419101E+02  0.98753929287E+02  0.20000012851E+01 0.  0.
        -13    1    3    3    0    0  0.11529375918E+02 -0.28280973370E+02 -0.73052205553E+01  0.31402505874E+02  0.10566000000E+00 0.  1.
         13    1    4    4    0    0 -0.34262750117E+01  0.78090226476E+01 -0.24488039003E+02  0.25930588374E+02  0.10566000000E+00 0. -1.
        -13    1    4    4    0    0 -0.30685680050E+01  0.63145870220E+01 -0.22985522871E+02  0.24034049691E+02  0.10566000000E+00 0.  1.
         14    1    4    4    0    0 -0.50345329013E+01  0.14157363700E+02 -0.46417857226E+02  0.48789291222E+02  0.00000000000E+00 0. -1.
<mgrwt>
<rscale>  0 0.81853147E+02</rscale>
<asrwt>0</asrwt>
<pdfrwt beam="1">  1        2 0.17796390E-01 0.81853147E+02</pdfrwt>
<pdfrwt beam="2">  1       -1 0.22276767E-02 0.81853147E+02</pdfrwt>
<totfact> 0.17386514E+05</totfact>
</mgrwt>
</event>
<event>
 8    1  0.1520917E-013  0.7952112E+02  0.7818608E-02  0.1330416E+00
          2   -1    0    0  501    0  0.00000000000E+00  0.00000000000E+00  0.25924933401E+02  0.25924933527E+02  0.25500000000E-02 0. -1.
         -1   -1    0    0    0  501 -0.00000000000E+00 -0.00000000000E+00 -0.60979993072E+02  0.60979993280E+02  0.50400000000E-02 0.  1.
         24    2    1    2    0    0  0.00000000000E+00  0.00000000000E+00 -0.35055059671E+02  0.86904926807E+02  0.79521123576E+02 0.  0.
         66    2    3    3    0    0  0.16013444628E+02  0.34383184083E+02 -0.45956045631E+01  0.38259029488E+02  0.19999998797E+01 0.  0.
        -13    1    3    3    0    0 -0.16013444628E+02 -0.34383184083E+02 -0.30459455108E+02  0.48645897319E+02  0.10566000000E+00 0.  1.
         13    1    4    4    0    0  0.13037023806E+02  0.28154554186E+02 -0.34860626814E+01  0.31221894692E+02  0.10566000000E+00 0. -1.
        -13    1    4    4    0    0  0.21001554338E+01  0.51270161160E+01 -0.88179892860E+00  0.56112102514E+01  0.10566000000E+00 0.  1.
         14    1    4    4    0    0  0.87626538754E+00  0.11016137810E+01 -0.22774295307E+00  0.14259245438E+01  0.00000000000E+00 0. -1.
<mgrwt>
<rscale>  0 0.79521124E+02</rscale>
<asrwt>0</asrwt>
<pdfrwt beam="1">  1        2 0.39884513E-02 0.79521124E+02</pdfrwt>
<pdfrwt beam="2">  1       -1 0.93815374E-02 0.79521124E+02</pdfrwt>
<totfact> 0.13297287E+05</totfact>
</mgrwt>
</event>
<event>
 8    1  0.1520917E-013  0.8152684E+02  0.7818608E-02  0.1324773E+00
          2   -1    0    0  501    0  0.00000000000E+00  0.00000000000E+00  0.57943525070E+02  0.57943525126E+02  0.25500000000E-02 0. -1.
         -1   -1    0    0    0  501 -0.00000000000E+00 -0.00000000000E+00 -0.28677171290E+02  0.28677171733E+02  0.50400000000E-02 0.  1.
         24    2    1    2    0    0  0.00000000000E+00  0.00000000000E+00  0.29266353780E+02  0.86620696859E+02  0.81526840125E+02 0.  0.
         66    2    3    3    0    0  0.18426732192E+02 -0.26979560529E+02 -0.11213904278E+02  0.34600473848E+02  0.19999989387E+01 0.  0.
        -13    1    3    3    0    0 -0.18426732192E+02  0.26979560529E+02  0.40480258058E+02  0.52020223011E+02  0.10566000000E+00 0.  1.
         13    1    4    4    0    0  0.76333392416E+01 -0.10768388067E+02 -0.47377713661E+01  0.14024396283E+02  0.10566000000E+00 0. -1.
        -13    1    4    4    0    0  0.94238485778E+01 -0.13519902143E+02 -0.50525334007E+01  0.17237631327E+02  0.10566000000E+00 0.  1.
        -14    1    4    4    0    0  0.13695443730E+01 -0.26912703185E+01 -0.14235995116E+01  0.33384462383E+01  0.00000000000E+00 0.  1.
<mgrwt>
<rscale>  0 0.81526840E+02</rscale>
<asrwt>0</asrwt>
<pdfrwt beam="1">  1        2 0.89143884E-02 0.81526840E+02</pdfrwt>
<pdfrwt beam="2">  1       -1 0.44118726E-02 0.81526840E+02</pdfrwt>
<totfact> 0.14665826E+05</totfact>
</mgrwt>
</event>
<event>
 8    1  0.1520917E-013  0.8113398E+02  0.7818608E-02  0.1325864E+00
         -1   -1    0    0    0  501 -0.00000000000E+00  0.00000000000E+00  0.18617066466E+01  0.18617134688E+01  0.50400000000E-02 0.  1.
          2   -1    0    0  501    0  0.00000000000E+00 -0.00000000000E+00 -0.88396193464E+03  0.88396193464E+03  0.25500000000E-02 0. -1.
         24    2    1    2    0    0  0.00000000000E+00  0.71054273576E-14 -0.88210022799E+03  0.88582364811E+03  0.81133983812E+02 0.  0.
         66    2    3    3    0    0 -0.13675998461E+01  0.33585441229E+02 -0.68880387416E+03  0.68962644181E+03  0.19999982013E+01 0.  0.
        -13    1    3    3    0    0  0.13675998461E+01 -0.33585441229E+02 -0.19329635383E+03  0.19619720630E+03  0.10566000000E+00 0.  1.
         13    1    4    4    0    0 -0.79589373700E+00  0.12645755629E+02 -0.24642788140E+03  0.24675344066E+03  0.10566000000E+00 0. -1.
        -13    1    4    4    0    0 -0.71365658453E+00  0.18566441068E+02 -0.39767555614E+03  0.39810938341E+03  0.10566000000E+00 0.  1.
        -14    1    4    4    0    0  0.14195047539E+00  0.23732445319E+01 -0.44700436619E+02  0.44763617743E+02  0.00000000000E+00 0.  1.
<mgrwt>
<rscale>  0 0.81133984E+02</rscale>
<asrwt>0</asrwt>
<pdfrwt beam="1">  1        2 0.13599381E+00 0.81133984E+02</pdfrwt>
<pdfrwt beam="2">  1       -1 0.28641764E-03 0.81133984E+02</pdfrwt>
<totfact> 0.33621706E+05</totfact>
</mgrwt>
</event>
<event>
 8    1  0.1520917E-013  0.7979586E+02  0.7818608E-02  0.1329632E+00
         -1   -1    0    0    0  501 -0.00000000000E+00  0.00000000000E+00  0.20449477316E+01  0.20449539424E+01  0.50400000000E-02 0.  1.
          2   -1    0    0  501    0  0.00000000000E+00 -0.00000000000E+00 -0.77842692770E+03  0.77842692770E+03  0.25500000000E-02 0. -1.
         24    2    1    2    0    0  0.00000000000E+00  0.00000000000E+00 -0.77638197996E+03  0.78047188164E+03  0.79795859675E+02 0.  0.
         66    2    3    3    0    0  0.35112665130E+02 -0.53740641683E+01 -0.56558923198E+03  0.56670711938E+03  0.20000015341E+01 0.  0.
        -13    1    3    3    0    0 -0.35112665130E+02  0.53740641683E+01 -0.21079274798E+03  0.21376476226E+03  0.10566000000E+00 0.  1.
         13    1    4    4    0    0  0.56524944274E+01 -0.35501473784E+00 -0.91206500589E+02  0.91382239207E+02  0.10566000000E+00 0. -1.
        -13    1    4    4    0    0  0.26986692777E+02 -0.49493420085E+01 -0.43395935144E+03  0.43482583576E+03  0.10566000000E+00 0.  1.
        -14    1    4    4    0    0  0.24734779265E+01 -0.69707421895E-01 -0.40423379954E+02  0.40499044422E+02  0.00000000000E+00 0.  1.
<mgrwt>
<rscale>  0 0.79795860E+02</rscale>
<asrwt>0</asrwt>
<pdfrwt beam="1">  1        2 0.11975775E+00 0.79795860E+02</pdfrwt>
<pdfrwt beam="2">  1       -1 0.31460844E-03 0.79795860E+02</pdfrwt>
<totfact> 0.34425764E+05</totfact>
</mgrwt>
</event>
<event>
 8    1  0.1520917E-013  0.8685262E+02  0.7818608E-02  0.1310658E+00
         -1   -1    0    0    0  501 -0.00000000000E+00  0.00000000000E+00  0.28311803425E+01  0.28311848285E+01  0.50400000000E-02 0.  1.
          2   -1    0    0  501    0  0.00000000000E+00 -0.00000000000E+00 -0.66609777076E+03  0.66609777076E+03  0.25500000000E-02 0. -1.
         24    2    1    2    0    0  0.00000000000E+00  0.00000000000E+00 -0.66326659042E+03  0.66892895559E+03  0.86852620382E+02 0.  0.
         66    2    3    3    0    0 -0.37103024505E+00  0.33449229326E+02 -0.54481151109E+03  0.54584115933E+03  0.19999997055E+01 0.  0.
        -13    1    3    3    0    0  0.37103024505E+00 -0.33449229326E+02 -0.11845507933E+03  0.12308779626E+03  0.10566000000E+00 0.  1.
         13    1    4    4    0    0 -0.10902904960E+00  0.17752473937E+02 -0.29157170376E+03  0.29211167695E+03  0.10566000000E+00 0. -1.
        -13    1    4    4    0    0 -0.25597645233E+00  0.23749860431E+01 -0.32263233940E+02  0.32351715734E+02  0.10566000000E+00 0.  1.
        -14    1    4    4    0    0 -0.60247431187E-02  0.13321769346E+02 -0.22097657339E+03  0.22137776664E+03  0.00000000000E+00 0.  1.
<mgrwt>
<rscale>  0 0.86852620E+02</rscale>
<asrwt>0</asrwt>
<pdfrwt beam="1">  1        2 0.10247646E+00 0.86852620E+02</pdfrwt>
<pdfrwt beam="2">  1       -1 0.43556708E-03 0.86852620E+02</pdfrwt>
<totfact> 0.26675019E+05</totfact>
</mgrwt>
</event>
<event>
 8    1  0.1520917E-013  0.7824080E+02  0.7818608E-02  0.1334119E+00
          2   -1    0    0  501    0  0.00000000000E+00  0.00000000000E+00  0.46633744015E+03  0.46633744016E+03  0.25500000000E-02 0. -1.
         -1   -1    0    0    0  501 -0.00000000000E+00 -0.00000000000E+00 -0.32817541460E+01  0.32817580162E+01  0.50400000000E-02 0.  1.
         24    2    1    2    0    0  0.00000000000E+00  0.00000000000E+00  0.46305568601E+03  0.46961919818E+03  0.78240801071E+02 0.  0.
         66    2    3    3    0    0 -0.17734919468E+02 -0.49733422640E+01  0.43865896277E+03  0.43905005081E+03  0.19999996314E+01 0.  0.
        -13    1    3    3    0    0  0.17734919468E+02  0.49733422640E+01  0.24396723238E+02  0.30569147365E+02  0.10566000000E+00 0.  1.
         13    1    4    4    0    0 -0.12163245082E+02 -0.36895213350E+01  0.30352300999E+03  0.30378904828E+03  0.10566000000E+00 0. -1.
        -13    1    4    4    0    0 -0.18749384171E+01 -0.92209368142E+00  0.45249513367E+02  0.45297850664E+02  0.10566000000E+00 0.  1.
        -14    1    4    4    0    0 -0.36967359682E+01 -0.36172724755E+00  0.89886439414E+02  0.89963151868E+02  0.00000000000E+00 0.  1.
<mgrwt>
<rscale>  0 0.78240801E+02</rscale>
<asrwt>0</asrwt>
<pdfrwt beam="1">  1        2 0.71744237E-01 0.78240801E+02</pdfrwt>
<pdfrwt beam="2">  1       -1 0.50488544E-03 0.78240801E+02</pdfrwt>
<totfact> 0.31545360E+05</totfact>
</mgrwt>
</event>
<event>
 8    1  0.1520917E-013  0.8057120E+02  0.7818608E-02  0.1327438E+00
         -1   -1    0    0    0  501 -0.00000000000E+00  0.00000000000E+00  0.36902647159E+01  0.36902681576E+01  0.50400000000E-02 0.  1.
          2   -1    0    0  501    0  0.00000000000E+00 -0.00000000000E+00 -0.43978650888E+03  0.43978650888E+03  0.25500000000E-02 0. -1.
         24    2    1    2    0    0  0.00000000000E+00  0.00000000000E+00 -0.43609624416E+03  0.44347677704E+03  0.80571195871E+02 0.  0.
         66    2    3    3    0    0 -0.18620504180E+02 -0.10907212493E+02 -0.40526153638E+03  0.40584061320E+03  0.19999997061E+01 0.  0.
        -13    1    3    3    0    0  0.18620504180E+02  0.10907212493E+02 -0.30834707784E+02  0.37636163838E+02  0.10566000000E+00 0.  1.
         13    1    4    4    0    0 -0.87863426300E+01 -0.58563512370E+01 -0.20721946489E+03  0.20748834777E+03  0.10566000000E+00 0. -1.
        -13    1    4    4    0    0 -0.69589220670E+01 -0.31452157052E+01 -0.13473225957E+03  0.13494855283E+03  0.10566000000E+00 0.  1.
        -14    1    4    4    0    0 -0.28752394826E+01 -0.19056455510E+01 -0.63309811924E+02  0.63403712611E+02  0.00000000000E+00 0.  1.
<mgrwt>
<rscale>  0 0.80571196E+02</rscale>
<asrwt>0</asrwt>
<pdfrwt beam="1">  1        2 0.67659422E-01 0.80571196E+02</pdfrwt>
<pdfrwt beam="2">  1       -1 0.56773365E-03 0.80571196E+02</pdfrwt>
<totfact> 0.28654471E+05</totfact>
</mgrwt>
</event>
<event>
 8    1  0.1520917E-013  0.8009904E+02  0.7818608E-02  0.1328771E+00
          2   -1    0    0  501    0  0.00000000000E+00  0.00000000000E+00  0.13626439561E+03  0.13626439563E+03  0.25500000000E-02 0. -1.
         -1   -1    0    0    0  501 -0.00000000000E+00 -0.00000000000E+00 -0.11770967868E+02  0.11770968947E+02  0.50400000000E-02 0.  1.
         24    2    1    2    0    0  0.00000000000E+00  0.00000000000E+00  0.12449342774E+03  0.14803536458E+03  0.80099036297E+02 0.  0.
         66    2    3    3    0    0  0.37689668382E+02 -0.92715631169E+01  0.80345005702E+02  0.89251290904E+02  0.20000003515E+01 0.  0.
        -13    1    3    3    0    0 -0.37689668382E+02  0.92715631169E+01  0.44148422036E+02  0.58784073674E+02  0.10566000000E+00 0.  1.
         13    1    4    4    0    0  0.27178634313E+02 -0.63521495781E+01  0.57254264089E+02  0.63695289369E+02  0.10566000000E+00 0. -1.
        -13    1    4    4    0    0  0.53318393255E+01 -0.10227636491E+01  0.11859577421E+02  0.13043592171E+02  0.10566000000E+00 0.  1.
        -14    1    4    4    0    0  0.51791947434E+01 -0.18966498897E+01  0.11231164192E+02  0.12512409364E+02  0.00000000000E+00 0.  1.
<mgrwt>
<rscale>  0 0.80099036E+02</rscale>
<asrwt>0</asrwt>
<pdfrwt beam="1">  1        2 0.20963752E-01 0.80099036E+02</pdfrwt>
<pdfrwt beam="2">  1       -1 0.18109183E-02 0.80099036E+02</pdfrwt>
<totfact> 0.19364533E+05</totfact>
</mgrwt>
</event>
<event>
 8    1  0.1520917E-013  0.7994778E+02  0.7818608E-02  0.1329200E+00
          2   -1    0    0  501    0  0.00000000000E+00  0.00000000000E+00  0.11229094250E+04  0.11229094250E+04  0.25500000000E-02 0. -1.
         -1   -1    0    0    0  501 -0.00000000000E+00 -0.00000000000E+00 -0.14230060689E+01  0.14230149942E+01  0.50400000000E-02 0.  1.
         24    2    1    2    0    0  0.00000000000E+00  0.00000000000E+00  0.11214864189E+04  0.11243324400E+04  0.79947781601E+02 0.  0.
         66    2    3    3    0    0 -0.98269087508E+01  0.20691820128E+01  0.11048656622E+04  0.11049131103E+04  0.19999995090E+01 0.  0.
        -13    1    3    3    0    0  0.98269087508E+01 -0.20691820128E+01  0.16620756644E+02  0.19419329681E+02  0.10566000000E+00 0.  1.
         13    1    4    4    0    0 -0.98904013429E+00 -0.15480645333E+00  0.77912195107E+02  0.77918697858E+02  0.10566000000E+00 0. -1.
        -13    1    4    4    0    0 -0.47953794391E+01  0.16030367212E+01  0.53109289319E+03  0.53111697182E+03  0.10566000000E+00 0.  1.
        -14    1    4    4    0    0 -0.40424891774E+01  0.62095174495E+00  0.49586057395E+03  0.49587744060E+03  0.00000000000E+00 0.  1.
<mgrwt>
<rscale>  0 0.79947782E+02</rscale>
<asrwt>0</asrwt>
<pdfrwt beam="1">  1        2 0.17275487E+00 0.79947782E+02</pdfrwt>
<pdfrwt beam="2">  1       -1 0.21892524E-03 0.79947782E+02</pdfrwt>
<totfact> 0.35282361E+05</totfact>
</mgrwt>
</event>
<event>
 8    1  0.1520917E-013  0.7972905E+02  0.7818608E-02  0.1329822E+00
         -1   -1    0    0    0  501 -0.00000000000E+00  0.00000000000E+00  0.54517497701E+01  0.54517520998E+01  0.50400000000E-02 0.  1.
          2   -1    0    0  501    0  0.00000000000E+00 -0.00000000000E+00 -0.29149907803E+03  0.29149907804E+03  0.25500000000E-02 0. -1.
         24    2    1    2    0    0  0.44408920985E-15 -0.17763568394E-14 -0.28604732826E+03  0.29695083014E+03  0.79729050645E+02 0.  0.
         66    2    3    3    0    0 -0.30856766241E+01  0.12236637151E+02 -0.28385410804E+03  0.28414153398E+03  0.19999994139E+01 0.  0.
        -13    1    3    3    0    0  0.30856766241E+01 -0.12236637151E+02 -0.21932202224E+01  0.12809296154E+02  0.10566000000E+00 0.  1.
         13    1    4    4    0    0 -0.23909482387E+01  0.75137172440E+01 -0.18098896478E+03  0.18116067210E+03  0.10566000000E+00 0. -1.
        -13    1    4    4    0    0 -0.11416928789E+00  0.35001592637E+00 -0.42900602107E+01  0.43071250762E+01  0.10566000000E+00 0.  1.
         14    1    4    4    0    0 -0.58055909749E+00  0.43729039803E+01 -0.98575083045E+02  0.98673736807E+02  0.00000000000E+00 0. -1.
<mgrwt>
<rscale>  0 0.79729051E+02</rscale>
<asrwt>0</asrwt>
<pdfrwt beam="1">  1        2 0.44846000E-01 0.79729051E+02</pdfrwt>
<pdfrwt beam="2">  1       -1 0.83873114E-03 0.79729051E+02</pdfrwt>
<totfact> 0.25455902E+05</totfact>
</mgrwt>
</event>
<event>
 8    1  0.1520917E-013  0.7725155E+02  0.7818608E-02  0.1337037E+00
          2   -1    0    0  501    0  0.00000000000E+00  0.00000000000E+00  0.18626120301E+02  0.18626120476E+02  0.25500000000E-02 0. -1.
         -1   -1    0    0    0  501 -0.00000000000E+00 -0.00000000000E+00 -0.80099900445E+02  0.80099900604E+02  0.50400000000E-02 0.  1.
         24    2    1    2    0    0  0.44408920985E-15  0.00000000000E+00 -0.61473780144E+02  0.98726021080E+02  0.77251547512E+02 0.  0.
         66    2    3    3    0    0 -0.24907887248E+01  0.38157800206E+02 -0.24028437545E+02  0.45206056661E+02  0.20000007171E+01 0.  0.
        -13    1    3    3    0    0  0.24907887248E+01 -0.38157800206E+02 -0.37445342599E+02  0.53519964419E+02  0.10566000000E+00 0.  1.
         13    1    4    4    0    0 -0.11227362152E+01  0.15414932009E+02 -0.92232008376E+01  0.17998868386E+02  0.10566000000E+00 0. -1.
        -13    1    4    4    0    0 -0.10561869716E+01  0.21778642328E+02 -0.13991245364E+02  0.25907352305E+02  0.10566000000E+00 0.  1.
        -14    1    4    4    0    0 -0.31186553800E+00  0.96422586975E+00 -0.81399134343E+00  0.12998359700E+01  0.00000000000E+00 0.  1.
<mgrwt>
<rscale>  0 0.77251548E+02</rscale>
<asrwt>0</asrwt>
<pdfrwt beam="1">  1        2 0.28655570E-02 0.77251548E+02</pdfrwt>
<pdfrwt beam="2">  1       -1 0.12323061E-01 0.77251548E+02</pdfrwt>
<totfact> 0.13531373E+05</totfact>
</mgrwt>
</event>
<event>
 8    1  0.1520917E-013  0.8286182E+02  0.7818608E-02  0.1321121E+00
         -1   -1    0    0    0  501 -0.00000000000E+00  0.00000000000E+00  0.27879535304E+01  0.27879580860E+01  0.50400000000E-02 0.  1.
          2   -1    0    0  501    0  0.00000000000E+00 -0.00000000000E+00 -0.61569142406E+03  0.61569142406E+03  0.25500000000E-02 0. -1.
         24    2    1    2    0    0  0.00000000000E+00  0.00000000000E+00 -0.61290347053E+03  0.61847938215E+03  0.82861824497E+02 0.  0.
         66    2    3    3    0    0 -0.57134224669E+01 -0.36824408206E+02 -0.44136146115E+03  0.44293636069E+03  0.20000002867E+01 0.  0.
        -13    1    3    3    0    0  0.57134224669E+01  0.36824408206E+02 -0.17154200938E+03  0.17554302146E+03  0.10566000000E+00 0.  1.
         13    1    4    4    0    0 -0.16356955987E+01 -0.94711111159E+01 -0.10573675764E+03  0.10617273909E+03  0.10566000000E+00 0. -1.
        -13    1    4    4    0    0 -0.66127580906E+00 -0.54889040979E+01 -0.71435490716E+02  0.71649185982E+02  0.10566000000E+00 0.  1.
         14    1    4    4    0    0 -0.34164510591E+01 -0.21864392992E+02 -0.26418921279E+03  0.26511443562E+03  0.00000000000E+00 0. -1.
<mgrwt>
<rscale>  0 0.82861824E+02</rscale>
<asrwt>0</asrwt>
<pdfrwt beam="1">  1        2 0.94721649E-01 0.82861824E+02</pdfrwt>
<pdfrwt beam="2">  1       -1 0.42891677E-03 0.82861824E+02</pdfrwt>
<totfact> 0.29557044E+05</totfact>
</mgrwt>
</event>
<event>
 8    1  0.1520917E-013  0.8109561E+02  0.7818608E-02  0.1325971E+00
         -1   -1    0    0    0  501 -0.00000000000E+00  0.00000000000E+00  0.11512121916E+03  0.11512121927E+03  0.50400000000E-02 0.  1.
          2   -1    0    0  501    0  0.00000000000E+00 -0.00000000000E+00 -0.14281681292E+02  0.14281681519E+02  0.25500000000E-02 0. -1.
         24    2    1    2    0    0  0.17763568394E-14  0.00000000000E+00  0.10083953786E+03  0.12940290078E+03  0.81095612304E+02 0.  0.
         66    2    3    3    0    0  0.14868596772E+02 -0.19098261289E+02 -0.14106002427E+01  0.24327115463E+02  0.19999998699E+01 0.  0.
        -13    1    3    3    0    0 -0.14868596772E+02  0.19098261289E+02  0.10225013811E+03  0.10507578532E+03  0.10566000000E+00 0.  1.
         13    1    4    4    0    0  0.10321491736E+02 -0.12772944446E+02 -0.89482267766E+00  0.16446676660E+02  0.10566000000E+00 0. -1.
        -13    1    4    4    0    0  0.20127497101E+01 -0.27721716838E+01 -0.75466686024E+00  0.35095275103E+01  0.10566000000E+00 0.  1.
        -14    1    4    4    0    0  0.25343553261E+01 -0.35531451586E+01  0.23888929523E+00  0.43709112932E+01  0.00000000000E+00 0.  1.
<mgrwt>
<rscale>  0 0.81095612E+02</rscale>
<asrwt>0</asrwt>
<pdfrwt beam="1">  1        2 0.21971818E-02 0.81095612E+02</pdfrwt>
<pdfrwt beam="2">  1       -1 0.17710956E-01 0.81095612E+02</pdfrwt>
<totfact> 0.11107077E+05</totfact>
</mgrwt>
</event>
<event>
 8    1  0.1520917E-013  0.7958776E+02  0.7818608E-02  0.1330225E+00
          2   -1    0    0  501    0  0.00000000000E+00  0.00000000000E+00  0.10761690479E+04  0.10761690479E+04  0.25500000000E-02 0. -1.
         -1   -1    0    0    0  501 -0.00000000000E+00 -0.00000000000E+00 -0.14714679041E+01  0.14714765355E+01  0.50400000000E-02 0.  1.
         24    2    1    2    0    0 -0.22204460493E-15 -0.35527136788E-14  0.10746975800E+04  0.10776405245E+04  0.79587759506E+02 0.  0.
         66    2    3    3    0    0 -0.19237402257E+01  0.26846133013E+02  0.93410352726E+03  0.93449334681E+03  0.19999899332E+01 0.  0.
        -13    1    3    3    0    0  0.19237402257E+01 -0.26846133013E+02  0.14059405276E+03  0.14314717766E+03  0.10566000000E+00 0.  1.
         13    1    4    4    0    0 -0.13534854523E+01  0.15294194714E+02  0.53970727178E+03  0.53992563812E+03  0.10566000000E+00 0. -1.
        -13    1    4    4    0    0 -0.84442513687E+00  0.49309095123E+01  0.16900057519E+03  0.16907463589E+03  0.10566000000E+00 0.  1.
        -14    1    4    4    0    0  0.27417036342E+00  0.66210287868E+01  0.22539568028E+03  0.22549307280E+03  0.00000000000E+00 0.  1.
<mgrwt>
<rscale>  0 0.79587760E+02</rscale>
<asrwt>0</asrwt>
<pdfrwt beam="1">  1        2 0.16556478E+00 0.79587760E+02</pdfrwt>
<pdfrwt beam="2">  1       -1 0.22637992E-03 0.79587760E+02</pdfrwt>
<totfact> 0.35745430E+05</totfact>
</mgrwt>
</event>
<event>
 8    1  0.1520917E-013  0.7944301E+02  0.7818608E-02  0.1330640E+00
          2   -1    0    0  501    0  0.00000000000E+00  0.00000000000E+00  0.11850864087E+04  0.11850864087E+04  0.25500000000E-02 0. -1.
         -1   -1    0    0    0  501 -0.00000000000E+00 -0.00000000000E+00 -0.13313730623E+01  0.13313826019E+01  0.50400000000E-02 0.  1.
         24    2    1    2    0    0  0.00000000000E+00  0.00000000000E+00  0.11837550356E+04  0.11864177913E+04  0.79443005523E+02 0.  0.
         66    2    3    3    0    0 -0.20427626307E+02 -0.92688586815E+01  0.10813536670E+04  0.10815881623E+04  0.19999994729E+01 0.  0.
        -13    1    3    3    0    0  0.20427626307E+02  0.92688586815E+01  0.10240136860E+03  0.10482962899E+03  0.10566000000E+00 0.  1.
         13    1    4    4    0    0 -0.67185274678E+01 -0.28115006655E+01  0.31533044653E+03  0.31541456025E+03  0.10566000000E+00 0. -1.
        -13    1    4    4    0    0 -0.15686339937E+01 -0.51017036677E+00  0.76179785762E+02  0.76197715249E+02  0.10566000000E+00 0.  1.
         14    1    4    4    0    0 -0.12140464846E+02 -0.59471876492E+01  0.68984343472E+03  0.68997588679E+03  0.00000000000E+00 0. -1.
<mgrwt>
<rscale>  0 0.79443006E+02</rscale>
<asrwt>0</asrwt>
<pdfrwt beam="1">  1        2 0.18232114E+00 0.79443006E+02</pdfrwt>
<pdfrwt beam="2">  1       -1 0.20482718E-03 0.79443006E+02</pdfrwt>
<totfact> 0.35725722E+05</totfact>
</mgrwt>
</event>
<event>
 8    1  0.1534558E-013  0.8139939E+02  0.7818608E-02  0.1325126E+00
          2   -1    0    0  501    0  0.00000000000E+00  0.00000000000E+00  0.70136040861E+02  0.70136040907E+02  0.25500000000E-02 0. -1.
         -1   -1    0    0    0  501 -0.00000000000E+00 -0.00000000000E+00 -0.23617888694E+02  0.23617889232E+02  0.50400000000E-02 0.  1.
         24    2    1    2    0    0 -0.35527136788E-14 -0.35527136788E-14  0.46518152167E+02  0.93753930139E+02  0.81399391494E+02 0.  0.
         66    2    3    3    0    0  0.16839056020E+02 -0.28171985708E+02  0.50945595520E+02  0.60635536382E+02  0.19999957824E+01 0.  0.
        -13    1    3    3    0    0 -0.16839056020E+02  0.28171985708E+02 -0.44274433531E+01  0.33118393757E+02  0.10566000000E+00 0.  1.
         13    1    4    4    0    0  0.75536039536E+01 -0.11302222889E+02  0.21304642854E+02  0.25272438468E+02  0.10566000000E+00 0. -1.
        -13    1    4    4    0    0  0.54962255044E+01 -0.92251177632E+01  0.17213856373E+02  0.20288896170E+02  0.10566000000E+00 0.  1.
        -14    1    4    4    0    0  0.37892265615E+01 -0.76446450556E+01  0.12427096293E+02  0.15074201745E+02  0.00000000000E+00 0.  1.
<mgrwt>
<rscale>  0 0.81399391E+02</rscale>
<asrwt>0</asrwt>
<pdfrwt beam="1">  1        2 0.10790160E-01 0.81399391E+02</pdfrwt>
<pdfrwt beam="2">  1       -1 0.36335215E-02 0.81399391E+02</pdfrwt>
<totfact> 0.15412634E+05</totfact>
</mgrwt>
</event>
<event>
 8    1  0.1520917E-013  0.7892697E+02  0.7818608E-02  0.1332124E+00
         -1   -1    0    0    0  501 -0.00000000000E+00  0.00000000000E+00  0.21345210878E+02  0.21345211473E+02  0.50400000000E-02 0.  1.
          2   -1    0    0  501    0  0.00000000000E+00 -0.00000000000E+00 -0.72960935335E+02  0.72960935379E+02  0.25500000000E-02 0. -1.
         24    2    1    2    0    0  0.00000000000E+00  0.00000000000E+00 -0.51615724457E+02  0.94306146852E+02  0.78926968287E+02 0.  0.
         66    2    3    3    0    0  0.19905846359E+02 -0.74703530579E+01 -0.65512815432E+02  0.68905572141E+02  0.19999980506E+01 0.  0.
        -13    1    3    3    0    0 -0.19905846359E+02  0.74703530579E+01  0.13897090975E+02  0.25400574711E+02  0.10566000000E+00 0.  1.
         13    1    4    4    0    0  0.77780548159E+01 -0.24280496856E+01 -0.26375301280E+02  0.27605456773E+02  0.10566000000E+00 0. -1.
        -13    1    4    4    0    0  0.12126673292E+02 -0.50093771619E+01 -0.39122019253E+02  0.41263708258E+02  0.10566000000E+00 0.  1.
        -14    1    4    4    0    0  0.11182505960E-02 -0.32926210358E-01 -0.15494898802E-01  0.36407110594E-01  0.00000000000E+00 0.  1.
<mgrwt>
<rscale>  0 0.78926968E+02</rscale>
<asrwt>0</asrwt>
<pdfrwt beam="1">  1        2 0.11224759E-01 0.78926968E+02</pdfrwt>
<pdfrwt beam="2">  1       -1 0.32838787E-02 0.78926968E+02</pdfrwt>
<totfact> 0.16917927E+05</totfact>
</mgrwt>
</event>
<event>
 8    1  0.1520917E-013  0.8511573E+02  0.7818608E-02  0.1315130E+00
         -1   -1    0    0    0  501 -0.00000000000E+00  0.00000000000E+00  0.47941820701E+01  0.47941847193E+01  0.50400000000E-02 0.  1.
          2   -1    0    0  501    0  0.00000000000E+00 -0.00000000000E+00 -0.37778530800E+03  0.37778530801E+03  0.25500000000E-02 0. -1.
         24    2    1    2    0    0  0.27755575616E-16  0.35527136788E-14 -0.37299112593E+03  0.38257949273E+03  0.85115734347E+02 0.  0.
         66    2    3    3    0    0 -0.15604362724E+00 -0.15090515683E+02 -0.36534382633E+03  0.36566085306E+03  0.20000016733E+01 0.  0.
        -13    1    3    3    0    0  0.15604362724E+00  0.15090515683E+02 -0.76472996027E+01  0.16918639675E+02  0.10566000000E+00 0.  1.
         13    1    4    4    0    0 -0.16720309277E+00 -0.19125405992E+01 -0.50854819106E+02  0.50891154032E+02  0.10566000000E+00 0. -1.
        -13    1    4    4    0    0 -0.83645928035E+00 -0.61422947947E+01 -0.14305397747E+03  0.14318826448E+03  0.10566000000E+00 0.  1.
         14    1    4    4    0    0  0.84761874589E+00 -0.70356802896E+01 -0.17143502975E+03  0.17158143454E+03  0.00000000000E+00 0. -1.
<mgrwt>
<rscale>  0 0.85115734E+02</rscale>
<asrwt>0</asrwt>
<pdfrwt beam="1">  1        2 0.58120793E-01 0.85115734E+02</pdfrwt>
<pdfrwt beam="2">  1       -1 0.73756697E-03 0.85115734E+02</pdfrwt>
<totfact> 0.23537118E+05</totfact>
</mgrwt>
</event>
<event>
 8    1  0.1520917E-013  0.8485833E+02  0.7818608E-02  0.1315803E+00
         -1   -1    0    0    0  501 -0.00000000000E+00  0.00000000000E+00  0.11391848570E+02  0.11391849685E+02  0.50400000000E-02 0.  1.
          2   -1    0    0  501    0  0.00000000000E+00 -0.00000000000E+00 -0.15802824941E+03  0.15802824943E+03  0.25500000000E-02 0. -1.
         24    2    1    2    0    0 -0.35527136788E-14 -0.11102230246E-15 -0.14663640084E+03  0.16942009911E+03  0.84858328602E+02 0.  0.
         66    2    3    3    0    0 -0.21776757329E+02 -0.91550894299E+00 -0.14598232403E+03  0.14761403810E+03  0.19999997187E+01 0.  0.
        -13    1    3    3    0    0  0.21776757329E+02  0.91550894299E+00 -0.65407680728E+00  0.21806061013E+02  0.10566000000E+00 0.  1.
         13    1    4    4    0    0 -0.31719790623E+01  0.20301070293E+00 -0.22064405725E+02  0.22292416391E+02  0.10566000000E+00 0. -1.
        -13    1    4    4    0    0 -0.10083760651E+02 -0.11538022991E+01 -0.63622026499E+02  0.64426600939E+02  0.10566000000E+00 0.  1.
        -14    1    4    4    0    0 -0.85210176151E+01  0.35282653222E-01 -0.60295891804E+02  0.60895020770E+02  0.00000000000E+00 0.  1.
<mgrwt>
<rscale>  0 0.84858329E+02</rscale>
<asrwt>0</asrwt>
<pdfrwt beam="1">  1        2 0.24312037E-01 0.84858329E+02</pdfrwt>
<pdfrwt beam="2">  1       -1 0.17525923E-02 0.84858329E+02</pdfrwt>
<totfact> 0.17415964E+05</totfact>
</mgrwt>
</event>
<event>
 8    1  0.1520917E-013  0.8099460E+02  0.7818608E-02  0.1326252E+00
         -1   -1    0    0    0  501 -0.00000000000E+00  0.00000000000E+00  0.19540811636E+03  0.19540811642E+03  0.50400000000E-02 0.  1.
          2   -1    0    0  501    0  0.00000000000E+00 -0.00000000000E+00 -0.83928517212E+01  0.83928521086E+01  0.25500000000E-02 0. -1.
         24    2    1    2    0    0 -0.88817841970E-15  0.00000000000E+00  0.18701526464E+03  0.20380096853E+03  0.80994602087E+02 0.  0.
         66    2    3    3    0    0  0.60892066550E+01 -0.37527448425E+02  0.12848831501E+03  0.13400983142E+03  0.19999998694E+01 0.  0.
        -13    1    3    3    0    0 -0.60892066550E+01  0.37527448425E+02  0.58526949625E+02  0.69791137112E+02  0.10566000000E+00 0.  1.
         13    1    4    4    0    0  0.21438982388E+01 -0.87906506005E+01  0.31481429773E+02  0.32756120378E+02  0.10566000000E+00 0. -1.
        -13    1    4    4    0    0  0.88608352647E+00 -0.45009433484E+01  0.15455166486E+02  0.16121940646E+02  0.10566000000E+00 0.  1.
        -14    1    4    4    0    0  0.30592248897E+01 -0.24235854476E+02  0.81551718752E+02  0.85131770395E+02  0.00000000000E+00 0.  1.
<mgrwt>
<rscale>  0 0.80994602E+02</rscale>
<asrwt>0</asrwt>
<pdfrwt beam="1">  1        2 0.12912081E-02 0.80994602E+02</pdfrwt>
<pdfrwt beam="2">  1       -1 0.30062784E-01 0.80994602E+02</pdfrwt>
<totfact> 0.97196641E+04</totfact>
</mgrwt>
</event>
<event>
 8    1  0.1520917E-013  0.7932657E+02  0.7818608E-02  0.1330973E+00
          2   -1    0    0  501    0  0.00000000000E+00  0.00000000000E+00  0.39836602750E+02  0.39836602831E+02  0.25500000000E-02 0. -1.
         -1   -1    0    0    0  501 -0.00000000000E+00 -0.00000000000E+00 -0.39490718957E+02  0.39490719279E+02  0.50400000000E-02 0.  1.
         24    2    1    2    0    0  0.44408920985E-15  0.00000000000E+00  0.34588379238E+00  0.79327322110E+02  0.79326568043E+02 0.  0.
         66    2    3    3    0    0  0.22733174256E+01 -0.26350509986E+02  0.29697115968E+02  0.39817534171E+02  0.19999955011E+01 0.  0.
        -13    1    3    3    0    0 -0.22733174256E+01  0.26350509986E+02 -0.29351232176E+02  0.39509787938E+02  0.10566000000E+00 0.  1.
         13    1    4    4    0    0  0.88696093603E+00 -0.91282533366E+01  0.10098782924E+02  0.13642151196E+02  0.10566000000E+00 0. -1.
        -13    1    4    4    0    0  0.11737830650E+01 -0.16569668632E+02  0.19171750674E+02  0.25367279579E+02  0.10566000000E+00 0.  1.
        -14    1    4    4    0    0  0.21257342457E+00 -0.65258801714E+00  0.42658237018E+00  0.80810339654E+00  0.00000000000E+00 0.  1.
<mgrwt>
<rscale>  0 0.79326568E+02</rscale>
<asrwt>0</asrwt>
<pdfrwt beam="1">  1        2 0.61287081E-02 0.79326568E+02</pdfrwt>
<pdfrwt beam="2">  1       -1 0.60754953E-02 0.79326568E+02</pdfrwt>
<totfact> 0.14579881E+05</totfact>
</mgrwt>
</event>
<event>
 8    1  0.1822028E-013  0.7947755E+02  0.7818608E-02  0.1330541E+00
          2   -1    0    0  501    0  0.00000000000E+00  0.00000000000E+00  0.21280668533E+03  0.21280668535E+03  0.25500000000E-02 0. -1.
         -1   -1    0    0    0  501 -0.00000000000E+00 -0.00000000000E+00 -0.74206793894E+01  0.74206811010E+01  0.50400000000E-02 0.  1.
         24    2    1    2    0    0  0.00000000000E+00  0.35527136788E-14  0.20538600595E+03  0.22022736645E+03  0.79477553408E+02 0.  0.
         66    2    3    3    0    0 -0.20937094015E+02 -0.31115325917E+02  0.13895440516E+03  0.14394044648E+03  0.20000012241E+01 0.  0.
        -13    1    3    3    0    0  0.20937094015E+02  0.31115325917E+02  0.66431600783E+02  0.76286919975E+02  0.10566000000E+00 0.  1.
         13    1    4    4    0    0 -0.83693376063E+01 -0.12450535627E+02  0.55916274142E+02  0.57893890241E+02  0.10566000000E+00 0. -1.
        -13    1    4    4    0    0 -0.11746494880E+02 -0.17420030922E+02  0.75907137571E+02  0.78761299619E+02  0.10566000000E+00 0.  1.
        -14    1    4    4    0    0 -0.82126152868E+00 -0.12447593680E+01  0.71309934499E+01  0.72852566163E+01  0.00000000000E+00 0.  1.
<mgrwt>
<rscale>  0 0.79477553E+02</rscale>
<asrwt>0</asrwt>
<pdfrwt beam="1">  1        2 0.32739487E-01 0.79477553E+02</pdfrwt>
<pdfrwt beam="2">  1       -1 0.11416432E-02 0.79477553E+02</pdfrwt>
<totfact> 0.22934448E+05</totfact>
</mgrwt>
</event>
<event>
 8    1  0.1520917E-013  0.7776978E+02  0.7818608E-02  0.1335502E+00
          2   -1    0    0  501    0  0.00000000000E+00  0.00000000000E+00  0.32870185065E+02  0.32870185163E+02  0.25500000000E-02 0. -1.
         -1   -1    0    0    0  501 -0.00000000000E+00 -0.00000000000E+00 -0.46000185646E+02  0.46000185923E+02  0.50400000000E-02 0.  1.
         24    2    1    2    0    0  0.00000000000E+00  0.00000000000E+00 -0.13130000582E+02  0.78870371086E+02  0.77769778963E+02 0.  0.
         66    2    3    3    0    0  0.25762720158E+02  0.19041322434E+02  0.15736018621E+02  0.35747895060E+02  0.20000022928E+01 0.  0.
        -13    1    3    3    0    0 -0.25762720158E+02 -0.19041322434E+02 -0.28866019203E+02  0.43122476026E+02  0.10566000000E+00 0.  1.
         13    1    4    4    0    0  0.10902837329E+02  0.87839420107E+01  0.60294479837E+01  0.15244504128E+02  0.10566000000E+00 0. -1.
        -13    1    4    4    0    0  0.63673008363E+01  0.42697974116E+01  0.42715921573E+01  0.87767507353E+01  0.10566000000E+00 0.  1.
         14    1    4    4    0    0  0.84925819926E+01  0.59875830118E+01  0.54349784800E+01  0.11726640197E+02  0.00000000000E+00 0. -1.
<mgrwt>
<rscale>  0 0.77769779E+02</rscale>
<asrwt>0</asrwt>
<pdfrwt beam="1">  1        2 0.50569516E-02 0.77769779E+02</pdfrwt>
<pdfrwt beam="2">  1       -1 0.70769517E-02 0.77769779E+02</pdfrwt>
<totfact> 0.14822855E+05</totfact>
</mgrwt>
</event>
<event>
 8    1  0.1520917E-013  0.7639591E+02  0.7818608E-02  0.1339602E+00
         -1   -1    0    0    0  501 -0.00000000000E+00  0.00000000000E+00  0.24325024155E+01  0.24325076368E+01  0.50400000000E-02 0.  1.
          2   -1    0    0  501    0  0.00000000000E+00 -0.00000000000E+00 -0.59982767509E+03  0.59982767510E+03  0.25500000000E-02 0. -1.
         24    2    1    2    0    0  0.00000000000E+00  0.17763568394E-14 -0.59739517268E+03  0.60226018273E+03  0.76395911997E+02 0.  0.
         66    2    3    3    0    0  0.19357250693E+02  0.15414485209E+02 -0.52803234927E+03  0.52861561780E+03  0.20000008609E+01 0.  0.
        -13    1    3    3    0    0 -0.19357250693E+02 -0.15414485209E+02 -0.69362823409E+02  0.73644564931E+02  0.10566000000E+00 0.  1.
         13    1    4    4    0    0  0.44959858445E+01  0.31393759500E+01 -0.11064160665E+03  0.11077746096E+03  0.10566000000E+00 0. -1.
        -13    1    4    4    0    0  0.87664445285E+01  0.66730987022E+01 -0.25067448849E+03  0.25091650232E+03  0.10566000000E+00 0.  1.
        -14    1    4    4    0    0  0.60948203199E+01  0.56020105564E+01 -0.16671625413E+03  0.16692165452E+03  0.00000000000E+00 0.  1.
<mgrwt>
<rscale>  0 0.76395912E+02</rscale>
<asrwt>0</asrwt>
<pdfrwt beam="1">  1        2 0.92281063E-01 0.76395912E+02</pdfrwt>
<pdfrwt beam="2">  1       -1 0.37423202E-03 0.76395912E+02</pdfrwt>
<totfact> 0.36249687E+05</totfact>
</mgrwt>
</event>
<event>
 8    1  0.1520917E-013  0.7926286E+02  0.7818608E-02  0.1331156E+00
         -1   -1    0    0    0  501 -0.00000000000E+00  0.00000000000E+00  0.48351242924E+01  0.48351269192E+01  0.50400000000E-02 0.  1.
          2   -1    0    0  501    0  0.00000000000E+00 -0.00000000000E+00 -0.32484168931E+03  0.32484168932E+03  0.25500000000E-02 0. -1.
         24    2    1    2    0    0  0.00000000000E+00  0.71054273576E-14 -0.32000656502E+03  0.32967681624E+03  0.79262863380E+02 0.  0.
         66    2    3    3    0    0  0.16895327918E+02 -0.33659546691E+02 -0.21108423586E+03  0.21442707810E+03  0.20000008288E+01 0.  0.
        -13    1    3    3    0    0 -0.16895327918E+02  0.33659546691E+02 -0.10892232916E+03  0.11524973814E+03  0.10566000000E+00 0.  1.
         13    1    4    4    0    0  0.51120073506E+01 -0.11071834801E+02 -0.66945045231E+02  0.68046810286E+02  0.10566000000E+00 0. -1.
        -13    1    4    4    0    0  0.36538899776E+01 -0.84682868265E+01 -0.51871457241E+02  0.52685121563E+02  0.10566000000E+00 0.  1.
         14    1    4    4    0    0  0.81294305893E+01 -0.14119425064E+02 -0.92267733388E+02  0.93695146248E+02  0.00000000000E+00 0. -1.
<mgrwt>
<rscale>  0 0.79262863E+02</rscale>
<asrwt>0</asrwt>
<pdfrwt beam="1">  1        2 0.49975627E-01 0.79262863E+02</pdfrwt>
<pdfrwt beam="2">  1       -1 0.74386574E-03 0.79262863E+02</pdfrwt>
<totfact> 0.26881475E+05</totfact>
</mgrwt>
</event>
<event>
 8    1  0.1520917E-013  0.7987363E+02  0.7818608E-02  0.1329410E+00
          2   -1    0    0  501    0  0.00000000000E+00  0.00000000000E+00  0.48036367398E+02  0.48036367466E+02  0.25500000000E-02 0. -1.
         -1   -1    0    0    0  501 -0.00000000000E+00 -0.00000000000E+00 -0.33202954909E+02  0.33202955292E+02  0.50400000000E-02 0.  1.
         24    2    1    2    0    0  0.00000000000E+00  0.00000000000E+00  0.14833412488E+02  0.81239322758E+02  0.79873634173E+02 0.  0.
         66    2    3    3    0    0 -0.19902143107E+02 -0.32599174766E+02  0.19201381177E+02  0.42795964291E+02  0.20000061904E+01 0.  0.
        -13    1    3    3    0    0  0.19902143107E+02  0.32599174766E+02 -0.43679686888E+01  0.38443358467E+02  0.10566000000E+00 0.  1.
         13    1    4    4    0    0 -0.12885769396E+01 -0.13738034053E+01  0.10059906513E+01  0.21379774442E+01  0.10566000000E+00 0.  1.
        -13    1    4    4    0    0 -0.71646049666E+01 -0.12401886328E+02  0.68591382618E+01  0.15880720719E+02  0.10566000000E+00 0.  1.
         14    1    4    4    0    0 -0.11448961201E+02 -0.18823485033E+02  0.11336252264E+02  0.24777266127E+02  0.00000000000E+00 0. -1.
<mgrwt>
<rscale>  0 0.79873634E+02</rscale>
<asrwt>0</asrwt>
<pdfrwt beam="1">  1        2 0.73902103E-02 0.79873634E+02</pdfrwt>
<pdfrwt beam="2">  1       -1 0.51081470E-02 0.79873634E+02</pdfrwt>
<totfact> 0.14878389E+05</totfact>
</mgrwt>
</event>
<event>
 8    1  0.1520917E-013  0.8062647E+02  0.7818608E-02  0.1327283E+00
         -1   -1    0    0    0  501 -0.00000000000E+00  0.00000000000E+00  0.73241263590E+02  0.73241263763E+02  0.50400000000E-02 0.  1.
          2   -1    0    0  501    0  0.00000000000E+00 -0.00000000000E+00 -0.22189087747E+02  0.22189087893E+02  0.25500000000E-02 0. -1.
         24    2    1    2    0    0  0.00000000000E+00  0.00000000000E+00  0.51052175843E+02  0.95430351656E+02  0.80626468104E+02 0.  0.
         66    2    3    3    0    0  0.19387085789E+02 -0.22114138972E+02 -0.70507198544E+01  0.30308528200E+02  0.19999983249E+01 0.  0.
        -13    1    3    3    0    0 -0.19387085789E+02  0.22114138972E+02  0.58102895697E+02  0.65121823457E+02  0.10566000000E+00 0.  1.
         13    1    4    4    0    0  0.15828024920E+02 -0.18272742233E+02 -0.57168645189E+01  0.24841762932E+02  0.10566000000E+00 0. -1.
        -13    1    4    4    0    0  0.43119971768E+00 -0.83489764372E+00 -0.41177945618E+00  0.10313649345E+01  0.10566000000E+00 0.  1.
        -14    1    4    4    0    0  0.31278611517E+01 -0.30064990950E+01 -0.92207587930E+00  0.44354003337E+01  0.00000000000E+00 0.  1.
<mgrwt>
<rscale>  0 0.80626468E+02</rscale>
<asrwt>0</asrwt>
<pdfrwt beam="1">  1        2 0.34137057E-02 0.80626468E+02</pdfrwt>
<pdfrwt beam="2">  1       -1 0.11267887E-01 0.80626468E+02</pdfrwt>
<totfact> 0.12398040E+05</totfact>
</mgrwt>
</event>
<event>
 8    1  0.1520917E-013  0.8198585E+02  0.7818608E-02  0.1323509E+00
          2   -1    0    0  501    0  0.00000000000E+00  0.00000000000E+00  0.92881779143E+03  0.92881779144E+03  0.25500000000E-02 0. -1.
         -1   -1    0    0    0  501 -0.00000000000E+00 -0.00000000000E+00 -0.18091993906E+01  0.18092064107E+01  0.50400000000E-02 0.  1.
         24    2    1    2    0    0  0.00000000000E+00  0.17763568394E-14  0.92700859204E+03  0.93062699785E+03  0.81985848789E+02 0.  0.
         66    2    3    3    0    0 -0.51159213565E+01  0.13488386798E+02  0.89903113718E+03  0.89914909489E+03  0.19999999009E+01 0.  0.
        -13    1    3    3    0    0  0.51159213565E+01 -0.13488386798E+02  0.27977454866E+02  0.31477902956E+02  0.10566000000E+00 0.  1.
         13    1    4    4    0    0 -0.12705234919E+01  0.45237670210E+01  0.25632009466E+03  0.25636318142E+03  0.10566000000E+00 0. -1.
        -13    1    4    4    0    0 -0.27511829965E+01  0.63215212880E+01  0.48369753192E+03  0.48374667357E+03  0.10566000000E+00 0.  1.
        -14    1    4    4    0    0 -0.10942148681E+01  0.26430984893E+01  0.15901351061E+03  0.15903923991E+03  0.00000000000E+00 0.  1.
<mgrwt>
<rscale>  0 0.81985849E+02</rscale>
<asrwt>0</asrwt>
<pdfrwt beam="1">  1        2 0.14289498E+00 0.81985849E+02</pdfrwt>
<pdfrwt beam="2">  1       -1 0.27833903E-03 0.81985849E+02</pdfrwt>
<totfact> 0.32892520E+05</totfact>
</mgrwt>
</event>
<event>
 8    1  0.1520917E-013  0.7947328E+02  0.7818608E-02  0.1330553E+00
          2   -1    0    0  501    0  0.00000000000E+00  0.00000000000E+00  0.40068192237E+03  0.40068192237E+03  0.25500000000E-02 0. -1.
         -1   -1    0    0    0  501 -0.00000000000E+00 -0.00000000000E+00 -0.39407819694E+01  0.39407851924E+01  0.50400000000E-02 0.  1.
         24    2    1    2    0    0  0.00000000000E+00  0.00000000000E+00  0.39674114040E+03  0.40462270757E+03  0.79473284790E+02 0.  0.
         66    2    3    3    0    0  0.17094464383E+02  0.35842265672E+02  0.20016170541E+03  0.20407252894E+03  0.20000091952E+01 0.  0.
        -13    1    3    3    0    0 -0.17094464383E+02 -0.35842265672E+02  0.19657943499E+03  0.20055017862E+03  0.10566000000E+00 0.  1.
         13    1    4    4    0    0  0.14180635439E+02  0.28627772685E+02  0.15854524260E+03  0.16173201571E+03  0.10566000000E+00 0. -1.
        -13    1    4    4    0    0  0.22244446658E+01  0.50293539996E+01  0.30064178381E+02  0.30563189322E+02  0.10566000000E+00 0.  1.
         14    1    4    4    0    0  0.68938427773E+00  0.21851389874E+01  0.11552284428E+02  0.11777323914E+02  0.00000000000E+00 0. -1.
<mgrwt>
<rscale>  0 0.79473285E+02</rscale>
<asrwt>0</asrwt>
<pdfrwt beam="1">  1        2 0.61643380E-01 0.79473285E+02</pdfrwt>
<pdfrwt beam="2">  1       -1 0.60627433E-03 0.79473285E+02</pdfrwt>
<totfact> 0.28762321E+05</totfact>
</mgrwt>
</event>
<event>
 8    1  0.1520917E-013  0.8108155E+02  0.7818608E-02  0.1326010E+00
          2   -1    0    0  501    0  0.00000000000E+00  0.00000000000E+00  0.43735987733E+02  0.43735987807E+02  0.25500000000E-02 0. -1.
         -1   -1    0    0    0  501 -0.00000000000E+00 -0.00000000000E+00 -0.37578992716E+02  0.37578993054E+02  0.50400000000E-02 0.  1.
         24    2    1    2    0    0  0.00000000000E+00  0.35527136788E-14  0.61569950170E+01  0.81314980861E+02  0.81081548608E+02 0.  0.
         66    2    3    3    0    0  0.24006560316E+02 -0.17681761122E+02  0.30592715623E+02  0.42765334686E+02  0.19999967551E+01 0.  0.
        -13    1    3    3    0    0 -0.24006560316E+02  0.17681761122E+02 -0.24435720606E+02  0.38549646174E+02  0.10566000000E+00 0.  1.
         13    1    4    4    0    0  0.15001381717E+02 -0.10558929813E+02  0.19876506495E+02  0.27048458860E+02  0.10566000000E+00 0. -1.
        -13    1    4    4    0    0  0.68852647601E+01 -0.51312517924E+01  0.79262460797E+01  0.11686451845E+02  0.10566000000E+00 0.  1.
         14    1    4    4    0    0  0.21199138390E+01 -0.19915795168E+01  0.27899630489E+01  0.40304239815E+01  0.00000000000E+00 0. -1.
<mgrwt>
<rscale>  0 0.81081549E+02</rscale>
<asrwt>0</asrwt>
<pdfrwt beam="1">  1        2 0.67286135E-02 0.81081549E+02</pdfrwt>
<pdfrwt beam="2">  1       -1 0.57813836E-02 0.81081549E+02</pdfrwt>
<totfact> 0.13994130E+05</totfact>
</mgrwt>
</event>
<event>
 8    1  0.1520917E-013  0.8078682E+02  0.7818608E-02  0.1326833E+00
          2   -1    0    0  501    0  0.00000000000E+00  0.00000000000E+00  0.73239973078E+03  0.73239973079E+03  0.25500000000E-02 0. -1.
         -1   -1    0    0    0  501 -0.00000000000E+00 -0.00000000000E+00 -0.22277800764E+01  0.22277857775E+01  0.50400000000E-02 0.  1.
         24    2    1    2    0    0  0.00000000000E+00 -0.17763568394E-14  0.73017195071E+03  0.73462751656E+03  0.80786821299E+02 0.  0.
         66    2    3    3    0    0  0.24347895606E+02 -0.12809101694E+02  0.63394652818E+03  0.63454636844E+03  0.19999986813E+01 0.  0.
        -13    1    3    3    0    0 -0.24347895606E+02  0.12809101694E+02  0.96225422521E+02  0.10008114813E+03  0.10566000000E+00 0.  1.
         13    1    4    4    0    0  0.49423395424E+01 -0.29987453471E+01  0.12760332205E+03  0.12773424818E+03  0.10566000000E+00 0. -1.
        -13    1    4    4    0    0  0.91462217774E+01 -0.49312229743E+01  0.25811249893E+03  0.25832158949E+03  0.10566000000E+00 0.  1.
        -14    1    4    4    0    0  0.10259334286E+02 -0.48791333731E+01  0.24823070720E+03  0.24849053077E+03  0.00000000000E+00 0.  1.
<mgrwt>
<rscale>  0 0.80786821E+02</rscale>
<asrwt>0</asrwt>
<pdfrwt beam="1">  1        2 0.11267701E+00 0.80786821E+02</pdfrwt>
<pdfrwt beam="2">  1       -1 0.34273544E-03 0.80786821E+02</pdfrwt>
<totfact> 0.32937734E+05</totfact>
</mgrwt>
</event>
<event>
 8    1  0.1520917E-013  0.8005079E+02  0.7818608E-02  0.1328907E+00
          2   -1    0    0  501    0  0.00000000000E+00  0.00000000000E+00  0.10421911858E+04  0.10421911858E+04  0.25500000000E-02 0. -1.
         -1   -1    0    0    0  501 -0.00000000000E+00 -0.00000000000E+00 -0.15371727227E+01  0.15371809851E+01  0.50400000000E-02 0.  1.
         24    2    1    2    0    0  0.00000000000E+00  0.00000000000E+00  0.10406540131E+04  0.10437283668E+04  0.80050788283E+02 0.  0.
         66    2    3    3    0    0  0.84653790649E+01 -0.24709549315E+02  0.91565039577E+03  0.91602503882E+03  0.20000006905E+01 0.  0.
        -13    1    3    3    0    0 -0.84653790649E+01  0.24709549315E+02  0.12500361732E+03  0.12770332798E+03  0.10566000000E+00 0.  1.
         13    1    4    4    0    0  0.24787710432E+01 -0.87554755745E+01  0.31791236309E+03  0.31804258273E+03  0.10566000000E+00 0. -1.
        -13    1    4    4    0    0  0.17795566650E+01 -0.46814915882E+01  0.15479956289E+03  0.15488059601E+03  0.10566000000E+00 0.  1.
        -14    1    4    4    0    0  0.42070513567E+01 -0.11272582153E+02  0.44293846979E+03  0.44310186008E+03  0.00000000000E+00 0.  1.
<mgrwt>
<rscale>  0 0.80050788E+02</rscale>
<asrwt>0</asrwt>
<pdfrwt beam="1">  1        2 0.16033666E+00 0.80050788E+02</pdfrwt>
<pdfrwt beam="2">  1       -1 0.23648941E-03 0.80050788E+02</pdfrwt>
<totfact> 0.35212295E+05</totfact>
</mgrwt>
</event>
<event>
 8    1  0.1520917E-013  0.8129613E+02  0.7818608E-02  0.1325413E+00
         -1   -1    0    0    0  501 -0.00000000000E+00  0.00000000000E+00  0.66691329082E+01  0.66691348126E+01  0.50400000000E-02 0.  1.
          2   -1    0    0  501    0  0.00000000000E+00 -0.00000000000E+00 -0.24774808922E+03  0.24774808924E+03  0.25500000000E-02 0. -1.
         24    2    1    2    0    0  0.00000000000E+00  0.35527136788E-14 -0.24107895631E+03  0.25441722405E+03  0.81296129765E+02 0.  0.
         66    2    3    3    0    0  0.93057638694E+01  0.16205866292E+02 -0.23349320839E+03  0.23424838474E+03  0.20000110962E+01 0.  0.
        -13    1    3    3    0    0 -0.93057638694E+01 -0.16205866292E+02 -0.75857479217E+01  0.20168839308E+02  0.10566000000E+00 0.  1.
         13    1    4    4    0    0  0.50604936154E+01  0.97056923489E+01 -0.13109919883E+03  0.13155538817E+03  0.10566000000E+00 0. -1.
        -13    1    4    4    0    0  0.15212597522E+01  0.19135910166E+01 -0.27093571545E+02  0.27203838790E+02  0.10566000000E+00 0.  1.
         14    1    4    4    0    0  0.27240105019E+01  0.45865829266E+01 -0.75300438021E+02  0.75489157780E+02  0.00000000000E+00 0. -1.
<mgrwt>
<rscale>  0 0.81296130E+02</rscale>
<asrwt>0</asrwt>
<pdfrwt beam="1">  1        2 0.38115084E-01 0.81296130E+02</pdfrwt>
<pdfrwt beam="2">  1       -1 0.10260208E-02 0.81296130E+02</pdfrwt>
<totfact> 0.22805949E+05</totfact>
</mgrwt>
</event>
<event>
 8    1  0.1520917E-013  0.8195118E+02  0.7818608E-02  0.1323604E+00
          2   -1    0    0  501    0  0.00000000000E+00  0.00000000000E+00  0.28008779515E+03  0.28008779516E+03  0.25500000000E-02 0. -1.
         -1   -1    0    0    0  501 -0.00000000000E+00 -0.00000000000E+00 -0.59945447789E+01  0.59945468976E+01  0.50400000000E-02 0.  1.
         24    2    1    2    0    0  0.71054273576E-14 -0.88817841970E-15  0.27409325037E+03  0.28608234205E+03  0.81951183878E+02 0.  0.
         66    2    3    3    0    0  0.38911134269E+02 -0.79780410048E+01  0.10234704643E+03  0.10980274812E+03  0.20000181449E+01 0.  0.
        -13    1    3    3    0    0 -0.38911134269E+02  0.79780410048E+01  0.17174620394E+03  0.17627959394E+03  0.10566000000E+00 0.  1.
         13    1    4    4    0    0  0.19622011341E+02 -0.38798779233E+01  0.49005201712E+02  0.52930121299E+02  0.10566000000E+00 0. -1.
        -13    1    4    4    0    0  0.10049980571E+02 -0.23844202111E+01  0.28128109039E+02  0.29964800206E+02  0.10566000000E+00 0.  1.
        -14    1    4    4    0    0  0.92391423568E+01 -0.17137428705E+01  0.25213735679E+02  0.26907826612E+02  0.00000000000E+00 0.  1.
<mgrwt>
<rscale>  0 0.81951184E+02</rscale>
<asrwt>0</asrwt>
<pdfrwt beam="1">  1        2 0.43090430E-01 0.81951184E+02</pdfrwt>
<pdfrwt beam="2">  1       -1 0.92223782E-03 0.81951184E+02</pdfrwt>
<totfact> 0.23342304E+05</totfact>
</mgrwt>
</event>
<event>
 8    1  0.1520917E-013  0.7996003E+02  0.7818608E-02  0.1329165E+00
         -1   -1    0    0    0  501 -0.00000000000E+00  0.00000000000E+00  0.69227431924E+02  0.69227432108E+02  0.50400000000E-02 0.  1.
          2   -1    0    0  501    0  0.00000000000E+00 -0.00000000000E+00 -0.23089136905E+02  0.23089137046E+02  0.25500000000E-02 0. -1.
         24    2    1    2    0    0 -0.44408920985E-15  0.00000000000E+00  0.46138295019E+02  0.92316569153E+02  0.79960031722E+02 0.  0.
         66    2    3    3    0    0  0.18703695241E+01  0.19721622059E+02 -0.16976558844E+02  0.26165706717E+02  0.19999997595E+01 0.  0.
        -13    1    3    3    0    0 -0.18703695241E+01 -0.19721622059E+02  0.63114853863E+02  0.66150862436E+02  0.10566000000E+00 0.  1.
         13    1    4    4    0    0  0.21715220971E+01  0.14383072531E+02 -0.11982404611E+02  0.18846152603E+02  0.10566000000E+00 0. -1.
        -13    1    4    4    0    0 -0.70270814982E-01  0.15341654314E+01 -0.14728472462E+01  0.21305033688E+01  0.10566000000E+00 0. -1.
         14    1    4    4    0    0 -0.23088175799E+00  0.38043840967E+01 -0.35213069869E+01  0.51890507453E+01  0.00000000000E+00 0. -1.
<mgrwt>
<rscale>  0 0.79960032E+02</rscale>
<asrwt>0</asrwt>
<pdfrwt beam="1">  1        2 0.35521749E-02 0.79960032E+02</pdfrwt>
<pdfrwt beam="2">  1       -1 0.10650374E-01 0.79960032E+02</pdfrwt>
<totfact> 0.12795993E+05</totfact>
</mgrwt>
</event>
<event>
 8    1  0.1520917E-013  0.7973814E+02  0.7818608E-02  0.1329796E+00
         -1   -1    0    0    0  501 -0.00000000000E+00  0.00000000000E+00  0.37240722944E+02  0.37240723285E+02  0.50400000000E-02 0.  1.
          2   -1    0    0  501    0  0.00000000000E+00 -0.00000000000E+00 -0.42682912944E+02  0.42682913020E+02  0.25500000000E-02 0. -1.
         24    2    1    2    0    0 -0.35527136788E-14  0.88817841970E-15 -0.54421899995E+01  0.79923636305E+02  0.79738135219E+02 0.  0.
         66    2    3    3    0    0  0.20524309065E+02 -0.59883045415E+01 -0.36422895205E+02  0.42281607761E+02  0.20000014606E+01 0.  0.
        -13    1    3    3    0    0 -0.20524309065E+02  0.59883045415E+01  0.30980705206E+02  0.37642028544E+02  0.10566000000E+00 0.  1.
         13    1    4    4    0    0  0.85476285297E+01 -0.31178337215E+01 -0.14287130232E+02  0.16938597784E+02  0.10566000000E+00 0. -1.
        -13    1    4    4    0    0  0.46148605316E+01 -0.88573626300E+00 -0.78399416787E+01  0.91409690960E+01  0.10566000000E+00 0.  1.
         14    1    4    4    0    0  0.73618200036E+01 -0.19847345570E+01 -0.14295823294E+02  0.16202040880E+02  0.00000000000E+00 0. -1.
<mgrwt>
<rscale>  0 0.79738135E+02</rscale>
<asrwt>0</asrwt>
<pdfrwt beam="1">  1        2 0.65666020E-02 0.79738135E+02</pdfrwt>
<pdfrwt beam="2">  1       -1 0.57293420E-02 0.79738135E+02</pdfrwt>
<totfact> 0.14579192E+05</totfact>
</mgrwt>
</event>
<event>
 8    1  0.1520917E-013  0.7905809E+02  0.7818608E-02  0.1331746E+00
          2   -1    0    0  501    0  0.00000000000E+00  0.00000000000E+00  0.81345658572E+02  0.81345658612E+02  0.25500000000E-02 0. -1.
         -1   -1    0    0    0  501 -0.00000000000E+00 -0.00000000000E+00 -0.19208713167E+02  0.19208713828E+02  0.50400000000E-02 0.  1.
         24    2    1    2    0    0  0.71054273576E-14 -0.35527136788E-14  0.62136945405E+02  0.10055437244E+03  0.79058091505E+02 0.  0.
         66    2    3    3    0    0  0.33072166806E+02  0.20195731577E+02  0.40850095868E+02  0.56341513241E+02  0.19999976704E+01 0.  0.
        -13    1    3    3    0    0 -0.33072166806E+02 -0.20195731577E+02  0.21286849537E+02  0.44212859198E+02  0.10566000000E+00 0.  1.
         13    1    4    4    0    0  0.18086263886E+02  0.11721383457E+02  0.22887192270E+02  0.31437851478E+02  0.10566000000E+00 0. -1.
        -13    1    4    4    0    0  0.38359987498E+00  0.30245224509E+00  0.35656078329E+00  0.61394287391E+00  0.10566000000E+00 0.  1.
        -14    1    4    4    0    0  0.14602303046E+02  0.81718958749E+01  0.17606342814E+02  0.24289718889E+02  0.00000000000E+00 0.  1.
<mgrwt>
<rscale>  0 0.79058092E+02</rscale>
<asrwt>0</asrwt>
<pdfrwt beam="1">  1        2 0.12514717E-01 0.79058092E+02</pdfrwt>
<pdfrwt beam="2">  1       -1 0.29551868E-02 0.79058092E+02</pdfrwt>
<totfact> 0.17310909E+05</totfact>
</mgrwt>
</event>
<event>
 8    1  0.1520917E-013  0.8444417E+02  0.7818608E-02  0.1316893E+00
          2   -1    0    0  501    0  0.00000000000E+00  0.00000000000E+00  0.15384444113E+04  0.15384444113E+04  0.25500000000E-02 0. -1.
         -1   -1    0    0    0  501 -0.00000000000E+00 -0.00000000000E+00 -0.11587654103E+01  0.11587763709E+01  0.50400000000E-02 0.  1.
         24    2    1    2    0    0  0.35527136788E-14 -0.17763568394E-14  0.15372856459E+04  0.15396031877E+04  0.84444173477E+02 0.  0.
         66    2    3    3    0    0 -0.19564294377E+02  0.13256790847E+02  0.14064689518E+04  0.14066689079E+04  0.19999998742E+01 0.  0.
        -13    1    3    3    0    0  0.19564294377E+02 -0.13256790847E+02  0.13081669406E+03  0.13293427973E+03  0.10566000000E+00 0.  1.
         13    1    4    4    0    0 -0.51965474790E+01  0.30645610845E+01  0.38624609174E+03  0.38629321789E+03  0.10566000000E+00 0. -1.
        -13    1    4    4    0    0 -0.79588617723E+01  0.57556114673E+01  0.53341491250E+03  0.53350534260E+03  0.10566000000E+00 0.  1.
        -14    1    4    4    0    0 -0.64088851258E+01  0.44366182955E+01  0.48680794757E+03  0.48687034744E+03  0.00000000000E+00 0.  1.
<mgrwt>
<rscale>  0 0.84444173E+02</rscale>
<asrwt>0</asrwt>
<pdfrwt beam="1">  1        2 0.23668388E+00 0.84444173E+02</pdfrwt>
<pdfrwt beam="2">  1       -1 0.17827235E-03 0.84444173E+02</pdfrwt>
<totfact> 0.28592646E+05</totfact>
</mgrwt>
</event>
<event>
 8    1  0.1520917E-013  0.8092509E+02  0.7818608E-02  0.1326446E+00
          2   -1    0    0  501    0  0.00000000000E+00  0.00000000000E+00  0.39322282812E+02  0.39322282895E+02  0.25500000000E-02 0. -1.
         -1   -1    0    0    0  501 -0.00000000000E+00 -0.00000000000E+00 -0.41635870771E+02  0.41635871076E+02  0.50400000000E-02 0.  1.
         24    2    1    2    0    0  0.00000000000E+00 -0.35527136788E-14 -0.23135879591E+01  0.80958153971E+02  0.80925088848E+02 0.  0.
         66    2    3    3    0    0  0.19542880231E+02  0.14363094384E+02  0.31212945217E+02  0.39578663412E+02  0.20000000859E+01 0.  0.
        -13    1    3    3    0    0 -0.19542880231E+02 -0.14363094384E+02 -0.33526533176E+02  0.41379490558E+02  0.10566000000E+00 0.  1.
         13    1    4    4    0    0  0.37057055616E+01  0.29229835454E+01  0.66689312510E+01  0.81707952233E+01  0.10566000000E+00 0. -1.
        -13    1    4    4    0    0  0.21103837365E+00  0.41721367290E-01  0.46030621601E+00  0.51896407943E+00  0.10566000000E+00 0.  1.
         14    1    4    4    0    0  0.15626136296E+02  0.11398389472E+02  0.24083707750E+02  0.30888904109E+02  0.00000000000E+00 0. -1.
<mgrwt>
<rscale>  0 0.80925089E+02</rscale>
<asrwt>0</asrwt>
<pdfrwt beam="1">  1        2 0.60495820E-02 0.80925089E+02</pdfrwt>
<pdfrwt beam="2">  1       -1 0.64055186E-02 0.80925089E+02</pdfrwt>
<totfact> 0.13760189E+05</totfact>
</mgrwt>
</event>
<event>
 8    1  0.1520917E-013  0.7964586E+02  0.7818608E-02  0.1330059E+00
         -1   -1    0    0    0  501 -0.00000000000E+00  0.00000000000E+00  0.77124888096E+02  0.77124888261E+02  0.50400000000E-02 0.  1.
          2   -1    0    0  501    0  0.00000000000E+00 -0.00000000000E+00 -0.20562309187E+02  0.20562309345E+02  0.25500000000E-02 0. -1.
         24    2    1    2    0    0  0.00000000000E+00 -0.35527136788E-14  0.56562578909E+02  0.97687197606E+02  0.79645861433E+02 0.  0.
         66    2    3    3    0    0  0.35037624352E+02  0.13896093731E+02  0.43964195259E+02  0.57944689182E+02  0.19999996268E+01 0.  0.
        -13    1    3    3    0    0 -0.35037624352E+02 -0.13896093731E+02  0.12598383650E+02  0.39742508424E+02  0.10566000000E+00 0.  1.
         13    1    4    4    0    0  0.66409396413E+01  0.24159289941E+01  0.82440968933E+01  0.10858871481E+02  0.10566000000E+00 0. -1.
        -13    1    4    4    0    0  0.12736771568E+02  0.42745214079E+01  0.16053633169E+02  0.20933876497E+02  0.10566000000E+00 0.  1.
         14    1    4    4    0    0  0.15659913143E+02  0.72056433289E+01  0.19666465197E+02  0.26151941204E+02  0.00000000000E+00 0. -1.
<mgrwt>
<rscale>  0 0.79645861E+02</rscale>
<asrwt>0</asrwt>
<pdfrwt beam="1">  1        2 0.31634322E-02 0.79645861E+02</pdfrwt>
<pdfrwt beam="2">  1       -1 0.11865367E-01 0.79645861E+02</pdfrwt>
<totfact> 0.12645143E+05</totfact>
</mgrwt>
</event>
<event>
 8    1  0.1520917E-013  0.8111785E+02  0.7818608E-02  0.1325909E+00
          2   -1    0    0  501    0  0.00000000000E+00  0.00000000000E+00  0.71257519043E+03  0.71257519044E+03  0.25500000000E-02 0. -1.
         -1   -1    0    0    0  501 -0.00000000000E+00 -0.00000000000E+00 -0.23085626151E+01  0.23085681167E+01  0.50400000000E-02 0.  1.
         24    2    1    2    0    0 -0.17763568394E-14 -0.35527136788E-14  0.71026662782E+03  0.71488375855E+03  0.81117850396E+02 0.  0.
         66    2    3    3    0    0 -0.12103918204E+02 -0.31012911921E+02  0.55913750326E+03  0.56013128202E+03  0.19999992364E+01 0.  0.
        -13    1    3    3    0    0  0.12103918204E+02  0.31012911921E+02  0.15112912455E+03  0.15475247654E+03  0.10566000000E+00 0.  1.
         13    1    4    4    0    0 -0.59984021167E+01 -0.13359686791E+02  0.25276338115E+03  0.25318728261E+03  0.10566000000E+00 0. -1.
        -13    1    4    4    0    0 -0.17516010887E+01 -0.56700932437E+01  0.92631463832E+02  0.92821427050E+02  0.10566000000E+00 0.  1.
         14    1    4    4    0    0 -0.43539149989E+01 -0.11983131886E+02  0.21374265828E+03  0.21412257236E+03  0.00000000000E+00 0. -1.
<mgrwt>
<rscale>  0 0.81117850E+02</rscale>
<asrwt>0</asrwt>
<pdfrwt beam="1">  1        2 0.10962704E+00 0.81117850E+02</pdfrwt>
<pdfrwt beam="2">  1       -1 0.35516364E-03 0.81117850E+02</pdfrwt>
<totfact> 0.32395670E+05</totfact>
</mgrwt>
</event>
<event>
 8    1  0.1520917E-013  0.7985152E+02  0.7818608E-02  0.1329473E+00
          2   -1    0    0  501    0  0.00000000000E+00  0.00000000000E+00  0.26819461350E+02  0.26819461471E+02  0.25500000000E-02 0. -1.
         -1   -1    0    0    0  501 -0.00000000000E+00 -0.00000000000E+00 -0.59436928050E+02  0.59436928263E+02  0.50400000000E-02 0.  1.
         24    2    1    2    0    0  0.00000000000E+00  0.00000000000E+00 -0.32617466700E+02  0.86256389734E+02  0.79851522441E+02 0.  0.
         66    2    3    3    0    0 -0.19487594836E+02  0.14179602240E+02  0.18031630808E+02  0.30165662207E+02  0.19999986372E+01 0.  0.
        -13    1    3    3    0    0  0.19487594836E+02 -0.14179602240E+02 -0.50649097508E+02  0.56090727528E+02  0.10566000000E+00 0.  1.
         13    1    4    4    0    0 -0.81412482510E+01  0.67672149241E+01  0.72339430741E+01  0.12822488735E+02  0.10566000000E+00 0. -1.
        -13    1    4    4    0    0 -0.79107081685E+01  0.53054516738E+01  0.79668590003E+01  0.12418096777E+02  0.10566000000E+00 0.  1.
        -14    1    4    4    0    0 -0.34356384169E+01  0.21069356426E+01  0.28308287340E+01  0.49250766954E+01  0.00000000000E+00 0.  1.
<mgrwt>
<rscale>  0 0.79851522E+02</rscale>
<asrwt>0</asrwt>
<pdfrwt beam="1">  1        2 0.41260710E-02 0.79851522E+02</pdfrwt>
<pdfrwt beam="2">  1       -1 0.91441428E-02 0.79851522E+02</pdfrwt>
<totfact> 0.13230529E+05</totfact>
</mgrwt>
</event>
<event>
 8    1  0.1520917E-013  0.7961723E+02  0.7818608E-02  0.1330141E+00
         -1   -1    0    0    0  501 -0.00000000000E+00  0.00000000000E+00  0.77887768420E+01  0.77887784727E+01  0.50400000000E-02 0.  1.
          2   -1    0    0  501    0  0.00000000000E+00 -0.00000000000E+00 -0.20346269884E+03  0.20346269885E+03  0.25500000000E-02 0. -1.
         24    2    1    2    0    0  0.35527136788E-14  0.00000000000E+00 -0.19567392200E+03  0.21125147733E+03  0.79617227554E+02 0.  0.
         66    2    3    3    0    0 -0.28896120416E+02  0.10554083972E+02 -0.16483139975E+03  0.16768948924E+03  0.19999985381E+01 0.  0.
        -13    1    3    3    0    0  0.28896120416E+02 -0.10554083972E+02 -0.30842522246E+02  0.43561988088E+02  0.10566000000E+00 0.  1.
         13    1    4    4    0    0 -0.89501939564E+01  0.32655348584E+01 -0.49098764521E+02  0.50014693154E+02  0.10566000000E+00 0. -1.
        -13    1    4    4    0    0 -0.59521586218E+01  0.14740900900E+01 -0.32241736800E+02  0.32819839880E+02  0.10566000000E+00 0.  1.
         14    1    4    4    0    0 -0.13993767838E+02  0.58144590240E+01 -0.83490898428E+02  0.84854956204E+02  0.00000000000E+00 0. -1.
<mgrwt>
<rscale>  0 0.79617228E+02</rscale>
<asrwt>0</asrwt>
<pdfrwt beam="1">  1        2 0.31301950E-01 0.79617228E+02</pdfrwt>
<pdfrwt beam="2">  1       -1 0.11982736E-02 0.79617228E+02</pdfrwt>
<totfact> 0.22473117E+05</totfact>
</mgrwt>
</event>
<event>
 8    1  0.1520917E-013  0.7978292E+02  0.7818608E-02  0.1329669E+00
          2   -1    0    0  501    0  0.00000000000E+00  0.00000000000E+00  0.64356618197E+03  0.64356618198E+03  0.25500000000E-02 0. -1.
         -1   -1    0    0    0  501 -0.00000000000E+00 -0.00000000000E+00 -0.24726701066E+01  0.24726752430E+01  0.50400000000E-02 0.  1.
         24    2    1    2    0    0  0.00000000000E+00  0.00000000000E+00  0.64109351187E+03  0.64603885722E+03  0.79782918487E+02 0.  0.
         66    2    3    3    0    0 -0.46128844620E+01 -0.37555592653E+02  0.42240937663E+03  0.42410539104E+03  0.20000006121E+01 0.  0.
        -13    1    3    3    0    0  0.46128844620E+01  0.37555592653E+02  0.21868413523E+03  0.22193346618E+03  0.10566000000E+00 0.  1.
         13    1    4    4    0    0 -0.15943200737E+01 -0.94460210861E+01  0.10333027378E+03  0.10377343502E+03  0.10566000000E+00 0. -1.
        -13    1    4    4    0    0 -0.22337697356E+01 -0.24851272131E+02  0.28179687116E+03  0.28289938708E+03  0.10566000000E+00 0.  1.
        -14    1    4    4    0    0 -0.78479465272E+00 -0.32582994363E+01  0.37282231691E+02  0.37432568944E+02  0.00000000000E+00 0.  1.
<mgrwt>
<rscale>  0 0.79782918E+02</rscale>
<asrwt>0</asrwt>
<pdfrwt beam="1">  1        2 0.99010243E-01 0.79782918E+02</pdfrwt>
<pdfrwt beam="2">  1       -1 0.38041095E-03 0.79782918E+02</pdfrwt>
<totfact> 0.33006195E+05</totfact>
</mgrwt>
</event>
<event>
 8    1  0.1520917E-013  0.7878010E+02  0.7818608E-02  0.1332549E+00
         -1   -1    0    0    0  501 -0.00000000000E+00  0.00000000000E+00  0.38232101868E+03  0.38232101872E+03  0.50400000000E-02 0.  1.
          2   -1    0    0  501    0  0.00000000000E+00 -0.00000000000E+00 -0.40583068832E+01  0.40583076843E+01  0.25500000000E-02 0. -1.
         24    2    1    2    0    0  0.00000000000E+00  0.00000000000E+00  0.37826271180E+03  0.38637932640E+03  0.78780103653E+02 0.  0.
         66    2    3    3    0    0  0.35765557855E+02 -0.16174213587E+02  0.17471122834E+03  0.17907761899E+03  0.20000000294E+01 0.  0.
        -13    1    3    3    0    0 -0.35765557855E+02  0.16174213587E+02  0.20355148346E+03  0.20730170741E+03  0.10566000000E+00 0.  1.
         13    1    4    4    0    0  0.16569891391E+02 -0.71284638417E+01  0.79367725329E+02  0.81391788808E+02  0.10566000000E+00 0. -1.
        -13    1    4    4    0    0  0.10129467380E+02 -0.40294082327E+01  0.48739633343E+02  0.49944021290E+02  0.10566000000E+00 0.  1.
        -14    1    4    4    0    0  0.90661990845E+01 -0.50163415129E+01  0.46603869672E+02  0.47741808893E+02  0.00000000000E+00 0.  1.
<mgrwt>
<rscale>  0 0.78780104E+02</rscale>
<asrwt>0</asrwt>
<pdfrwt beam="1">  1        2 0.62435476E-03 0.78780104E+02</pdfrwt>
<pdfrwt beam="2">  1       -1 0.58818638E-01 0.78780104E+02</pdfrwt>
<totfact> 0.80671350E+04</totfact>
</mgrwt>
</event>
<event>
 8    1  0.1520917E-013  0.8348863E+02  0.7818608E-02  0.1319433E+00
          2   -1    0    0  501    0  0.00000000000E+00  0.00000000000E+00  0.23545475226E+03  0.23545475227E+03  0.25500000000E-02 0. -1.
         -1   -1    0    0    0  501 -0.00000000000E+00 -0.00000000000E+00 -0.74009447958E+01  0.74009465119E+01  0.50400000000E-02 0.  1.
         24    2    1    2    0    0  0.00000000000E+00  0.00000000000E+00  0.22805380746E+03  0.24285569878E+03  0.83488629967E+02 0.  0.
         66    2    3    3    0    0  0.11374789541E+02 -0.96275208087E+01  0.22744423342E+03  0.22794068157E+03  0.20000006806E+01 0.  0.
        -13    1    3    3    0    0 -0.11374789541E+02  0.96275208087E+01  0.60957404071E+00  0.14915017216E+02  0.10566000000E+00 0.  1.
         13    1    4    4    0    0  0.52574451595E+01 -0.47377044176E+01  0.98268920388E+02  0.98523491874E+02  0.10566000000E+00 0. -1.
        -13    1    4    4    0    0  0.24971735403E+01 -0.15774644078E+01  0.41973038339E+02  0.42076969723E+02  0.10566000000E+00 0.  1.
         14    1    4    4    0    0  0.36201708409E+01 -0.33123519833E+01  0.87202274694E+02  0.87340219970E+02  0.00000000000E+00 0. -1.
<mgrwt>
<rscale>  0 0.83488630E+02</rscale>
<asrwt>0</asrwt>
<pdfrwt beam="1">  1        2 0.36223805E-01 0.83488630E+02</pdfrwt>
<pdfrwt beam="2">  1       -1 0.11386071E-02 0.83488630E+02</pdfrwt>
<totfact> 0.20875583E+05</totfact>
</mgrwt>
</event>
<event>
 8    1  0.1520917E-013  0.7902300E+02  0.7818608E-02  0.1331847E+00
         -1   -1    0    0    0  501 -0.00000000000E+00  0.00000000000E+00  0.74015343663E+02  0.74015343835E+02  0.50400000000E-02 0.  1.
          2   -1    0    0  501    0  0.00000000000E+00 -0.00000000000E+00 -0.21092367174E+02  0.21092367328E+02  0.25500000000E-02 0. -1.
         24    2    1    2    0    0  0.00000000000E+00  0.35527136788E-14  0.52922976489E+02  0.95107711163E+02  0.79023004766E+02 0.  0.
         66    2    3    3    0    0 -0.32163921133E+02 -0.22397236059E+02  0.32250371116E+02  0.50796067291E+02  0.20000023551E+01 0.  0.
        -13    1    3    3    0    0  0.32163921133E+02  0.22397236059E+02  0.20672605373E+02  0.44311643872E+02  0.10566000000E+00 0.  1.
         13    1    4    4    0    0 -0.22699087327E+02 -0.15559140857E+02  0.22260192833E+02  0.35395801710E+02  0.10566000000E+00 0. -1.
        -13    1    4    4    0    0 -0.42440811951E+01 -0.29007975142E+01  0.37747351338E+01  0.63786080594E+01  0.10566000000E+00 0.  1.
        -14    1    4    4    0    0 -0.52207526109E+01 -0.39372976878E+01  0.62154431491E+01  0.90216575221E+01  0.00000000000E+00 0.  1.
<mgrwt>
<rscale>  0 0.79023005E+02</rscale>
<asrwt>0</asrwt>
<pdfrwt beam="1">  1        2 0.32449796E-02 0.79023005E+02</pdfrwt>
<pdfrwt beam="2">  1       -1 0.11386976E-01 0.79023005E+02</pdfrwt>
<totfact> 0.12998032E+05</totfact>
</mgrwt>
</event>
<event>
 8    1  0.1520917E-013  0.7944371E+02  0.7818608E-02  0.1330638E+00
         -1   -1    0    0    0  501 -0.00000000000E+00  0.00000000000E+00  0.65875648644E+01  0.65875667924E+01  0.50400000000E-02 0.  1.
          2   -1    0    0  501    0  0.00000000000E+00 -0.00000000000E+00 -0.23951572942E+03  0.23951572943E+03  0.25500000000E-02 0. -1.
         24    2    1    2    0    0  0.00000000000E+00  0.00000000000E+00 -0.23292816455E+03  0.24610329622E+03  0.79443706925E+02 0.  0.
         66    2    3    3    0    0  0.33145166766E+02  0.21795300338E+02 -0.12111524515E+03  0.12746191514E+03  0.20000014369E+01 0.  0.
        -13    1    3    3    0    0 -0.33145166766E+02 -0.21795300338E+02 -0.11181291940E+03  0.11864138108E+03  0.10566000000E+00 0.  1.
         13    1    4    4    0    0  0.18939374974E+02  0.12309052427E+02 -0.66348705198E+02  0.70088333848E+02  0.10566000000E+00 0. -1.
        -13    1    4    4    0    0  0.47041440556E+01  0.31893303295E+01 -0.19379691459E+02  0.20196148255E+02  0.10566000000E+00 0.  1.
         14    1    4    4    0    0  0.95016477358E+01  0.62969175820E+01 -0.35386848494E+02  0.37177433035E+02  0.00000000000E+00 0. -1.
<mgrwt>
<rscale>  0 0.79443707E+02</rscale>
<asrwt>0</asrwt>
<pdfrwt beam="1">  1        2 0.36848567E-01 0.79443707E+02</pdfrwt>
<pdfrwt beam="2">  1       -1 0.10134719E-02 0.79443707E+02</pdfrwt>
<totfact> 0.23940942E+05</totfact>
</mgrwt>
</event>
<event>
 8    1  0.1520917E-013  0.7897095E+02  0.7818608E-02  0.1331997E+00
          2   -1    0    0  501    0  0.00000000000E+00  0.00000000000E+00  0.16177039840E+03  0.16177039842E+03  0.25500000000E-02 0. -1.
         -1   -1    0    0    0  501 -0.00000000000E+00 -0.00000000000E+00 -0.96377493089E+01  0.96377506267E+01  0.50400000000E-02 0.  1.
         24    2    1    2    0    0  0.00000000000E+00  0.35527136788E-14  0.15213264909E+03  0.17140814905E+03  0.78970948077E+02 0.  0.
         66    2    3    3    0    0 -0.20222924766E+02  0.30926034636E+02  0.10616799456E+03  0.11243233253E+03  0.20000058476E+01 0.  0.
        -13    1    3    3    0    0  0.20222924766E+02 -0.30926034636E+02  0.45964654528E+02  0.58975816521E+02  0.10566000000E+00 0.  1.
         13    1    4    4    0    0 -0.12941130908E+02  0.19955677789E+02  0.65470879900E+02  0.69657370207E+02  0.10566000000E+00 0. -1.
        -13    1    4    4    0    0 -0.27468694857E+01  0.43123619124E+01  0.15747675455E+02  0.16557240214E+02  0.10566000000E+00 0.  1.
         14    1    4    4    0    0 -0.45349243721E+01  0.66579949341E+01  0.24949439209E+02  0.26217722106E+02  0.00000000000E+00 0. -1.
<mgrwt>
<rscale>  0 0.78970948E+02</rscale>
<asrwt>0</asrwt>
<pdfrwt beam="1">  1        2 0.24887752E-01 0.78970948E+02</pdfrwt>
<pdfrwt beam="2">  1       -1 0.14827309E-02 0.78970948E+02</pdfrwt>
<totfact> 0.21244864E+05</totfact>
</mgrwt>
</event>
<event>
 8    1  0.1520917E-013  0.7906017E+02  0.7818608E-02  0.1331740E+00
         -1   -1    0    0    0  501 -0.00000000000E+00  0.00000000000E+00  0.11410941918E+02  0.11410943031E+02  0.50400000000E-02 0.  1.
          2   -1    0    0  501    0  0.00000000000E+00 -0.00000000000E+00 -0.13694115039E+03  0.13694115041E+03  0.25500000000E-02 0. -1.
         24    2    1    2    0    0  0.17763568394E-14  0.00000000000E+00 -0.12553020847E+03  0.14835209345E+03  0.79060169430E+02 0.  0.
         66    2    3    3    0    0 -0.86335158838E+01 -0.79536508873E+01 -0.13358532911E+03  0.13411501891E+03  0.19999961240E+01 0.  0.
        -13    1    3    3    0    0  0.86335158838E+01  0.79536508873E+01  0.80551206347E+01  0.14237074539E+02  0.10566000000E+00 0.  1.
         13    1    4    4    0    0 -0.54235317571E+01 -0.58663404384E+01 -0.95781061632E+02  0.96113742921E+02  0.10566000000E+00 0. -1.
        -13    1    4    4    0    0 -0.88678927000E+00 -0.33222682285E+00 -0.92719635543E+01  0.93207962138E+01  0.10566000000E+00 0. -1.
         14    1    4    4    0    0 -0.23231948567E+01 -0.17550836260E+01 -0.28532303922E+02  0.28680479772E+02  0.00000000000E+00 0. -1.
<mgrwt>
<rscale>  0 0.79060169E+02</rscale>
<asrwt>0</asrwt>
<pdfrwt beam="1">  1        2 0.21067868E-01 0.79060169E+02</pdfrwt>
<pdfrwt beam="2">  1       -1 0.17555297E-02 0.79060169E+02</pdfrwt>
<totfact> 0.20079133E+05</totfact>
</mgrwt>
</event>
<event>
 8    1  0.1520917E-013  0.8047939E+02  0.7818608E-02  0.1327696E+00
          2   -1    0    0  501    0  0.00000000000E+00  0.00000000000E+00  0.44601090617E+02  0.44601090690E+02  0.25500000000E-02 0. -1.
         -1   -1    0    0    0  501 -0.00000000000E+00 -0.00000000000E+00 -0.36304782443E+02  0.36304782793E+02  0.50400000000E-02 0.  1.
         24    2    1    2    0    0  0.00000000000E+00  0.00000000000E+00  0.82963081743E+01  0.80905873483E+02  0.80479386396E+02 0.  0.
         66    2    3    3    0    0 -0.20873719770E+02 -0.18014410733E+02  0.33580351275E+02  0.43495645327E+02  0.19999998991E+01 0.  0.
        -13    1    3    3    0    0  0.20873719770E+02  0.18014410733E+02 -0.25284043101E+02  0.37410228156E+02  0.10566000000E+00 0.  1.
         13    1    4    4    0    0 -0.37512122140E+01 -0.38998714205E+01  0.73734526333E+01  0.91465598966E+01  0.10566000000E+00 0. -1.
        -13    1    4    4    0    0 -0.50531493348E+01 -0.39858229270E+01  0.81159008103E+01  0.10358576765E+02  0.10566000000E+00 0.  1.
         14    1    4    4    0    0 -0.12069358221E+02 -0.10128716385E+02  0.18090997832E+02  0.23990508666E+02  0.00000000000E+00 0. -1.
<mgrwt>
<rscale>  0 0.80479386E+02</rscale>
<asrwt>0</asrwt>
<pdfrwt beam="1">  1        2 0.68617062E-02 0.80479386E+02</pdfrwt>
<pdfrwt beam="2">  1       -1 0.55853512E-02 0.80479386E+02</pdfrwt>
<totfact> 0.14343943E+05</totfact>
</mgrwt>
</event>
<event>
 8    1  0.1520917E-013  0.8475460E+02  0.7818608E-02  0.1316076E+00
         -1   -1    0    0    0  501 -0.00000000000E+00  0.00000000000E+00  0.29839146651E+01  0.29839189215E+01  0.50400000000E-02 0.  1.
          2   -1    0    0  501    0  0.00000000000E+00 -0.00000000000E+00 -0.60183841054E+03  0.60183841054E+03  0.25500000000E-02 0. -1.
         24    2    1    2    0    0  0.88817841970E-15  0.00000000000E+00 -0.59885449587E+03  0.60482232947E+03  0.84754604549E+02 0.  0.
         66    2    3    3    0    0 -0.60172456459E+01 -0.23055714148E+02 -0.54946686562E+03  0.54998691768E+03  0.20000000646E+01 0.  0.
        -13    1    3    3    0    0  0.60172456459E+01  0.23055714148E+02 -0.49387630254E+02  0.54835411790E+02  0.10566000000E+00 0.  1.
         13    1    4    4    0    0 -0.24629122860E+01 -0.99975572718E+01 -0.25321978614E+03  0.25342905979E+03  0.10566000000E+00 0. -1.
        -13    1    4    4    0    0 -0.87835489811E+00 -0.33431606536E+01 -0.85794878449E+02  0.85864547763E+02  0.10566000000E+00 0.  1.
        -14    1    4    4    0    0 -0.26759784617E+01 -0.97149962231E+01 -0.21045220103E+03  0.21069331013E+03  0.00000000000E+00 0.  1.
<mgrwt>
<rscale>  0 0.84754605E+02</rscale>
<asrwt>0</asrwt>
<pdfrwt beam="1">  1        2 0.92590429E-01 0.84754605E+02</pdfrwt>
<pdfrwt beam="2">  1       -1 0.45906460E-03 0.84754605E+02</pdfrwt>
<totfact> 0.27688789E+05</totfact>
</mgrwt>
</event>
<event>
 8    1  0.1520917E-013  0.8281653E+02  0.7818608E-02  0.1321243E+00
          2   -1    0    0  501    0  0.00000000000E+00  0.00000000000E+00  0.14567250844E+04  0.14567250844E+04  0.25500000000E-02 0. -1.
         -1   -1    0    0    0  501 -0.00000000000E+00 -0.00000000000E+00 -0.11770488817E+01  0.11770596720E+01  0.50400000000E-02 0.  1.
         24    2    1    2    0    0  0.17763568394E-14  0.17763568394E-14  0.14555480355E+04  0.14579021441E+04  0.82816532134E+02 0.  0.
         66    2    3    3    0    0  0.83572866089E+01  0.14961337581E+02  0.13913223326E+04  0.13914293079E+04  0.19999995378E+01 0.  0.
        -13    1    3    3    0    0 -0.83572866089E+01 -0.14961337581E+02  0.64225702930E+02  0.66472836125E+02  0.10566000000E+00 0.  1.
         13    1    4    4    0    0  0.30351421898E+01  0.60524580914E+01  0.56223173961E+03  0.56227251803E+03  0.10566000000E+00 0. -1.
        -13    1    4    4    0    0  0.10824546666E+01  0.10660748602E+01  0.97875250060E+02  0.97887098036E+02  0.10566000000E+00 0.  1.
        -14    1    4    4    0    0  0.42396897525E+01  0.78428046290E+01  0.73121534290E+03  0.73126969187E+03  0.00000000000E+00 0.  1.
<mgrwt>
<rscale>  0 0.82816532E+02</rscale>
<asrwt>0</asrwt>
<pdfrwt beam="1">  1        2 0.22411179E+00 0.82816532E+02</pdfrwt>
<pdfrwt beam="2">  1       -1 0.18108508E-03 0.82816532E+02</pdfrwt>
<totfact> 0.30705159E+05</totfact>
</mgrwt>
</event>
<event>
 8    1  0.1698350E-013  0.8010274E+02  0.7818608E-02  0.1328760E+00
         -1   -1    0    0    0  501 -0.00000000000E+00  0.00000000000E+00  0.41846125651E+01  0.41846156002E+01  0.50400000000E-02 0.  1.
          2   -1    0    0  501    0  0.00000000000E+00 -0.00000000000E+00 -0.38333577988E+03  0.38333577989E+03  0.25500000000E-02 0. -1.
         24    2    1    2    0    0  0.00000000000E+00  0.00000000000E+00 -0.37915116732E+03  0.38752039549E+03  0.80102741797E+02 0.  0.
         66    2    3    3    0    0 -0.34073496272E+02  0.11614143945E+02 -0.27435007408E+03  0.27670897101E+03  0.20000004537E+01 0.  0.
        -13    1    3    3    0    0  0.34073496272E+02 -0.11614143945E+02 -0.10480109323E+03  0.11081142448E+03  0.10566000000E+00 0.  1.
         13    1    4    4    0    0 -0.23161075911E+02  0.83536990932E+01 -0.18445032328E+03  0.18608641178E+03  0.10566000000E+00 0. -1.
        -13    1    4    4    0    0 -0.31241870361E+01  0.13134514909E+01 -0.25572443300E+02  0.25796253988E+02  0.10566000000E+00 0.  1.
        -14    1    4    4    0    0 -0.77882333243E+01  0.19469933613E+01 -0.64327307500E+02  0.64826305245E+02  0.00000000000E+00 0.  1.
<mgrwt>
<rscale>  0 0.80102742E+02</rscale>
<asrwt>0</asrwt>
<pdfrwt beam="1">  1        2 0.58974708E-01 0.80102742E+02</pdfrwt>
<pdfrwt beam="2">  1       -1 0.64378709E-03 0.80102742E+02</pdfrwt>
<totfact> 0.27740990E+05</totfact>
</mgrwt>
</event>
<event>
 8    1  0.1520917E-013  0.8087307E+02  0.7818608E-02  0.1326592E+00
         -1   -1    0    0    0  501 -0.00000000000E+00  0.00000000000E+00  0.81460102304E+01  0.81460117896E+01  0.50400000000E-02 0.  1.
          2   -1    0    0  501    0  0.00000000000E+00 -0.00000000000E+00 -0.20072564875E+03  0.20072564876E+03  0.25500000000E-02 0. -1.
         24    2    1    2    0    0  0.00000000000E+00 -0.17763568394E-14 -0.19257963852E+03  0.20887166055E+03  0.80873069751E+02 0.  0.
         66    2    3    3    0    0  0.33839634132E+02  0.10231393626E+02 -0.14691336449E+03  0.15112027961E+03  0.19999971616E+01 0.  0.
        -13    1    3    3    0    0 -0.33839634132E+02 -0.10231393626E+02 -0.45666274023E+02  0.57751380944E+02  0.10566000000E+00 0.  1.
         13    1    4    4    0    0  0.39931472769E+01  0.86385823069E+00 -0.19117485804E+02  0.19549447658E+02  0.10566000000E+00 0. -1.
        -13    1    4    4    0    0  0.20566230996E+02  0.67760016702E+01 -0.87901444967E+02  0.90529328106E+02  0.10566000000E+00 0.  1.
         14    1    4    4    0    0  0.92802558586E+01  0.25915337252E+01 -0.39894433722E+02  0.41041503845E+02  0.00000000000E+00 0. -1.
<mgrwt>
<rscale>  0 0.80873070E+02</rscale>
<asrwt>0</asrwt>
<pdfrwt beam="1">  1        2 0.30880865E-01 0.80873070E+02</pdfrwt>
<pdfrwt beam="2">  1       -1 0.12532326E-02 0.80873070E+02</pdfrwt>
<totfact> 0.21462425E+05</totfact>
</mgrwt>
</event>
<event>
 8    1  0.1520917E-013  0.8043807E+02  0.7818608E-02  0.1327813E+00
          2   -1    0    0  501    0  0.00000000000E+00  0.00000000000E+00  0.24070596985E+03  0.24070596987E+03  0.25500000000E-02 0. -1.
         -1   -1    0    0    0  501 -0.00000000000E+00 -0.00000000000E+00 -0.67201095971E+01  0.67201114870E+01  0.50400000000E-02 0.  1.
         24    2    1    2    0    0  0.00000000000E+00  0.00000000000E+00  0.23398586026E+03  0.24742608135E+03  0.80438068937E+02 0.  0.
         66    2    3    3    0    0  0.38719982148E+02  0.77818976618E+01  0.14003644751E+03  0.14551289149E+03  0.20000024696E+01 0.  0.
        -13    1    3    3    0    0 -0.38719982148E+02 -0.77818976618E+01  0.93949412752E+02  0.10191318987E+03  0.10566000000E+00 0.  1.
         13    1    4    4    0    0  0.18299473300E+02  0.36028065992E+01  0.63530168427E+02  0.66211361584E+02  0.10566000000E+00 0. -1.
        -13    1    4    4    0    0  0.52412951874E+01  0.13610395225E+01  0.18602185505E+02  0.19374624472E+02  0.10566000000E+00 0.  1.
         14    1    4    4    0    0  0.15179213662E+02  0.28180515401E+01  0.57904093573E+02  0.59926905430E+02  0.00000000000E+00 0. -1.
<mgrwt>
<rscale>  0 0.80438069E+02</rscale>
<asrwt>0</asrwt>
<pdfrwt beam="1">  1        2 0.37031690E-01 0.80438069E+02</pdfrwt>
<pdfrwt beam="2">  1       -1 0.10338631E-02 0.80438069E+02</pdfrwt>
<totfact> 0.23211290E+05</totfact>
</mgrwt>
</event>
<event>
 8    1  0.1520917E-013  0.8348837E+02  0.7818608E-02  0.1319434E+00
         -1   -1    0    0    0  501 -0.00000000000E+00  0.00000000000E+00  0.36546004424E+01  0.36546039176E+01  0.50400000000E-02 0.  1.
          2   -1    0    0  501    0  0.00000000000E+00 -0.00000000000E+00 -0.47681716487E+03  0.47681716487E+03  0.25500000000E-02 0. -1.
         24    2    1    2    0    0  0.00000000000E+00  0.22204460493E-15 -0.47316256442E+03  0.48047176879E+03  0.83488371841E+02 0.  0.
         66    2    3    3    0    0  0.39250212093E+02 -0.19428170478E+01 -0.31733089744E+03  0.31976124242E+03  0.19999990625E+01 0.  0.
        -13    1    3    3    0    0 -0.39250212093E+02  0.19428170478E+01 -0.15583166698E+03  0.16071052637E+03  0.10566000000E+00 0.  1.
         13    1    4    4    0    0  0.33980522694E+02 -0.12696005040E+01 -0.27164310172E+03  0.27376317080E+03  0.10566000000E+00 0. -1.
        -13    1    4    4    0    0  0.98310334917E+00 -0.22228522957E-01 -0.95684989394E+01  0.96194761963E+01  0.10566000000E+00 0.  1.
        -14    1    4    4    0    0  0.42865860506E+01 -0.65098802077E+00 -0.36119296776E+02  0.36378595423E+02  0.00000000000E+00 0.  1.
<mgrwt>
<rscale>  0 0.83488372E+02</rscale>
<asrwt>0</asrwt>
<pdfrwt beam="1">  1        2 0.73356438E-01 0.83488372E+02</pdfrwt>
<pdfrwt beam="2">  1       -1 0.56224687E-03 0.83488372E+02</pdfrwt>
<totfact> 0.26823690E+05</totfact>
</mgrwt>
</event>
<event>
 8    1  0.1520917E-013  0.7951090E+02  0.7818608E-02  0.1330445E+00
          2   -1    0    0  501    0  0.00000000000E+00  0.00000000000E+00  0.13930372262E+04  0.13930372262E+04  0.25500000000E-02 0. -1.
         -1   -1    0    0    0  501 -0.00000000000E+00 -0.00000000000E+00 -0.11345625377E+01  0.11345737321E+01  0.50400000000E-02 0.  1.
         24    2    1    2    0    0  0.88817841970E-15 -0.35527136788E-14  0.13919026636E+04  0.13941717999E+04  0.79510896248E+02 0.  0.
         66    2    3    3    0    0 -0.66246714173E+01  0.21461713741E+02  0.12710248642E+04  0.12712248806E+04  0.19999981429E+01 0.  0.
        -13    1    3    3    0    0  0.66246714173E+01 -0.21461713741E+02  0.12087779940E+03  0.12294691936E+03  0.10566000000E+00 0.  1.
         13    1    4    4    0    0 -0.20016288250E+01  0.57180166418E+01  0.29733231397E+03  0.29739404555E+03  0.10566000000E+00 0. -1.
        -13    1    4    4    0    0 -0.27208329240E+01  0.94369034439E+01  0.58915894573E+03  0.58924081034E+03  0.10566000000E+00 0.  1.
         14    1    4    4    0    0 -0.19022096684E+01  0.63067936554E+01  0.38453360455E+03  0.38459002467E+03  0.00000000000E+00 0. -1.
<mgrwt>
<rscale>  0 0.79510896E+02</rscale>
<asrwt>0</asrwt>
<pdfrwt beam="1">  1        2 0.21431494E+00 0.79510896E+02</pdfrwt>
<pdfrwt beam="2">  1       -1 0.17454770E-03 0.79510896E+02</pdfrwt>
<totfact> 0.34607959E+05</totfact>
</mgrwt>
</event>
<event>
 8    1  0.1520917E-013  0.7981261E+02  0.7818608E-02  0.1329584E+00
          2   -1    0    0  501    0  0.00000000000E+00  0.00000000000E+00  0.27154848412E+02  0.27154848531E+02  0.25500000000E-02 0. -1.
         -1   -1    0    0    0  501 -0.00000000000E+00 -0.00000000000E+00 -0.58645628510E+02  0.58645628727E+02  0.50400000000E-02 0.  1.
         24    2    1    2    0    0  0.00000000000E+00  0.00000000000E+00 -0.31490780099E+02  0.85800477258E+02  0.79812609696E+02 0.  0.
         66    2    3    3    0    0 -0.21477027589E+02  0.23500337055E+02  0.10067259222E+02  0.33449638183E+02  0.20000076413E+01 0.  0.
        -13    1    3    3    0    0  0.21477027589E+02 -0.23500337055E+02 -0.41558039320E+02  0.52350839076E+02  0.10566000000E+00 0.  1.
         13    1    4    4    0    0 -0.13378397160E+02  0.13988004414E+02  0.56511785586E+01  0.20164145437E+02  0.10566000000E+00 0. -1.
        -13    1    4    4    0    0 -0.11895646871E+01  0.11079203413E+01  0.84163468298E+00  0.18335933581E+01  0.10566000000E+00 0.  1.
         14    1    4    4    0    0 -0.69090657422E+01  0.84044122993E+01  0.35744459801E+01  0.11451899388E+02  0.00000000000E+00 0. -1.
<mgrwt>
<rscale>  0 0.79812610E+02</rscale>
<asrwt>0</asrwt>
<pdfrwt beam="1">  1        2 0.41776690E-02 0.79812610E+02</pdfrwt>
<pdfrwt beam="2">  1       -1 0.90224044E-02 0.79812610E+02</pdfrwt>
<totfact> 0.13281143E+05</totfact>
</mgrwt>
</event>
<event>
 8    1  0.1520917E-013  0.7935700E+02  0.7818608E-02  0.1330886E+00
          2   -1    0    0  501    0  0.00000000000E+00  0.00000000000E+00  0.25313706019E+02  0.25313706147E+02  0.25500000000E-02 0. -1.
         -1   -1    0    0    0  501 -0.00000000000E+00 -0.00000000000E+00 -0.62194900004E+02  0.62194900208E+02  0.50400000000E-02 0.  1.
         24    2    1    2    0    0  0.00000000000E+00  0.17763568394E-14 -0.36881193985E+02  0.87508606356E+02  0.79357001686E+02 0.  0.
         66    2    3    3    0    0  0.17591381617E+02 -0.15878521530E+02  0.16606512025E+02  0.29006213144E+02  0.20000015430E+01 0.  0.
        -13    1    3    3    0    0 -0.17591381617E+02  0.15878521530E+02 -0.53487706010E+02  0.58502393211E+02  0.10566000000E+00 0.  1.
         13    1    4    4    0    0  0.81002287456E+01 -0.74555077691E+01  0.82221559934E+01  0.13740935741E+02  0.10566000000E+00 0. -1.
        -13    1    4    4    0    0  0.10912728344E+01 -0.70925772469E+00  0.48801124793E+00  0.13940021280E+01  0.10566000000E+00 0.  1.
        -14    1    4    4    0    0  0.83998800371E+01 -0.77137560361E+01  0.78963447837E+01  0.13871275275E+02  0.00000000000E+00 0.  1.
<mgrwt>
<rscale>  0 0.79357002E+02</rscale>
<asrwt>0</asrwt>
<pdfrwt beam="1">  1        2 0.38944164E-02 0.79357002E+02</pdfrwt>
<pdfrwt beam="2">  1       -1 0.95684461E-02 0.79357002E+02</pdfrwt>
<totfact> 0.13312687E+05</totfact>
</mgrwt>
</event>
<event>
 8    1  0.1520917E-013  0.7524471E+02  0.7818608E-02  0.1343115E+00
          2   -1    0    0  501    0  0.00000000000E+00  0.00000000000E+00  0.50449643767E+03  0.50449643767E+03  0.25500000000E-02 0. -1.
         -1   -1    0    0    0  501 -0.00000000000E+00 -0.00000000000E+00 -0.28056502767E+01  0.28056548035E+01  0.50400000000E-02 0.  1.
         24    2    1    2    0    0  0.00000000000E+00  0.00000000000E+00  0.50169078739E+03  0.50730209248E+03  0.75244713297E+02 0.  0.
         66    2    3    3    0    0  0.33599050303E+02 -0.95748060244E+01  0.34465232025E+03  0.34642429906E+03  0.20000069601E+01 0.  0.
        -13    1    3    3    0    0 -0.33599050303E+02  0.95748060244E+01  0.15703846714E+03  0.16087779342E+03  0.10566000000E+00 0.  1.
         13    1    4    4    0    0  0.89997452094E+01 -0.18844644471E+01  0.89187811311E+02  0.89660601551E+02  0.10566000000E+00 0. -1.
        -13    1    4    4    0    0  0.16659829478E+02 -0.53079469771E+01  0.16822759046E+03  0.16913384515E+03  0.10566000000E+00 0.  1.
        -14    1    4    4    0    0  0.79394756159E+01 -0.23823946002E+01  0.87236918482E+02  0.87629852353E+02  0.00000000000E+00 0.  1.
<mgrwt>
<rscale>  0 0.75244713E+02</rscale>
<asrwt>0</asrwt>
<pdfrwt beam="1">  1        2 0.77614782E-01 0.75244713E+02</pdfrwt>
<pdfrwt beam="2">  1       -1 0.43163916E-03 0.75244713E+02</pdfrwt>
<totfact> 0.35808361E+05</totfact>
</mgrwt>
</event>
<event>
 8    1  0.1520917E-013  0.7933831E+02  0.7818608E-02  0.1330940E+00
          2   -1    0    0  501    0  0.00000000000E+00  0.00000000000E+00  0.79869957163E+03  0.79869957163E+03  0.25500000000E-02 0. -1.
         -1   -1    0    0    0  501 -0.00000000000E+00 -0.00000000000E+00 -0.19702518183E+01  0.19702582645E+01  0.50400000000E-02 0.  1.
         24    2    1    2    0    0  0.00000000000E+00 -0.35527136788E-14  0.79672931981E+03  0.80066982990E+03  0.79338310180E+02 0.  0.
         66    2    3    3    0    0  0.11943241195E+02 -0.20812389320E+02  0.71708479234E+03  0.71748895181E+03  0.20000009715E+01 0.  0.
        -13    1    3    3    0    0 -0.11943241195E+02  0.20812389320E+02  0.79644527473E+02  0.83180878091E+02  0.10566000000E+00 0.  1.
         13    1    4    4    0    0  0.12873252550E+00 -0.24107543030E+00  0.15614677180E+02  0.15617426065E+02  0.10566000000E+00 0. -1.
        -13    1    4    4    0    0  0.79426919077E+00 -0.17327823917E+01  0.56943181757E+02  0.56975174515E+02  0.10566000000E+00 0.  1.
         14    1    4    4    0    0  0.11020239479E+02 -0.18838531498E+02  0.64452693340E+03  0.64489635123E+03  0.00000000000E+00 0. -1.
<mgrwt>
<rscale>  0 0.79338310E+02</rscale>
<asrwt>0</asrwt>
<pdfrwt beam="1">  1        2 0.12287689E+00 0.79338310E+02</pdfrwt>
<pdfrwt beam="2">  1       -1 0.30311607E-03 0.79338310E+02</pdfrwt>
<totfact> 0.35104957E+05</totfact>
</mgrwt>
</event>
<event>
 8    1  0.1520917E-013  0.7885168E+02  0.7818608E-02  0.1332342E+00
         -1   -1    0    0    0  501 -0.00000000000E+00  0.00000000000E+00  0.13131824322E+01  0.13131921039E+01  0.50400000000E-02 0.  1.
          2   -1    0    0  501    0  0.00000000000E+00 -0.00000000000E+00 -0.11836826458E+04  0.11836826458E+04  0.25500000000E-02 0. -1.
         24    2    1    2    0    0  0.00000000000E+00  0.00000000000E+00 -0.11823694634E+04  0.11849958379E+04  0.78851683252E+02 0.  0.
         66    2    3    3    0    0  0.13843912841E+02 -0.89064533794E+01 -0.11295245830E+04  0.11296462997E+04  0.19999984537E+01 0.  0.
        -13    1    3    3    0    0 -0.13843912841E+02  0.89064533794E+01 -0.52844880402E+02  0.55349538239E+02  0.10566000000E+00 0.  1.
         13    1    4    4    0    0  0.77254050050E+01 -0.52033461450E+01 -0.67393112656E+03  0.67399549791E+03  0.10566000000E+00 0. -1.
        -13    1    4    4    0    0  0.47565086599E+01 -0.23429016785E+01 -0.33692839447E+03  0.33697012884E+03  0.10566000000E+00 0.  1.
         14    1    4    4    0    0  0.13619991764E+01 -0.13602055560E+01 -0.11866506197E+03  0.11868067295E+03  0.00000000000E+00 0. -1.
<mgrwt>
<rscale>  0 0.78851683E+02</rscale>
<asrwt>0</asrwt>
<pdfrwt beam="1">  1        2 0.18210417E+00 0.78851683E+02</pdfrwt>
<pdfrwt beam="2">  1       -1 0.20202976E-03 0.78851683E+02</pdfrwt>
<totfact> 0.36428887E+05</totfact>
</mgrwt>
</event>
<event>
 8    1  0.1520917E-013  0.7581095E+02  0.7818608E-02  0.1341378E+00
         -1   -1    0    0    0  501 -0.00000000000E+00  0.00000000000E+00  0.31057746105E+02  0.31057746514E+02  0.50400000000E-02 0.  1.
          2   -1    0    0  501    0  0.00000000000E+00 -0.00000000000E+00 -0.46263016700E+02  0.46263016770E+02  0.25500000000E-02 0. -1.
         24    2    1    2    0    0 -0.11102230246E-15  0.00000000000E+00 -0.15205270595E+02  0.77320763284E+02  0.75810950271E+02 0.  0.
         66    2    3    3    0    0  0.59254036716E+00 -0.12772224164E+02 -0.43973861633E+02  0.45838644415E+02  0.20000001706E+01 0.  0.
        -13    1    3    3    0    0 -0.59254036716E+00  0.12772224164E+02  0.28768591038E+02  0.31482118870E+02  0.10566000000E+00 0.  1.
         13    1    4    4    0    0 -0.40732998167E+00 -0.72336811353E+01 -0.23101549669E+02  0.24211254028E+02  0.10566000000E+00 0. -1.
        -13    1    4    4    0    0  0.56223665295E+00 -0.27352299260E+01 -0.91891243404E+01  0.96046219593E+01  0.10566000000E+00 0.  1.
         14    1    4    4    0    0  0.43763369588E+00 -0.28033131028E+01 -0.11683187624E+02  0.12022768427E+02  0.00000000000E+00 0. -1.
<mgrwt>
<rscale>  0 0.75810950E+02</rscale>
<asrwt>0</asrwt>
<pdfrwt beam="1">  1        2 0.71173872E-02 0.75810950E+02</pdfrwt>
<pdfrwt beam="2">  1       -1 0.47781148E-02 0.75810950E+02</pdfrwt>
<totfact> 0.17025709E+05</totfact>
</mgrwt>
</event>
<event>
 8    1  0.1520917E-013  0.7999536E+02  0.7818608E-02  0.1329065E+00
          2   -1    0    0  501    0  0.00000000000E+00  0.00000000000E+00  0.33770429733E+03  0.33770429734E+03  0.25500000000E-02 0. -1.
         -1   -1    0    0    0  501 -0.00000000000E+00 -0.00000000000E+00 -0.47373216248E+01  0.47373243058E+01  0.50400000000E-02 0.  1.
         24    2    1    2    0    0  0.00000000000E+00 -0.17763568394E-14  0.33296697571E+03  0.34244162165E+03  0.79995358146E+02 0.  0.
         66    2    3    3    0    0  0.15728058247E+01 -0.11135931975E+02  0.33078845604E+03  0.33098562710E+03  0.19999997986E+01 0.  0.
        -13    1    3    3    0    0 -0.15728058247E+01  0.11135931975E+02  0.21785196699E+01  0.11455994549E+02  0.10566000000E+00 0.  1.
         13    1    4    4    0    0  0.10144905996E+01 -0.92131553828E+01  0.26797273028E+03  0.26813300200E+03  0.10566000000E+00 0. -1.
        -13    1    4    4    0    0  0.59052169697E+00 -0.68456834981E+00  0.28642454911E+02  0.28656914298E+02  0.10566000000E+00 0.  1.
        -14    1    4    4    0    0 -0.32206471909E-01 -0.12382082424E+01  0.34173270848E+02  0.34195710803E+02  0.00000000000E+00 0.  1.
<mgrwt>
<rscale>  0 0.79995358E+02</rscale>
<asrwt>0</asrwt>
<pdfrwt beam="1">  1        2 0.51954523E-01 0.79995358E+02</pdfrwt>
<pdfrwt beam="2">  1       -1 0.72881870E-03 0.79995358E+02</pdfrwt>
<totfact> 0.26610849E+05</totfact>
</mgrwt>
</event>
<event>
 8    1  0.1520917E-013  0.7820072E+02  0.7818608E-02  0.1334236E+00
         -1   -1    0    0    0  501 -0.00000000000E+00  0.00000000000E+00  0.56781803497E+01  0.56781825864E+01  0.50400000000E-02 0.  1.
          2   -1    0    0  501    0  0.00000000000E+00 -0.00000000000E+00 -0.26924783021E+03  0.26924783022E+03  0.25500000000E-02 0. -1.
         24    2    1    2    0    0  0.00000000000E+00 -0.88817841970E-15 -0.26356964986E+03  0.27492601281E+03  0.78200717332E+02 0.  0.
         66    2    3    3    0    0  0.38368248122E+02 -0.53807602432E+01 -0.14971353303E+03  0.15465838812E+03  0.19999996237E+01 0.  0.
        -13    1    3    3    0    0 -0.38368248122E+02  0.53807602432E+01 -0.11385611683E+03  0.12026762469E+03  0.10566000000E+00 0.  1.
         13    1    4    4    0    0  0.18247218786E+02 -0.29789736944E+01 -0.70463622525E+02  0.72848943308E+02  0.10566000000E+00 0. -1.
        -13    1    4    4    0    0  0.10852941989E+02 -0.92705182280E+00 -0.44626880243E+02  0.45937080656E+02  0.10566000000E+00 0.  1.
        -14    1    4    4    0    0  0.92680873466E+01 -0.14747347260E+01 -0.34623030265E+02  0.35872364158E+02  0.00000000000E+00 0.  1.
<mgrwt>
<rscale>  0 0.78200717E+02</rscale>
<asrwt>0</asrwt>
<pdfrwt beam="1">  1        2 0.41422733E-01 0.78200717E+02</pdfrwt>
<pdfrwt beam="2">  1       -1 0.87356659E-03 0.78200717E+02</pdfrwt>
<totfact> 0.26022270E+05</totfact>
</mgrwt>
</event>
<event>
 8    1  0.1520917E-013  0.8108503E+02  0.7818608E-02  0.1326000E+00
          2   -1    0    0  501    0  0.00000000000E+00  0.00000000000E+00  0.62901285454E+02  0.62901285506E+02  0.25500000000E-02 0. -1.
         -1   -1    0    0    0  501 -0.00000000000E+00 -0.00000000000E+00 -0.26131346668E+02  0.26131347154E+02  0.50400000000E-02 0.  1.
         24    2    1    2    0    0 -0.71054273576E-14  0.00000000000E+00  0.36769938786E+02  0.89032632660E+02  0.81085025005E+02 0.  0.
         66    2    3    3    0    0 -0.37397310704E+02  0.38892695866E+01  0.34975981610E+02  0.51390705077E+02  0.20000032311E+01 0.  0.
        -13    1    3    3    0    0  0.37397310704E+02 -0.38892695866E+01  0.17939571756E+01  0.37641927583E+02  0.10566000000E+00 0.  1.
         13    1    4    4    0    0 -0.40545594635E+01  0.24930508110E+00  0.33107435982E+01  0.52415448748E+01  0.10566000000E+00 0. -1.
        -13    1    4    4    0    0 -0.24219101161E+02  0.20152354970E+01  0.23116066127E+02  0.33540866303E+02  0.10566000000E+00 0.  1.
        -14    1    4    4    0    0 -0.91236500786E+01  0.16247290084E+01  0.85491718854E+01  0.12608293899E+02  0.00000000000E+00 0.  1.
<mgrwt>
<rscale>  0 0.81085025E+02</rscale>
<asrwt>0</asrwt>
<pdfrwt beam="1">  1        2 0.96771208E-02 0.81085025E+02</pdfrwt>
<pdfrwt beam="2">  1       -1 0.40202073E-02 0.81085025E+02</pdfrwt>
<totfact> 0.15172315E+05</totfact>
</mgrwt>
</event>
<event>
 8    1  0.1520917E-013  0.8744520E+02  0.7818608E-02  0.1309159E+00
         -1   -1    0    0    0  501 -0.00000000000E+00  0.00000000000E+00  0.24158812179E+02  0.24158812705E+02  0.50400000000E-02 0.  1.
          2   -1    0    0  501    0  0.00000000000E+00 -0.00000000000E+00 -0.79129126731E+02  0.79129126772E+02  0.25500000000E-02 0. -1.
         24    2    1    2    0    0  0.00000000000E+00  0.00000000000E+00 -0.54970314552E+02  0.10328793948E+03  0.87445199752E+02 0.  0.
         66    2    3    3    0    0 -0.20178897669E+02  0.85323641310E+01 -0.72160837257E+02  0.75439880592E+02  0.20000003375E+01 0.  0.
        -13    1    3    3    0    0  0.20178897669E+02 -0.85323641310E+01  0.17190522705E+02  0.27848058885E+02  0.10566000000E+00 0.  1.
         13    1    4    4    0    0 -0.15479377915E+02  0.57639108436E+01 -0.55579959794E+02  0.57982556891E+02  0.10566000000E+00 0. -1.
        -13    1    4    4    0    0 -0.15772167402E+01  0.81357377781E+00 -0.54840454544E+01  0.57650180849E+01  0.10566000000E+00 0. -1.
         14    1    4    4    0    0 -0.31223030137E+01  0.19548795096E+01 -0.11096832008E+02  0.11692305617E+02  0.00000000000E+00 0. -1.
<mgrwt>
<rscale>  0 0.87445200E+02</rscale>
<asrwt>0</asrwt>
<pdfrwt beam="1">  1        2 0.12173712E-01 0.87445200E+02</pdfrwt>
<pdfrwt beam="2">  1       -1 0.37167404E-02 0.87445200E+02</pdfrwt>
<totfact> 0.13079047E+05</totfact>
</mgrwt>
</event>
<event>
 8    1  0.1520917E-013  0.7786107E+02  0.7818608E-02  0.1335233E+00
         -1   -1    0    0    0  501 -0.00000000000E+00  0.00000000000E+00  0.30095197185E+01  0.30095239387E+01  0.50400000000E-02 0.  1.
          2   -1    0    0  501    0  0.00000000000E+00 -0.00000000000E+00 -0.50359712087E+03  0.50359712087E+03  0.25500000000E-02 0. -1.
         24    2    1    2    0    0  0.00000000000E+00  0.00000000000E+00 -0.50058760115E+03  0.50660664481E+03  0.77861069504E+02 0.  0.
         66    2    3    3    0    0 -0.23949322435E+02  0.26606276441E+02 -0.34958836398E+03  0.35142209410E+03  0.19999995180E+01 0.  0.
        -13    1    3    3    0    0  0.23949322435E+02 -0.26606276441E+02 -0.15099923717E+03  0.15518455071E+03  0.10566000000E+00 0.  1.
         13    1    4    4    0    0 -0.48973438890E+01  0.48403517062E+01 -0.70189570820E+02  0.70526590714E+02  0.10566000000E+00 0. -1.
        -13    1    4    4    0    0 -0.18743071045E+02  0.21622343867E+02 -0.27648985023E+03  0.27796668310E+03  0.10566000000E+00 0.  1.
        -14    1    4    4    0    0 -0.30890750111E+00  0.14358086816E+00 -0.29089429304E+01  0.29288202885E+01  0.00000000000E+00 0.  1.
<mgrwt>
<rscale>  0 0.77861070E+02</rscale>
<asrwt>0</asrwt>
<pdfrwt beam="1">  1        2 0.77476413E-01 0.77861070E+02</pdfrwt>
<pdfrwt beam="2">  1       -1 0.46300376E-03 0.77861070E+02</pdfrwt>
<totfact> 0.32751215E+05</totfact>
</mgrwt>
</event>
<event>
 8    1  0.1520917E-013  0.8013882E+02  0.7818608E-02  0.1328658E+00
         -1   -1    0    0    0  501 -0.00000000000E+00  0.00000000000E+00  0.76518091795E+00  0.76519751620E+00  0.50400000000E-02 0.  1.
          2   -1    0    0  501    0  0.00000000000E+00 -0.00000000000E+00 -0.20982492390E+04  0.20982492390E+04  0.25500000000E-02 0. -1.
         24    2    1    2    0    0  0.00000000000E+00  0.00000000000E+00 -0.20974840580E+04  0.20990144365E+04  0.80138822062E+02 0.  0.
         66    2    3    3    0    0  0.58128156278E+01 -0.10609664593E+02 -0.20492365903E+04  0.20492732753E+04  0.20000017371E+01 0.  0.
        -13    1    3    3    0    0 -0.58128156278E+01  0.10609664593E+02 -0.48247467766E+02  0.49741161206E+02  0.10566000000E+00 0.  1.
         13    1    4    4    0    0  0.31092241057E+01 -0.66768109069E+01 -0.11700534547E+04  0.11700766407E+04  0.10566000000E+00 0. -1.
        -13    1    4    4    0    0  0.15095273485E+01 -0.16503755861E+01 -0.47641246835E+03  0.47641773012E+03  0.10566000000E+00 0.  1.
        -14    1    4    4    0    0  0.11940641736E+01 -0.22824780997E+01 -0.40277066727E+03  0.40277890449E+03  0.00000000000E+00 0.  1.
<mgrwt>
<rscale>  0 0.80138822E+02</rscale>
<asrwt>0</asrwt>
<pdfrwt beam="1">  1        2 0.32280297E+00 0.80138822E+02</pdfrwt>
<pdfrwt beam="2">  1       -1 0.11772310E-03 0.80138822E+02</pdfrwt>
<totfact> 0.26355531E+05</totfact>
</mgrwt>
</event>
<event>
 8    1  0.1520917E-013  0.7927052E+02  0.7818608E-02  0.1331134E+00
          2   -1    0    0  501    0  0.00000000000E+00  0.00000000000E+00  0.28775001332E+03  0.28775001333E+03  0.25500000000E-02 0. -1.
         -1   -1    0    0    0  501 -0.00000000000E+00 -0.00000000000E+00 -0.54594380905E+01  0.54594404169E+01  0.50400000000E-02 0.  1.
         24    2    1    2    0    0  0.00000000000E+00  0.00000000000E+00  0.28229057523E+03  0.29320945375E+03  0.79270517243E+02 0.  0.
         66    2    3    3    0    0 -0.12128975506E+02 -0.20902066466E+02  0.25731858349E+03  0.25845862693E+03  0.19999985806E+01 0.  0.
        -13    1    3    3    0    0  0.12128975506E+02  0.20902066466E+02  0.24971991744E+02  0.34750826826E+02  0.10566000000E+00 0.  1.
         13    1    4    4    0    0 -0.46059405632E+01 -0.84656002364E+01  0.97478595350E+02  0.97953911567E+02  0.10566000000E+00 0. -1.
        -13    1    4    4    0    0 -0.75489342574E+01 -0.12156567504E+02  0.15704251904E+03  0.15769315931E+03  0.10566000000E+00 0.  1.
         14    1    4    4    0    0  0.25899314810E-01 -0.27989872517E+00  0.27974690943E+01  0.28115560468E+01  0.00000000000E+00 0. -1.
<mgrwt>
<rscale>  0 0.79270517E+02</rscale>
<asrwt>0</asrwt>
<pdfrwt beam="1">  1        2 0.44269226E-01 0.79270517E+02</pdfrwt>
<pdfrwt beam="2">  1       -1 0.83991387E-03 0.79270517E+02</pdfrwt>
<totfact> 0.25722866E+05</totfact>
</mgrwt>
</event>
<event>
 8    1  0.1520917E-013  0.7825101E+02  0.7818608E-02  0.1334089E+00
          2   -1    0    0  501    0  0.00000000000E+00  0.00000000000E+00  0.84339061232E+02  0.84339061270E+02  0.25500000000E-02 0. -1.
         -1   -1    0    0    0  501 -0.00000000000E+00 -0.00000000000E+00 -0.18150605752E+02  0.18150606452E+02  0.50400000000E-02 0.  1.
         24    2    1    2    0    0  0.00000000000E+00  0.35527136788E-14  0.66188455480E+02  0.10248966772E+03  0.78251008626E+02 0.  0.
         66    2    3    3    0    0  0.22425306599E+02  0.30567372393E+02  0.45647175346E+02  0.59371064027E+02  0.19999988722E+01 0.  0.
        -13    1    3    3    0    0 -0.22425306599E+02 -0.30567372393E+02  0.20541280133E+02  0.43118603696E+02  0.10566000000E+00 0.  1.
         13    1    4    4    0    0  0.10070439631E+02  0.13842898215E+02  0.19260503251E+02  0.25768541574E+02  0.10566000000E+00 0. -1.
        -13    1    4    4    0    0  0.62481946355E+01  0.79769406736E+01  0.12519081309E+02  0.16106212453E+02  0.10566000000E+00 0.  1.
         14    1    4    4    0    0  0.61066723329E+01  0.87475335049E+01  0.13867590786E+02  0.17496310000E+02  0.00000000000E+00 0. -1.
<mgrwt>
<rscale>  0 0.78251009E+02</rscale>
<asrwt>0</asrwt>
<pdfrwt beam="1">  1        2 0.12975240E-01 0.78251009E+02</pdfrwt>
<pdfrwt beam="2">  1       -1 0.27924009E-02 0.78251009E+02</pdfrwt>
<totfact> 0.17962138E+05</totfact>
</mgrwt>
</event>
<event>
 8    1  0.1520917E-013  0.8313440E+02  0.7818608E-02  0.1320385E+00
         -1   -1    0    0    0  501 -0.00000000000E+00  0.00000000000E+00  0.88708110062E+02  0.88708110205E+02  0.50400000000E-02 0.  1.
          2   -1    0    0  501    0  0.00000000000E+00 -0.00000000000E+00 -0.19477722144E+02  0.19477722311E+02  0.25500000000E-02 0. -1.
         24    2    1    2    0    0  0.00000000000E+00 -0.88817841970E-15  0.69230387918E+02  0.10818583252E+03  0.83134395685E+02 0.  0.
         66    2    3    3    0    0  0.19184410430E+02 -0.65880739278E+01 -0.12544025409E+02  0.23933175818E+02  0.20000024028E+01 0.  0.
        -13    1    3    3    0    0 -0.19184410430E+02  0.65880739278E+01  0.81774413328E+02  0.84252656698E+02  0.10566000000E+00 0.  1.
         13    1    4    4    0    0  0.46899879088E+01 -0.14020866132E+01 -0.29371112590E+01  0.57096076957E+01  0.10566000000E+00 0. -1.
        -13    1    4    4    0    0  0.95327297514E+01 -0.25856350535E+01 -0.63754657111E+01  0.11756537424E+02  0.10566000000E+00 0.  1.
        -14    1    4    4    0    0  0.49616927699E+01 -0.26003522611E+01 -0.32314484394E+01  0.64670306974E+01  0.00000000000E+00 0.  1.
<mgrwt>
<rscale>  0 0.83134396E+02</rscale>
<asrwt>0</asrwt>
<pdfrwt beam="1">  1        2 0.29965726E-02 0.83134396E+02</pdfrwt>
<pdfrwt beam="2">  1       -1 0.13647402E-01 0.83134396E+02</pdfrwt>
<totfact> 0.11051320E+05</totfact>
</mgrwt>
</event>
<event>
 8    1  0.1520917E-013  0.7859192E+02  0.7818608E-02  0.1333096E+00
         -1   -1    0    0    0  501 -0.00000000000E+00  0.00000000000E+00  0.57951226467E+01  0.57951248383E+01  0.50400000000E-02 0.  1.
          2   -1    0    0  501    0  0.00000000000E+00 -0.00000000000E+00 -0.26646063854E+03  0.26646063855E+03  0.25500000000E-02 0. -1.
         24    2    1    2    0    0  0.35527136788E-14  0.00000000000E+00 -0.26066551589E+03  0.27225576339E+03  0.78591917672E+02 0.  0.
         66    2    3    3    0    0 -0.17403806757E+02  0.16633596748E+02 -0.23789546746E+03  0.23911884591E+03  0.20000001208E+01 0.  0.
        -13    1    3    3    0    0  0.17403806757E+02 -0.16633596748E+02 -0.22770048429E+02  0.33136917478E+02  0.10566000000E+00 0.  1.
         13    1    4    4    0    0 -0.26788841376E+01  0.20274783339E+01 -0.31021924209E+02  0.31203493944E+02  0.10566000000E+00 0. -1.
        -13    1    4    4    0    0 -0.65447035743E+01  0.65988066384E+01 -0.85857467787E+02  0.86359095252E+02  0.10566000000E+00 0.  1.
         14    1    4    4    0    0 -0.81802190453E+01  0.80073117753E+01 -0.12101607546E+03  0.12155625671E+03  0.00000000000E+00 0. -1.
<mgrwt>
<rscale>  0 0.78591918E+02</rscale>
<asrwt>0</asrwt>
<pdfrwt beam="1">  1        2 0.40993935E-01 0.78591918E+02</pdfrwt>
<pdfrwt beam="2">  1       -1 0.89155771E-03 0.78591918E+02</pdfrwt>
<totfact> 0.25587878E+05</totfact>
</mgrwt>
</event>
<event>
 8    1  0.1520917E-013  0.7926296E+02  0.7818608E-02  0.1331156E+00
         -1   -1    0    0    0  501 -0.00000000000E+00  0.00000000000E+00  0.11586821039E+01  0.11586930653E+01  0.50400000000E-02 0.  1.
          2   -1    0    0  501    0  0.00000000000E+00 -0.00000000000E+00 -0.13555459681E+04  0.13555459681E+04  0.25500000000E-02 0. -1.
         24    2    1    2    0    0 -0.35527136788E-14  0.17763568394E-14 -0.13543872860E+04  0.13567046612E+04  0.79262962133E+02 0.  0.
         66    2    3    3    0    0 -0.17524012267E+02  0.10421956472E+02 -0.12588142060E+04  0.12589809027E+04  0.19999957709E+01 0.  0.
        -13    1    3    3    0    0  0.17524012267E+02 -0.10421956472E+02 -0.95573079973E+02  0.97723758432E+02  0.10566000000E+00 0.  1.
         13    1    4    4    0    0 -0.39986712960E+01  0.16114161879E+01 -0.25741050641E+03  0.25744662749E+03  0.10566000000E+00 0. -1.
        -13    1    4    4    0    0 -0.10927852276E+01  0.82106585223E+00 -0.10101854590E+03  0.10102784818E+03  0.10566000000E+00 0.  1.
         14    1    4    4    0    0 -0.12432555744E+02  0.79894744322E+01 -0.90038515372E+03  0.90050642706E+03  0.00000000000E+00 0. -1.
<mgrwt>
<rscale>  0 0.79262962E+02</rscale>
<asrwt>0</asrwt>
<pdfrwt beam="1">  1        2 0.20854427E+00 0.79262962E+02</pdfrwt>
<pdfrwt beam="2">  1       -1 0.17826071E-03 0.79262962E+02</pdfrwt>
<totfact> 0.35137202E+05</totfact>
</mgrwt>
</event>
<event>
 8    1  0.1520917E-013  0.8815434E+02  0.7818608E-02  0.1307384E+00
          2   -1    0    0  501    0  0.00000000000E+00  0.00000000000E+00  0.33725406104E+02  0.33725406200E+02  0.25500000000E-02 0. -1.
         -1   -1    0    0    0  501 -0.00000000000E+00 -0.00000000000E+00 -0.57606332351E+02  0.57606332571E+02  0.50400000000E-02 0.  1.
         24    2    1    2    0    0  0.00000000000E+00 -0.35527136788E-14 -0.23880926247E+02  0.91331738771E+02  0.88154341178E+02 0.  0.
         66    2    3    3    0    0  0.33522695518E+02  0.28054240895E+02 -0.17619377709E+02  0.47172598141E+02  0.19999993798E+01 0.  0.
        -13    1    3    3    0    0 -0.33522695518E+02 -0.28054240895E+02 -0.62615485378E+01  0.44159140630E+02  0.10566000000E+00 0.  1.
         13    1    4    4    0    0  0.46036559263E+01  0.35772156459E+01 -0.25030701157E+01  0.63456003423E+01  0.10566000000E+00 0. -1.
        -13    1    4    4    0    0  0.19184371602E+02  0.16467583785E+02 -0.10923344448E+02  0.27541823604E+02  0.10566000000E+00 0.  1.
        -14    1    4    4    0    0  0.97346679900E+01  0.80094414645E+01 -0.41929631460E+01  0.13285174195E+02  0.00000000000E+00 0.  1.
<mgrwt>
<rscale>  0 0.88154341E+02</rscale>
<asrwt>0</asrwt>
<pdfrwt beam="1">  1        2 0.51885241E-02 0.88154341E+02</pdfrwt>
<pdfrwt beam="2">  1       -1 0.88625127E-02 0.88154341E+02</pdfrwt>
<totfact> 0.10484893E+05</totfact>
</mgrwt>
</event>
<event>
 8    1  0.1626662E-013  0.7689161E+02  0.7818608E-02  0.1338111E+00
         -1   -1    0    0    0  501 -0.00000000000E+00  0.00000000000E+00  0.19559218760E+01  0.19559283695E+01  0.50400000000E-02 0.  1.
          2   -1    0    0  501    0  0.00000000000E+00 -0.00000000000E+00 -0.75569357805E+03  0.75569357806E+03  0.25500000000E-02 0. -1.
         24    2    1    2    0    0  0.00000000000E+00  0.00000000000E+00 -0.75373765618E+03  0.75764950643E+03  0.76891613649E+02 0.  0.
         66    2    3    3    0    0 -0.12190829155E+02  0.19513771657E+02 -0.68029504952E+03  0.68068697505E+03  0.19999992936E+01 0.  0.
        -13    1    3    3    0    0  0.12190829155E+02 -0.19513771657E+02 -0.73442606652E+02  0.76962531375E+02  0.10566000000E+00 0.  1.
         13    1    4    4    0    0 -0.86169134001E+01  0.13844536466E+02 -0.47876564858E+03  0.47904329639E+03  0.10566000000E+00 0. -1.
        -13    1    4    4    0    0 -0.20997145207E+01  0.41777185681E+01 -0.14491819818E+03  0.14499364628E+03  0.10566000000E+00 0.  1.
        -14    1    4    4    0    0 -0.14742012344E+01  0.14915166228E+01 -0.56611202760E+02  0.56650032383E+02  0.00000000000E+00 0.  1.
<mgrwt>
<rscale>  0 0.76891614E+02</rscale>
<asrwt>0</asrwt>
<pdfrwt beam="1">  1        2 0.11626032E+00 0.76891614E+02</pdfrwt>
<pdfrwt beam="2">  1       -1 0.30091216E-03 0.76891614E+02</pdfrwt>
<totfact> 0.37684522E+05</totfact>
</mgrwt>
</event>
<event>
 8    1  0.1520917E-013  0.8994084E+02  0.7818608E-02  0.1302995E+00
          2   -1    0    0  501    0  0.00000000000E+00  0.00000000000E+00  0.93464859526E+03  0.93464859526E+03  0.25500000000E-02 0. -1.
         -1   -1    0    0    0  501 -0.00000000000E+00 -0.00000000000E+00 -0.21637394592E+01  0.21637453290E+01  0.50400000000E-02 0.  1.
         24    2    1    2    0    0  0.00000000000E+00  0.00000000000E+00  0.93248485580E+03  0.93681234059E+03  0.89940842717E+02 0.  0.
         66    2    3    3    0    0 -0.38350816811E+02  0.55218962391E+01  0.70377535264E+03  0.70484397100E+03  0.19999982582E+01 0.  0.
        -13    1    3    3    0    0  0.38350816811E+02 -0.55218962391E+01  0.22870950316E+03  0.23196836959E+03  0.10566000000E+00 0.  1.
         13    1    4    4    0    0 -0.18932508559E+02  0.28842868640E+01  0.33854701836E+03  0.33908826844E+03  0.10566000000E+00 0. -1.
        -13    1    4    4    0    0 -0.15922137809E+02  0.17102550938E+01  0.30035910726E+03  0.30078571097E+03  0.10566000000E+00 0. -1.
         14    1    4    4    0    0 -0.34961704434E+01  0.92735428123E+00  0.64869227016E+02  0.64969991591E+02  0.00000000000E+00 0. -1.
<mgrwt>
<rscale>  0 0.89940843E+02</rscale>
<asrwt>0</asrwt>
<pdfrwt beam="1">  1        2 0.14379241E+00 0.89940843E+02</pdfrwt>
<pdfrwt beam="2">  1       -1 0.33288272E-03 0.89940843E+02</pdfrwt>
<totfact> 0.25832901E+05</totfact>
</mgrwt>
</event>
<event>
 8    1  0.1520917E-013  0.8111756E+02  0.7818608E-02  0.1325910E+00
          2   -1    0    0  501    0  0.00000000000E+00  0.00000000000E+00  0.52555421643E+03  0.52555421644E+03  0.25500000000E-02 0. -1.
         -1   -1    0    0    0  501 -0.00000000000E+00 -0.00000000000E+00 -0.31300550800E+01  0.31300591376E+01  0.50400000000E-02 0.  1.
         24    2    1    2    0    0  0.35527136788E-14  0.00000000000E+00  0.52242416135E+03  0.52868427558E+03  0.81117562074E+02 0.  0.
         66    2    3    3    0    0  0.22447238952E+02 -0.56646184243E+01  0.47822261552E+03  0.47878683820E+03  0.20000008091E+01 0.  0.
        -13    1    3    3    0    0 -0.22447238952E+02  0.56646184243E+01  0.44201545838E+02  0.49897437379E+02  0.10566000000E+00 0.  1.
         13    1    4    4    0    0  0.91905278863E+01 -0.25216845749E+01  0.18663256348E+03  0.18687575983E+03  0.10566000000E+00 0.  1.
        -13    1    4    4    0    0  0.11239781537E+02 -0.22634412282E+01  0.25018646581E+03  0.25044906607E+03  0.10566000000E+00 0. -1.
        -14    1    4    4    0    0  0.20169295286E+01 -0.87949262118E+00  0.41403586228E+02  0.41462012307E+02  0.00000000000E+00 0.  1.
<mgrwt>
<rscale>  0 0.81117562E+02</rscale>
<asrwt>0</asrwt>
<pdfrwt beam="1">  1        2 0.80854526E-01 0.81117562E+02</pdfrwt>
<pdfrwt beam="2">  1       -1 0.48154706E-03 0.81117562E+02</pdfrwt>
<totfact> 0.29832969E+05</totfact>
</mgrwt>
</event>
<event>
 8    1  0.1520917E-013  0.7902245E+02  0.7818608E-02  0.1331849E+00
          2   -1    0    0  501    0  0.00000000000E+00  0.00000000000E+00  0.31643169462E+02  0.31643169565E+02  0.25500000000E-02 0. -1.
         -1   -1    0    0    0  501 -0.00000000000E+00 -0.00000000000E+00 -0.49335661560E+02  0.49335661818E+02  0.50400000000E-02 0.  1.
         24    2    1    2    0    0  0.00000000000E+00  0.00000000000E+00 -0.17692492098E+02  0.80978831383E+02  0.79022445264E+02 0.  0.
         66    2    3    3    0    0 -0.29775167139E+01  0.10811681956E+02  0.29945336409E+02  0.32038746162E+02  0.20000026230E+01 0.  0.
        -13    1    3    3    0    0  0.29775167139E+01 -0.10811681956E+02 -0.47637828507E+02  0.48940085221E+02  0.10566000000E+00 0.  1.
         13    1    4    4    0    0 -0.18821514915E+01  0.49660514171E+01  0.14987960678E+02  0.15901392713E+02  0.10566000000E+00 0. -1.
        -13    1    4    4    0    0  0.85909275613E-01  0.77918818537E+00  0.28913449031E+01  0.29975913691E+01  0.10566000000E+00 0.  1.
         14    1    4    4    0    0 -0.11812744980E+01  0.50664423532E+01  0.12066030828E+02  0.13139762080E+02  0.00000000000E+00 0. -1.
<mgrwt>
<rscale>  0 0.79022445E+02</rscale>
<asrwt>0</asrwt>
<pdfrwt beam="1">  1        2 0.48681799E-02 0.79022445E+02</pdfrwt>
<pdfrwt beam="2">  1       -1 0.75901019E-02 0.79022445E+02</pdfrwt>
<totfact> 0.14072824E+05</totfact>
</mgrwt>
</event>
<event>
 8    1  0.1520917E-013  0.7180777E+02  0.7818608E-02  0.1354051E+00
         -1   -1    0    0    0  501 -0.00000000000E+00  0.00000000000E+00  0.16963371852E+01  0.16963446724E+01  0.50400000000E-02 0.  1.
          2   -1    0    0  501    0  0.00000000000E+00 -0.00000000000E+00 -0.75992326828E+03  0.75992326829E+03  0.25500000000E-02 0. -1.
         24    2    1    2    0    0  0.17763568394E-14 -0.35527136788E-14 -0.75822693110E+03  0.76161961296E+03  0.71807769795E+02 0.  0.
         66    2    3    3    0    0  0.13254937103E+02 -0.25283738795E+02 -0.60986613173E+03  0.61053718923E+03  0.20000010706E+01 0.  0.
        -13    1    3    3    0    0 -0.13254937103E+02  0.25283738795E+02 -0.14836079937E+03  0.15108242373E+03  0.10566000000E+00 0.  1.
         13    1    4    4    0    0  0.69799730543E+01 -0.12408735633E+02 -0.29996955793E+03  0.30030724865E+03  0.10566000000E+00 0. -1.
        -13    1    4    4    0    0  0.20295928565E+00 -0.16559612625E+00 -0.79440821928E+01  0.79491018657E+01  0.10566000000E+00 0. -1.
        -14    1    4    4    0    0  0.60720047633E+01 -0.12709407036E+02 -0.30195249161E+03  0.30228083872E+03  0.00000000000E+00 0.  1.
<mgrwt>
<rscale>  0 0.71807770E+02</rscale>
<asrwt>0</asrwt>
<pdfrwt beam="1">  1        2 0.11691100E+00 0.71807770E+02</pdfrwt>
<pdfrwt beam="2">  1       -1 0.26097614E-03 0.71807770E+02</pdfrwt>
<totfact> 0.45002381E+05</totfact>
</mgrwt>
</event>
<event>
 8    1  0.1520917E-013  0.8128971E+02  0.7818608E-02  0.1325431E+00
          2   -1    0    0  501    0  0.00000000000E+00  0.00000000000E+00  0.62710798070E+03  0.62710798071E+03  0.25500000000E-02 0. -1.
         -1   -1    0    0    0  501 -0.00000000000E+00 -0.00000000000E+00 -0.26343191220E+01  0.26343239433E+01  0.50400000000E-02 0.  1.
         24    2    1    2    0    0 -0.88817841970E-15  0.00000000000E+00  0.62447366158E+03  0.62974230465E+03  0.81289705740E+02 0.  0.
         66    2    3    3    0    0  0.70171820522E+01 -0.80961656089E+01  0.61596204546E+03  0.61605846328E+03  0.19999990312E+01 0.  0.
        -13    1    3    3    0    0 -0.70171820522E+01  0.80961656089E+01  0.85116161211E+01  0.13683841367E+02  0.10566000000E+00 0.  1.
         13    1    4    4    0    0  0.18489262603E+01 -0.17737466048E+01  0.18327879507E+03  0.18329673372E+03  0.10566000000E+00 0. -1.
        -13    1    4    4    0    0  0.20043608874E+01 -0.16514332285E+01  0.13435693924E+03  0.13438207835E+03  0.10566000000E+00 0.  1.
        -14    1    4    4    0    0  0.31638949044E+01 -0.46709857756E+01  0.29832631114E+03  0.29837965121E+03  0.00000000000E+00 0.  1.
<mgrwt>
<rscale>  0 0.81289706E+02</rscale>
<asrwt>0</asrwt>
<pdfrwt beam="1">  1        2 0.96478080E-01 0.81289706E+02</pdfrwt>
<pdfrwt beam="2">  1       -1 0.40528054E-03 0.81289706E+02</pdfrwt>
<totfact> 0.31224946E+05</totfact>
</mgrwt>
</event>
<event>
 8    1  0.1520917E-013  0.7989963E+02  0.7818608E-02  0.1329337E+00
          2   -1    0    0  501    0  0.00000000000E+00  0.00000000000E+00  0.16249903542E+03  0.16249903544E+03  0.25500000000E-02 0. -1.
         -1   -1    0    0    0  501 -0.00000000000E+00 -0.00000000000E+00 -0.98215207225E+01  0.98215220156E+01  0.50400000000E-02 0.  1.
         24    2    1    2    0    0  0.00000000000E+00  0.00000000000E+00  0.15267751470E+03  0.17232055746E+03  0.79899630961E+02 0.  0.
         66    2    3    3    0    0 -0.12703124255E+02 -0.22157551551E+02  0.14256824945E+03  0.14485175944E+03  0.20000013834E+01 0.  0.
        -13    1    3    3    0    0  0.12703124255E+02  0.22157551551E+02  0.10109265251E+02  0.27468798017E+02  0.10566000000E+00 0.  1.
         13    1    4    4    0    0 -0.61480635278E+01 -0.10012029636E+02  0.63014725519E+02  0.64100750533E+02  0.10566000000E+00 0. -1.
        -13    1    4    4    0    0 -0.40470213252E+01 -0.86224316258E+01  0.55695740759E+02  0.56504437095E+02  0.10566000000E+00 0.  1.
        -14    1    4    4    0    0 -0.25080394020E+01 -0.35230902888E+01  0.23857783169E+02  0.24246571811E+02  0.00000000000E+00 0.  1.
<mgrwt>
<rscale>  0 0.79899631E+02</rscale>
<asrwt>0</asrwt>
<pdfrwt beam="1">  1        2 0.24999854E-01 0.79899631E+02</pdfrwt>
<pdfrwt beam="2">  1       -1 0.15110032E-02 0.79899631E+02</pdfrwt>
<totfact> 0.20627883E+05</totfact>
</mgrwt>
</event>
<event>
 8    1  0.1520917E-013  0.7885682E+02  0.7818608E-02  0.1332327E+00
         -1   -1    0    0    0  501 -0.00000000000E+00  0.00000000000E+00  0.29784158941E+01  0.29784201584E+01  0.50400000000E-02 0.  1.
          2   -1    0    0  501    0  0.00000000000E+00 -0.00000000000E+00 -0.52195475967E+03  0.52195475967E+03  0.25500000000E-02 0. -1.
         24    2    1    2    0    0  0.00000000000E+00  0.11102230246E-15 -0.51897634377E+03  0.52493317983E+03  0.78856818934E+02 0.  0.
         66    2    3    3    0    0 -0.23218866607E+02 -0.65874147286E+00 -0.47152932297E+03  0.47210534007E+03  0.19999986777E+01 0.  0.
        -13    1    3    3    0    0  0.23218866607E+02  0.65874147286E+00 -0.47447020802E+02  0.52827839761E+02  0.10566000000E+00 0.  1.
         13    1    4    4    0    0 -0.10620316588E+02 -0.83288869836E+00 -0.20838740160E+03  0.20865954360E+03  0.10566000000E+00 0. -1.
        -13    1    4    4    0    0 -0.36204189020E+01  0.25416982030E+00 -0.85663477679E+02  0.85740390758E+02  0.10566000000E+00 0.  1.
        -14    1    4    4    0    0 -0.89781311164E+01 -0.80022594809E-01 -0.17747844369E+03  0.17770540571E+03  0.00000000000E+00 0.  1.
<mgrwt>
<rscale>  0 0.78856819E+02</rscale>
<asrwt>0</asrwt>
<pdfrwt beam="1">  1        2 0.80300660E-01 0.78856819E+02</pdfrwt>
<pdfrwt beam="2">  1       -1 0.45821857E-03 0.78856819E+02</pdfrwt>
<totfact> 0.32044279E+05</totfact>
</mgrwt>
</event>
<event>
 8    1  0.1520917E-013  0.7843967E+02  0.7818608E-02  0.1333539E+00
          2   -1    0    0  501    0  0.00000000000E+00  0.00000000000E+00  0.12004270755E+03  0.12004270757E+03  0.25500000000E-02 0. -1.
         -1   -1    0    0    0  501 -0.00000000000E+00 -0.00000000000E+00 -0.12813734092E+02  0.12813735083E+02  0.50400000000E-02 0.  1.
         24    2    1    2    0    0  0.17763568394E-14  0.00000000000E+00  0.10722897345E+03  0.13285644266E+03  0.78439668582E+02 0.  0.
         66    2    3    3    0    0  0.13686656678E+02  0.30865309632E+02  0.87362704141E+02  0.93681556184E+02  0.19999961231E+01 0.  0.
        -13    1    3    3    0    0 -0.13686656678E+02 -0.30865309632E+02  0.19866269312E+02  0.39174886472E+02  0.10566000000E+00 0.  1.
         13    1    4    4    0    0  0.15420184939E+01  0.34658032999E+01  0.99995018151E+01  0.10695364142E+02  0.10566000000E+00 0. -1.
        -13    1    4    4    0    0  0.23474930611E+01  0.48671479621E+01  0.15924085882E+02  0.16816287586E+02  0.10566000000E+00 0.  1.
        -14    1    4    4    0    0  0.97971451225E+01  0.22532358370E+02  0.61439116444E+02  0.66169904455E+02  0.00000000000E+00 0.  1.
<mgrwt>
<rscale>  0 0.78439669E+02</rscale>
<asrwt>0</asrwt>
<pdfrwt beam="1">  1        2 0.18468108E-01 0.78439669E+02</pdfrwt>
<pdfrwt beam="2">  1       -1 0.19713439E-02 0.78439669E+02</pdfrwt>
<totfact> 0.19695235E+05</totfact>
</mgrwt>
</event>
<event>
 8    1  0.1520917E-013  0.8092738E+02  0.7818608E-02  0.1326440E+00
         -1   -1    0    0    0  501 -0.00000000000E+00  0.00000000000E+00  0.14622559548E+02  0.14622560416E+02  0.50400000000E-02 0.  1.
          2   -1    0    0  501    0  0.00000000000E+00 -0.00000000000E+00 -0.11197152652E+03  0.11197152654E+03  0.25500000000E-02 0. -1.
         24    2    1    2    0    0 -0.35527136788E-14  0.00000000000E+00 -0.97348966968E+02  0.12659408696E+03  0.80927384016E+02 0.  0.
         66    2    3    3    0    0 -0.21782472356E+02  0.18887969514E+02 -0.93061510366E+02  0.97445760380E+02  0.20000025257E+01 0.  0.
        -13    1    3    3    0    0  0.21782472356E+02 -0.18887969514E+02 -0.42874566022E+01  0.29148326581E+02  0.10566000000E+00 0.  1.
         13    1    4    4    0    0 -0.15803397752E+02  0.12841778158E+02 -0.65472964904E+02  0.68566602250E+02  0.10566000000E+00 0. -1.
        -13    1    4    4    0    0 -0.54870379626E+00  0.31453323324E+00 -0.20839841394E+01  0.21804038478E+01  0.10566000000E+00 0. -1.
         14    1    4    4    0    0 -0.54303708076E+01  0.57316581234E+01 -0.25504561322E+02  0.26698754282E+02  0.00000000000E+00 0. -1.
<mgrwt>
<rscale>  0 0.80927384E+02</rscale>
<asrwt>0</asrwt>
<pdfrwt beam="1">  1        2 0.17226388E-01 0.80927384E+02</pdfrwt>
<pdfrwt beam="2">  1       -1 0.22496247E-02 0.80927384E+02</pdfrwt>
<totfact> 0.17752680E+05</totfact>
</mgrwt>
</event>
<event>
 8    1  0.1520917E-013  0.8035511E+02  0.7818608E-02  0.1328047E+00
          2   -1    0    0  501    0  0.00000000000E+00  0.00000000000E+00  0.55462793978E+02  0.55462794036E+02  0.25500000000E-02 0. -1.
         -1   -1    0    0    0  501 -0.00000000000E+00 -0.00000000000E+00 -0.29104840763E+02  0.29104841199E+02  0.50400000000E-02 0.  1.
         24    2    1    2    0    0 -0.44408920985E-15  0.00000000000E+00  0.26357953215E+02  0.84567635236E+02  0.80355107067E+02 0.  0.
         66    2    3    3    0    0  0.35666672665E+01 -0.39978174361E+02  0.12007977154E+02  0.41942425352E+02  0.19999971067E+01 0.  0.
        -13    1    3    3    0    0 -0.35666672665E+01  0.39978174361E+02  0.14349976061E+02  0.42625209884E+02  0.10566000000E+00 0.  1.
         13    1    4    4    0    0  0.21576560650E+01 -0.14615218458E+02  0.39646305715E+01  0.15296716964E+02  0.10566000000E+00 0. -1.
        -13    1    4    4    0    0  0.98317098279E+00 -0.16656227472E+02  0.53037793450E+01  0.17508220302E+02  0.10566000000E+00 0.  1.
         14    1    4    4    0    0  0.42584021880E+00 -0.87067284317E+01  0.27395672377E+01  0.91374880862E+01  0.00000000000E+00 0. -1.
<mgrwt>
<rscale>  0 0.80355107E+02</rscale>
<asrwt>0</asrwt>
<pdfrwt beam="1">  1        2 0.85327374E-02 0.80355107E+02</pdfrwt>
<pdfrwt beam="2">  1       -1 0.44776679E-02 0.80355107E+02</pdfrwt>
<totfact> 0.15105991E+05</totfact>
</mgrwt>
</event>
<event>
 8    1  0.1520917E-013  0.8139173E+02  0.7818608E-02  0.1325148E+00
         -1   -1    0    0    0  501 -0.00000000000E+00  0.00000000000E+00  0.51278652295E+03  0.51278652297E+03  0.50400000000E-02 0.  1.
          2   -1    0    0  501    0  0.00000000000E+00 -0.00000000000E+00 -0.32297125055E+01  0.32297135122E+01  0.25500000000E-02 0. -1.
         24    2    1    2    0    0  0.00000000000E+00  0.00000000000E+00  0.50955681044E+03  0.51601623648E+03  0.81391727145E+02 0.  0.
         66    2    3    3    0    0 -0.24790799215E+02 -0.28185954678E+02  0.35419070747E+03  0.35617985488E+03  0.19999998129E+01 0.  0.
        -13    1    3    3    0    0  0.24790799215E+02  0.28185954678E+02  0.15536610297E+03  0.15983638160E+03  0.10566000000E+00 0.  1.
         13    1    4    4    0    0 -0.17756057468E+02 -0.19888760831E+02  0.25659868603E+03  0.25798011012E+03  0.10566000000E+00 0. -1.
        -13    1    4    4    0    0 -0.58352158691E+01 -0.63808498449E+01  0.77385390850E+02  0.77867033268E+02  0.10566000000E+00 0.  1.
         14    1    4    4    0    0 -0.11995258784E+01 -0.19163440015E+01  0.20206630592E+02  0.20332711490E+02  0.00000000000E+00 0. -1.
<mgrwt>
<rscale>  0 0.81391727E+02</rscale>
<asrwt>0</asrwt>
<pdfrwt beam="1">  1        2 0.49687925E-03 0.81391727E+02</pdfrwt>
<pdfrwt beam="2">  1       -1 0.78890183E-01 0.81391727E+02</pdfrwt>
<totfact> 0.62872474E+04</totfact>
</mgrwt>
</event>
<event>
 8    1  0.1520917E-013  0.8171281E+02  0.7818608E-02  0.1324260E+00
         -1   -1    0    0    0  501 -0.00000000000E+00  0.00000000000E+00  0.30888863365E+01  0.30888904483E+01  0.50400000000E-02 0.  1.
          2   -1    0    0  501    0  0.00000000000E+00 -0.00000000000E+00 -0.54040338461E+03  0.54040338462E+03  0.25500000000E-02 0. -1.
         24    2    1    2    0    0  0.00000000000E+00  0.00000000000E+00 -0.53731449828E+03  0.54349227507E+03  0.81712808052E+02 0.  0.
         66    2    3    3    0    0  0.27714389117E+02  0.20001710549E+02 -0.41740805528E+03  0.41880979023E+03  0.19999977628E+01 0.  0.
        -13    1    3    3    0    0 -0.27714389117E+02 -0.20001710549E+02 -0.11990644300E+03  0.12468248484E+03  0.10566000000E+00 0.  1.
         13    1    4    4    0    0  0.94449595183E+00  0.87506688473E+00 -0.18845941377E+02  0.18890169006E+02  0.10566000000E+00 0.  1.
        -13    1    4    4    0    0  0.16313923201E+02  0.12356832158E+02 -0.24600569697E+03  0.24685552352E+03  0.10566000000E+00 0. -1.
        -14    1    4    4    0    0  0.10455969964E+02  0.67698115065E+01 -0.15255641694E+03  0.15306409770E+03  0.00000000000E+00 0.  1.
<mgrwt>
<rscale>  0 0.81712808E+02</rscale>
<asrwt>0</asrwt>
<pdfrwt beam="1">  1        2 0.83138907E-01 0.81712808E+02</pdfrwt>
<pdfrwt beam="2">  1       -1 0.47521403E-03 0.81712808E+02</pdfrwt>
<totfact> 0.29520360E+05</totfact>
</mgrwt>
</event>
<event>
 8    1  0.1520917E-013  0.8271274E+02  0.7818608E-02  0.1321525E+00
          2   -1    0    0  501    0  0.00000000000E+00  0.00000000000E+00  0.71422300300E+03  0.71422300301E+03  0.25500000000E-02 0. -1.
         -1   -1    0    0    0  501 -0.00000000000E+00 -0.00000000000E+00 -0.23946968253E+01  0.23947021290E+01  0.50400000000E-02 0.  1.
         24    2    1    2    0    0  0.17763568394E-14 -0.35527136788E-14  0.71182830618E+03  0.71661770514E+03  0.82712742908E+02 0.  0.
         66    2    3    3    0    0  0.10415511099E+02 -0.30343628244E+02  0.58190414195E+03  0.58279125685E+03  0.19999992399E+01 0.  0.
        -13    1    3    3    0    0 -0.10415511099E+02  0.30343628244E+02  0.12992416423E+03  0.13382644829E+03  0.10566000000E+00 0.  1.
         13    1    4    4    0    0  0.75092776985E+01 -0.20630085944E+02  0.40212664368E+03  0.40272551250E+03  0.10566000000E+00 0. -1.
        -13    1    4    4    0    0  0.14542075521E+00 -0.12141529722E+01  0.25719630571E+02  0.25748900470E+02  0.10566000000E+00 0.  1.
        -14    1    4    4    0    0  0.27608126454E+01 -0.84993893276E+01  0.15405786770E+03  0.15431684388E+03  0.00000000000E+00 0.  1.
<mgrwt>
<rscale>  0 0.82712743E+02</rscale>
<asrwt>0</asrwt>
<pdfrwt beam="1">  1        2 0.10988043E+00 0.82712743E+02</pdfrwt>
<pdfrwt beam="2">  1       -1 0.36841542E-03 0.82712743E+02</pdfrwt>
<totfact> 0.30809089E+05</totfact>
</mgrwt>
</event>
<event>
 8    1  0.1520917E-013  0.7905201E+02  0.7818608E-02  0.1331763E+00
         -1   -1    0    0    0  501 -0.00000000000E+00  0.00000000000E+00  0.19604120544E+02  0.19604121192E+02  0.50400000000E-02 0.  1.
          2   -1    0    0  501    0  0.00000000000E+00 -0.00000000000E+00 -0.79692694634E+02  0.79692694675E+02  0.25500000000E-02 0. -1.
         24    2    1    2    0    0  0.00000000000E+00  0.00000000000E+00 -0.60088574090E+02  0.99296815867E+02  0.79052013922E+02 0.  0.
         66    2    3    3    0    0  0.79967103012E+01  0.35247252242E+02 -0.50081693503E+02  0.61793949451E+02  0.19999996017E+01 0.  0.
        -13    1    3    3    0    0 -0.79967103012E+01 -0.35247252242E+02 -0.10006880587E+02  0.37502866415E+02  0.10566000000E+00 0.  1.
         13    1    4    4    0    0  0.19240809873E+01  0.82324933922E+01 -0.11466750377E+02  0.14246879074E+02  0.10566000000E+00 0. -1.
        -13    1    4    4    0    0  0.27720832512E+01  0.12590175642E+02 -0.19439702442E+02  0.23326169067E+02  0.10566000000E+00 0.  1.
        -14    1    4    4    0    0  0.33005460627E+01  0.14424583208E+02 -0.19175240684E+02  0.24220901311E+02  0.00000000000E+00 0.  1.
<mgrwt>
<rscale>  0 0.79052014E+02</rscale>
<asrwt>0</asrwt>
<pdfrwt beam="1">  1        2 0.12260414E-01 0.79052014E+02</pdfrwt>
<pdfrwt beam="2">  1       -1 0.30160187E-02 0.79052014E+02</pdfrwt>
<totfact> 0.17223530E+05</totfact>
</mgrwt>
</event>
<event>
 8    1  0.1520917E-013  0.8521243E+02  0.7818608E-02  0.1314878E+00
          2   -1    0    0  501    0  0.00000000000E+00  0.00000000000E+00  0.38770731511E+02  0.38770731595E+02  0.25500000000E-02 0. -1.
         -1   -1    0    0    0  501 -0.00000000000E+00 -0.00000000000E+00 -0.46821130623E+02  0.46821130895E+02  0.50400000000E-02 0.  1.
         24    2    1    2    0    0  0.00000000000E+00  0.00000000000E+00 -0.80503991125E+01  0.85591862490E+02  0.85212428662E+02 0.  0.
         66    2    3    3    0    0  0.42293931576E+02 -0.43530923357E+01 -0.16592862314E+01  0.42596705217E+02  0.20000008782E+01 0.  0.
        -13    1    3    3    0    0 -0.42293931576E+02  0.43530923357E+01 -0.63911128811E+01  0.42995157273E+02  0.10566000000E+00 0.  1.
         13    1    4    4    0    0  0.26558255332E+02 -0.27156140729E+01 -0.56265864208E+00  0.26702869413E+02  0.10566000000E+00 0. -1.
        -13    1    4    4    0    0  0.16369918156E+01 -0.34979320811E+00  0.13676002817E+00  0.16828442690E+01  0.10566000000E+00 0.  1.
         14    1    4    4    0    0  0.14098684428E+02 -0.12876850547E+01 -0.12333876175E+01  0.14210991535E+02  0.00000000000E+00 0. -1.
<mgrwt>
<rscale>  0 0.85212429E+02</rscale>
<asrwt>0</asrwt>
<pdfrwt beam="1">  1        2 0.59647280E-02 0.85212429E+02</pdfrwt>
<pdfrwt beam="2">  1       -1 0.72032509E-02 0.85212429E+02</pdfrwt>
<totfact> 0.11883001E+05</totfact>
</mgrwt>
</event>
<event>
 8    1  0.1520917E-013  0.7890444E+02  0.7818608E-02  0.1332190E+00
         -1   -1    0    0    0  501 -0.00000000000E+00  0.00000000000E+00  0.59091801868E+02  0.59091802083E+02  0.50400000000E-02 0.  1.
          2   -1    0    0  501    0  0.00000000000E+00 -0.00000000000E+00 -0.26339995061E+02  0.26339995184E+02  0.25500000000E-02 0. -1.
         24    2    1    2    0    0  0.00000000000E+00  0.00000000000E+00  0.32751806807E+02  0.85431797267E+02  0.78904443063E+02 0.  0.
         66    2    3    3    0    0 -0.76813583939E+01  0.14768816986E+02 -0.22310250028E+02  0.27908215242E+02  0.19999999356E+01 0.  0.
        -13    1    3    3    0    0  0.76813583939E+01 -0.14768816986E+02  0.55062056835E+02  0.57523582024E+02  0.10566000000E+00 0.  1.
         13    1    4    4    0    0 -0.36609117159E+01  0.62050135153E+01 -0.94801922336E+01  0.11907547024E+02  0.10566000000E+00 0. -1.
        -13    1    4    4    0    0 -0.33260930850E+00  0.19369853688E+01 -0.23715835496E+01  0.30819010106E+01  0.10566000000E+00 0.  1.
        -14    1    4    4    0    0 -0.36878373695E+01  0.66268181021E+01 -0.10458474245E+02  0.12918767207E+02  0.00000000000E+00 0.  1.
<mgrwt>
<rscale>  0 0.78904443E+02</rscale>
<asrwt>0</asrwt>
<pdfrwt beam="1">  1        2 0.40523069E-02 0.78904443E+02</pdfrwt>
<pdfrwt beam="2">  1       -1 0.90910465E-02 0.78904443E+02</pdfrwt>
<totfact> 0.13634652E+05</totfact>
</mgrwt>
</event>
<event>
 8    1  0.1520917E-013  0.7913699E+02  0.7818608E-02  0.1331519E+00
          2   -1    0    0  501    0  0.00000000000E+00  0.00000000000E+00  0.29452497740E+03  0.29452497741E+03  0.25500000000E-02 0. -1.
         -1   -1    0    0    0  501 -0.00000000000E+00 -0.00000000000E+00 -0.53159006786E+01  0.53159030678E+01  0.50400000000E-02 0.  1.
         24    2    1    2    0    0  0.00000000000E+00 -0.44408920985E-15  0.28920907672E+03  0.29984088048E+03  0.79136992287E+02 0.  0.
         66    2    3    3    0    0 -0.36584903195E+02 -0.31209926851E+01  0.20031265633E+03  0.20365990284E+03  0.20000003750E+01 0.  0.
        -13    1    3    3    0    0  0.36584903195E+02  0.31209926851E+01  0.88896420386E+02  0.96180977634E+02  0.10566000000E+00 0.  1.
         13    1    4    4    0    0 -0.59353540361E+01 -0.60156835279E+00  0.30802075312E+02  0.31374660470E+02  0.10566000000E+00 0. -1.
        -13    1    4    4    0    0 -0.54310986977E+00  0.13088885404E+00  0.35332057219E+01  0.35786599352E+01  0.10566000000E+00 0.  1.
        -14    1    4    4    0    0 -0.30106439289E+02 -0.26503131864E+01  0.16597737530E+03  0.16870658244E+03  0.00000000000E+00 0.  1.
<mgrwt>
<rscale>  0 0.79136992E+02</rscale>
<asrwt>0</asrwt>
<pdfrwt beam="1">  1        2 0.45311529E-01 0.79136992E+02</pdfrwt>
<pdfrwt beam="2">  1       -1 0.81783116E-03 0.79136992E+02</pdfrwt>
<totfact> 0.26055279E+05</totfact>
</mgrwt>
</event>
<event>
 8    1  0.1520917E-013  0.7919948E+02  0.7818608E-02  0.1331339E+00
         -1   -1    0    0    0  501 -0.00000000000E+00  0.00000000000E+00  0.39598383768E+02  0.39598384089E+02  0.50400000000E-02 0.  1.
          2   -1    0    0  501    0  0.00000000000E+00 -0.00000000000E+00 -0.39601095944E+02  0.39601096027E+02  0.25500000000E-02 0. -1.
         24    2    1    2    0    0  0.00000000000E+00 -0.22204460493E-15 -0.27121763012E-02  0.79199480115E+02  0.79199480069E+02 0.  0.
         66    2    3    3    0    0 -0.31648524006E+02 -0.17658426862E+01 -0.23694967693E+02  0.39625733671E+02  0.20000007160E+01 0.  0.
        -13    1    3    3    0    0  0.31648524006E+02  0.17658426862E+01  0.23692255517E+02  0.39573746444E+02  0.10566000000E+00 0.  1.
         13    1    4    4    0    0 -0.21470393791E+02 -0.59120283229E+00 -0.15511551195E+02  0.26494277020E+02  0.10566000000E+00 0. -1.
        -13    1    4    4    0    0 -0.15187466733E+01 -0.21477496351E+00 -0.94704004886E+00  0.18057598490E+01  0.10566000000E+00 0.  1.
         14    1    4    4    0    0 -0.86593835415E+01 -0.95986489043E+00 -0.72363764498E+01  0.11325696802E+02  0.00000000000E+00 0. -1.
<mgrwt>
<rscale>  0 0.79199480E+02</rscale>
<asrwt>0</asrwt>
<pdfrwt beam="1">  1        2 0.60924763E-02 0.79199480E+02</pdfrwt>
<pdfrwt beam="2">  1       -1 0.60920591E-02 0.79199480E+02</pdfrwt>
<totfact> 0.14626868E+05</totfact>
</mgrwt>
</event>
<event>
 8    1  0.1520917E-013  0.7729894E+02  0.7818608E-02  0.1336896E+00
          2   -1    0    0  501    0  0.00000000000E+00  0.00000000000E+00  0.19800434634E+02  0.19800434798E+02  0.25500000000E-02 0. -1.
         -1   -1    0    0    0  501 -0.00000000000E+00 -0.00000000000E+00 -0.75441862810E+02  0.75441862979E+02  0.50400000000E-02 0.  1.
         24    2    1    2    0    0  0.00000000000E+00  0.00000000000E+00 -0.55641428176E+02  0.95242297777E+02  0.77298944083E+02 0.  0.
         66    2    3    3    0    0  0.36357392462E+02 -0.77292762088E+01 -0.14906323135E+02  0.40097382834E+02  0.19999858439E+01 0.  0.
        -13    1    3    3    0    0 -0.36357392462E+02  0.77292762088E+01 -0.40735105041E+02  0.55144914943E+02  0.10566000000E+00 0.  1.
         13    1    4    4    0    0  0.48642836201E+01 -0.10196611702E+01 -0.24289350242E+01  0.55327979745E+01  0.10566000000E+00 0. -1.
        -13    1    4    4    0    0  0.24233029399E+02 -0.57160326792E+01 -0.99591320921E+01  0.26816193233E+02  0.10566000000E+00 0.  1.
        -14    1    4    4    0    0  0.72600794425E+01 -0.99358235942E+00 -0.25182560184E+01  0.77483916261E+01  0.00000000000E+00 0.  1.
<mgrwt>
<rscale>  0 0.77298944E+02</rscale>
<asrwt>0</asrwt>
<pdfrwt beam="1">  1        2 0.30462208E-02 0.77298944E+02</pdfrwt>
<pdfrwt beam="2">  1       -1 0.11606440E-01 0.77298944E+02</pdfrwt>
<totfact> 0.13671424E+05</totfact>
</mgrwt>
</event>
<event>
 8    1  0.1520917E-013  0.7921652E+02  0.7818608E-02  0.1331290E+00
          2   -1    0    0  501    0  0.00000000000E+00  0.00000000000E+00  0.29758431432E+03  0.29758431433E+03  0.25500000000E-02 0. -1.
         -1   -1    0    0    0  501 -0.00000000000E+00 -0.00000000000E+00 -0.52718305800E+01  0.52718329892E+01  0.50400000000E-02 0.  1.
         24    2    1    2    0    0  0.00000000000E+00 -0.17763568394E-14  0.29231248374E+03  0.30285614732E+03  0.79216524913E+02 0.  0.
         66    2    3    3    0    0  0.32806513997E+02 -0.10856245600E+02  0.22005503646E+03  0.22276073372E+03  0.19999960859E+01 0.  0.
        -13    1    3    3    0    0 -0.32806513997E+02  0.10856245600E+02  0.72257447276E+02  0.80095413601E+02  0.10566000000E+00 0.  1.
         13    1    4    4    0    0  0.88304927460E+01 -0.24178495952E+01  0.58866336205E+02  0.59574157997E+02  0.10566000000E+00 0. -1.
        -13    1    4    4    0    0  0.21488375834E+02 -0.74716142682E+01  0.14135150103E+03  0.14317064407E+03  0.10566000000E+00 0.  1.
         14    1    4    4    0    0  0.24876454166E+01 -0.96678173687E+00  0.19837199225E+02  0.20015931648E+02  0.00000000000E+00 0. -1.
<mgrwt>
<rscale>  0 0.79216525E+02</rscale>
<asrwt>0</asrwt>
<pdfrwt beam="1">  1        2 0.45782202E-01 0.79216525E+02</pdfrwt>
<pdfrwt beam="2">  1       -1 0.81105105E-03 0.79216525E+02</pdfrwt>
<totfact> 0.26084153E+05</totfact>
</mgrwt>
</event>
<event>
 8    1  0.1520917E-013  0.8213225E+02  0.7818608E-02  0.1323107E+00
          2   -1    0    0  501    0  0.00000000000E+00  0.00000000000E+00  0.49646383492E+02  0.49646383557E+02  0.25500000000E-02 0. -1.
         -1   -1    0    0    0  501 -0.00000000000E+00 -0.00000000000E+00 -0.33968769043E+02  0.33968769417E+02  0.50400000000E-02 0.  1.
         24    2    1    2    0    0  0.35527136788E-14 -0.35527136788E-14  0.15677614449E+02  0.83615152974E+02  0.82132248307E+02 0.  0.
         66    2    3    3    0    0 -0.28774890160E+02  0.29165005192E+02  0.53853656295E+01  0.41371415197E+02  0.20000002145E+01 0.  0.
        -13    1    3    3    0    0  0.28774890160E+02 -0.29165005192E+02  0.10292248820E+02  0.42243737777E+02  0.10566000000E+00 0.  1.
         13    1    4    4    0    0 -0.17796713701E+02  0.17392976338E+02  0.25056468895E+01  0.25010559266E+02  0.10566000000E+00 0. -1.
        -13    1    4    4    0    0 -0.62112593097E+01  0.64952069944E+01  0.18400149940E+01  0.91741089663E+01  0.10566000000E+00 0.  1.
        -14    1    4    4    0    0 -0.47669171494E+01  0.52768218598E+01  0.10397037459E+01  0.71867469643E+01  0.00000000000E+00 0.  1.
<mgrwt>
<rscale>  0 0.82132248E+02</rscale>
<asrwt>0</asrwt>
<pdfrwt beam="1">  1        2 0.76379051E-02 0.82132248E+02</pdfrwt>
<pdfrwt beam="2">  1       -1 0.52259645E-02 0.82132248E+02</pdfrwt>
<totfact> 0.13880563E+05</totfact>
</mgrwt>
</event>
<event>
 8    1  0.1520917E-013  0.7974669E+02  0.7818608E-02  0.1329772E+00
         -1   -1    0    0    0  501 -0.00000000000E+00  0.00000000000E+00  0.54306682625E+01  0.54306706012E+01  0.50400000000E-02 0.  1.
          2   -1    0    0  501    0  0.00000000000E+00 -0.00000000000E+00 -0.29276015028E+03  0.29276015030E+03  0.25500000000E-02 0. -1.
         24    2    1    2    0    0  0.00000000000E+00  0.00000000000E+00 -0.28732948202E+03  0.29819082090E+03  0.79746689136E+02 0.  0.
         66    2    3    3    0    0  0.27909278560E+02 -0.14374238387E+02 -0.23552461382E+03  0.23761605641E+03  0.19999976507E+01 0.  0.
        -13    1    3    3    0    0 -0.27909278560E+02  0.14374238387E+02 -0.51804868199E+02  0.60574764482E+02  0.10566000000E+00 0.  1.
         13    1    4    4    0    0  0.16877884402E+02 -0.87238601192E+01 -0.14127626181E+03  0.14254810427E+03  0.10566000000E+00 0. -1.
        -13    1    4    4    0    0  0.25165906180E+01 -0.77166241970E+00 -0.18535302742E+02  0.18721573197E+02  0.10566000000E+00 0.  1.
        -14    1    4    4    0    0  0.85148035394E+01 -0.48787158481E+01 -0.75713049271E+02  0.76346378942E+02  0.00000000000E+00 0.  1.
<mgrwt>
<rscale>  0 0.79746689E+02</rscale>
<asrwt>0</asrwt>
<pdfrwt beam="1">  1        2 0.45040011E-01 0.79746689E+02</pdfrwt>
<pdfrwt beam="2">  1       -1 0.83548783E-03 0.79746689E+02</pdfrwt>
<totfact> 0.25480948E+05</totfact>
</mgrwt>
</event>
<event>
 8    1  0.1520917E-013  0.7893887E+02  0.7818608E-02  0.1332090E+00
          2   -1    0    0  501    0  0.00000000000E+00  0.00000000000E+00  0.13650212936E+03  0.13650212938E+03  0.25500000000E-02 0. -1.
         -1   -1    0    0    0  501 -0.00000000000E+00 -0.00000000000E+00 -0.11412541717E+02  0.11412542830E+02  0.50400000000E-02 0.  1.
         24    2    1    2    0    0  0.00000000000E+00  0.00000000000E+00  0.12508958764E+03  0.14791467221E+03  0.78938870777E+02 0.  0.
         66    2    3    3    0    0  0.77943586068E+01  0.35604435057E+02  0.90841370266E+02  0.97900880323E+02  0.19999985666E+01 0.  0.
        -13    1    3    3    0    0 -0.77943586068E+01 -0.35604435057E+02  0.34248217377E+02  0.50013791891E+02  0.10566000000E+00 0.  1.
         13    1    4    4    0    0  0.84135511667E+00  0.45604688925E+01  0.11933255842E+02  0.12803105638E+02  0.10566000000E+00 0. -1.
        -13    1    4    4    0    0  0.15587997674E+01  0.60956344842E+01  0.17449021290E+02  0.18549019502E+02  0.10566000000E+00 0.  1.
         14    1    4    4    0    0  0.53942037228E+01  0.24948331681E+02  0.61459093134E+02  0.66548755182E+02  0.00000000000E+00 0. -1.
<mgrwt>
<rscale>  0 0.78938871E+02</rscale>
<asrwt>0</asrwt>
<pdfrwt beam="1">  1        2 0.21000327E-01 0.78938871E+02</pdfrwt>
<pdfrwt beam="2">  1       -1 0.17557758E-02 0.78938871E+02</pdfrwt>
<totfact> 0.20140936E+05</totfact>
</mgrwt>
</event>
<event>
 8    1  0.1520917E-013  0.8285681E+02  0.7818608E-02  0.1321134E+00
         -1   -1    0    0    0  501 -0.00000000000E+00  0.00000000000E+00  0.36111566737E+03  0.36111566740E+03  0.50400000000E-02 0.  1.
          2   -1    0    0  501    0  0.00000000000E+00 -0.00000000000E+00 -0.47528052108E+01  0.47528058949E+01  0.25500000000E-02 0. -1.
         24    2    1    2    0    0 -0.35527136788E-14  0.00000000000E+00  0.35636286216E+03  0.36586847330E+03  0.82856805566E+02 0.  0.
         66    2    3    3    0    0  0.22253133305E+02  0.33344780890E+02  0.13255957171E+03  0.13850312780E+03  0.20000009738E+01 0.  0.
        -13    1    3    3    0    0 -0.22253133305E+02 -0.33344780890E+02  0.22380329045E+03  0.22736534550E+03  0.10566000000E+00 0.  1.
         13    1    4    4    0    0  0.26429295846E+00  0.63814274017E+00  0.20412266109E+01  0.21575094524E+01  0.10566000000E+00 0. -1.
        -13    1    4    4    0    0  0.12112157684E+00  0.24820753954E+00  0.88481264153E+00  0.93291739466E+00  0.10566000000E+00 0. -1.
         14    1    4    4    0    0  0.21867718770E+02  0.32458430610E+02  0.12963353246E+03  0.13541270095E+03  0.00000000000E+00 0. -1.
<mgrwt>
<rscale>  0 0.82856806E+02</rscale>
<asrwt>0</asrwt>
<pdfrwt beam="1">  1        2 0.73120073E-03 0.82856806E+02</pdfrwt>
<pdfrwt beam="2">  1       -1 0.55556266E-01 0.82856806E+02</pdfrwt>
<totfact> 0.72830099E+04</totfact>
</mgrwt>
</event>
<event>
 8    1  0.1520917E-013  0.7996107E+02  0.7818608E-02  0.1329162E+00
          2   -1    0    0  501    0  0.00000000000E+00  0.00000000000E+00  0.24502122776E+03  0.24502122778E+03  0.25500000000E-02 0. -1.
         -1   -1    0    0    0  501 -0.00000000000E+00 -0.00000000000E+00 -0.65236921661E+01  0.65236941130E+01  0.50400000000E-02 0.  1.
         24    2    1    2    0    0 -0.17763568394E-14  0.00000000000E+00  0.23849753560E+03  0.25154492189E+03  0.79961073295E+02 0.  0.
         66    2    3    3    0    0 -0.15782251942E+02 -0.36185940958E+02  0.13869923880E+03  0.14422198395E+03  0.20000031625E+01 0.  0.
        -13    1    3    3    0    0  0.15782251942E+02  0.36185940958E+02  0.99798296801E+02  0.10732293794E+03  0.10566000000E+00 0.  1.
         13    1    4    4    0    0 -0.52576969823E+01 -0.13177488843E+02  0.49232459270E+02  0.51236079081E+02  0.10566000000E+00 0. -1.
        -13    1    4    4    0    0 -0.29839431234E+01 -0.76113013775E+01  0.27242049271E+02  0.28442507586E+02  0.10566000000E+00 0.  1.
         14    1    4    4    0    0 -0.75406118367E+01 -0.15397150737E+02  0.62224730255E+02  0.64543397285E+02  0.00000000000E+00 0. -1.
<mgrwt>
<rscale>  0 0.79961073E+02</rscale>
<asrwt>0</asrwt>
<pdfrwt beam="1">  1        2 0.37695571E-01 0.79961073E+02</pdfrwt>
<pdfrwt beam="2">  1       -1 0.10036452E-02 0.79961073E+02</pdfrwt>
<totfact> 0.23727509E+05</totfact>
</mgrwt>
</event>
<event>
 8    1  0.1520917E-013  0.8014377E+02  0.7818608E-02  0.1328644E+00
         -1   -1    0    0    0  501 -0.00000000000E+00  0.00000000000E+00  0.60304530895E+02  0.60304531106E+02  0.50400000000E-02 0.  1.
          2   -1    0    0  501    0  0.00000000000E+00 -0.00000000000E+00 -0.26627449554E+02  0.26627449676E+02  0.25500000000E-02 0. -1.
         24    2    1    2    0    0  0.35527136788E-14  0.35527136788E-14  0.33677081341E+02  0.86931980782E+02  0.80143767537E+02 0.  0.
         66    2    3    3    0    0  0.30909839258E+02  0.23854823562E+02  0.71908908684E+01  0.39751474003E+02  0.20000009480E+01 0.  0.
        -13    1    3    3    0    0 -0.30909839258E+02 -0.23854823562E+02  0.26486190473E+02  0.47180506779E+02  0.10566000000E+00 0.  1.
         13    1    4    4    0    0  0.17103644530E+02  0.13895969027E+02  0.39257411726E+01  0.22384262757E+02  0.10566000000E+00 0. -1.
        -13    1    4    4    0    0  0.11428361442E+02  0.87239138493E+01  0.27807452224E+01  0.14644378653E+02  0.10566000000E+00 0.  1.
        -14    1    4    4    0    0  0.23778332865E+01  0.12349406859E+01  0.48440447344E+00  0.27228325931E+01  0.00000000000E+00 0.  1.
<mgrwt>
<rscale>  0 0.80143768E+02</rscale>
<asrwt>0</asrwt>
<pdfrwt beam="1">  1        2 0.40965307E-02 0.80143768E+02</pdfrwt>
<pdfrwt beam="2">  1       -1 0.92776202E-02 0.80143768E+02</pdfrwt>
<totfact> 0.13076365E+05</totfact>
</mgrwt>
</event>
<event>
 8    1  0.1520917E-013  0.8028813E+02  0.7818608E-02  0.1328236E+00
          2   -1    0    0  501    0  0.00000000000E+00  0.00000000000E+00  0.15833145608E+04  0.15833145608E+04  0.25500000000E-02 0. -1.
         -1   -1    0    0    0  501 -0.00000000000E+00 -0.00000000000E+00 -0.10178244126E+01  0.10178368909E+01  0.50400000000E-02 0.  1.
         24    2    1    2    0    0  0.17763568394E-14  0.00000000000E+00  0.15822967364E+04  0.15843323977E+04  0.80288133600E+02 0.  0.
         66    2    3    3    0    0  0.13539443617E+02 -0.12516728644E+02  0.14947440620E+04  0.14948591225E+04  0.20000007957E+01 0.  0.
        -13    1    3    3    0    0 -0.13539443617E+02  0.12516728644E+02  0.87552674347E+02  0.89473275221E+02  0.10566000000E+00 0.  1.
         13    1    4    4    0    0  0.24181412160E+01 -0.21286792757E+01  0.21527774097E+03  0.21530187087E+03  0.10566000000E+00 0.  1.
        -13    1    4    4    0    0  0.53864837410E+01 -0.43494798858E+01  0.56966013178E+03  0.56970221089E+03  0.10566000000E+00 0. -1.
        -14    1    4    4    0    0  0.57348186604E+01 -0.60385694823E+01  0.70980618927E+03  0.70985504069E+03  0.00000000000E+00 0.  1.
<mgrwt>
<rscale>  0 0.80288134E+02</rscale>
<asrwt>0</asrwt>
<pdfrwt beam="1">  1        2 0.24358591E+00 0.80288134E+02</pdfrwt>
<pdfrwt beam="2">  1       -1 0.15658994E-03 0.80288134E+02</pdfrwt>
<totfact> 0.32208186E+05</totfact>
</mgrwt>
</event>
<event>
 8    1  0.1520917E-013  0.8165798E+02  0.7818608E-02  0.1324411E+00
         -1   -1    0    0    0  501 -0.00000000000E+00  0.00000000000E+00  0.57939415065E+02  0.57939415285E+02  0.50400000000E-02 0.  1.
          2   -1    0    0  501    0  0.00000000000E+00 -0.00000000000E+00 -0.28771543957E+02  0.28771544070E+02  0.25500000000E-02 0. -1.
         24    2    1    2    0    0  0.35527136788E-14 -0.35527136788E-14  0.29167871108E+02  0.86710959355E+02  0.81657980426E+02 0.  0.
         66    2    3    3    0    0  0.20866577323E+02  0.22391517173E+02 -0.14062503776E+02  0.33742378411E+02  0.19999994675E+01 0.  0.
        -13    1    3    3    0    0 -0.20866577323E+02 -0.22391517173E+02  0.43230374884E+02  0.52968580944E+02  0.10566000000E+00 0.  1.
         13    1    4    4    0    0  0.42831139816E+01  0.41225080186E+01 -0.23149557342E+01  0.63804640764E+01  0.10566000000E+00 0. -1.
        -13    1    4    4    0    0  0.23349532047E+01  0.21049664235E+01 -0.11478153502E+01  0.33483629173E+01  0.10566000000E+00 0.  1.
         14    1    4    4    0    0  0.14248510137E+02  0.16164042731E+02 -0.10599732692E+02  0.24013551418E+02  0.00000000000E+00 0. -1.
<mgrwt>
<rscale>  0 0.81657980E+02</rscale>
<asrwt>0</asrwt>
<pdfrwt beam="1">  1        2 0.44263914E-02 0.81657980E+02</pdfrwt>
<pdfrwt beam="2">  1       -1 0.89137562E-02 0.81657980E+02</pdfrwt>
<totfact> 0.12596244E+05</totfact>
</mgrwt>
</event>
<event>
 8    1  0.1520917E-013  0.8083789E+02  0.7818608E-02  0.1326690E+00
          2   -1    0    0  501    0  0.00000000000E+00  0.00000000000E+00  0.22418894072E+03  0.22418894074E+03  0.25500000000E-02 0. -1.
         -1   -1    0    0    0  501 -0.00000000000E+00 -0.00000000000E+00 -0.72871167616E+01  0.72871185045E+01  0.50400000000E-02 0.  1.
         24    2    1    2    0    0  0.71054273576E-14 -0.17763568394E-14  0.21690182396E+03  0.23147605924E+03  0.80837891885E+02 0.  0.
         66    2    3    3    0    0 -0.36278861667E+02 -0.13270770321E+02  0.14232741460E+03  0.14749021017E+03  0.20000001337E+01 0.  0.
        -13    1    3    3    0    0  0.36278861667E+02  0.13270770321E+02  0.74574409366E+02  0.83985849077E+02  0.10566000000E+00 0.  1.
         13    1    4    4    0    0 -0.99740432233E+00 -0.21465478232E+00  0.36352076432E+01  0.37771405458E+01  0.10566000000E+00 0.  1.
        -13    1    4    4    0    0 -0.10466999508E+01 -0.40863976398E+00  0.32746645860E+01  0.34636915899E+01  0.10566000000E+00 0. -1.
        -14    1    4    4    0    0 -0.34234757394E+02 -0.12647475775E+02  0.13541754237E+03  0.14024937803E+03  0.00000000000E+00 0.  1.
<mgrwt>
<rscale>  0 0.80837892E+02</rscale>
<asrwt>0</asrwt>
<pdfrwt beam="1">  1        2 0.34490612E-01 0.80837892E+02</pdfrwt>
<pdfrwt beam="2">  1       -1 0.11210948E-02 0.80837892E+02</pdfrwt>
<totfact> 0.22337969E+05</totfact>
</mgrwt>
</event>
<event>
 8    1  0.1520917E-013  0.8211718E+02  0.7818608E-02  0.1323148E+00
         -1   -1    0    0    0  501 -0.00000000000E+00  0.00000000000E+00  0.73283009825E+02  0.73283009998E+02  0.50400000000E-02 0.  1.
          2   -1    0    0  501    0  0.00000000000E+00 -0.00000000000E+00 -0.23004076907E+02  0.23004077048E+02  0.25500000000E-02 0. -1.
         24    2    1    2    0    0  0.00000000000E+00  0.71054273576E-14  0.50278932918E+02  0.96287087046E+02  0.82117184781E+02 0.  0.
         66    2    3    3    0    0 -0.75039603686E+01 -0.37429946527E+02  0.75077348848E+01  0.38957366451E+02  0.19999998597E+01 0.  0.
        -13    1    3    3    0    0  0.75039603686E+01  0.37429946527E+02  0.42771198033E+02  0.57329720595E+02  0.10566000000E+00 0.  1.
         13    1    4    4    0    0 -0.44546777990E+01 -0.21139825007E+02  0.47384302368E+01  0.22117871524E+02  0.10566000000E+00 0. -1.
        -13    1    4    4    0    0 -0.30839105966E+00 -0.15834427604E+01 -0.44493081097E-01  0.16172630247E+01  0.10566000000E+00 0.  1.
        -14    1    4    4    0    0 -0.27408915099E+01 -0.14706678760E+02  0.28137977291E+01  0.15222231902E+02  0.00000000000E+00 0.  1.
<mgrwt>
<rscale>  0 0.82117185E+02</rscale>
<asrwt>0</asrwt>
<pdfrwt beam="1">  1        2 0.35390887E-02 0.82117185E+02</pdfrwt>
<pdfrwt beam="2">  1       -1 0.11274310E-01 0.82117185E+02</pdfrwt>
<totfact> 0.11851463E+05</totfact>
</mgrwt>
</event>
<event>
 8    1  0.1520917E-013  0.8175038E+02  0.7818608E-02  0.1324156E+00
          2   -1    0    0  501    0  0.00000000000E+00  0.00000000000E+00  0.89439048984E+01  0.89439052619E+01  0.25500000000E-02 0. -1.
         -1   -1    0    0    0  501 -0.00000000000E+00 -0.00000000000E+00 -0.18680665697E+03  0.18680665703E+03  0.50400000000E-02 0.  1.
         24    2    1    2    0    0  0.71054273576E-14  0.00000000000E+00 -0.17786275207E+03  0.19575056230E+03  0.81750376550E+02 0.  0.
         66    2    3    3    0    0  0.32057179766E+02 -0.50342271532E+01 -0.29565849148E+02  0.43944802204E+02  0.19999968230E+01 0.  0.
        -13    1    3    3    0    0 -0.32057179766E+02  0.50342271532E+01 -0.14829690292E+03  0.15180576009E+03  0.10566000000E+00 0.  1.
         13    1    4    4    0    0  0.48131073633E+00 -0.78624568650E-01 -0.20810018749E+00  0.54065846089E+00  0.10566000000E+00 0. -1.
        -13    1    4    4    0    0  0.30951901566E+01 -0.55339482649E+00 -0.26767760618E+01  0.41307072107E+01  0.10566000000E+00 0.  1.
         14    1    4    4    0    0  0.28480678873E+02 -0.44022077580E+01 -0.26680972899E+02  0.39273436532E+02  0.00000000000E+00 0. -1.
<mgrwt>
<rscale>  0 0.81750377E+02</rscale>
<asrwt>0</asrwt>
<pdfrwt beam="1">  1        2 0.13759855E-02 0.81750377E+02</pdfrwt>
<pdfrwt beam="2">  1       -1 0.28739483E-01 0.81750377E+02</pdfrwt>
<totfact> 0.96195532E+04</totfact>
</mgrwt>
</event>
<event>
 8    1  0.1520917E-013  0.7881307E+02  0.7818608E-02  0.1332454E+00
         -1   -1    0    0    0  501 -0.00000000000E+00  0.00000000000E+00  0.51991415104E+01  0.51991439533E+01  0.50400000000E-02 0.  1.
          2   -1    0    0  501    0  0.00000000000E+00 -0.00000000000E+00 -0.29867906578E+03  0.29867906579E+03  0.25500000000E-02 0. -1.
         24    2    1    2    0    0  0.00000000000E+00  0.00000000000E+00 -0.29347992427E+03  0.30387820974E+03  0.78813072570E+02 0.  0.
         66    2    3    3    0    0  0.27126804747E+02  0.24848622155E+02 -0.20102712960E+03  0.20437520494E+03  0.20000000422E+01 0.  0.
        -13    1    3    3    0    0 -0.27126804747E+02 -0.24848622155E+02 -0.92452794664E+02  0.99503004798E+02  0.10566000000E+00 0.  1.
         13    1    4    4    0    0  0.71256259820E+01  0.61081836855E+01 -0.51071916070E+02  0.51927220498E+02  0.10566000000E+00 0. -1.
        -13    1    4    4    0    0  0.95457980849E+01  0.10034731458E+02 -0.75309558757E+02  0.76572572771E+02  0.10566000000E+00 0.  1.
        -14    1    4    4    0    0  0.10455380680E+02  0.87057070113E+01 -0.74645654774E+02  0.75875411672E+02  0.00000000000E+00 0.  1.
<mgrwt>
<rscale>  0 0.78813073E+02</rscale>
<asrwt>0</asrwt>
<pdfrwt beam="1">  1        2 0.45950612E-01 0.78813073E+02</pdfrwt>
<pdfrwt beam="2">  1       -1 0.79986835E-03 0.78813073E+02</pdfrwt>
<totfact> 0.26470412E+05</totfact>
</mgrwt>
</event>
<event>
 8    1  0.1520917E-013  0.8023606E+02  0.7818608E-02  0.1328383E+00
          2   -1    0    0  501    0  0.00000000000E+00  0.00000000000E+00  0.12152202082E+04  0.12152202082E+04  0.25500000000E-02 0. -1.
         -1   -1    0    0    0  501 -0.00000000000E+00 -0.00000000000E+00 -0.13244104940E+01  0.13244200838E+01  0.50400000000E-02 0.  1.
         24    2    1    2    0    0  0.11102230246E-15  0.00000000000E+00  0.12138957977E+04  0.12165446283E+04  0.80236057509E+02 0.  0.
         66    2    3    3    0    0 -0.65995887199E+00  0.26837457479E+02  0.10588295455E+04  0.10591717005E+04  0.20000003095E+01 0.  0.
        -13    1    3    3    0    0  0.65995887199E+00 -0.26837457479E+02  0.15506625222E+03  0.15737292782E+03  0.10566000000E+00 0.  1.
         13    1    4    4    0    0 -0.11845920851E+00  0.12001280832E+02  0.43699471510E+03  0.43715950975E+03  0.10566000000E+00 0.  1.
        -13    1    4    4    0    0 -0.87440791310E-01  0.32987410092E+01  0.13170263781E+03  0.13174401432E+03  0.10566000000E+00 0. -1.
        -14    1    4    4    0    0 -0.45405887217E+00  0.11537435638E+02  0.49013219261E+03  0.49026817643E+03  0.00000000000E+00 0.  1.
<mgrwt>
<rscale>  0 0.80236058E+02</rscale>
<asrwt>0</asrwt>
<pdfrwt beam="1">  1        2 0.18695563E+00 0.80236058E+02</pdfrwt>
<pdfrwt beam="2">  1       -1 0.20375764E-03 0.80236058E+02</pdfrwt>
<totfact> 0.34720049E+05</totfact>
</mgrwt>
</event>
<event>
 8    1  0.1520917E-013  0.8026802E+02  0.7818608E-02  0.1328293E+00
          2   -1    0    0  501    0  0.00000000000E+00  0.00000000000E+00  0.29146859655E+02  0.29146859767E+02  0.25500000000E-02 0. -1.
         -1   -1    0    0    0  501 -0.00000000000E+00 -0.00000000000E+00 -0.55262853978E+02  0.55262854207E+02  0.50400000000E-02 0.  1.
         24    2    1    2    0    0  0.00000000000E+00 -0.88817841970E-15 -0.26115994323E+02  0.84409713974E+02  0.80268017627E+02 0.  0.
         66    2    3    3    0    0 -0.12950556618E+02  0.53609234887E+01  0.26453276369E+02  0.30003870515E+02  0.19999994675E+01 0.  0.
        -13    1    3    3    0    0  0.12950556618E+02 -0.53609234887E+01 -0.52569270692E+02  0.54405843459E+02  0.10566000000E+00 0.  1.
         13    1    4    4    0    0 -0.68690810865E+01  0.36735065849E+01  0.15441390707E+02  0.17295277870E+02  0.10566000000E+00 0. -1.
        -13    1    4    4    0    0 -0.26921861122E+01  0.56702824555E+00  0.53129965445E+01  0.59840190016E+01  0.10566000000E+00 0.  1.
         14    1    4    4    0    0 -0.33892894194E+01  0.11203886582E+01  0.56988891179E+01  0.67245736438E+01  0.00000000000E+00 0. -1.
<mgrwt>
<rscale>  0 0.80268018E+02</rscale>
<asrwt>0</asrwt>
<pdfrwt beam="1">  1        2 0.44841323E-02 0.80268018E+02</pdfrwt>
<pdfrwt beam="2">  1       -1 0.85019776E-02 0.80268018E+02</pdfrwt>
<totfact> 0.13253821E+05</totfact>
</mgrwt>
</event>
<event>
 8    1  0.1520917E-013  0.7977610E+02  0.7818608E-02  0.1329688E+00
         -1   -1    0    0    0  501 -0.00000000000E+00  0.00000000000E+00  0.91663120437E+01  0.91663134293E+01  0.50400000000E-02 0.  1.
          2   -1    0    0  501    0  0.00000000000E+00 -0.00000000000E+00 -0.17357648839E+03  0.17357648841E+03  0.25500000000E-02 0. -1.
         24    2    1    2    0    0 -0.35527136788E-14  0.00000000000E+00 -0.16441017635E+03  0.18274280184E+03  0.79776096279E+02 0.  0.
         66    2    3    3    0    0 -0.18036583862E+02  0.10405200166E+02 -0.16012225374E+03  0.16148288669E+03  0.20000005749E+01 0.  0.
        -13    1    3    3    0    0  0.18036583862E+02 -0.10405200166E+02 -0.42879226072E+01  0.21259915151E+02  0.10566000000E+00 0.  1.
         13    1    4    4    0    0 -0.11876920553E+02  0.65118578809E+01 -0.11005017999E+03  0.11088065122E+03  0.10566000000E+00 0. -1.
        -13    1    4    4    0    0 -0.29901871424E+01  0.19549477368E+01 -0.26247190875E+02  0.26489417371E+02  0.10566000000E+00 0.  1.
        -14    1    4    4    0    0 -0.31694761666E+01  0.19383945486E+01 -0.23824882879E+02  0.24112818102E+02  0.00000000000E+00 0.  1.
<mgrwt>
<rscale>  0 0.79776096E+02</rscale>
<asrwt>0</asrwt>
<pdfrwt beam="1">  1        2 0.26704073E-01 0.79776096E+02</pdfrwt>
<pdfrwt beam="2">  1       -1 0.14102021E-02 0.79776096E+02</pdfrwt>
<totfact> 0.21171533E+05</totfact>
</mgrwt>
</event>
<event>
 8    1  0.1520917E-013  0.7947326E+02  0.7818608E-02  0.1330553E+00
         -1   -1    0    0    0  501 -0.00000000000E+00  0.00000000000E+00  0.49621884502E+01  0.49621910097E+01  0.50400000000E-02 0.  1.
          2   -1    0    0  501    0  0.00000000000E+00 -0.00000000000E+00 -0.31820624616E+03  0.31820624617E+03  0.25500000000E-02 0. -1.
         24    2    1    2    0    0  0.00000000000E+00  0.00000000000E+00 -0.31324405771E+03  0.32316843718E+03  0.79473260275E+02 0.  0.
         66    2    3    3    0    0 -0.28056702886E+02  0.26816838428E+02 -0.19090597305E+03  0.19482148738E+03  0.19999998950E+01 0.  0.
        -13    1    3    3    0    0  0.28056702886E+02 -0.26816838428E+02 -0.12233808466E+03  0.12834694980E+03  0.10566000000E+00 0.  1.
         13    1    4    4    0    0 -0.15602209933E+02  0.15070875508E+02 -0.10897549821E+03  0.11111359330E+03  0.10566000000E+00 0. -1.
        -13    1    4    4    0    0 -0.11232691079E+02  0.11009307419E+02 -0.74669969263E+02  0.76308542592E+02  0.10566000000E+00 0.  1.
        -14    1    4    4    0    0 -0.12218018740E+01  0.73665550113E+00 -0.72605055790E+01  0.73993514857E+01  0.00000000000E+00 0.  1.
<mgrwt>
<rscale>  0 0.79473260E+02</rscale>
<asrwt>0</asrwt>
<pdfrwt beam="1">  1        2 0.48954791E-01 0.79473260E+02</pdfrwt>
<pdfrwt beam="2">  1       -1 0.76341406E-03 0.79473260E+02</pdfrwt>
<totfact> 0.26497840E+05</totfact>
</mgrwt>
</event>
<event>
 8    1  0.1520917E-013  0.8598498E+02  0.7818608E-02  0.1312877E+00
          2   -1    0    0  501    0  0.00000000000E+00  0.00000000000E+00  0.53213288731E+01  0.53213294841E+01  0.25500000000E-02 0. -1.
         -1   -1    0    0    0  501 -0.00000000000E+00 -0.00000000000E+00 -0.34734825041E+03  0.34734825044E+03  0.50400000000E-02 0.  1.
         24    2    1    2    0    0 -0.71054273576E-14  0.00000000000E+00 -0.34202692153E+03  0.35266957993E+03  0.85984984458E+02 0.  0.
         66    2    3    3    0    0  0.19476827497E+02 -0.36448780550E+02 -0.12283843434E+03  0.12961921679E+03  0.19999993605E+01 0.  0.
        -13    1    3    3    0    0 -0.19476827497E+02  0.36448780550E+02 -0.21918848720E+03  0.22305036314E+03  0.10566000000E+00 0.  1.
         13    1    4    4    0    0  0.32848643754E+01 -0.63464763953E+01 -0.23207953403E+02  0.24283499785E+02  0.10566000000E+00 0. -1.
        -13    1    4    4    0    0  0.88181332446E+01 -0.17088576070E+02 -0.57213085957E+02  0.60358323990E+02  0.10566000000E+00 0.  1.
         14    1    4    4    0    0  0.73738298769E+01 -0.13013728085E+02 -0.42417394976E+02  0.44977393013E+02  0.00000000000E+00 0. -1.
<mgrwt>
<rscale>  0 0.85984984E+02</rscale>
<asrwt>0</asrwt>
<pdfrwt beam="1">  1        2 0.81866630E-03 0.85984984E+02</pdfrwt>
<pdfrwt beam="2">  1       -1 0.53438175E-01 0.85984984E+02</pdfrwt>
<totfact> 0.67401737E+04</totfact>
</mgrwt>
</event>
<event>
 8    1  0.1520917E-013  0.8098446E+02  0.7818608E-02  0.1326281E+00
          2   -1    0    0  501    0  0.00000000000E+00  0.00000000000E+00  0.15939674821E+03  0.15939674823E+03  0.25500000000E-02 0. -1.
         -1   -1    0    0    0  501 -0.00000000000E+00 -0.00000000000E+00 -0.10286411680E+02  0.10286412914E+02  0.50400000000E-02 0.  1.
         24    2    1    2    0    0  0.00000000000E+00  0.00000000000E+00  0.14911033653E+03  0.16968316114E+03  0.80984459718E+02 0.  0.
         66    2    3    3    0    0 -0.26757731886E+02 -0.23468077603E+02  0.11495194223E+03  0.12035229913E+03  0.20000002724E+01 0.  0.
        -13    1    3    3    0    0  0.26757731886E+02  0.23468077603E+02  0.34158394299E+02  0.49330862015E+02  0.10566000000E+00 0.  1.
         13    1    4    4    0    0 -0.76258720896E+01 -0.63073568572E+01  0.32695389806E+02  0.34160450147E+02  0.10566000000E+00 0. -1.
        -13    1    4    4    0    0 -0.14963939022E+01 -0.15423717959E+01  0.56852480214E+01  0.60787592951E+01  0.10566000000E+00 0.  1.
        -14    1    4    4    0    0 -0.17635465894E+02 -0.15618348949E+02  0.76571304403E+02  0.80113089686E+02  0.00000000000E+00 0.  1.
<mgrwt>
<rscale>  0 0.80984460E+02</rscale>
<asrwt>0</asrwt>
<pdfrwt beam="1">  1        2 0.24522578E-01 0.80984460E+02</pdfrwt>
<pdfrwt beam="2">  1       -1 0.15825249E-02 0.80984460E+02</pdfrwt>
<totfact> 0.19777539E+05</totfact>
</mgrwt>
</event>
<event>
 8    1  0.1520917E-013  0.7926996E+02  0.7818608E-02  0.1331136E+00
          2   -1    0    0  501    0  0.00000000000E+00  0.00000000000E+00  0.19406898995E+03  0.19406898997E+03  0.25500000000E-02 0. -1.
         -1   -1    0    0    0  501 -0.00000000000E+00 -0.00000000000E+00 -0.80947066387E+01  0.80947082077E+01  0.50400000000E-02 0.  1.
         24    2    1    2    0    0 -0.35527136788E-14  0.35527136788E-14  0.18597428331E+03  0.20216369818E+03  0.79269961565E+02 0.  0.
         66    2    3    3    0    0 -0.27680018610E+02  0.26126432682E+02  0.12100130035E+03  0.12686247910E+03  0.20000006321E+01 0.  0.
        -13    1    3    3    0    0  0.27680018610E+02 -0.26126432682E+02  0.64972982962E+02  0.75301219074E+02  0.10566000000E+00 0.  1.
         13    1    4    4    0    0 -0.94382990408E+01  0.88287854390E+01  0.39922706637E+02  0.41962633502E+02  0.10566000000E+00 0.  1.
        -13    1    4    4    0    0 -0.17714674790E+02  0.16636678867E+02  0.79075817375E+02  0.82725962334E+02  0.10566000000E+00 0. -1.
         14    1    4    4    0    0 -0.52704477932E+00  0.66096837551E+00  0.20027763387E+01  0.21738832664E+01  0.00000000000E+00 0. -1.
<mgrwt>
<rscale>  0 0.79269962E+02</rscale>
<asrwt>0</asrwt>
<pdfrwt beam="1">  1        2 0.29856767E-01 0.79269962E+02</pdfrwt>
<pdfrwt beam="2">  1       -1 0.12453397E-02 0.79269962E+02</pdfrwt>
<totfact> 0.22364349E+05</totfact>
</mgrwt>
</event>
<event>
 8    1  0.1520917E-013  0.7964717E+02  0.7818608E-02  0.1330056E+00
         -1   -1    0    0    0  501 -0.00000000000E+00  0.00000000000E+00  0.10947376232E+02  0.10947377393E+02  0.50400000000E-02 0.  1.
          2   -1    0    0  501    0  0.00000000000E+00 -0.00000000000E+00 -0.14486737934E+03  0.14486737936E+03  0.25500000000E-02 0. -1.
         24    2    1    2    0    0  0.00000000000E+00  0.00000000000E+00 -0.13392000311E+03  0.15581475675E+03  0.79647166869E+02 0.  0.
         66    2    3    3    0    0 -0.10452749313E+02 -0.38309859986E+02 -0.61823415723E+02  0.73505374441E+02  0.19999999165E+01 0.  0.
        -13    1    3    3    0    0  0.10452749313E+02  0.38309859986E+02 -0.72096587384E+02  0.82309382314E+02  0.10566000000E+00 0.  1.
         13    1    4    4    0    0 -0.24741610859E+01 -0.88041596535E+01 -0.13289443035E+02  0.16132425748E+02  0.10566000000E+00 0. -1.
        -13    1    4    4    0    0 -0.34537526651E+01 -0.15316924867E+02 -0.24648917155E+02  0.29225278028E+02  0.10566000000E+00 0.  1.
        -14    1    4    4    0    0 -0.45248355618E+01 -0.14188775465E+02 -0.23885055533E+02  0.28147670665E+02  0.00000000000E+00 0.  1.
<mgrwt>
<rscale>  0 0.79647167E+02</rscale>
<asrwt>0</asrwt>
<pdfrwt beam="1">  1        2 0.22287288E-01 0.79647167E+02</pdfrwt>
<pdfrwt beam="2">  1       -1 0.16842119E-02 0.79647167E+02</pdfrwt>
<totfact> 0.20041513E+05</totfact>
</mgrwt>
</event>
<event>
 8    1  0.1548476E-013  0.7982100E+02  0.7818608E-02  0.1329560E+00
          2   -1    0    0  501    0  0.00000000000E+00  0.00000000000E+00  0.29452582160E+02  0.29452582271E+02  0.25500000000E-02 0. -1.
         -1   -1    0    0    0  501 -0.00000000000E+00 -0.00000000000E+00 -0.54081775718E+02  0.54081775953E+02  0.50400000000E-02 0.  1.
         24    2    1    2    0    0 -0.71054273576E-14 -0.17763568394E-14 -0.24629193558E+02  0.83534358224E+02  0.79820998669E+02 0.  0.
         66    2    3    3    0    0 -0.39298592690E+02 -0.66395670362E+01 -0.13936719946E+02  0.42269319828E+02  0.19999994994E+01 0.  0.
        -13    1    3    3    0    0  0.39298592690E+02  0.66395670362E+01 -0.10692473612E+02  0.41265038396E+02  0.10566000000E+00 0.  1.
         13    1    4    4    0    0 -0.31673036056E+02 -0.52487056754E+01 -0.10992695457E+02  0.33934947204E+02  0.10566000000E+00 0. -1.
        -13    1    4    4    0    0 -0.25248477068E+01 -0.48192543251E+00 -0.56843708230E+00  0.26346523143E+01  0.10566000000E+00 0.  1.
        -14    1    4    4    0    0 -0.51007089274E+01 -0.90893592822E+00 -0.23755874068E+01  0.56997203099E+01  0.00000000000E+00 0.  1.
<mgrwt>
<rscale>  0 0.79820999E+02</rscale>
<asrwt>0</asrwt>
<pdfrwt beam="1">  1        2 0.45311665E-02 0.79820999E+02</pdfrwt>
<pdfrwt beam="2">  1       -1 0.83202732E-02 0.79820999E+02</pdfrwt>
<totfact> 0.13490928E+05</totfact>
</mgrwt>
</event>
<event>
 8    1  0.1704911E-013  0.8002560E+02  0.7818608E-02  0.1328979E+00
          2   -1    0    0  501    0  0.00000000000E+00  0.00000000000E+00  0.28196674860E+02  0.28196674976E+02  0.25500000000E-02 0. -1.
         -1   -1    0    0    0  501 -0.00000000000E+00 -0.00000000000E+00 -0.56780606174E+02  0.56780606398E+02  0.50400000000E-02 0.  1.
         24    2    1    2    0    0  0.00000000000E+00  0.00000000000E+00 -0.28583931314E+02  0.84977281373E+02  0.80025603529E+02 0.  0.
         66    2    3    3    0    0  0.32026417990E+02  0.88568722974E+01  0.93216105537E+01  0.34569177814E+02  0.19999988081E+01 0.  0.
        -13    1    3    3    0    0 -0.32026417990E+02 -0.88568722974E+01 -0.37905541868E+02  0.50408103560E+02  0.10566000000E+00 0.  1.
         13    1    4    4    0    0  0.18969391821E+02  0.51589399044E+01  0.57151006226E+01  0.20472567649E+02  0.10566000000E+00 0. -1.
        -13    1    4    4    0    0  0.11736308284E+02  0.29737633760E+01  0.30070989117E+01  0.12475496329E+02  0.10566000000E+00 0.  1.
        -14    1    4    4    0    0  0.13207178853E+01  0.72416901696E+00  0.59941101945E+00  0.16211138356E+01  0.00000000000E+00 0.  1.
<mgrwt>
<rscale>  0 0.80025604E+02</rscale>
<asrwt>0</asrwt>
<pdfrwt beam="1">  1        2 0.43379500E-02 0.80025604E+02</pdfrwt>
<pdfrwt beam="2">  1       -1 0.87354779E-02 0.80025604E+02</pdfrwt>
<totfact> 0.13279879E+05</totfact>
</mgrwt>
</event>
<event>
 8    1  0.1520917E-013  0.8218870E+02  0.7818608E-02  0.1322953E+00
         -1   -1    0    0    0  501 -0.00000000000E+00  0.00000000000E+00  0.49249439727E+02  0.49249439985E+02  0.50400000000E-02 0.  1.
          2   -1    0    0  501    0  0.00000000000E+00 -0.00000000000E+00 -0.34289640200E+02  0.34289640295E+02  0.25500000000E-02 0. -1.
         24    2    1    2    0    0  0.00000000000E+00  0.00000000000E+00  0.14959799527E+02  0.83539080280E+02  0.82188699540E+02 0.  0.
         66    2    3    3    0    0  0.27344092027E+02  0.10177728841E+02 -0.21894826712E+02  0.36533121377E+02  0.19999969134E+01 0.  0.
        -13    1    3    3    0    0 -0.27344092027E+02 -0.10177728841E+02  0.36854626240E+02  0.47005958903E+02  0.10566000000E+00 0.  1.
         13    1    4    4    0    0  0.55902669692E+01  0.13249312320E+01 -0.42518573414E+01  0.71481453849E+01  0.10566000000E+00 0. -1.
        -13    1    4    4    0    0  0.43911968139E+01  0.20962396840E+01 -0.35439908028E+01  0.60206199944E+01  0.10566000000E+00 0.  1.
        -14    1    4    4    0    0  0.17362628244E+02  0.67565579249E+01 -0.14098978568E+02  0.23364355998E+02  0.00000000000E+00 0.  1.
<mgrwt>
<rscale>  0 0.82188700E+02</rscale>
<asrwt>0</asrwt>
<pdfrwt beam="1">  1        2 0.52753293E-02 0.82188700E+02</pdfrwt>
<pdfrwt beam="2">  1       -1 0.75768369E-02 0.82188700E+02</pdfrwt>
<totfact> 0.12814697E+05</totfact>
</mgrwt>
</event>
<event>
 8    1  0.1520917E-013  0.8085073E+02  0.7818608E-02  0.1326654E+00
          2   -1    0    0  501    0  0.00000000000E+00  0.00000000000E+00  0.15516519676E+02  0.15516519886E+02  0.25500000000E-02 0. -1.
         -1   -1    0    0    0  501 -0.00000000000E+00 -0.00000000000E+00 -0.10532065106E+03  0.10532065118E+03  0.50400000000E-02 0.  1.
         24    2    1    2    0    0  0.00000000000E+00  0.35527136788E-14 -0.89804131385E+02  0.12083717107E+03  0.80850726020E+02 0.  0.
         66    2    3    3    0    0 -0.15137625248E+02 -0.16579975476E+02  0.52703714053E+01  0.23147788176E+02  0.19999994336E+01 0.  0.
        -13    1    3    3    0    0  0.15137625248E+02  0.16579975476E+02 -0.95074502790E+02  0.97689382892E+02  0.10566000000E+00 0.  1.
         13    1    4    4    0    0 -0.18692162715E+01 -0.15881365073E+01  0.57486282747E+00  0.25214635317E+01  0.10566000000E+00 0. -1.
        -13    1    4    4    0    0 -0.15627854497E+01 -0.16359189737E+01  0.33851961805E-01  0.22651355901E+01  0.10566000000E+00 0.  1.
         14    1    4    4    0    0 -0.11705623527E+02 -0.13355919995E+02  0.46616566160E+01  0.18361189054E+02  0.00000000000E+00 0. -1.
<mgrwt>
<rscale>  0 0.80850726E+02</rscale>
<asrwt>0</asrwt>
<pdfrwt beam="1">  1        2 0.23871570E-02 0.80850726E+02</pdfrwt>
<pdfrwt beam="2">  1       -1 0.16203177E-01 0.80850726E+02</pdfrwt>
<totfact> 0.11415339E+05</totfact>
</mgrwt>
</event>
<event>
 8    1  0.1520917E-013  0.7722607E+02  0.7818608E-02  0.1337113E+00
          2   -1    0    0  501    0  0.00000000000E+00  0.00000000000E+00  0.10390402116E+04  0.10390402116E+04  0.25500000000E-02 0. -1.
         -1   -1    0    0    0  501 -0.00000000000E+00 -0.00000000000E+00 -0.14349413325E+01  0.14349501836E+01  0.50400000000E-02 0.  1.
         24    2    1    2    0    0 -0.71054273576E-14  0.17763568394E-14  0.10376052703E+04  0.10404751618E+04  0.77226066897E+02 0.  0.
         66    2    3    3    0    0  0.20058740955E+02 -0.99509975577E+01  0.94255392592E+03  0.94282197614E+03  0.19999952456E+01 0.  0.
        -13    1    3    3    0    0 -0.20058740955E+02  0.99509975577E+01  0.95051344369E+02  0.97653185670E+02  0.10566000000E+00 0.  1.
         13    1    4    4    0    0  0.12508570769E+02 -0.55146892292E+01  0.57075770839E+03  0.57092140351E+03  0.10566000000E+00 0.  1.
        -13    1    4    4    0    0  0.34570363416E+01 -0.16120621062E+01  0.17418280754E+03  0.17422460059E+03  0.10566000000E+00 0. -1.
        -14    1    4    4    0    0  0.40931338444E+01 -0.28242462222E+01  0.19761340999E+03  0.19767597203E+03  0.00000000000E+00 0.  1.
<mgrwt>
<rscale>  0 0.77226067E+02</rscale>
<asrwt>0</asrwt>
<pdfrwt beam="1">  1        2 0.15985240E+00 0.77226067E+02</pdfrwt>
<pdfrwt beam="2">  1       -1 0.22076080E-03 0.77226067E+02</pdfrwt>
<totfact> 0.38646403E+05</totfact>
</mgrwt>
</event>
<event>
 8    1  0.1520917E-013  0.7847143E+02  0.7818608E-02  0.1333446E+00
         -1   -1    0    0    0  501 -0.00000000000E+00  0.00000000000E+00  0.25435799690E+01  0.25435849623E+01  0.50400000000E-02 0.  1.
          2   -1    0    0  501    0  0.00000000000E+00 -0.00000000000E+00 -0.60522570977E+03  0.60522570978E+03  0.25500000000E-02 0. -1.
         24    2    1    2    0    0  0.00000000000E+00  0.00000000000E+00 -0.60268212980E+03  0.60776929474E+03  0.78471434577E+02 0.  0.
         66    2    3    3    0    0  0.17695251050E+02  0.32989778694E+02 -0.39185530630E+03  0.39364454586E+03  0.20000015718E+01 0.  0.
        -13    1    3    3    0    0 -0.17695251050E+02 -0.32989778694E+02 -0.21082682350E+03  0.21412474887E+03  0.10566000000E+00 0.  1.
         13    1    4    4    0    0  0.10463660026E+02  0.20700272803E+02 -0.24189801521E+03  0.24300751099E+03  0.10566000000E+00 0. -1.
        -13    1    4    4    0    0  0.17046336444E+01  0.29700326882E+01 -0.40586596182E+02  0.40730944302E+02  0.10566000000E+00 0.  1.
         14    1    4    4    0    0  0.55269573805E+01  0.93194732023E+01 -0.10937069491E+03  0.10990609057E+03  0.00000000000E+00 0. -1.
<mgrwt>
<rscale>  0 0.78471435E+02</rscale>
<asrwt>0</asrwt>
<pdfrwt beam="1">  1        2 0.93111533E-01 0.78471435E+02</pdfrwt>
<pdfrwt beam="2">  1       -1 0.39132086E-03 0.78471435E+02</pdfrwt>
<totfact> 0.33898988E+05</totfact>
</mgrwt>
</event>
<event>
 8    1  0.1520917E-013  0.7589147E+02  0.7818608E-02  0.1341132E+00
         -1   -1    0    0    0  501 -0.00000000000E+00  0.00000000000E+00  0.30820738805E+01  0.30820780014E+01  0.50400000000E-02 0.  1.
          2   -1    0    0  501    0  0.00000000000E+00 -0.00000000000E+00 -0.46717823646E+03  0.46717823647E+03  0.25500000000E-02 0. -1.
         24    2    1    2    0    0 -0.35527136788E-14  0.14210854715E-13 -0.46409616258E+03  0.47026031447E+03  0.75891470159E+02 0.  0.
         66    2    3    3    0    0  0.10059631734E+02 -0.35430597751E+02 -0.28809766981E+03  0.29044929125E+03  0.19999983215E+01 0.  0.
        -13    1    3    3    0    0 -0.10059631734E+02  0.35430597751E+02 -0.17599849277E+03  0.17981102321E+03  0.10566000000E+00 0.  1.
         13    1    4    4    0    0  0.42682004168E+01 -0.13289517064E+02 -0.11577296020E+03  0.11661139857E+03  0.10566000000E+00 0. -1.
        -13    1    4    4    0    0  0.19737348923E+01 -0.74146149735E+01 -0.57892136664E+02  0.58398482825E+02  0.10566000000E+00 0.  1.
         14    1    4    4    0    0  0.38176964252E+01 -0.14726465714E+02 -0.11443257295E+03  0.11543940986E+03  0.00000000000E+00 0. -1.
<mgrwt>
<rscale>  0 0.75891470E+02</rscale>
<asrwt>0</asrwt>
<pdfrwt beam="1">  1        2 0.71873519E-01 0.75891470E+02</pdfrwt>
<pdfrwt beam="2">  1       -1 0.47416590E-03 0.75891470E+02</pdfrwt>
<totfact> 0.34166070E+05</totfact>
</mgrwt>
</event>
<event>
 8    1  0.1520917E-013  0.8431606E+02  0.7818608E-02  0.1317231E+00
          2   -1    0    0  501    0  0.00000000000E+00  0.00000000000E+00  0.92871367143E+02  0.92871367178E+02  0.25500000000E-02 0. -1.
         -1   -1    0    0    0  501 -0.00000000000E+00 -0.00000000000E+00 -0.19137215073E+02  0.19137215737E+02  0.50400000000E-02 0.  1.
         24    2    1    2    0    0  0.00000000000E+00  0.00000000000E+00  0.73734152070E+02  0.11200858291E+03  0.84316056983E+02 0.  0.
         66    2    3    3    0    0 -0.23253838954E+01  0.39742675370E+02  0.55218590705E+02  0.68102719610E+02  0.20000007345E+01 0.  0.
        -13    1    3    3    0    0  0.23253838954E+01 -0.39742675370E+02  0.18515561364E+02  0.43905863305E+02  0.10566000000E+00 0.  1.
         13    1    4    4    0    0 -0.73203986356E+00  0.66255466287E+01  0.95732465035E+01  0.11665846011E+02  0.10566000000E+00 0. -1.
        -13    1    4    4    0    0 -0.86402501008E+00  0.18425969523E+02  0.24103563133E+02  0.30352196162E+02  0.10566000000E+00 0.  1.
         14    1    4    4    0    0 -0.72931902181E+00  0.14691159219E+02  0.21541781069E+02  0.26084677438E+02  0.00000000000E+00 0. -1.
<mgrwt>
<rscale>  0 0.84316057E+02</rscale>
<asrwt>0</asrwt>
<pdfrwt beam="1">  1        2 0.14287903E-01 0.84316057E+02</pdfrwt>
<pdfrwt beam="2">  1       -1 0.29441870E-02 0.84316057E+02</pdfrwt>
<totfact> 0.15076249E+05</totfact>
</mgrwt>
</event>
<event>
 8    1  0.1520917E-013  0.7951816E+02  0.7818608E-02  0.1330424E+00
          2   -1    0    0  501    0  0.00000000000E+00  0.00000000000E+00  0.23666575483E+02  0.23666575620E+02  0.25500000000E-02 0. -1.
         -1   -1    0    0    0  501 -0.00000000000E+00 -0.00000000000E+00 -0.66793966934E+02  0.66793967124E+02  0.50400000000E-02 0.  1.
         24    2    1    2    0    0  0.88817841970E-15  0.00000000000E+00 -0.43127391451E+02  0.90460542744E+02  0.79518160820E+02 0.  0.
         66    2    3    3    0    0 -0.54921292781E+01 -0.24992500319E+02  0.13002839385E+02  0.28772597942E+02  0.20000010170E+01 0.  0.
        -13    1    3    3    0    0  0.54921292781E+01  0.24992500319E+02 -0.56130230836E+02  0.61687944802E+02  0.10566000000E+00 0.  1.
         13    1    4    4    0    0 -0.26037691879E+00 -0.19358884911E+01  0.14970852785E+01  0.24633084981E+01  0.10566000000E+00 0. -1.
        -13    1    4    4    0    0 -0.87703541810E+00 -0.27464705299E+01  0.12620748485E+01  0.31490138862E+01  0.10566000000E+00 0. -1.
         14    1    4    4    0    0 -0.43547169412E+01 -0.20310141298E+02  0.10243679258E+02  0.23160275558E+02  0.00000000000E+00 0. -1.
<mgrwt>
<rscale>  0 0.79518161E+02</rscale>
<asrwt>0</asrwt>
<pdfrwt beam="1">  1        2 0.36410116E-02 0.79518161E+02</pdfrwt>
<pdfrwt beam="2">  1       -1 0.10275995E-01 0.79518161E+02</pdfrwt>
<totfact> 0.13062680E+05</totfact>
</mgrwt>
</event>
<event>
 8    1  0.1520917E-013  0.8050962E+02  0.7818608E-02  0.1327611E+00
         -1   -1    0    0    0  501 -0.00000000000E+00  0.00000000000E+00  0.45296561817E+01  0.45296589857E+01  0.50400000000E-02 0.  1.
          2   -1    0    0  501    0  0.00000000000E+00 -0.00000000000E+00 -0.35774217935E+03  0.35774217936E+03  0.25500000000E-02 0. -1.
         24    2    1    2    0    0  0.88817841970E-15  0.00000000000E+00 -0.35321252317E+03  0.36227183834E+03  0.80509616412E+02 0.  0.
         66    2    3    3    0    0  0.77823100856E+01 -0.33209868914E+02 -0.27269594887E+03  0.27482820138E+03  0.20000010333E+01 0.  0.
        -13    1    3    3    0    0 -0.77823100856E+01  0.33209868914E+02 -0.80516574299E+02  0.87443636958E+02  0.10566000000E+00 0.  1.
         13    1    4    4    0    0  0.45574519055E+00 -0.17207443209E+01 -0.16178027936E+02  0.16276007392E+02  0.10566000000E+00 0. -1.
        -13    1    4    4    0    0  0.49202195475E+01 -0.18981445667E+02 -0.15065258661E+03  0.15192339141E+03  0.10566000000E+00 0.  1.
        -14    1    4    4    0    0  0.24063453475E+01 -0.12507678927E+02 -0.10586533432E+03  0.10662880258E+03  0.00000000000E+00 0.  1.
<mgrwt>
<rscale>  0 0.80509616E+02</rscale>
<asrwt>0</asrwt>
<pdfrwt beam="1">  1        2 0.55037236E-01 0.80509616E+02</pdfrwt>
<pdfrwt beam="2">  1       -1 0.69687068E-03 0.80509616E+02</pdfrwt>
<totfact> 0.26713032E+05</totfact>
</mgrwt>
</event>
<event>
 8    1  0.1520917E-013  0.7861520E+02  0.7818608E-02  0.1333028E+00
          2   -1    0    0  501    0  0.00000000000E+00  0.00000000000E+00  0.92176056738E+03  0.92176056738E+03  0.25500000000E-02 0. -1.
         -1   -1    0    0    0  501 -0.00000000000E+00 -0.00000000000E+00 -0.16762311869E+01  0.16762387639E+01  0.50400000000E-02 0.  1.
         24    2    1    2    0    0  0.00000000000E+00 -0.17763568394E-14  0.92008433619E+03  0.92343680615E+03  0.78615197258E+02 0.  0.
         66    2    3    3    0    0 -0.22049461522E+02 -0.15321036556E+02  0.79714626360E+03  0.79760082651E+03  0.19999906066E+01 0.  0.
        -13    1    3    3    0    0  0.22049461522E+02  0.15321036556E+02  0.12293807260E+03  0.12583597964E+03  0.10566000000E+00 0.  1.
         13    1    4    4    0    0 -0.64827489189E+01 -0.49123445017E+01  0.21842285116E+03  0.21857426709E+03  0.10566000000E+00 0.  1.
        -13    1    4    4    0    0 -0.78431023535E+01 -0.53356849931E+01  0.30103585677E+03  0.30118529515E+03  0.10566000000E+00 0. -1.
        -14    1    4    4    0    0 -0.77236102492E+01 -0.50730070614E+01  0.27768755567E+03  0.27784126427E+03  0.00000000000E+00 0.  1.
<mgrwt>
<rscale>  0 0.78615197E+02</rscale>
<asrwt>0</asrwt>
<pdfrwt beam="1">  1        2 0.14180956E+00 0.78615197E+02</pdfrwt>
<pdfrwt beam="2">  1       -1 0.25788187E-03 0.78615197E+02</pdfrwt>
<totfact> 0.36655985E+05</totfact>
</mgrwt>
</event>
<event>
 8    1  0.1520917E-013  0.8031878E+02  0.7818608E-02  0.1328149E+00
          2   -1    0    0  501    0  0.00000000000E+00  0.00000000000E+00  0.31363767112E+03  0.31363767113E+03  0.25500000000E-02 0. -1.
         -1   -1    0    0    0  501 -0.00000000000E+00 -0.00000000000E+00 -0.51421638642E+01  0.51421663341E+01  0.50400000000E-02 0.  1.
         24    2    1    2    0    0  0.17763568394E-14 -0.88817841970E-15  0.30849550725E+03  0.31877983746E+03  0.80318782217E+02 0.  0.
         66    2    3    3    0    0  0.13454829903E+02 -0.49941541470E+01  0.30310122835E+03  0.30344740672E+03  0.19999995782E+01 0.  0.
        -13    1    3    3    0    0 -0.13454829903E+02  0.49941541470E+01  0.53942789037E+01  0.15332430736E+02  0.10566000000E+00 0.  1.
         13    1    4    4    0    0  0.15476721733E+01 -0.42410158337E+00  0.29886706440E+02  0.29929943821E+02  0.10566000000E+00 0. -1.
        -13    1    4    4    0    0  0.77621512470E+01 -0.37973702973E+01  0.17815100941E+03  0.17836048982E+03  0.10566000000E+00 0.  1.
        -14    1    4    4    0    0  0.41450064822E+01 -0.77268226628E+00  0.95063512501E+02  0.95156973079E+02  0.00000000000E+00 0.  1.
<mgrwt>
<rscale>  0 0.80318782E+02</rscale>
<asrwt>0</asrwt>
<pdfrwt beam="1">  1        2 0.48251958E-01 0.80318782E+02</pdfrwt>
<pdfrwt beam="2">  1       -1 0.79110218E-03 0.80318782E+02</pdfrwt>
<totfact> 0.25639123E+05</totfact>
</mgrwt>
</event>
<event>
 8    1  0.1520917E-013  0.7950832E+02  0.7818608E-02  0.1330453E+00
          2   -1    0    0  501    0  0.00000000000E+00  0.00000000000E+00  0.19230393668E+02  0.19230393837E+02  0.25500000000E-02 0. -1.
         -1   -1    0    0    0  501 -0.00000000000E+00 -0.00000000000E+00 -0.82182059604E+02  0.82182059759E+02  0.50400000000E-02 0.  1.
         24    2    1    2    0    0  0.35527136788E-14  0.00000000000E+00 -0.62951665936E+02  0.10141245360E+03  0.79508323464E+02 0.  0.
         66    2    3    3    0    0 -0.21728688293E+02  0.20707065863E+02  0.17032076171E+01  0.30130041250E+02  0.19999994749E+01 0.  0.
        -13    1    3    3    0    0  0.21728688293E+02 -0.20707065863E+02 -0.64654873553E+02  0.71282412346E+02  0.10566000000E+00 0.  1.
         13    1    4    4    0    0 -0.96430677327E+01  0.85009846324E+01  0.13221129204E+01  0.12923414472E+02  0.10566000000E+00 0. -1.
        -13    1    4    4    0    0 -0.42614275875E+01  0.44864853103E+01 -0.28385680869E+00  0.61951637788E+01  0.10566000000E+00 0.  1.
        -14    1    4    4    0    0 -0.78241929733E+01  0.77195959206E+01  0.66495150539E+00  0.11011462998E+02  0.00000000000E+00 0.  1.
<mgrwt>
<rscale>  0 0.79508323E+02</rscale>
<asrwt>0</asrwt>
<pdfrwt beam="1">  1        2 0.29585222E-02 0.79508323E+02</pdfrwt>
<pdfrwt beam="2">  1       -1 0.12643394E-01 0.79508323E+02</pdfrwt>
<totfact> 0.12537691E+05</totfact>
</mgrwt>
</event>
<event>
 8    1  0.1520917E-013  0.7959616E+02  0.7818608E-02  0.1330201E+00
          2   -1    0    0  501    0  0.00000000000E+00  0.00000000000E+00  0.82467728258E+03  0.82467728259E+03  0.25500000000E-02 0. -1.
         -1   -1    0    0    0  501 -0.00000000000E+00 -0.00000000000E+00 -0.19206111184E+01  0.19206177313E+01  0.50400000000E-02 0.  1.
         24    2    1    2    0    0 -0.35527136788E-14  0.00000000000E+00  0.82275667146E+03  0.82659790032E+03  0.79596158017E+02 0.  0.
         66    2    3    3    0    0 -0.17994119849E+02 -0.29327037092E+02  0.61882024499E+03  0.61977928254E+03  0.19999996348E+01 0.  0.
        -13    1    3    3    0    0  0.17994119849E+02  0.29327037092E+02  0.20393642647E+03  0.20681861778E+03  0.10566000000E+00 0.  1.
         13    1    4    4    0    0 -0.57319537855E+01 -0.78172663319E+01  0.17401189401E+03  0.17428171266E+03  0.10566000000E+00 0. -1.
        -13    1    4    4    0    0 -0.39797927689E+01 -0.75625996236E+01  0.14982869744E+03  0.15007225395E+03  0.10566000000E+00 0.  1.
         14    1    4    4    0    0 -0.82823732949E+01 -0.13947171137E+02  0.29497965354E+03  0.29542531593E+03  0.00000000000E+00 0. -1.
<mgrwt>
<rscale>  0 0.79596158E+02</rscale>
<asrwt>0</asrwt>
<pdfrwt beam="1">  1        2 0.12687329E+00 0.79596158E+02</pdfrwt>
<pdfrwt beam="2">  1       -1 0.29547946E-03 0.79596158E+02</pdfrwt>
<totfact> 0.34995293E+05</totfact>
</mgrwt>
</event>
<event>
 8    1  0.1520917E-013  0.8207277E+02  0.7818608E-02  0.1323270E+00
          2   -1    0    0  501    0  0.00000000000E+00  0.00000000000E+00  0.26782319918E+02  0.26782320039E+02  0.25500000000E-02 0. -1.
         -1   -1    0    0    0  501 -0.00000000000E+00 -0.00000000000E+00 -0.62876743345E+02  0.62876743547E+02  0.50400000000E-02 0.  1.
         24    2    1    2    0    0  0.88817841970E-15  0.00000000000E+00 -0.36094423427E+02  0.89659063586E+02  0.82072774296E+02 0.  0.
         66    2    3    3    0    0  0.46614716366E+01 -0.39265985801E+02 -0.61692726603E+01  0.40070024766E+02  0.20000002077E+01 0.  0.
        -13    1    3    3    0    0 -0.46614716366E+01  0.39265985801E+02 -0.29925150766E+02  0.49589038821E+02  0.10566000000E+00 0.  1.
         13    1    4    4    0    0  0.30752103281E+01 -0.18465710448E+02 -0.31448064008E+01  0.18982632912E+02  0.10566000000E+00 0. -1.
        -13    1    4    4    0    0  0.93239555131E+00 -0.12534278933E+02 -0.21113397779E+01  0.12745447404E+02  0.10566000000E+00 0.  1.
         14    1    4    4    0    0  0.65386575720E+00 -0.82659964197E+01 -0.91312648159E+00  0.83419444502E+01  0.00000000000E+00 0. -1.
<mgrwt>
<rscale>  0 0.82072774E+02</rscale>
<asrwt>0</asrwt>
<pdfrwt beam="1">  1        2 0.41203569E-02 0.82072774E+02</pdfrwt>
<pdfrwt beam="2">  1       -1 0.96733451E-02 0.82072774E+02</pdfrwt>
<totfact> 0.12239911E+05</totfact>
</mgrwt>
</event>
<event>
 8    1  0.1520917E-013  0.7738981E+02  0.7818608E-02  0.1336626E+00
          2   -1    0    0  501    0  0.00000000000E+00  0.00000000000E+00  0.52612778540E+01  0.52612784720E+01  0.25500000000E-02 0. -1.
         -1   -1    0    0    0  501 -0.00000000000E+00 -0.00000000000E+00 -0.28458780503E+03  0.28458780507E+03  0.50400000000E-02 0.  1.
         24    2    1    2    0    0  0.00000000000E+00  0.00000000000E+00 -0.27932652717E+03  0.28984908354E+03  0.77389808428E+02 0.  0.
         66    2    3    3    0    0 -0.38144455325E+02 -0.41732374221E+01 -0.15766941826E+03  0.16228388964E+03  0.19999999062E+01 0.  0.
        -13    1    3    3    0    0  0.38144455325E+02  0.41732374221E+01 -0.12165710891E+03  0.12756519390E+03  0.10566000000E+00 0.  1.
         13    1    4    4    0    0 -0.12970291870E+02 -0.12672633051E+01 -0.53065724039E+02  0.54642626760E+02  0.10566000000E+00 0. -1.
        -13    1    4    4    0    0 -0.14487009801E+02 -0.23770767832E+01 -0.61972843553E+02  0.63688055781E+02  0.10566000000E+00 0.  1.
         14    1    4    4    0    0 -0.10687153653E+02 -0.52889733378E+00 -0.42630850668E+02  0.43953207099E+02  0.00000000000E+00 0. -1.
<mgrwt>
<rscale>  0 0.77389808E+02</rscale>
<asrwt>0</asrwt>
<pdfrwt beam="1">  1        2 0.80942764E-03 0.77389808E+02</pdfrwt>
<pdfrwt beam="2">  1       -1 0.43782727E-01 0.77389808E+02</pdfrwt>
<totfact> 0.96084008E+04</totfact>
</mgrwt>
</event>
<event>
 8    1  0.1520917E-013  0.7784012E+02  0.7818608E-02  0.1335295E+00
          2   -1    0    0  501    0  0.00000000000E+00  0.00000000000E+00  0.11419837304E+03  0.11419837307E+03  0.25500000000E-02 0. -1.
         -1   -1    0    0    0  501 -0.00000000000E+00 -0.00000000000E+00 -0.13264384460E+02  0.13264385418E+02  0.50400000000E-02 0.  1.
         24    2    1    2    0    0 -0.35527136788E-14  0.00000000000E+00  0.10093398858E+03  0.12746275849E+03  0.77840123010E+02 0.  0.
         66    2    3    3    0    0 -0.30345373413E+02 -0.20696768601E+02  0.29557675272E+02  0.47189555090E+02  0.20000059847E+01 0.  0.
        -13    1    3    3    0    0  0.30345373413E+02  0.20696768601E+02  0.71376313309E+02  0.80273203398E+02  0.10566000000E+00 0.  1.
         13    1    4    4    0    0 -0.14355596161E+02 -0.88970542901E+01  0.13528566463E+02  0.21639639340E+02  0.10566000000E+00 0. -1.
        -13    1    4    4    0    0 -0.54754089874E+01 -0.43282001847E+01  0.61428654166E+01  0.92983536166E+01  0.10566000000E+00 0.  1.
         14    1    4    4    0    0 -0.10514368265E+02 -0.74715141265E+01  0.98862433924E+01  0.16251562133E+02  0.00000000000E+00 0. -1.
<mgrwt>
<rscale>  0 0.77840123E+02</rscale>
<asrwt>0</asrwt>
<pdfrwt beam="1">  1        2 0.17568980E-01 0.77840123E+02</pdfrwt>
<pdfrwt beam="2">  1       -1 0.20406746E-02 0.77840123E+02</pdfrwt>
<totfact> 0.19807774E+05</totfact>
</mgrwt>
</event>
<event>
 8    1  0.1520917E-013  0.7996276E+02  0.7818608E-02  0.1329157E+00
         -1   -1    0    0    0  501 -0.00000000000E+00  0.00000000000E+00  0.26518078941E+02  0.26518079420E+02  0.50400000000E-02 0.  1.
          2   -1    0    0  501    0  0.00000000000E+00 -0.00000000000E+00 -0.60280040158E+02  0.60280040212E+02  0.25500000000E-02 0. -1.
         24    2    1    2    0    0  0.00000000000E+00  0.00000000000E+00 -0.33761961217E+02  0.86798119632E+02  0.79962763499E+02 0.  0.
         66    2    3    3    0    0  0.18311027157E+02  0.19841460210E+02 -0.48863116633E+02  0.55862164535E+02  0.20000001452E+01 0.  0.
        -13    1    3    3    0    0 -0.18311027157E+02 -0.19841460210E+02  0.15101155417E+02  0.30935955097E+02  0.10566000000E+00 0.  1.
         13    1    4    4    0    0  0.58820314522E+01  0.62413058252E+01 -0.15763116596E+02  0.17945450712E+02  0.10566000000E+00 0.  1.
        -13    1    4    4    0    0  0.30932743486E+00  0.59586085976E+00 -0.17535793470E+01  0.18806749289E+01  0.10566000000E+00 0.  1.
         14    1    4    4    0    0  0.12119668269E+02  0.13004293526E+02 -0.31346420690E+02  0.36036038894E+02  0.00000000000E+00 0. -1.
<mgrwt>
<rscale>  0 0.79962763E+02</rscale>
<asrwt>0</asrwt>
<pdfrwt beam="1">  1        2 0.92738523E-02 0.79962763E+02</pdfrwt>
<pdfrwt beam="2">  1       -1 0.40797045E-02 0.79962763E+02</pdfrwt>
<totfact> 0.15602704E+05</totfact>
</mgrwt>
</event>
<event>
 8    1  0.1520917E-013  0.8160363E+02  0.7818608E-02  0.1324561E+00
          2   -1    0    0  501    0  0.00000000000E+00  0.00000000000E+00  0.36511001837E+03  0.36511001837E+03  0.25500000000E-02 0. -1.
         -1   -1    0    0    0  501 -0.00000000000E+00 -0.00000000000E+00 -0.45596877566E+01  0.45596905421E+01  0.50400000000E-02 0.  1.
         24    2    1    2    0    0  0.35527136788E-14  0.00000000000E+00  0.36055033061E+03  0.36966970892E+03  0.81603632200E+02 0.  0.
         66    2    3    3    0    0 -0.25938141263E+02  0.31068296013E+02  0.20292313377E+03  0.20692951555E+03  0.19999994648E+01 0.  0.
        -13    1    3    3    0    0  0.25938141263E+02 -0.31068296013E+02  0.15762719684E+03  0.16274019337E+03  0.10566000000E+00 0.  1.
         13    1    4    4    0    0 -0.75886475024E+01  0.10022299406E+02  0.64768711989E+02  0.65977505811E+02  0.10566000000E+00 0. -1.
        -13    1    4    4    0    0 -0.62625886484E+01  0.64949371766E+01  0.45723606786E+02  0.46605403196E+02  0.10566000000E+00 0.  1.
         14    1    4    4    0    0 -0.12086905112E+02  0.14551059431E+02  0.92430814994E+02  0.94346606543E+02  0.00000000000E+00 0. -1.
<mgrwt>
<rscale>  0 0.81603632E+02</rscale>
<asrwt>0</asrwt>
<pdfrwt beam="1">  1        2 0.56170767E-01 0.81603632E+02</pdfrwt>
<pdfrwt beam="2">  1       -1 0.70149070E-03 0.81603632E+02</pdfrwt>
<totfact> 0.25972937E+05</totfact>
</mgrwt>
</event>
<event>
 8    1  0.1520917E-013  0.7983731E+02  0.7818608E-02  0.1329514E+00
         -1   -1    0    0    0  501 -0.00000000000E+00  0.00000000000E+00  0.17143080347E+02  0.17143081088E+02  0.50400000000E-02 0.  1.
          2   -1    0    0  501    0  0.00000000000E+00 -0.00000000000E+00 -0.92952904134E+02  0.92952904169E+02  0.25500000000E-02 0. -1.
         24    2    1    2    0    0  0.00000000000E+00  0.71054273576E-14 -0.75809823787E+02  0.11009598526E+03  0.79837313251E+02 0.  0.
         66    2    3    3    0    0  0.21117728811E+02 -0.32184429733E+02 -0.52371896074E+02  0.65027774655E+02  0.19999976745E+01 0.  0.
        -13    1    3    3    0    0 -0.21117728811E+02  0.32184429733E+02 -0.23437927713E+02  0.45068210603E+02  0.10566000000E+00 0.  1.
         13    1    4    4    0    0  0.92932613676E+01 -0.14714237052E+02 -0.23237013777E+02  0.29031766260E+02  0.10566000000E+00 0. -1.
        -13    1    4    4    0    0  0.95032745848E+01 -0.13559262833E+02 -0.22001909443E+02  0.27536539717E+02  0.10566000000E+00 0.  1.
        -14    1    4    4    0    0  0.23211928591E+01 -0.39109298481E+01 -0.71329728544E+01  0.84594686776E+01  0.00000000000E+00 0.  1.
<mgrwt>
<rscale>  0 0.79837313E+02</rscale>
<asrwt>0</asrwt>
<pdfrwt beam="1">  1        2 0.14300446E-01 0.79837313E+02</pdfrwt>
<pdfrwt beam="2">  1       -1 0.26373971E-02 0.79837313E+02</pdfrwt>
<totfact> 0.17466977E+05</totfact>
</mgrwt>
</event>
<event>
 8    1  0.1520917E-013  0.7669604E+02  0.7818608E-02  0.1338698E+00
          2   -1    0    0  501    0  0.00000000000E+00  0.00000000000E+00  0.29381301202E+03  0.29381301203E+03  0.25500000000E-02 0. -1.
         -1   -1    0    0    0  501 -0.00000000000E+00 -0.00000000000E+00 -0.50051232273E+01  0.50051257648E+01  0.50400000000E-02 0.  1.
         24    2    1    2    0    0  0.71054273576E-14  0.00000000000E+00  0.28880788879E+03  0.29881813779E+03  0.76696041924E+02 0.  0.
         66    2    3    3    0    0  0.32137211419E+02  0.74061039572E+01  0.22054291212E+03  0.22300409597E+03  0.19999999287E+01 0.  0.
        -13    1    3    3    0    0 -0.32137211419E+02 -0.74061039572E+01  0.68264976666E+02  0.75814041819E+02  0.10566000000E+00 0.  1.
         13    1    4    4    0    0  0.25460615969E+02  0.53600603491E+01  0.17330386213E+03  0.17524614976E+03  0.10566000000E+00 0. -1.
        -13    1    4    4    0    0  0.61612803524E+01  0.20702515404E+01  0.44182698729E+02  0.44658362577E+02  0.10566000000E+00 0.  1.
         14    1    4    4    0    0  0.51531509786E+00 -0.24207932333E-01  0.30563512680E+01  0.30995836410E+01  0.00000000000E+00 0. -1.
<mgrwt>
<rscale>  0 0.76696042E+02</rscale>
<asrwt>0</asrwt>
<pdfrwt beam="1">  1        2 0.45202016E-01 0.76696042E+02</pdfrwt>
<pdfrwt beam="2">  1       -1 0.77001892E-03 0.76696042E+02</pdfrwt>
<totfact> 0.28255635E+05</totfact>
</mgrwt>
</event>
<event>
 8    1  0.1520917E-013  0.7901981E+02  0.7818608E-02  0.1331856E+00
          2   -1    0    0  501    0  0.00000000000E+00  0.00000000000E+00  0.15040690116E+03  0.15040690118E+03  0.25500000000E-02 0. -1.
         -1   -1    0    0    0  501 -0.00000000000E+00 -0.00000000000E+00 -0.10378728071E+02  0.10378729294E+02  0.50400000000E-02 0.  1.
         24    2    1    2    0    0  0.00000000000E+00  0.17763568394E-14  0.14002817309E+03  0.16078563048E+03  0.79019805801E+02 0.  0.
         66    2    3    3    0    0 -0.32647941957E+02  0.88447568178E+01  0.11150532956E+03  0.11653993459E+03  0.19999993266E+01 0.  0.
        -13    1    3    3    0    0  0.32647941957E+02 -0.88447568178E+01  0.28522843531E+02  0.44245695885E+02  0.10566000000E+00 0.  1.
         13    1    4    4    0    0 -0.17837963931E+02  0.42192807267E+01  0.61331017119E+02  0.64011718552E+02  0.10566000000E+00 0. -1.
        -13    1    4    4    0    0 -0.12660571676E+02  0.41204192883E+01  0.44036413720E+02  0.46005269563E+02  0.10566000000E+00 0.  1.
         14    1    4    4    0    0 -0.21494063506E+01  0.50505680271E+00  0.61378987221E+01  0.65229464782E+01  0.00000000000E+00 0. -1.
<mgrwt>
<rscale>  0 0.79019806E+02</rscale>
<asrwt>0</asrwt>
<pdfrwt beam="1">  1        2 0.23139524E-01 0.79019806E+02</pdfrwt>
<pdfrwt beam="2">  1       -1 0.15967274E-02 0.79019806E+02</pdfrwt>
<totfact> 0.20713665E+05</totfact>
</mgrwt>
</event>
<event>
 8    1  0.1520917E-013  0.8516135E+02  0.7818608E-02  0.1315011E+00
         -1   -1    0    0    0  501 -0.00000000000E+00  0.00000000000E+00  0.56812295715E+01  0.56812318071E+01  0.50400000000E-02 0.  1.
          2   -1    0    0  501    0  0.00000000000E+00 -0.00000000000E+00 -0.31914101714E+03  0.31914101715E+03  0.25500000000E-02 0. -1.
         24    2    1    2    0    0  0.35527136788E-14  0.00000000000E+00 -0.31345978757E+03  0.32482224896E+03  0.85161346838E+02 0.  0.
         66    2    3    3    0    0 -0.16183617827E+02 -0.36592369780E+02 -0.21211508853E+03  0.21586505461E+03  0.20000023025E+01 0.  0.
        -13    1    3    3    0    0  0.16183617827E+02  0.36592369780E+02 -0.10134469904E+03  0.10895719435E+03  0.10566000000E+00 0.  1.
         13    1    4    4    0    0 -0.61377182574E+01 -0.13473617104E+02 -0.77910394416E+02  0.79304795980E+02  0.10566000000E+00 0. -1.
        -13    1    4    4    0    0 -0.10639064804E+01 -0.27159740914E+01 -0.13142994152E+02  0.13463204358E+02  0.10566000000E+00 0.  1.
        -14    1    4    4    0    0 -0.89819930893E+01 -0.20402778584E+02 -0.12106169996E+03  0.12309705427E+03  0.00000000000E+00 0.  1.
<mgrwt>
<rscale>  0 0.85161347E+02</rscale>
<asrwt>0</asrwt>
<pdfrwt beam="1">  1        2 0.49098604E-01 0.85161347E+02</pdfrwt>
<pdfrwt beam="2">  1       -1 0.87403575E-03 0.85161347E+02</pdfrwt>
<totfact> 0.22121164E+05</totfact>
</mgrwt>
</event>
<event>
 8    1  0.1520917E-013  0.7979762E+02  0.7818608E-02  0.1329627E+00
         -1   -1    0    0    0  501 -0.00000000000E+00  0.00000000000E+00  0.51009016757E+02  0.51009017006E+02  0.50400000000E-02 0.  1.
          2   -1    0    0  501    0  0.00000000000E+00 -0.00000000000E+00 -0.31208506079E+02  0.31208506184E+02  0.25500000000E-02 0. -1.
         24    2    1    2    0    0  0.00000000000E+00  0.00000000000E+00  0.19800510678E+02  0.82217523190E+02  0.79797624629E+02 0.  0.
         66    2    3    3    0    0 -0.17225601641E+02  0.16097985934E+02 -0.23225255520E+02  0.33155376641E+02  0.20000008137E+01 0.  0.
        -13    1    3    3    0    0  0.17225601641E+02 -0.16097985934E+02  0.43025766197E+02  0.49062146548E+02  0.10566000000E+00 0.  1.
         13    1    4    4    0    0 -0.12878385722E+01  0.13626199320E+01 -0.18033431893E+01  0.26035498768E+01  0.10566000000E+00 0. -1.
        -13    1    4    4    0    0 -0.51996853760E+01  0.36895595452E+01 -0.64475178788E+01  0.90681436072E+01  0.10566000000E+00 0.  1.
        -14    1    4    4    0    0 -0.10738077693E+02  0.11045806457E+02 -0.14974394451E+02  0.21483683157E+02  0.00000000000E+00 0.  1.
<mgrwt>
<rscale>  0 0.79797625E+02</rscale>
<asrwt>0</asrwt>
<pdfrwt beam="1">  1        2 0.48013086E-02 0.79797625E+02</pdfrwt>
<pdfrwt beam="2">  1       -1 0.78475411E-02 0.79797625E+02</pdfrwt>
<totfact> 0.13657075E+05</totfact>
</mgrwt>
</event>
<event>
 8    1  0.1520917E-013  0.8050351E+02  0.7818608E-02  0.1327629E+00
          2   -1    0    0  501    0  0.00000000000E+00  0.00000000000E+00  0.51250140995E+03  0.51250140996E+03  0.25500000000E-02 0. -1.
         -1   -1    0    0    0  501 -0.00000000000E+00 -0.00000000000E+00 -0.31613624574E+01  0.31613664749E+01  0.50400000000E-02 0.  1.
         24    2    1    2    0    0  0.00000000000E+00  0.00000000000E+00  0.50934004750E+03  0.51566277643E+03  0.80503509346E+02 0.  0.
         66    2    3    3    0    0 -0.30757400555E+02 -0.38898890226E+00  0.42087919745E+03  0.42200647843E+03  0.19999971464E+01 0.  0.
        -13    1    3    3    0    0  0.30757400555E+02  0.38898890226E+00  0.88460850049E+02  0.93656298008E+02  0.10566000000E+00 0.  1.
         13    1    4    4    0    0 -0.66290637217E+01 -0.15043045454E+00  0.97712129001E+02  0.97936910473E+02  0.10566000000E+00 0. -1.
        -13    1    4    4    0    0 -0.10878421717E+02 -0.78335343018E+00  0.14472406928E+03  0.14513449312E+03  0.10566000000E+00 0.  1.
         14    1    4    4    0    0 -0.13249915117E+02  0.54479498246E+00  0.17844299917E+03  0.17893507483E+03  0.00000000000E+00 0. -1.
<mgrwt>
<rscale>  0 0.80503509E+02</rscale>
<asrwt>0</asrwt>
<pdfrwt beam="1">  1        2 0.78846370E-01 0.80503509E+02</pdfrwt>
<pdfrwt beam="2">  1       -1 0.48636377E-03 0.80503509E+02</pdfrwt>
<totfact> 0.30192372E+05</totfact>
</mgrwt>
</event>
<event>
 8    1  0.1520917E-013  0.7984934E+02  0.7818608E-02  0.1329480E+00
          2   -1    0    0  501    0  0.00000000000E+00  0.00000000000E+00  0.25980610888E+03  0.25980610889E+03  0.25500000000E-02 0. -1.
         -1   -1    0    0    0  501 -0.00000000000E+00 -0.00000000000E+00 -0.61352633806E+01  0.61352654508E+01  0.50400000000E-02 0.  1.
         24    2    1    2    0    0  0.00000000000E+00  0.00000000000E+00  0.25367084550E+03  0.26594137434E+03  0.79849337700E+02 0.  0.
         66    2    3    3    0    0 -0.11269255129E+02 -0.10683022405E+02  0.24932517820E+03  0.24981626761E+03  0.19999991139E+01 0.  0.
        -13    1    3    3    0    0  0.11269255129E+02  0.10683022405E+02  0.43456672929E+01  0.16125106732E+02  0.10566000000E+00 0.  1.
         13    1    4    4    0    0 -0.69982777813E+01 -0.76972751941E+01  0.16331402573E+03  0.16364506134E+03  0.10566000000E+00 0. -1.
        -13    1    4    4    0    0 -0.17779395288E+01 -0.91321490378E+00  0.34865530054E+02  0.34922934877E+02  0.10566000000E+00 0.  1.
         14    1    4    4    0    0 -0.24930378190E+01 -0.20725323072E+01  0.51145622424E+02  0.51248271394E+02  0.00000000000E+00 0. -1.
<mgrwt>
<rscale>  0 0.79849338E+02</rscale>
<asrwt>0</asrwt>
<pdfrwt beam="1">  1        2 0.39970170E-01 0.79849338E+02</pdfrwt>
<pdfrwt beam="2">  1       -1 0.94388685E-03 0.79849338E+02</pdfrwt>
<totfact> 0.24320872E+05</totfact>
</mgrwt>
</event>
<event>
 8    1  0.1520917E-013  0.8055591E+02  0.7818608E-02  0.1327481E+00
          2   -1    0    0  501    0  0.00000000000E+00  0.00000000000E+00  0.14957925904E+03  0.14957925906E+03  0.25500000000E-02 0. -1.
         -1   -1    0    0    0  501 -0.00000000000E+00 -0.00000000000E+00 -0.10845845203E+02  0.10845846374E+02  0.50400000000E-02 0.  1.
         24    2    1    2    0    0  0.00000000000E+00  0.00000000000E+00  0.13873341384E+03  0.16042510543E+03  0.80555908159E+02 0.  0.
         66    2    3    3    0    0  0.29571938731E+01 -0.38826405875E+02  0.89725696355E+02  0.97831157441E+02  0.19999977674E+01 0.  0.
        -13    1    3    3    0    0 -0.29571938731E+01  0.38826405875E+02  0.49007717480E+02  0.62593947994E+02  0.10566000000E+00 0.  1.
         13    1    4    4    0    0  0.78532044726E+00 -0.91931498726E+01  0.19347536719E+02  0.21435229738E+02  0.10566000000E+00 0. -1.
        -13    1    4    4    0    0  0.14874846591E+01 -0.18656546243E+02  0.45034757482E+02  0.48769046267E+02  0.10566000000E+00 0.  1.
         14    1    4    4    0    0  0.68438876679E+00 -0.10976709759E+02  0.25343402153E+02  0.27626881435E+02  0.00000000000E+00 0. -1.
<mgrwt>
<rscale>  0 0.80555908E+02</rscale>
<asrwt>0</asrwt>
<pdfrwt beam="1">  1        2 0.23012195E-01 0.80555908E+02</pdfrwt>
<pdfrwt beam="2">  1       -1 0.16685916E-02 0.80555908E+02</pdfrwt>
<totfact> 0.19647386E+05</totfact>
</mgrwt>
</event>
<event>
 8    1  0.1520917E-013  0.7931293E+02  0.7818608E-02  0.1331013E+00
         -1   -1    0    0    0  501 -0.00000000000E+00  0.00000000000E+00  0.43531352679E+01  0.43531381856E+01  0.50400000000E-02 0.  1.
          2   -1    0    0  501    0  0.00000000000E+00 -0.00000000000E+00 -0.36126484733E+03  0.36126484733E+03  0.25500000000E-02 0. -1.
         24    2    1    2    0    0  0.00000000000E+00  0.00000000000E+00 -0.35691171206E+03  0.36561798552E+03  0.79312931681E+02 0.  0.
         66    2    3    3    0    0 -0.21406009786E+00  0.38345511213E+02 -0.22471469808E+03  0.22797175157E+03  0.19999822350E+01 0.  0.
        -13    1    3    3    0    0  0.21406009786E+00 -0.38345511213E+02 -0.13219701398E+03  0.13764623395E+03  0.10566000000E+00 0.  1.
         13    1    4    4    0    0  0.11770155222E+00  0.10117563500E+02 -0.57345880721E+02  0.58231779507E+02  0.10566000000E+00 0. -1.
        -13    1    4    4    0    0 -0.49378705609E+00  0.43709507630E+01 -0.28126418095E+02  0.28468501807E+02  0.10566000000E+00 0.  1.
        -14    1    4    4    0    0  0.16202540601E+00  0.23856996950E+02 -0.13924239926E+03  0.14127147025E+03  0.00000000000E+00 0.  1.
<mgrwt>
<rscale>  0 0.79312932E+02</rscale>
<asrwt>0</asrwt>
<pdfrwt beam="1">  1        2 0.55579184E-01 0.79312932E+02</pdfrwt>
<pdfrwt beam="2">  1       -1 0.66971363E-03 0.79312932E+02</pdfrwt>
<totfact> 0.27876970E+05</totfact>
</mgrwt>
</event>
<event>
 8    1  0.1520917E-013  0.8016627E+02  0.7818608E-02  0.1328580E+00
          2   -1    0    0  501    0  0.00000000000E+00  0.00000000000E+00  0.11671211269E+03  0.11671211272E+03  0.25500000000E-02 0. -1.
         -1   -1    0    0    0  501 -0.00000000000E+00 -0.00000000000E+00 -0.13765988644E+02  0.13765989567E+02  0.50400000000E-02 0.  1.
         24    2    1    2    0    0 -0.35527136788E-14 -0.71054273576E-14  0.10294612405E+03  0.13047810229E+03  0.80166269215E+02 0.  0.
         66    2    3    3    0    0  0.11797730184E+02  0.33504394465E+02  0.21364991084E+02  0.41499322200E+02  0.20000032727E+01 0.  0.
        -13    1    3    3    0    0 -0.11797730184E+02 -0.33504394465E+02  0.81581132963E+02  0.88978780086E+02  0.10566000000E+00 0.  1.
         13    1    4    4    0    0  0.12118508836E+01  0.51036666284E+01  0.30666232272E+01  0.60771159007E+01  0.10566000000E+00 0. -1.
        -13    1    4    4    0    0  0.26535962220E+01  0.67771009581E+01  0.49268707135E+01  0.87895329437E+01  0.10566000000E+00 0.  1.
         14    1    4    4    0    0  0.79322830782E+01  0.21623626879E+02  0.13371497143E+02  0.26632673356E+02  0.00000000000E+00 0. -1.
<mgrwt>
<rscale>  0 0.80166269E+02</rscale>
<asrwt>0</asrwt>
<pdfrwt beam="1">  1        2 0.17955709E-01 0.80166269E+02</pdfrwt>
<pdfrwt beam="2">  1       -1 0.21178445E-02 0.80166269E+02</pdfrwt>
<totfact> 0.18430266E+05</totfact>
</mgrwt>
</event>
<event>
 8    1  0.1520917E-013  0.7617350E+02  0.7818608E-02  0.1340275E+00
         -1   -1    0    0    0  501 -0.00000000000E+00  0.00000000000E+00  0.15811725608E+01  0.15811805933E+01  0.50400000000E-02 0.  1.
          2   -1    0    0  501    0  0.00000000000E+00 -0.00000000000E+00 -0.91741849293E+03  0.91741849294E+03  0.25500000000E-02 0. -1.
         24    2    1    2    0    0  0.00000000000E+00  0.17763568394E-14 -0.91583732037E+03  0.91899967353E+03  0.76173503013E+02 0.  0.
         66    2    3    3    0    0 -0.22544764989E+02  0.13120203765E+02 -0.79261756463E+03  0.79304918506E+03  0.19999993603E+01 0.  0.
        -13    1    3    3    0    0  0.22544764989E+02 -0.13120203765E+02 -0.12321975575E+03  0.12595048847E+03  0.10566000000E+00 0.  1.
         13    1    4    4    0    0 -0.87164052128E+01  0.55499798478E+01 -0.32400260490E+03  0.32416735978E+03  0.10566000000E+00 0. -1.
        -13    1    4    4    0    0 -0.13530476292E+02  0.74984502511E+01 -0.45353429769E+03  0.45379805078E+03  0.10566000000E+00 0.  1.
        -14    1    4    4    0    0 -0.29788348424E+00  0.71773666108E-01 -0.15080662030E+02  0.15083774505E+02  0.00000000000E+00 0.  1.
<mgrwt>
<rscale>  0 0.76173503E+02</rscale>
<asrwt>0</asrwt>
<pdfrwt beam="1">  1        2 0.14114088E+00 0.76173503E+02</pdfrwt>
<pdfrwt beam="2">  1       -1 0.24325867E-03 0.76173503E+02</pdfrwt>
<totfact> 0.39756072E+05</totfact>
</mgrwt>
</event>
<event>
 8    1  0.1520917E-013  0.7881463E+02  0.7818608E-02  0.1332449E+00
         -1   -1    0    0    0  501 -0.00000000000E+00  0.00000000000E+00  0.79973068579E+00  0.79974656698E+00  0.50400000000E-02 0.  1.
          2   -1    0    0  501    0  0.00000000000E+00 -0.00000000000E+00 -0.19418052178E+04  0.19418052178E+04  0.25500000000E-02 0. -1.
         24    2    1    2    0    0  0.22204460493E-15  0.00000000000E+00 -0.19410054871E+04  0.19426049644E+04  0.78814634315E+02 0.  0.
         66    2    3    3    0    0  0.19928175404E+01 -0.10522232991E+02 -0.19052221156E+04  0.19052532636E+04  0.20000000872E+01 0.  0.
        -13    1    3    3    0    0 -0.19928175404E+01  0.10522232991E+02 -0.35783371501E+02  0.37351700750E+02  0.10566000000E+00 0.  1.
         13    1    4    4    0    0  0.10656867888E+01 -0.63942299949E+01 -0.11614915686E+04  0.11615096628E+04  0.10566000000E+00 0. -1.
        -13    1    4    4    0    0  0.91988173675E+00 -0.32903352772E+01 -0.66033052575E+03  0.66033937251E+03  0.10566000000E+00 0.  1.
         14    1    4    4    0    0  0.72490148533E-02 -0.83766771936E+00 -0.83400021293E+02  0.83404228258E+02  0.00000000000E+00 0. -1.
<mgrwt>
<rscale>  0 0.78814634E+02</rscale>
<asrwt>0</asrwt>
<pdfrwt beam="1">  1        2 0.29873549E+00 0.78814634E+02</pdfrwt>
<pdfrwt beam="2">  1       -1 0.12303827E-03 0.78814634E+02</pdfrwt>
<totfact> 0.29632393E+05</totfact>
</mgrwt>
</event>
<event>
 8    1  0.1520917E-013  0.7915600E+02  0.7818608E-02  0.1331464E+00
          2   -1    0    0  501    0  0.00000000000E+00  0.00000000000E+00  0.56990418847E+02  0.56990418904E+02  0.25500000000E-02 0. -1.
         -1   -1    0    0    0  501 -0.00000000000E+00 -0.00000000000E+00 -0.27485637154E+02  0.27485637616E+02  0.50400000000E-02 0.  1.
         24    2    1    2    0    0 -0.17763568394E-14  0.71054273576E-14  0.29504781693E+02  0.84476056521E+02  0.79155997767E+02 0.  0.
         66    2    3    3    0    0 -0.77457705188E+01  0.36239076845E+02  0.29516528140E+02  0.47418277937E+02  0.19999993884E+01 0.  0.
        -13    1    3    3    0    0  0.77457705188E+01 -0.36239076845E+02 -0.11746447265E-01  0.37057778583E+02  0.10566000000E+00 0.  1.
         13    1    4    4    0    0 -0.21299163126E+01  0.70535300544E+01  0.56387933817E+01  0.92787921932E+01  0.10566000000E+00 0. -1.
        -13    1    4    4    0    0 -0.26434982512E+01  0.11205005745E+02  0.90064454089E+01  0.14617368426E+02  0.10566000000E+00 0.  1.
         14    1    4    4    0    0 -0.29723559551E+01  0.17980541045E+02  0.14871289350E+02  0.23522117318E+02  0.00000000000E+00 0. -1.
<mgrwt>
<rscale>  0 0.79155998E+02</rscale>
<asrwt>0</asrwt>
<pdfrwt beam="1">  1        2 0.87677567E-02 0.79155998E+02</pdfrwt>
<pdfrwt beam="2">  1       -1 0.42285596E-02 0.79155998E+02</pdfrwt>
<totfact> 0.15834816E+05</totfact>
</mgrwt>
</event>
<event>
 8    1  0.1520917E-013  0.7856792E+02  0.7818608E-02  0.1333165E+00
          2   -1    0    0  501    0  0.00000000000E+00  0.00000000000E+00  0.24037117763E+03  0.24037117765E+03  0.25500000000E-02 0. -1.
         -1   -1    0    0    0  501 -0.00000000000E+00 -0.00000000000E+00 -0.64201929880E+01  0.64201949663E+01  0.50400000000E-02 0.  1.
         24    2    1    2    0    0 -0.71054273576E-14  0.00000000000E+00  0.23395098464E+03  0.24679137261E+03  0.78567922078E+02 0.  0.
         66    2    3    3    0    0 -0.38948063611E+02  0.49267444547E+01  0.11700831561E+03  0.12343488322E+03  0.20000009951E+01 0.  0.
        -13    1    3    3    0    0  0.38948063611E+02 -0.49267444547E+01  0.11694266903E+03  0.12335648939E+03  0.10566000000E+00 0.  1.
         13    1    4    4    0    0 -0.14151200369E+02  0.11049622683E+01  0.42221441943E+02  0.44543672247E+02  0.10566000000E+00 0. -1.
        -13    1    4    4    0    0 -0.46001724453E+01  0.83699202068E+00  0.15257824008E+02  0.15958524358E+02  0.10566000000E+00 0.  1.
         14    1    4    4    0    0 -0.20196690797E+02  0.29847901657E+01  0.59529049659E+02  0.62932686617E+02  0.00000000000E+00 0. -1.
<mgrwt>
<rscale>  0 0.78567922E+02</rscale>
<asrwt>0</asrwt>
<pdfrwt beam="1">  1        2 0.36980178E-01 0.78567922E+02</pdfrwt>
<pdfrwt beam="2">  1       -1 0.98772225E-03 0.78567922E+02</pdfrwt>
<totfact> 0.24679790E+05</totfact>
</mgrwt>
</event>
<event>
 8    1  0.1520917E-013  0.7998275E+02  0.7818608E-02  0.1329100E+00
         -1   -1    0    0    0  501 -0.00000000000E+00  0.00000000000E+00  0.63203035263E+01  0.63203055358E+01  0.50400000000E-02 0.  1.
          2   -1    0    0  501    0  0.00000000000E+00 -0.00000000000E+00 -0.25304317839E+03  0.25304317841E+03  0.25500000000E-02 0. -1.
         24    2    1    2    0    0  0.00000000000E+00  0.00000000000E+00 -0.24672287487E+03  0.25936348394E+03  0.79982747014E+02 0.  0.
         66    2    3    3    0    0  0.96223267718E+01  0.33648066971E+02 -0.18602610100E+03  0.18930000483E+03  0.19999980427E+01 0.  0.
        -13    1    3    3    0    0 -0.96223267718E+01 -0.33648066971E+02 -0.60696773871E+02  0.70063479115E+02  0.10566000000E+00 0.  1.
         13    1    4    4    0    0  0.31972582972E+01  0.13582607469E+02 -0.77047202467E+02  0.78300652988E+02  0.10566000000E+00 0. -1.
        -13    1    4    4    0    0  0.25091631591E+01  0.72057305006E+01 -0.37953975623E+02  0.38713484491E+02  0.10566000000E+00 0. -1.
         14    1    4    4    0    0  0.39159053155E+01  0.12859729001E+02 -0.71024922907E+02  0.72285867349E+02  0.00000000000E+00 0. -1.
<mgrwt>
<rscale>  0 0.79982747E+02</rscale>
<asrwt>0</asrwt>
<pdfrwt beam="1">  1        2 0.38929712E-01 0.79982747E+02</pdfrwt>
<pdfrwt beam="2">  1       -1 0.97235474E-03 0.79982747E+02</pdfrwt>
<totfact> 0.23985681E+05</totfact>
</mgrwt>
</event>
<event>
 8    1  0.1520917E-013  0.7933436E+02  0.7818608E-02  0.1330951E+00
          2   -1    0    0  501    0  0.00000000000E+00  0.00000000000E+00  0.17757179974E+01  0.17757198283E+01  0.25500000000E-02 0. -1.
         -1   -1    0    0    0  501 -0.00000000000E+00 -0.00000000000E+00 -0.88611170478E+03  0.88611170479E+03  0.50400000000E-02 0.  1.
         24    2    1    2    0    0  0.00000000000E+00  0.00000000000E+00 -0.88433598678E+03  0.88788742462E+03  0.79334363829E+02 0.  0.
         66    2    3    3    0    0 -0.20549069058E+02 -0.25513061209E+02 -0.69227669465E+03  0.69305425653E+03  0.20000010289E+01 0.  0.
        -13    1    3    3    0    0  0.20549069058E+02  0.25513061209E+02 -0.19205929213E+03  0.19483316809E+03  0.10566000000E+00 0.  1.
         13    1    4    4    0    0 -0.78260672212E+01 -0.10574894963E+02 -0.26908512715E+03  0.26940655625E+03  0.10566000000E+00 0. -1.
        -13    1    4    4    0    0 -0.12213229816E+01 -0.16570341921E+01 -0.38488552278E+02  0.38543705227E+02  0.10566000000E+00 0.  1.
         14    1    4    4    0    0 -0.11501678855E+02 -0.13281132054E+02 -0.38470301523E+03  0.38510399506E+03  0.00000000000E+00 0. -1.
<mgrwt>
<rscale>  0 0.79334364E+02</rscale>
<asrwt>0</asrwt>
<pdfrwt beam="1">  1        2 0.27318823E-03 0.79334364E+02</pdfrwt>
<pdfrwt beam="2">  1       -1 0.13632453E+00 0.79334364E+02</pdfrwt>
<totfact> 0.42568531E+04</totfact>
</mgrwt>
</event>
<event>
 8    1  0.1520917E-013  0.7811188E+02  0.7818608E-02  0.1334497E+00
          2   -1    0    0  501    0  0.00000000000E+00  0.00000000000E+00  0.13660492089E+04  0.13660492089E+04  0.25500000000E-02 0. -1.
         -1   -1    0    0    0  501 -0.00000000000E+00 -0.00000000000E+00 -0.11166205268E+01  0.11166319011E+01  0.50400000000E-02 0.  1.
         24    2    1    2    0    0  0.35527136788E-14  0.00000000000E+00  0.13649325884E+04  0.13671658408E+04  0.78111877822E+02 0.  0.
         66    2    3    3    0    0 -0.13509551110E+02 -0.13892667426E+02  0.12759008195E+04  0.12760495348E+04  0.19999976916E+01 0.  0.
        -13    1    3    3    0    0  0.13509551110E+02  0.13892667426E+02  0.89031768896E+02  0.91116305984E+02  0.10566000000E+00 0.  1.
         13    1    4    4    0    0 -0.15043161431E+01 -0.18844239573E+01  0.13582855425E+03  0.13584999571E+03  0.10566000000E+00 0. -1.
        -13    1    4    4    0    0 -0.82312272338E+01 -0.74814954734E+01  0.71957491269E+03  0.71966088681E+03  0.10566000000E+00 0.  1.
         14    1    4    4    0    0 -0.37740077329E+01 -0.45267479954E+01  0.42049735254E+03  0.42053865229E+03  0.00000000000E+00 0. -1.
<mgrwt>
<rscale>  0 0.78111878E+02</rscale>
<asrwt>0</asrwt>
<pdfrwt beam="1">  1        2 0.21016097E+00 0.78111878E+02</pdfrwt>
<pdfrwt beam="2">  1       -1 0.17178902E-03 0.78111878E+02</pdfrwt>
<totfact> 0.36426155E+05</totfact>
</mgrwt>
</event>
<event>
 8    1  0.1520917E-013  0.7822777E+02  0.7818608E-02  0.1334157E+00
          2   -1    0    0  501    0  0.00000000000E+00  0.00000000000E+00  0.12081448084E+02  0.12081448354E+02  0.25500000000E-02 0. -1.
         -1   -1    0    0    0  501 -0.00000000000E+00 -0.00000000000E+00 -0.12663183285E+03  0.12663183295E+03  0.50400000000E-02 0.  1.
         24    2    1    2    0    0  0.00000000000E+00  0.00000000000E+00 -0.11455038476E+03  0.13871328130E+03  0.78227768471E+02 0.  0.
         66    2    3    3    0    0 -0.30453954041E+02  0.17117321816E+02 -0.26221087141E+02  0.43726324274E+02  0.20000001916E+01 0.  0.
        -13    1    3    3    0    0  0.30453954041E+02 -0.17117321816E+02 -0.88329297621E+02  0.94986957027E+02  0.10566000000E+00 0.  1.
         13    1    4    4    0    0 -0.11989146145E+02  0.68520141423E+01 -0.10667223325E+02  0.17449657320E+02  0.10566000000E+00 0. -1.
        -13    1    4    4    0    0 -0.12828414189E+02  0.63605984530E+01 -0.10314030635E+02  0.17646977510E+02  0.10566000000E+00 0.  1.
         14    1    4    4    0    0 -0.56363937073E+01  0.39047092212E+01 -0.52398331812E+01  0.86296894436E+01  0.00000000000E+00 0. -1.
<mgrwt>
<rscale>  0 0.78227768E+02</rscale>
<asrwt>0</asrwt>
<pdfrwt beam="1">  1        2 0.18586844E-02 0.78227768E+02</pdfrwt>
<pdfrwt beam="2">  1       -1 0.19481820E-01 0.78227768E+02</pdfrwt>
<totfact> 0.11894618E+05</totfact>
</mgrwt>
</event>
<event>
 8    1  0.1520917E-013  0.7823023E+02  0.7818608E-02  0.1334150E+00
          2   -1    0    0  501    0  0.00000000000E+00  0.00000000000E+00  0.48789581526E+03  0.48789581527E+03  0.25500000000E-02 0. -1.
         -1   -1    0    0    0  501 -0.00000000000E+00 -0.00000000000E+00 -0.31358973495E+01  0.31359013996E+01  0.50400000000E-02 0.  1.
         24    2    1    2    0    0  0.00000000000E+00  0.17763568394E-14  0.48475991791E+03  0.49103171667E+03  0.78230229194E+02 0.  0.
         66    2    3    3    0    0 -0.16304883225E+01 -0.14969286060E+02  0.46895814483E+03  0.46920409165E+03  0.20000003793E+01 0.  0.
        -13    1    3    3    0    0  0.16304883225E+01  0.14969286060E+02  0.15801773081E+02  0.21827625017E+02  0.10566000000E+00 0.  1.
         13    1    4    4    0    0 -0.11818093300E+01 -0.77161716472E+01  0.22361654156E+03  0.22375277607E+03  0.10566000000E+00 0. -1.
        -13    1    4    4    0    0  0.13368990762E+00 -0.50321114725E+01  0.17335243803E+03  0.17342554297E+03  0.10566000000E+00 0.  1.
        -14    1    4    4    0    0 -0.58236890008E+00 -0.22210029408E+01  0.71989165243E+02  0.72025772610E+02  0.00000000000E+00 0.  1.
<mgrwt>
<rscale>  0 0.78230229E+02</rscale>
<asrwt>0</asrwt>
<pdfrwt beam="1">  1        2 0.75060869E-01 0.78230229E+02</pdfrwt>
<pdfrwt beam="2">  1       -1 0.48244622E-03 0.78230229E+02</pdfrwt>
<totfact> 0.32025068E+05</totfact>
</mgrwt>
</event>
<event>
 8    1  0.1520917E-013  0.7149082E+02  0.7818608E-02  0.1355096E+00
         -1   -1    0    0    0  501 -0.00000000000E+00  0.00000000000E+00  0.31103926800E+02  0.31103927208E+02  0.50400000000E-02 0.  1.
          2   -1    0    0  501    0  0.00000000000E+00 -0.00000000000E+00 -0.41079522634E+02  0.41079522713E+02  0.25500000000E-02 0. -1.
         24    2    1    2    0    0  0.35527136788E-14  0.17763568394E-14 -0.99755958341E+01  0.72183449922E+02  0.71490824099E+02 0.  0.
         66    2    3    3    0    0  0.29873097721E+02  0.83109986740E+01 -0.22890676891E+02  0.38593493847E+02  0.20000030932E+01 0.  0.
        -13    1    3    3    0    0 -0.29873097721E+02 -0.83109986740E+01  0.12915081057E+02  0.33589956075E+02  0.10566000000E+00 0.  1.
         13    1    4    4    0    0  0.14280302045E+02  0.35108918053E+01 -0.10056867870E+02  0.17815867735E+02  0.10566000000E+00 0.  1.
        -13    1    4    4    0    0  0.13123394055E+02  0.38480255771E+01 -0.11096566017E+02  0.17611806090E+02  0.10566000000E+00 0. -1.
         14    1    4    4    0    0  0.24694016208E+01  0.95208129159E+00 -0.17372430036E+01  0.31658200208E+01  0.00000000000E+00 0. -1.
<mgrwt>
<rscale>  0 0.71490824E+02</rscale>
<asrwt>0</asrwt>
<pdfrwt beam="1">  1        2 0.63199265E-02 0.71490824E+02</pdfrwt>
<pdfrwt beam="2">  1       -1 0.47852196E-02 0.71490824E+02</pdfrwt>
<totfact> 0.19495654E+05</totfact>
</mgrwt>
</event>
<event>
 8    1  0.1520917E-013  0.8064403E+02  0.7818608E-02  0.1327234E+00
         -1   -1    0    0    0  501 -0.00000000000E+00  0.00000000000E+00  0.21880697234E+02  0.21880697815E+02  0.50400000000E-02 0.  1.
          2   -1    0    0  501    0  0.00000000000E+00 -0.00000000000E+00 -0.74305903106E+02  0.74305903150E+02  0.25500000000E-02 0. -1.
         24    2    1    2    0    0 -0.71054273576E-14  0.35527136788E-14 -0.52425205871E+02  0.96186600965E+02  0.80644032603E+02 0.  0.
         66    2    3    3    0    0 -0.37468927550E+02 -0.11599235339E+02 -0.15206582609E+02  0.42115352840E+02  0.19999994972E+01 0.  0.
        -13    1    3    3    0    0  0.37468927550E+02  0.11599235339E+02 -0.37218623262E+02  0.54071248125E+02  0.10566000000E+00 0.  1.
         13    1    4    4    0    0 -0.10632034451E+02 -0.36423732580E+01 -0.39938723922E+01  0.11927666169E+02  0.10566000000E+00 0. -1.
        -13    1    4    4    0    0 -0.22379411517E+01 -0.56841098018E+00 -0.13347310648E+01  0.26691089696E+01  0.10566000000E+00 0.  1.
        -14    1    4    4    0    0 -0.24598951948E+02 -0.73884511010E+01 -0.98779791522E+01  0.27518577702E+02  0.00000000000E+00 0.  1.
<mgrwt>
<rscale>  0 0.80644033E+02</rscale>
<asrwt>0</asrwt>
<pdfrwt beam="1">  1        2 0.11431677E-01 0.80644033E+02</pdfrwt>
<pdfrwt beam="2">  1       -1 0.33662612E-02 0.80644033E+02</pdfrwt>
<totfact> 0.16034956E+05</totfact>
</mgrwt>
</event>
<event>
 8    1  0.1520917E-013  0.7998646E+02  0.7818608E-02  0.1329090E+00
          2   -1    0    0  501    0  0.00000000000E+00  0.00000000000E+00  0.13580951793E+03  0.13580951795E+03  0.25500000000E-02 0. -1.
         -1   -1    0    0    0  501 -0.00000000000E+00 -0.00000000000E+00 -0.11777218937E+02  0.11777220016E+02  0.50400000000E-02 0.  1.
         24    2    1    2    0    0  0.00000000000E+00  0.00000000000E+00  0.12403229899E+03  0.14758673797E+03  0.79986461549E+02 0.  0.
         66    2    3    3    0    0  0.36702698663E+02  0.13803378388E+02  0.47782370806E+02  0.61844775917E+02  0.20000010706E+01 0.  0.
        -13    1    3    3    0    0 -0.36702698663E+02 -0.13803378388E+02  0.76249928185E+02  0.85741962051E+02  0.10566000000E+00 0.  1.
         13    1    4    4    0    0  0.12640351882E+02  0.44560930748E+01  0.15448641052E+02  0.20452553278E+02  0.10566000000E+00 0. -1.
        -13    1    4    4    0    0  0.88122766082E+01  0.40012329916E+01  0.11758771927E+02  0.15229772347E+02  0.10566000000E+00 0.  1.
         14    1    4    4    0    0  0.15250070173E+02  0.53460523220E+01  0.20574957826E+02  0.26162450292E+02  0.00000000000E+00 0. -1.
<mgrwt>
<rscale>  0 0.79986462E+02</rscale>
<asrwt>0</asrwt>
<pdfrwt beam="1">  1        2 0.20893772E-01 0.79986462E+02</pdfrwt>
<pdfrwt beam="2">  1       -1 0.18118800E-02 0.79986462E+02</pdfrwt>
<totfact> 0.19416777E+05</totfact>
</mgrwt>
</event>
<event>
 8    1  0.1520917E-013  0.8006362E+02  0.7818608E-02  0.1328871E+00
          2   -1    0    0  501    0  0.00000000000E+00  0.00000000000E+00  0.15699065168E+02  0.15699065375E+02  0.25500000000E-02 0. -1.
         -1   -1    0    0    0  501 -0.00000000000E+00 -0.00000000000E+00 -0.10207905036E+03  0.10207905049E+03  0.50400000000E-02 0.  1.
         24    2    1    2    0    0 -0.35527136788E-14  0.00000000000E+00 -0.86379985196E+02  0.11777811586E+03  0.80063616793E+02 0.  0.
         66    2    3    3    0    0 -0.24163764644E+02 -0.63520202171E+01 -0.89181328329E+02  0.92636628836E+02  0.19999992265E+01 0.  0.
        -13    1    3    3    0    0  0.24163764644E+02  0.63520202171E+01  0.28013431333E+01  0.25141487028E+02  0.10566000000E+00 0.  1.
         13    1    4    4    0    0 -0.15621187658E+02 -0.35120652785E+01 -0.55603149129E+02  0.57862573944E+02  0.10566000000E+00 0. -1.
        -13    1    4    4    0    0 -0.12646260958E+01 -0.54850325049E+00 -0.42283009094E+01  0.44485759062E+01  0.10566000000E+00 0.  1.
        -14    1    4    4    0    0 -0.72779508898E+01 -0.22914516881E+01 -0.29349878291E+02  0.30325478985E+02  0.00000000000E+00 0.  1.
<mgrwt>
<rscale>  0 0.80063617E+02</rscale>
<asrwt>0</asrwt>
<pdfrwt beam="1">  1        2 0.24152409E-02 0.80063617E+02</pdfrwt>
<pdfrwt beam="2">  1       -1 0.15704469E-01 0.80063617E+02</pdfrwt>
<totfact> 0.11777303E+05</totfact>
</mgrwt>
</event>
<event>
 8    1  0.1520917E-013  0.7937685E+02  0.7818608E-02  0.1330829E+00
         -1   -1    0    0    0  501 -0.00000000000E+00  0.00000000000E+00  0.36596700168E+01  0.36596734873E+01  0.50400000000E-02 0.  1.
          2   -1    0    0  501    0  0.00000000000E+00 -0.00000000000E+00 -0.43041318358E+03  0.43041318359E+03  0.25500000000E-02 0. -1.
         24    2    1    2    0    0  0.00000000000E+00 -0.88817841970E-15 -0.42675351356E+03  0.43407285707E+03  0.79376847447E+02 0.  0.
         66    2    3    3    0    0 -0.38822171249E+02 -0.48691496044E+01 -0.24907666171E+03  0.25213895576E+03  0.20000014862E+01 0.  0.
        -13    1    3    3    0    0  0.38822171249E+02  0.48691496044E+01 -0.17767685185E+03  0.18193390131E+03  0.10566000000E+00 0.  1.
         13    1    4    4    0    0 -0.11420483498E+02 -0.16136184560E+01 -0.72946491087E+02  0.73852778782E+02  0.10566000000E+00 0. -1.
        -13    1    4    4    0    0 -0.24760393631E+02 -0.31219332134E+01 -0.16192181502E+03  0.16383378437E+03  0.10566000000E+00 0.  1.
        -14    1    4    4    0    0 -0.26412941204E+01 -0.13359793496E+00 -0.14208355608E+02  0.14452392608E+02  0.00000000000E+00 0.  1.
<mgrwt>
<rscale>  0 0.79376847E+02</rscale>
<asrwt>0</asrwt>
<pdfrwt beam="1">  1        2 0.66217373E-01 0.79376847E+02</pdfrwt>
<pdfrwt beam="2">  1       -1 0.56302677E-03 0.79376847E+02</pdfrwt>
<totfact> 0.29575804E+05</totfact>
</mgrwt>
</event>
<event>
 8    1  0.1520917E-013  0.8160728E+02  0.7818608E-02  0.1324551E+00
          2   -1    0    0  501    0  0.00000000000E+00  0.00000000000E+00  0.51155589504E+02  0.51155589568E+02  0.25500000000E-02 0. -1.
         -1   -1    0    0    0  501 -0.00000000000E+00 -0.00000000000E+00 -0.32546531975E+02  0.32546532365E+02  0.50400000000E-02 0.  1.
         24    2    1    2    0    0  0.00000000000E+00  0.35527136788E-14  0.18609057530E+02  0.83702121933E+02  0.81607280276E+02 0.  0.
         66    2    3    3    0    0 -0.31730078408E+02 -0.20775499620E+02  0.24678482665E+02  0.45292899789E+02  0.20000010904E+01 0.  0.
        -13    1    3    3    0    0  0.31730078408E+02  0.20775499620E+02 -0.60694251358E+01  0.38409222145E+02  0.10566000000E+00 0.  1.
         13    1    4    4    0    0 -0.10144365528E+02 -0.69991301325E+01  0.80184439717E+01  0.14703828833E+02  0.10566000000E+00 0. -1.
        -13    1    4    4    0    0 -0.65562222194E+01 -0.50028550902E+01  0.51183545683E+01  0.97067670399E+01  0.10566000000E+00 0.  1.
         14    1    4    4    0    0 -0.15029490660E+02 -0.87735143977E+01  0.11541684125E+02  0.20882303916E+02  0.00000000000E+00 0. -1.
<mgrwt>
<rscale>  0 0.81607280E+02</rscale>
<asrwt>0</asrwt>
<pdfrwt beam="1">  1        2 0.78700907E-02 0.81607280E+02</pdfrwt>
<pdfrwt beam="2">  1       -1 0.50071588E-02 0.81607280E+02</pdfrwt>
<totfact> 0.14220927E+05</totfact>
</mgrwt>
</event>
<event>
 8    1  0.1520917E-013  0.8012958E+02  0.7818608E-02  0.1328684E+00
          2   -1    0    0  501    0  0.00000000000E+00  0.00000000000E+00  0.22495261847E+02  0.22495261991E+02  0.25500000000E-02 0. -1.
         -1   -1    0    0    0  501 -0.00000000000E+00 -0.00000000000E+00 -0.71356696887E+02  0.71356697065E+02  0.50400000000E-02 0.  1.
         24    2    1    2    0    0  0.00000000000E+00 -0.88817841970E-15 -0.48861435041E+02  0.93851959057E+02  0.80129584952E+02 0.  0.
         66    2    3    3    0    0  0.21271606419E+02  0.40677077039E+01  0.14998625806E+02  0.26419429658E+02  0.20000004469E+01 0.  0.
        -13    1    3    3    0    0 -0.21271606419E+02 -0.40677077039E+01 -0.63860060847E+02  0.67432529398E+02  0.10566000000E+00 0.  1.
         13    1    4    4    0    0  0.77234697625E+01  0.21982776675E+01  0.49300228346E+01  0.94234122833E+01  0.10566000000E+00 0. -1.
        -13    1    4    4    0    0  0.55145971012E+01  0.44571306890E+00  0.40130181439E+01  0.68355628874E+01  0.10566000000E+00 0.  1.
         14    1    4    4    0    0  0.80335395553E+01  0.14237169675E+01  0.60555848279E+01  0.10160454488E+02  0.00000000000E+00 0. -1.
<mgrwt>
<rscale>  0 0.80129585E+02</rscale>
<asrwt>0</asrwt>
<pdfrwt beam="1">  1        2 0.34608096E-02 0.80129585E+02</pdfrwt>
<pdfrwt beam="2">  1       -1 0.10977953E-01 0.80129585E+02</pdfrwt>
<totfact> 0.12653329E+05</totfact>
</mgrwt>
</event>
<event>
 8    1  0.1520917E-013  0.7959544E+02  0.7818608E-02  0.1330203E+00
         -1   -1    0    0    0  501 -0.00000000000E+00  0.00000000000E+00  0.60661678199E+01  0.60661699136E+01  0.50400000000E-02 0.  1.
          2   -1    0    0  501    0  0.00000000000E+00 -0.00000000000E+00 -0.26109698158E+03  0.26109698159E+03  0.25500000000E-02 0. -1.
         24    2    1    2    0    0  0.35527136788E-14  0.00000000000E+00 -0.25503081376E+03  0.26716315150E+03  0.79595436775E+02 0.  0.
         66    2    3    3    0    0 -0.18541467206E+02 -0.34076612670E+02 -0.15702063783E+03  0.16175438865E+03  0.20000013385E+01 0.  0.
        -13    1    3    3    0    0  0.18541467206E+02  0.34076612670E+02 -0.98010175929E+02  0.10540876286E+03  0.10566000000E+00 0.  1.
         13    1    4    4    0    0 -0.14246369040E+02 -0.26472597766E+02 -0.12485392947E+03  0.12842224236E+03  0.10566000000E+00 0. -1.
        -13    1    4    4    0    0 -0.12796940777E+01 -0.22009978332E+01 -0.96466240907E+01  0.99775011289E+01  0.10566000000E+00 0.  1.
         14    1    4    4    0    0 -0.30154040886E+01 -0.54030170705E+01 -0.22520084264E+02  0.23354645160E+02  0.00000000000E+00 0. -1.
<mgrwt>
<rscale>  0 0.79595437E+02</rscale>
<asrwt>0</asrwt>
<pdfrwt beam="1">  1        2 0.40168758E-01 0.79595437E+02</pdfrwt>
<pdfrwt beam="2">  1       -1 0.93325696E-03 0.79595437E+02</pdfrwt>
<totfact> 0.24569075E+05</totfact>
</mgrwt>
</event>
<event>
 8    1  0.1520917E-013  0.8181354E+02  0.7818608E-02  0.1323982E+00
          2   -1    0    0  501    0  0.00000000000E+00  0.00000000000E+00  0.52603377961E+02  0.52603378023E+02  0.25500000000E-02 0. -1.
         -1   -1    0    0    0  501 -0.00000000000E+00 -0.00000000000E+00 -0.31810954458E+02  0.31810954857E+02  0.50400000000E-02 0.  1.
         24    2    1    2    0    0 -0.17763568394E-14 -0.71054273576E-14  0.20792423503E+02  0.84414332880E+02  0.81813536291E+02 0.  0.
         66    2    3    3    0    0 -0.90876588670E+01 -0.39399684460E+02  0.16630690821E+02  0.43766431800E+02  0.19999990200E+01 0.  0.
        -13    1    3    3    0    0  0.90876588670E+01  0.39399684460E+02  0.41617326827E+01  0.40647901080E+02  0.10566000000E+00 0.  1.
         13    1    4    4    0    0 -0.42315671888E+01 -0.17668530550E+02  0.73815839354E+01  0.19610764343E+02  0.10566000000E+00 0. -1.
        -13    1    4    4    0    0 -0.39498818489E+01 -0.18351767230E+02  0.83344430844E+01  0.20539304580E+02  0.10566000000E+00 0.  1.
        -14    1    4    4    0    0 -0.90620982931E+00 -0.33793866802E+01  0.91466380083E+00  0.36163628769E+01  0.00000000000E+00 0.  1.
<mgrwt>
<rscale>  0 0.81813536E+02</rscale>
<asrwt>0</asrwt>
<pdfrwt beam="1">  1        2 0.80928273E-02 0.81813536E+02</pdfrwt>
<pdfrwt beam="2">  1       -1 0.48939931E-02 0.81813536E+02</pdfrwt>
<totfact> 0.14210683E+05</totfact>
</mgrwt>
</event>
<event>
 8    1  0.1520917E-013  0.8092808E+02  0.7818608E-02  0.1326438E+00
          2   -1    0    0  501    0  0.00000000000E+00  0.00000000000E+00  0.26612931287E+04  0.26612931287E+04  0.25500000000E-02 0. -1.
         -1   -1    0    0    0  501 -0.00000000000E+00 -0.00000000000E+00 -0.61523139307E+00  0.61525203667E+00  0.50400000000E-02 0.  1.
         24    2    1    2    0    0  0.00000000000E+00 -0.17763568394E-14  0.26606778973E+04  0.26619083808E+04  0.80928080572E+02 0.  0.
         66    2    3    3    0    0 -0.52679587764E+00 -0.13184979407E+02  0.25884828242E+04  0.25885172304E+04  0.19999893373E+01 0.  0.
        -13    1    3    3    0    0  0.52679587764E+00  0.13184979407E+02  0.72195073142E+02  0.73391150324E+02  0.10566000000E+00 0.  1.
         13    1    4    4    0    0 -0.53905646338E+00 -0.11963560039E+02  0.23324723208E+04  0.23325030667E+04  0.10566000000E+00 0. -1.
        -13    1    4    4    0    0  0.14819594013E+00 -0.61693625076E+00  0.80614161420E+02  0.80616727531E+02  0.10566000000E+00 0. -1.
         14    1    4    4    0    0 -0.13593535439E+00 -0.60448311723E+00  0.17539634195E+03  0.17539743626E+03  0.00000000000E+00 0. -1.
<mgrwt>
<rscale>  0 0.80928081E+02</rscale>
<asrwt>0</asrwt>
<pdfrwt beam="1">  1        2 0.40942797E+00 0.80928081E+02</pdfrwt>
<pdfrwt beam="2">  1       -1 0.94652975E-04 0.80928081E+02</pdfrwt>
<totfact> 0.18233605E+05</totfact>
</mgrwt>
</event>
<event>
 8    1  0.1520917E-013  0.8325477E+02  0.7818608E-02  0.1320061E+00
          2   -1    0    0  501    0  0.00000000000E+00  0.00000000000E+00  0.21105768969E+03  0.21105768971E+03  0.25500000000E-02 0. -1.
         -1   -1    0    0    0  501 -0.00000000000E+00 -0.00000000000E+00 -0.82102628886E+01  0.82102644355E+01  0.50400000000E-02 0.  1.
         24    2    1    2    0    0  0.00000000000E+00  0.35527136788E-14  0.20284742681E+03  0.21926795414E+03  0.83254772556E+02 0.  0.
         66    2    3    3    0    0  0.26856491017E+02  0.31742044685E+02  0.97752098679E+02  0.10624641784E+03  0.19999993214E+01 0.  0.
        -13    1    3    3    0    0 -0.26856491017E+02 -0.31742044685E+02  0.10509532813E+03  0.11302153630E+03  0.10566000000E+00 0.  1.
         13    1    4    4    0    0  0.12561160314E+02  0.13750000963E+02  0.43494551626E+02  0.47314188782E+02  0.10566000000E+00 0. -1.
        -13    1    4    4    0    0  0.92352407531E+01  0.11289322174E+02  0.33281506780E+02  0.36337423196E+02  0.10566000000E+00 0.  1.
        -14    1    4    4    0    0  0.50600899499E+01  0.67027215475E+01  0.20976040273E+02  0.22594805863E+02  0.00000000000E+00 0.  1.
<mgrwt>
<rscale>  0 0.83254773E+02</rscale>
<asrwt>0</asrwt>
<pdfrwt beam="1">  1        2 0.32470412E-01 0.83254773E+02</pdfrwt>
<pdfrwt beam="2">  1       -1 0.12631176E-02 0.83254773E+02</pdfrwt>
<totfact> 0.20229361E+05</totfact>
</mgrwt>
</event>
<event>
 8    1  0.1520917E-013  0.8035405E+02  0.7818608E-02  0.1328050E+00
          2   -1    0    0  501    0  0.00000000000E+00  0.00000000000E+00  0.15211079250E+02  0.15211079464E+02  0.25500000000E-02 0. -1.
         -1   -1    0    0    0  501 -0.00000000000E+00 -0.00000000000E+00 -0.10611957584E+03  0.10611957596E+03  0.50400000000E-02 0.  1.
         24    2    1    2    0    0  0.00000000000E+00  0.00000000000E+00 -0.90908496594E+02  0.12133065543E+03  0.80354049017E+02 0.  0.
         66    2    3    3    0    0 -0.45149414098E+01 -0.38154377424E+02 -0.27870378319E+02  0.47506833173E+02  0.19999994785E+01 0.  0.
        -13    1    3    3    0    0  0.45149414098E+01  0.38154377424E+02 -0.63038118274E+02  0.73823822254E+02  0.10566000000E+00 0.  1.
         13    1    4    4    0    0 -0.27294595908E+01 -0.15860467038E+02 -0.11401886368E+02  0.19723552953E+02  0.10566000000E+00 0. -1.
        -13    1    4    4    0    0 -0.51928308742E+00 -0.94924218817E+01 -0.67044607081E+01  0.11633429655E+02  0.10566000000E+00 0.  1.
         14    1    4    4    0    0 -0.12661987316E+01 -0.12801488505E+02 -0.97640312434E+01  0.16149850565E+02  0.00000000000E+00 0. -1.
<mgrwt>
<rscale>  0 0.80354049E+02</rscale>
<asrwt>0</asrwt>
<pdfrwt beam="1">  1        2 0.23401661E-02 0.80354049E+02</pdfrwt>
<pdfrwt beam="2">  1       -1 0.16326088E-01 0.80354049E+02</pdfrwt>
<totfact> 0.11573257E+05</totfact>
</mgrwt>
</event>
<event>
 8    1  0.1520917E-013  0.7381938E+02  0.7818608E-02  0.1347566E+00
          2   -1    0    0  501    0  0.00000000000E+00  0.00000000000E+00  0.38846196039E+03  0.38846196040E+03  0.25500000000E-02 0. -1.
         -1   -1    0    0    0  501 -0.00000000000E+00 -0.00000000000E+00 -0.35069704122E+01  0.35069740338E+01  0.50400000000E-02 0.  1.
         24    2    1    2    0    0  0.00000000000E+00 -0.88817841970E-15  0.38495498998E+03  0.39196893444E+03  0.73819382625E+02 0.  0.
         66    2    3    3    0    0  0.36093462183E+02  0.68708794779E+01  0.20972023690E+03  0.21292375341E+03  0.20000008916E+01 0.  0.
        -13    1    3    3    0    0 -0.36093462183E+02 -0.68708794779E+01  0.17523475309E+03  0.17904518103E+03  0.10566000000E+00 0.  1.
         13    1    4    4    0    0  0.93854173217E+01  0.24020001682E+01  0.55901610390E+02  0.56734970445E+02  0.10566000000E+00 0. -1.
        -13    1    4    4    0    0  0.17968034370E+02  0.25487468276E+01  0.10101581034E+03  0.10263309151E+03  0.10566000000E+00 0.  1.
        -14    1    4    4    0    0  0.87400104906E+01  0.19201324820E+01  0.52802816162E+02  0.53555691450E+02  0.00000000000E+00 0.  1.
<mgrwt>
<rscale>  0 0.73819383E+02</rscale>
<asrwt>0</asrwt>
<pdfrwt beam="1">  1        2 0.59763369E-01 0.73819383E+02</pdfrwt>
<pdfrwt beam="2">  1       -1 0.53953428E-03 0.73819383E+02</pdfrwt>
<totfact> 0.34472472E+05</totfact>
</mgrwt>
</event>
<event>
 8    1  0.1520917E-013  0.8009975E+02  0.7818608E-02  0.1328769E+00
         -1   -1    0    0    0  501 -0.00000000000E+00  0.00000000000E+00  0.37623665334E+01  0.37623699092E+01  0.50400000000E-02 0.  1.
          2   -1    0    0  501    0  0.00000000000E+00 -0.00000000000E+00 -0.42632522771E+03  0.42632522772E+03  0.25500000000E-02 0. -1.
         24    2    1    2    0    0  0.00000000000E+00 -0.17763568394E-14 -0.42256286118E+03  0.43008759763E+03  0.80099750228E+02 0.  0.
         66    2    3    3    0    0  0.25764150147E+01  0.11891881144E+02 -0.41615053306E+03  0.41633318497E+03  0.19999990153E+01 0.  0.
        -13    1    3    3    0    0 -0.25764150147E+01 -0.11891881144E+02 -0.64123281206E+01  0.13754412653E+02  0.10566000000E+00 0.  1.
         13    1    4    4    0    0  0.16777784442E+01  0.87356087031E+01 -0.31484668405E+03  0.31497233437E+03  0.10566000000E+00 0. -1.
        -13    1    4    4    0    0  0.55835024810E-01  0.17594940810E+01 -0.55062393986E+02  0.55090628354E+02  0.10566000000E+00 0.  1.
         14    1    4    4    0    0  0.84280154574E+00  0.13967783600E+01 -0.46241455024E+02  0.46270222249E+02  0.00000000000E+00 0. -1.
<mgrwt>
<rscale>  0 0.80099750E+02</rscale>
<asrwt>0</asrwt>
<pdfrwt beam="1">  1        2 0.65588459E-01 0.80099750E+02</pdfrwt>
<pdfrwt beam="2">  1       -1 0.57882622E-03 0.80099750E+02</pdfrwt>
<totfact> 0.28790227E+05</totfact>
</mgrwt>
</event>
<event>
 8    1  0.1520917E-013  0.7908236E+02  0.7818608E-02  0.1331676E+00
          2   -1    0    0  501    0  0.00000000000E+00  0.00000000000E+00  0.25487050824E+03  0.25487050825E+03  0.25500000000E-02 0. -1.
         -1   -1    0    0    0  501 -0.00000000000E+00 -0.00000000000E+00 -0.61345052389E+01  0.61345073093E+01  0.50400000000E-02 0.  1.
         24    2    1    2    0    0  0.00000000000E+00  0.00000000000E+00  0.24873600300E+03  0.26100501556E+03  0.79082355551E+02 0.  0.
         66    2    3    3    0    0  0.49214257580E+01 -0.32509560213E+02  0.19678662474E+03  0.19952460402E+03  0.19999997038E+01 0.  0.
        -13    1    3    3    0    0 -0.49214257580E+01  0.32509560213E+02  0.51949378259E+02  0.61480411533E+02  0.10566000000E+00 0.  1.
         13    1    4    4    0    0  0.25779736295E+01 -0.13054128765E+02  0.78902539051E+02  0.80016736116E+02  0.10566000000E+00 0. -1.
        -13    1    4    4    0    0  0.16371624480E+01 -0.16279347655E+02  0.96354233106E+02  0.97733550342E+02  0.10566000000E+00 0.  1.
         14    1    4    4    0    0  0.70628968056E+00 -0.31760837922E+01  0.21529852581E+02  0.21774317567E+02  0.00000000000E+00 0. -1.
<mgrwt>
<rscale>  0 0.79082356E+02</rscale>
<asrwt>0</asrwt>
<pdfrwt beam="1">  1        2 0.39210847E-01 0.79082356E+02</pdfrwt>
<pdfrwt beam="2">  1       -1 0.94377021E-03 0.79082356E+02</pdfrwt>
<totfact> 0.24773468E+05</totfact>
</mgrwt>
</event>
<event>
 8    1  0.1520917E-013  0.7944031E+02  0.7818608E-02  0.1330647E+00
         -1   -1    0    0    0  501 -0.00000000000E+00  0.00000000000E+00  0.55600491090E+01  0.55600513933E+01  0.50400000000E-02 0.  1.
          2   -1    0    0  501    0  0.00000000000E+00 -0.00000000000E+00 -0.28375472860E+03  0.28375472861E+03  0.25500000000E-02 0. -1.
         24    2    1    2    0    0  0.00000000000E+00  0.00000000000E+00 -0.27819467949E+03  0.28931478000E+03  0.79440306092E+02 0.  0.
         66    2    3    3    0    0  0.80634607672E+01  0.30459062427E+02 -0.22711405082E+03  0.22929798508E+03  0.19999995731E+01 0.  0.
        -13    1    3    3    0    0 -0.80634607672E+01 -0.30459062427E+02 -0.51080628665E+02  0.60016794919E+02  0.10566000000E+00 0.  1.
         13    1    4    4    0    0  0.42944672446E+01  0.15792647620E+02 -0.11767539700E+03  0.11880808218E+03  0.10566000000E+00 0. -1.
        -13    1    4    4    0    0  0.28692702349E+00  0.30597287853E+01 -0.24006461473E+02  0.24202595394E+02  0.10566000000E+00 0.  1.
         14    1    4    4    0    0  0.34820664990E+01  0.11606686022E+02 -0.85432192354E+02  0.86287307513E+02  0.00000000000E+00 0. -1.
<mgrwt>
<rscale>  0 0.79440306E+02</rscale>
<asrwt>0</asrwt>
<pdfrwt beam="1">  1        2 0.43654563E-01 0.79440306E+02</pdfrwt>
<pdfrwt beam="2">  1       -1 0.85539257E-03 0.79440306E+02</pdfrwt>
<totfact> 0.25449840E+05</totfact>
</mgrwt>
</event>
<event>
 8    1  0.1520917E-013  0.7958922E+02  0.7818608E-02  0.1330221E+00
         -1   -1    0    0    0  501 -0.00000000000E+00  0.00000000000E+00  0.53418585075E+01  0.53418608851E+01  0.50400000000E-02 0.  1.
          2   -1    0    0  501    0  0.00000000000E+00 -0.00000000000E+00 -0.29645314571E+03  0.29645314572E+03  0.25500000000E-02 0. -1.
         24    2    1    2    0    0  0.00000000000E+00  0.00000000000E+00 -0.29111128720E+03  0.30179500660E+03  0.79589223363E+02 0.  0.
         66    2    3    3    0    0 -0.14870716526E+02 -0.10671783608E+02 -0.27952801882E+03  0.28013378674E+03  0.19999988112E+01 0.  0.
        -13    1    3    3    0    0  0.14870716526E+02  0.10671783608E+02 -0.11583268379E+02  0.21661219858E+02  0.10566000000E+00 0.  1.
         13    1    4    4    0    0 -0.73895098812E+01 -0.57875381412E+01 -0.14530453297E+03  0.14560741368E+03  0.10566000000E+00 0. -1.
        -13    1    4    4    0    0 -0.12878318455E+01 -0.69243788034E+00 -0.16206074736E+02  0.16272246417E+02  0.10566000000E+00 0.  1.
        -14    1    4    4    0    0 -0.61933747988E+01 -0.41918075862E+01 -0.11801741112E+03  0.11825412665E+03  0.00000000000E+00 0.  1.
<mgrwt>
<rscale>  0 0.79589223E+02</rscale>
<asrwt>0</asrwt>
<pdfrwt beam="1">  1        2 0.45608163E-01 0.79589223E+02</pdfrwt>
<pdfrwt beam="2">  1       -1 0.82182481E-03 0.79589223E+02</pdfrwt>
<totfact> 0.25729831E+05</totfact>
</mgrwt>
</event>
<event>
 8    1  0.1520917E-013  0.8235119E+02  0.7818608E-02  0.1322508E+00
         -1   -1    0    0    0  501 -0.00000000000E+00  0.00000000000E+00  0.11976090247E+02  0.11976091308E+02  0.50400000000E-02 0.  1.
          2   -1    0    0  501    0  0.00000000000E+00 -0.00000000000E+00 -0.14156788321E+03  0.14156788323E+03  0.25500000000E-02 0. -1.
         24    2    1    2    0    0  0.00000000000E+00  0.00000000000E+00 -0.12959179296E+03  0.15354397454E+03  0.82351194979E+02 0.  0.
         66    2    3    3    0    0  0.26422250124E+02 -0.46246645322E+01 -0.12302027594E+03  0.12592661001E+03  0.19999981411E+01 0.  0.
        -13    1    3    3    0    0 -0.26422250124E+02  0.46246645322E+01 -0.65715170227E+01  0.27617364531E+02  0.10566000000E+00 0.  1.
         13    1    4    4    0    0  0.11290017070E+02 -0.19712926902E+01 -0.49522525669E+02  0.50831507877E+02  0.10566000000E+00 0.  1.
        -13    1    4    4    0    0  0.97416234944E+01 -0.14294458477E+01 -0.49351295460E+02  0.50323991012E+02  0.10566000000E+00 0. -1.
         14    1    4    4    0    0  0.53906095591E+01 -0.12239259943E+01 -0.24146454808E+02  0.24771111119E+02  0.00000000000E+00 0. -1.
<mgrwt>
<rscale>  0 0.82351195E+02</rscale>
<asrwt>0</asrwt>
<pdfrwt beam="1">  1        2 0.21779673E-01 0.82351195E+02</pdfrwt>
<pdfrwt beam="2">  1       -1 0.18424756E-02 0.82351195E+02</pdfrwt>
<totfact> 0.18204587E+05</totfact>
</mgrwt>
</event>
<event>
 8    1  0.1520917E-013  0.7979988E+02  0.7818608E-02  0.1329620E+00
         -1   -1    0    0    0  501 -0.00000000000E+00  0.00000000000E+00  0.29969894364E+02  0.29969894788E+02  0.50400000000E-02 0.  1.
          2   -1    0    0  501    0  0.00000000000E+00 -0.00000000000E+00 -0.53120140799E+02  0.53120140861E+02  0.25500000000E-02 0. -1.
         24    2    1    2    0    0 -0.71054273576E-14  0.00000000000E+00 -0.23150246435E+02  0.83090035649E+02  0.79799875402E+02 0.  0.
         66    2    3    3    0    0 -0.29527470570E+02 -0.26548951038E+02 -0.15377047212E+02  0.42628299283E+02  0.19999998349E+01 0.  0.
        -13    1    3    3    0    0  0.29527470570E+02  0.26548951038E+02 -0.77731992232E+01  0.40461736365E+02  0.10566000000E+00 0.  1.
         13    1    4    4    0    0 -0.12494977878E+02 -0.10666012518E+02 -0.66082665491E+01  0.17707869608E+02  0.10566000000E+00 0. -1.
        -13    1    4    4    0    0 -0.83387726805E+00 -0.11909060950E+01 -0.56731553176E+00  0.15641673739E+01  0.10566000000E+00 0.  1.
         14    1    4    4    0    0 -0.16198615424E+02 -0.14692032425E+02 -0.82014651311E+01  0.23356262302E+02  0.00000000000E+00 0. -1.
<mgrwt>
<rscale>  0 0.79799875E+02</rscale>
<asrwt>0</asrwt>
<pdfrwt beam="1">  1        2 0.81723293E-02 0.79799875E+02</pdfrwt>
<pdfrwt beam="2">  1       -1 0.46107530E-02 0.79799875E+02</pdfrwt>
<totfact> 0.15247056E+05</totfact>
</mgrwt>
</event>
<event>
 8    1  0.1520917E-013  0.8423548E+02  0.7818608E-02  0.1317444E+00
         -1   -1    0    0    0  501 -0.00000000000E+00  0.00000000000E+00  0.47580987566E+01  0.47581014259E+01  0.50400000000E-02 0.  1.
          2   -1    0    0  501    0  0.00000000000E+00 -0.00000000000E+00 -0.37281770455E+03  0.37281770456E+03  0.25500000000E-02 0. -1.
         24    2    1    2    0    0  0.00000000000E+00  0.00000000000E+00 -0.36805960579E+03  0.37757580598E+03  0.84235478559E+02 0.  0.
         66    2    3    3    0    0 -0.22933397350E+02 -0.33304692725E+02 -0.13171509578E+03  0.13779698738E+03  0.20000011111E+01 0.  0.
        -13    1    3    3    0    0  0.22933397350E+02  0.33304692725E+02 -0.23634451001E+03  0.23977881860E+03  0.10566000000E+00 0.  1.
         13    1    4    4    0    0 -0.30051762311E+01 -0.35822440793E+01 -0.15907065073E+02  0.16580393243E+02  0.10566000000E+00 0. -1.
        -13    1    4    4    0    0 -0.17887810297E+01 -0.23818511241E+01 -0.87728806361E+01  0.92653953526E+01  0.10566000000E+00 0.  1.
         14    1    4    4    0    0 -0.18139440089E+02 -0.27340597522E+02 -0.10703515007E+03  0.11195119879E+03  0.00000000000E+00 0. -1.
<mgrwt>
<rscale>  0 0.84235479E+02</rscale>
<asrwt>0</asrwt>
<pdfrwt beam="1">  1        2 0.57356547E-01 0.84235479E+02</pdfrwt>
<pdfrwt beam="2">  1       -1 0.73201569E-03 0.84235479E+02</pdfrwt>
<totfact> 0.24075278E+05</totfact>
</mgrwt>
</event>
<event>
 8    1  0.1520917E-013  0.8137846E+02  0.7818608E-02  0.1325184E+00
         -1   -1    0    0    0  501 -0.00000000000E+00  0.00000000000E+00  0.31774982820E+01  0.31775022791E+01  0.50400000000E-02 0.  1.
          2   -1    0    0  501    0  0.00000000000E+00 -0.00000000000E+00 -0.52104272295E+03  0.52104272296E+03  0.25500000000E-02 0. -1.
         24    2    1    2    0    0  0.00000000000E+00  0.00000000000E+00 -0.51786522467E+03  0.52422022523E+03  0.81378459223E+02 0.  0.
         66    2    3    3    0    0  0.40531652972E+01 -0.11170592150E+02 -0.50960567404E+03  0.50974812730E+03  0.19999994954E+01 0.  0.
        -13    1    3    3    0    0 -0.40531652972E+01  0.11170592150E+02 -0.82595506268E+01  0.14472097931E+02  0.10566000000E+00 0.  1.
         13    1    4    4    0    0  0.32393418129E+01 -0.75140228014E+01 -0.35292072934E+03  0.35301558923E+03  0.10566000000E+00 0. -1.
        -13    1    4    4    0    0  0.92125075511E-01 -0.49922623047E+00 -0.11785628519E+02  0.11797030028E+02  0.10566000000E+00 0.  1.
         14    1    4    4    0    0  0.72169840882E+00 -0.31573431185E+01 -0.14489931618E+03  0.14493550805E+03  0.00000000000E+00 0. -1.
<mgrwt>
<rscale>  0 0.81378459E+02</rscale>
<asrwt>0</asrwt>
<pdfrwt beam="1">  1        2 0.80160351E-01 0.81378459E+02</pdfrwt>
<pdfrwt beam="2">  1       -1 0.48884661E-03 0.81378459E+02</pdfrwt>
<totfact> 0.29505025E+05</totfact>
</mgrwt>
</event>
<event>
 8    1  0.1520917E-013  0.8009723E+02  0.7818608E-02  0.1328776E+00
         -1   -1    0    0    0  501 -0.00000000000E+00  0.00000000000E+00  0.71446572089E+02  0.71446572267E+02  0.50400000000E-02 0.  1.
          2   -1    0    0  501    0  0.00000000000E+00 -0.00000000000E+00 -0.22448824648E+02  0.22448824793E+02  0.25500000000E-02 0. -1.
         24    2    1    2    0    0  0.00000000000E+00  0.00000000000E+00  0.48997747441E+02  0.93895397059E+02  0.80097230506E+02 0.  0.
         66    2    3    3    0    0  0.25772714047E+02 -0.30142750326E+02  0.18193806770E+02  0.43678745325E+02  0.20000004473E+01 0.  0.
        -13    1    3    3    0    0 -0.25772714047E+02  0.30142750326E+02  0.30803940671E+02  0.50216651735E+02  0.10566000000E+00 0.  1.
         13    1    4    4    0    0  0.14805941135E+02 -0.16156898529E+02  0.10283931254E+02  0.24208090983E+02  0.10566000000E+00 0. -1.
        -13    1    4    4    0    0  0.40459062377E+01 -0.49939283393E+01  0.24586435774E+01  0.68822067550E+01  0.10566000000E+00 0.  1.
         14    1    4    4    0    0  0.69208666740E+01 -0.89919234581E+01  0.54512319384E+01  0.12588447587E+02  0.00000000000E+00 0. -1.
<mgrwt>
<rscale>  0 0.80097231E+02</rscale>
<asrwt>0</asrwt>
<pdfrwt beam="1">  1        2 0.34536654E-02 0.80097231E+02</pdfrwt>
<pdfrwt beam="2">  1       -1 0.10991780E-01 0.80097231E+02</pdfrwt>
<totfact> 0.12662693E+05</totfact>
</mgrwt>
</event>
<event>
 8    1  0.1520917E-013  0.8211837E+02  0.7818608E-02  0.1323145E+00
         -1   -1    0    0    0  501 -0.00000000000E+00  0.00000000000E+00  0.18268413489E+01  0.18268483012E+01  0.50400000000E-02 0.  1.
          2   -1    0    0  501    0  0.00000000000E+00 -0.00000000000E+00 -0.92282418918E+03  0.92282418919E+03  0.25500000000E-02 0. -1.
         24    2    1    2    0    0  0.00000000000E+00 -0.35527136788E-14 -0.92099734783E+03  0.92465103749E+03  0.82118368284E+02 0.  0.
         66    2    3    3    0    0 -0.65024367494E+01 -0.26635644179E+02 -0.80454400656E+03  0.80501353884E+03  0.20000003010E+01 0.  0.
        -13    1    3    3    0    0  0.65024367494E+01  0.26635644179E+02 -0.11645334128E+03  0.11963749865E+03  0.10566000000E+00 0.  1.
         13    1    4    4    0    0 -0.20299791853E+01 -0.73657361896E+01 -0.22339374992E+03  0.22352439141E+03  0.10566000000E+00 0. -1.
        -13    1    4    4    0    0 -0.40682026813E+01 -0.18769468609E+02 -0.56141345829E+03  0.56174186736E+03  0.10566000000E+00 0.  1.
        -14    1    4    4    0    0 -0.40425488280E+00 -0.50043938079E+00 -0.19736798338E+02  0.19747280071E+02  0.00000000000E+00 0.  1.
<mgrwt>
<rscale>  0 0.82118368E+02</rscale>
<asrwt>0</asrwt>
<pdfrwt beam="1">  1        2 0.14197258E+00 0.82118368E+02</pdfrwt>
<pdfrwt beam="2">  1       -1 0.28105379E-03 0.82118368E+02</pdfrwt>
<totfact> 0.32734787E+05</totfact>
</mgrwt>
</event>
<event>
 8    1  0.1520917E-013  0.7910437E+02  0.7818608E-02  0.1331612E+00
          2   -1    0    0  501    0  0.00000000000E+00  0.00000000000E+00  0.51271369248E+03  0.51271369248E+03  0.25500000000E-02 0. -1.
         -1   -1    0    0    0  501 -0.00000000000E+00 -0.00000000000E+00 -0.30511650119E+01  0.30511691745E+01  0.50400000000E-02 0.  1.
         24    2    1    2    0    0  0.00000000000E+00 -0.35527136788E-14  0.50966252747E+03  0.51576486166E+03  0.79104365358E+02 0.  0.
         66    2    3    3    0    0  0.72868276528E+01 -0.23148102008E+02  0.45841920306E+03  0.45906546181E+03  0.20000004545E+01 0.  0.
        -13    1    3    3    0    0 -0.72868276528E+01  0.23148102008E+02  0.51243324403E+02  0.56699399853E+02  0.10566000000E+00 0.  1.
         13    1    4    4    0    0  0.23267407405E+01 -0.80547344157E+01  0.15225179095E+03  0.15248249565E+03  0.10566000000E+00 0. -1.
        -13    1    4    4    0    0  0.50052986397E+00 -0.16561794329E+01  0.43114717591E+02  0.43149548056E+02  0.10566000000E+00 0.  1.
        -14    1    4    4    0    0  0.44595570483E+01 -0.13437188160E+02  0.26305269453E+03  0.26343341810E+03  0.00000000000E+00 0.  1.
<mgrwt>
<rscale>  0 0.79104365E+02</rscale>
<asrwt>0</asrwt>
<pdfrwt beam="1">  1        2 0.78878966E-01 0.79104365E+02</pdfrwt>
<pdfrwt beam="2">  1       -1 0.46941070E-03 0.79104365E+02</pdfrwt>
<totfact> 0.31607407E+05</totfact>
</mgrwt>
</event>
<event>
 8    1  0.1520917E-013  0.7976165E+02  0.7818608E-02  0.1329729E+00
         -1   -1    0    0    0  501 -0.00000000000E+00  0.00000000000E+00  0.38388119619E+02  0.38388119950E+02  0.50400000000E-02 0.  1.
          2   -1    0    0  501    0  0.00000000000E+00 -0.00000000000E+00 -0.41431570330E+02  0.41431570409E+02  0.25500000000E-02 0. -1.
         24    2    1    2    0    0  0.00000000000E+00  0.00000000000E+00 -0.30434507113E+01  0.79819690358E+02  0.79761647279E+02 0.  0.
         66    2    3    3    0    0  0.30624741756E+02  0.13920849753E+02 -0.22911353125E+02  0.40750398378E+02  0.20000001191E+01 0.  0.
        -13    1    3    3    0    0 -0.30624741756E+02 -0.13920849753E+02  0.19867902414E+02  0.39069291980E+02  0.10566000000E+00 0.  1.
         13    1    4    4    0    0  0.34473412945E+01  0.16743118742E+01 -0.24890487783E+01  0.45709966209E+01  0.10566000000E+00 0. -1.
        -13    1    4    4    0    0  0.12800273816E+02  0.52335028048E+01 -0.10389492029E+02  0.17297088485E+02  0.10566000000E+00 0.  1.
        -14    1    4    4    0    0  0.14377126645E+02  0.70130350740E+01 -0.10032812318E+02  0.18882313273E+02  0.00000000000E+00 0.  1.
<mgrwt>
<rscale>  0 0.79761647E+02</rscale>
<asrwt>0</asrwt>
<pdfrwt beam="1">  1        2 0.63740877E-02 0.79761647E+02</pdfrwt>
<pdfrwt beam="2">  1       -1 0.59058646E-02 0.79761647E+02</pdfrwt>
<totfact> 0.14477728E+05</totfact>
</mgrwt>
</event>
<event>
 8    1  0.1520917E-013  0.8410811E+02  0.7818608E-02  0.1317782E+00
         -1   -1    0    0    0  501 -0.00000000000E+00  0.00000000000E+00  0.28875366902E+02  0.28875367342E+02  0.50400000000E-02 0.  1.
          2   -1    0    0  501    0  0.00000000000E+00 -0.00000000000E+00 -0.61247488078E+02  0.61247488131E+02  0.25500000000E-02 0. -1.
         24    2    1    2    0    0  0.00000000000E+00  0.88817841970E-15 -0.32372121176E+02  0.90122855473E+02  0.84108114051E+02 0.  0.
         66    2    3    3    0    0  0.34989215420E+02 -0.59454226853E+01 -0.40320761007E+02  0.53752740189E+02  0.20000157556E+01 0.  0.
        -13    1    3    3    0    0 -0.34989215420E+02  0.59454226853E+01  0.79486398311E+01  0.36370115284E+02  0.10566000000E+00 0.  1.
         13    1    4    4    0    0  0.26812014684E+02 -0.47626900443E+01 -0.31896049827E+02  0.41939676996E+02  0.10566000000E+00 0. -1.
        -13    1    4    4    0    0  0.55166886241E+01 -0.10222495040E+01 -0.55405395953E+01  0.78859108837E+01  0.10566000000E+00 0.  1.
         14    1    4    4    0    0  0.26605121114E+01 -0.16048313709E+00 -0.28841715848E+01  0.39271523096E+01  0.00000000000E+00 0. -1.
<mgrwt>
<rscale>  0 0.84108114E+02</rscale>
<asrwt>0</asrwt>
<pdfrwt beam="1">  1        2 0.94226905E-02 0.84108114E+02</pdfrwt>
<pdfrwt beam="2">  1       -1 0.44423642E-02 0.84108114E+02</pdfrwt>
<totfact> 0.13643330E+05</totfact>
</mgrwt>
</event>
<event>
 8    1  0.1520917E-013  0.7815551E+02  0.7818608E-02  0.1334369E+00
         -1   -1    0    0    0  501 -0.00000000000E+00  0.00000000000E+00  0.40003537633E+01  0.40003569382E+01  0.50400000000E-02 0.  1.
          2   -1    0    0  501    0  0.00000000000E+00 -0.00000000000E+00 -0.38173382875E+03  0.38173382876E+03  0.25500000000E-02 0. -1.
         24    2    1    2    0    0  0.00000000000E+00 -0.17763568394E-14 -0.37773347499E+03  0.38573418570E+03  0.78155510936E+02 0.  0.
         66    2    3    3    0    0 -0.19594057405E+02 -0.11183241450E+02 -0.34631270465E+03  0.34705256284E+03  0.19999975788E+01 0.  0.
        -13    1    3    3    0    0  0.19594057405E+02  0.11183241450E+02 -0.31420770334E+02  0.38681622863E+02  0.10566000000E+00 0.  1.
         13    1    4    4    0    0 -0.98042658803E+01 -0.51872656208E+01 -0.18011810821E+03  0.18045934562E+03  0.10566000000E+00 0. -1.
        -13    1    4    4    0    0 -0.98616691812E+00 -0.47513732677E+00 -0.12882963591E+02  0.12929818081E+02  0.10566000000E+00 0. -1.
         14    1    4    4    0    0 -0.88036246068E+01 -0.55208385028E+01 -0.15331163286E+03  0.15366339913E+03  0.00000000000E+00 0. -1.
<mgrwt>
<rscale>  0 0.78155511E+02</rscale>
<asrwt>0</asrwt>
<pdfrwt beam="1">  1        2 0.58728253E-01 0.78155511E+02</pdfrwt>
<pdfrwt beam="2">  1       -1 0.61543959E-03 0.78155511E+02</pdfrwt>
<totfact> 0.29538085E+05</totfact>
</mgrwt>
</event>
<event>
 8    1  0.1520917E-013  0.7952566E+02  0.7818608E-02  0.1330403E+00
         -1   -1    0    0    0  501 -0.00000000000E+00  0.00000000000E+00  0.19310616821E+03  0.19310616827E+03  0.50400000000E-02 0.  1.
          2   -1    0    0  501    0  0.00000000000E+00 -0.00000000000E+00 -0.81876338640E+01  0.81876342611E+01  0.25500000000E-02 0. -1.
         24    2    1    2    0    0  0.00000000000E+00  0.35527136788E-14  0.18491853434E+03  0.20129380253E+03  0.79525659978E+02 0.  0.
         66    2    3    3    0    0 -0.31192212358E+02  0.17870902166E+02  0.49655013524E+02  0.61334685345E+02  0.20000005726E+01 0.  0.
        -13    1    3    3    0    0  0.31192212358E+02 -0.17870902166E+02  0.13526352082E+03  0.13995911719E+03  0.10566000000E+00 0.  1.
         13    1    4    4    0    0 -0.23787036290E+02  0.13306700776E+02  0.37378497067E+02  0.46260724033E+02  0.10566000000E+00 0. -1.
        -13    1    4    4    0    0 -0.52291480115E+01  0.31146409202E+01  0.78613660631E+01  0.99426966866E+01  0.10566000000E+00 0.  1.
        -14    1    4    4    0    0 -0.21760280558E+01  0.14495604697E+01  0.44151503935E+01  0.51312646250E+01  0.00000000000E+00 0.  1.
<mgrwt>
<rscale>  0 0.79525660E+02</rscale>
<asrwt>0</asrwt>
<pdfrwt beam="1">  1        2 0.12596360E-02 0.79525660E+02</pdfrwt>
<pdfrwt beam="2">  1       -1 0.29708642E-01 0.79525660E+02</pdfrwt>
<totfact> 0.10218863E+05</totfact>
</mgrwt>
</event>
<event>
 8    1  0.1520917E-013  0.8098333E+02  0.7818608E-02  0.1326284E+00
          2   -1    0    0  501    0  0.00000000000E+00  0.00000000000E+00  0.14500419969E+03  0.14500419971E+03  0.25500000000E-02 0. -1.
         -1   -1    0    0    0  501 -0.00000000000E+00 -0.00000000000E+00 -0.11307086042E+02  0.11307087166E+02  0.50400000000E-02 0.  1.
         24    2    1    2    0    0  0.35527136788E-14  0.00000000000E+00  0.13369711365E+03  0.15631128688E+03  0.80983332901E+02 0.  0.
         66    2    3    3    0    0 -0.26515114625E+02  0.22701638590E+02  0.10640600841E+03  0.11200292099E+03  0.19999967682E+01 0.  0.
        -13    1    3    3    0    0  0.26515114625E+02 -0.22701638590E+02  0.27291105239E+02  0.44308365886E+02  0.10566000000E+00 0.  1.
         13    1    4    4    0    0 -0.62013031469E+01  0.53903777782E+01  0.23502405557E+02  0.24897521248E+02  0.10566000000E+00 0. -1.
        -13    1    4    4    0    0 -0.24484493192E+01  0.16356255061E+01  0.83165786225E+01  0.88230844314E+01  0.10566000000E+00 0.  1.
         14    1    4    4    0    0 -0.17865362159E+02  0.15675635306E+02  0.74587024226E+02  0.78282315310E+02  0.00000000000E+00 0. -1.
<mgrwt>
<rscale>  0 0.80983333E+02</rscale>
<asrwt>0</asrwt>
<pdfrwt beam="1">  1        2 0.22308337E-01 0.80983333E+02</pdfrwt>
<pdfrwt beam="2">  1       -1 0.17395519E-02 0.80983333E+02</pdfrwt>
<totfact> 0.19180826E+05</totfact>
</mgrwt>
</event>
<event>
 8    1  0.1520917E-013  0.7787401E+02  0.7818608E-02  0.1335195E+00
          2   -1    0    0  501    0  0.00000000000E+00  0.00000000000E+00  0.12771674485E+02  0.12771674740E+02  0.25500000000E-02 0. -1.
         -1   -1    0    0    0  501 -0.00000000000E+00 -0.00000000000E+00 -0.11870725324E+03  0.11870725334E+03  0.50400000000E-02 0.  1.
         24    2    1    2    0    0  0.35527136788E-14  0.00000000000E+00 -0.10593557875E+03  0.13147892808E+03  0.77874011612E+02 0.  0.
         66    2    3    3    0    0 -0.28623563120E+02 -0.14932491335E+02 -0.16330039419E+02  0.36234760250E+02  0.19999999615E+01 0.  0.
        -13    1    3    3    0    0  0.28623563120E+02  0.14932491335E+02 -0.89605539333E+02  0.95244167834E+02  0.10566000000E+00 0.  1.
         13    1    4    4    0    0 -0.26800223743E+01 -0.12973473458E+01 -0.11546690653E+01  0.31953176287E+01  0.10566000000E+00 0. -1.
        -13    1    4    4    0    0 -0.60607989327E+01 -0.24958685047E+01 -0.35587732459E+01  0.74591336191E+01  0.10566000000E+00 0.  1.
         14    1    4    4    0    0 -0.19882741813E+02 -0.11139275484E+02 -0.11616597108E+02  0.25580309003E+02  0.00000000000E+00 0. -1.
<mgrwt>
<rscale>  0 0.77874012E+02</rscale>
<asrwt>0</asrwt>
<pdfrwt beam="1">  1        2 0.19648731E-02 0.77874012E+02</pdfrwt>
<pdfrwt beam="2">  1       -1 0.18262654E-01 0.77874012E+02</pdfrwt>
<totfact> 0.12210440E+05</totfact>
</mgrwt>
</event>
<event>
 8    1  0.1520917E-013  0.7983594E+02  0.7818608E-02  0.1329518E+00
          2   -1    0    0  501    0  0.00000000000E+00  0.00000000000E+00  0.10302228983E+04  0.10302228983E+04  0.25500000000E-02 0. -1.
         -1   -1    0    0    0  501 -0.00000000000E+00 -0.00000000000E+00 -0.15466945231E+01  0.15467027347E+01  0.50400000000E-02 0.  1.
         24    2    1    2    0    0  0.00000000000E+00  0.00000000000E+00  0.10286762037E+04  0.10317696010E+04  0.79835940583E+02 0.  0.
         66    2    3    3    0    0  0.29144562871E+02  0.74353391625E+01  0.85333525299E+03  0.85386752123E+03  0.20000000765E+01 0.  0.
        -13    1    3    3    0    0 -0.29144562871E+02 -0.74353391625E+01  0.17534095076E+03  0.17790207978E+03  0.10566000000E+00 0.  1.
         13    1    4    4    0    0  0.79489243683E+01  0.20895059580E+01  0.22812962062E+03  0.22827765200E+03  0.10566000000E+00 0. -1.
        -13    1    4    4    0    0  0.13587724283E+02  0.34641798263E+01  0.42323512621E+03  0.42346736594E+03  0.10566000000E+00 0.  1.
        -14    1    4    4    0    0  0.76079142194E+01  0.18816533781E+01  0.20197050616E+03  0.20212250329E+03  0.00000000000E+00 0.  1.
<mgrwt>
<rscale>  0 0.79835941E+02</rscale>
<asrwt>0</asrwt>
<pdfrwt beam="1">  1        2 0.15849576E+00 0.79835941E+02</pdfrwt>
<pdfrwt beam="2">  1       -1 0.23795375E-03 0.79835941E+02</pdfrwt>
<totfact> 0.35452302E+05</totfact>
</mgrwt>
</event>
<event>
 8    1  0.1520917E-013  0.7988505E+02  0.7818608E-02  0.1329378E+00
          2   -1    0    0  501    0  0.00000000000E+00  0.00000000000E+00  0.23725378942E+02  0.23725379079E+02  0.25500000000E-02 0. -1.
         -1   -1    0    0    0  501 -0.00000000000E+00 -0.00000000000E+00 -0.67244678398E+02  0.67244678587E+02  0.50400000000E-02 0.  1.
         24    2    1    2    0    0  0.00000000000E+00  0.00000000000E+00 -0.43519299457E+02  0.90970057666E+02  0.79885054713E+02 0.  0.
         66    2    3    3    0    0  0.20390193278E+02  0.34316744885E+02 -0.21728092505E+02  0.45491856010E+02  0.19999994796E+01 0.  0.
        -13    1    3    3    0    0 -0.20390193278E+02 -0.34316744885E+02 -0.21791206951E+02  0.45478201656E+02  0.10566000000E+00 0.  1.
         13    1    4    4    0    0  0.19007582540E+01  0.31057539908E+01 -0.14845964633E+01  0.39336726461E+01  0.10566000000E+00 0. -1.
        -13    1    4    4    0    0  0.28090523412E+01  0.50145208986E+01 -0.36486550389E+01  0.68088209351E+01  0.10566000000E+00 0.  1.
        -14    1    4    4    0    0  0.15680382683E+02  0.26196469995E+02 -0.16594841003E+02  0.34749362429E+02  0.00000000000E+00 0.  1.
<mgrwt>
<rscale>  0 0.79885055E+02</rscale>
<asrwt>0</asrwt>
<pdfrwt beam="1">  1        2 0.36500583E-02 0.79885055E+02</pdfrwt>
<pdfrwt beam="2">  1       -1 0.10345335E-01 0.79885055E+02</pdfrwt>
<totfact> 0.12899403E+05</totfact>
</mgrwt>
</event>
<event>
 8    1  0.1520917E-013  0.8203624E+02  0.7818608E-02  0.1323370E+00
         -1   -1    0    0    0  501 -0.00000000000E+00  0.00000000000E+00  0.43959270741E+03  0.43959270744E+03  0.50400000000E-02 0.  1.
          2   -1    0    0  501    0  0.00000000000E+00 -0.00000000000E+00 -0.38273744172E+01  0.38273752667E+01  0.25500000000E-02 0. -1.
         24    2    1    2    0    0  0.00000000000E+00  0.00000000000E+00  0.43576533299E+03  0.44342008271E+03  0.82036237775E+02 0.  0.
         66    2    3    3    0    0 -0.36627049947E+02 -0.18347766946E+02  0.20981495544E+03  0.21378610085E+03  0.20000133009E+01 0.  0.
        -13    1    3    3    0    0  0.36627049947E+02  0.18347766946E+02  0.22595037756E+03  0.22963398186E+03  0.10566000000E+00 0.  1.
         13    1    4    4    0    0 -0.20572280059E+02 -0.10553234712E+02  0.11785858992E+03  0.12010515331E+03  0.10566000000E+00 0. -1.
        -13    1    4    4    0    0 -0.68043912312E+00 -0.62038620788E+00  0.47627508962E+01  0.48520961019E+01  0.10566000000E+00 0.  1.
         14    1    4    4    0    0 -0.15374330765E+02 -0.71741460258E+01  0.87193614625E+02  0.88828851445E+02  0.00000000000E+00 0. -1.
<mgrwt>
<rscale>  0 0.82036238E+02</rscale>
<asrwt>0</asrwt>
<pdfrwt beam="1">  1        2 0.58882677E-03 0.82036238E+02</pdfrwt>
<pdfrwt beam="2">  1       -1 0.67629663E-01 0.82036238E+02</pdfrwt>
<totfact> 0.67541409E+04</totfact>
</mgrwt>
</event>
<event>
 8    1  0.1520917E-013  0.7819784E+02  0.7818608E-02  0.1334245E+00
          2   -1    0    0  501    0  0.00000000000E+00  0.00000000000E+00  0.45901501655E+01  0.45901508738E+01  0.25500000000E-02 0. -1.
         -1   -1    0    0    0  501 -0.00000000000E+00 -0.00000000000E+00 -0.33304472199E+03  0.33304472203E+03  0.50400000000E-02 0.  1.
         24    2    1    2    0    0  0.71054273576E-14  0.35527136788E-14 -0.32845457183E+03  0.33763487290E+03  0.78197836588E+02 0.  0.
         66    2    3    3    0    0 -0.32072612879E+02 -0.21983422237E+02 -0.14772549329E+03  0.15277023501E+03  0.19999969430E+01 0.  0.
        -13    1    3    3    0    0  0.32072612879E+02  0.21983422237E+02 -0.18072907853E+03  0.18486463789E+03  0.10566000000E+00 0.  1.
         13    1    4    4    0    0 -0.21076773580E+02 -0.14457650425E+02 -0.97210143232E+02  0.10051406445E+03  0.10566000000E+00 0. -1.
        -13    1    4    4    0    0 -0.62232237042E+01 -0.35604943629E+01 -0.26974177346E+02  0.27910984234E+02  0.10566000000E+00 0.  1.
        -14    1    4    4    0    0 -0.47726155946E+01 -0.39652774496E+01 -0.23541172715E+02  0.24345186334E+02  0.00000000000E+00 0.  1.
<mgrwt>
<rscale>  0 0.78197837E+02</rscale>
<asrwt>0</asrwt>
<pdfrwt beam="1">  1        2 0.70617727E-03 0.78197837E+02</pdfrwt>
<pdfrwt beam="2">  1       -1 0.51237631E-01 0.78197837E+02</pdfrwt>
<totfact> 0.87678985E+04</totfact>
</mgrwt>
</event>
<event>
 8    1  0.1520917E-013  0.8182406E+02  0.7818608E-02  0.1323953E+00
          2   -1    0    0  501    0  0.00000000000E+00  0.00000000000E+00  0.77584237746E+03  0.77584237746E+03  0.25500000000E-02 0. -1.
         -1   -1    0    0    0  501 -0.00000000000E+00 -0.00000000000E+00 -0.21573867872E+01  0.21573926743E+01  0.50400000000E-02 0.  1.
         24    2    1    2    0    0  0.17763568394E-14  0.00000000000E+00  0.77368499067E+03  0.77799977014E+03  0.81824064573E+02 0.  0.
         66    2    3    3    0    0 -0.13422351053E+02  0.20072828265E+02  0.70080207614E+03  0.70122081249E+03  0.20000019904E+01 0.  0.
        -13    1    3    3    0    0  0.13422351053E+02 -0.20072828265E+02  0.72882914529E+02  0.76778957642E+02  0.10566000000E+00 0.  1.
         13    1    4    4    0    0 -0.87415088881E+01  0.14010716407E+02  0.49929587003E+03  0.49956890530E+03  0.10566000000E+00 0. -1.
        -13    1    4    4    0    0 -0.41015544607E+01  0.51691614911E+01  0.17412105956E+03  0.17424608324E+03  0.10566000000E+00 0.  1.
         14    1    4    4    0    0 -0.57928770458E+00  0.89295036737E+00  0.27385146550E+02  0.27405823946E+02  0.00000000000E+00 0. -1.
<mgrwt>
<rscale>  0 0.81824065E+02</rscale>
<asrwt>0</asrwt>
<pdfrwt beam="1">  1        2 0.11936028E+00 0.81824065E+02</pdfrwt>
<pdfrwt beam="2">  1       -1 0.33190635E-03 0.81824065E+02</pdfrwt>
<totfact> 0.32230387E+05</totfact>
</mgrwt>
</event>
<event>
 8    1  0.1520917E-013  0.7847200E+02  0.7818608E-02  0.1333444E+00
          2   -1    0    0  501    0  0.00000000000E+00  0.00000000000E+00  0.99853337583E+02  0.99853337616E+02  0.25500000000E-02 0. -1.
         -1   -1    0    0    0  501 -0.00000000000E+00 -0.00000000000E+00 -0.15417248850E+02  0.15417249674E+02  0.50400000000E-02 0.  1.
         24    2    1    2    0    0  0.00000000000E+00  0.71054273576E-14  0.84436088733E+02  0.11527058729E+03  0.78472002737E+02 0.  0.
         66    2    3    3    0    0  0.17694615324E+02  0.32414778215E+02  0.22888720843E+02  0.43493801931E+02  0.20000015976E+01 0.  0.
        -13    1    3    3    0    0 -0.17694615324E+02 -0.32414778215E+02  0.61547367890E+02  0.71776785359E+02  0.10566000000E+00 0.  1.
         13    1    4    4    0    0  0.30584491902E+01  0.52403127426E+01  0.40006760113E+01  0.72685322915E+01  0.10566000000E+00 0. -1.
        -13    1    4    4    0    0  0.31801647849E+01  0.50368800165E+01  0.42566747370E+01  0.73221617171E+01  0.10566000000E+00 0.  1.
         14    1    4    4    0    0  0.11456001349E+02  0.22137585456E+02  0.14631370094E+02  0.28903107922E+02  0.00000000000E+00 0. -1.
<mgrwt>
<rscale>  0 0.78472003E+02</rscale>
<asrwt>0</asrwt>
<pdfrwt beam="1">  1        2 0.15362052E-01 0.78472003E+02</pdfrwt>
<pdfrwt beam="2">  1       -1 0.23718845E-02 0.78472003E+02</pdfrwt>
<totfact> 0.18656932E+05</totfact>
</mgrwt>
</event>
<event>
 8    1  0.1520917E-013  0.7980117E+02  0.7818608E-02  0.1329617E+00
          2   -1    0    0  501    0  0.00000000000E+00  0.00000000000E+00  0.53027293932E+02  0.53027293993E+02  0.25500000000E-02 0. -1.
         -1   -1    0    0    0  501 -0.00000000000E+00 -0.00000000000E+00 -0.30023343299E+02  0.30023343722E+02  0.50400000000E-02 0.  1.
         24    2    1    2    0    0  0.00000000000E+00  0.00000000000E+00  0.23003950633E+02  0.83050637715E+02  0.79801169666E+02 0.  0.
         66    2    3    3    0    0 -0.27144166251E+02  0.17331023857E+01  0.41855432467E+02  0.49956847713E+02  0.20000002713E+01 0.  0.
        -13    1    3    3    0    0  0.27144166251E+02 -0.17331023857E+01 -0.18851481833E+02  0.33093790002E+02  0.10566000000E+00 0.  1.
         13    1    4    4    0    0 -0.73137358369E+01  0.95180713383E-01  0.11057179982E+02  0.13257910260E+02  0.10566000000E+00 0. -1.
        -13    1    4    4    0    0 -0.13573550900E+02  0.17432251621E+01  0.21758355538E+02  0.25704422144E+02  0.10566000000E+00 0.  1.
        -14    1    4    4    0    0 -0.62568795149E+01 -0.10530348985E+00  0.90398969460E+01  0.10994515309E+02  0.00000000000E+00 0.  1.
<mgrwt>
<rscale>  0 0.79801170E+02</rscale>
<asrwt>0</asrwt>
<pdfrwt beam="1">  1        2 0.81580452E-02 0.79801170E+02</pdfrwt>
<pdfrwt beam="2">  1       -1 0.46189760E-02 0.79801170E+02</pdfrwt>
<totfact> 0.15240474E+05</totfact>
</mgrwt>
</event>
<event>
 8    1  0.1520917E-013  0.8045322E+02  0.7818608E-02  0.1327770E+00
          2   -1    0    0  501    0  0.00000000000E+00  0.00000000000E+00  0.62895322123E+02  0.62895322175E+02  0.25500000000E-02 0. -1.
         -1   -1    0    0    0  501 -0.00000000000E+00 -0.00000000000E+00 -0.25728147484E+02  0.25728147978E+02  0.50400000000E-02 0.  1.
         24    2    1    2    0    0  0.00000000000E+00  0.00000000000E+00  0.37167174639E+02  0.88623470153E+02  0.80453219893E+02 0.  0.
         66    2    3    3    0    0 -0.10414977479E+02  0.16790173145E+02  0.57161872801E+02  0.60513315604E+02  0.19999983021E+01 0.  0.
        -13    1    3    3    0    0  0.10414977479E+02 -0.16790173145E+02 -0.19994698162E+02  0.28110154548E+02  0.10566000000E+00 0.  1.
         13    1    4    4    0    0 -0.36930424780E+01  0.66271360077E+01  0.19570136547E+02  0.20989495061E+02  0.10566000000E+00 0. -1.
        -13    1    4    4    0    0 -0.33667153850E+01  0.49869527470E+01  0.19693617677E+02  0.20592576610E+02  0.10566000000E+00 0.  1.
        -14    1    4    4    0    0 -0.33552196161E+01  0.51760843900E+01  0.17898118576E+02  0.18931243933E+02  0.00000000000E+00 0.  1.
<mgrwt>
<rscale>  0 0.80453220E+02</rscale>
<asrwt>0</asrwt>
<pdfrwt beam="1">  1        2 0.96762034E-02 0.80453220E+02</pdfrwt>
<pdfrwt beam="2">  1       -1 0.39581766E-02 0.80453220E+02</pdfrwt>
<totfact> 0.15498222E+05</totfact>
</mgrwt>
</event>
<event>
 8    1  0.1520917E-013  0.7926271E+02  0.7818608E-02  0.1331157E+00
          2   -1    0    0  501    0  0.00000000000E+00  0.00000000000E+00  0.14919643968E+03  0.14919643970E+03  0.25500000000E-02 0. -1.
         -1   -1    0    0    0  501 -0.00000000000E+00 -0.00000000000E+00 -0.10527357082E+02  0.10527358289E+02  0.50400000000E-02 0.  1.
         24    2    1    2    0    0  0.00000000000E+00  0.00000000000E+00  0.13866908260E+03  0.15972379799E+03  0.79262709871E+02 0.  0.
         66    2    3    3    0    0  0.26207128057E+01 -0.31173873454E+02  0.11832400915E+03  0.12240608505E+03  0.19999984714E+01 0.  0.
        -13    1    3    3    0    0 -0.26207128057E+01  0.31173873454E+02  0.20345073454E+02  0.37317712947E+02  0.10566000000E+00 0.  1.
         13    1    4    4    0    0  0.51627314502E+00 -0.40399842109E+01  0.14582763116E+02  0.15141207168E+02  0.10566000000E+00 0. -1.
        -13    1    4    4    0    0 -0.22890456259E+00 -0.11237408400E+01  0.41946677430E+01  0.43498956636E+01  0.10566000000E+00 0.  1.
         14    1    4    4    0    0  0.23333442232E+01 -0.26010148403E+02  0.99546578288E+02  0.10291498221E+03  0.00000000000E+00 0. -1.
<mgrwt>
<rscale>  0 0.79262710E+02</rscale>
<asrwt>0</asrwt>
<pdfrwt beam="1">  1        2 0.22953298E-01 0.79262710E+02</pdfrwt>
<pdfrwt beam="2">  1       -1 0.16195935E-02 0.79262710E+02</pdfrwt>
<totfact> 0.20492539E+05</totfact>
</mgrwt>
</event>
<event>
 8    1  0.1520917E-013  0.8639629E+02  0.7818608E-02  0.1311821E+00
         -1   -1    0    0    0  501 -0.00000000000E+00  0.00000000000E+00  0.69408943505E+01  0.69408961804E+01  0.50400000000E-02 0.  1.
          2   -1    0    0  501    0  0.00000000000E+00 -0.00000000000E+00 -0.26885289412E+03  0.26885289413E+03  0.25500000000E-02 0. -1.
         24    2    1    2    0    0  0.00000000000E+00  0.00000000000E+00 -0.26191199976E+03  0.27579379031E+03  0.86396291307E+02 0.  0.
         66    2    3    3    0    0 -0.13739873914E+01 -0.22942238151E+02 -0.24769799750E+03  0.24877003858E+03  0.20000000323E+01 0.  0.
        -13    1    3    3    0    0  0.13739873914E+01  0.22942238151E+02 -0.14214002267E+02  0.27023751723E+02  0.10566000000E+00 0.  1.
         13    1    4    4    0    0 -0.55089799815E-01 -0.97470818224E+01 -0.10619779238E+03  0.10664422586E+03  0.10566000000E+00 0. -1.
        -13    1    4    4    0    0 -0.50595544053E-01 -0.28642367402E+00 -0.19890743231E+01  0.20130025157E+01  0.10566000000E+00 0.  1.
        -14    1    4    4    0    0 -0.12683020475E+01 -0.12908732654E+02 -0.13951113079E+03  0.14011281021E+03  0.00000000000E+00 0.  1.
<mgrwt>
<rscale>  0 0.86396291E+02</rscale>
<asrwt>0</asrwt>
<pdfrwt beam="1">  1        2 0.41361976E-01 0.86396291E+02</pdfrwt>
<pdfrwt beam="2">  1       -1 0.10678302E-02 0.86396291E+02</pdfrwt>
<totfact> 0.20005111E+05</totfact>
</mgrwt>
</event>
<event>
 8    1  0.1520917E-013  0.7421099E+02  0.7818608E-02  0.1346332E+00
         -1   -1    0    0    0  501 -0.00000000000E+00  0.00000000000E+00  0.32028364735E+01  0.32028404390E+01  0.50400000000E-02 0.  1.
          2   -1    0    0  501    0  0.00000000000E+00 -0.00000000000E+00 -0.42987427137E+03  0.42987427138E+03  0.25500000000E-02 0. -1.
         24    2    1    2    0    0 -0.44408920985E-15  0.35527136788E-14 -0.42667143490E+03  0.43307711182E+03  0.74210992601E+02 0.  0.
         66    2    3    3    0    0 -0.34346166445E+01  0.28728085781E+02 -0.34881349543E+03  0.35001707687E+03  0.19999997338E+01 0.  0.
        -13    1    3    3    0    0  0.34346166445E+01 -0.28728085781E+02 -0.77857939467E+02  0.83060034952E+02  0.10566000000E+00 0.  1.
         13    1    4    4    0    0 -0.22241413710E+01  0.22624213177E+02 -0.27378081575E+03  0.27472303883E+03  0.10566000000E+00 0. -1.
        -13    1    4    4    0    0  0.80674488657E-01  0.65395686858E+00 -0.79746914477E+01  0.80025643191E+01  0.10566000000E+00 0.  1.
         14    1    4    4    0    0 -0.12911497621E+01  0.54499157358E+01 -0.67057988229E+02  0.67291473713E+02  0.00000000000E+00 0. -1.
<mgrwt>
<rscale>  0 0.74210993E+02</rscale>
<asrwt>0</asrwt>
<pdfrwt beam="1">  1        2 0.66134458E-01 0.74210993E+02</pdfrwt>
<pdfrwt beam="2">  1       -1 0.49274472E-03 0.74210993E+02</pdfrwt>
<totfact> 0.35213049E+05</totfact>
</mgrwt>
</event>
<event>
 8    1  0.1520917E-013  0.8069078E+02  0.7818608E-02  0.1327102E+00
         -1   -1    0    0    0  501 -0.00000000000E+00  0.00000000000E+00  0.87941060272E+02  0.87941060417E+02  0.50400000000E-02 0.  1.
          2   -1    0    0  501    0  0.00000000000E+00 -0.00000000000E+00 -0.18509563052E+02  0.18509563228E+02  0.25500000000E-02 0. -1.
         24    2    1    2    0    0  0.35527136788E-14  0.00000000000E+00  0.69431497220E+02  0.10645062364E+03  0.80690783044E+02 0.  0.
         66    2    3    3    0    0 -0.31302331831E+02  0.24758914877E+02  0.27169376142E+02  0.48321991406E+02  0.20000023901E+01 0.  0.
        -13    1    3    3    0    0  0.31302331831E+02 -0.24758914877E+02  0.42262121077E+02  0.58128632239E+02  0.10566000000E+00 0.  1.
         13    1    4    4    0    0 -0.47692606858E+01  0.44597419466E+01  0.42867169848E+01  0.78116741012E+01  0.10566000000E+00 0. -1.
        -13    1    4    4    0    0 -0.76552249972E+01  0.54772557099E+01  0.59273153174E+01  0.11124164273E+02  0.10566000000E+00 0.  1.
        -14    1    4    4    0    0 -0.18877846148E+02  0.14821917221E+02  0.16955343840E+02  0.29386153032E+02  0.00000000000E+00 0.  1.
<mgrwt>
<rscale>  0 0.80690783E+02</rscale>
<asrwt>0</asrwt>
<pdfrwt beam="1">  1        2 0.28476251E-02 0.80690783E+02</pdfrwt>
<pdfrwt beam="2">  1       -1 0.13529394E-01 0.80690783E+02</pdfrwt>
<totfact> 0.11921052E+05</totfact>
</mgrwt>
</event>
<event>
 8    1  0.1520917E-013  0.8439093E+02  0.7818608E-02  0.1317033E+00
         -1   -1    0    0    0  501 -0.00000000000E+00  0.00000000000E+00  0.22192910572E+01  0.22192967801E+01  0.50400000000E-02 0.  1.
          2   -1    0    0  501    0  0.00000000000E+00 -0.00000000000E+00 -0.80226298414E+03  0.80226298414E+03  0.25500000000E-02 0. -1.
         24    2    1    2    0    0  0.00000000000E+00  0.35527136788E-14 -0.80004369308E+03  0.80448228092E+03  0.84390932448E+02 0.  0.
         66    2    3    3    0    0  0.21487137675E+02 -0.31136119049E+02 -0.57789843808E+03  0.57913880869E+03  0.19999997426E+01 0.  0.
        -13    1    3    3    0    0 -0.21487137675E+02  0.31136119049E+02 -0.22214525500E+03  0.22534347223E+03  0.10566000000E+00 0.  1.
         13    1    4    4    0    0  0.10103075008E+02 -0.15868992124E+02 -0.28871090115E+03  0.28932316299E+03  0.10566000000E+00 0. -1.
        -13    1    4    4    0    0  0.95601668068E+01 -0.13387299222E+02 -0.24888402154E+03  0.24942711142E+03  0.10566000000E+00 0.  1.
        -14    1    4    4    0    0  0.18238958603E+01 -0.18798277033E+01 -0.40303515399E+02  0.40388534286E+02  0.00000000000E+00 0.  1.
<mgrwt>
<rscale>  0 0.84390932E+02</rscale>
<asrwt>0</asrwt>
<pdfrwt beam="1">  1        2 0.12342484E+00 0.84390932E+02</pdfrwt>
<pdfrwt beam="2">  1       -1 0.34143048E-03 0.84390932E+02</pdfrwt>
<totfact> 0.29915186E+05</totfact>
</mgrwt>
</event>
<event>
 8    1  0.1520917E-013  0.8177950E+02  0.7818608E-02  0.1324076E+00
         -1   -1    0    0    0  501 -0.00000000000E+00  0.00000000000E+00  0.32785333961E+01  0.32785372700E+01  0.50400000000E-02 0.  1.
          2   -1    0    0  501    0  0.00000000000E+00 -0.00000000000E+00 -0.50997521305E+03  0.50997521306E+03  0.25500000000E-02 0. -1.
         24    2    1    2    0    0  0.00000000000E+00  0.17763568394E-14 -0.50669667966E+03  0.51325375033E+03  0.81779502639E+02 0.  0.
         66    2    3    3    0    0  0.39436136549E+02 -0.93878447412E+01 -0.28588437068E+03  0.28875112795E+03  0.19999998276E+01 0.  0.
        -13    1    3    3    0    0 -0.39436136549E+02  0.93878447412E+01 -0.22081230898E+03  0.22450262238E+03  0.10566000000E+00 0.  1.
         13    1    4    4    0    0  0.27362433212E+02 -0.63919942336E+01 -0.19617655125E+03  0.19817873439E+03  0.10566000000E+00 0. -1.
        -13    1    4    4    0    0  0.27780914461E+00 -0.11672869862E+00 -0.15713084319E+01  0.16034268719E+01  0.10566000000E+00 0.  1.
        -14    1    4    4    0    0  0.11795894193E+02 -0.28791218090E+01 -0.88136510995E+02  0.88968966683E+02  0.00000000000E+00 0.  1.
<mgrwt>
<rscale>  0 0.81779503E+02</rscale>
<asrwt>0</asrwt>
<pdfrwt beam="1">  1        2 0.78457662E-01 0.81779503E+02</pdfrwt>
<pdfrwt beam="2">  1       -1 0.50439046E-03 0.81779503E+02</pdfrwt>
<totfact> 0.28933491E+05</totfact>
</mgrwt>
</event>
<event>
 8    1  0.1520917E-013  0.8040066E+02  0.7818608E-02  0.1327918E+00
         -1   -1    0    0    0  501 -0.00000000000E+00  0.00000000000E+00  0.84274686873E+02  0.84274687023E+02  0.50400000000E-02 0.  1.
          2   -1    0    0  501    0  0.00000000000E+00 -0.00000000000E+00 -0.19176180116E+02  0.19176180286E+02  0.25500000000E-02 0. -1.
         24    2    1    2    0    0  0.00000000000E+00  0.00000000000E+00  0.65098506756E+02  0.10345086731E+03  0.80400661472E+02 0.  0.
         66    2    3    3    0    0 -0.20765131159E+02  0.30717059186E+02  0.12663704872E+02  0.39231337494E+02  0.20000058387E+01 0.  0.
        -13    1    3    3    0    0  0.20765131159E+02 -0.30717059186E+02  0.52434801884E+02  0.64219529816E+02  0.10566000000E+00 0.  1.
         13    1    4    4    0    0 -0.72349928564E+01  0.10723318398E+02  0.50570223385E+01  0.13889539880E+02  0.10566000000E+00 0. -1.
        -13    1    4    4    0    0 -0.10996911849E+01  0.16917218062E+01  0.98583503657E+00  0.22481721746E+01  0.10566000000E+00 0. -1.
        -14    1    4    4    0    0 -0.12430447118E+02  0.18302018981E+02  0.66208474971E+01  0.23093625439E+02  0.00000000000E+00 0.  1.
<mgrwt>
<rscale>  0 0.80400661E+02</rscale>
<asrwt>0</asrwt>
<pdfrwt beam="1">  1        2 0.29501815E-02 0.80400661E+02</pdfrwt>
<pdfrwt beam="2">  1       -1 0.12965337E-01 0.80400661E+02</pdfrwt>
<totfact> 0.12134101E+05</totfact>
</mgrwt>
</event>
<event>
 8    1  0.1520917E-013  0.8109340E+02  0.7818608E-02  0.1325977E+00
         -1   -1    0    0    0  501 -0.00000000000E+00  0.00000000000E+00  0.69921446511E+01  0.69921464675E+01  0.50400000000E-02 0.  1.
          2   -1    0    0  501    0  0.00000000000E+00 -0.00000000000E+00 -0.23512595132E+03  0.23512595133E+03  0.25500000000E-02 0. -1.
         24    2    1    2    0    0  0.00000000000E+00  0.00000000000E+00 -0.22813380667E+03  0.24211809780E+03  0.81093400087E+02 0.  0.
         66    2    3    3    0    0  0.33768771611E+01 -0.32708183213E+02 -0.18484046433E+03  0.18775309800E+03  0.20000015600E+01 0.  0.
        -13    1    3    3    0    0 -0.33768771611E+01  0.32708183213E+02 -0.43293342335E+02  0.54364999798E+02  0.10566000000E+00 0.  1.
         13    1    4    4    0    0  0.17316504986E+01 -0.14013832677E+02 -0.79415637910E+02  0.80661272172E+02  0.10566000000E+00 0. -1.
        -13    1    4    4    0    0  0.35190600839E+00 -0.12381755174E+01 -0.59322442883E+01  0.60712109815E+01  0.10566000000E+00 0.  1.
         14    1    4    4    0    0  0.12933206542E+01 -0.17456175019E+02 -0.99492582134E+02  0.10102061485E+03  0.00000000000E+00 0. -1.
<mgrwt>
<rscale>  0 0.81093400E+02</rscale>
<asrwt>0</asrwt>
<pdfrwt beam="1">  1        2 0.36173217E-01 0.81093400E+02</pdfrwt>
<pdfrwt beam="2">  1       -1 0.10757149E-02 0.81093400E+02</pdfrwt>
<totfact> 0.22531182E+05</totfact>
</mgrwt>
</event>
<event>
 8    1  0.1520917E-013  0.7921599E+02  0.7818608E-02  0.1331291E+00
         -1   -1    0    0    0  501 -0.00000000000E+00  0.00000000000E+00  0.28792726065E+02  0.28792726506E+02  0.50400000000E-02 0.  1.
          2   -1    0    0  501    0  0.00000000000E+00 -0.00000000000E+00 -0.54485746953E+02  0.54485747013E+02  0.25500000000E-02 0. -1.
         24    2    1    2    0    0  0.00000000000E+00  0.17763568394E-14 -0.25693020888E+02  0.83278473519E+02  0.79215988471E+02 0.  0.
         66    2    3    3    0    0 -0.12514601666E+01 -0.14512005179E+02 -0.51547396684E+02  0.53603157873E+02  0.19999955461E+01 0.  0.
        -13    1    3    3    0    0  0.12514601666E+01  0.14512005179E+02  0.25854375796E+02  0.29675315646E+02  0.10566000000E+00 0.  1.
         13    1    4    4    0    0  0.24371815528E+00 -0.42026097559E+01 -0.15500567489E+02  0.16062381013E+02  0.10566000000E+00 0. -1.
        -13    1    4    4    0    0 -0.14492727497E+01 -0.76620668925E+01 -0.28247851291E+02  0.29304605904E+02  0.10566000000E+00 0.  1.
        -14    1    4    4    0    0 -0.45905572207E-01 -0.26473285303E+01 -0.77989779042E+01  0.82361709562E+01  0.00000000000E+00 0.  1.
<mgrwt>
<rscale>  0 0.79215988E+02</rscale>
<asrwt>0</asrwt>
<pdfrwt beam="1">  1        2 0.83824226E-02 0.79215988E+02</pdfrwt>
<pdfrwt beam="2">  1       -1 0.44296502E-02 0.79215988E+02</pdfrwt>
<totfact> 0.15643690E+05</totfact>
</mgrwt>
</event>
<event>
 8    1  0.1520917E-013  0.8152251E+02  0.7818608E-02  0.1324785E+00
          2   -1    0    0  501    0  0.00000000000E+00  0.00000000000E+00  0.51609446902E+02  0.51609446965E+02  0.25500000000E-02 0. -1.
         -1   -1    0    0    0  501 -0.00000000000E+00 -0.00000000000E+00 -0.32193326053E+02  0.32193326448E+02  0.50400000000E-02 0.  1.
         24    2    1    2    0    0  0.00000000000E+00  0.00000000000E+00  0.19416120848E+02  0.83802773413E+02  0.81522506603E+02 0.  0.
         66    2    3    3    0    0 -0.37071439150E+02  0.15873054271E+02  0.15639615055E+02  0.43299457343E+02  0.19999986410E+01 0.  0.
        -13    1    3    3    0    0  0.37071439150E+02 -0.15873054271E+02  0.37765057934E+01  0.40503316070E+02  0.10566000000E+00 0.  1.
         13    1    4    4    0    0 -0.31010578306E+00  0.16656514822E+00  0.42156583665E-01  0.36993345136E+00  0.10566000000E+00 0. -1.
        -13    1    4    4    0    0 -0.71696499688E+01  0.34487364051E+01  0.27397973464E+01  0.84151837176E+01  0.10566000000E+00 0.  1.
         14    1    4    4    0    0 -0.29591683399E+02  0.12257752718E+02  0.12857661125E+02  0.34514340174E+02  0.00000000000E+00 0. -1.
<mgrwt>
<rscale>  0 0.81522507E+02</rscale>
<asrwt>0</asrwt>
<pdfrwt beam="1">  1        2 0.79399148E-02 0.81522507E+02</pdfrwt>
<pdfrwt beam="2">  1       -1 0.49528195E-02 0.81522507E+02</pdfrwt>
<totfact> 0.14289473E+05</totfact>
</mgrwt>
</event>
<event>
 8    1  0.1520917E-013  0.8059096E+02  0.7818608E-02  0.1327383E+00
         -1   -1    0    0    0  501 -0.00000000000E+00  0.00000000000E+00  0.43816593310E+01  0.43816622296E+01  0.50400000000E-02 0.  1.
          2   -1    0    0  501    0  0.00000000000E+00 -0.00000000000E+00 -0.37057316039E+03  0.37057316040E+03  0.25500000000E-02 0. -1.
         24    2    1    2    0    0  0.00000000000E+00 -0.88817841970E-15 -0.36619150106E+03  0.37495482263E+03  0.80590964534E+02 0.  0.
         66    2    3    3    0    0 -0.40061752995E+02 -0.40762382712E+01 -0.18134050064E+03  0.18576850364E+03  0.20000004392E+01 0.  0.
        -13    1    3    3    0    0  0.40061752995E+02  0.40762382712E+01 -0.18485100043E+03  0.18918631899E+03  0.10566000000E+00 0.  1.
         13    1    4    4    0    0 -0.77989319716E+01 -0.13623428144E+01 -0.34530600411E+02  0.35426725034E+02  0.10566000000E+00 0. -1.
        -13    1    4    4    0    0 -0.42509685145E+01 -0.68748326029E+00 -0.18784461553E+02  0.19272014072E+02  0.10566000000E+00 0.  1.
         14    1    4    4    0    0 -0.28011852509E+02 -0.20264121966E+01 -0.12802543867E+03  0.13106976453E+03  0.00000000000E+00 0. -1.
<mgrwt>
<rscale>  0 0.80590965E+02</rscale>
<asrwt>0</asrwt>
<pdfrwt beam="1">  1        2 0.57011231E-01 0.80590965E+02</pdfrwt>
<pdfrwt beam="2">  1       -1 0.67410196E-03 0.80590965E+02</pdfrwt>
<totfact> 0.26977878E+05</totfact>
</mgrwt>
</event>
<event>
 8    1  0.1520917E-013  0.8016588E+02  0.7818608E-02  0.1328581E+00
         -1   -1    0    0    0  501 -0.00000000000E+00  0.00000000000E+00  0.96343446876E+01  0.96343460059E+01  0.50400000000E-02 0.  1.
          2   -1    0    0  501    0  0.00000000000E+00 -0.00000000000E+00 -0.16676192215E+03  0.16676192217E+03  0.25500000000E-02 0. -1.
         24    2    1    2    0    0  0.17763568394E-14  0.00000000000E+00 -0.15712757746E+03  0.17639626817E+03  0.80165876949E+02 0.  0.
         66    2    3    3    0    0 -0.10941460265E+02  0.35661115612E+02 -0.46483356468E+02  0.59633322328E+02  0.19999959729E+01 0.  0.
        -13    1    3    3    0    0  0.10941460265E+02 -0.35661115612E+02 -0.11064422099E+03  0.11676294585E+03  0.10566000000E+00 0.  1.
         13    1    4    4    0    0 -0.41442691363E+01  0.13344568837E+02 -0.16984781137E+02  0.21994236482E+02  0.10566000000E+00 0. -1.
        -13    1    4    4    0    0 -0.90630927620E+00  0.48259337107E+01 -0.57450018204E+01  0.75582565870E+01  0.10566000000E+00 0.  1.
        -14    1    4    4    0    0 -0.58908818525E+01  0.17490613065E+02 -0.23753573511E+02  0.30080829259E+02  0.00000000000E+00 0.  1.
<mgrwt>
<rscale>  0 0.80165877E+02</rscale>
<asrwt>0</asrwt>
<pdfrwt beam="1">  1        2 0.25655678E-01 0.80165877E+02</pdfrwt>
<pdfrwt beam="2">  1       -1 0.14822071E-02 0.80165877E+02</pdfrwt>
<totfact> 0.20622797E+05</totfact>
</mgrwt>
</event>
<event>
 8    1  0.1520917E-013  0.7363001E+02  0.7818608E-02  0.1348167E+00
         -1   -1    0    0    0  501 -0.00000000000E+00  0.00000000000E+00  0.10644147880E+02  0.10644149073E+02  0.50400000000E-02 0.  1.
          2   -1    0    0  501    0  0.00000000000E+00 -0.00000000000E+00 -0.12733235486E+03  0.12733235489E+03  0.25500000000E-02 0. -1.
         24    2    1    2    0    0 -0.35527136788E-14  0.35527136788E-14 -0.11668820699E+03  0.13797650396E+03  0.73630007447E+02 0.  0.
         66    2    3    3    0    0 -0.24166030619E+02 -0.21189493643E+02 -0.91926893536E+02  0.97404031960E+02  0.20000025453E+01 0.  0.
        -13    1    3    3    0    0  0.24166030619E+02  0.21189493643E+02 -0.24761313449E+02  0.40572472004E+02  0.10566000000E+00 0.  1.
         13    1    4    4    0    0 -0.15396093656E+02 -0.13892912028E+02 -0.58442332900E+02  0.62012661154E+02  0.10566000000E+00 0. -1.
        -13    1    4    4    0    0 -0.56450718819E+01 -0.42674053164E+01 -0.19456887075E+02  0.20704086635E+02  0.10566000000E+00 0.  1.
        -14    1    4    4    0    0 -0.31248650811E+01 -0.30291762981E+01 -0.14027673560E+02  0.14687284171E+02  0.00000000000E+00 0.  1.
<mgrwt>
<rscale>  0 0.73630007E+02</rscale>
<asrwt>0</asrwt>
<pdfrwt beam="1">  1        2 0.19589592E-01 0.73630007E+02</pdfrwt>
<pdfrwt beam="2">  1       -1 0.16375614E-02 0.73630007E+02</pdfrwt>
<totfact> 0.23702046E+05</totfact>
</mgrwt>
</event>
<event>
 8    1  0.1520917E-013  0.7802967E+02  0.7818608E-02  0.1334738E+00
          2   -1    0    0  501    0  0.00000000000E+00  0.00000000000E+00  0.18240524386E+02  0.18240524564E+02  0.25500000000E-02 0. -1.
         -1   -1    0    0    0  501 -0.00000000000E+00 -0.00000000000E+00 -0.83449217745E+02  0.83449217897E+02  0.50400000000E-02 0.  1.
         24    2    1    2    0    0 -0.17763568394E-14 -0.35527136788E-14 -0.65208693359E+02  0.10168974246E+03  0.78029674049E+02 0.  0.
         66    2    3    3    0    0 -0.13593798497E+02 -0.29508021042E+02 -0.45342226386E+01  0.32864476573E+02  0.19999955137E+01 0.  0.
        -13    1    3    3    0    0  0.13593798497E+02  0.29508021042E+02 -0.60674470720E+02  0.68825265889E+02  0.10566000000E+00 0.  1.
         13    1    4    4    0    0 -0.11232409531E+02 -0.25278296950E+02 -0.43712305785E+01  0.28004966370E+02  0.10566000000E+00 0. -1.
        -13    1    4    4    0    0 -0.12623587728E+01 -0.19714792224E+01 -0.10547878710E-01  0.23434067699E+01  0.10566000000E+00 0.  1.
         14    1    4    4    0    0 -0.10990301928E+01 -0.22582448693E+01 -0.15244418143E+00  0.25161034325E+01  0.00000000000E+00 0. -1.
<mgrwt>
<rscale>  0 0.78029674E+02</rscale>
<asrwt>0</asrwt>
<pdfrwt beam="1">  1        2 0.28062346E-02 0.78029674E+02</pdfrwt>
<pdfrwt beam="2">  1       -1 0.12838341E-01 0.78029674E+02</pdfrwt>
<totfact> 0.13092760E+05</totfact>
</mgrwt>
</event>
<event>
 8    1  0.1520917E-013  0.8034165E+02  0.7818608E-02  0.1328085E+00
         -1   -1    0    0    0  501 -0.00000000000E+00  0.00000000000E+00  0.19208089142E+03  0.19208089149E+03  0.50400000000E-02 0.  1.
          2   -1    0    0  501    0  0.00000000000E+00 -0.00000000000E+00 -0.84011226196E+01  0.84011230066E+01  0.25500000000E-02 0. -1.
         24    2    1    2    0    0  0.00000000000E+00 -0.71054273576E-14  0.18367976880E+03  0.20048201449E+03  0.80341649650E+02 0.  0.
         66    2    3    3    0    0  0.28348657437E+02 -0.24101253258E+02  0.54285764543E+02  0.65844217835E+02  0.20000007944E+01 0.  0.
        -13    1    3    3    0    0 -0.28348657437E+02  0.24101253258E+02  0.12939400426E+03  0.13463779666E+03  0.10566000000E+00 0.  1.
         13    1    4    4    0    0  0.59632449762E+01 -0.55907361598E+01  0.12620345797E+02  0.15036652338E+02  0.10566000000E+00 0. -1.
        -13    1    4    4    0    0  0.64110967912E+01 -0.46590379560E+01  0.11843449732E+02  0.14250868827E+02  0.10566000000E+00 0.  1.
         14    1    4    4    0    0  0.15974315670E+02 -0.13851479142E+02  0.29821969014E+02  0.36556696670E+02  0.00000000000E+00 0. -1.
<mgrwt>
<rscale>  0 0.80341650E+02</rscale>
<asrwt>0</asrwt>
<pdfrwt beam="1">  1        2 0.12924804E-02 0.80341650E+02</pdfrwt>
<pdfrwt beam="2">  1       -1 0.29550907E-01 0.80341650E+02</pdfrwt>
<totfact> 0.99726459E+04</totfact>
</mgrwt>
</event>
<event>
 8    1  0.1520917E-013  0.7866585E+02  0.7818608E-02  0.1332881E+00
          2   -1    0    0  501    0  0.00000000000E+00  0.00000000000E+00  0.33766857135E+02  0.33766857231E+02  0.25500000000E-02 0. -1.
         -1   -1    0    0    0  501 -0.00000000000E+00 -0.00000000000E+00 -0.45816497855E+02  0.45816498132E+02  0.50400000000E-02 0.  1.
         24    2    1    2    0    0 -0.35527136788E-14  0.17763568394E-14 -0.12049640721E+02  0.79583355363E+02  0.78665854152E+02 0.  0.
         66    2    3    3    0    0  0.20840667554E+02 -0.11281447310E+02  0.25697381153E+02  0.35013709842E+02  0.20000003235E+01 0.  0.
        -13    1    3    3    0    0 -0.20840667554E+02  0.11281447310E+02 -0.37747021873E+02  0.44569645521E+02  0.10566000000E+00 0.  1.
         13    1    4    4    0    0  0.35700977618E+01 -0.18770230263E+01  0.41529593886E+01  0.57902546739E+01  0.10566000000E+00 0. -1.
        -13    1    4    4    0    0  0.13686666845E+02 -0.66345956613E+01  0.16867860540E+02  0.22712960884E+02  0.10566000000E+00 0.  1.
        -14    1    4    4    0    0  0.35839029472E+01 -0.27698286228E+01  0.46765612247E+01  0.65104942841E+01  0.00000000000E+00 0.  1.
<mgrwt>
<rscale>  0 0.78665854E+02</rscale>
<asrwt>0</asrwt>
<pdfrwt beam="1">  1        2 0.51949011E-02 0.78665854E+02</pdfrwt>
<pdfrwt beam="2">  1       -1 0.70486920E-02 0.78665854E+02</pdfrwt>
<totfact> 0.14434636E+05</totfact>
</mgrwt>
</event>
<event>
 8    1  0.1638999E-013  0.7935105E+02  0.7818608E-02  0.1330903E+00
          2   -1    0    0  501    0  0.00000000000E+00  0.00000000000E+00  0.53705560790E+03  0.53705560791E+03  0.25500000000E-02 0. -1.
         -1   -1    0    0    0  501 -0.00000000000E+00 -0.00000000000E+00 -0.29310674835E+01  0.29310718167E+01  0.50400000000E-02 0.  1.
         24    2    1    2    0    0  0.71054273576E-14  0.00000000000E+00  0.53412454042E+03  0.53998667973E+03  0.79351052941E+02 0.  0.
         66    2    3    3    0    0 -0.30624707621E+02 -0.12900373191E+02  0.41442328662E+03  0.41575828655E+03  0.19999996241E+01 0.  0.
        -13    1    3    3    0    0  0.30624707621E+02  0.12900373191E+02  0.11970125380E+03  0.12422839318E+03  0.10566000000E+00 0.  1.
         13    1    4    4    0    0 -0.17281376531E+02 -0.73429305040E+01  0.23102319827E+03  0.23178501656E+03  0.10566000000E+00 0. -1.
        -13    1    4    4    0    0 -0.93802717340E+01 -0.39112544842E+01  0.12127300308E+03  0.12169815056E+03  0.10566000000E+00 0.  1.
        -14    1    4    4    0    0 -0.39630593552E+01 -0.16461882031E+01  0.62127085270E+02  0.62275119424E+02  0.00000000000E+00 0.  1.
<mgrwt>
<rscale>  0 0.79351053E+02</rscale>
<asrwt>0</asrwt>
<pdfrwt beam="1">  1        2 0.82624061E-01 0.79351053E+02</pdfrwt>
<pdfrwt beam="2">  1       -1 0.45093313E-03 0.79351053E+02</pdfrwt>
<totfact> 0.31805067E+05</totfact>
</mgrwt>
</event>
<event>
 8    1  0.1520917E-013  0.7808866E+02  0.7818608E-02  0.1334565E+00
         -1   -1    0    0    0  501 -0.00000000000E+00  0.00000000000E+00  0.50199658132E+01  0.50199683433E+01  0.50400000000E-02 0.  1.
          2   -1    0    0  501    0  0.00000000000E+00 -0.00000000000E+00 -0.30367923986E+03  0.30367923987E+03  0.25500000000E-02 0. -1.
         24    2    1    2    0    0  0.00000000000E+00  0.88817841970E-15 -0.29865927405E+03  0.30869920822E+03  0.78088662288E+02 0.  0.
         66    2    3    3    0    0 -0.30551562560E+02  0.48093642282E+01 -0.24347058685E+03  0.24543523491E+03  0.19999793950E+01 0.  0.
        -13    1    3    3    0    0  0.30551562560E+02 -0.48093642282E+01 -0.55188687205E+02  0.63263973307E+02  0.10566000000E+00 0.  1.
         13    1    4    4    0    0 -0.23832241128E+02  0.44246534581E+01 -0.18946337412E+03  0.19100768197E+03  0.10566000000E+00 0. -1.
        -13    1    4    4    0    0 -0.32838816152E+01  0.27758096195E+00 -0.24523908964E+02  0.24744579296E+02  0.10566000000E+00 0.  1.
         14    1    4    4    0    0 -0.34354398167E+01  0.10712980818E+00 -0.29483303763E+02  0.29682973643E+02  0.00000000000E+00 0. -1.
<mgrwt>
<rscale>  0 0.78088662E+02</rscale>
<asrwt>0</asrwt>
<pdfrwt beam="1">  1        2 0.46719869E-01 0.78088662E+02</pdfrwt>
<pdfrwt beam="2">  1       -1 0.77230287E-03 0.78088662E+02</pdfrwt>
<totfact> 0.27280910E+05</totfact>
</mgrwt>
</event>
<event>
 8    1  0.1520917E-013  0.7265917E+02  0.7818608E-02  0.1351277E+00
          2   -1    0    0  501    0  0.00000000000E+00  0.00000000000E+00  0.23651999778E+03  0.23651999779E+03  0.25500000000E-02 0. -1.
         -1   -1    0    0    0  501 -0.00000000000E+00 -0.00000000000E+00 -0.55802405526E+01  0.55802428286E+01  0.50400000000E-02 0.  1.
         24    2    1    2    0    0  0.00000000000E+00  0.00000000000E+00  0.23093975723E+03  0.24210024062E+03  0.72659170386E+02 0.  0.
         66    2    3    3    0    0  0.26931495156E+02  0.24185903350E+02  0.12472501208E+03  0.12988684301E+03  0.19999993445E+01 0.  0.
        -13    1    3    3    0    0 -0.26931495156E+02 -0.24185903350E+02  0.10621474515E+03  0.11221339761E+03  0.10566000000E+00 0.  1.
         13    1    4    4    0    0  0.14797112303E+02  0.13851955520E+02  0.67703907782E+02  0.70672919122E+02  0.10566000000E+00 0. -1.
        -13    1    4    4    0    0  0.49226922146E+01  0.41552514183E+01  0.21419835621E+02  0.22367823655E+02  0.10566000000E+00 0.  1.
         14    1    4    4    0    0  0.72116906379E+01  0.61786964122E+01  0.35601268676E+02  0.36846100236E+02  0.00000000000E+00 0. -1.
<mgrwt>
<rscale>  0 0.72659170E+02</rscale>
<asrwt>0</asrwt>
<pdfrwt beam="1">  1        2 0.36387695E-01 0.72659170E+02</pdfrwt>
<pdfrwt beam="2">  1       -1 0.85849865E-03 0.72659170E+02</pdfrwt>
<totfact> 0.30102503E+05</totfact>
</mgrwt>
</event>
<event>
 8    1  0.1520917E-013  0.7253579E+02  0.7818608E-02  0.1351676E+00
         -1   -1    0    0    0  501 -0.00000000000E+00  0.00000000000E+00  0.13459971064E+02  0.13459972008E+02  0.50400000000E-02 0.  1.
          2   -1    0    0  501    0  0.00000000000E+00 -0.00000000000E+00 -0.97723849530E+02  0.97723849563E+02  0.25500000000E-02 0. -1.
         24    2    1    2    0    0  0.35527136788E-14  0.00000000000E+00 -0.84263878466E+02  0.11118382157E+03  0.72535790924E+02 0.  0.
         66    2    3    3    0    0  0.17278656874E+02  0.27257996513E+02 -0.67434623731E+02  0.74786220877E+02  0.19999995394E+01 0.  0.
        -13    1    3    3    0    0 -0.17278656874E+02 -0.27257996513E+02 -0.16829254735E+02  0.36397600694E+02  0.10566000000E+00 0.  1.
         13    1    4    4    0    0  0.50085680573E+01  0.79618239128E+01 -0.20499467502E+02  0.22554727351E+02  0.10566000000E+00 0. -1.
        -13    1    4    4    0    0  0.47560562757E+01  0.88437401365E+01 -0.20176969794E+02  0.22537814557E+02  0.10566000000E+00 0.  1.
        -14    1    4    4    0    0  0.75140325410E+01  0.10452432464E+02 -0.26758186435E+02  0.29693678970E+02  0.00000000000E+00 0.  1.
<mgrwt>
<rscale>  0 0.72535791E+02</rscale>
<asrwt>0</asrwt>
<pdfrwt beam="1">  1        2 0.15034438E-01 0.72535791E+02</pdfrwt>
<pdfrwt beam="2">  1       -1 0.20707649E-02 0.72535791E+02</pdfrwt>
<totfact> 0.22860792E+05</totfact>
</mgrwt>
</event>
<event>
 8    1  0.1520917E-013  0.8034021E+02  0.7818608E-02  0.1328089E+00
         -1   -1    0    0    0  501 -0.00000000000E+00  0.00000000000E+00  0.19506594621E+01  0.19506659731E+01  0.50400000000E-02 0.  1.
          2   -1    0    0  501    0  0.00000000000E+00 -0.00000000000E+00 -0.82722525377E+03  0.82722525377E+03  0.25500000000E-02 0. -1.
         24    2    1    2    0    0 -0.71054273576E-14  0.00000000000E+00 -0.82527459430E+03  0.82917591974E+03  0.80340213333E+02 0.  0.
         66    2    3    3    0    0  0.32905047677E+02 -0.21870239848E+01 -0.64917058024E+03  0.65001074408E+03  0.19999838350E+01 0.  0.
        -13    1    3    3    0    0 -0.32905047677E+02  0.21870239848E+01 -0.17610401407E+03  0.17916517566E+03  0.10566000000E+00 0.  1.
         13    1    4    4    0    0  0.12943230386E+02 -0.10906014337E+01 -0.26491244046E+03  0.26523070881E+03  0.10566000000E+00 0. -1.
        -13    1    4    4    0    0  0.15544718087E+02 -0.12469963999E+01 -0.30619487207E+03  0.30659175479E+03  0.10566000000E+00 0.  1.
        -14    1    4    4    0    0  0.44170992042E+01  0.15057384871E+00 -0.78063267709E+02  0.78188280473E+02  0.00000000000E+00 0.  1.
<mgrwt>
<rscale>  0 0.80340213E+02</rscale>
<asrwt>0</asrwt>
<pdfrwt beam="1">  1        2 0.12726514E+00 0.80340213E+02</pdfrwt>
<pdfrwt beam="2">  1       -1 0.30010262E-03 0.80340213E+02</pdfrwt>
<totfact> 0.34176266E+05</totfact>
</mgrwt>
</event>
<event>
 8    1  0.1520917E-013  0.7916792E+02  0.7818608E-02  0.1331429E+00
          2   -1    0    0  501    0  0.00000000000E+00  0.00000000000E+00  0.28232702348E+03  0.28232702350E+03  0.25500000000E-02 0. -1.
         -1   -1    0    0    0  501 -0.00000000000E+00 -0.00000000000E+00 -0.55499093498E+01  0.55499116383E+01  0.50400000000E-02 0.  1.
         24    2    1    2    0    0  0.00000000000E+00  0.17763568394E-14  0.27677711413E+03  0.28787693513E+03  0.79167915683E+02 0.  0.
         66    2    3    3    0    0  0.11412401655E+02 -0.13127699122E+02  0.26766989643E+03  0.26824196699E+03  0.20000004913E+01 0.  0.
        -13    1    3    3    0    0 -0.11412401655E+02  0.13127699122E+02  0.91072177018E+01  0.19634968145E+02  0.10566000000E+00 0.  1.
         13    1    4    4    0    0  0.62563288167E+00 -0.53971676667E+00  0.84897372614E+01  0.85305048792E+01  0.10566000000E+00 0. -1.
        -13    1    4    4    0    0  0.43593734401E+00 -0.64687984518E+00  0.14757089387E+02  0.14778069770E+02  0.10566000000E+00 0.  1.
         14    1    4    4    0    0  0.10350831429E+02 -0.11941102510E+02  0.24442306978E+03  0.24493339234E+03  0.00000000000E+00 0. -1.
<mgrwt>
<rscale>  0 0.79167916E+02</rscale>
<asrwt>0</asrwt>
<pdfrwt beam="1">  1        2 0.43434922E-01 0.79167916E+02</pdfrwt>
<pdfrwt beam="2">  1       -1 0.85383248E-03 0.79167916E+02</pdfrwt>
<totfact> 0.25633195E+05</totfact>
</mgrwt>
</event>
<event>
 8    1  0.1520917E-013  0.7963323E+02  0.7818608E-02  0.1330095E+00
          2   -1    0    0  501    0  0.00000000000E+00  0.00000000000E+00  0.10533684797E+04  0.10533684797E+04  0.25500000000E-02 0. -1.
         -1   -1    0    0    0  501 -0.00000000000E+00 -0.00000000000E+00 -0.15050370359E+01  0.15050454748E+01  0.50400000000E-02 0.  1.
         24    2    1    2    0    0 -0.35527136788E-14  0.22204460493E-15  0.10518634427E+04  0.10548735252E+04  0.79633234946E+02 0.  0.
         66    2    3    3    0    0 -0.19515335788E+02  0.12033257741E+01  0.98534288544E+03  0.98553888721E+03  0.20000012087E+01 0.  0.
        -13    1    3    3    0    0  0.19515335788E+02 -0.12033257741E+01  0.66520557235E+02  0.69334637972E+02  0.10566000000E+00 0.  1.
         13    1    4    4    0    0 -0.54649063474E+01  0.52183301165E-01  0.25133891276E+03  0.25139834557E+03  0.10566000000E+00 0. -1.
        -13    1    4    4    0    0 -0.61946231659E+01  0.25551562424E+00  0.29162516053E+03  0.29169107642E+03  0.10566000000E+00 0.  1.
        -14    1    4    4    0    0 -0.78558062751E+01  0.89562684870E+00  0.44237881215E+03  0.44244946522E+03  0.00000000000E+00 0.  1.
<mgrwt>
<rscale>  0 0.79633235E+02</rscale>
<asrwt>0</asrwt>
<pdfrwt beam="1">  1        2 0.16205657E+00 0.79633235E+02</pdfrwt>
<pdfrwt beam="2">  1       -1 0.23154498E-03 0.79633235E+02</pdfrwt>
<totfact> 0.35696375E+05</totfact>
</mgrwt>
</event>
<event>
 8    1  0.1520917E-013  0.7733336E+02  0.7818608E-02  0.1336794E+00
          2   -1    0    0  501    0  0.00000000000E+00  0.00000000000E+00  0.64590923707E+02  0.64590923758E+02  0.25500000000E-02 0. -1.
         -1   -1    0    0    0  501 -0.00000000000E+00 -0.00000000000E+00 -0.23147399836E+02  0.23147400384E+02  0.50400000000E-02 0.  1.
         24    2    1    2    0    0 -0.17763568394E-14  0.00000000000E+00  0.41443523872E+02  0.87738324142E+02  0.77333355367E+02 0.  0.
         66    2    3    3    0    0  0.10295930940E+02 -0.31790431515E+02 -0.12778245291E+01  0.33500307004E+02  0.20000010058E+01 0.  0.
        -13    1    3    3    0    0 -0.10295930940E+02  0.31790431515E+02  0.42721348401E+02  0.54238017138E+02  0.10566000000E+00 0.  1.
         13    1    4    4    0    0  0.37242858598E+00 -0.10104403560E+01  0.46658993149E-01  0.10830668779E+01  0.10566000000E+00 0.  1.
        -13    1    4    4    0    0  0.14906987280E+01 -0.44941258793E+01 -0.82436771701E+00  0.48072961511E+01  0.10566000000E+00 0.  1.
         14    1    4    4    0    0  0.84328036261E+01 -0.26285865279E+02 -0.50011580520E+00  0.27609943975E+02  0.00000000000E+00 0. -1.
<mgrwt>
<rscale>  0 0.77333355E+02</rscale>
<asrwt>0</asrwt>
<pdfrwt beam="1">  1        2 0.99370651E-02 0.77333355E+02</pdfrwt>
<pdfrwt beam="2">  1       -1 0.35611385E-02 0.77333355E+02</pdfrwt>
<totfact> 0.17359720E+05</totfact>
</mgrwt>
</event>
<event>
 8    1  0.1520917E-013  0.8032448E+02  0.7818608E-02  0.1328133E+00
         -1   -1    0    0    0  501 -0.00000000000E+00  0.00000000000E+00  0.54964714270E+01  0.54964737378E+01  0.50400000000E-02 0.  1.
          2   -1    0    0  501    0  0.00000000000E+00 -0.00000000000E+00 -0.29346190614E+03  0.29346190615E+03  0.25500000000E-02 0. -1.
         24    2    1    2    0    0  0.00000000000E+00 -0.71054273576E-14 -0.28796543471E+03  0.29895837989E+03  0.80324475201E+02 0.  0.
         66    2    3    3    0    0 -0.15225914293E+02 -0.34247442993E+02 -0.19752769790E+03  0.20106194879E+03  0.19999991941E+01 0.  0.
        -13    1    3    3    0    0  0.15225914293E+02  0.34247442993E+02 -0.90437736811E+02  0.97896431095E+02  0.10566000000E+00 0.  1.
         13    1    4    4    0    0 -0.87912837700E+01 -0.21062545605E+02 -0.12167587969E+03  0.12379801436E+03  0.10566000000E+00 0. -1.
        -13    1    4    4    0    0 -0.60849673614E+01 -0.12222747580E+02 -0.71631782183E+02  0.72921504160E+02  0.10566000000E+00 0.  1.
        -14    1    4    4    0    0 -0.34966316144E+00 -0.96214980787E+00 -0.42200360307E+01  0.43424302734E+01  0.00000000000E+00 0.  1.
<mgrwt>
<rscale>  0 0.80324475E+02</rscale>
<asrwt>0</asrwt>
<pdfrwt beam="1">  1        2 0.45147974E-01 0.80324475E+02</pdfrwt>
<pdfrwt beam="2">  1       -1 0.84561140E-03 0.80324475E+02</pdfrwt>
<totfact> 0.25024726E+05</totfact>
</mgrwt>
</event>
<event>
 8    1  0.1520917E-013  0.7980101E+02  0.7818608E-02  0.1329617E+00
          2   -1    0    0  501    0  0.00000000000E+00  0.00000000000E+00  0.43416355899E+03  0.43416355900E+03  0.25500000000E-02 0. -1.
         -1   -1    0    0    0  501 -0.00000000000E+00 -0.00000000000E+00 -0.36669352611E+01  0.36669387247E+01  0.50400000000E-02 0.  1.
         24    2    1    2    0    0  0.00000000000E+00  0.00000000000E+00  0.43049662373E+03  0.43783049772E+03  0.79801013112E+02 0.  0.
         66    2    3    3    0    0  0.16873068870E+02  0.34725877715E+02  0.27009964912E+03  0.27285235474E+03  0.19999981799E+01 0.  0.
        -13    1    3    3    0    0 -0.16873068870E+02 -0.34725877715E+02  0.16039697460E+03  0.16497814298E+03  0.10566000000E+00 0.  1.
         13    1    4    4    0    0  0.59953894732E+01  0.11972731074E+02  0.93446969928E+02  0.94401474232E+02  0.10566000000E+00 0. -1.
        -13    1    4    4    0    0  0.52499140236E+01  0.91779583796E+01  0.74160268021E+02  0.74910299921E+02  0.10566000000E+00 0.  1.
         14    1    4    4    0    0  0.56277653736E+01  0.13575188262E+02  0.10249241117E+03  0.10354058058E+03  0.00000000000E+00 0. -1.
<mgrwt>
<rscale>  0 0.79801013E+02</rscale>
<asrwt>0</asrwt>
<pdfrwt beam="1">  1        2 0.66794381E-01 0.79801013E+02</pdfrwt>
<pdfrwt beam="2">  1       -1 0.56414426E-03 0.79801013E+02</pdfrwt>
<totfact> 0.29253838E+05</totfact>
</mgrwt>
</event>
<event>
 8    1  0.1520917E-013  0.8029670E+02  0.7818608E-02  0.1328212E+00
          2   -1    0    0  501    0  0.00000000000E+00  0.00000000000E+00  0.70519999713E+02  0.70519999759E+02  0.25500000000E-02 0. -1.
         -1   -1    0    0    0  501 -0.00000000000E+00 -0.00000000000E+00 -0.22857203057E+02  0.22857203613E+02  0.50400000000E-02 0.  1.
         24    2    1    2    0    0  0.00000000000E+00  0.00000000000E+00  0.47662796656E+02  0.93377203372E+02  0.80296699337E+02 0.  0.
         66    2    3    3    0    0  0.10343600960E+01  0.33254412292E+02  0.49926258995E+02  0.60029635792E+02  0.19999996035E+01 0.  0.
        -13    1    3    3    0    0 -0.10343600960E+01 -0.33254412292E+02 -0.22634623396E+01  0.33347567579E+02  0.10566000000E+00 0.  1.
         13    1    4    4    0    0  0.46568187937E+00  0.11026225413E+02  0.15892320470E+02  0.19348682653E+02  0.10566000000E+00 0. -1.
        -13    1    4    4    0    0  0.98704216356E+00  0.10703656120E+02  0.16058876807E+02  0.19324626643E+02  0.10566000000E+00 0.  1.
        -14    1    4    4    0    0 -0.41836394695E+00  0.11524530760E+02  0.17975061718E+02  0.21356326496E+02  0.00000000000E+00 0.  1.
<mgrwt>
<rscale>  0 0.80296699E+02</rscale>
<asrwt>0</asrwt>
<pdfrwt beam="1">  1        2 0.10849231E-01 0.80296699E+02</pdfrwt>
<pdfrwt beam="2">  1       -1 0.35164929E-02 0.80296699E+02</pdfrwt>
<totfact> 0.16014474E+05</totfact>
</mgrwt>
</event>
<event>
 8    1  0.1751172E-013  0.7961232E+02  0.7818608E-02  0.1330155E+00
          2   -1    0    0  501    0  0.00000000000E+00  0.00000000000E+00  0.27159879647E+03  0.27159879648E+03  0.25500000000E-02 0. -1.
         -1   -1    0    0    0  501 -0.00000000000E+00 -0.00000000000E+00 -0.58340832849E+01  0.58340854619E+01  0.50400000000E-02 0.  1.
         24    2    1    2    0    0  0.00000000000E+00  0.00000000000E+00  0.26576471318E+03  0.27743288194E+03  0.79612318201E+02 0.  0.
         66    2    3    3    0    0 -0.36603175800E+02  0.11312674749E+02  0.17029666104E+03  0.17456437737E+03  0.19999992560E+01 0.  0.
        -13    1    3    3    0    0  0.36603175800E+02 -0.11312674749E+02  0.95468052147E+02  0.10286850457E+03  0.10566000000E+00 0.  1.
         13    1    4    4    0    0 -0.18339368933E+02  0.54047214449E+01  0.85702734951E+02  0.87809529146E+02  0.10566000000E+00 0. -1.
        -13    1    4    4    0    0 -0.16042061560E+02  0.50404267821E+01  0.72059617894E+02  0.73995630521E+02  0.10566000000E+00 0.  1.
        -14    1    4    4    0    0 -0.22217453070E+01  0.86752652163E+00  0.12534308191E+02  0.12759217699E+02  0.00000000000E+00 0.  1.
<mgrwt>
<rscale>  0 0.79612318E+02</rscale>
<asrwt>0</asrwt>
<pdfrwt beam="1">  1        2 0.41784436E-01 0.79612318E+02</pdfrwt>
<pdfrwt beam="2">  1       -1 0.89755133E-03 0.79612318E+02</pdfrwt>
<totfact> 0.24907944E+05</totfact>
</mgrwt>
</event>
<event>
 8    1  0.1520917E-013  0.7987393E+02  0.7818608E-02  0.1329410E+00
         -1   -1    0    0    0  501 -0.00000000000E+00  0.00000000000E+00  0.33691213943E+02  0.33691214320E+02  0.50400000000E-02 0.  1.
          2   -1    0    0  501    0  0.00000000000E+00 -0.00000000000E+00 -0.47340568988E+02  0.47340569057E+02  0.25500000000E-02 0. -1.
         24    2    1    2    0    0  0.35527136788E-14  0.00000000000E+00 -0.13649355045E+02  0.81031783377E+02  0.79873932069E+02 0.  0.
         66    2    3    3    0    0  0.14379906830E+02  0.36232239647E+02 -0.15520480827E+02  0.42005264367E+02  0.19999997964E+01 0.  0.
        -13    1    3    3    0    0 -0.14379906830E+02 -0.36232239647E+02  0.18711257822E+01  0.39026519010E+02  0.10566000000E+00 0.  1.
         13    1    4    4    0    0  0.54589238102E+01  0.12664678886E+02 -0.45720262416E+01  0.14529574269E+02  0.10566000000E+00 0. -1.
        -13    1    4    4    0    0  0.67625660107E+01  0.17726500190E+02 -0.82163997584E+01  0.20675625675E+02  0.10566000000E+00 0.  1.
         14    1    4    4    0    0  0.21584170090E+01  0.58410605710E+01 -0.27320548270E+01  0.68000644230E+01  0.00000000000E+00 0. -1.
<mgrwt>
<rscale>  0 0.79873932E+02</rscale>
<asrwt>0</asrwt>
<pdfrwt beam="1">  1        2 0.72831645E-02 0.79873932E+02</pdfrwt>
<pdfrwt beam="2">  1       -1 0.51832637E-02 0.79873932E+02</pdfrwt>
<totfact> 0.14831744E+05</totfact>
</mgrwt>
</event>
<event>
 8    1  0.1520917E-013  0.7691531E+02  0.7818608E-02  0.1338040E+00
          2   -1    0    0  501    0  0.00000000000E+00  0.00000000000E+00  0.19632231363E+03  0.19632231364E+03  0.25500000000E-02 0. -1.
         -1   -1    0    0    0  501 -0.00000000000E+00 -0.00000000000E+00 -0.75334841274E+01  0.75334858133E+01  0.50400000000E-02 0.  1.
         24    2    1    2    0    0  0.00000000000E+00  0.00000000000E+00  0.18878882950E+03  0.20385579946E+03  0.76915309454E+02 0.  0.
         66    2    3    3    0    0 -0.17570721502E+02 -0.32130782068E+02  0.12535178622E+03  0.13060699718E+03  0.19999985862E+01 0.  0.
        -13    1    3    3    0    0  0.17570721502E+02  0.32130782068E+02  0.63437043283E+02  0.73248802277E+02  0.10566000000E+00 0.  1.
         13    1    4    4    0    0 -0.15539502173E+02 -0.28127216358E+02  0.10970494392E+03  0.11431448864E+03  0.10566000000E+00 0. -1.
        -13    1    4    4    0    0 -0.11880980830E+01 -0.17415654037E+01  0.79903995041E+01  0.82645190653E+01  0.10566000000E+00 0.  1.
         14    1    4    4    0    0 -0.84312124665E+00 -0.22620003067E+01  0.76564427892E+01  0.80279894748E+01  0.00000000000E+00 0. -1.
<mgrwt>
<rscale>  0 0.76915309E+02</rscale>
<asrwt>0</asrwt>
<pdfrwt beam="1">  1        2 0.30203435E-01 0.76915309E+02</pdfrwt>
<pdfrwt beam="2">  1       -1 0.11589976E-02 0.76915309E+02</pdfrwt>
<totfact> 0.24308991E+05</totfact>
</mgrwt>
</event>
<event>
 8    1  0.1520917E-013  0.7898929E+02  0.7818608E-02  0.1331944E+00
         -1   -1    0    0    0  501 -0.00000000000E+00  0.00000000000E+00  0.65081779746E+02  0.65081779941E+02  0.50400000000E-02 0.  1.
          2   -1    0    0  501    0  0.00000000000E+00 -0.00000000000E+00 -0.23967183884E+02  0.23967184020E+02  0.25500000000E-02 0. -1.
         24    2    1    2    0    0  0.00000000000E+00 -0.44408920985E-15  0.41114595862E+02  0.89048963961E+02  0.78989290348E+02 0.  0.
         66    2    3    3    0    0 -0.24021960632E+02  0.36743445337E+01 -0.14491324033E+02  0.28364658810E+02  0.19999992091E+01 0.  0.
        -13    1    3    3    0    0  0.24021960632E+02 -0.36743445337E+01  0.55605919895E+02  0.60684305151E+02  0.10566000000E+00 0.  1.
         13    1    4    4    0    0 -0.53530033807E+01  0.74563138959E+00 -0.41470679634E+01  0.68132186294E+01  0.10566000000E+00 0. -1.
        -13    1    4    4    0    0 -0.10925666377E+02  0.19936441187E+01 -0.59981679253E+01  0.12622756638E+02  0.10566000000E+00 0.  1.
         14    1    4    4    0    0 -0.77432908739E+01  0.93506902541E+00 -0.43460881438E+01  0.89286835420E+01  0.00000000000E+00 0. -1.
<mgrwt>
<rscale>  0 0.78989290E+02</rscale>
<asrwt>0</asrwt>
<pdfrwt beam="1">  1        2 0.36872591E-02 0.78989290E+02</pdfrwt>
<pdfrwt beam="2">  1       -1 0.10012581E-01 0.78989290E+02</pdfrwt>
<totfact> 0.13345175E+05</totfact>
</mgrwt>
</event>
<event>
 8    1  0.1520917E-013  0.8010019E+02  0.7818608E-02  0.1328767E+00
         -1   -1    0    0    0  501 -0.00000000000E+00  0.00000000000E+00  0.16247448368E+01  0.16247526539E+01  0.50400000000E-02 0.  1.
          2   -1    0    0  501    0  0.00000000000E+00 -0.00000000000E+00 -0.98723587230E+03  0.98723587231E+03  0.25500000000E-02 0. -1.
         24    2    1    2    0    0 -0.17763568394E-14 -0.71054273576E-14 -0.98561112747E+03  0.98886062496E+03  0.80100193580E+02 0.  0.
         66    2    3    3    0    0 -0.12046740423E+02 -0.23705089059E+02 -0.86243032351E+03  0.86284246425E+03  0.19999992162E+01 0.  0.
        -13    1    3    3    0    0  0.12046740423E+02  0.23705089059E+02 -0.12318080396E+03  0.12601816071E+03  0.10566000000E+00 0.  1.
         13    1    4    4    0    0 -0.45555169546E+01 -0.10506315676E+02 -0.36240664051E+03  0.36258753379E+03  0.10566000000E+00 0. -1.
        -13    1    4    4    0    0 -0.62549470201E+01 -0.11159342843E+02 -0.40915330942E+03  0.40935326683E+03  0.10566000000E+00 0.  1.
        -14    1    4    4    0    0 -0.12362764486E+01 -0.20394305402E+01 -0.90870373578E+02  0.90901663629E+02  0.00000000000E+00 0.  1.
<mgrwt>
<rscale>  0 0.80100194E+02</rscale>
<asrwt>0</asrwt>
<pdfrwt beam="1">  1        2 0.15188196E+00 0.80100194E+02</pdfrwt>
<pdfrwt beam="2">  1       -1 0.24996213E-03 0.80100194E+02</pdfrwt>
<totfact> 0.35095956E+05</totfact>
</mgrwt>
</event>
<event>
 8    1  0.1520917E-013  0.7897709E+02  0.7818608E-02  0.1331980E+00
         -1   -1    0    0    0  501 -0.00000000000E+00  0.00000000000E+00  0.28700664981E+03  0.28700664986E+03  0.50400000000E-02 0.  1.
          2   -1    0    0  501    0  0.00000000000E+00 -0.00000000000E+00 -0.54331327961E+01  0.54331333945E+01  0.25500000000E-02 0. -1.
         24    2    1    2    0    0  0.00000000000E+00  0.00000000000E+00  0.28157351702E+03  0.29243978325E+03  0.78977093787E+02 0.  0.
         66    2    3    3    0    0  0.90696117644E+01 -0.38240565696E+02  0.12765932138E+03  0.13358705427E+03  0.20000027672E+01 0.  0.
        -13    1    3    3    0    0 -0.90696117644E+01  0.38240565696E+02  0.15391419564E+03  0.15885272899E+03  0.10566000000E+00 0.  1.
         13    1    4    4    0    0  0.15416296719E+01 -0.45349338087E+01  0.14908416568E+02  0.15659319759E+02  0.10566000000E+00 0. -1.
        -13    1    4    4    0    0  0.10982912691E+01 -0.35297864611E+01  0.12733598217E+02  0.13259763337E+02  0.10566000000E+00 0.  1.
         14    1    4    4    0    0  0.64296908234E+01 -0.30175845426E+02  0.10001730659E+03  0.10466797117E+03  0.00000000000E+00 0. -1.
<mgrwt>
<rscale>  0 0.78977094E+02</rscale>
<asrwt>0</asrwt>
<pdfrwt beam="1">  1        2 0.83586659E-03 0.78977094E+02</pdfrwt>
<pdfrwt beam="2">  1       -1 0.44154872E-01 0.78977094E+02</pdfrwt>
<totfact> 0.90919344E+04</totfact>
</mgrwt>
</event>
<event>
 8    1  0.1520917E-013  0.7969542E+02  0.7818608E-02  0.1329918E+00
          2   -1    0    0  501    0  0.00000000000E+00  0.00000000000E+00  0.38508005092E+03  0.38508005092E+03  0.25500000000E-02 0. -1.
         -1   -1    0    0    0  501 -0.00000000000E+00 -0.00000000000E+00 -0.41234010457E+01  0.41234041259E+01  0.50400000000E-02 0.  1.
         24    2    1    2    0    0  0.35527136788E-14  0.00000000000E+00  0.38095664987E+03  0.38920345505E+03  0.79695422345E+02 0.  0.
         66    2    3    3    0    0 -0.20758025370E+02 -0.33967677445E+02  0.19580400758E+03  0.19981968901E+03  0.20000009257E+01 0.  0.
        -13    1    3    3    0    0  0.20758025370E+02  0.33967677445E+02  0.18515264229E+03  0.18938376604E+03  0.10566000000E+00 0.  1.
         13    1    4    4    0    0 -0.10696721189E+02 -0.18317054487E+02  0.10648655899E+03  0.10857869376E+03  0.10566000000E+00 0. -1.
        -13    1    4    4    0    0 -0.78232587777E+01 -0.11846198917E+02  0.70107888163E+02  0.71530853157E+02  0.10566000000E+00 0.  1.
         14    1    4    4    0    0 -0.22380454036E+01 -0.38044240402E+01  0.19209560420E+02  0.19710142086E+02  0.00000000000E+00 0. -1.
<mgrwt>
<rscale>  0 0.79695422E+02</rscale>
<asrwt>0</asrwt>
<pdfrwt beam="1">  1        2 0.59243106E-01 0.79695422E+02</pdfrwt>
<pdfrwt beam="2">  1       -1 0.63436940E-03 0.79695422E+02</pdfrwt>
<totfact> 0.28158114E+05</totfact>
</mgrwt>
</event>
<event>
 8    1  0.1520917E-013  0.8116544E+02  0.7818608E-02  0.1325776E+00
         -1   -1    0    0    0  501 -0.00000000000E+00  0.00000000000E+00  0.98491619268E+01  0.98491632163E+01  0.50400000000E-02 0.  1.
          2   -1    0    0  501    0  0.00000000000E+00 -0.00000000000E+00 -0.16721797849E+03  0.16721797851E+03  0.25500000000E-02 0. -1.
         24    2    1    2    0    0 -0.35527136788E-14 -0.35527136788E-14 -0.15736881656E+03  0.17706714172E+03  0.81165437547E+02 0.  0.
         66    2    3    3    0    0 -0.25446081679E+02 -0.25491072846E+02 -0.11940827109E+03  0.12473825826E+03  0.20000005939E+01 0.  0.
        -13    1    3    3    0    0  0.25446081679E+02  0.25491072846E+02 -0.37960545472E+02  0.52328883461E+02  0.10566000000E+00 0.  1.
         13    1    4    4    0    0 -0.12706418348E+01 -0.11666222171E+01 -0.44913367815E+01  0.48123599398E+01  0.10566000000E+00 0. -1.
        -13    1    4    4    0    0 -0.15701714464E+02 -0.15518192710E+02 -0.73918011727E+02  0.77144291842E+02  0.10566000000E+00 0.  1.
         14    1    4    4    0    0 -0.84737253797E+01 -0.88062579193E+01 -0.40998922579E+02  0.42781606480E+02  0.00000000000E+00 0. -1.
<mgrwt>
<rscale>  0 0.81165438E+02</rscale>
<asrwt>0</asrwt>
<pdfrwt beam="1">  1        2 0.25725841E-01 0.81165438E+02</pdfrwt>
<pdfrwt beam="2">  1       -1 0.15152559E-02 0.81165438E+02</pdfrwt>
<totfact> 0.19974689E+05</totfact>
</mgrwt>
</event>
<event>
 8    1  0.1520917E-013  0.8014765E+02  0.7818608E-02  0.1328633E+00
          2   -1    0    0  501    0  0.00000000000E+00  0.00000000000E+00  0.24904424038E+03  0.24904424039E+03  0.25500000000E-02 0. -1.
         -1   -1    0    0    0  501 -0.00000000000E+00 -0.00000000000E+00 -0.64482967036E+01  0.64482986732E+01  0.50400000000E-02 0.  1.
         24    2    1    2    0    0  0.00000000000E+00  0.00000000000E+00  0.24259594368E+03  0.25549253907E+03  0.80147648938E+02 0.  0.
         66    2    3    3    0    0 -0.17903333536E+02 -0.11202396898E+02  0.22984584281E+03  0.23082273396E+03  0.20000015646E+01 0.  0.
        -13    1    3    3    0    0  0.17903333536E+02  0.11202396898E+02  0.12750100864E+02  0.24669805107E+02  0.10566000000E+00 0.  1.
         13    1    4    4    0    0 -0.97439581750E+01 -0.64347992846E+01  0.12785904397E+03  0.12839118993E+03  0.10566000000E+00 0. -1.
        -13    1    4    4    0    0 -0.72128767017E+01 -0.44697362001E+01  0.87393799586E+02  0.87804848967E+02  0.10566000000E+00 0.  1.
         14    1    4    4    0    0 -0.94649865886E+00 -0.29786141304E+00  0.14592999258E+02  0.14626695063E+02  0.00000000000E+00 0. -1.
<mgrwt>
<rscale>  0 0.80147649E+02</rscale>
<asrwt>0</asrwt>
<pdfrwt beam="1">  1        2 0.38314499E-01 0.80147649E+02</pdfrwt>
<pdfrwt beam="2">  1       -1 0.99204578E-03 0.80147649E+02</pdfrwt>
<totfact> 0.23720365E+05</totfact>
</mgrwt>
</event>
<event>
 8    1  0.1520917E-013  0.8202685E+02  0.7818608E-02  0.1323396E+00
         -1   -1    0    0    0  501 -0.00000000000E+00  0.00000000000E+00  0.19657626189E+03  0.19657626196E+03  0.50400000000E-02 0.  1.
          2   -1    0    0  501    0  0.00000000000E+00 -0.00000000000E+00 -0.85569895574E+01  0.85569899373E+01  0.25500000000E-02 0. -1.
         24    2    1    2    0    0 -0.17763568394E-14  0.00000000000E+00  0.18801927233E+03  0.20513325189E+03  0.82026850868E+02 0.  0.
         66    2    3    3    0    0  0.12665308762E+02  0.34211547407E+02  0.47329319278E+02  0.59790504991E+02  0.20000004415E+01 0.  0.
        -13    1    3    3    0    0 -0.12665308762E+02 -0.34211547407E+02  0.14068995306E+03  0.14534274690E+03  0.10566000000E+00 0.  1.
         13    1    4    4    0    0  0.52466662233E+01  0.12989360968E+02  0.17829899700E+02  0.22675261678E+02  0.10566000000E+00 0. -1.
        -13    1    4    4    0    0  0.34462788389E+01  0.10469758387E+02  0.13381014650E+02  0.17336533553E+02  0.10566000000E+00 0.  1.
         14    1    4    4    0    0  0.39723636996E+01  0.10752428052E+02  0.16118404928E+02  0.19778709761E+02  0.00000000000E+00 0. -1.
<mgrwt>
<rscale>  0 0.82026851E+02</rscale>
<asrwt>0</asrwt>
<pdfrwt beam="1">  1        2 0.13164600E-02 0.82026851E+02</pdfrwt>
<pdfrwt beam="2">  1       -1 0.30242501E-01 0.82026851E+02</pdfrwt>
<totfact> 0.93944878E+04</totfact>
</mgrwt>
</event>
<event>
 8    1  0.1520917E-013  0.7955128E+02  0.7818608E-02  0.1330330E+00
         -1   -1    0    0    0  501 -0.00000000000E+00  0.00000000000E+00  0.10801191623E+03  0.10801191635E+03  0.50400000000E-02 0.  1.
          2   -1    0    0  501    0  0.00000000000E+00 -0.00000000000E+00 -0.14647473641E+02  0.14647473863E+02  0.25500000000E-02 0. -1.
         24    2    1    2    0    0  0.00000000000E+00  0.35527136788E-14  0.93364442592E+02  0.12265939021E+03  0.79551284510E+02 0.  0.
         66    2    3    3    0    0 -0.30066435271E+02  0.23121375203E+02  0.28369743448E+02  0.47407077279E+02  0.20000279146E+01 0.  0.
        -13    1    3    3    0    0  0.30066435271E+02 -0.23121375203E+02  0.64994699144E+02  0.75252312935E+02  0.10566000000E+00 0.  1.
         13    1    4    4    0    0 -0.10844105995E+02  0.89322206167E+01  0.10164875051E+02  0.17341137472E+02  0.10566000000E+00 0. -1.
        -13    1    4    4    0    0 -0.72383028068E+00  0.70851354882E+00  0.10397514360E+01  0.14553930082E+01  0.10566000000E+00 0.  1.
        -14    1    4    4    0    0 -0.18498498995E+02  0.13480641037E+02  0.17165116961E+02  0.28610546799E+02  0.00000000000E+00 0.  1.
<mgrwt>
<rscale>  0 0.79551285E+02</rscale>
<asrwt>0</asrwt>
<pdfrwt beam="1">  1        2 0.22534575E-02 0.79551285E+02</pdfrwt>
<pdfrwt beam="2">  1       -1 0.16617218E-01 0.79551285E+02</pdfrwt>
<totfact> 0.11821494E+05</totfact>
</mgrwt>
</event>
<event>
 8    1  0.1520917E-013  0.8158655E+02  0.7818608E-02  0.1324608E+00
          2   -1    0    0  501    0  0.00000000000E+00  0.00000000000E+00  0.20492153792E+03  0.20492153793E+03  0.25500000000E-02 0. -1.
         -1   -1    0    0    0  501 -0.00000000000E+00 -0.00000000000E+00 -0.81206251226E+01  0.81206266866E+01  0.50400000000E-02 0.  1.
         24    2    1    2    0    0  0.00000000000E+00  0.17763568394E-14  0.19680091279E+03  0.21304216462E+03  0.81586546863E+02 0.  0.
         66    2    3    3    0    0  0.28622444944E+01  0.14879908563E+02  0.19729006315E+03  0.19788120968E+03  0.20000016409E+01 0.  0.
        -13    1    3    3    0    0 -0.28622444944E+01 -0.14879908563E+02 -0.48915035617E+00  0.15160954933E+02  0.10566000000E+00 0.  1.
         13    1    4    4    0    0 -0.26518780590E-01  0.25886987076E+01  0.36455675131E+02  0.36547632995E+02  0.10566000000E+00 0.  1.
        -13    1    4    4    0    0  0.10075209235E+01  0.63827376563E+01  0.86397034124E+02  0.86638404347E+02  0.10566000000E+00 0. -1.
        -14    1    4    4    0    0  0.18812423514E+01  0.59084721988E+01  0.74437353894E+02  0.74695172343E+02  0.00000000000E+00 0.  1.
<mgrwt>
<rscale>  0 0.81586547E+02</rscale>
<asrwt>0</asrwt>
<pdfrwt beam="1">  1        2 0.31526389E-01 0.81586547E+02</pdfrwt>
<pdfrwt beam="2">  1       -1 0.12493271E-02 0.81586547E+02</pdfrwt>
<totfact> 0.21121970E+05</totfact>
</mgrwt>
</event>
<event>
 8    1  0.1520917E-013  0.7805371E+02  0.7818608E-02  0.1334667E+00
          2   -1    0    0  501    0  0.00000000000E+00  0.00000000000E+00  0.50210441882E+01  0.50210448357E+01  0.25500000000E-02 0. -1.
         -1   -1    0    0    0  501 -0.00000000000E+00 -0.00000000000E+00 -0.30334237424E+03  0.30334237428E+03  0.50400000000E-02 0.  1.
         24    2    1    2    0    0  0.00000000000E+00  0.00000000000E+00 -0.29832133005E+03  0.30836341912E+03  0.78053714108E+02 0.  0.
         66    2    3    3    0    0 -0.12672435854E+02 -0.34667699179E+02 -0.19901945061E+03  0.20242327365E+03  0.19999993487E+01 0.  0.
        -13    1    3    3    0    0  0.12672435854E+02  0.34667699179E+02 -0.99301879439E+02  0.10594014546E+03  0.10566000000E+00 0.  1.
         13    1    4    4    0    0 -0.56622916397E+01 -0.16342735427E+02 -0.92486167264E+02  0.94089578844E+02  0.10566000000E+00 0. -1.
        -13    1    4    4    0    0 -0.32783495205E+01 -0.10444763515E+02 -0.59993314335E+02  0.60984010933E+02  0.10566000000E+00 0.  1.
         14    1    4    4    0    0 -0.37317946941E+01 -0.78802002371E+01 -0.46539969011E+02  0.47349683874E+02  0.00000000000E+00 0. -1.
<mgrwt>
<rscale>  0 0.78053714E+02</rscale>
<asrwt>0</asrwt>
<pdfrwt beam="1">  1        2 0.77246862E-03 0.78053714E+02</pdfrwt>
<pdfrwt beam="2">  1       -1 0.46668044E-01 0.78053714E+02</pdfrwt>
<totfact> 0.91649002E+04</totfact>
</mgrwt>
</event>
<event>
 8    1  0.1520917E-013  0.7844106E+02  0.7818608E-02  0.1333535E+00
         -1   -1    0    0    0  501 -0.00000000000E+00  0.00000000000E+00  0.25798257673E+02  0.25798258166E+02  0.50400000000E-02 0.  1.
          2   -1    0    0  501    0  0.00000000000E+00 -0.00000000000E+00 -0.59626113571E+02  0.59626113626E+02  0.25500000000E-02 0. -1.
         24    2    1    2    0    0 -0.88817841970E-15  0.71054273576E-14 -0.33827855898E+02  0.85424371792E+02  0.78441057243E+02 0.  0.
         66    2    3    3    0    0  0.50723594691E+01 -0.30651761926E+02 -0.42947507722E+02  0.53044770911E+02  0.19999904280E+01 0.  0.
        -13    1    3    3    0    0 -0.50723594691E+01  0.30651761926E+02  0.91196518243E+01  0.32379600881E+02  0.10566000000E+00 0.  1.
         13    1    4    4    0    0  0.36528022935E+01 -0.22095308621E+02 -0.31184300304E+02  0.38392933948E+02  0.10566000000E+00 0. -1.
        -13    1    4    4    0    0  0.14803468538E+01 -0.81722408306E+01 -0.10890739514E+02  0.13696580529E+02  0.10566000000E+00 0.  1.
         14    1    4    4    0    0 -0.60789678195E-01 -0.38421247484E+00 -0.87246790377E+00  0.95525643358E+00  0.00000000000E+00 0. -1.
<mgrwt>
<rscale>  0 0.78441057E+02</rscale>
<asrwt>0</asrwt>
<pdfrwt beam="1">  1        2 0.91732482E-02 0.78441057E+02</pdfrwt>
<pdfrwt beam="2">  1       -1 0.39689628E-02 0.78441057E+02</pdfrwt>
<totfact> 0.16397688E+05</totfact>
</mgrwt>
</event>
<event>
 8    1  0.1520917E-013  0.7972070E+02  0.7818608E-02  0.1329846E+00
          2   -1    0    0  501    0  0.00000000000E+00  0.00000000000E+00  0.19518318547E+03  0.19518318549E+03  0.25500000000E-02 0. -1.
         -1   -1    0    0    0  501 -0.00000000000E+00 -0.00000000000E+00 -0.81402876107E+01  0.81402891709E+01  0.50400000000E-02 0.  1.
         24    2    1    2    0    0 -0.35527136788E-14  0.00000000000E+00  0.18704289786E+03  0.20332347466E+03  0.79720698111E+02 0.  0.
         66    2    3    3    0    0 -0.30693424053E+02  0.13129235241E+02  0.14901231747E+03  0.15271913387E+03  0.19999983508E+01 0.  0.
        -13    1    3    3    0    0  0.30693424053E+02 -0.13129235241E+02  0.38030580394E+02  0.50604340794E+02  0.10566000000E+00 0.  1.
         13    1    4    4    0    0 -0.25450713991E+01  0.90026459303E+00  0.11440556072E+02  0.11755226583E+02  0.10566000000E+00 0. -1.
        -13    1    4    4    0    0 -0.29709791072E+01  0.79424654895E+00  0.12802068136E+02  0.13166687398E+02  0.10566000000E+00 0.  1.
        -14    1    4    4    0    0 -0.25177373547E+02  0.11434724099E+02  0.12476969326E+03  0.12779721989E+03  0.00000000000E+00 0.  1.
<mgrwt>
<rscale>  0 0.79720698E+02</rscale>
<asrwt>0</asrwt>
<pdfrwt beam="1">  1        2 0.30028179E-01 0.79720698E+02</pdfrwt>
<pdfrwt beam="2">  1       -1 0.12523522E-02 0.79720698E+02</pdfrwt>
<totfact> 0.22075873E+05</totfact>
</mgrwt>
</event>
<event>
 8    1  0.1520917E-013  0.8341511E+02  0.7818608E-02  0.1319630E+00
          2   -1    0    0  501    0  0.00000000000E+00  0.00000000000E+00  0.95329368305E+02  0.95329368339E+02  0.25500000000E-02 0. -1.
         -1   -1    0    0    0  501 -0.00000000000E+00 -0.00000000000E+00 -0.18247472137E+02  0.18247472833E+02  0.50400000000E-02 0.  1.
         24    2    1    2    0    0  0.00000000000E+00  0.00000000000E+00  0.77081896168E+02  0.11357684117E+03  0.83415107348E+02 0.  0.
         66    2    3    3    0    0 -0.31682084764E+02 -0.20159920124E+02  0.13928563193E+02  0.40102141417E+02  0.19999998026E+01 0.  0.
        -13    1    3    3    0    0  0.31682084764E+02  0.20159920124E+02  0.63153332975E+02  0.73474699756E+02  0.10566000000E+00 0.  1.
         13    1    4    4    0    0 -0.10263989982E+02 -0.58034533743E+01  0.45215996686E+01  0.12628760391E+02  0.10566000000E+00 0. -1.
        -13    1    4    4    0    0 -0.17113035458E+01 -0.84262417480E+00  0.86688376898E+00  0.20979101102E+01  0.10566000000E+00 0.  1.
         14    1    4    4    0    0 -0.19706791236E+02 -0.13513842574E+02  0.85400797552E+01  0.25375470915E+02  0.00000000000E+00 0. -1.
<mgrwt>
<rscale>  0 0.83415107E+02</rscale>
<asrwt>0</asrwt>
<pdfrwt beam="1">  1        2 0.14666057E-01 0.83415107E+02</pdfrwt>
<pdfrwt beam="2">  1       -1 0.28073035E-02 0.83415107E+02</pdfrwt>
<totfact> 0.15632459E+05</totfact>
</mgrwt>
</event>
<event>
 8    1  0.1520917E-013  0.7925460E+02  0.7818608E-02  0.1331180E+00
         -1   -1    0    0    0  501 -0.00000000000E+00  0.00000000000E+00  0.22214818340E+02  0.22214818912E+02  0.50400000000E-02 0.  1.
          2   -1    0    0  501    0  0.00000000000E+00 -0.00000000000E+00 -0.70688085793E+02  0.70688085839E+02  0.25500000000E-02 0. -1.
         24    2    1    2    0    0  0.22204460493E-15  0.71054273576E-14 -0.48473267453E+02  0.92902904751E+02  0.79254602728E+02 0.  0.
         66    2    3    3    0    0 -0.19528209301E+01  0.38391511802E+02 -0.13094696453E+02  0.40659473221E+02  0.19999998475E+01 0.  0.
        -13    1    3    3    0    0  0.19528209301E+01 -0.38391511802E+02 -0.35378571000E+02  0.52243431530E+02  0.10566000000E+00 0.  1.
         13    1    4    4    0    0 -0.91212843781E+00  0.20690621696E+02 -0.67436430038E+01  0.21781223323E+02  0.10566000000E+00 0. -1.
        -13    1    4    4    0    0 -0.10707727728E+00  0.19965714977E+00 -0.12126810854E+00  0.27784619939E+00  0.10566000000E+00 0.  1.
        -14    1    4    4    0    0 -0.93361521496E+00  0.17501232956E+02 -0.62297853407E+01  0.18600403699E+02  0.00000000000E+00 0.  1.
<mgrwt>
<rscale>  0 0.79254603E+02</rscale>
<asrwt>0</asrwt>
<pdfrwt beam="1">  1        2 0.10875090E-01 0.79254603E+02</pdfrwt>
<pdfrwt beam="2">  1       -1 0.34176645E-02 0.79254603E+02</pdfrwt>
<totfact> 0.16600174E+05</totfact>
</mgrwt>
</event>
<event>
 8    1  0.1520917E-013  0.8067899E+02  0.7818608E-02  0.1327136E+00
          2   -1    0    0  501    0  0.00000000000E+00  0.00000000000E+00  0.16550070083E+03  0.16550070085E+03  0.25500000000E-02 0. -1.
         -1   -1    0    0    0  501 -0.00000000000E+00 -0.00000000000E+00 -0.98324341536E+01  0.98324354453E+01  0.50400000000E-02 0.  1.
         24    2    1    2    0    0  0.88817841970E-15  0.35527136788E-14  0.15566826668E+03  0.17533313629E+03  0.80678990034E+02 0.  0.
         66    2    3    3    0    0 -0.57409288965E+01  0.16647641727E+02  0.15669414989E+03  0.15769324287E+03  0.19999994979E+01 0.  0.
        -13    1    3    3    0    0  0.57409288965E+01 -0.16647641727E+02 -0.10258832108E+01  0.17639893426E+02  0.10566000000E+00 0.  1.
         13    1    4    4    0    0 -0.22086967899E+01  0.43554574671E+01  0.44522627595E+02  0.44789774316E+02  0.10566000000E+00 0. -1.
        -13    1    4    4    0    0 -0.62658366416E+00  0.23823627647E+01  0.18217516594E+02  0.18383615921E+02  0.10566000000E+00 0.  1.
        -14    1    4    4    0    0 -0.29056484425E+01  0.99098214957E+01  0.93954005697E+02  0.94519852632E+02  0.00000000000E+00 0.  1.
<mgrwt>
<rscale>  0 0.80678990E+02</rscale>
<asrwt>0</asrwt>
<pdfrwt beam="1">  1        2 0.25461644E-01 0.80678990E+02</pdfrwt>
<pdfrwt beam="2">  1       -1 0.15126824E-02 0.80678990E+02</pdfrwt>
<totfact> 0.20226092E+05</totfact>
</mgrwt>
</event>
<event>
 8    1  0.1520917E-013  0.7968319E+02  0.7818608E-02  0.1329953E+00
          2   -1    0    0  501    0  0.00000000000E+00  0.00000000000E+00  0.22516049832E+03  0.22516049834E+03  0.25500000000E-02 0. -1.
         -1   -1    0    0    0  501 -0.00000000000E+00 -0.00000000000E+00 -0.70498712433E+01  0.70498730449E+01  0.50400000000E-02 0.  1.
         24    2    1    2    0    0  0.00000000000E+00  0.00000000000E+00  0.21811062708E+03  0.23221037138E+03  0.79683191028E+02 0.  0.
         66    2    3    3    0    0  0.32482230285E+02 -0.13100243196E+02  0.16431147535E+03  0.16801479874E+03  0.20000018462E+01 0.  0.
        -13    1    3    3    0    0 -0.32482230285E+02  0.13100243196E+02  0.53799151725E+02  0.64195572639E+02  0.10566000000E+00 0.  1.
         13    1    4    4    0    0  0.63998696774E+01 -0.28065111619E+01  0.30171973802E+02  0.30970857333E+02  0.10566000000E+00 0. -1.
        -13    1    4    4    0    0  0.71180969532E+01 -0.32713557022E+01  0.38904450368E+02  0.39685469568E+02  0.10566000000E+00 0.  1.
        -14    1    4    4    0    0  0.18964263654E+02 -0.70223763320E+01  0.95235051183E+02  0.97358471841E+02  0.00000000000E+00 0.  1.
<mgrwt>
<rscale>  0 0.79683191E+02</rscale>
<asrwt>0</asrwt>
<pdfrwt beam="1">  1        2 0.34640077E-01 0.79683191E+02</pdfrwt>
<pdfrwt beam="2">  1       -1 0.10845957E-02 0.79683191E+02</pdfrwt>
<totfact> 0.23236390E+05</totfact>
</mgrwt>
</event>
<event>
 8    1  0.1520917E-013  0.7951293E+02  0.7818608E-02  0.1330439E+00
          2   -1    0    0  501    0  0.00000000000E+00  0.00000000000E+00  0.35668198582E+02  0.35668198673E+02  0.25500000000E-02 0. -1.
         -1   -1    0    0    0  501 -0.00000000000E+00 -0.00000000000E+00 -0.44313322861E+02  0.44313323148E+02  0.50400000000E-02 0.  1.
         24    2    1    2    0    0  0.35527136788E-14  0.00000000000E+00 -0.86451242795E+01  0.79981521821E+02  0.79512927622E+02 0.  0.
         66    2    3    3    0    0 -0.31284437051E+02  0.24474257775E+02 -0.33891229871E+01  0.39914802354E+02  0.19999992669E+01 0.  0.
        -13    1    3    3    0    0  0.31284437051E+02 -0.24474257775E+02 -0.52560012924E+01  0.40066719467E+02  0.10566000000E+00 0.  1.
         13    1    4    4    0    0 -0.19249990168E+01  0.15402437978E+01 -0.62298378713E+00  0.25450432228E+01  0.10566000000E+00 0. -1.
        -13    1    4    4    0    0 -0.50263664270E+00  0.48873052943E+00 -0.50750700121E-01  0.71080292216E+00  0.10566000000E+00 0. -1.
         14    1    4    4    0    0 -0.28856801392E+02  0.22445283448E+02 -0.27153884999E+01  0.36658956209E+02  0.00000000000E+00 0. -1.
<mgrwt>
<rscale>  0 0.79512928E+02</rscale>
<asrwt>0</asrwt>
<pdfrwt beam="1">  1        2 0.54874152E-02 0.79512928E+02</pdfrwt>
<pdfrwt beam="2">  1       -1 0.68174343E-02 0.79512928E+02</pdfrwt>
<totfact> 0.14165103E+05</totfact>
</mgrwt>
</event>
<event>
 8    1  0.1520917E-013  0.7921580E+02  0.7818608E-02  0.1331292E+00
          2   -1    0    0  501    0  0.00000000000E+00  0.00000000000E+00  0.12742031022E+03  0.12742031025E+03  0.25500000000E-02 0. -1.
         -1   -1    0    0    0  501 -0.00000000000E+00 -0.00000000000E+00 -0.12311896309E+02  0.12311897341E+02  0.50400000000E-02 0.  1.
         24    2    1    2    0    0  0.00000000000E+00  0.00000000000E+00  0.11510841391E+03  0.13973220759E+03  0.79215799459E+02 0.  0.
         66    2    3    3    0    0 -0.37758198585E+02  0.10771099667E+02  0.48756512628E+02  0.62633023957E+02  0.20000044775E+01 0.  0.
        -13    1    3    3    0    0  0.37758198585E+02 -0.10771099667E+02  0.66351901285E+02  0.77099183631E+02  0.10566000000E+00 0.  1.
         13    1    4    4    0    0 -0.15519382119E+02  0.46075894025E+01  0.18731641974E+02  0.24758163836E+02  0.10566000000E+00 0. -1.
        -13    1    4    4    0    0 -0.12394413895E+01  0.24327373565E+00  0.15486342998E+01  0.20012069605E+01  0.10566000000E+00 0. -1.
         14    1    4    4    0    0 -0.20999375076E+02  0.59202365292E+01  0.28476236355E+02  0.35873653161E+02  0.00000000000E+00 0. -1.
<mgrwt>
<rscale>  0 0.79215799E+02</rscale>
<asrwt>0</asrwt>
<pdfrwt beam="1">  1        2 0.19603123E-01 0.79215799E+02</pdfrwt>
<pdfrwt beam="2">  1       -1 0.18941381E-02 0.79215799E+02</pdfrwt>
<totfact> 0.19534544E+05</totfact>
</mgrwt>
</event>
<event>
 8    1  0.1520917E-013  0.7771428E+02  0.7818608E-02  0.1335666E+00
         -1   -1    0    0    0  501 -0.00000000000E+00  0.00000000000E+00  0.47373775509E+01  0.47373802319E+01  0.50400000000E-02 0.  1.
          2   -1    0    0  501    0  0.00000000000E+00 -0.00000000000E+00 -0.31871576471E+03  0.31871576472E+03  0.25500000000E-02 0. -1.
         24    2    1    2    0    0  0.00000000000E+00  0.00000000000E+00 -0.31397838716E+03  0.32345314495E+03  0.77714280389E+02 0.  0.
         66    2    3    3    0    0  0.31525046199E+02  0.61667658966E+01 -0.24790018868E+03  0.24998072144E+03  0.20000002456E+01 0.  0.
        -13    1    3    3    0    0 -0.31525046199E+02 -0.61667658966E+01 -0.66078198472E+02  0.73472423512E+02  0.10566000000E+00 0.  1.
         13    1    4    4    0    0  0.16527659810E+02  0.42317995046E+01 -0.13231001401E+03  0.13340548204E+03  0.10566000000E+00 0. -1.
        -13    1    4    4    0    0  0.10391703597E+02  0.13180523224E+01 -0.79652662646E+02  0.80338549876E+02  0.10566000000E+00 0.  1.
         14    1    4    4    0    0  0.46056827924E+01  0.61691406960E+00 -0.35937512024E+02  0.36236689521E+02  0.00000000000E+00 0. -1.
<mgrwt>
<rscale>  0 0.77714280E+02</rscale>
<asrwt>0</asrwt>
<pdfrwt beam="1">  1        2 0.49033178E-01 0.77714280E+02</pdfrwt>
<pdfrwt beam="2">  1       -1 0.72882777E-03 0.77714280E+02</pdfrwt>
<totfact> 0.28111217E+05</totfact>
</mgrwt>
</event>
<event>
 8    1  0.1520917E-013  0.8085856E+02  0.7818608E-02  0.1326632E+00
         -1   -1    0    0    0  501 -0.00000000000E+00  0.00000000000E+00  0.92593929583E+01  0.92593943300E+01  0.50400000000E-02 0.  1.
          2   -1    0    0  501    0  0.00000000000E+00 -0.00000000000E+00 -0.17652629750E+03  0.17652629752E+03  0.25500000000E-02 0. -1.
         24    2    1    2    0    0  0.00000000000E+00 -0.17763568394E-14 -0.16726690454E+03  0.18578569185E+03  0.80858555148E+02 0.  0.
         66    2    3    3    0    0 -0.26186219008E+02  0.10945821523E+02 -0.14975945862E+03  0.15243826464E+03  0.20000011452E+01 0.  0.
        -13    1    3    3    0    0  0.26186219008E+02 -0.10945821523E+02 -0.17507445918E+02  0.33347427208E+02  0.10566000000E+00 0.  1.
         13    1    4    4    0    0 -0.18505264328E+02  0.79376061618E+01 -0.11018836825E+03  0.11201311558E+03  0.10566000000E+00 0. -1.
        -13    1    4    4    0    0 -0.19203731620E+01  0.60580261321E+00 -0.89277996038E+01  0.91526826498E+01  0.10566000000E+00 0.  1.
         14    1    4    4    0    0 -0.57605815187E+01  0.24024127484E+01 -0.30643290766E+02  0.31272466411E+02  0.00000000000E+00 0. -1.
<mgrwt>
<rscale>  0 0.80858555E+02</rscale>
<asrwt>0</asrwt>
<pdfrwt beam="1">  1        2 0.27157889E-01 0.80858555E+02</pdfrwt>
<pdfrwt beam="2">  1       -1 0.14245222E-02 0.80858555E+02</pdfrwt>
<totfact> 0.20545775E+05</totfact>
</mgrwt>
</event>
<event>
 8    1  0.1520917E-013  0.8004626E+02  0.7818608E-02  0.1328920E+00
         -1   -1    0    0    0  501 -0.00000000000E+00  0.00000000000E+00  0.53516857145E+01  0.53516880877E+01  0.50400000000E-02 0.  1.
          2   -1    0    0  501    0  0.00000000000E+00 -0.00000000000E+00 -0.29931697786E+03  0.29931697787E+03  0.25500000000E-02 0. -1.
         24    2    1    2    0    0  0.00000000000E+00  0.00000000000E+00 -0.29396529214E+03  0.30466866595E+03  0.80046255569E+02 0.  0.
         66    2    3    3    0    0 -0.29329414163E+02  0.45835779780E+01 -0.24910630078E+03  0.25087680791E+03  0.19999837550E+01 0.  0.
        -13    1    3    3    0    0  0.29329414163E+02 -0.45835779780E+01 -0.44858991363E+02  0.53791858049E+02  0.10566000000E+00 0.  1.
         13    1    4    4    0    0 -0.14631563844E+02  0.23273928114E+01 -0.12869402984E+03  0.12954406161E+03  0.10566000000E+00 0. -1.
        -13    1    4    4    0    0 -0.11309465303E+01 -0.12014643996E+00 -0.96825262231E+01  0.97496642670E+01  0.10566000000E+00 0.  1.
        -14    1    4    4    0    0 -0.13566903789E+02  0.23763316066E+01 -0.11072974472E+03  0.11158308203E+03  0.00000000000E+00 0.  1.
<mgrwt>
<rscale>  0 0.80046256E+02</rscale>
<asrwt>0</asrwt>
<pdfrwt beam="1">  1        2 0.46048753E-01 0.80046256E+02</pdfrwt>
<pdfrwt beam="2">  1       -1 0.82333668E-03 0.80046256E+02</pdfrwt>
<totfact> 0.25434878E+05</totfact>
</mgrwt>
</event>
<event>
 8    1  0.1520917E-013  0.8385013E+02  0.7818608E-02  0.1318467E+00
          2   -1    0    0  501    0  0.00000000000E+00  0.00000000000E+00  0.44820675101E+03  0.44820675102E+03  0.25500000000E-02 0. -1.
         -1   -1    0    0    0  501 -0.00000000000E+00 -0.00000000000E+00 -0.39216503784E+01  0.39216536171E+01  0.50400000000E-02 0.  1.
         24    2    1    2    0    0  0.00000000000E+00  0.00000000000E+00  0.44428510063E+03  0.45212840463E+03  0.83850126022E+02 0.  0.
         66    2    3    3    0    0  0.17840799143E+02 -0.35944943838E+02  0.28728149428E+03  0.29007755869E+03  0.19999987744E+01 0.  0.
        -13    1    3    3    0    0 -0.17840799143E+02  0.35944943838E+02  0.15700360635E+03  0.16205084594E+03  0.10566000000E+00 0.  1.
         13    1    4    4    0    0  0.97146634748E+01 -0.19619577701E+02  0.15421934965E+03  0.15576559789E+03  0.10566000000E+00 0. -1.
        -13    1    4    4    0    0  0.45572180240E+01 -0.91862817566E+01  0.79391537568E+02  0.80051129974E+02  0.10566000000E+00 0.  1.
        -14    1    4    4    0    0  0.35689176437E+01 -0.71390843803E+01  0.53670607064E+02  0.54260830823E+02  0.00000000000E+00 0.  1.
<mgrwt>
<rscale>  0 0.83850126E+02</rscale>
<asrwt>0</asrwt>
<pdfrwt beam="1">  1        2 0.68954854E-01 0.83850126E+02</pdfrwt>
<pdfrwt beam="2">  1       -1 0.60333135E-03 0.83850126E+02</pdfrwt>
<totfact> 0.25980991E+05</totfact>
</mgrwt>
</event>
<event>
 8    1  0.1520917E-013  0.7965072E+02  0.7818608E-02  0.1330046E+00
         -1   -1    0    0    0  501 -0.00000000000E+00  0.00000000000E+00  0.29457085629E+02  0.29457086060E+02  0.50400000000E-02 0.  1.
          2   -1    0    0  501    0  0.00000000000E+00 -0.00000000000E+00 -0.53843052756E+02  0.53843052816E+02  0.25500000000E-02 0. -1.
         24    2    1    2    0    0  0.00000000000E+00  0.00000000000E+00 -0.24385967127E+02  0.83300138876E+02  0.79650723437E+02 0.  0.
         66    2    3    3    0    0  0.26012654924E+02 -0.29961215000E+02 -0.15461498610E+02  0.42630863952E+02  0.20000003925E+01 0.  0.
        -13    1    3    3    0    0 -0.26012654924E+02  0.29961215000E+02 -0.89244685171E+01  0.40669274924E+02  0.10566000000E+00 0.  1.
         13    1    4    4    0    0  0.88076366501E+00 -0.10747888788E+01 -0.31885400450E+00  0.14295970339E+01  0.10566000000E+00 0. -1.
        -13    1    4    4    0    0  0.92171495703E+01 -0.96855960200E+01 -0.48857733576E+01  0.14235468443E+02  0.10566000000E+00 0.  1.
         14    1    4    4    0    0  0.15914741688E+02 -0.19200830102E+02 -0.10256871248E+02  0.26965798475E+02  0.00000000000E+00 0. -1.
<mgrwt>
<rscale>  0 0.79650723E+02</rscale>
<asrwt>0</asrwt>
<pdfrwt beam="1">  1        2 0.82835466E-02 0.79650723E+02</pdfrwt>
<pdfrwt beam="2">  1       -1 0.45318594E-02 0.79650723E+02</pdfrwt>
<totfact> 0.15371199E+05</totfact>
</mgrwt>
</event>
<event>
 8    1  0.1520917E-013  0.7957220E+02  0.7818608E-02  0.1330270E+00
         -1   -1    0    0    0  501 -0.00000000000E+00  0.00000000000E+00  0.78707125550E+02  0.78707125711E+02  0.50400000000E-02 0.  1.
          2   -1    0    0  501    0  0.00000000000E+00 -0.00000000000E+00 -0.20111695065E+02  0.20111695227E+02  0.25500000000E-02 0. -1.
         24    2    1    2    0    0  0.00000000000E+00  0.00000000000E+00  0.58595430485E+02  0.98818820938E+02  0.79572199278E+02 0.  0.
         66    2    3    3    0    0  0.35869233418E+02  0.16465827039E+02  0.35298279036E+02  0.52987676552E+02  0.19999993541E+01 0.  0.
        -13    1    3    3    0    0 -0.35869233418E+02 -0.16465827039E+02  0.23297151449E+02  0.45831144386E+02  0.10566000000E+00 0.  1.
         13    1    4    4    0    0  0.67479708320E+01  0.29908954212E+01  0.71014310917E+01  0.10243146653E+02  0.10566000000E+00 0. -1.
        -13    1    4    4    0    0  0.12749278563E+01  0.79673170092E+00  0.16725404892E+01  0.22513947156E+01  0.10566000000E+00 0.  1.
         14    1    4    4    0    0  0.27846334730E+02  0.12678199917E+02  0.26524307455E+02  0.40493135183E+02  0.00000000000E+00 0. -1.
<mgrwt>
<rscale>  0 0.79572199E+02</rscale>
<asrwt>0</asrwt>
<pdfrwt beam="1">  1        2 0.30941069E-02 0.79572199E+02</pdfrwt>
<pdfrwt beam="2">  1       -1 0.12108789E-01 0.79572199E+02</pdfrwt>
<totfact> 0.12622441E+05</totfact>
</mgrwt>
</event>
<event>
 8    1  0.1520917E-013  0.7997024E+02  0.7818608E-02  0.1329136E+00
         -1   -1    0    0    0  501 -0.00000000000E+00  0.00000000000E+00  0.39883222395E+01  0.39883254240E+01  0.50400000000E-02 0.  1.
          2   -1    0    0  501    0  0.00000000000E+00 -0.00000000000E+00 -0.40087264411E+03  0.40087264412E+03  0.25500000000E-02 0. -1.
         24    2    1    2    0    0 -0.44408920985E-15  0.71054273576E-14 -0.39688432187E+03  0.40486096954E+03  0.79970242665E+02 0.  0.
         66    2    3    3    0    0 -0.19145489087E+01  0.32380110833E+02 -0.31671856093E+03  0.31838150686E+03  0.19999989873E+01 0.  0.
        -13    1    3    3    0    0  0.19145489087E+01 -0.32380110833E+02 -0.80165760938E+02  0.86479462683E+02  0.10566000000E+00 0.  1.
         13    1    4    4    0    0 -0.15867207061E+01  0.25343995608E+02 -0.24107993436E+03  0.24241365826E+03  0.10566000000E+00 0. -1.
        -13    1    4    4    0    0 -0.36905243411E+00  0.60553536569E+01 -0.63226555814E+02  0.63517021591E+02  0.10566000000E+00 0.  1.
        -14    1    4    4    0    0  0.41224231536E-01  0.98076156819E+00 -0.12412070762E+02  0.12450827012E+02  0.00000000000E+00 0.  1.
<mgrwt>
<rscale>  0 0.79970243E+02</rscale>
<asrwt>0</asrwt>
<pdfrwt beam="1">  1        2 0.61672683E-01 0.79970243E+02</pdfrwt>
<pdfrwt beam="2">  1       -1 0.61358860E-03 0.79970243E+02</pdfrwt>
<totfact> 0.28302623E+05</totfact>
</mgrwt>
</event>
<event>
 8    1  0.1520917E-013  0.7989529E+02  0.7818608E-02  0.1329349E+00
          2   -1    0    0  501    0  0.00000000000E+00  0.00000000000E+00  0.10855155875E+03  0.10855155878E+03  0.25500000000E-02 0. -1.
         -1   -1    0    0    0  501 -0.00000000000E+00 -0.00000000000E+00 -0.14700978494E+02  0.14700979358E+02  0.50400000000E-02 0.  1.
         24    2    1    2    0    0  0.00000000000E+00  0.00000000000E+00  0.93850580256E+02  0.12325253814E+03  0.79895286114E+02 0.  0.
         66    2    3    3    0    0 -0.25213611456E+02 -0.17874713135E+02  0.85938180318E+02  0.91348795268E+02  0.19999970633E+01 0.  0.
        -13    1    3    3    0    0  0.25213611456E+02  0.17874713135E+02  0.79123999384E+01  0.31903742871E+02  0.10566000000E+00 0.  1.
         13    1    4    4    0    0 -0.65975304502E+01 -0.51963831783E+01  0.21595157412E+02  0.23170925615E+02  0.10566000000E+00 0. -1.
        -13    1    4    4    0    0 -0.14241713415E+02 -0.93248768554E+01  0.49379816040E+02  0.52231763569E+02  0.10566000000E+00 0.  1.
        -14    1    4    4    0    0 -0.43743675909E+01 -0.33534531016E+01  0.14963206866E+02  0.15946106084E+02  0.00000000000E+00 0.  1.
<mgrwt>
<rscale>  0 0.79895286E+02</rscale>
<asrwt>0</asrwt>
<pdfrwt beam="1">  1        2 0.16700240E-01 0.79895286E+02</pdfrwt>
<pdfrwt beam="2">  1       -1 0.22616891E-02 0.79895286E+02</pdfrwt>
<totfact> 0.18207723E+05</totfact>
</mgrwt>
</event>
<event>
 8    1  0.1520917E-013  0.8070342E+02  0.7818608E-02  0.1327067E+00
         -1   -1    0    0    0  501 -0.00000000000E+00  0.00000000000E+00  0.12271953920E+02  0.12271954955E+02  0.50400000000E-02 0.  1.
          2   -1    0    0  501    0  0.00000000000E+00 -0.00000000000E+00 -0.13268142205E+03  0.13268142207E+03  0.25500000000E-02 0. -1.
         24    2    1    2    0    0  0.00000000000E+00  0.00000000000E+00 -0.12040946813E+03  0.14495337702E+03  0.80703416884E+02 0.  0.
         66    2    3    3    0    0 -0.19315828699E+02 -0.39162375221E+01 -0.12343398104E+03  0.12501354260E+03  0.20000006262E+01 0.  0.
        -13    1    3    3    0    0  0.19315828699E+02  0.39162375221E+01  0.30245129135E+01  0.19939834429E+02  0.10566000000E+00 0.  1.
         13    1    4    4    0    0 -0.20219806295E+01 -0.56142950216E+00 -0.10883671481E+02  0.11084632502E+02  0.10566000000E+00 0. -1.
        -13    1    4    4    0    0 -0.38260670145E+01 -0.12579184041E+01 -0.27395359178E+02  0.27690034598E+02  0.10566000000E+00 0. -1.
        -14    1    4    4    0    0 -0.13467781055E+02 -0.20968896158E+01 -0.85154950380E+02  0.86238875496E+02  0.00000000000E+00 0.  1.
<mgrwt>
<rscale>  0 0.80703417E+02</rscale>
<asrwt>0</asrwt>
<pdfrwt beam="1">  1        2 0.20412526E-01 0.80703417E+02</pdfrwt>
<pdfrwt beam="2">  1       -1 0.18879931E-02 0.80703417E+02</pdfrwt>
<totfact> 0.18823976E+05</totfact>
</mgrwt>
</event>
<event>
 8    1  0.1520917E-013  0.7918513E+02  0.7818608E-02  0.1331380E+00
         -1   -1    0    0    0  501 -0.00000000000E+00  0.00000000000E+00  0.13980364952E+01  0.13980455799E+01  0.50400000000E-02 0.  1.
          2   -1    0    0  501    0  0.00000000000E+00 -0.00000000000E+00 -0.11212627833E+04  0.11212627833E+04  0.25500000000E-02 0. -1.
         24    2    1    2    0    0  0.00000000000E+00  0.00000000000E+00 -0.11198647468E+04  0.11226608289E+04  0.79185134788E+02 0.  0.
         66    2    3    3    0    0  0.28249569569E+02 -0.17914120682E+01 -0.95224904202E+03  0.95267176161E+03  0.20000001363E+01 0.  0.
        -13    1    3    3    0    0 -0.28249569569E+02  0.17914120682E+01 -0.16761570476E+03  0.16998906725E+03  0.10566000000E+00 0.  1.
         13    1    4    4    0    0  0.68934370506E+01  0.50613094104E-01 -0.23268148125E+03  0.23278360105E+03  0.10566000000E+00 0.  1.
        -13    1    4    4    0    0  0.76841171255E+01 -0.94838622612E+00 -0.23962374047E+03  0.23974881283E+03  0.10566000000E+00 0. -1.
         14    1    4    4    0    0  0.13672015393E+02 -0.89363893622E+00 -0.47994382030E+03  0.48013934774E+03  0.00000000000E+00 0. -1.
<mgrwt>
<rscale>  0 0.79185135E+02</rscale>
<asrwt>0</asrwt>
<pdfrwt beam="1">  1        2 0.17250125E+00 0.79185135E+02</pdfrwt>
<pdfrwt beam="2">  1       -1 0.21508413E-03 0.79185135E+02</pdfrwt>
<totfact> 0.36173441E+05</totfact>
</mgrwt>
</event>
<event>
 8    1  0.1520917E-013  0.7631809E+02  0.7818608E-02  0.1339837E+00
          2   -1    0    0  501    0  0.00000000000E+00  0.00000000000E+00  0.60134070010E+01  0.60134075416E+01  0.25500000000E-02 0. -1.
         -1   -1    0    0    0  501 -0.00000000000E+00 -0.00000000000E+00 -0.24214436317E+03  0.24214436322E+03  0.50400000000E-02 0.  1.
         24    2    1    2    0    0 -0.71054273576E-14  0.17763568394E-14 -0.23613095617E+03  0.24815777076E+03  0.76318089135E+02 0.  0.
         66    2    3    3    0    0 -0.36315159797E+02  0.10571540599E+02 -0.10236356528E+03  0.10914599309E+03  0.20000024648E+01 0.  0.
        -13    1    3    3    0    0  0.36315159797E+02 -0.10571540599E+02 -0.13376739089E+03  0.13901177767E+03  0.10566000000E+00 0.  1.
         13    1    4    4    0    0 -0.13232830991E+02  0.37940161211E+01 -0.36748227262E+02  0.39242142465E+02  0.10566000000E+00 0. -1.
        -13    1    4    4    0    0 -0.20057527617E+02  0.64196140622E+01 -0.57053405563E+02  0.60816265169E+02  0.10566000000E+00 0.  1.
        -14    1    4    4    0    0 -0.30248011892E+01  0.35791041573E+00 -0.85619324541E+01  0.90875854575E+01  0.00000000000E+00 0.  1.
<mgrwt>
<rscale>  0 0.76318089E+02</rscale>
<asrwt>0</asrwt>
<pdfrwt beam="1">  1        2 0.92513977E-03 0.76318089E+02</pdfrwt>
<pdfrwt beam="2">  1       -1 0.37252972E-01 0.76318089E+02</pdfrwt>
<totfact> 0.10560904E+05</totfact>
</mgrwt>
</event>
<event>
 8    1  0.1520917E-013  0.7816963E+02  0.7818608E-02  0.1334327E+00
          2   -1    0    0  501    0  0.00000000000E+00  0.00000000000E+00  0.17509476717E+02  0.17509476903E+02  0.25500000000E-02 0. -1.
         -1   -1    0    0    0  501 -0.00000000000E+00 -0.00000000000E+00 -0.87245484951E+02  0.87245485097E+02  0.50400000000E-02 0.  1.
         24    2    1    2    0    0 -0.35527136788E-14  0.00000000000E+00 -0.69736008234E+02  0.10475496200E+03  0.78169631053E+02 0.  0.
         66    2    3    3    0    0 -0.28278304175E+02 -0.21939626800E+02 -0.13931695100E+02  0.38459093051E+02  0.19999997139E+01 0.  0.
        -13    1    3    3    0    0  0.28278304175E+02  0.21939626800E+02 -0.55804313134E+02  0.66295868948E+02  0.10566000000E+00 0.  1.
         13    1    4    4    0    0 -0.51178689100E+01 -0.33473774797E+01 -0.24510438670E+01  0.65891045101E+01  0.10566000000E+00 0. -1.
        -13    1    4    4    0    0 -0.85105399478E+01 -0.71679615584E+01 -0.36695739438E+01  0.11716906591E+02  0.10566000000E+00 0.  1.
        -14    1    4    4    0    0 -0.14649895317E+02 -0.11424287762E+02 -0.78110772889E+01  0.20153081950E+02  0.00000000000E+00 0.  1.
<mgrwt>
<rscale>  0 0.78169631E+02</rscale>
<asrwt>0</asrwt>
<pdfrwt beam="1">  1        2 0.26937657E-02 0.78169631E+02</pdfrwt>
<pdfrwt beam="2">  1       -1 0.13422382E-01 0.78169631E+02</pdfrwt>
<totfact> 0.12917845E+05</totfact>
</mgrwt>
</event>
<event>
 8    1  0.1520917E-013  0.8190352E+02  0.7818608E-02  0.1323735E+00
          2   -1    0    0  501    0  0.00000000000E+00  0.00000000000E+00  0.50048300187E+03  0.50048300187E+03  0.25500000000E-02 0. -1.
         -1   -1    0    0    0  501 -0.00000000000E+00 -0.00000000000E+00 -0.33508544335E+01  0.33508582238E+01  0.50400000000E-02 0.  1.
         24    2    1    2    0    0  0.00000000000E+00  0.00000000000E+00  0.49713214743E+03  0.50383386010E+03  0.81903519880E+02 0.  0.
         66    2    3    3    0    0 -0.40917229693E+01  0.33259123133E+02  0.39325969400E+03  0.39468987623E+03  0.20000009944E+01 0.  0.
        -13    1    3    3    0    0  0.40917229693E+01 -0.33259123133E+02  0.10387245343E+03  0.10914398387E+03  0.10566000000E+00 0.  1.
         13    1    4    4    0    0 -0.19979533415E+01  0.12370902281E+02  0.14084247870E+03  0.14139888971E+03  0.10566000000E+00 0. -1.
        -13    1    4    4    0    0 -0.95519019383E+00  0.11997095600E+02  0.13896426776E+03  0.13948448504E+03  0.10566000000E+00 0.  1.
        -14    1    4    4    0    0 -0.11385794339E+01  0.88911252509E+01  0.11345294754E+03  0.11380650147E+03  0.00000000000E+00 0.  1.
<mgrwt>
<rscale>  0 0.81903520E+02</rscale>
<asrwt>0</asrwt>
<pdfrwt beam="1">  1        2 0.76997363E-01 0.81903520E+02</pdfrwt>
<pdfrwt beam="2">  1       -1 0.51551651E-03 0.81903520E+02</pdfrwt>
<totfact> 0.28647927E+05</totfact>
</mgrwt>
</event>
<event>
 8    1  0.1520917E-013  0.7943590E+02  0.7818608E-02  0.1330660E+00
         -1   -1    0    0    0  501 -0.00000000000E+00  0.00000000000E+00  0.92142513928E+01  0.92142527712E+01  0.50400000000E-02 0.  1.
          2   -1    0    0  501    0  0.00000000000E+00 -0.00000000000E+00 -0.17120386253E+03  0.17120386255E+03  0.25500000000E-02 0. -1.
         24    2    1    2    0    0  0.00000000000E+00  0.00000000000E+00 -0.16198961114E+03  0.18041811532E+03  0.79435900066E+02 0.  0.
         66    2    3    3    0    0  0.38869623456E+01 -0.24124126880E+02 -0.15209008594E+03  0.15405348490E+03  0.19999985560E+01 0.  0.
        -13    1    3    3    0    0 -0.38869623456E+01  0.24124126880E+02 -0.98995251950E+01  0.26364630419E+02  0.10566000000E+00 0.  1.
         13    1    4    4    0    0  0.18918428249E+01 -0.63635917996E+01 -0.40191059783E+02  0.40735817414E+02  0.10566000000E+00 0. -1.
        -13    1    4    4    0    0  0.37344600316E+00 -0.40110837623E+01 -0.25327500377E+02  0.25646085359E+02  0.10566000000E+00 0.  1.
         14    1    4    4    0    0  0.16216735175E+01 -0.13749451318E+02 -0.86571525780E+02  0.87671582126E+02  0.00000000000E+00 0. -1.
<mgrwt>
<rscale>  0 0.79435900E+02</rscale>
<asrwt>0</asrwt>
<pdfrwt beam="1">  1        2 0.26339053E-01 0.79435900E+02</pdfrwt>
<pdfrwt beam="2">  1       -1 0.14175774E-02 0.79435900E+02</pdfrwt>
<totfact> 0.21313836E+05</totfact>
</mgrwt>
</event>
<event>
 8    1  0.1520917E-013  0.7210629E+02  0.7818608E-02  0.1353074E+00
          2   -1    0    0  501    0  0.00000000000E+00  0.00000000000E+00  0.23845976112E+02  0.23845976248E+02  0.25500000000E-02 0. -1.
         -1   -1    0    0    0  501 -0.00000000000E+00 -0.00000000000E+00 -0.54509370791E+02  0.54509371024E+02  0.50400000000E-02 0.  1.
         24    2    1    2    0    0  0.00000000000E+00  0.00000000000E+00 -0.30663394679E+02  0.78355347272E+02  0.72106287332E+02 0.  0.
         66    2    3    3    0    0  0.88173261922E+01 -0.34042497151E+02 -0.68433046594E+01  0.35881299830E+02  0.20000013362E+01 0.  0.
        -13    1    3    3    0    0 -0.88173261922E+01  0.34042497151E+02 -0.23820090020E+02  0.42474047442E+02  0.10566000000E+00 0.  1.
         13    1    4    4    0    0  0.50342291651E+01 -0.18530385759E+02 -0.29197455651E+01  0.19423046565E+02  0.10566000000E+00 0. -1.
        -13    1    4    4    0    0  0.62848875988E+00 -0.27659916904E+01 -0.96854617883E+00  0.29991588636E+01  0.10566000000E+00 0.  1.
         14    1    4    4    0    0  0.31546082672E+01 -0.12746119702E+02 -0.29550129155E+01  0.13459094402E+02  0.00000000000E+00 0. -1.
<mgrwt>
<rscale>  0 0.72106287E+02</rscale>
<asrwt>0</asrwt>
<pdfrwt beam="1">  1        2 0.36686117E-02 0.72106287E+02</pdfrwt>
<pdfrwt beam="2">  1       -1 0.83860571E-02 0.72106287E+02</pdfrwt>
<totfact> 0.17219094E+05</totfact>
</mgrwt>
</event>
<event>
 8    1  0.1520917E-013  0.7883281E+02  0.7818608E-02  0.1332397E+00
          2   -1    0    0  501    0  0.00000000000E+00  0.00000000000E+00  0.22227012865E+02  0.22227013011E+02  0.25500000000E-02 0. -1.
         -1   -1    0    0    0  501 -0.00000000000E+00 -0.00000000000E+00 -0.69899310990E+02  0.69899311172E+02  0.50400000000E-02 0.  1.
         24    2    1    2    0    0 -0.71054273576E-14  0.00000000000E+00 -0.47672298125E+02  0.92126324183E+02  0.78832807885E+02 0.  0.
         66    2    3    3    0    0 -0.36043173612E+02 -0.15006280325E+02 -0.29962959369E+02  0.49255230700E+02  0.20000009816E+01 0.  0.
        -13    1    3    3    0    0  0.36043173612E+02  0.15006280325E+02 -0.17709338756E+02  0.42871093483E+02  0.10566000000E+00 0.  1.
         13    1    4    4    0    0 -0.14776756271E+02 -0.54817581472E+01 -0.12111697576E+02  0.19877288057E+02  0.10566000000E+00 0. -1.
        -13    1    4    4    0    0 -0.83440349141E+01 -0.37109192379E+01 -0.62768868464E+01  0.11081710732E+02  0.10566000000E+00 0.  1.
        -14    1    4    4    0    0 -0.12922382427E+02 -0.58136029403E+01 -0.11574374947E+02  0.18296231911E+02  0.00000000000E+00 0.  1.
<mgrwt>
<rscale>  0 0.78832808E+02</rscale>
<asrwt>0</asrwt>
<pdfrwt beam="1">  1        2 0.34195405E-02 0.78832808E+02</pdfrwt>
<pdfrwt beam="2">  1       -1 0.10753740E-01 0.78832808E+02</pdfrwt>
<totfact> 0.13223636E+05</totfact>
</mgrwt>
</event>
<event>
 8    1  0.1520917E-013  0.8649164E+02  0.7818608E-02  0.1311577E+00
         -1   -1    0    0    0  501 -0.00000000000E+00  0.00000000000E+00  0.12813323016E+02  0.12813324007E+02  0.50400000000E-02 0.  1.
          2   -1    0    0  501    0  0.00000000000E+00 -0.00000000000E+00 -0.14595752205E+03  0.14595752207E+03  0.25500000000E-02 0. -1.
         24    2    1    2    0    0 -0.71054273576E-14  0.00000000000E+00 -0.13314419904E+03  0.15877084608E+03  0.86491640223E+02 0.  0.
         66    2    3    3    0    0 -0.29681883939E+02  0.27150912018E+02 -0.37582410472E+02  0.55087419945E+02  0.20000004440E+01 0.  0.
        -13    1    3    3    0    0  0.29681883939E+02 -0.27150912018E+02 -0.95561788564E+02  0.10368342614E+03  0.10566000000E+00 0.  1.
         13    1    4    4    0    0 -0.23580672914E+01  0.19897783040E+01 -0.24784543882E+01  0.39589896741E+01  0.10566000000E+00 0.  1.
        -13    1    4    4    0    0 -0.55961433651E+01  0.45873952718E+01 -0.63014923915E+01  0.95958838226E+01  0.10566000000E+00 0. -1.
        -14    1    4    4    0    0 -0.21727673283E+02  0.20573738442E+02 -0.28802463692E+02  0.41532546449E+02  0.00000000000E+00 0.  1.
<mgrwt>
<rscale>  0 0.86491640E+02</rscale>
<asrwt>0</asrwt>
<pdfrwt beam="1">  1        2 0.22455002E-01 0.86491640E+02</pdfrwt>
<pdfrwt beam="2">  1       -1 0.19712806E-02 0.86491640E+02</pdfrwt>
<totfact> 0.16126013E+05</totfact>
</mgrwt>
</event>
<event>
 8    1  0.1520917E-013  0.8290001E+02  0.7818608E-02  0.1321017E+00
          2   -1    0    0  501    0  0.00000000000E+00  0.00000000000E+00  0.12250253836E+03  0.12250253838E+03  0.25500000000E-02 0. -1.
         -1   -1    0    0    0  501 -0.00000000000E+00 -0.00000000000E+00 -0.14025038222E+02  0.14025039128E+02  0.50400000000E-02 0.  1.
         24    2    1    2    0    0 -0.88817841970E-15 -0.71054273576E-14  0.10847750014E+03  0.13652757751E+03  0.82900008357E+02 0.  0.
         66    2    3    3    0    0 -0.74703996357E+01 -0.33260838999E+02  0.93033790935E+02  0.99102858414E+02  0.20000020957E+01 0.  0.
        -13    1    3    3    0    0  0.74703996357E+01  0.33260838999E+02  0.15443709200E+02  0.37424719097E+02  0.10566000000E+00 0.  1.
         13    1    4    4    0    0 -0.39072328511E+00 -0.27022495812E+01  0.87652816740E+01  0.91812931738E+01  0.10566000000E+00 0. -1.
        -13    1    4    4    0    0 -0.30758041632E+01 -0.14439399451E+02  0.38690533878E+02  0.41411657821E+02  0.10566000000E+00 0.  1.
        -14    1    4    4    0    0 -0.40038721874E+01 -0.16119189967E+02  0.45577975383E+02  0.48509907418E+02  0.00000000000E+00 0.  1.
<mgrwt>
<rscale>  0 0.82900008E+02</rscale>
<asrwt>0</asrwt>
<pdfrwt beam="1">  1        2 0.18846544E-01 0.82900008E+02</pdfrwt>
<pdfrwt beam="2">  1       -1 0.21576983E-02 0.82900008E+02</pdfrwt>
<totfact> 0.17096862E+05</totfact>
</mgrwt>
</event>
<event>
 8    1  0.1520917E-013  0.7971632E+02  0.7818608E-02  0.1329858E+00
          2   -1    0    0  501    0  0.00000000000E+00  0.00000000000E+00  0.42764805130E+03  0.42764805131E+03  0.25500000000E-02 0. -1.
         -1   -1    0    0    0  501 -0.00000000000E+00 -0.00000000000E+00 -0.37149054998E+01  0.37149089187E+01  0.50400000000E-02 0.  1.
         24    2    1    2    0    0 -0.88817841970E-15  0.71054273576E-14  0.42393314580E+03  0.43136296023E+03  0.79716317948E+02 0.  0.
         66    2    3    3    0    0  0.63865243127E+01 -0.32251677597E+02  0.33378717897E+03  0.33540846632E+03  0.20000087972E+01 0.  0.
        -13    1    3    3    0    0 -0.63865243127E+01  0.32251677597E+02  0.90145966829E+02  0.95954493903E+02  0.10566000000E+00 0.  1.
         13    1    4    4    0    0  0.27423344913E+01 -0.97366831465E+01  0.10684396281E+03  0.10732179159E+03  0.10566000000E+00 0. -1.
        -13    1    4    4    0    0  0.26177155577E+01 -0.15378764273E+02  0.15571819233E+03  0.15649768500E+03  0.10566000000E+00 0.  1.
         14    1    4    4    0    0  0.10264742638E+01 -0.71362301771E+01  0.71225023840E+02  0.71588989737E+02  0.00000000000E+00 0. -1.
<mgrwt>
<rscale>  0 0.79716318E+02</rscale>
<asrwt>0</asrwt>
<pdfrwt beam="1">  1        2 0.65791999E-01 0.79716318E+02</pdfrwt>
<pdfrwt beam="2">  1       -1 0.57152426E-03 0.79716318E+02</pdfrwt>
<totfact> 0.29184016E+05</totfact>
</mgrwt>
</event>
<event>
 8    1  0.1520917E-013  0.7807975E+02  0.7818608E-02  0.1334591E+00
          2   -1    0    0  501    0  0.00000000000E+00  0.00000000000E+00  0.99211324851E+02  0.99211324884E+02  0.25500000000E-02 0. -1.
         -1   -1    0    0    0  501 -0.00000000000E+00 -0.00000000000E+00 -0.15362276987E+02  0.15362277814E+02  0.50400000000E-02 0.  1.
         24    2    1    2    0    0 -0.35527136788E-14  0.00000000000E+00  0.83849047864E+02  0.11457360270E+03  0.78079751583E+02 0.  0.
         66    2    3    3    0    0 -0.24177766277E+02 -0.13648669029E+02  0.82171786154E+02  0.86758590217E+02  0.19999970591E+01 0.  0.
        -13    1    3    3    0    0  0.24177766277E+02  0.13648669029E+02  0.16772617102E+01  0.27815012481E+02  0.10566000000E+00 0.  1.
         13    1    4    4    0    0 -0.60687156505E+01 -0.33987377990E+01  0.20769538026E+02  0.21903552272E+02  0.10566000000E+00 0. -1.
        -13    1    4    4    0    0 -0.14667831248E+02 -0.75834809891E+01  0.49506164825E+02  0.52187412057E+02  0.10566000000E+00 0.  1.
        -14    1    4    4    0    0 -0.34412193784E+01 -0.26664502410E+01  0.11896083303E+02  0.12667625888E+02  0.00000000000E+00 0.  1.
<mgrwt>
<rscale>  0 0.78079752E+02</rscale>
<asrwt>0</asrwt>
<pdfrwt beam="1">  1        2 0.15263281E-01 0.78079752E+02</pdfrwt>
<pdfrwt beam="2">  1       -1 0.23634273E-02 0.78079752E+02</pdfrwt>
<totfact> 0.18874588E+05</totfact>
</mgrwt>
</event>
<event>
 8    1  0.1520917E-013  0.8068373E+02  0.7818608E-02  0.1327122E+00
         -1   -1    0    0    0  501 -0.00000000000E+00  0.00000000000E+00  0.12373367399E+01  0.12373470044E+01  0.50400000000E-02 0.  1.
          2   -1    0    0  501    0  0.00000000000E+00 -0.00000000000E+00 -0.13152921108E+04  0.13152921108E+04  0.25500000000E-02 0. -1.
         24    2    1    2    0    0  0.00000000000E+00  0.00000000000E+00 -0.13140547741E+04  0.13165294578E+04  0.80683728492E+02 0.  0.
         66    2    3    3    0    0 -0.24201394117E+02 -0.95607624459E+01 -0.11599205112E+04  0.11602140785E+04  0.19999995040E+01 0.  0.
        -13    1    3    3    0    0  0.24201394117E+02  0.95607624459E+01 -0.15413426292E+03  0.15631537937E+03  0.10566000000E+00 0.  1.
         13    1    4    4    0    0 -0.12558251573E+02 -0.47012490967E+01 -0.63069270550E+03  0.63083524899E+03  0.10566000000E+00 0. -1.
        -13    1    4    4    0    0 -0.44303369030E+01 -0.22817415652E+01 -0.20793312291E+03  0.20799285804E+03  0.10566000000E+00 0.  1.
        -14    1    4    4    0    0 -0.72128056417E+01 -0.25777717840E+01 -0.32129468277E+03  0.32138597145E+03  0.00000000000E+00 0.  1.
<mgrwt>
<rscale>  0 0.80683728E+02</rscale>
<asrwt>0</asrwt>
<pdfrwt beam="1">  1        2 0.20235151E+00 0.80683728E+02</pdfrwt>
<pdfrwt beam="2">  1       -1 0.19036134E-03 0.80683728E+02</pdfrwt>
<totfact> 0.33780685E+05</totfact>
</mgrwt>
</event>
<event>
 8    1  0.1520917E-013  0.7955846E+02  0.7818608E-02  0.1330309E+00
         -1   -1    0    0    0  501 -0.00000000000E+00  0.00000000000E+00  0.20548022576E+01  0.20548084386E+01  0.50400000000E-02 0.  1.
          2   -1    0    0  501    0  0.00000000000E+00 -0.00000000000E+00 -0.77009103657E+03  0.77009103657E+03  0.25500000000E-02 0. -1.
         24    2    1    2    0    0  0.00000000000E+00  0.00000000000E+00 -0.76803623431E+03  0.77214584501E+03  0.79558461233E+02 0.  0.
         66    2    3    3    0    0  0.56320450782E+01 -0.16003571317E+02 -0.73318851178E+03  0.73338750196E+03  0.19999987345E+01 0.  0.
        -13    1    3    3    0    0 -0.56320450782E+01  0.16003571317E+02 -0.34847722535E+02  0.38758343058E+02  0.10566000000E+00 0.  1.
         13    1    4    4    0    0  0.43969528718E+01 -0.12372671711E+02 -0.55511751140E+03  0.55527279677E+03  0.10566000000E+00 0. -1.
        -13    1    4    4    0    0  0.37327552248E+00 -0.12125546374E+01 -0.41320072026E+02  0.41339679966E+02  0.10566000000E+00 0.  1.
         14    1    4    4    0    0  0.86181668389E+00 -0.24183449685E+01 -0.13675092835E+03  0.13677502522E+03  0.00000000000E+00 0. -1.
<mgrwt>
<rscale>  0 0.79558461E+02</rscale>
<asrwt>0</asrwt>
<pdfrwt beam="1">  1        2 0.11847531E+00 0.79558461E+02</pdfrwt>
<pdfrwt beam="2">  1       -1 0.31612451E-03 0.79558461E+02</pdfrwt>
<totfact> 0.34623202E+05</totfact>
</mgrwt>
</event>
<event>
 8    1  0.1520917E-013  0.8307136E+02  0.7818608E-02  0.1320555E+00
          2   -1    0    0  501    0  0.00000000000E+00  0.00000000000E+00  0.55762163113E+03  0.55762163113E+03  0.25500000000E-02 0. -1.
         -1   -1    0    0    0  501 -0.00000000000E+00 -0.00000000000E+00 -0.30938748050E+01  0.30938789101E+01  0.50400000000E-02 0.  1.
         24    2    1    2    0    0  0.00000000000E+00  0.35527136788E-14  0.55452775632E+03  0.56071551004E+03  0.83071358910E+02 0.  0.
         66    2    3    3    0    0  0.29096081723E+02  0.21353705080E+02  0.41586016233E+03  0.41742812232E+03  0.19999999707E+01 0.  0.
        -13    1    3    3    0    0 -0.29096081723E+02 -0.21353705080E+02  0.13866759399E+03  0.14328738772E+03  0.10566000000E+00 0.  1.
         13    1    4    4    0    0  0.23372888105E+02  0.17831652515E+02  0.33775234300E+03  0.33902937350E+03  0.10566000000E+00 0. -1.
        -13    1    4    4    0    0  0.10953913203E+01  0.85503279491E+00  0.18211209652E+02  0.18264454119E+02  0.10566000000E+00 0.  1.
        -14    1    4    4    0    0  0.46278022979E+01  0.26670197699E+01  0.59896609680E+02  0.60134294705E+02  0.00000000000E+00 0.  1.
<mgrwt>
<rscale>  0 0.83071359E+02</rscale>
<asrwt>0</asrwt>
<pdfrwt beam="1">  1        2 0.85787904E-01 0.83071359E+02</pdfrwt>
<pdfrwt beam="2">  1       -1 0.47598128E-03 0.83071359E+02</pdfrwt>
<totfact> 0.28544667E+05</totfact>
</mgrwt>
</event>
<event>
 8    1  0.1520917E-013  0.8066868E+02  0.7818608E-02  0.1327164E+00
          2   -1    0    0  501    0  0.00000000000E+00  0.00000000000E+00  0.61453088726E+02  0.61453088779E+02  0.25500000000E-02 0. -1.
         -1   -1    0    0    0  501 -0.00000000000E+00 -0.00000000000E+00 -0.26473182276E+02  0.26473182755E+02  0.50400000000E-02 0.  1.
         24    2    1    2    0    0 -0.35527136788E-14  0.00000000000E+00  0.34979906450E+02  0.87926271534E+02  0.80668676515E+02 0.  0.
         66    2    3    3    0    0  0.23096555946E+02  0.51984148818E+01  0.53060691630E+02  0.58137005505E+02  0.19999997327E+01 0.  0.
        -13    1    3    3    0    0 -0.23096555946E+02 -0.51984148818E+01 -0.18080785180E+02  0.29789266030E+02  0.10566000000E+00 0.  1.
         13    1    4    4    0    0  0.10785282534E+02  0.27562020758E+01  0.24244934556E+02  0.26678586635E+02  0.10566000000E+00 0. -1.
        -13    1    4    4    0    0  0.34702210662E+00 -0.82487499783E-01  0.12072796507E+01  0.12632959751E+01  0.10566000000E+00 0.  1.
        -14    1    4    4    0    0  0.11964251305E+02  0.25247003058E+01  0.27608477424E+02  0.30195122894E+02  0.00000000000E+00 0.  1.
<mgrwt>
<rscale>  0 0.80668677E+02</rscale>
<asrwt>0</asrwt>
<pdfrwt beam="1">  1        2 0.94543212E-02 0.80668677E+02</pdfrwt>
<pdfrwt beam="2">  1       -1 0.40727974E-02 0.80668677E+02</pdfrwt>
<totfact> 0.15302420E+05</totfact>
</mgrwt>
</event>
<event>
 8    1  0.1520917E-013  0.7557731E+02  0.7818608E-02  0.1342093E+00
         -1   -1    0    0    0  501 -0.00000000000E+00  0.00000000000E+00  0.47480067495E+02  0.47480067762E+02  0.50400000000E-02 0.  1.
          2   -1    0    0  501    0  0.00000000000E+00 -0.00000000000E+00 -0.30075411871E+02  0.30075411979E+02  0.25500000000E-02 0. -1.
         24    2    1    2    0    0 -0.35527136788E-14 -0.44408920985E-15  0.17404655624E+02  0.77555479741E+02  0.75577314060E+02 0.  0.
         66    2    3    3    0    0  0.15805257237E+02  0.32355923621E+01 -0.26327625820E+02  0.30942189592E+02  0.20000002901E+01 0.  0.
        -13    1    3    3    0    0 -0.15805257237E+02 -0.32355923621E+01  0.43732281444E+02  0.46613290150E+02  0.10566000000E+00 0.  1.
         13    1    4    4    0    0  0.42011648376E+01  0.46252259952E+00 -0.69020310288E+01  0.80940045408E+01  0.10566000000E+00 0. -1.
        -13    1    4    4    0    0  0.59516227202E+01  0.11621531091E+01 -0.84991151506E+01  0.10441194148E+02  0.10566000000E+00 0. -1.
         14    1    4    4    0    0  0.56524696787E+01  0.16109166534E+01 -0.10926479641E+02  0.12406990903E+02  0.00000000000E+00 0. -1.
<mgrwt>
<rscale>  0 0.75577314E+02</rscale>
<asrwt>0</asrwt>
<pdfrwt beam="1">  1        2 0.46269865E-02 0.75577314E+02</pdfrwt>
<pdfrwt beam="2">  1       -1 0.73046258E-02 0.75577314E+02</pdfrwt>
<totfact> 0.15775849E+05</totfact>
</mgrwt>
</event>
<event>
 8    1  0.1520917E-013  0.8103336E+02  0.7818608E-02  0.1326144E+00
         -1   -1    0    0    0  501 -0.00000000000E+00  0.00000000000E+00  0.16769142833E+01  0.16769218572E+01  0.50400000000E-02 0.  1.
          2   -1    0    0  501    0  0.00000000000E+00 -0.00000000000E+00 -0.97893960487E+03  0.97893960487E+03  0.25500000000E-02 0. -1.
         24    2    1    2    0    0  0.00000000000E+00  0.17763568394E-14 -0.97726269059E+03  0.98061652673E+03  0.81033364018E+02 0.  0.
         66    2    3    3    0    0 -0.17931909937E+02  0.10877215910E+02 -0.90808541462E+03  0.90832977902E+03  0.19999984714E+01 0.  0.
        -13    1    3    3    0    0  0.17931909937E+02 -0.10877215910E+02 -0.69177275964E+02  0.72286747705E+02  0.10566000000E+00 0.  1.
         13    1    4    4    0    0 -0.19906671949E+01  0.12595242893E+01 -0.10681519007E+03  0.10684121467E+03  0.10566000000E+00 0. -1.
        -13    1    4    4    0    0 -0.10095996616E+02  0.52261202163E+01 -0.46649355372E+03  0.46663206952E+03  0.10566000000E+00 0.  1.
        -14    1    4    4    0    0 -0.58452461260E+01  0.43915714040E+01 -0.33477667084E+03  0.33485649484E+03  0.00000000000E+00 0.  1.
<mgrwt>
<rscale>  0 0.81033364E+02</rscale>
<asrwt>0</asrwt>
<pdfrwt beam="1">  1        2 0.15060564E+00 0.81033364E+02</pdfrwt>
<pdfrwt beam="2">  1       -1 0.25798818E-03 0.81033364E+02</pdfrwt>
<totfact> 0.34040095E+05</totfact>
</mgrwt>
</event>
<event>
 8    1  0.1520917E-013  0.7689539E+02  0.7818608E-02  0.1338100E+00
         -1   -1    0    0    0  501 -0.00000000000E+00  0.00000000000E+00  0.12908805941E+02  0.12908806925E+02  0.50400000000E-02 0.  1.
          2   -1    0    0  501    0  0.00000000000E+00 -0.00000000000E+00 -0.11451292318E+03  0.11451292320E+03  0.25500000000E-02 0. -1.
         24    2    1    2    0    0  0.00000000000E+00  0.00000000000E+00 -0.10160411724E+03  0.12742173013E+03  0.76895387833E+02 0.  0.
         66    2    3    3    0    0 -0.28300242916E+02 -0.20081066069E+02 -0.78168956619E+02  0.85548458455E+02  0.20000004193E+01 0.  0.
        -13    1    3    3    0    0  0.28300242916E+02  0.20081066069E+02 -0.23435160617E+02  0.41873271675E+02  0.10566000000E+00 0.  1.
         13    1    4    4    0    0 -0.98211654985E+01 -0.72151695142E+01 -0.25870575190E+02  0.28597408756E+02  0.10566000000E+00 0. -1.
        -13    1    4    4    0    0 -0.13842881995E+02 -0.91535646944E+01 -0.37745333935E+02  0.41232687597E+02  0.10566000000E+00 0.  1.
        -14    1    4    4    0    0 -0.46361954221E+01 -0.37123318604E+01 -0.14553047493E+02  0.15718362102E+02  0.00000000000E+00 0.  1.
<mgrwt>
<rscale>  0 0.76895388E+02</rscale>
<asrwt>0</asrwt>
<pdfrwt beam="1">  1        2 0.17617372E-01 0.76895388E+02</pdfrwt>
<pdfrwt beam="2">  1       -1 0.19859703E-02 0.76895388E+02</pdfrwt>
<totfact> 0.20478043E+05</totfact>
</mgrwt>
</event>
<event>
 8    1  0.1520917E-013  0.7587151E+02  0.7818608E-02  0.1341193E+00
         -1   -1    0    0    0  501 -0.00000000000E+00  0.00000000000E+00  0.97937328854E+02  0.97937328984E+02  0.50400000000E-02 0.  1.
          2   -1    0    0  501    0  0.00000000000E+00 -0.00000000000E+00 -0.14694310431E+02  0.14694310652E+02  0.25500000000E-02 0. -1.
         24    2    1    2    0    0  0.00000000000E+00 -0.88817841970E-15  0.83243018424E+02  0.11263163964E+03  0.75871510667E+02 0.  0.
         66    2    3    3    0    0  0.20649788411E+02 -0.54562386768E+01 -0.48441091451E+01  0.21992037313E+02  0.20000024605E+01 0.  0.
        -13    1    3    3    0    0 -0.20649788411E+02  0.54562386768E+01  0.88087127569E+02  0.90639602323E+02  0.10566000000E+00 0.  1.
         13    1    4    4    0    0  0.16194239703E+02 -0.44498900951E+01 -0.42410047782E+01  0.17322015095E+02  0.10566000000E+00 0. -1.
        -13    1    4    4    0    0  0.10581759578E+01 -0.54971369456E+00 -0.25952245580E+00  0.12249234443E+01  0.10566000000E+00 0.  1.
        -14    1    4    4    0    0  0.33973727507E+01 -0.45663488715E+00 -0.34358191111E+00  0.34450987732E+01  0.00000000000E+00 0.  1.
<mgrwt>
<rscale>  0 0.75871511E+02</rscale>
<asrwt>0</asrwt>
<pdfrwt beam="1">  1        2 0.22606631E-02 0.75871511E+02</pdfrwt>
<pdfrwt beam="2">  1       -1 0.15067282E-01 0.75871511E+02</pdfrwt>
<totfact> 0.13585475E+05</totfact>
</mgrwt>
</event>
<event>
 8    1  0.1520917E-013  0.7897542E+02  0.7818608E-02  0.1331984E+00
         -1   -1    0    0    0  501 -0.00000000000E+00  0.00000000000E+00  0.31442689480E+02  0.31442689884E+02  0.50400000000E-02 0.  1.
          2   -1    0    0  501    0  0.00000000000E+00 -0.00000000000E+00 -0.49591147431E+02  0.49591147496E+02  0.25500000000E-02 0. -1.
         24    2    1    2    0    0  0.00000000000E+00  0.00000000000E+00 -0.18148457951E+02  0.81033837380E+02  0.78975415634E+02 0.  0.
         66    2    3    3    0    0 -0.22625284154E+02 -0.23813102376E+02 -0.31520285907E+02  0.45568582909E+02  0.19999992035E+01 0.  0.
        -13    1    3    3    0    0  0.22625284154E+02  0.23813102376E+02  0.13371827957E+02  0.35465254472E+02  0.10566000000E+00 0.  1.
         13    1    4    4    0    0 -0.20425035299E+02 -0.21855864558E+02 -0.29309685965E+02  0.41879944340E+02  0.10566000000E+00 0. -1.
        -13    1    4    4    0    0 -0.67971324930E+00 -0.63066687919E+00 -0.64060017350E+00  0.11319379098E+01  0.10566000000E+00 0.  1.
         14    1    4    4    0    0 -0.15205356059E+01 -0.13265709388E+01 -0.15699997691E+01  0.25567006589E+01  0.00000000000E+00 0. -1.
<mgrwt>
<rscale>  0 0.78975416E+02</rscale>
<asrwt>0</asrwt>
<pdfrwt beam="1">  1        2 0.76294074E-02 0.78975416E+02</pdfrwt>
<pdfrwt beam="2">  1       -1 0.48373369E-02 0.78975416E+02</pdfrwt>
<totfact> 0.15452109E+05</totfact>
</mgrwt>
</event>
<event>
 8    1  0.1520917E-013  0.7960031E+02  0.7818608E-02  0.1330190E+00
         -1   -1    0    0    0  501 -0.00000000000E+00  0.00000000000E+00  0.84321953879E+01  0.84321968941E+01  0.50400000000E-02 0.  1.
          2   -1    0    0  501    0  0.00000000000E+00 -0.00000000000E+00 -0.18785760972E+03  0.18785760973E+03  0.25500000000E-02 0. -1.
         24    2    1    2    0    0 -0.11102230246E-15  0.00000000000E+00 -0.17942541433E+03  0.19628980663E+03  0.79600307029E+02 0.  0.
         66    2    3    3    0    0  0.99027336706E+00 -0.36140695380E+02 -0.48882337687E+02  0.60832667551E+02  0.19999999138E+01 0.  0.
        -13    1    3    3    0    0 -0.99027336706E+00  0.36140695380E+02 -0.13054307664E+03  0.13545713908E+03  0.10566000000E+00 0.  1.
         13    1    4    4    0    0  0.77473281667E+00 -0.26320625412E+02 -0.36534039319E+02  0.45034683590E+02  0.10566000000E+00 0. -1.
        -13    1    4    4    0    0  0.29529511516E+00 -0.71791365536E+01 -0.85089313516E+01  0.11137337098E+02  0.10566000000E+00 0.  1.
        -14    1    4    4    0    0 -0.79754564769E-01 -0.26409334149E+01 -0.38393670159E+01  0.46606468623E+01  0.00000000000E+00 0.  1.
<mgrwt>
<rscale>  0 0.79600307E+02</rscale>
<asrwt>0</asrwt>
<pdfrwt beam="1">  1        2 0.28901168E-01 0.79600307E+02</pdfrwt>
<pdfrwt beam="2">  1       -1 0.12972611E-02 0.79600307E+02</pdfrwt>
<totfact> 0.21874310E+05</totfact>
</mgrwt>
</event>
<event>
 8    1  0.1520917E-013  0.8087681E+02  0.7818608E-02  0.1326581E+00
         -1   -1    0    0    0  501 -0.00000000000E+00  0.00000000000E+00  0.31251693536E+02  0.31251693942E+02  0.50400000000E-02 0.  1.
          2   -1    0    0  501    0  0.00000000000E+00 -0.00000000000E+00 -0.52325626828E+02  0.52325626890E+02  0.25500000000E-02 0. -1.
         24    2    1    2    0    0  0.00000000000E+00  0.00000000000E+00 -0.21073933292E+02  0.83577320833E+02  0.80876806893E+02 0.  0.
         66    2    3    3    0    0 -0.56947219744E+01 -0.20718463543E+02 -0.45914566678E+02  0.50732948088E+02  0.19999996510E+01 0.  0.
        -13    1    3    3    0    0  0.56947219744E+01  0.20718463543E+02  0.24840633385E+02  0.32844372744E+02  0.10566000000E+00 0.  1.
         13    1    4    4    0    0 -0.33120756568E+01 -0.10195892228E+02 -0.21559817528E+02  0.24078267366E+02  0.10566000000E+00 0. -1.
        -13    1    4    4    0    0 -0.18983629894E+01 -0.71866112198E+01 -0.17598659226E+02  0.19104322376E+02  0.10566000000E+00 0.  1.
        -14    1    4    4    0    0 -0.48428332820E+00 -0.33359600947E+01 -0.67560899244E+01  0.75503583466E+01  0.00000000000E+00 0.  1.
<mgrwt>
<rscale>  0 0.80876807E+02</rscale>
<asrwt>0</asrwt>
<pdfrwt beam="1">  1        2 0.80500964E-02 0.80876807E+02</pdfrwt>
<pdfrwt beam="2">  1       -1 0.48079529E-02 0.80876807E+02</pdfrwt>
<totfact> 0.14649069E+05</totfact>
</mgrwt>
</event>
<event>
 8    1  0.1520917E-013  0.7157692E+02  0.7818608E-02  0.1354811E+00
         -1   -1    0    0    0  501 -0.00000000000E+00  0.00000000000E+00  0.17976916112E+02  0.17976916819E+02  0.50400000000E-02 0.  1.
          2   -1    0    0  501    0  0.00000000000E+00 -0.00000000000E+00 -0.71247686060E+02  0.71247686106E+02  0.25500000000E-02 0. -1.
         24    2    1    2    0    0  0.00000000000E+00  0.00000000000E+00 -0.53270769948E+02  0.89224602924E+02  0.71576915525E+02 0.  0.
         66    2    3    3    0    0  0.34119774076E+02 -0.10341390005E+01 -0.39941181643E+02  0.52578763939E+02  0.19999999704E+01 0.  0.
        -13    1    3    3    0    0 -0.34119774076E+02  0.10341390005E+01 -0.13329588305E+02  0.36645838985E+02  0.10566000000E+00 0.  1.
         13    1    4    4    0    0  0.62226163987E+01  0.13561052512E+00 -0.79760208317E+01  0.10117678459E+02  0.10566000000E+00 0. -1.
        -13    1    4    4    0    0  0.57560375078E+01 -0.88159955699E-01 -0.73227738108E+01  0.93152520250E+01  0.10566000000E+00 0.  1.
        -14    1    4    4    0    0  0.22141120170E+02 -0.10815895699E+01 -0.24642387000E+02  0.33145833455E+02  0.00000000000E+00 0.  1.
<mgrwt>
<rscale>  0 0.71576916E+02</rscale>
<asrwt>0</asrwt>
<pdfrwt beam="1">  1        2 0.10961182E-01 0.71576916E+02</pdfrwt>
<pdfrwt beam="2">  1       -1 0.27656795E-02 0.71576916E+02</pdfrwt>
<totfact> 0.21858053E+05</totfact>
</mgrwt>
</event>
<event>
 8    1  0.1520917E-013  0.7987006E+02  0.7818608E-02  0.1329421E+00
         -1   -1    0    0    0  501 -0.00000000000E+00  0.00000000000E+00  0.17803576719E+01  0.17803648057E+01  0.50400000000E-02 0.  1.
          2   -1    0    0  501    0  0.00000000000E+00 -0.00000000000E+00 -0.89577704471E+03  0.89577704471E+03  0.25500000000E-02 0. -1.
         24    2    1    2    0    0  0.00000000000E+00  0.00000000000E+00 -0.89399668704E+03  0.89755740952E+03  0.79870062902E+02 0.  0.
         66    2    3    3    0    0 -0.80004565392E+01 -0.14060220340E+02 -0.85727827730E+03  0.85743322880E+03  0.20000037061E+01 0.  0.
        -13    1    3    3    0    0  0.80004565392E+01  0.14060220340E+02 -0.36718409735E+02  0.40124180719E+02  0.10566000000E+00 0.  1.
         13    1    4    4    0    0 -0.35419782801E+01 -0.53435636673E+01 -0.33025156209E+03  0.33031379733E+03  0.10566000000E+00 0. -1.
        -13    1    4    4    0    0 -0.23879479838E+01 -0.59490150163E+01 -0.35749879857E+03  0.35755628259E+03  0.10566000000E+00 0.  1.
        -14    1    4    4    0    0 -0.20705302752E+01 -0.27676416565E+01 -0.16952791664E+03  0.16956314888E+03  0.00000000000E+00 0.  1.
<mgrwt>
<rscale>  0 0.79870063E+02</rscale>
<asrwt>0</asrwt>
<pdfrwt beam="1">  1        2 0.13781149E+00 0.79870063E+02</pdfrwt>
<pdfrwt beam="2">  1       -1 0.27390245E-03 0.79870063E+02</pdfrwt>
<totfact> 0.35075983E+05</totfact>
</mgrwt>
</event>
<event>
 8    1  0.1520917E-013  0.7859296E+02  0.7818608E-02  0.1333093E+00
         -1   -1    0    0    0  501 -0.00000000000E+00  0.00000000000E+00  0.47713386800E+01  0.47713413419E+01  0.50400000000E-02 0.  1.
          2   -1    0    0  501    0  0.00000000000E+00 -0.00000000000E+00 -0.32364350412E+03  0.32364350413E+03  0.25500000000E-02 0. -1.
         24    2    1    2    0    0  0.00000000000E+00  0.00000000000E+00 -0.31887216544E+03  0.32841484548E+03  0.78592956644E+02 0.  0.
         66    2    3    3    0    0  0.20002827672E+02 -0.26858001688E+02 -0.24525221062E+03  0.24753608262E+03  0.20000032409E+01 0.  0.
        -13    1    3    3    0    0 -0.20002827672E+02  0.26858001688E+02 -0.73619954822E+02  0.80878762859E+02  0.10566000000E+00 0.  1.
         13    1    4    4    0    0  0.39822211484E+01 -0.60913071931E+01 -0.51088718511E+02  0.51604558246E+02  0.10566000000E+00 0. -1.
        -13    1    4    4    0    0  0.42339280329E+01 -0.45705980738E+01 -0.46013378182E+02  0.46433378609E+02  0.10566000000E+00 0.  1.
         14    1    4    4    0    0  0.11786678490E+02 -0.16196096421E+02 -0.14815011393E+03  0.14949814576E+03  0.00000000000E+00 0. -1.
<mgrwt>
<rscale>  0 0.78592957E+02</rscale>
<asrwt>0</asrwt>
<pdfrwt beam="1">  1        2 0.49791291E-01 0.78592957E+02</pdfrwt>
<pdfrwt beam="2">  1       -1 0.73405256E-03 0.78592957E+02</pdfrwt>
<totfact> 0.27448389E+05</totfact>
</mgrwt>
</event>
<event>
 8    1  0.1520917E-013  0.7816806E+02  0.7818608E-02  0.1334332E+00
          2   -1    0    0  501    0  0.00000000000E+00  0.00000000000E+00  0.62044025691E+02  0.62044025743E+02  0.25500000000E-02 0. -1.
         -1   -1    0    0    0  501 -0.00000000000E+00 -0.00000000000E+00 -0.24620605648E+02  0.24620606164E+02  0.50400000000E-02 0.  1.
         24    2    1    2    0    0 -0.17763568394E-14 -0.35527136788E-14  0.37423420043E+02  0.86664631908E+02  0.78168062890E+02 0.  0.
         66    2    3    3    0    0 -0.12166848907E+02  0.14577658587E+02  0.56566313498E+02  0.59701659593E+02  0.19999982953E+01 0.  0.
        -13    1    3    3    0    0  0.12166848907E+02 -0.14577658587E+02 -0.19142893455E+02  0.26962972315E+02  0.10566000000E+00 0.  1.
         13    1    4    4    0    0 -0.43249314864E+01  0.43651741507E+01  0.16401647377E+02  0.17515278429E+02  0.10566000000E+00 0. -1.
        -13    1    4    4    0    0 -0.73838899519E+00  0.13362889843E+01  0.51169718278E+01  0.53409223248E+01  0.10566000000E+00 0.  1.
         14    1    4    4    0    0 -0.71035284252E+01  0.88761954522E+01  0.35047694293E+02  0.36845458839E+02  0.00000000000E+00 0. -1.
<mgrwt>
<rscale>  0 0.78168063E+02</rscale>
<asrwt>0</asrwt>
<pdfrwt beam="1">  1        2 0.95452346E-02 0.78168063E+02</pdfrwt>
<pdfrwt beam="2">  1       -1 0.37877856E-02 0.78168063E+02</pdfrwt>
<totfact> 0.16705535E+05</totfact>
</mgrwt>
</event>
<event>
 8    1  0.1520917E-013  0.7794616E+02  0.7818608E-02  0.1334983E+00
          2   -1    0    0  501    0  0.00000000000E+00  0.00000000000E+00  0.60017056904E+03  0.60017056904E+03  0.25500000000E-02 0. -1.
         -1   -1    0    0    0  501 -0.00000000000E+00 -0.00000000000E+00 -0.25307796655E+01  0.25307846840E+01  0.50400000000E-02 0.  1.
         24    2    1    2    0    0  0.17763568394E-14  0.00000000000E+00  0.59763978937E+03  0.60270135373E+03  0.77946160544E+02 0.  0.
         66    2    3    3    0    0  0.82587199778E+01  0.28152668377E+02  0.49707665688E+03  0.49794576212E+03  0.20000012899E+01 0.  0.
        -13    1    3    3    0    0 -0.82587199778E+01 -0.28152668377E+02  0.10056313249E+03  0.10475559161E+03  0.10566000000E+00 0.  1.
         13    1    4    4    0    0  0.26489664233E+01  0.10288657784E+02  0.17986754067E+03  0.18018106686E+03  0.10566000000E+00 0.  1.
        -13    1    4    4    0    0  0.36224626121E+01  0.12203693328E+02  0.20415862565E+03  0.20455514649E+03  0.10566000000E+00 0. -1.
         14    1    4    4    0    0  0.19872909424E+01  0.56603172641E+01  0.11305049056E+03  0.11320954877E+03  0.00000000000E+00 0. -1.
<mgrwt>
<rscale>  0 0.77946161E+02</rscale>
<asrwt>0</asrwt>
<pdfrwt beam="1">  1        2 0.92333948E-01 0.77946161E+02</pdfrwt>
<pdfrwt beam="2">  1       -1 0.38935105E-03 0.77946161E+02</pdfrwt>
<totfact> 0.34415341E+05</totfact>
</mgrwt>
</event>
<event>
 8    1  0.1520917E-013  0.8050768E+02  0.7818608E-02  0.1327617E+00
          2   -1    0    0  501    0  0.00000000000E+00  0.00000000000E+00  0.52669034683E+03  0.52669034684E+03  0.25500000000E-02 0. -1.
         -1   -1    0    0    0  501 -0.00000000000E+00 -0.00000000000E+00 -0.30765148480E+01  0.30765189763E+01  0.50400000000E-02 0.  1.
         24    2    1    2    0    0  0.17763568394E-14  0.35527136788E-14  0.52361383198E+03  0.52976686581E+03  0.80507683297E+02 0.  0.
         66    2    3    3    0    0  0.10111187566E+02  0.16245584943E+02  0.49482344763E+03  0.49519733386E+03  0.19999986865E+01 0.  0.
        -13    1    3    3    0    0 -0.10111187566E+02 -0.16245584943E+02  0.28790384350E+02  0.34569531949E+02  0.10566000000E+00 0.  1.
         13    1    4    4    0    0  0.28459502816E+01  0.41807539068E+01  0.12567868034E+03  0.12578044360E+03  0.10566000000E+00 0. -1.
        -13    1    4    4    0    0  0.44784301241E+01  0.81814323020E+01  0.26076909575E+03  0.26093586306E+03  0.10566000000E+00 0.  1.
        -14    1    4    4    0    0  0.27868071608E+01  0.38833987338E+01  0.10837567154E+03  0.10848102720E+03  0.00000000000E+00 0.  1.
<mgrwt>
<rscale>  0 0.80507683E+02</rscale>
<asrwt>0</asrwt>
<pdfrwt beam="1">  1        2 0.81029298E-01 0.80507683E+02</pdfrwt>
<pdfrwt beam="2">  1       -1 0.47331022E-03 0.80507683E+02</pdfrwt>
<totfact> 0.30446185E+05</totfact>
</mgrwt>
</event>
<event>
 8    1  0.1520917E-013  0.8144522E+02  0.7818608E-02  0.1324999E+00
          2   -1    0    0  501    0  0.00000000000E+00  0.00000000000E+00  0.73309307720E+03  0.73309307720E+03  0.25500000000E-02 0. -1.
         -1   -1    0    0    0  501 -0.00000000000E+00 -0.00000000000E+00 -0.22620985862E+01  0.22621042008E+01  0.50400000000E-02 0.  1.
         24    2    1    2    0    0  0.00000000000E+00 -0.88817841970E-15  0.73083097861E+03  0.73535518140E+03  0.81445217895E+02 0.  0.
         66    2    3    3    0    0  0.31793207643E+02 -0.60462182363E+01  0.58844094729E+03  0.58933361796E+03  0.20000001019E+01 0.  0.
        -13    1    3    3    0    0 -0.31793207643E+02  0.60462182363E+01  0.14239003132E+03  0.14602156344E+03  0.10566000000E+00 0.  1.
         13    1    4    4    0    0  0.10099110423E+02 -0.19076782639E+01  0.19873134405E+03  0.19899695861E+03  0.10566000000E+00 0. -1.
        -13    1    4    4    0    0  0.19733969709E+01 -0.21414989341E+00  0.30470750841E+02  0.30535519917E+02  0.10566000000E+00 0.  1.
         14    1    4    4    0    0  0.19720700249E+02 -0.39243900790E+01  0.35923885240E+03  0.35980113942E+03  0.00000000000E+00 0. -1.
<mgrwt>
<rscale>  0 0.81445218E+02</rscale>
<asrwt>0</asrwt>
<pdfrwt beam="1">  1        2 0.11278359E+00 0.81445218E+02</pdfrwt>
<pdfrwt beam="2">  1       -1 0.34801548E-03 0.81445218E+02</pdfrwt>
<totfact> 0.32255715E+05</totfact>
</mgrwt>
</event>
<event>
 8    1  0.1520917E-013  0.8775928E+02  0.7818608E-02  0.1308370E+00
          2   -1    0    0  501    0  0.00000000000E+00  0.00000000000E+00  0.17991026246E+03  0.17991026248E+03  0.25500000000E-02 0. -1.
         -1   -1    0    0    0  501 -0.00000000000E+00 -0.00000000000E+00 -0.10702127511E+02  0.10702128697E+02  0.50400000000E-02 0.  1.
         24    2    1    2    0    0  0.17763568394E-14  0.00000000000E+00  0.16920813495E+03  0.19061239117E+03  0.87759277210E+02 0.  0.
         66    2    3    3    0    0  0.12607720639E+02 -0.24196282792E+02  0.15922670886E+03  0.16155977079E+03  0.20000001908E+01 0.  0.
        -13    1    3    3    0    0 -0.12607720639E+02  0.24196282792E+02  0.99814260869E+01  0.29052620389E+02  0.10566000000E+00 0.  1.
         13    1    4    4    0    0  0.64508357188E+01 -0.11132127710E+02  0.73221133752E+02  0.74343010033E+02  0.10566000000E+00 0. -1.
        -13    1    4    4    0    0  0.11850092249E+01 -0.34764213232E+01  0.23277620543E+02  0.23565834045E+02  0.10566000000E+00 0.  1.
        -14    1    4    4    0    0  0.49718756954E+01 -0.95877337596E+01  0.62727954567E+02  0.63650926707E+02  0.00000000000E+00 0.  1.
<mgrwt>
<rscale>  0 0.87759277E+02</rscale>
<asrwt>0</asrwt>
<pdfrwt beam="1">  1        2 0.27678501E-01 0.87759277E+02</pdfrwt>
<pdfrwt beam="2">  1       -1 0.16464813E-02 0.87759277E+02</pdfrwt>
<totfact> 0.16632853E+05</totfact>
</mgrwt>
</event>
<event>
 8    1  0.1520917E-013  0.7956894E+02  0.7818608E-02  0.1330279E+00
          2   -1    0    0  501    0  0.00000000000E+00  0.00000000000E+00  0.74253878519E+02  0.74253878562E+02  0.25500000000E-02 0. -1.
         -1   -1    0    0    0  501 -0.00000000000E+00 -0.00000000000E+00 -0.21316112276E+02  0.21316112872E+02  0.50400000000E-02 0.  1.
         24    2    1    2    0    0  0.00000000000E+00  0.00000000000E+00  0.52937766243E+02  0.95569991434E+02  0.79568939719E+02 0.  0.
         66    2    3    3    0    0 -0.27967635783E+02  0.22629809607E+02  0.61553465052E+01  0.36553867412E+02  0.19999995026E+01 0.  0.
        -13    1    3    3    0    0  0.27967635783E+02 -0.22629809607E+02  0.46782419737E+02  0.59016124023E+02  0.10566000000E+00 0.  1.
         13    1    4    4    0    0 -0.11951154746E+02  0.10115528705E+02  0.29308264452E+01  0.15929687016E+02  0.10566000000E+00 0. -1.
        -13    1    4    4    0    0 -0.11349296598E+02  0.95358684649E+01  0.20594050649E+01  0.14966350053E+02  0.10566000000E+00 0.  1.
         14    1    4    4    0    0 -0.46671844394E+01  0.29784124366E+01  0.11651149951E+01  0.56578303426E+01  0.00000000000E+00 0. -1.
<mgrwt>
<rscale>  0 0.79568940E+02</rscale>
<asrwt>0</asrwt>
<pdfrwt beam="1">  1        2 0.11423673E-01 0.79568940E+02</pdfrwt>
<pdfrwt beam="2">  1       -1 0.32794020E-02 0.79568940E+02</pdfrwt>
<totfact> 0.16624280E+05</totfact>
</mgrwt>
</event>
<event>
 8    1  0.1520917E-013  0.7905431E+02  0.7818608E-02  0.1331757E+00
         -1   -1    0    0    0  501 -0.00000000000E+00  0.00000000000E+00  0.49998675397E+01  0.49998700800E+01  0.50400000000E-02 0.  1.
          2   -1    0    0  501    0  0.00000000000E+00 -0.00000000000E+00 -0.31248737190E+03  0.31248737191E+03  0.25500000000E-02 0. -1.
         24    2    1    2    0    0  0.00000000000E+00  0.00000000000E+00 -0.30748750436E+03  0.31748724199E+03  0.79054307214E+02 0.  0.
         66    2    3    3    0    0 -0.90406062668E+01 -0.37455843855E+02 -0.11889562298E+03  0.12499936786E+03  0.20000002802E+01 0.  0.
        -13    1    3    3    0    0  0.90406062668E+01  0.37455843855E+02 -0.18859188138E+03  0.19248787413E+03  0.10566000000E+00 0.  1.
         13    1    4    4    0    0 -0.31040464263E+01 -0.10573806675E+02 -0.34870740159E+02  0.36570755736E+02  0.10566000000E+00 0. -1.
        -13    1    4    4    0    0 -0.96830563275E-01 -0.17419984585E+01 -0.51831690579E+01  0.54699488394E+01  0.10566000000E+00 0.  1.
        -14    1    4    4    0    0 -0.58397292772E+01 -0.25140038722E+02 -0.78841713767E+02  0.82958663289E+02  0.00000000000E+00 0.  1.
<mgrwt>
<rscale>  0 0.79054307E+02</rscale>
<asrwt>0</asrwt>
<pdfrwt beam="1">  1        2 0.48074965E-01 0.79054307E+02</pdfrwt>
<pdfrwt beam="2">  1       -1 0.76921084E-03 0.79054307E+02</pdfrwt>
<totfact> 0.26691780E+05</totfact>
</mgrwt>
</event>
<event>
 8    1  0.1520917E-013  0.8059508E+02  0.7818608E-02  0.1327371E+00
          2   -1    0    0  501    0  0.00000000000E+00  0.00000000000E+00  0.15522285794E+02  0.15522286004E+02  0.25500000000E-02 0. -1.
         -1   -1    0    0    0  501 -0.00000000000E+00 -0.00000000000E+00 -0.10461678693E+03  0.10461678705E+03  0.50400000000E-02 0.  1.
         24    2    1    2    0    0 -0.35527136788E-14  0.00000000000E+00 -0.89094501132E+02  0.12013907305E+03  0.80595078893E+02 0.  0.
         66    2    3    3    0    0 -0.21043446711E+02  0.30104298347E+02 -0.69194773506E+02  0.78364610134E+02  0.20000031165E+01 0.  0.
        -13    1    3    3    0    0  0.21043446711E+02 -0.30104298347E+02 -0.19899727626E+02  0.41774462918E+02  0.10566000000E+00 0.  1.
         13    1    4    4    0    0 -0.19158318787E+02  0.27463283288E+02 -0.63512717486E+02  0.71799370151E+02  0.10566000000E+00 0. -1.
        -13    1    4    4    0    0 -0.56682872679E+00  0.12220676187E+01 -0.24050668616E+01  0.27586690114E+01  0.10566000000E+00 0.  1.
         14    1    4    4    0    0 -0.13182991972E+01  0.14189474404E+01 -0.32769891590E+01  0.38065709713E+01  0.00000000000E+00 0. -1.
<mgrwt>
<rscale>  0 0.80595079E+02</rscale>
<asrwt>0</asrwt>
<pdfrwt beam="1">  1        2 0.23880441E-02 0.80595079E+02</pdfrwt>
<pdfrwt beam="2">  1       -1 0.16094890E-01 0.80595079E+02</pdfrwt>
<totfact> 0.11522862E+05</totfact>
</mgrwt>
</event>
<event>
 8    1  0.1520917E-013  0.8953812E+02  0.7818608E-02  0.1303974E+00
          2   -1    0    0  501    0  0.00000000000E+00  0.00000000000E+00  0.48483521965E+03  0.48483521965E+03  0.25500000000E-02 0. -1.
         -1   -1    0    0    0  501 -0.00000000000E+00 -0.00000000000E+00 -0.41339160507E+01  0.41339191230E+01  0.50400000000E-02 0.  1.
         24    2    1    2    0    0  0.00000000000E+00 -0.17763568394E-14  0.48070130359E+03  0.48896913878E+03  0.89538122590E+02 0.  0.
         66    2    3    3    0    0  0.20857776372E+02  0.13274928624E+02  0.44414441283E+03  0.44483652054E+03  0.20000002072E+01 0.  0.
        -13    1    3    3    0    0 -0.20857776372E+02 -0.13274928624E+02  0.36556890769E+02  0.44132618230E+02  0.10566000000E+00 0.  1.
         13    1    4    4    0    0  0.61483512827E+01  0.31006072262E+01  0.11406397005E+03  0.11427167810E+03  0.10566000000E+00 0. -1.
        -13    1    4    4    0    0  0.54041012671E+01  0.38684659484E+01  0.12060693609E+03  0.12078995627E+03  0.10566000000E+00 0.  1.
         14    1    4    4    0    0  0.93053238218E+01  0.63058554495E+01  0.20947350669E+03  0.20977488618E+03  0.00000000000E+00 0. -1.
<mgrwt>
<rscale>  0 0.89538123E+02</rscale>
<asrwt>0</asrwt>
<pdfrwt beam="1">  1        2 0.74590006E-01 0.89538123E+02</pdfrwt>
<pdfrwt beam="2">  1       -1 0.63598756E-03 0.89538123E+02</pdfrwt>
<totfact> 0.22442930E+05</totfact>
</mgrwt>
</event>
<event>
 8    1  0.1520917E-013  0.8021621E+02  0.7818608E-02  0.1328439E+00
         -1   -1    0    0    0  501 -0.00000000000E+00  0.00000000000E+00  0.16114548949E+01  0.16114627764E+01  0.50400000000E-02 0.  1.
          2   -1    0    0  501    0  0.00000000000E+00 -0.00000000000E+00 -0.99826313621E+03  0.99826313622E+03  0.25500000000E-02 0. -1.
         24    2    1    2    0    0 -0.35527136788E-14 -0.35527136788E-14 -0.99665168132E+03  0.99987459899E+03  0.80216206820E+02 0.  0.
         66    2    3    3    0    0  0.21451973090E+02  0.22233486947E+02 -0.81694733230E+03  0.81753376618E+03  0.19999996886E+01 0.  0.
        -13    1    3    3    0    0 -0.21451973090E+02 -0.22233486947E+02 -0.17970434902E+03  0.18234083281E+03  0.10566000000E+00 0.  1.
         13    1    4    4    0    0  0.96341646115E+01  0.97187496206E+01 -0.35081386729E+03  0.35108069140E+03  0.10566000000E+00 0. -1.
        -13    1    4    4    0    0  0.28339398191E+01  0.34690183676E+01 -0.13469025741E+03  0.13476476508E+03  0.10566000000E+00 0.  1.
        -14    1    4    4    0    0  0.89838686594E+01  0.90457189591E+01 -0.33144320760E+03  0.33168830970E+03  0.00000000000E+00 0.  1.
<mgrwt>
<rscale>  0 0.80216207E+02</rscale>
<asrwt>0</asrwt>
<pdfrwt beam="1">  1        2 0.15357845E+00 0.80216207E+02</pdfrwt>
<pdfrwt beam="2">  1       -1 0.24791754E-03 0.80216207E+02</pdfrwt>
<totfact> 0.34982558E+05</totfact>
</mgrwt>
</event>
<event>
 8    1  0.1520917E-013  0.8023575E+02  0.7818608E-02  0.1328384E+00
         -1   -1    0    0    0  501 -0.00000000000E+00  0.00000000000E+00  0.53644617685E+01  0.53644641360E+01  0.50400000000E-02 0.  1.
          2   -1    0    0  501    0  0.00000000000E+00 -0.00000000000E+00 -0.30001954518E+03  0.30001954520E+03  0.25500000000E-02 0. -1.
         24    2    1    2    0    0  0.00000000000E+00  0.00000000000E+00 -0.29465508342E+03  0.30538400933E+03  0.80235746226E+02 0.  0.
         66    2    3    3    0    0 -0.15159752619E+02  0.28497863186E+02 -0.23792783495E+03  0.24011580736E+03  0.19999990610E+01 0.  0.
        -13    1    3    3    0    0  0.15159752619E+02 -0.28497863186E+02 -0.56727248469E+02  0.65268201971E+02  0.10566000000E+00 0.  1.
         13    1    4    4    0    0 -0.76759553316E+01  0.14571365737E+02 -0.11706886239E+03  0.11822171838E+03  0.10566000000E+00 0. -1.
        -13    1    4    4    0    0 -0.42381912048E+01  0.88538524207E+01 -0.72475630129E+02  0.73137412410E+02  0.10566000000E+00 0.  1.
        -14    1    4    4    0    0 -0.32456060822E+01  0.50726450284E+01 -0.48383342424E+02  0.48756676574E+02  0.00000000000E+00 0.  1.
<mgrwt>
<rscale>  0 0.80235746E+02</rscale>
<asrwt>0</asrwt>
<pdfrwt beam="1">  1        2 0.46156840E-01 0.80235746E+02</pdfrwt>
<pdfrwt beam="2">  1       -1 0.82530223E-03 0.80235746E+02</pdfrwt>
<totfact> 0.25299132E+05</totfact>
</mgrwt>
</event>
<event>
 8    1  0.1520917E-013  0.6948148E+02  0.7818608E-02  0.1361865E+00
         -1   -1    0    0    0  501 -0.00000000000E+00  0.00000000000E+00  0.10606566930E+02  0.10606568128E+02  0.50400000000E-02 0.  1.
          2   -1    0    0  501    0  0.00000000000E+00 -0.00000000000E+00 -0.11378978208E+03  0.11378978211E+03  0.25500000000E-02 0. -1.
         24    2    1    2    0    0  0.35527136788E-14 -0.17763568394E-14 -0.10318321515E+03  0.12439635023E+03  0.69481480003E+02 0.  0.
         66    2    3    3    0    0 -0.23680263846E+02  0.10847805849E+02 -0.92714322332E+02  0.96324323795E+02  0.20000004051E+01 0.  0.
        -13    1    3    3    0    0  0.23680263846E+02 -0.10847805849E+02 -0.10468892816E+02  0.28072026439E+02  0.10566000000E+00 0.  1.
         13    1    4    4    0    0 -0.14261849478E+02  0.64854149069E+01 -0.52514456472E+02  0.54801827156E+02  0.10566000000E+00 0. -1.
        -13    1    4    4    0    0 -0.53674256088E+00  0.29317030027E+00 -0.27702249858E+01  0.28388997709E+01  0.10566000000E+00 0.  1.
        -14    1    4    4    0    0 -0.88816718070E+01  0.40692206422E+01 -0.37429640875E+02  0.38683596869E+02  0.00000000000E+00 0.  1.
<mgrwt>
<rscale>  0 0.69481480E+02</rscale>
<asrwt>0</asrwt>
<pdfrwt beam="1">  1        2 0.17506120E-01 0.69481480E+02</pdfrwt>
<pdfrwt beam="2">  1       -1 0.16317797E-02 0.69481480E+02</pdfrwt>
<totfact> 0.26708909E+05</totfact>
</mgrwt>
</event>
<event>
 8    1  0.1520917E-013  0.8000749E+02  0.7818608E-02  0.1329030E+00
         -1   -1    0    0    0  501 -0.00000000000E+00  0.00000000000E+00  0.76958140805E+02  0.76958140970E+02  0.50400000000E-02 0.  1.
          2   -1    0    0  501    0  0.00000000000E+00 -0.00000000000E+00 -0.20794418021E+02  0.20794418177E+02  0.25500000000E-02 0. -1.
         24    2    1    2    0    0  0.00000000000E+00  0.00000000000E+00  0.56163722784E+02  0.97752559147E+02  0.80007493791E+02 0.  0.
         66    2    3    3    0    0 -0.25933058029E+02  0.80871163637E+01 -0.77383341179E+01  0.28316192665E+02  0.20000005693E+01 0.  0.
        -13    1    3    3    0    0  0.25933058029E+02 -0.80871163637E+01  0.63902056902E+02  0.69436366482E+02  0.10566000000E+00 0.  1.
         13    1    4    4    0    0 -0.11647916937E+02  0.41430709998E+01 -0.33566174778E+01  0.12810817741E+02  0.10566000000E+00 0. -1.
        -13    1    4    4    0    0 -0.15830168915E+01  0.75906055697E+00 -0.77841394414E+00  0.19233324496E+01  0.10566000000E+00 0.  1.
        -14    1    4    4    0    0 -0.12702124201E+02  0.31849848070E+01 -0.36033026959E+01  0.13582042474E+02  0.00000000000E+00 0.  1.
<mgrwt>
<rscale>  0 0.80007494E+02</rscale>
<asrwt>0</asrwt>
<pdfrwt beam="1">  1        2 0.31991413E-02 0.80007494E+02</pdfrwt>
<pdfrwt beam="2">  1       -1 0.11839714E-01 0.80007494E+02</pdfrwt>
<totfact> 0.12510272E+05</totfact>
</mgrwt>
</event>
<event>
 8    1  0.1520917E-013  0.7752526E+02  0.7818608E-02  0.1336225E+00
         -1   -1    0    0    0  501 -0.00000000000E+00  0.00000000000E+00  0.13903462082E+02  0.13903462996E+02  0.50400000000E-02 0.  1.
          2   -1    0    0  501    0  0.00000000000E+00 -0.00000000000E+00 -0.10806958927E+03  0.10806958930E+03  0.25500000000E-02 0. -1.
         24    2    1    2    0    0  0.35527136788E-14  0.00000000000E+00 -0.94166127188E+02  0.12197305230E+03  0.77525260250E+02 0.  0.
         66    2    3    3    0    0  0.21982251633E+02 -0.20087364645E+02 -0.86094093047E+02  0.91120329492E+02  0.19999959657E+01 0.  0.
        -13    1    3    3    0    0 -0.21982251633E+02  0.20087364645E+02 -0.80720341416E+01  0.30852722804E+02  0.10566000000E+00 0.  1.
         13    1    4    4    0    0  0.68616197795E+01 -0.60105652716E+01 -0.28009993485E+02  0.29458099395E+02  0.10566000000E+00 0. -1.
        -13    1    4    4    0    0  0.26708539664E+01 -0.21627331320E+01 -0.84968210372E+01  0.91661337151E+01  0.10566000000E+00 0.  1.
        -14    1    4    4    0    0  0.12449777887E+02 -0.11914066241E+02 -0.49587278525E+02  0.52496096382E+02  0.00000000000E+00 0.  1.
<mgrwt>
<rscale>  0 0.77525260E+02</rscale>
<asrwt>0</asrwt>
<pdfrwt beam="1">  1        2 0.16626090E-01 0.77525260E+02</pdfrwt>
<pdfrwt beam="2">  1       -1 0.21389943E-02 0.77525260E+02</pdfrwt>
<totfact> 0.19705965E+05</totfact>
</mgrwt>
</event>
<event>
 8    1  0.1520917E-013  0.8103901E+02  0.7818608E-02  0.1326128E+00
          2   -1    0    0  501    0  0.00000000000E+00  0.00000000000E+00  0.85045346229E+02  0.85045346267E+02  0.25500000000E-02 0. -1.
         -1   -1    0    0    0  501 -0.00000000000E+00 -0.00000000000E+00 -0.19305351480E+02  0.19305352138E+02  0.50400000000E-02 0.  1.
         24    2    1    2    0    0  0.17763568394E-14  0.00000000000E+00  0.65739994749E+02  0.10435069840E+03  0.81039011272E+02 0.  0.
         66    2    3    3    0    0  0.13815811213E+02  0.36737811595E+02  0.45720247080E+02  0.60290002756E+02  0.19999997574E+01 0.  0.
        -13    1    3    3    0    0 -0.13815811213E+02 -0.36737811595E+02  0.20019747668E+02  0.44060695648E+02  0.10566000000E+00 0.  1.
         13    1    4    4    0    0  0.95091450213E+01  0.25132770573E+02  0.31387732746E+02  0.41319256124E+02  0.10566000000E+00 0. -1.
        -13    1    4    4    0    0  0.24510301143E+01  0.80848913130E+01  0.96809690106E+01  0.12849332324E+02  0.10566000000E+00 0.  1.
         14    1    4    4    0    0  0.18556360780E+01  0.35201497087E+01  0.46515453241E+01  0.61214143078E+01  0.00000000000E+00 0. -1.
<mgrwt>
<rscale>  0 0.81039011E+02</rscale>
<asrwt>0</asrwt>
<pdfrwt beam="1">  1        2 0.13083900E-01 0.81039011E+02</pdfrwt>
<pdfrwt beam="2">  1       -1 0.29700541E-02 0.81039011E+02</pdfrwt>
<totfact> 0.16383843E+05</totfact>
</mgrwt>
</event>
<event>
 8    1  0.1520917E-013  0.7719138E+02  0.7818608E-02  0.1337216E+00
          2   -1    0    0  501    0  0.00000000000E+00  0.00000000000E+00  0.22854082417E+03  0.22854082419E+03  0.25500000000E-02 0. -1.
         -1   -1    0    0    0  501 -0.00000000000E+00 -0.00000000000E+00 -0.65179904605E+01  0.65179924091E+01  0.50400000000E-02 0.  1.
         24    2    1    2    0    0  0.00000000000E+00  0.00000000000E+00  0.22202283371E+03  0.23505881660E+03  0.77191376266E+02 0.  0.
         66    2    3    3    0    0 -0.37287335844E+02 -0.85083908300E+01  0.95895341446E+02  0.10326013072E+03  0.19999891853E+01 0.  0.
        -13    1    3    3    0    0  0.37287335844E+02  0.85083908300E+01  0.12612749227E+03  0.13179868587E+03  0.10566000000E+00 0.  1.
         13    1    4    4    0    0 -0.78024716272E+01 -0.20787514365E+01  0.19860940370E+02  0.21439866777E+02  0.10566000000E+00 0. -1.
        -13    1    4    4    0    0 -0.20600901519E+02 -0.45797695609E+01  0.51134954788E+02  0.55318768947E+02  0.10566000000E+00 0.  1.
         14    1    4    4    0    0 -0.88839626979E+01 -0.18498698326E+01  0.24899446289E+02  0.26501494998E+02  0.00000000000E+00 0. -1.
<mgrwt>
<rscale>  0 0.77191376E+02</rscale>
<asrwt>0</asrwt>
<pdfrwt beam="1">  1        2 0.35160121E-01 0.77191376E+02</pdfrwt>
<pdfrwt beam="2">  1       -1 0.10027681E-02 0.77191376E+02</pdfrwt>
<totfact> 0.25392988E+05</totfact>
</mgrwt>
</event>
<event>
 8    1  0.1520917E-013  0.8490126E+02  0.7818608E-02  0.1315691E+00
         -1   -1    0    0    0  501 -0.00000000000E+00  0.00000000000E+00  0.43013293853E+01  0.43013323381E+01  0.50400000000E-02 0.  1.
          2   -1    0    0  501    0  0.00000000000E+00 -0.00000000000E+00 -0.41895309175E+03  0.41895309176E+03  0.25500000000E-02 0. -1.
         24    2    1    2    0    0  0.00000000000E+00  0.00000000000E+00 -0.41465176236E+03  0.42325442409E+03  0.84901257261E+02 0.  0.
         66    2    3    3    0    0  0.23138803629E+02 -0.28302934305E+01 -0.38416322969E+03  0.38487504704E+03  0.19999991409E+01 0.  0.
        -13    1    3    3    0    0 -0.23138803629E+02  0.28302934305E+01 -0.30488532677E+02  0.38379377055E+02  0.10566000000E+00 0.  1.
         13    1    4    4    0    0  0.11600831509E+02 -0.13949790786E+01 -0.18728098261E+03  0.18764515147E+03  0.10566000000E+00 0. -1.
        -13    1    4    4    0    0  0.90571288845E+01 -0.81153036162E+00 -0.16094585581E+03  0.16120257390E+03  0.10566000000E+00 0.  1.
         14    1    4    4    0    0  0.24808432358E+01 -0.62378399030E+00 -0.35936391269E+02  0.36027321675E+02  0.00000000000E+00 0. -1.
<mgrwt>
<rscale>  0 0.84901257E+02</rscale>
<asrwt>0</asrwt>
<pdfrwt beam="1">  1        2 0.64454290E-01 0.84901257E+02</pdfrwt>
<pdfrwt beam="2">  1       -1 0.66174354E-03 0.84901257E+02</pdfrwt>
<totfact> 0.24571650E+05</totfact>
</mgrwt>
</event>
<event>
 8    1  0.1520917E-013  0.8639064E+02  0.7818608E-02  0.1311835E+00
          2   -1    0    0  501    0  0.00000000000E+00  0.00000000000E+00  0.84198173424E+02  0.84198173462E+02  0.25500000000E-02 0. -1.
         -1   -1    0    0    0  501 -0.00000000000E+00 -0.00000000000E+00 -0.22160047226E+02  0.22160047799E+02  0.50400000000E-02 0.  1.
         24    2    1    2    0    0  0.00000000000E+00  0.00000000000E+00  0.62038126198E+02  0.10635822126E+03  0.86390636805E+02 0.  0.
         66    2    3    3    0    0 -0.32995272032E+02  0.14202351328E+02  0.60516950433E+02  0.70403807075E+02  0.20000003207E+01 0.  0.
        -13    1    3    3    0    0  0.32995272032E+02 -0.14202351328E+02  0.15211757656E+01  0.35954414186E+02  0.10566000000E+00 0.  1.
         13    1    4    4    0    0 -0.27023032261E+02  0.11237519035E+02  0.50179796897E+02  0.58090870946E+02  0.10566000000E+00 0. -1.
        -13    1    4    4    0    0 -0.55862375165E+01  0.29098041899E+01  0.97579969636E+01  0.11614761246E+02  0.10566000000E+00 0.  1.
         14    1    4    4    0    0 -0.38600225451E+00  0.55028103525E-01  0.57915657211E+00  0.69817488331E+00  0.00000000000E+00 0. -1.
<mgrwt>
<rscale>  0 0.86390637E+02</rscale>
<asrwt>0</asrwt>
<pdfrwt beam="1">  1        2 0.12953565E-01 0.86390637E+02</pdfrwt>
<pdfrwt beam="2">  1       -1 0.34092381E-02 0.86390637E+02</pdfrwt>
<totfact> 0.13743215E+05</totfact>
</mgrwt>
</event>
<event>
 8    1  0.1520917E-013  0.7992444E+02  0.7818608E-02  0.1329266E+00
          2   -1    0    0  501    0  0.00000000000E+00  0.00000000000E+00  0.14480523436E+03  0.14480523438E+03  0.25500000000E-02 0. -1.
         -1   -1    0    0    0  501 -0.00000000000E+00 -0.00000000000E+00 -0.11028461829E+02  0.11028462981E+02  0.50400000000E-02 0.  1.
         24    2    1    2    0    0  0.00000000000E+00  0.00000000000E+00  0.13377677253E+03  0.15583369736E+03  0.79924441600E+02 0.  0.
         66    2    3    3    0    0 -0.35024706955E+02 -0.11522702173E+02  0.96849411609E+02  0.10364994595E+03  0.20000010555E+01 0.  0.
        -13    1    3    3    0    0  0.35024706955E+02  0.11522702173E+02  0.36927360921E+02  0.52183751410E+02  0.10566000000E+00 0.  1.
         13    1    4    4    0    0 -0.44567578691E+01 -0.16130181129E+01  0.12190835577E+02  0.13080219961E+02  0.10566000000E+00 0. -1.
        -13    1    4    4    0    0 -0.19145833561E+02 -0.63244964622E+01  0.55494128610E+02  0.59043811466E+02  0.10566000000E+00 0.  1.
        -14    1    4    4    0    0 -0.11422115525E+02 -0.35851875977E+01  0.29164447422E+02  0.31525914525E+02  0.00000000000E+00 0.  1.
<mgrwt>
<rscale>  0 0.79924442E+02</rscale>
<asrwt>0</asrwt>
<pdfrwt beam="1">  1        2 0.22277727E-01 0.79924442E+02</pdfrwt>
<pdfrwt beam="2">  1       -1 0.16966866E-02 0.79924442E+02</pdfrwt>
<totfact> 0.19854755E+05</totfact>
</mgrwt>
</event>
<event>
 8    1  0.1520917E-013  0.8113504E+02  0.7818608E-02  0.1325861E+00
          2   -1    0    0  501    0  0.00000000000E+00  0.00000000000E+00  0.18793851673E+02  0.18793851846E+02  0.25500000000E-02 0. -1.
         -1   -1    0    0    0  501 -0.00000000000E+00 -0.00000000000E+00 -0.87567128200E+02  0.87567128345E+02  0.50400000000E-02 0.  1.
         24    2    1    2    0    0  0.35527136788E-14 -0.35527136788E-14 -0.68773276527E+02  0.10636098019E+03  0.81135038935E+02 0.  0.
         66    2    3    3    0    0  0.29137115527E+02 -0.25805426360E+02 -0.19528344697E+02  0.43591831671E+02  0.20000027571E+01 0.  0.
        -13    1    3    3    0    0 -0.29137115527E+02  0.25805426360E+02 -0.49244931831E+02  0.62769148520E+02  0.10566000000E+00 0.  1.
         13    1    4    4    0    0  0.11960503748E+02 -0.10192564338E+02 -0.72191156040E+01  0.17293606097E+02  0.10566000000E+00 0. -1.
        -13    1    4    4    0    0  0.90022687133E+01 -0.88489352907E+01 -0.63884436498E+01  0.14148069623E+02  0.10566000000E+00 0.  1.
        -14    1    4    4    0    0  0.81743430652E+01 -0.67639267315E+01 -0.59207854427E+01  0.12150155951E+02  0.00000000000E+00 0.  1.
<mgrwt>
<rscale>  0 0.81135039E+02</rscale>
<asrwt>0</asrwt>
<pdfrwt beam="1">  1        2 0.28913619E-02 0.81135039E+02</pdfrwt>
<pdfrwt beam="2">  1       -1 0.13471866E-01 0.81135039E+02</pdfrwt>
<totfact> 0.11770400E+05</totfact>
</mgrwt>
</event>
<event>
 8    1  0.1520917E-013  0.7923440E+02  0.7818608E-02  0.1331238E+00
         -1   -1    0    0    0  501 -0.00000000000E+00  0.00000000000E+00  0.21968214669E+02  0.21968215247E+02  0.50400000000E-02 0.  1.
          2   -1    0    0  501    0  0.00000000000E+00 -0.00000000000E+00 -0.71445157716E+02  0.71445157762E+02  0.25500000000E-02 0. -1.
         24    2    1    2    0    0 -0.44408920985E-15  0.35527136788E-14 -0.49476943047E+02  0.93413373009E+02  0.79234401390E+02 0.  0.
         66    2    3    3    0    0 -0.38452392795E+01  0.21301818519E+02 -0.63837114957E+02  0.67436863647E+02  0.19999988036E+01 0.  0.
        -13    1    3    3    0    0  0.38452392795E+01 -0.21301818519E+02  0.14360171909E+02  0.25976509362E+02  0.10566000000E+00 0.  1.
         13    1    4    4    0    0 -0.16200026213E+01  0.64279726743E+01 -0.21769695854E+02  0.22756846504E+02  0.10566000000E+00 0. -1.
        -13    1    4    4    0    0 -0.28223868755E+00  0.32995943697E+01 -0.87966330310E+01  0.93999414040E+01  0.10566000000E+00 0.  1.
         14    1    4    4    0    0 -0.19429979706E+01  0.11574251475E+02 -0.33270786072E+02  0.35280075739E+02  0.00000000000E+00 0. -1.
<mgrwt>
<rscale>  0 0.79234401E+02</rscale>
<asrwt>0</asrwt>
<pdfrwt beam="1">  1        2 0.10991563E-01 0.79234401E+02</pdfrwt>
<pdfrwt beam="2">  1       -1 0.33797254E-02 0.79234401E+02</pdfrwt>
<totfact> 0.16654990E+05</totfact>
</mgrwt>
</event>
<event>
 8    1  0.1520917E-013  0.7488086E+02  0.7818608E-02  0.1344240E+00
          2   -1    0    0  501    0  0.00000000000E+00  0.00000000000E+00  0.21641496680E+03  0.21641496681E+03  0.25500000000E-02 0. -1.
         -1   -1    0    0    0  501 -0.00000000000E+00 -0.00000000000E+00 -0.64773034910E+01  0.64773054518E+01  0.50400000000E-02 0.  1.
         24    2    1    2    0    0  0.00000000000E+00  0.00000000000E+00  0.20993766331E+03  0.22289227226E+03  0.74880855768E+02 0.  0.
         66    2    3    3    0    0 -0.65941610617E+01 -0.82078608120E+01  0.21190929012E+03  0.21218011022E+03  0.19999995609E+01 0.  0.
        -13    1    3    3    0    0  0.65941610617E+01  0.82078608120E+01 -0.19716268110E+01  0.10712162038E+02  0.10566000000E+00 0.  1.
         13    1    4    4    0    0 -0.11130640272E+00  0.33597067863E-01  0.16519957030E+01  0.16594492208E+01  0.10566000000E+00 0. -1.
        -13    1    4    4    0    0 -0.16145170528E+01 -0.17471598656E+01  0.41426888729E+02  0.41495270896E+02  0.10566000000E+00 0.  1.
         14    1    4    4    0    0 -0.48683376061E+01 -0.64942980143E+01  0.16883040568E+03  0.16902539011E+03  0.00000000000E+00 0. -1.
<mgrwt>
<rscale>  0 0.74880856E+02</rscale>
<asrwt>0</asrwt>
<pdfrwt beam="1">  1        2 0.33294608E-01 0.74880856E+02</pdfrwt>
<pdfrwt beam="2">  1       -1 0.99650845E-03 0.74880856E+02</pdfrwt>
<totfact> 0.26975281E+05</totfact>
</mgrwt>
</event>
<event>
 8    1  0.1520917E-013  0.7569204E+02  0.7818608E-02  0.1341741E+00
          2   -1    0    0  501    0  0.00000000000E+00  0.00000000000E+00  0.68401882877E+02  0.68401882925E+02  0.25500000000E-02 0. -1.
         -1   -1    0    0    0  501 -0.00000000000E+00 -0.00000000000E+00 -0.20939790984E+02  0.20939791591E+02  0.50400000000E-02 0.  1.
         24    2    1    2    0    0 -0.35527136788E-14 -0.35527136788E-14  0.47462091893E+02  0.89341674516E+02  0.75692038144E+02 0.  0.
         66    2    3    3    0    0  0.26571889373E+02  0.14427684704E+02  0.50561951760E+02  0.58946877494E+02  0.20000024388E+01 0.  0.
        -13    1    3    3    0    0 -0.26571889373E+02 -0.14427684704E+02 -0.30998598665E+01  0.30394797022E+02  0.10566000000E+00 0.  1.
         13    1    4    4    0    0  0.19995696991E+01  0.11992651387E+01  0.44410209822E+01  0.50170058057E+01  0.10566000000E+00 0.  1.
        -13    1    4    4    0    0  0.18116512433E+02  0.10479519239E+02  0.34072509847E+02  0.39987190918E+02  0.10566000000E+00 0. -1.
         14    1    4    4    0    0  0.64558072413E+01  0.27489003266E+01  0.12048420931E+02  0.13942680771E+02  0.00000000000E+00 0. -1.
<mgrwt>
<rscale>  0 0.75692038E+02</rscale>
<asrwt>0</asrwt>
<pdfrwt beam="1">  1        2 0.10523367E-01 0.75692038E+02</pdfrwt>
<pdfrwt beam="2">  1       -1 0.32215063E-02 0.75692038E+02</pdfrwt>
<totfact> 0.18643480E+05</totfact>
</mgrwt>
</event>
<event>
 8    1  0.2046693E-013  0.8020085E+02  0.7818608E-02  0.1328482E+00
         -1   -1    0    0    0  501 -0.00000000000E+00  0.00000000000E+00  0.18873819620E+01  0.18873886913E+01  0.50400000000E-02 0.  1.
          2   -1    0    0  501    0  0.00000000000E+00 -0.00000000000E+00 -0.85199571477E+03  0.85199571478E+03  0.25500000000E-02 0. -1.
         24    2    1    2    0    0  0.00000000000E+00  0.00000000000E+00 -0.85010833281E+03  0.85388310347E+03  0.80200853323E+02 0.  0.
         66    2    3    3    0    0  0.30965564805E+02  0.12822763115E+01 -0.69582397396E+03  0.69651669985E+03  0.20000005842E+01 0.  0.
        -13    1    3    3    0    0 -0.30965564805E+02 -0.12822763115E+01 -0.15428435885E+03  0.15736640362E+03  0.10566000000E+00 0.  1.
         13    1    4    4    0    0  0.16889064371E+02  0.82569372626E+00 -0.38801386118E+03  0.38838214415E+03  0.10566000000E+00 0. -1.
        -13    1    4    4    0    0  0.45464720161E+01 -0.42400984123E-01 -0.11124596224E+03  0.11133888577E+03  0.10566000000E+00 0.  1.
        -14    1    4    4    0    0  0.95300284175E+01  0.49898356940E+00 -0.19656415053E+03  0.19679566993E+03  0.00000000000E+00 0.  1.
<mgrwt>
<rscale>  0 0.80200853E+02</rscale>
<asrwt>0</asrwt>
<pdfrwt beam="1">  1        2 0.13107596E+00 0.80200853E+02</pdfrwt>
<pdfrwt beam="2">  1       -1 0.29036765E-03 0.80200853E+02</pdfrwt>
<totfact> 0.34481476E+05</totfact>
</mgrwt>
</event>
<event>
 8    1  0.1520917E-013  0.8025387E+02  0.7818608E-02  0.1328333E+00
          2   -1    0    0  501    0  0.00000000000E+00  0.00000000000E+00  0.17917397705E+04  0.17917397705E+04  0.25500000000E-02 0. -1.
         -1   -1    0    0    0  501 -0.00000000000E+00 -0.00000000000E+00 -0.89865633072E+00  0.89867046371E+00  0.50400000000E-02 0.  1.
         24    2    1    2    0    0  0.00000000000E+00  0.00000000000E+00  0.17908411142E+04  0.17926384410E+04  0.80253871112E+02 0.  0.
         66    2    3    3    0    0  0.14140359301E+02  0.70403237808E+01  0.17193175877E+04  0.17193913119E+04  0.19999989595E+01 0.  0.
        -13    1    3    3    0    0 -0.14140359301E+02 -0.70403237808E+01  0.71523526510E+02  0.73247129149E+02  0.10566000000E+00 0.  1.
         13    1    4    4    0    0  0.66045391177E+01  0.24448669586E+01  0.76239440192E+03  0.76242693588E+03  0.10566000000E+00 0. -1.
        -13    1    4    4    0    0  0.55246353982E+00  0.63036050726E+00  0.99246655580E+02  0.99250251276E+02  0.10566000000E+00 0.  1.
         14    1    4    4    0    0  0.69833566433E+01  0.39650963150E+01  0.85767653021E+03  0.85771412471E+03  0.00000000000E+00 0. -1.
<mgrwt>
<rscale>  0 0.80253871E+02</rscale>
<asrwt>0</asrwt>
<pdfrwt beam="1">  1        2 0.27565256E+00 0.80253871E+02</pdfrwt>
<pdfrwt beam="2">  1       -1 0.13825577E-03 0.80253871E+02</pdfrwt>
<totfact> 0.30065105E+05</totfact>
</mgrwt>
</event>
<event>
 8    1  0.1520917E-013  0.7870102E+02  0.7818608E-02  0.1332779E+00
         -1   -1    0    0    0  501 -0.00000000000E+00  0.00000000000E+00  0.11761032154E+02  0.11761033234E+02  0.50400000000E-02 0.  1.
          2   -1    0    0  501    0  0.00000000000E+00 -0.00000000000E+00 -0.13166043462E+03  0.13166043465E+03  0.25500000000E-02 0. -1.
         24    2    1    2    0    0  0.00000000000E+00 -0.35527136788E-14 -0.11989940247E+03  0.14342146788E+03  0.78701021195E+02 0.  0.
         66    2    3    3    0    0  0.19074070343E+02 -0.27743160254E+02 -0.97020974314E+02  0.10271598006E+03  0.20000003938E+01 0.  0.
        -13    1    3    3    0    0 -0.19074070343E+02  0.27743160254E+02 -0.22878428154E+02  0.40705487826E+02  0.10566000000E+00 0.  1.
         13    1    4    4    0    0  0.11759995563E+02 -0.17375607774E+02 -0.61818795746E+02  0.65282339975E+02  0.10566000000E+00 0. -1.
        -13    1    4    4    0    0  0.13653476538E+01 -0.14115206473E+01 -0.48578037853E+01  0.52408001684E+01  0.10566000000E+00 0.  1.
        -14    1    4    4    0    0  0.59487271267E+01 -0.89560318331E+01 -0.30344374783E+02  0.32192839912E+02  0.00000000000E+00 0.  1.
<mgrwt>
<rscale>  0 0.78701021E+02</rscale>
<asrwt>0</asrwt>
<pdfrwt beam="1">  1        2 0.20255450E-01 0.78701021E+02</pdfrwt>
<pdfrwt beam="2">  1       -1 0.18093897E-02 0.78701021E+02</pdfrwt>
<totfact> 0.20076702E+05</totfact>
</mgrwt>
</event>
<event>
 8    1  0.1520917E-013  0.8244709E+02  0.7818608E-02  0.1322247E+00
          2   -1    0    0  501    0  0.00000000000E+00  0.00000000000E+00  0.40105040140E+03  0.40105040141E+03  0.25500000000E-02 0. -1.
         -1   -1    0    0    0  501 -0.00000000000E+00 -0.00000000000E+00 -0.42373224680E+01  0.42373254653E+01  0.50400000000E-02 0.  1.
         24    2    1    2    0    0  0.35527136788E-14  0.00000000000E+00  0.39681307893E+03  0.40528772687E+03  0.82447085714E+02 0.  0.
         66    2    3    3    0    0 -0.25134012281E+02 -0.14929570395E+02  0.34122867508E+03  0.34248448045E+03  0.20000018760E+01 0.  0.
        -13    1    3    3    0    0  0.25134012281E+02  0.14929570395E+02  0.55584403850E+02  0.62803246420E+02  0.10566000000E+00 0.  1.
         13    1    4    4    0    0 -0.13139418407E+01 -0.73413468818E+00  0.13667554878E+02  0.13750586070E+02  0.10566000000E+00 0.  1.
        -13    1    4    4    0    0 -0.68509561397E+01 -0.38559929179E+01  0.88940269677E+02  0.89287104420E+02  0.10566000000E+00 0. -1.
         14    1    4    4    0    0 -0.16969114301E+02 -0.10339442789E+02  0.23862085052E+03  0.23944678996E+03  0.00000000000E+00 0. -1.
<mgrwt>
<rscale>  0 0.82447086E+02</rscale>
<asrwt>0</asrwt>
<pdfrwt beam="1">  1        2 0.61700076E-01 0.82447086E+02</pdfrwt>
<pdfrwt beam="2">  1       -1 0.65189585E-03 0.82447086E+02</pdfrwt>
<totfact> 0.26136110E+05</totfact>
</mgrwt>
</event>
<event>
 8    1  0.1520917E-013  0.7811177E+02  0.7818608E-02  0.1334497E+00
          2   -1    0    0  501    0  0.00000000000E+00  0.00000000000E+00  0.23399954651E+03  0.23399954652E+03  0.25500000000E-02 0. -1.
         -1   -1    0    0    0  501 -0.00000000000E+00 -0.00000000000E+00 -0.65186528429E+01  0.65186547913E+01  0.50400000000E-02 0.  1.
         24    2    1    2    0    0  0.00000000000E+00  0.00000000000E+00  0.22748089367E+03  0.24051820131E+03  0.78111767233E+02 0.  0.
         66    2    3    3    0    0 -0.33749228639E+02  0.19261275045E+02  0.10256431293E+03  0.10969706213E+03  0.20000008802E+01 0.  0.
        -13    1    3    3    0    0  0.33749228639E+02 -0.19261275045E+02  0.12491658074E+03  0.13082113919E+03  0.10566000000E+00 0.  1.
         13    1    4    4    0    0 -0.11462038264E+02  0.70262147750E+01  0.35526619189E+02  0.37985495262E+02  0.10566000000E+00 0. -1.
        -13    1    4    4    0    0 -0.44968133647E+01  0.30858100236E+01  0.14991038515E+02  0.15952615890E+02  0.10566000000E+00 0.  1.
        -14    1    4    4    0    0 -0.17790377010E+02  0.91492502465E+01  0.52046655221E+02  0.55758950976E+02  0.00000000000E+00 0.  1.
<mgrwt>
<rscale>  0 0.78111767E+02</rscale>
<asrwt>0</asrwt>
<pdfrwt beam="1">  1        2 0.35999934E-01 0.78111767E+02</pdfrwt>
<pdfrwt beam="2">  1       -1 0.10028697E-02 0.78111767E+02</pdfrwt>
<totfact> 0.24821843E+05</totfact>
</mgrwt>
</event>
<event>
 8    1  0.1520917E-013  0.7925305E+02  0.7818608E-02  0.1331185E+00
         -1   -1    0    0    0  501 -0.00000000000E+00  0.00000000000E+00  0.51091993282E+02  0.51091993531E+02  0.50400000000E-02 0.  1.
          2   -1    0    0  501    0  0.00000000000E+00 -0.00000000000E+00 -0.30734002880E+02  0.30734002986E+02  0.25500000000E-02 0. -1.
         24    2    1    2    0    0 -0.22204460493E-15  0.00000000000E+00  0.20357990402E+02  0.81825996517E+02  0.79253049990E+02 0.  0.
         66    2    3    3    0    0  0.12614187241E+01 -0.37276503929E+02 -0.35555452949E+01  0.37520271425E+02  0.19999857691E+01 0.  0.
        -13    1    3    3    0    0 -0.12614187241E+01  0.37276503929E+02  0.23913535697E+02  0.44305725092E+02  0.10566000000E+00 0.  1.
         13    1    4    4    0    0 -0.59055114260E-01 -0.11632015640E+02 -0.72470742275E+00  0.11655197993E+02  0.10566000000E+00 0. -1.
        -13    1    4    4    0    0  0.20523210799E+00 -0.37463377157E+01 -0.85581299756E+00  0.38497722557E+01  0.10566000000E+00 0.  1.
         14    1    4    4    0    0  0.11152417304E+01 -0.21898150573E+02 -0.19750248746E+01  0.22015301176E+02  0.00000000000E+00 0. -1.
<mgrwt>
<rscale>  0 0.79253050E+02</rscale>
<asrwt>0</asrwt>
<pdfrwt beam="1">  1        2 0.47283082E-02 0.79253050E+02</pdfrwt>
<pdfrwt beam="2">  1       -1 0.78603066E-02 0.79253050E+02</pdfrwt>
<totfact> 0.13879071E+05</totfact>
</mgrwt>
</event>
<event>
 8    1  0.1520917E-013  0.8116700E+02  0.7818608E-02  0.1325772E+00
         -1   -1    0    0    0  501 -0.00000000000E+00  0.00000000000E+00  0.21727642527E+01  0.21727700981E+01  0.50400000000E-02 0.  1.
          2   -1    0    0  501    0  0.00000000000E+00 -0.00000000000E+00 -0.75802905930E+03  0.75802905930E+03  0.25500000000E-02 0. -1.
         24    2    1    2    0    0  0.00000000000E+00  0.00000000000E+00 -0.75585629504E+03  0.76020182940E+03  0.81167004775E+02 0.  0.
         66    2    3    3    0    0  0.36009613492E+02 -0.52612474452E+01 -0.54586740176E+03  0.54708280290E+03  0.19999845018E+01 0.  0.
        -13    1    3    3    0    0 -0.36009613492E+02  0.52612474452E+01 -0.20998889329E+03  0.21311902650E+03  0.10566000000E+00 0.  1.
         13    1    4    4    0    0  0.49293346071E+01 -0.56048376861E+00 -0.67266508034E+02  0.67449290203E+02  0.10566000000E+00 0. -1.
        -13    1    4    4    0    0  0.95659463500E+01 -0.10679849772E+01 -0.15251157523E+03  0.15281505052E+03  0.10566000000E+00 0.  1.
         14    1    4    4    0    0  0.21514332535E+02 -0.36327786995E+01 -0.32608931849E+03  0.32681846218E+03  0.00000000000E+00 0. -1.
<mgrwt>
<rscale>  0 0.81167005E+02</rscale>
<asrwt>0</asrwt>
<pdfrwt beam="1">  1        2 0.11661964E+00 0.81167005E+02</pdfrwt>
<pdfrwt beam="2">  1       -1 0.33427248E-03 0.81167005E+02</pdfrwt>
<totfact> 0.32767405E+05</totfact>
</mgrwt>
</event>
<event>
 8    1  0.1520917E-013  0.7662421E+02  0.7818608E-02  0.1338914E+00
          2   -1    0    0  501    0  0.00000000000E+00  0.00000000000E+00  0.78450227048E+01  0.78450231193E+01  0.25500000000E-02 0. -1.
         -1   -1    0    0    0  501 -0.00000000000E+00 -0.00000000000E+00 -0.18710175157E+03  0.18710175163E+03  0.50400000000E-02 0.  1.
         24    2    1    2    0    0  0.00000000000E+00  0.35527136788E-14 -0.17925672886E+03  0.19494677475E+03  0.76624213827E+02 0.  0.
         66    2    3    3    0    0 -0.26684613324E+02  0.15369194382E+02 -0.31810580491E+02  0.44319225621E+02  0.20000010757E+01 0.  0.
        -13    1    3    3    0    0  0.26684613324E+02 -0.15369194382E+02 -0.14744614837E+03  0.15062754913E+03  0.10566000000E+00 0.  1.
         13    1    4    4    0    0 -0.59510165684E+01  0.32208154033E+01 -0.59803661927E+01  0.90312897138E+01  0.10566000000E+00 0. -1.
        -13    1    4    4    0    0 -0.13957293130E+02  0.82436809845E+01 -0.17926055969E+02  0.24168553004E+02  0.10566000000E+00 0.  1.
         14    1    4    4    0    0 -0.67763036257E+01  0.39046979946E+01 -0.79041583293E+01  0.11119382903E+02  0.00000000000E+00 0. -1.
<mgrwt>
<rscale>  0 0.76624214E+02</rscale>
<asrwt>0</asrwt>
<pdfrwt beam="1">  1        2 0.12069267E-02 0.76624214E+02</pdfrwt>
<pdfrwt beam="2">  1       -1 0.28784882E-01 0.76624214E+02</pdfrwt>
<totfact> 0.11334587E+05</totfact>
</mgrwt>
</event>
<event>
 8    1  0.1520917E-013  0.8206120E+02  0.7818608E-02  0.1323302E+00
          2   -1    0    0  501    0  0.00000000000E+00  0.00000000000E+00  0.62226407890E+02  0.62226407942E+02  0.25500000000E-02 0. -1.
         -1   -1    0    0    0  501 -0.00000000000E+00 -0.00000000000E+00 -0.27054591372E+02  0.27054591841E+02  0.50400000000E-02 0.  1.
         24    2    1    2    0    0  0.00000000000E+00 -0.44408920985E-15  0.35171816518E+02  0.89280999783E+02  0.82061198170E+02 0.  0.
         66    2    3    3    0    0 -0.24827418575E+02  0.23696082288E+01  0.53009876471E+02  0.58617938893E+02  0.20000000958E+01 0.  0.
        -13    1    3    3    0    0  0.24827418575E+02 -0.23696082288E+01 -0.17838059952E+02  0.30663060890E+02  0.10566000000E+00 0.  1.
         13    1    4    4    0    0 -0.17085343172E+02  0.18405081634E+01  0.35207172883E+02  0.39177195000E+02  0.10566000000E+00 0. -1.
        -13    1    4    4    0    0 -0.31145030564E+01 -0.18148254679E+00  0.67141840316E+01  0.74043565857E+01  0.10566000000E+00 0.  1.
         14    1    4    4    0    0 -0.46275723466E+01  0.71058261224E+00  0.11088519556E+02  0.12036387307E+02  0.00000000000E+00 0. -1.
<mgrwt>
<rscale>  0 0.82061198E+02</rscale>
<asrwt>0</asrwt>
<pdfrwt beam="1">  1        2 0.95732935E-02 0.82061198E+02</pdfrwt>
<pdfrwt beam="2">  1       -1 0.41622449E-02 0.82061198E+02</pdfrwt>
<totfact> 0.14648348E+05</totfact>
</mgrwt>
</event>
<event>
 8    1  0.1520917E-013  0.8007944E+02  0.7818608E-02  0.1328826E+00
          2   -1    0    0  501    0  0.00000000000E+00  0.00000000000E+00  0.67335342607E+02  0.67335342656E+02  0.25500000000E-02 0. -1.
         -1   -1    0    0    0  501 -0.00000000000E+00 -0.00000000000E+00 -0.23808883671E+02  0.23808884204E+02  0.50400000000E-02 0.  1.
         24    2    1    2    0    0  0.00000000000E+00  0.00000000000E+00  0.43526458936E+02  0.91144226860E+02  0.80079444693E+02 0.  0.
         66    2    3    3    0    0 -0.29916232922E+02  0.11155457594E+02  0.49228893757E+02  0.58710384145E+02  0.19999998800E+01 0.  0.
        -13    1    3    3    0    0  0.29916232922E+02 -0.11155457594E+02 -0.57024348210E+01  0.32433842715E+02  0.10566000000E+00 0.  1.
         13    1    4    4    0    0 -0.12870308417E+02  0.52660139785E+01  0.20494549220E+02  0.24767185018E+02  0.10566000000E+00 0. -1.
        -13    1    4    4    0    0 -0.23554107655E+01  0.11208272837E+01  0.37164443355E+01  0.45417327320E+01  0.10566000000E+00 0.  1.
         14    1    4    4    0    0 -0.14690513739E+02  0.47686163318E+01  0.25017900202E+02  0.29401466394E+02  0.00000000000E+00 0. -1.
<mgrwt>
<rscale>  0 0.80079445E+02</rscale>
<asrwt>0</asrwt>
<pdfrwt beam="1">  1        2 0.10359283E-01 0.80079445E+02</pdfrwt>
<pdfrwt beam="2">  1       -1 0.36629052E-02 0.80079445E+02</pdfrwt>
<totfact> 0.15952309E+05</totfact>
</mgrwt>
</event>
<event>
 8    1  0.1520917E-013  0.7244219E+02  0.7818608E-02  0.1351980E+00
          2   -1    0    0  501    0  0.00000000000E+00  0.00000000000E+00  0.91258594973E+03  0.91258594973E+03  0.25500000000E-02 0. -1.
         -1   -1    0    0    0  501 -0.00000000000E+00 -0.00000000000E+00 -0.14376330332E+01  0.14376418677E+01  0.50400000000E-02 0.  1.
         24    2    1    2    0    0  0.17763568394E-14  0.35527136788E-14  0.91114831669E+03  0.91402359160E+03  0.72442190637E+02 0.  0.
         66    2    3    3    0    0  0.14724172325E+02  0.21495080032E+02  0.77289389738E+03  0.77333551342E+03  0.20000002228E+01 0.  0.
        -13    1    3    3    0    0 -0.14724172325E+02 -0.21495080032E+02  0.13825441932E+03  0.14068807817E+03  0.10566000000E+00 0.  1.
         13    1    4    4    0    0  0.63724071449E+00  0.12481578285E+01  0.36873513666E+02  0.36900286554E+02  0.10566000000E+00 0. -1.
        -13    1    4    4    0    0  0.34140212885E+00  0.94150668092E+00  0.34226645612E+02  0.34241457681E+02  0.10566000000E+00 0.  1.
         14    1    4    4    0    0  0.13745529482E+02  0.19305415523E+02  0.70179373810E+03  0.70219376919E+03  0.00000000000E+00 0. -1.
<mgrwt>
<rscale>  0 0.72442191E+02</rscale>
<asrwt>0</asrwt>
<pdfrwt beam="1">  1        2 0.14039824E+00 0.72442191E+02</pdfrwt>
<pdfrwt beam="2">  1       -1 0.22117437E-03 0.72442191E+02</pdfrwt>
<totfact> 0.45225433E+05</totfact>
</mgrwt>
</event>
<event>
 8    1  0.1520917E-013  0.8191309E+02  0.7818608E-02  0.1323708E+00
          2   -1    0    0  501    0  0.00000000000E+00  0.00000000000E+00  0.15648283722E+02  0.15648283929E+02  0.25500000000E-02 0. -1.
         -1   -1    0    0    0  501 -0.00000000000E+00 -0.00000000000E+00 -0.10719631601E+03  0.10719631613E+03  0.50400000000E-02 0.  1.
         24    2    1    2    0    0  0.00000000000E+00  0.35527136788E-14 -0.91548032288E+02  0.12284460006E+03  0.81913085325E+02 0.  0.
         66    2    3    3    0    0  0.22389177795E+02 -0.24736032026E+02 -0.10239591121E+02  0.34957056391E+02  0.20000006232E+01 0.  0.
        -13    1    3    3    0    0 -0.22389177795E+02  0.24736032026E+02 -0.81308441167E+02  0.87887543667E+02  0.10566000000E+00 0.  1.
         13    1    4    4    0    0  0.88207919560E+01 -0.10041472831E+02 -0.49301493431E+01  0.14246230517E+02  0.10566000000E+00 0. -1.
        -13    1    4    4    0    0  0.32755646861E+01 -0.31047262471E+01 -0.10302129888E+01  0.46304591478E+01  0.10566000000E+00 0.  1.
         14    1    4    4    0    0  0.10292821153E+02 -0.11589832947E+02 -0.42792287893E+01  0.16080366727E+02  0.00000000000E+00 0. -1.
<mgrwt>
<rscale>  0 0.81913085E+02</rscale>
<asrwt>0</asrwt>
<pdfrwt beam="1">  1        2 0.24074283E-02 0.81913085E+02</pdfrwt>
<pdfrwt beam="2">  1       -1 0.16491741E-01 0.81913085E+02</pdfrwt>
<totfact> 0.11006124E+05</totfact>
</mgrwt>
</event>
<event>
 8    1  0.1520917E-013  0.8126490E+02  0.7818608E-02  0.1325500E+00
          2   -1    0    0  501    0  0.00000000000E+00  0.00000000000E+00  0.21833307186E+03  0.21833307187E+03  0.25500000000E-02 0. -1.
         -1   -1    0    0    0  501 -0.00000000000E+00 -0.00000000000E+00 -0.75618225390E+01  0.75618242186E+01  0.50400000000E-02 0.  1.
         24    2    1    2    0    0  0.00000000000E+00  0.00000000000E+00  0.21077124932E+03  0.22589489609E+03  0.81264903499E+02 0.  0.
         66    2    3    3    0    0 -0.18730987249E+02  0.17917832098E+02  0.19233956846E+03  0.19408866064E+03  0.20000005809E+01 0.  0.
        -13    1    3    3    0    0  0.18730987249E+02 -0.17917832098E+02  0.18431680859E+02  0.31806235453E+02  0.10566000000E+00 0.  1.
         13    1    4    4    0    0 -0.12950307563E+02  0.11796491699E+02  0.13242518167E+03  0.13357884409E+03  0.10566000000E+00 0. -1.
        -13    1    4    4    0    0 -0.16099684331E+00  0.19943804881E+00  0.12703368910E+01  0.13002366597E+01  0.10566000000E+00 0.  1.
         14    1    4    4    0    0 -0.56196828424E+01  0.59219023500E+01  0.58644049896E+02  0.59209579891E+02  0.00000000000E+00 0. -1.
<mgrwt>
<rscale>  0 0.81264903E+02</rscale>
<asrwt>0</asrwt>
<pdfrwt beam="1">  1        2 0.33589702E-01 0.81264903E+02</pdfrwt>
<pdfrwt beam="2">  1       -1 0.11633575E-02 0.81264903E+02</pdfrwt>
<totfact> 0.21824410E+05</totfact>
</mgrwt>
</event>
<event>
 8    1  0.1520917E-013  0.8513110E+02  0.7818608E-02  0.1315090E+00
         -1   -1    0    0    0  501 -0.00000000000E+00  0.00000000000E+00  0.11463806595E+01  0.11463917385E+01  0.50400000000E-02 0.  1.
          2   -1    0    0  501    0  0.00000000000E+00 -0.00000000000E+00 -0.15804674176E+04  0.15804674176E+04  0.25500000000E-02 0. -1.
         24    2    1    2    0    0 -0.17763568394E-14  0.00000000000E+00 -0.15793210370E+04  0.15816138094E+04  0.85131099923E+02 0.  0.
         66    2    3    3    0    0  0.15951135584E+02 -0.18737244127E+01 -0.15219754671E+04  0.15220615204E+04  0.19999927094E+01 0.  0.
        -13    1    3    3    0    0 -0.15951135584E+02  0.18737244127E+01 -0.57345569904E+02  0.59552288968E+02  0.10566000000E+00 0.  1.
         13    1    4    4    0    0  0.11679987517E+02 -0.11821244391E+01 -0.10584396271E+04  0.10585047354E+04  0.10566000000E+00 0. -1.
        -13    1    4    4    0    0  0.13519931184E+01 -0.32780829129E+00 -0.11326945164E+03  0.11327804369E+03  0.10566000000E+00 0.  1.
         14    1    4    4    0    0  0.29191549485E+01 -0.36379168223E+00 -0.35026638832E+03  0.35027874129E+03  0.00000000000E+00 0. -1.
<mgrwt>
<rscale>  0 0.85131100E+02</rscale>
<asrwt>0</asrwt>
<pdfrwt beam="1">  1        2 0.24314709E+00 0.85131100E+02</pdfrwt>
<pdfrwt beam="2">  1       -1 0.17636837E-03 0.85131100E+02</pdfrwt>
<totfact> 0.27666052E+05</totfact>
</mgrwt>
</event>
<event>
 8    1  0.1520917E-013  0.8054772E+02  0.7818608E-02  0.1327504E+00
         -1   -1    0    0    0  501 -0.00000000000E+00  0.00000000000E+00  0.51044139220E+02  0.51044139469E+02  0.50400000000E-02 0.  1.
          2   -1    0    0  501    0  0.00000000000E+00 -0.00000000000E+00 -0.31776099385E+02  0.31776099487E+02  0.25500000000E-02 0. -1.
         24    2    1    2    0    0  0.35527136788E-14 -0.35527136788E-14  0.19268039835E+02  0.82820238956E+02  0.80547716427E+02 0.  0.
         66    2    3    3    0    0 -0.31325134954E+02  0.18864952657E+02  0.26931917113E+02  0.45458538010E+02  0.19999999990E+01 0.  0.
        -13    1    3    3    0    0  0.31325134954E+02 -0.18864952657E+02 -0.76638772777E+01  0.37361700946E+02  0.10566000000E+00 0.  1.
         13    1    4    4    0    0 -0.10250338183E+02  0.67054803306E+01  0.86211061300E+01  0.14978902973E+02  0.10566000000E+00 0. -1.
        -13    1    4    4    0    0 -0.18563540084E+02  0.11178866851E+02  0.16215895967E+02  0.27065449018E+02  0.10566000000E+00 0.  1.
        -14    1    4    4    0    0 -0.25112566864E+01  0.98060547502E+00  0.20949150163E+01  0.34141860184E+01  0.00000000000E+00 0.  1.
<mgrwt>
<rscale>  0 0.80547716E+02</rscale>
<asrwt>0</asrwt>
<pdfrwt beam="1">  1        2 0.48886307E-02 0.80547716E+02</pdfrwt>
<pdfrwt beam="2">  1       -1 0.78529446E-02 0.80547716E+02</pdfrwt>
<totfact> 0.13352008E+05</totfact>
</mgrwt>
</event>
<event>
 8    1  0.1520917E-013  0.7636653E+02  0.7818608E-02  0.1339691E+00
         -1   -1    0    0    0  501 -0.00000000000E+00  0.00000000000E+00  0.24090153581E+01  0.24090206303E+01  0.50400000000E-02 0.  1.
          2   -1    0    0  501    0  0.00000000000E+00 -0.00000000000E+00 -0.60521003523E+03  0.60521003524E+03  0.25500000000E-02 0. -1.
         24    2    1    2    0    0  0.35527136788E-14 -0.17763568394E-14 -0.60280101987E+03  0.60761905587E+03  0.76366533852E+02 0.  0.
         66    2    3    3    0    0  0.30544288489E+02 -0.10857437474E+02 -0.46175404812E+03  0.46289484604E+03  0.20000048242E+01 0.  0.
        -13    1    3    3    0    0 -0.30544288489E+02  0.10857437474E+02 -0.14104697175E+03  0.14472420983E+03  0.10566000000E+00 0.  1.
         13    1    4    4    0    0  0.25426059814E+02 -0.84615028382E+01 -0.37574120884E+03  0.37669556506E+03  0.10566000000E+00 0. -1.
        -13    1    4    4    0    0  0.10314589894E+01 -0.63352916636E+00 -0.18998292300E+02  0.19037109581E+02  0.10566000000E+00 0.  1.
        -14    1    4    4    0    0  0.40867696857E+01 -0.17624054697E+01 -0.67014546980E+02  0.67162171395E+02  0.00000000000E+00 0.  1.
<mgrwt>
<rscale>  0 0.76366534E+02</rscale>
<asrwt>0</asrwt>
<pdfrwt beam="1">  1        2 0.93109115E-01 0.76366534E+02</pdfrwt>
<pdfrwt beam="2">  1       -1 0.37061864E-03 0.76366534E+02</pdfrwt>
<totfact> 0.36375470E+05</totfact>
</mgrwt>
</event>
<event>
 8    1  0.1520917E-013  0.8351004E+02  0.7818608E-02  0.1319376E+00
          2   -1    0    0  501    0  0.00000000000E+00  0.00000000000E+00  0.21725571788E+03  0.21725571789E+03  0.25500000000E-02 0. -1.
         -1   -1    0    0    0  501 -0.00000000000E+00 -0.00000000000E+00 -0.80250200549E+01  0.80250216376E+01  0.50400000000E-02 0.  1.
         24    2    1    2    0    0  0.00000000000E+00  0.17763568394E-14  0.20923069782E+03  0.22528073953E+03  0.83510039468E+02 0.  0.
         66    2    3    3    0    0 -0.25272053576E+02 -0.14193939266E+02  0.18566451085E+03  0.18792406762E+03  0.19999993279E+01 0.  0.
        -13    1    3    3    0    0  0.25272053576E+02  0.14193939266E+02  0.23566186973E+02  0.37356671912E+02  0.10566000000E+00 0.  1.
         13    1    4    4    0    0 -0.18209189615E+02 -0.10876733787E+02  0.13471940676E+03  0.13637891203E+03  0.10566000000E+00 0. -1.
        -13    1    4    4    0    0 -0.40997865915E+00 -0.80567868108E-01  0.22035512920E+01  0.22453008739E+01  0.10566000000E+00 0.  1.
         14    1    4    4    0    0 -0.66528853018E+01 -0.32366376108E+01  0.48741552797E+02  0.49299854715E+02  0.00000000000E+00 0. -1.
<mgrwt>
<rscale>  0 0.83510039E+02</rscale>
<asrwt>0</asrwt>
<pdfrwt beam="1">  1        2 0.33423959E-01 0.83510039E+02</pdfrwt>
<pdfrwt beam="2">  1       -1 0.12346185E-02 0.83510039E+02</pdfrwt>
<totfact> 0.20272348E+05</totfact>
</mgrwt>
</event>
<event>
 8    1  0.1520917E-013  0.8002424E+02  0.7818608E-02  0.1328983E+00
         -1   -1    0    0    0  501 -0.00000000000E+00  0.00000000000E+00  0.22088991705E+02  0.22088992280E+02  0.50400000000E-02 0.  1.
          2   -1    0    0  501    0  0.00000000000E+00 -0.00000000000E+00 -0.72478169342E+02  0.72478169387E+02  0.25500000000E-02 0. -1.
         24    2    1    2    0    0  0.00000000000E+00  0.00000000000E+00 -0.50389177638E+02  0.94567161667E+02  0.80024239095E+02 0.  0.
         66    2    3    3    0    0 -0.35334750056E+02 -0.11013931330E+02 -0.43097555441E+02  0.56844089640E+02  0.19999992908E+01 0.  0.
        -13    1    3    3    0    0  0.35334750056E+02  0.11013931330E+02 -0.72916221963E+01  0.37723072027E+02  0.10566000000E+00 0.  1.
         13    1    4    4    0    0 -0.20577227216E+02 -0.57893066455E+01 -0.24730115037E+02  0.32688348155E+02  0.10566000000E+00 0. -1.
        -13    1    4    4    0    0 -0.58369847492E+01 -0.25423017875E+01 -0.71259826938E+01  0.95563843963E+01  0.10566000000E+00 0.  1.
        -14    1    4    4    0    0 -0.89205380906E+01 -0.26823228968E+01 -0.11241457711E+02  0.14599357089E+02  0.00000000000E+00 0.  1.
<mgrwt>
<rscale>  0 0.80024239E+02</rscale>
<asrwt>0</asrwt>
<pdfrwt beam="1">  1        2 0.11150488E-01 0.80024239E+02</pdfrwt>
<pdfrwt beam="2">  1       -1 0.33983065E-02 0.80024239E+02</pdfrwt>
<totfact> 0.16271842E+05</totfact>
</mgrwt>
</event>
<event>
 8    1  0.1520917E-013  0.8056057E+02  0.7818608E-02  0.1327468E+00
          2   -1    0    0  501    0  0.00000000000E+00  0.00000000000E+00  0.42342358881E+03  0.42342358882E+03  0.25500000000E-02 0. -1.
         -1   -1    0    0    0  501 -0.00000000000E+00 -0.00000000000E+00 -0.38318621186E+01  0.38318654331E+01  0.50400000000E-02 0.  1.
         24    2    1    2    0    0  0.00000000000E+00 -0.17763568394E-14  0.41959172669E+03  0.42725545425E+03  0.80560573975E+02 0.  0.
         66    2    3    3    0    0  0.94734029092E+01  0.11672253184E+02  0.40797525594E+03  0.40825702238E+03  0.19999997083E+01 0.  0.
        -13    1    3    3    0    0 -0.94734029092E+01 -0.11672253184E+02  0.11616470748E+02  0.18998431876E+02  0.10566000000E+00 0.  1.
         13    1    4    4    0    0  0.88662283823E+01  0.11201111458E+02  0.38389710610E+03  0.38416282243E+03  0.10566000000E+00 0. -1.
        -13    1    4    4    0    0  0.66526278466E-01  0.27507355833E+00  0.91035582115E+01  0.91085688972E+01  0.10566000000E+00 0. -1.
         14    1    4    4    0    0  0.54064824845E+00  0.19606816841E+00  0.14974591636E+02  0.14985631049E+02  0.00000000000E+00 0. -1.
<mgrwt>
<rscale>  0 0.80560574E+02</rscale>
<asrwt>0</asrwt>
<pdfrwt beam="1">  1        2 0.65142061E-01 0.80560574E+02</pdfrwt>
<pdfrwt beam="2">  1       -1 0.58951777E-03 0.80560574E+02</pdfrwt>
<totfact> 0.28295728E+05</totfact>
</mgrwt>
</event>
<event>
 8    1  0.1520917E-013  0.8057136E+02  0.7818608E-02  0.1327438E+00
          2   -1    0    0  501    0  0.00000000000E+00  0.00000000000E+00  0.51141171121E+03  0.51141171121E+03  0.25500000000E-02 0. -1.
         -1   -1    0    0    0  501 -0.00000000000E+00 -0.00000000000E+00 -0.31734408574E+01  0.31734448596E+01  0.50400000000E-02 0.  1.
         24    2    1    2    0    0 -0.44408920985E-15  0.00000000000E+00  0.50823827035E+03  0.51458515607E+03  0.80571355969E+02 0.  0.
         66    2    3    3    0    0 -0.25343841919E+01 -0.24759436799E+02  0.45638969960E+03  0.45707221608E+03  0.19999993309E+01 0.  0.
        -13    1    3    3    0    0  0.25343841919E+01  0.24759436799E+02  0.51848570750E+02  0.57512939994E+02  0.10566000000E+00 0.  1.
         13    1    4    4    0    0 -0.17197518896E+01 -0.84128911014E+01  0.15682300784E+03  0.15705795502E+03  0.10566000000E+00 0. -1.
        -13    1    4    4    0    0 -0.78103960030E-01 -0.65812693308E+01  0.11648485502E+03  0.11667069820E+03  0.10566000000E+00 0.  1.
         14    1    4    4    0    0 -0.73652834220E+00 -0.97652763672E+01  0.18308183674E+03  0.18334356286E+03  0.00000000000E+00 0. -1.
<mgrwt>
<rscale>  0 0.80571356E+02</rscale>
<asrwt>0</asrwt>
<pdfrwt beam="1">  1        2 0.78678759E-01 0.80571356E+02</pdfrwt>
<pdfrwt beam="2">  1       -1 0.48822177E-03 0.80571356E+02</pdfrwt>
<totfact> 0.30105979E+05</totfact>
</mgrwt>
</event>
<event>
 8    1  0.1520917E-013  0.7843285E+02  0.7818608E-02  0.1333559E+00
         -1   -1    0    0    0  501 -0.00000000000E+00  0.00000000000E+00  0.32845650623E+02  0.32845651009E+02  0.50400000000E-02 0.  1.
          2   -1    0    0  501    0  0.00000000000E+00 -0.00000000000E+00 -0.46822885272E+02  0.46822885342E+02  0.25500000000E-02 0. -1.
         24    2    1    2    0    0  0.88817841970E-15  0.00000000000E+00 -0.13977234650E+02  0.79668536351E+02  0.78432854059E+02 0.  0.
         66    2    3    3    0    0  0.60956727329E+01 -0.34452099208E+02  0.10943446191E+02  0.36713258870E+02  0.19999991000E+01 0.  0.
        -13    1    3    3    0    0 -0.60956727329E+01  0.34452099208E+02 -0.24920680841E+02  0.42955277481E+02  0.10566000000E+00 0.  1.
         13    1    4    4    0    0  0.43778608124E+01 -0.21168222781E+02  0.67454320588E+01  0.22644454921E+02  0.10566000000E+00 0. -1.
        -13    1    4    4    0    0  0.70816541740E+00 -0.53137204719E+01  0.12045694310E+01  0.54953867072E+01  0.10566000000E+00 0.  1.
         14    1    4    4    0    0  0.10096465031E+01 -0.79701559554E+01  0.29934447012E+01  0.85734172413E+01  0.00000000000E+00 0. -1.
<mgrwt>
<rscale>  0 0.78432854E+02</rscale>
<asrwt>0</asrwt>
<pdfrwt beam="1">  1        2 0.72035208E-02 0.78432854E+02</pdfrwt>
<pdfrwt beam="2">  1       -1 0.50531771E-02 0.78432854E+02</pdfrwt>
<totfact> 0.15554383E+05</totfact>
</mgrwt>
</event>
<event>
 8    1  0.1520917E-013  0.7826833E+02  0.7818608E-02  0.1334039E+00
         -1   -1    0    0    0  501 -0.00000000000E+00  0.00000000000E+00  0.11254220922E+02  0.11254222051E+02  0.50400000000E-02 0.  1.
          2   -1    0    0  501    0  0.00000000000E+00 -0.00000000000E+00 -0.13608073053E+03  0.13608073056E+03  0.25500000000E-02 0. -1.
         24    2    1    2    0    0  0.35527136788E-14  0.00000000000E+00 -0.12482650961E+03  0.14733495261E+03  0.78268325383E+02 0.  0.
         66    2    3    3    0    0  0.15720537278E+02 -0.34555669383E+02 -0.80137575167E+02  0.88697578822E+02  0.19999890668E+01 0.  0.
        -13    1    3    3    0    0 -0.15720537278E+02  0.34555669383E+02 -0.44688934445E+02  0.58637373787E+02  0.10566000000E+00 0.  1.
         13    1    4    4    0    0  0.69218799377E+01 -0.15630671290E+02 -0.34247482203E+02  0.38277036303E+02  0.10566000000E+00 0.  1.
        -13    1    4    4    0    0  0.62517195643E+01 -0.14322981340E+02 -0.34478538964E+02  0.37855152953E+02  0.10566000000E+00 0. -1.
        -14    1    4    4    0    0  0.25469377762E+01 -0.46020167530E+01 -0.11411554000E+02  0.12565389565E+02  0.00000000000E+00 0.  1.
<mgrwt>
<rscale>  0 0.78268325E+02</rscale>
<asrwt>0</asrwt>
<pdfrwt beam="1">  1        2 0.20935496E-01 0.78268325E+02</pdfrwt>
<pdfrwt beam="2">  1       -1 0.17314188E-02 0.78268325E+02</pdfrwt>
<totfact> 0.20582232E+05</totfact>
</mgrwt>
</event>
<event>
 8    1  0.1520917E-013  0.7864191E+02  0.7818608E-02  0.1332950E+00
          2   -1    0    0  501    0  0.00000000000E+00  0.00000000000E+00  0.10871016286E+02  0.10871016585E+02  0.25500000000E-02 0. -1.
         -1   -1    0    0    0  501 -0.00000000000E+00 -0.00000000000E+00 -0.14222565535E+03  0.14222565544E+03  0.50400000000E-02 0.  1.
         24    2    1    2    0    0  0.35527136788E-14  0.00000000000E+00 -0.13135463906E+03  0.15309667202E+03  0.78641908557E+02 0.  0.
         66    2    3    3    0    0  0.11772741978E+02  0.20182201827E+02 -0.42128291902E+01  0.23825756091E+02  0.19999998195E+01 0.  0.
        -13    1    3    3    0    0 -0.11772741978E+02 -0.20182201827E+02 -0.12714180987E+03  0.12927091593E+03  0.10566000000E+00 0.  1.
         13    1    4    4    0    0  0.17669348118E+01  0.26635541353E+01 -0.70059927787E+00  0.32739246547E+01  0.10566000000E+00 0. -1.
        -13    1    4    4    0    0  0.33617382202E+01  0.51137249825E+01 -0.17749323039E+01  0.63728342028E+01  0.10566000000E+00 0.  1.
        -14    1    4    4    0    0  0.66440689464E+01  0.12404922709E+02 -0.17372976084E+01  0.14178997234E+02  0.00000000000E+00 0.  1.
<mgrwt>
<rscale>  0 0.78641909E+02</rscale>
<asrwt>0</asrwt>
<pdfrwt beam="1">  1        2 0.16724642E-02 0.78641909E+02</pdfrwt>
<pdfrwt beam="2">  1       -1 0.21880869E-01 0.78641909E+02</pdfrwt>
<totfact> 0.11415232E+05</totfact>
</mgrwt>
</event>
<event>
 8    1  0.1520917E-013  0.7936349E+02  0.7818608E-02  0.1330868E+00
          2   -1    0    0  501    0  0.00000000000E+00  0.00000000000E+00  0.16117291171E+03  0.16117291173E+03  0.25500000000E-02 0. -1.
         -1   -1    0    0    0  501 -0.00000000000E+00 -0.00000000000E+00 -0.97698852738E+01  0.97698865738E+01  0.50400000000E-02 0.  1.
         24    2    1    2    0    0  0.00000000000E+00 -0.71054273576E-14  0.15140302644E+03  0.17094279830E+03  0.79363492098E+02 0.  0.
         66    2    3    3    0    0 -0.20282889077E+02 -0.33840011905E+02  0.84390421754E+02  0.93178781270E+02  0.20000000060E+01 0.  0.
        -13    1    3    3    0    0  0.20282889077E+02  0.33840011905E+02  0.67012604682E+02  0.77764017034E+02  0.10566000000E+00 0.  1.
         13    1    4    4    0    0 -0.69865199333E+01 -0.11262792078E+02  0.29774526429E+02  0.32591341401E+02  0.10566000000E+00 0. -1.
        -13    1    4    4    0    0 -0.12557440131E+02 -0.20712303015E+02  0.50313034186E+02  0.55839962140E+02  0.10566000000E+00 0.  1.
        -14    1    4    4    0    0 -0.73892901238E+00 -0.18649168113E+01  0.43028611396E+01  0.47474777287E+01  0.00000000000E+00 0.  1.
<mgrwt>
<rscale>  0 0.79363492E+02</rscale>
<asrwt>0</asrwt>
<pdfrwt beam="1">  1        2 0.24795833E-01 0.79363492E+02</pdfrwt>
<pdfrwt beam="2">  1       -1 0.15030594E-02 0.79363492E+02</pdfrwt>
<totfact> 0.20942426E+05</totfact>
</mgrwt>
</event>
<event>
 8    1  0.1520917E-013  0.7972787E+02  0.7818608E-02  0.1329825E+00
         -1   -1    0    0    0  501 -0.00000000000E+00  0.00000000000E+00  0.27458439141E+01  0.27458485396E+01  0.50400000000E-02 0.  1.
          2   -1    0    0  501    0  0.00000000000E+00 -0.00000000000E+00 -0.57874089089E+03  0.57874089089E+03  0.25500000000E-02 0. -1.
         24    2    1    2    0    0  0.71054273576E-14  0.17763568394E-14 -0.57599504697E+03  0.58148673943E+03  0.79727874662E+02 0.  0.
         66    2    3    3    0    0  0.36230278335E+02  0.12976362112E+02 -0.36330710230E+03  0.36534513766E+03  0.19999977401E+01 0.  0.
        -13    1    3    3    0    0 -0.36230278335E+02 -0.12976362112E+02 -0.21268794468E+03  0.21614160177E+03  0.10566000000E+00 0.  1.
         13    1    4    4    0    0  0.20920411304E+01  0.72984452361E+00 -0.18664597141E+02  0.18795947956E+02  0.10566000000E+00 0.  1.
        -13    1    4    4    0    0  0.12508132152E+01  0.16937880320E+00 -0.11519541584E+02  0.11588969981E+02  0.10566000000E+00 0. -1.
         14    1    4    4    0    0  0.32887423989E+02  0.12077138785E+02 -0.33312296357E+03  0.33496021972E+03  0.00000000000E+00 0. -1.
<mgrwt>
<rscale>  0 0.79727875E+02</rscale>
<asrwt>0</asrwt>
<pdfrwt beam="1">  1        2 0.89036963E-01 0.79727875E+02</pdfrwt>
<pdfrwt beam="2">  1       -1 0.42243834E-03 0.79727875E+02</pdfrwt>
<totfact> 0.32120196E+05</totfact>
</mgrwt>
</event>
<event>
 8    1  0.1520917E-013  0.8118773E+02  0.7818608E-02  0.1325714E+00
          2   -1    0    0  501    0  0.00000000000E+00  0.00000000000E+00  0.12094904520E+04  0.12094904520E+04  0.25500000000E-02 0. -1.
         -1   -1    0    0    0  501 -0.00000000000E+00 -0.00000000000E+00 -0.13624383421E+01  0.13624476642E+01  0.50400000000E-02 0.  1.
         24    2    1    2    0    0  0.00000000000E+00 -0.27755575616E-16  0.12081280136E+04  0.12108528997E+04  0.81187728423E+02 0.  0.
         66    2    3    3    0    0 -0.19373876934E+02 -0.22325921639E+00  0.11360252755E+04  0.11361922476E+04  0.19999985640E+01 0.  0.
        -13    1    3    3    0    0  0.19373876934E+02  0.22325921639E+00  0.72102738154E+02  0.74660652056E+02  0.10566000000E+00 0.  1.
         13    1    4    4    0    0 -0.11882102247E+02 -0.26127760853E-01  0.74959763187E+03  0.74969180728E+03  0.10566000000E+00 0. -1.
        -13    1    4    4    0    0 -0.25230780229E+01  0.12011326716E-01  0.13508080970E+03  0.13510441288E+03  0.10566000000E+00 0.  1.
         14    1    4    4    0    0 -0.49686966646E+01 -0.20914278225E+00  0.25134683392E+03  0.25139602743E+03  0.00000000000E+00 0. -1.
<mgrwt>
<rscale>  0 0.81187728E+02</rscale>
<asrwt>0</asrwt>
<pdfrwt beam="1">  1        2 0.18607568E+00 0.81187728E+02</pdfrwt>
<pdfrwt beam="2">  1       -1 0.20960636E-03 0.81187728E+02</pdfrwt>
<totfact> 0.33691430E+05</totfact>
</mgrwt>
</event>
<event>
 8    1  0.1520917E-013  0.7423806E+02  0.7818608E-02  0.1346247E+00
          2   -1    0    0  501    0  0.00000000000E+00  0.00000000000E+00  0.47418835195E+03  0.47418835196E+03  0.25500000000E-02 0. -1.
         -1   -1    0    0    0  501 -0.00000000000E+00 -0.00000000000E+00 -0.29056414376E+01  0.29056458087E+01  0.50400000000E-02 0.  1.
         24    2    1    2    0    0  0.00000000000E+00  0.00000000000E+00  0.47128271051E+03  0.47709399777E+03  0.74238059484E+02 0.  0.
         66    2    3    3    0    0  0.18545729130E+02  0.11468125126E+02  0.42864623654E+03  0.42920514687E+03  0.20000100294E+01 0.  0.
        -13    1    3    3    0    0 -0.18545729130E+02 -0.11468125126E+02  0.42636473972E+02  0.47888850891E+02  0.10566000000E+00 0.  1.
         13    1    4    4    0    0  0.36290929796E+01  0.18905176462E+01  0.89944044564E+02  0.90037140611E+02  0.10566000000E+00 0.  1.
        -13    1    4    4    0    0  0.38100247299E+01  0.30315581559E+01  0.97308135177E+02  0.97429928507E+02  0.10566000000E+00 0. -1.
         14    1    4    4    0    0  0.11106611421E+02  0.65460493240E+01  0.24139405680E+03  0.24173807776E+03  0.00000000000E+00 0. -1.
<mgrwt>
<rscale>  0 0.74238059E+02</rscale>
<asrwt>0</asrwt>
<pdfrwt beam="1">  1        2 0.72952078E-01 0.74238059E+02</pdfrwt>
<pdfrwt beam="2">  1       -1 0.44702195E-03 0.74238059E+02</pdfrwt>
<totfact> 0.36348397E+05</totfact>
</mgrwt>
</event>
<event>
 8    1  0.1520917E-013  0.7768188E+02  0.7818608E-02  0.1335762E+00
         -1   -1    0    0    0  501 -0.00000000000E+00  0.00000000000E+00  0.16578844442E+01  0.16578921050E+01  0.50400000000E-02 0.  1.
          2   -1    0    0  501    0  0.00000000000E+00 -0.00000000000E+00 -0.90996402449E+03  0.90996402450E+03  0.25500000000E-02 0. -1.
         24    2    1    2    0    0 -0.88817841970E-15  0.35527136788E-14 -0.90830614005E+03  0.91162191660E+03  0.77681881915E+02 0.  0.
         66    2    3    3    0    0 -0.40402107330E+01  0.17765778256E+02 -0.85666294360E+03  0.85685899956E+03  0.20000008077E+01 0.  0.
        -13    1    3    3    0    0  0.40402107330E+01 -0.17765778256E+02 -0.51643196449E+02  0.54762917045E+02  0.10566000000E+00 0.  1.
         13    1    4    4    0    0 -0.19712877922E+01  0.12397749698E+02 -0.58536249965E+03  0.58549710275E+03  0.10566000000E+00 0. -1.
        -13    1    4    4    0    0 -0.15555840613E+01  0.44614846520E+01 -0.22719967008E+03  0.22724881944E+03  0.10566000000E+00 0.  1.
         14    1    4    4    0    0 -0.51333887954E+00  0.90654390664E+00 -0.44100773868E+02  0.44113077363E+02  0.00000000000E+00 0. -1.
<mgrwt>
<rscale>  0 0.77681882E+02</rscale>
<asrwt>0</asrwt>
<pdfrwt beam="1">  1        2 0.13999407E+00 0.77681882E+02</pdfrwt>
<pdfrwt beam="2">  1       -1 0.25506046E-03 0.77681882E+02</pdfrwt>
<totfact> 0.37759287E+05</totfact>
</mgrwt>
</event>
<event>
 8    1  0.1520917E-013  0.7970214E+02  0.7818608E-02  0.1329899E+00
          2   -1    0    0  501    0  0.00000000000E+00  0.00000000000E+00  0.94195253894E+02  0.94195253928E+02  0.25500000000E-02 0. -1.
         -1   -1    0    0    0  501 -0.00000000000E+00 -0.00000000000E+00 -0.16859741514E+02  0.16859742267E+02  0.50400000000E-02 0.  1.
         24    2    1    2    0    0  0.00000000000E+00  0.00000000000E+00  0.77335512380E+02  0.11105499620E+03  0.79702137393E+02 0.  0.
         66    2    3    3    0    0 -0.17852304098E+02  0.34606128086E+01  0.88062024500E+02  0.89942207917E+02  0.20000008158E+01 0.  0.
        -13    1    3    3    0    0  0.17852304098E+02 -0.34606128086E+01 -0.10726512121E+02  0.21112788279E+02  0.10566000000E+00 0.  1.
         13    1    4    4    0    0 -0.58392835484E+01  0.10555405150E+01  0.26786537694E+02  0.27436128805E+02  0.10566000000E+00 0. -1.
        -13    1    4    4    0    0 -0.20780698981E+01 -0.98162684059E-02  0.86664757905E+01  0.89127682301E+01  0.10566000000E+00 0.  1.
         14    1    4    4    0    0 -0.99349506510E+01  0.24148885620E+01  0.52609011016E+02  0.53593310882E+02  0.00000000000E+00 0. -1.
<mgrwt>
<rscale>  0 0.79702137E+02</rscale>
<asrwt>0</asrwt>
<pdfrwt beam="1">  1        2 0.14491577E-01 0.79702137E+02</pdfrwt>
<pdfrwt beam="2">  1       -1 0.25938065E-02 0.79702137E+02</pdfrwt>
<totfact> 0.17610219E+05</totfact>
</mgrwt>
</event>
<event>
 8    1  0.1520917E-013  0.8057569E+02  0.7818608E-02  0.1327426E+00
         -1   -1    0    0    0  501 -0.00000000000E+00  0.00000000000E+00  0.13846307197E+02  0.13846308114E+02  0.50400000000E-02 0.  1.
          2   -1    0    0  501    0  0.00000000000E+00 -0.00000000000E+00 -0.11722332835E+03  0.11722332838E+03  0.25500000000E-02 0. -1.
         24    2    1    2    0    0  0.35527136788E-14  0.00000000000E+00 -0.10337702115E+03  0.13106963649E+03  0.80575685585E+02 0.  0.
         66    2    3    3    0    0 -0.31318089093E+02 -0.10347536338E+02 -0.89282177593E+02  0.95200847946E+02  0.20000003039E+01 0.  0.
        -13    1    3    3    0    0  0.31318089093E+02  0.10347536338E+02 -0.14094843560E+02  0.35868788545E+02  0.10566000000E+00 0.  1.
         13    1    4    4    0    0 -0.37162110928E+01 -0.16288543120E+01 -0.10804296684E+02  0.11541550248E+02  0.10566000000E+00 0. -1.
        -13    1    4    4    0    0 -0.15445427550E+02 -0.41121965048E+01 -0.43567671040E+02  0.46407160182E+02  0.10566000000E+00 0.  1.
        -14    1    4    4    0    0 -0.12156450450E+02 -0.46064855209E+01 -0.34910209869E+02  0.37252137516E+02  0.00000000000E+00 0.  1.
<mgrwt>
<rscale>  0 0.80575686E+02</rscale>
<asrwt>0</asrwt>
<pdfrwt beam="1">  1        2 0.18034358E-01 0.80575686E+02</pdfrwt>
<pdfrwt beam="2">  1       -1 0.21302013E-02 0.80575686E+02</pdfrwt>
<totfact> 0.18204890E+05</totfact>
</mgrwt>
</event>
<event>
 8    1  0.1520917E-013  0.8072004E+02  0.7818608E-02  0.1327020E+00
          2   -1    0    0  501    0  0.00000000000E+00  0.00000000000E+00  0.91272423439E+02  0.91272423475E+02  0.25500000000E-02 0. -1.
         -1   -1    0    0    0  501 -0.00000000000E+00 -0.00000000000E+00 -0.17846913718E+02  0.17846914429E+02  0.50400000000E-02 0.  1.
         24    2    1    2    0    0  0.00000000000E+00  0.35527136788E-14  0.73425509722E+02  0.10911933790E+03  0.80720037331E+02 0.  0.
         66    2    3    3    0    0 -0.27581110508E+02  0.27277966397E+02  0.51674025645E+02  0.64645263083E+02  0.20000012843E+01 0.  0.
        -13    1    3    3    0    0  0.27581110508E+02 -0.27277966397E+02  0.21751484077E+02  0.44474074821E+02  0.10566000000E+00 0.  1.
         13    1    4    4    0    0 -0.12735134591E+01  0.10117686145E+01  0.24112482113E+01  0.29104628896E+01  0.10566000000E+00 0.  1.
        -13    1    4    4    0    0 -0.19454868223E+02  0.20262419482E+02  0.37669183850E+02  0.46989744804E+02  0.10566000000E+00 0. -1.
         14    1    4    4    0    0 -0.68527288260E+01  0.60037783000E+01  0.11593593584E+02  0.14745055389E+02  0.00000000000E+00 0. -1.
<mgrwt>
<rscale>  0 0.80720037E+02</rscale>
<asrwt>0</asrwt>
<pdfrwt beam="1">  1        2 0.14041911E-01 0.80720037E+02</pdfrwt>
<pdfrwt beam="2">  1       -1 0.27456791E-02 0.80720037E+02</pdfrwt>
<totfact> 0.16874849E+05</totfact>
</mgrwt>
</event>
<event>
 8    1  0.1520917E-013  0.8742148E+02  0.7818608E-02  0.1309219E+00
          2   -1    0    0  501    0  0.00000000000E+00  0.00000000000E+00  0.28432827441E+03  0.28432827442E+03  0.25500000000E-02 0. -1.
         -1   -1    0    0    0  501 -0.00000000000E+00 -0.00000000000E+00 -0.67197975391E+01  0.67197994291E+01  0.50400000000E-02 0.  1.
         24    2    1    2    0    0 -0.71054273576E-14  0.44408920985E-15  0.27760847687E+03  0.29104807385E+03  0.87421478262E+02 0.  0.
         66    2    3    3    0    0  0.25493480346E+02  0.33481729020E+01  0.25646553274E+03  0.25775899077E+03  0.20000086902E+01 0.  0.
        -13    1    3    3    0    0 -0.25493480346E+02 -0.33481729020E+01  0.21142944125E+02  0.33289083079E+02  0.10566000000E+00 0.  1.
         13    1    4    4    0    0  0.75877783908E+01  0.11123730773E+01  0.76798903323E+02  0.77180920378E+02  0.10566000000E+00 0. -1.
        -13    1    4    4    0    0  0.45397901999E+01  0.11214013453E+01  0.51188323167E+02  0.51401583913E+02  0.10566000000E+00 0. -1.
        -14    1    4    4    0    0  0.13365911756E+02  0.11143984794E+01  0.12847830625E+03  0.12917648648E+03  0.00000000000E+00 0.  1.
<mgrwt>
<rscale>  0 0.87421478E+02</rscale>
<asrwt>0</asrwt>
<pdfrwt beam="1">  1        2 0.43742808E-01 0.87421478E+02</pdfrwt>
<pdfrwt beam="2">  1       -1 0.10338152E-02 0.87421478E+02</pdfrwt>
<totfact> 0.19790894E+05</totfact>
</mgrwt>
</event>
<event>
 8    1  0.1520917E-013  0.8665588E+02  0.7818608E-02  0.1311158E+00
         -1   -1    0    0    0  501 -0.00000000000E+00  0.00000000000E+00  0.24627305667E+02  0.24627306183E+02  0.50400000000E-02 0.  1.
          2   -1    0    0  501    0  0.00000000000E+00 -0.00000000000E+00 -0.76228823702E+02  0.76228823744E+02  0.25500000000E-02 0. -1.
         24    2    1    2    0    0  0.00000000000E+00  0.71054273576E-14 -0.51601518034E+02  0.10085612993E+03  0.86655884281E+02 0.  0.
         66    2    3    3    0    0 -0.16143508157E+02  0.33424950843E+02 -0.51773326014E+02  0.63736312087E+02  0.19999993646E+01 0.  0.
        -13    1    3    3    0    0  0.16143508157E+02 -0.33424950843E+02  0.17180797967E+00  0.37119817840E+02  0.10566000000E+00 0.  1.
         13    1    4    4    0    0 -0.84348600653E+01  0.16958290321E+02 -0.26875026122E+02  0.32878696264E+02  0.10566000000E+00 0. -1.
        -13    1    4    4    0    0 -0.16207791628E+01  0.48022117945E+01 -0.70829940281E+01  0.87102314350E+01  0.10566000000E+00 0.  1.
         14    1    4    4    0    0 -0.60878689288E+01  0.11664448727E+02 -0.17815305864E+02  0.22147384388E+02  0.00000000000E+00 0. -1.
<mgrwt>
<rscale>  0 0.86655884E+02</rscale>
<asrwt>0</asrwt>
<pdfrwt beam="1">  1        2 0.11727511E-01 0.86655884E+02</pdfrwt>
<pdfrwt beam="2">  1       -1 0.37888163E-02 0.86655884E+02</pdfrwt>
<totfact> 0.13276447E+05</totfact>
</mgrwt>
</event>
<event>
 8    1  0.1520917E-013  0.8041910E+02  0.7818608E-02  0.1327866E+00
          2   -1    0    0  501    0  0.00000000000E+00  0.00000000000E+00  0.50120293330E+03  0.50120293331E+03  0.25500000000E-02 0. -1.
         -1   -1    0    0    0  501 -0.00000000000E+00 -0.00000000000E+00 -0.32258530843E+01  0.32258570215E+01  0.50400000000E-02 0.  1.
         24    2    1    2    0    0 -0.71054273576E-14  0.00000000000E+00  0.49797708022E+03  0.50442879033E+03  0.80419102778E+02 0.  0.
         66    2    3    3    0    0  0.39632672322E+02 -0.59989406342E+00  0.29060445318E+03  0.29330198910E+03  0.20000037224E+01 0.  0.
        -13    1    3    3    0    0 -0.39632672322E+02  0.59989406342E+00  0.20737262704E+03  0.21112680123E+03  0.10566000000E+00 0.  1.
         13    1    4    4    0    0  0.10398436102E+02 -0.16308890933E+00  0.75770318400E+02  0.76480758272E+02  0.10566000000E+00 0. -1.
        -13    1    4    4    0    0  0.76586227299E+01 -0.60660376354E+00  0.52367904074E+02  0.52928546280E+02  0.10566000000E+00 0.  1.
        -14    1    4    4    0    0  0.21575613490E+02  0.16979860944E+00  0.16246623070E+03  0.16389268455E+03  0.00000000000E+00 0.  1.
<mgrwt>
<rscale>  0 0.80419103E+02</rscale>
<asrwt>0</asrwt>
<pdfrwt beam="1">  1        2 0.77108142E-01 0.80419103E+02</pdfrwt>
<pdfrwt beam="2">  1       -1 0.49628540E-03 0.80419103E+02</pdfrwt>
<totfact> 0.30062369E+05</totfact>
</mgrwt>
</event>
<event>
 8    1  0.1520917E-013  0.7909974E+02  0.7818608E-02  0.1331626E+00
          2   -1    0    0  501    0  0.00000000000E+00  0.00000000000E+00  0.20395543244E+03  0.20395543246E+03  0.25500000000E-02 0. -1.
         -1   -1    0    0    0  501 -0.00000000000E+00 -0.00000000000E+00 -0.76692826133E+01  0.76692842693E+01  0.50400000000E-02 0.  1.
         24    2    1    2    0    0  0.00000000000E+00  0.00000000000E+00  0.19628614983E+03  0.21162471673E+03  0.79099735242E+02 0.  0.
         66    2    3    3    0    0  0.16040976387E+02  0.21481842334E+01  0.19467877399E+03  0.19536057088E+03  0.19999986256E+01 0.  0.
        -13    1    3    3    0    0 -0.16040976387E+02 -0.21481842334E+01  0.16073758395E+01  0.16264145845E+02  0.10566000000E+00 0.  1.
         13    1    4    4    0    0  0.90379566472E+01  0.19928865846E+01  0.10548573767E+03  0.10589102074E+03  0.10566000000E+00 0. -1.
        -13    1    4    4    0    0  0.68692292978E+01  0.98194284059E-01  0.86417102425E+02  0.86689807410E+02  0.10566000000E+00 0.  1.
        -14    1    4    4    0    0  0.13379044194E+00  0.57103364798E-01  0.27759338955E+01  0.27797427343E+01  0.00000000000E+00 0.  1.
<mgrwt>
<rscale>  0 0.79099735E+02</rscale>
<asrwt>0</asrwt>
<pdfrwt beam="1">  1        2 0.31377753E-01 0.79099735E+02</pdfrwt>
<pdfrwt beam="2">  1       -1 0.11798900E-02 0.79099735E+02</pdfrwt>
<totfact> 0.22881955E+05</totfact>
</mgrwt>
</event>
<event>
 8    1  0.1520917E-013  0.8139655E+02  0.7818608E-02  0.1325134E+00
         -1   -1    0    0    0  501 -0.00000000000E+00  0.00000000000E+00  0.34997239701E+03  0.34997239705E+03  0.50400000000E-02 0.  1.
          2   -1    0    0  501    0  0.00000000000E+00 -0.00000000000E+00 -0.47327998484E+01  0.47328005354E+01  0.25500000000E-02 0. -1.
         24    2    1    2    0    0  0.35527136788E-14 -0.71054273576E-14  0.34523959717E+03  0.35470519759E+03  0.81396546261E+02 0.  0.
         66    2    3    3    0    0 -0.15088711031E+02  0.37112623675E+02  0.14211747135E+03  0.14766987403E+03  0.19999997101E+01 0.  0.
        -13    1    3    3    0    0  0.15088711031E+02 -0.37112623675E+02  0.20312212582E+03  0.20703532355E+03  0.10566000000E+00 0.  1.
         13    1    4    4    0    0 -0.40909922616E+01  0.83226297465E+01  0.32825166008E+02  0.34110190135E+02  0.10566000000E+00 0. -1.
        -13    1    4    4    0    0 -0.31276356951E+01  0.85759556569E+01  0.30673149931E+02  0.32002850048E+02  0.10566000000E+00 0.  1.
        -14    1    4    4    0    0 -0.78700830747E+01  0.20214038272E+02  0.78619155408E+02  0.81556833851E+02  0.00000000000E+00 0.  1.
<mgrwt>
<rscale>  0 0.81396546E+02</rscale>
<asrwt>0</asrwt>
<pdfrwt beam="1">  1        2 0.72812298E-03 0.81396546E+02</pdfrwt>
<pdfrwt beam="2">  1       -1 0.53841917E-01 0.81396546E+02</pdfrwt>
<totfact> 0.77359748E+04</totfact>
</mgrwt>
</event>
<event>
 8    1  0.1520917E-013  0.8045814E+02  0.7818608E-02  0.1327756E+00
         -1   -1    0    0    0  501 -0.00000000000E+00  0.00000000000E+00  0.34932878141E+02  0.34932878505E+02  0.50400000000E-02 0.  1.
          2   -1    0    0  501    0  0.00000000000E+00 -0.00000000000E+00 -0.46328221523E+02  0.46328221593E+02  0.25500000000E-02 0. -1.
         24    2    1    2    0    0  0.44408920985E-15 -0.71054273576E-14 -0.11395343381E+02  0.81261100098E+02  0.80458141529E+02 0.  0.
         66    2    3    3    0    0  0.19229215764E+01 -0.35743843907E+02  0.12785950130E+02  0.38063112592E+02  0.20000036941E+01 0.  0.
        -13    1    3    3    0    0 -0.19229215764E+01  0.35743843907E+02 -0.24181293511E+02  0.43197987506E+02  0.10566000000E+00 0.  1.
         13    1    4    4    0    0  0.30722407748E+00 -0.84645769042E+01  0.22157835169E+01  0.87558157490E+01  0.10566000000E+00 0. -1.
        -13    1    4    4    0    0  0.80384876486E+00 -0.11877021913E+02  0.42886257795E+01  0.12653588324E+02  0.10566000000E+00 0.  1.
        -14    1    4    4    0    0  0.81184873411E+00 -0.15402245091E+02  0.62815408334E+01  0.16653708519E+02  0.00000000000E+00 0.  1.
<mgrwt>
<rscale>  0 0.80458142E+02</rscale>
<asrwt>0</asrwt>
<pdfrwt beam="1">  1        2 0.71274187E-02 0.80458142E+02</pdfrwt>
<pdfrwt beam="2">  1       -1 0.53742890E-02 0.80458142E+02</pdfrwt>
<totfact> 0.14470736E+05</totfact>
</mgrwt>
</event>
<event>
 8    1  0.1520917E-013  0.7778719E+02  0.7818608E-02  0.1335451E+00
         -1   -1    0    0    0  501 -0.00000000000E+00  0.00000000000E+00  0.56468021415E+01  0.56468043907E+01  0.50400000000E-02 0.  1.
          2   -1    0    0  501    0  0.00000000000E+00 -0.00000000000E+00 -0.26788813360E+03  0.26788813361E+03  0.25500000000E-02 0. -1.
         24    2    1    2    0    0  0.00000000000E+00 -0.88817841970E-15 -0.26224133146E+03  0.27353493801E+03  0.77787186497E+02 0.  0.
         66    2    3    3    0    0  0.33699097919E+02 -0.70143482570E+01 -0.19468626558E+03  0.19771588781E+03  0.20000014325E+01 0.  0.
        -13    1    3    3    0    0 -0.33699097919E+02  0.70143482570E+01 -0.67555065883E+02  0.75819050196E+02  0.10566000000E+00 0.  1.
         13    1    4    4    0    0  0.17879925364E+02 -0.37530365970E+01 -0.10145278926E+03  0.10308470607E+03  0.10566000000E+00 0. -1.
        -13    1    4    4    0    0  0.47996195462E+01 -0.58877688341E+00 -0.30515400694E+02  0.30896340391E+02  0.10566000000E+00 0.  1.
        -14    1    4    4    0    0  0.11019553009E+02 -0.26725347765E+01 -0.62718075628E+02  0.63734841344E+02  0.00000000000E+00 0.  1.
<mgrwt>
<rscale>  0 0.77787186E+02</rscale>
<asrwt>0</asrwt>
<pdfrwt beam="1">  1        2 0.41213549E-01 0.77787186E+02</pdfrwt>
<pdfrwt beam="2">  1       -1 0.86873918E-03 0.77787186E+02</pdfrwt>
<totfact> 0.26338010E+05</totfact>
</mgrwt>
</event>
<event>
 8    1  0.1520917E-013  0.7603920E+02  0.7818608E-02  0.1340683E+00
         -1   -1    0    0    0  501 -0.00000000000E+00  0.00000000000E+00  0.10808795396E+02  0.10808796571E+02  0.50400000000E-02 0.  1.
          2   -1    0    0  501    0  0.00000000000E+00 -0.00000000000E+00 -0.13373273555E+03  0.13373273557E+03  0.25500000000E-02 0. -1.
         24    2    1    2    0    0 -0.35527136788E-14 -0.35527136788E-14 -0.12292394015E+03  0.14454153215E+03  0.76039196811E+02 0.  0.
         66    2    3    3    0    0  0.23656815988E+02 -0.12432016923E+02 -0.11283821306E+03  0.11597699044E+03  0.19999997881E+01 0.  0.
        -13    1    3    3    0    0 -0.23656815988E+02  0.12432016923E+02 -0.10085727098E+02  0.28564541701E+02  0.10566000000E+00 0.  1.
         13    1    4    4    0    0  0.18116442179E+02 -0.95608052145E+01 -0.87635714028E+02  0.89998022261E+02  0.10566000000E+00 0. -1.
        -13    1    4    4    0    0  0.19638950903E+01 -0.10246687825E+01 -0.72918308668E+01  0.76216003218E+01  0.10566000000E+00 0.  1.
        -14    1    4    4    0    0  0.35764787184E+01 -0.18465429264E+01 -0.17910668161E+02  0.18357367861E+02  0.00000000000E+00 0.  1.
<mgrwt>
<rscale>  0 0.76039197E+02</rscale>
<asrwt>0</asrwt>
<pdfrwt beam="1">  1        2 0.20574266E-01 0.76039197E+02</pdfrwt>
<pdfrwt beam="2">  1       -1 0.16628918E-02 0.76039197E+02</pdfrwt>
<totfact> 0.22099860E+05</totfact>
</mgrwt>
</event>
<event>
 8    1  0.1520917E-013  0.7986594E+02  0.7818608E-02  0.1329432E+00
         -1   -1    0    0    0  501 -0.00000000000E+00  0.00000000000E+00  0.26087492122E+02  0.26087492609E+02  0.50400000000E-02 0.  1.
          2   -1    0    0  501    0  0.00000000000E+00 -0.00000000000E+00 -0.61126694417E+02  0.61126694470E+02  0.25500000000E-02 0. -1.
         24    2    1    2    0    0  0.00000000000E+00  0.35527136788E-14 -0.35039202294E+02  0.87214187079E+02  0.79865942243E+02 0.  0.
         66    2    3    3    0    0  0.23662339329E+02  0.31821746713E+02 -0.22427251725E+02  0.45601660989E+02  0.19999996669E+01 0.  0.
        -13    1    3    3    0    0 -0.23662339329E+02 -0.31821746713E+02 -0.12611950569E+02  0.41612526090E+02  0.10566000000E+00 0.  1.
         13    1    4    4    0    0  0.30688260809E+01  0.40475797317E+01 -0.30023671262E+01  0.59013530310E+01  0.10566000000E+00 0. -1.
        -13    1    4    4    0    0  0.12152910303E+02  0.17298518589E+02 -0.11068417054E+02  0.23863214250E+02  0.10566000000E+00 0.  1.
        -14    1    4    4    0    0  0.84406029442E+01  0.10475648392E+02 -0.83564675451E+01  0.15837093709E+02  0.00000000000E+00 0.  1.
<mgrwt>
<rscale>  0 0.79865942E+02</rscale>
<asrwt>0</asrwt>
<pdfrwt beam="1">  1        2 0.94041069E-02 0.79865942E+02</pdfrwt>
<pdfrwt beam="2">  1       -1 0.40134604E-02 0.79865942E+02</pdfrwt>
<totfact> 0.15704882E+05</totfact>
</mgrwt>
</event>
<event>
 8    1  0.1520917E-013  0.7970917E+02  0.7818608E-02  0.1329879E+00
         -1   -1    0    0    0  501 -0.00000000000E+00  0.00000000000E+00  0.30328052966E+02  0.30328053385E+02  0.50400000000E-02 0.  1.
          2   -1    0    0  501    0  0.00000000000E+00 -0.00000000000E+00 -0.52373548562E+02  0.52373548625E+02  0.25500000000E-02 0. -1.
         24    2    1    2    0    0  0.35527136788E-14  0.00000000000E+00 -0.22045495596E+02  0.82701602009E+02  0.79709165714E+02 0.  0.
         66    2    3    3    0    0 -0.26064438924E+02 -0.11994679562E+02 -0.39692043376E+02  0.49017197208E+02  0.20000001342E+01 0.  0.
        -13    1    3    3    0    0  0.26064438924E+02  0.11994679562E+02  0.17646547780E+02  0.33684404801E+02  0.10566000000E+00 0.  1.
         13    1    4    4    0    0 -0.83104305027E+01 -0.39597625993E+01 -0.11427329061E+02  0.14674399084E+02  0.10566000000E+00 0. -1.
        -13    1    4    4    0    0 -0.14517718644E+02 -0.61964466189E+01 -0.22909902926E+02  0.27821483092E+02  0.10566000000E+00 0.  1.
        -14    1    4    4    0    0 -0.32362897772E+01 -0.18384703442E+01 -0.53548113898E+01  0.65213150321E+01  0.00000000000E+00 0.  1.
<mgrwt>
<rscale>  0 0.79709166E+02</rscale>
<asrwt>0</asrwt>
<pdfrwt beam="1">  1        2 0.80574690E-02 0.79709166E+02</pdfrwt>
<pdfrwt beam="2">  1       -1 0.46658544E-02 0.79709166E+02</pdfrwt>
<totfact> 0.15246752E+05</totfact>
</mgrwt>
</event>
<event>
 8    1  0.1520917E-013  0.7906291E+02  0.7818608E-02  0.1331732E+00
          2   -1    0    0  501    0  0.00000000000E+00  0.00000000000E+00  0.26015035590E+03  0.26015035591E+03  0.25500000000E-02 0. -1.
         -1   -1    0    0    0  501 -0.00000000000E+00 -0.00000000000E+00 -0.60070480997E+01  0.60070502140E+01  0.50400000000E-02 0.  1.
         24    2    1    2    0    0  0.00000000000E+00  0.00000000000E+00  0.25414330780E+03  0.26615740613E+03  0.79062911256E+02 0.  0.
         66    2    3    3    0    0 -0.16916765933E+02 -0.35466944440E+02  0.14088910849E+03  0.14627994393E+03  0.19999967780E+01 0.  0.
        -13    1    3    3    0    0  0.16916765933E+02  0.35466944440E+02  0.11325419931E+03  0.11987746219E+03  0.10566000000E+00 0.  1.
         13    1    4    4    0    0 -0.53419790044E+00 -0.10613927299E+01  0.44658433934E+01  0.46224282768E+01  0.10566000000E+00 0. -1.
        -13    1    4    4    0    0 -0.12676951024E+02 -0.28295398767E+02  0.11084656041E+03  0.11510128495E+03  0.10566000000E+00 0.  1.
        -14    1    4    4    0    0 -0.37056170082E+01 -0.61101529427E+01  0.25576704694E+02  0.26556230708E+02  0.00000000000E+00 0.  1.
<mgrwt>
<rscale>  0 0.79062911E+02</rscale>
<asrwt>0</asrwt>
<pdfrwt beam="1">  1        2 0.40023134E-01 0.79062911E+02</pdfrwt>
<pdfrwt beam="2">  1       -1 0.92416136E-03 0.79062911E+02</pdfrwt>
<totfact> 0.24973074E+05</totfact>
</mgrwt>
</event>
<event>
 8    1  0.1520917E-013  0.7862966E+02  0.7818608E-02  0.1332986E+00
         -1   -1    0    0    0  501 -0.00000000000E+00  0.00000000000E+00  0.58589774294E+01  0.58589795971E+01  0.50400000000E-02 0.  1.
          2   -1    0    0  501    0  0.00000000000E+00 -0.00000000000E+00 -0.26380975728E+03  0.26380975729E+03  0.25500000000E-02 0. -1.
         24    2    1    2    0    0  0.00000000000E+00  0.35527136788E-14 -0.25795077985E+03  0.26966873689E+03  0.78629656174E+02 0.  0.
         66    2    3    3    0    0 -0.24096854727E+02  0.28842307545E+02 -0.16832926038E+03  0.17248558491E+03  0.19999974684E+01 0.  0.
        -13    1    3    3    0    0  0.24096854727E+02 -0.28842307545E+02 -0.89621519475E+02  0.97183151983E+02  0.10566000000E+00 0.  1.
         13    1    4    4    0    0 -0.47866547252E+01  0.48038265469E+01 -0.32206089826E+02  0.32912493052E+02  0.10566000000E+00 0.  1.
        -13    1    4    4    0    0 -0.14928211532E+01  0.18866027760E+01 -0.11253531048E+02  0.11508297446E+02  0.10566000000E+00 0. -1.
        -14    1    4    4    0    0 -0.17817378848E+02  0.22151878222E+02 -0.12486963950E+03  0.12806479441E+03  0.00000000000E+00 0.  1.
<mgrwt>
<rscale>  0 0.78629656E+02</rscale>
<asrwt>0</asrwt>
<pdfrwt beam="1">  1        2 0.40586107E-01 0.78629656E+02</pdfrwt>
<pdfrwt beam="2">  1       -1 0.90138152E-03 0.78629656E+02</pdfrwt>
<totfact> 0.25463636E+05</totfact>
</mgrwt>
</event>
<event>
 8    1  0.1520917E-013  0.7975021E+02  0.7818608E-02  0.1329762E+00
         -1   -1    0    0    0  501 -0.00000000000E+00  0.00000000000E+00  0.27680497566E+01  0.27680543450E+01  0.50400000000E-02 0.  1.
          2   -1    0    0  501    0  0.00000000000E+00 -0.00000000000E+00 -0.57441976504E+03  0.57441976505E+03  0.25500000000E-02 0. -1.
         24    2    1    2    0    0  0.00000000000E+00  0.00000000000E+00 -0.57165171529E+03  0.57718781939E+03  0.79750205433E+02 0.  0.
         66    2    3    3    0    0  0.35453011569E+02  0.10959397323E+02 -0.39113371072E+03  0.39289515661E+03  0.20000018824E+01 0.  0.
        -13    1    3    3    0    0 -0.35453011569E+02 -0.10959397323E+02 -0.18051800456E+03  0.18429266278E+03  0.10566000000E+00 0.  1.
         13    1    4    4    0    0  0.74816361890E+01  0.30747978524E+01 -0.87340946714E+02  0.87714772979E+02  0.10566000000E+00 0. -1.
        -13    1    4    4    0    0  0.15170457099E+02  0.42796531446E+01 -0.16822898281E+03  0.16896585460E+03  0.10566000000E+00 0.  1.
         14    1    4    4    0    0  0.12800918281E+02  0.36049463257E+01 -0.13556378120E+03  0.13621452903E+03  0.00000000000E+00 0. -1.
<mgrwt>
<rscale>  0 0.79750205E+02</rscale>
<asrwt>0</asrwt>
<pdfrwt beam="1">  1        2 0.88372177E-01 0.79750205E+02</pdfrwt>
<pdfrwt beam="2">  1       -1 0.42585462E-03 0.79750205E+02</pdfrwt>
<totfact> 0.32027401E+05</totfact>
</mgrwt>
</event>
<event>
 8    1  0.1520917E-013  0.7828971E+02  0.7818608E-02  0.1333976E+00
          2   -1    0    0  501    0  0.00000000000E+00  0.00000000000E+00  0.44867047486E+02  0.44867047558E+02  0.25500000000E-02 0. -1.
         -1   -1    0    0    0  501 -0.00000000000E+00 -0.00000000000E+00 -0.34152448243E+02  0.34152448615E+02  0.50400000000E-02 0.  1.
         24    2    1    2    0    0  0.00000000000E+00 -0.35527136788E-14  0.10714599242E+02  0.79019496173E+02  0.78289706466E+02 0.  0.
         66    2    3    3    0    0  0.24471096527E+02  0.30382054558E+02  0.24336136197E+01  0.39138552211E+02  0.19999973686E+01 0.  0.
        -13    1    3    3    0    0 -0.24471096527E+02 -0.30382054558E+02  0.82809856226E+01  0.39880943963E+02  0.10566000000E+00 0.  1.
         13    1    4    4    0    0  0.11602163752E+02  0.15704747832E+02  0.94670911453E+00  0.19548829387E+02  0.10566000000E+00 0. -1.
        -13    1    4    4    0    0  0.89400267404E+01  0.97100140123E+01  0.10832007273E+01  0.13243599892E+02  0.10566000000E+00 0.  1.
        -14    1    4    4    0    0  0.39289060346E+01  0.49672927137E+01  0.40370377787E+00  0.63461229324E+01  0.00000000000E+00 0.  1.
<mgrwt>
<rscale>  0 0.78289706E+02</rscale>
<asrwt>0</asrwt>
<pdfrwt beam="1">  1        2 0.69026227E-02 0.78289706E+02</pdfrwt>
<pdfrwt beam="2">  1       -1 0.52542229E-02 0.78289706E+02</pdfrwt>
<totfact> 0.15492939E+05</totfact>
</mgrwt>
</event>
<event>
 8    1  0.1520917E-013  0.8103638E+02  0.7818608E-02  0.1326136E+00
          2   -1    0    0  501    0  0.00000000000E+00  0.00000000000E+00  0.65915259969E+03  0.65915259970E+03  0.25500000000E-02 0. -1.
         -1   -1    0    0    0  501 -0.00000000000E+00 -0.00000000000E+00 -0.24906552679E+01  0.24906603673E+01  0.50400000000E-02 0.  1.
         24    2    1    2    0    0  0.00000000000E+00  0.00000000000E+00  0.65666194443E+03  0.66164326007E+03  0.81036376608E+02 0.  0.
         66    2    3    3    0    0  0.28467632693E+01  0.32751669325E+02  0.52156161102E+03  0.52260050709E+03  0.20000041695E+01 0.  0.
        -13    1    3    3    0    0 -0.28467632693E+01 -0.32751669325E+02  0.13510033341E+03  0.13904275298E+03  0.10566000000E+00 0.  1.
         13    1    4    4    0    0  0.20015834173E+01  0.22033961986E+02  0.35347994805E+03  0.35417169093E+03  0.10566000000E+00 0. -1.
        -13    1    4    4    0    0  0.13287720198E+00  0.53608505697E+01  0.76415465565E+02  0.76603465436E+02  0.10566000000E+00 0.  1.
         14    1    4    4    0    0  0.71230265006E+00  0.53568567695E+01  0.91666197403E+02  0.91825350725E+02  0.00000000000E+00 0. -1.
<mgrwt>
<rscale>  0 0.81036377E+02</rscale>
<asrwt>0</asrwt>
<pdfrwt beam="1">  1        2 0.10140822E+00 0.81036377E+02</pdfrwt>
<pdfrwt beam="2">  1       -1 0.38317766E-03 0.81036377E+02</pdfrwt>
<totfact> 0.31887286E+05</totfact>
</mgrwt>
</event>
<event>
 8    1  0.1520917E-013  0.8201884E+02  0.7818608E-02  0.1323418E+00
         -1   -1    0    0    0  501 -0.00000000000E+00  0.00000000000E+00  0.12839772961E+02  0.12839773950E+02  0.50400000000E-02 0.  1.
          2   -1    0    0  501    0  0.00000000000E+00 -0.00000000000E+00 -0.13098147860E+03  0.13098147863E+03  0.25500000000E-02 0. -1.
         24    2    1    2    0    0 -0.71054273576E-14  0.44408920985E-15 -0.11814170564E+03  0.14382125258E+03  0.82018839794E+02 0.  0.
         66    2    3    3    0    0 -0.36412209078E+02  0.30298726111E+01 -0.91663622422E+02  0.98697764758E+02  0.19999987019E+01 0.  0.
        -13    1    3    3    0    0  0.36412209078E+02 -0.30298726111E+01 -0.26478083221E+02  0.45123487821E+02  0.10566000000E+00 0.  1.
         13    1    4    4    0    0 -0.13721931956E+02  0.14259162081E+01 -0.35835326339E+02  0.38399302487E+02  0.10566000000E+00 0.  1.
        -13    1    4    4    0    0 -0.17292379394E+01  0.20533527057E+00 -0.34979555113E+01  0.39088723718E+01  0.10566000000E+00 0. -1.
         14    1    4    4    0    0 -0.20961039183E+02  0.13986211324E+01 -0.52330340571E+02  0.56389589900E+02  0.00000000000E+00 0. -1.
<mgrwt>
<rscale>  0 0.82018840E+02</rscale>
<asrwt>0</asrwt>
<pdfrwt beam="1">  1        2 0.20150996E-01 0.82018840E+02</pdfrwt>
<pdfrwt beam="2">  1       -1 0.19753499E-02 0.82018840E+02</pdfrwt>
<totfact> 0.17957840E+05</totfact>
</mgrwt>
</event>
<event>
 8    1  0.1520917E-013  0.7947494E+02  0.7818608E-02  0.1330548E+00
          2   -1    0    0  501    0  0.00000000000E+00  0.00000000000E+00  0.13827502889E+02  0.13827503124E+02  0.25500000000E-02 0. -1.
         -1   -1    0    0    0  501 -0.00000000000E+00 -0.00000000000E+00 -0.11419753138E+03  0.11419753149E+03  0.50400000000E-02 0.  1.
         24    2    1    2    0    0  0.35527136788E-14  0.00000000000E+00 -0.10037002849E+03  0.12802503462E+03  0.79474944914E+02 0.  0.
         66    2    3    3    0    0 -0.31109630127E+02  0.23276798973E+02 -0.63445922686E+02  0.74424482281E+02  0.20000000790E+01 0.  0.
        -13    1    3    3    0    0  0.31109630127E+02 -0.23276798973E+02 -0.36924105808E+02  0.53600552337E+02  0.10566000000E+00 0.  1.
         13    1    4    4    0    0 -0.11062963751E+02  0.73570936662E+01 -0.22182740269E+02  0.25857322446E+02  0.10566000000E+00 0. -1.
        -13    1    4    4    0    0 -0.18776980610E+02  0.14627619764E+02 -0.38449039911E+02  0.45220372565E+02  0.10566000000E+00 0.  1.
         14    1    4    4    0    0 -0.12696857657E+01  0.12920855432E+01 -0.28141425054E+01  0.33467872707E+01  0.00000000000E+00 0. -1.
<mgrwt>
<rscale>  0 0.79474945E+02</rscale>
<asrwt>0</asrwt>
<pdfrwt beam="1">  1        2 0.21273082E-02 0.79474945E+02</pdfrwt>
<pdfrwt beam="2">  1       -1 0.17568850E-01 0.79474945E+02</pdfrwt>
<totfact> 0.11704622E+05</totfact>
</mgrwt>
</event>
<event>
 8    1  0.1520917E-013  0.7948437E+02  0.7818608E-02  0.1330521E+00
          2   -1    0    0  501    0  0.00000000000E+00  0.00000000000E+00  0.17694921475E+02  0.17694921659E+02  0.25500000000E-02 0. -1.
         -1   -1    0    0    0  501 -0.00000000000E+00 -0.00000000000E+00 -0.89259583979E+02  0.89259584122E+02  0.50400000000E-02 0.  1.
         24    2    1    2    0    0 -0.88817841970E-15  0.00000000000E+00 -0.71564662504E+02  0.10695450578E+03  0.79484371969E+02 0.  0.
         66    2    3    3    0    0  0.47220283609E+01 -0.33749594125E+02 -0.83564526677E+01  0.35144885184E+02  0.19999994806E+01 0.  0.
        -13    1    3    3    0    0 -0.47220283609E+01  0.33749594125E+02 -0.63208209837E+02  0.71809620597E+02  0.10566000000E+00 0.  1.
         13    1    4    4    0    0  0.10816662672E+01 -0.76034533464E+01 -0.20558817839E+01  0.79511205908E+01  0.10566000000E+00 0. -1.
        -13    1    4    4    0    0  0.13090661136E+00 -0.61004606017E+01 -0.15208212219E+01  0.62894210638E+01  0.10566000000E+00 0.  1.
        -14    1    4    4    0    0  0.35094554823E+01 -0.20045680177E+02 -0.47797496619E+01  0.20904343529E+02  0.00000000000E+00 0.  1.
<mgrwt>
<rscale>  0 0.79484372E+02</rscale>
<asrwt>0</asrwt>
<pdfrwt beam="1">  1        2 0.27222957E-02 0.79484372E+02</pdfrwt>
<pdfrwt beam="2">  1       -1 0.13732244E-01 0.79484372E+02</pdfrwt>
<totfact> 0.12336580E+05</totfact>
</mgrwt>
</event>
<event>
 8    1  0.1520917E-013  0.7450172E+02  0.7818608E-02  0.1345421E+00
         -1   -1    0    0    0  501 -0.00000000000E+00  0.00000000000E+00  0.22121777395E+01  0.22121834808E+01  0.50400000000E-02 0.  1.
          2   -1    0    0  501    0  0.00000000000E+00 -0.00000000000E+00 -0.62726641146E+03  0.62726641147E+03  0.25500000000E-02 0. -1.
         24    2    1    2    0    0  0.00000000000E+00  0.00000000000E+00 -0.62505423372E+03  0.62947859495E+03  0.74501720807E+02 0.  0.
         66    2    3    3    0    0  0.28751612024E+02 -0.29754959326E+01 -0.51092293846E+03  0.51174384012E+03  0.20000237825E+01 0.  0.
        -13    1    3    3    0    0 -0.28751612024E+02  0.29754959326E+01 -0.11413129527E+03  0.11773475482E+03  0.10566000000E+00 0.  1.
         13    1    4    4    0    0  0.65693908276E+01  0.48379427172E-01 -0.12132088740E+03  0.12149867538E+03  0.10566000000E+00 0. -1.
        -13    1    4    4    0    0  0.11875939316E+02 -0.18833627365E+01 -0.21091227007E+03  0.21125477940E+03  0.10566000000E+00 0.  1.
         14    1    4    4    0    0  0.10306281880E+02 -0.11405126233E+01 -0.17868978099E+03  0.17899038534E+03  0.00000000000E+00 0. -1.
<mgrwt>
<rscale>  0 0.74501721E+02</rscale>
<asrwt>0</asrwt>
<pdfrwt beam="1">  1        2 0.96502383E-01 0.74501721E+02</pdfrwt>
<pdfrwt beam="2">  1       -1 0.34033598E-03 0.74501721E+02</pdfrwt>
<totfact> 0.39152706E+05</totfact>
</mgrwt>
</event>
<event>
 8    1  0.1520917E-013  0.8048597E+02  0.7818608E-02  0.1327678E+00
         -1   -1    0    0    0  501 -0.00000000000E+00  0.00000000000E+00  0.20908886010E+01  0.20908946753E+01  0.50400000000E-02 0.  1.
          2   -1    0    0  501    0  0.00000000000E+00 -0.00000000000E+00 -0.77454889881E+03  0.77454889882E+03  0.25500000000E-02 0. -1.
         24    2    1    2    0    0 -0.17763568394E-14  0.00000000000E+00 -0.77245801021E+03  0.77663979349E+03  0.80485969556E+02 0.  0.
         66    2    3    3    0    0 -0.91715177853E+01 -0.40757350611E+01 -0.76226835038E+03  0.76233704249E+03  0.20000002618E+01 0.  0.
        -13    1    3    3    0    0  0.91715177853E+01  0.40757350611E+01 -0.10189659827E+02  0.14302751001E+02  0.10566000000E+00 0.  1.
         13    1    4    4    0    0 -0.15828182515E+01 -0.45492971336E+00 -0.10478786333E+03  0.10480085754E+03  0.10566000000E+00 0. -1.
        -13    1    4    4    0    0 -0.36844764785E+01 -0.11725494901E+01 -0.34577870857E+03  0.34580034226E+03  0.10566000000E+00 0.  1.
        -14    1    4    4    0    0 -0.39042230553E+01 -0.24482558576E+01 -0.31170177848E+03  0.31173584269E+03  0.00000000000E+00 0.  1.
<mgrwt>
<rscale>  0 0.80485970E+02</rscale>
<asrwt>0</asrwt>
<pdfrwt beam="1">  1        2 0.11916114E+00 0.80485970E+02</pdfrwt>
<pdfrwt beam="2">  1       -1 0.32167626E-03 0.80485970E+02</pdfrwt>
<totfact> 0.33632666E+05</totfact>
</mgrwt>
</event>
<event>
 8    1  0.1520917E-013  0.8024532E+02  0.7818608E-02  0.1328357E+00
         -1   -1    0    0    0  501 -0.00000000000E+00  0.00000000000E+00  0.24410342362E+01  0.24410394392E+01  0.50400000000E-02 0.  1.
          2   -1    0    0  501    0  0.00000000000E+00 -0.00000000000E+00 -0.65948532389E+03  0.65948532390E+03  0.25500000000E-02 0. -1.
         24    2    1    2    0    0  0.00000000000E+00  0.44408920985E-15 -0.65704428965E+03  0.66192636333E+03  0.80245323291E+02 0.  0.
         66    2    3    3    0    0  0.33045609816E+02 -0.30090971870E+01 -0.51441602839E+03  0.51548900789E+03  0.19999994787E+01 0.  0.
        -13    1    3    3    0    0 -0.33045609816E+02  0.30090971870E+01 -0.14262826126E+03  0.14643735544E+03  0.10566000000E+00 0.  1.
         13    1    4    4    0    0  0.42621822205E+01 -0.27230994536E+00 -0.68786784163E+02  0.68919323774E+02  0.10566000000E+00 0. -1.
        -13    1    4    4    0    0  0.17982739369E+02 -0.21084335063E+01 -0.26724769157E+03  0.26786034462E+03  0.10566000000E+00 0.  1.
        -14    1    4    4    0    0  0.10800688226E+02 -0.62835373530E+00 -0.17838155266E+03  0.17870933950E+03  0.00000000000E+00 0.  1.
<mgrwt>
<rscale>  0 0.80245323E+02</rscale>
<asrwt>0</asrwt>
<pdfrwt beam="1">  1        2 0.10145914E+00 0.80245323E+02</pdfrwt>
<pdfrwt beam="2">  1       -1 0.37554465E-03 0.80245323E+02</pdfrwt>
<totfact> 0.32715948E+05</totfact>
</mgrwt>
</event>
<event>
 8    1  0.1520917E-013  0.7958022E+02  0.7818608E-02  0.1330247E+00
          2   -1    0    0  501    0  0.00000000000E+00  0.00000000000E+00  0.46954581188E+03  0.46954581189E+03  0.25500000000E-02 0. -1.
         -1   -1    0    0    0  501 -0.00000000000E+00 -0.00000000000E+00 -0.33718795473E+01  0.33718833140E+01  0.50400000000E-02 0.  1.
         24    2    1    2    0    0  0.35527136788E-14  0.88817841970E-15  0.46617393233E+03  0.47291769520E+03  0.79580218947E+02 0.  0.
         66    2    3    3    0    0  0.15128228037E+02  0.70717033153E+01  0.44769488982E+03  0.44801069924E+03  0.19999992247E+01 0.  0.
        -13    1    3    3    0    0 -0.15128228037E+02 -0.70717033153E+01  0.18479042517E+02  0.24906995959E+02  0.10566000000E+00 0.  1.
         13    1    4    4    0    0  0.10363911023E+02  0.49940072148E+01  0.30088595103E+03  0.30110582434E+03  0.10566000000E+00 0. -1.
        -13    1    4    4    0    0  0.14945408741E+01  0.54627689321E+00  0.59381953974E+02  0.59403364321E+02  0.10566000000E+00 0.  1.
        -14    1    4    4    0    0  0.32697761402E+01  0.15314192073E+01  0.87426984812E+02  0.87501510582E+02  0.00000000000E+00 0.  1.
<mgrwt>
<rscale>  0 0.79580219E+02</rscale>
<asrwt>0</asrwt>
<pdfrwt beam="1">  1        2 0.72237793E-01 0.79580219E+02</pdfrwt>
<pdfrwt beam="2">  1       -1 0.51875116E-03 0.79580219E+02</pdfrwt>
<totfact> 0.30249463E+05</totfact>
</mgrwt>
</event>
<event>
 8    1  0.1520917E-013  0.8104596E+02  0.7818608E-02  0.1326109E+00
          2   -1    0    0  501    0  0.00000000000E+00  0.00000000000E+00  0.10611728507E+04  0.10611728507E+04  0.25500000000E-02 0. -1.
         -1   -1    0    0    0  501 -0.00000000000E+00 -0.00000000000E+00 -0.15474460458E+01  0.15474542533E+01  0.50400000000E-02 0.  1.
         24    2    1    2    0    0  0.00000000000E+00 -0.17763568394E-14  0.10596254046E+04  0.10627203049E+04  0.81045964599E+02 0.  0.
         66    2    3    3    0    0 -0.15305884939E+02  0.98903737504E+01  0.10043702716E+04  0.10045375713E+04  0.20000012775E+01 0.  0.
        -13    1    3    3    0    0  0.15305884939E+02 -0.98903737504E+01  0.55255133040E+02  0.58182733676E+02  0.10566000000E+00 0.  1.
         13    1    4    4    0    0 -0.95684056808E+01  0.59301641525E+01  0.63713037834E+03  0.63722982620E+03  0.10566000000E+00 0. -1.
        -13    1    4    4    0    0 -0.23389330735E+01  0.19481365225E+01  0.18488661077E+03  0.18491169744E+03  0.10566000000E+00 0.  1.
         14    1    4    4    0    0 -0.33985461847E+01  0.20120730754E+01  0.18235328248E+03  0.18239604761E+03  0.00000000000E+00 0. -1.
<mgrwt>
<rscale>  0 0.81045965E+02</rscale>
<asrwt>0</asrwt>
<pdfrwt beam="1">  1        2 0.16325775E+00 0.81045965E+02</pdfrwt>
<pdfrwt beam="2">  1       -1 0.23806869E-03 0.81045965E+02</pdfrwt>
<totfact> 0.34102816E+05</totfact>
</mgrwt>
</event>
<event>
 8    1  0.1520917E-013  0.7988242E+02  0.7818608E-02  0.1329385E+00
          2   -1    0    0  501    0  0.00000000000E+00  0.00000000000E+00  0.14124739214E+02  0.14124739444E+02  0.25500000000E-02 0. -1.
         -1   -1    0    0    0  501 -0.00000000000E+00 -0.00000000000E+00 -0.11294369737E+03  0.11294369748E+03  0.50400000000E-02 0.  1.
         24    2    1    2    0    0 -0.17763568394E-14  0.00000000000E+00 -0.98818958151E+02  0.12706843692E+03  0.79882420918E+02 0.  0.
         66    2    3    3    0    0  0.89943746904E+01 -0.27792651210E+02 -0.61698473358E+01  0.29923189296E+02  0.20000010322E+01 0.  0.
        -13    1    3    3    0    0 -0.89943746904E+01  0.27792651210E+02 -0.92649110815E+02  0.97145247626E+02  0.10566000000E+00 0.  1.
         13    1    4    4    0    0  0.56643772519E+01 -0.16742911094E+02 -0.41787430889E+01  0.18162689762E+02  0.10566000000E+00 0. -1.
        -13    1    4    4    0    0  0.23342111259E+01 -0.59347717756E+01 -0.11912267297E+01  0.64884699865E+01  0.10566000000E+00 0.  1.
        -14    1    4    4    0    0  0.99578631253E+00 -0.51149683405E+01 -0.79987751726E+00  0.52720295473E+01  0.00000000000E+00 0.  1.
<mgrwt>
<rscale>  0 0.79882421E+02</rscale>
<asrwt>0</asrwt>
<pdfrwt beam="1">  1        2 0.21730369E-02 0.79882421E+02</pdfrwt>
<pdfrwt beam="2">  1       -1 0.17375953E-01 0.79882421E+02</pdfrwt>
<totfact> 0.11584202E+05</totfact>
</mgrwt>
</event>
<event>
 8    1  0.1520917E-013  0.7985083E+02  0.7818608E-02  0.1329475E+00
         -1   -1    0    0    0  501 -0.00000000000E+00  0.00000000000E+00  0.66410840266E+02  0.66410840458E+02  0.50400000000E-02 0.  1.
          2   -1    0    0  501    0  0.00000000000E+00 -0.00000000000E+00 -0.24002691811E+02  0.24002691947E+02  0.25500000000E-02 0. -1.
         24    2    1    2    0    0  0.44408920985E-15  0.00000000000E+00  0.42408148455E+02  0.90413532405E+02  0.79850834601E+02 0.  0.
         66    2    3    3    0    0  0.33151181145E+01  0.17506264881E+02 -0.19206412748E+02  0.26274428619E+02  0.19999976003E+01 0.  0.
        -13    1    3    3    0    0 -0.33151181145E+01 -0.17506264881E+02  0.61614561203E+02  0.64139103786E+02  0.10566000000E+00 0.  1.
         13    1    4    4    0    0  0.14209438852E+01  0.59413876730E+01 -0.69635804174E+01  0.92640048182E+01  0.10566000000E+00 0. -1.
        -13    1    4    4    0    0  0.17485972962E+01  0.66200071550E+01 -0.66858919553E+01  0.95704964610E+01  0.10566000000E+00 0.  1.
        -14    1    4    4    0    0  0.14557693309E+00  0.49448700532E+01 -0.55569403750E+01  0.74399273396E+01  0.00000000000E+00 0.  1.
<mgrwt>
<rscale>  0 0.79850835E+02</rscale>
<asrwt>0</asrwt>
<pdfrwt beam="1">  1        2 0.36927218E-02 0.79850835E+02</pdfrwt>
<pdfrwt beam="2">  1       -1 0.10217052E-01 0.79850835E+02</pdfrwt>
<totfact> 0.12944790E+05</totfact>
</mgrwt>
</event>
<event>
 8    1  0.1520917E-013  0.7973864E+02  0.7818608E-02  0.1329795E+00
          2   -1    0    0  501    0  0.00000000000E+00  0.00000000000E+00  0.12816611979E+04  0.12816611979E+04  0.25500000000E-02 0. -1.
         -1   -1    0    0    0  501 -0.00000000000E+00 -0.00000000000E+00 -0.12402310774E+01  0.12402413181E+01  0.50400000000E-02 0.  1.
         24    2    1    2    0    0  0.00000000000E+00  0.00000000000E+00  0.12804209668E+04  0.12829014392E+04  0.79738638535E+02 0.  0.
         66    2    3    3    0    0  0.22460045969E+02  0.93260612387E+01  0.11483998181E+04  0.11486590317E+04  0.19999951173E+01 0.  0.
        -13    1    3    3    0    0 -0.22460045969E+02 -0.93260612387E+01  0.13202114876E+03  0.13424240748E+03  0.10566000000E+00 0.  1.
         13    1    4    4    0    0  0.67772228408E+01  0.29400684906E+01  0.37059431404E+03  0.37066795318E+03  0.10566000000E+00 0. -1.
        -13    1    4    4    0    0  0.12035630782E+02  0.51530895180E+01  0.57510065291E+03  0.57524967004E+03  0.10566000000E+00 0.  1.
        -14    1    4    4    0    0  0.36471923471E+01  0.12329032301E+01  0.20270485111E+03  0.20274140852E+03  0.00000000000E+00 0.  1.
<mgrwt>
<rscale>  0 0.79738639E+02</rscale>
<asrwt>0</asrwt>
<pdfrwt beam="1">  1        2 0.19717836E+00 0.79738639E+02</pdfrwt>
<pdfrwt beam="2">  1       -1 0.19080585E-03 0.79738639E+02</pdfrwt>
<totfact> 0.35004689E+05</totfact>
</mgrwt>
</event>
<event>
 8    1  0.1520917E-013  0.8618927E+02  0.7818608E-02  0.1312351E+00
         -1   -1    0    0    0  501 -0.00000000000E+00  0.00000000000E+00  0.10020070341E+03  0.10020070353E+03  0.50400000000E-02 0.  1.
          2   -1    0    0  501    0  0.00000000000E+00 -0.00000000000E+00 -0.18534277858E+02  0.18534278034E+02  0.25500000000E-02 0. -1.
         24    2    1    2    0    0  0.71054273576E-14  0.00000000000E+00  0.81666425549E+02  0.11873498157E+03  0.86189273033E+02 0.  0.
         66    2    3    3    0    0 -0.23901136271E+02  0.92074402576E+01 -0.68487107365E+01  0.26588458102E+02  0.19999985934E+01 0.  0.
        -13    1    3    3    0    0  0.23901136271E+02 -0.92074402576E+01  0.88515136286E+02  0.92146523466E+02  0.10566000000E+00 0.  1.
         13    1    4    4    0    0 -0.10670878685E+02  0.42985122199E+01 -0.26838823758E+01  0.11813519707E+02  0.10566000000E+00 0. -1.
        -13    1    4    4    0    0 -0.58667671630E+01  0.21059811816E+01 -0.25310127940E+01  0.67283953125E+01  0.10566000000E+00 0.  1.
        -14    1    4    4    0    0 -0.73634904226E+01  0.28029468561E+01 -0.16338155667E+01  0.80465430830E+01  0.00000000000E+00 0.  1.
<mgrwt>
<rscale>  0 0.86189273E+02</rscale>
<asrwt>0</asrwt>
<pdfrwt beam="1">  1        2 0.28514273E-02 0.86189273E+02</pdfrwt>
<pdfrwt beam="2">  1       -1 0.15415493E-01 0.86189273E+02</pdfrwt>
<totfact> 0.98400372E+04</totfact>
</mgrwt>
</event>
<event>
 8    1  0.1520917E-013  0.7950469E+02  0.7818608E-02  0.1330463E+00
         -1   -1    0    0    0  501 -0.00000000000E+00  0.00000000000E+00  0.48107608030E+01  0.48107634431E+01  0.50400000000E-02 0.  1.
          2   -1    0    0  501    0  0.00000000000E+00 -0.00000000000E+00 -0.32848201578E+03  0.32848201579E+03  0.25500000000E-02 0. -1.
         24    2    1    2    0    0  0.00000000000E+00  0.55511151231E-16 -0.32367125498E+03  0.33329277924E+03  0.79504687853E+02 0.  0.
         66    2    3    3    0    0  0.33524122443E+02 -0.28993266501E+00 -0.25128912277E+03  0.25352351778E+03  0.19999991860E+01 0.  0.
        -13    1    3    3    0    0 -0.33524122443E+02  0.28993266501E+00 -0.72382132212E+02  0.79769261461E+02  0.10566000000E+00 0.  1.
         13    1    4    4    0    0  0.51167385171E+01 -0.50655760149E+00 -0.39533853167E+02  0.39866957796E+02  0.10566000000E+00 0. -1.
        -13    1    4    4    0    0  0.91642137975E+01 -0.47558250363E+00 -0.66120186899E+02  0.66754020649E+02  0.10566000000E+00 0.  1.
        -14    1    4    4    0    0  0.19243170128E+02  0.69220744012E+00 -0.14563508270E+03  0.14690253933E+03  0.00000000000E+00 0.  1.
<mgrwt>
<rscale>  0 0.79504688E+02</rscale>
<asrwt>0</asrwt>
<pdfrwt beam="1">  1        2 0.50535677E-01 0.79504688E+02</pdfrwt>
<pdfrwt beam="2">  1       -1 0.74011751E-03 0.79504688E+02</pdfrwt>
<totfact> 0.26775186E+05</totfact>
</mgrwt>
</event>
<event>
 8    1  0.1520917E-013  0.8053426E+02  0.7818608E-02  0.1327542E+00
         -1   -1    0    0    0  501 -0.00000000000E+00  0.00000000000E+00  0.14115102596E+03  0.14115102605E+03  0.50400000000E-02 0.  1.
          2   -1    0    0  501    0  0.00000000000E+00 -0.00000000000E+00 -0.11487283687E+02  0.11487283970E+02  0.25500000000E-02 0. -1.
         24    2    1    2    0    0  0.44408920985E-15  0.00000000000E+00  0.12966374227E+03  0.15263831002E+03  0.80534263674E+02 0.  0.
         66    2    3    3    0    0 -0.27975736720E+01  0.36208880981E+02  0.32014969656E+02  0.48454801546E+02  0.20000075988E+01 0.  0.
        -13    1    3    3    0    0  0.27975736720E+01 -0.36208880981E+02  0.97648772615E+02  0.10418350847E+03  0.10566000000E+00 0.  1.
         13    1    4    4    0    0 -0.24061050376E+01  0.28130165757E+02  0.24885538185E+02  0.37635046722E+02  0.10566000000E+00 0. -1.
        -13    1    4    4    0    0 -0.34132884059E+00  0.71961946048E+01  0.59404613373E+01  0.93381993502E+01  0.10566000000E+00 0.  1.
        -14    1    4    4    0    0 -0.50139793729E-01  0.88252061969E+00  0.11889701339E+01  0.14815554739E+01  0.00000000000E+00 0.  1.
<mgrwt>
<rscale>  0 0.80534264E+02</rscale>
<asrwt>0</asrwt>
<pdfrwt beam="1">  1        2 0.17672744E-02 0.80534264E+02</pdfrwt>
<pdfrwt beam="2">  1       -1 0.21715544E-01 0.80534264E+02</pdfrwt>
<totfact> 0.10770733E+05</totfact>
</mgrwt>
</event>
<event>
 8    1  0.1520917E-013  0.8051060E+02  0.7818608E-02  0.1327609E+00
          2   -1    0    0  501    0  0.00000000000E+00  0.00000000000E+00  0.62190416163E+02  0.62190416215E+02  0.25500000000E-02 0. -1.
         -1   -1    0    0    0  501 -0.00000000000E+00 -0.00000000000E+00 -0.26056892518E+02  0.26056893005E+02  0.50400000000E-02 0.  1.
         24    2    1    2    0    0  0.00000000000E+00  0.00000000000E+00  0.36133523645E+02  0.88247309220E+02  0.80510595908E+02 0.  0.
         66    2    3    3    0    0  0.27041093228E+02  0.10620267636E+02  0.48581517661E+02  0.56640750934E+02  0.20000001458E+01 0.  0.
        -13    1    3    3    0    0 -0.27041093228E+02 -0.10620267636E+02 -0.12447994016E+02  0.31606558286E+02  0.10566000000E+00 0.  1.
         13    1    4    4    0    0  0.50437062010E+00  0.34848025738E+00  0.10617286506E+01  0.12305527113E+01  0.10566000000E+00 0. -1.
        -13    1    4    4    0    0  0.25007698706E+02  0.93826064227E+01  0.45036189304E+02  0.52361128797E+02  0.10566000000E+00 0.  1.
        -14    1    4    4    0    0  0.15290239016E+01  0.88918095552E+00  0.24835997063E+01  0.30490694260E+01  0.00000000000E+00 0.  1.
<mgrwt>
<rscale>  0 0.80510596E+02</rscale>
<asrwt>0</asrwt>
<pdfrwt beam="1">  1        2 0.95677564E-02 0.80510596E+02</pdfrwt>
<pdfrwt beam="2">  1       -1 0.40087527E-02 0.80510596E+02</pdfrwt>
<totfact> 0.15427309E+05</totfact>
</mgrwt>
</event>
<event>
 8    1  0.1520917E-013  0.7938827E+02  0.7818608E-02  0.1330796E+00
         -1   -1    0    0    0  501 -0.00000000000E+00  0.00000000000E+00  0.22954079742E+03  0.22954079748E+03  0.50400000000E-02 0.  1.
          2   -1    0    0  501    0  0.00000000000E+00 -0.00000000000E+00 -0.68642445910E+01  0.68642450647E+01  0.25500000000E-02 0. -1.
         24    2    1    2    0    0  0.00000000000E+00  0.00000000000E+00  0.22267655283E+03  0.23640504254E+03  0.79388267134E+02 0.  0.
         66    2    3    3    0    0  0.70766259158E+01 -0.36638594295E+02  0.71329042691E+02  0.80525136153E+02  0.19999987289E+01 0.  0.
        -13    1    3    3    0    0 -0.70766259158E+01  0.36638594295E+02  0.15134751014E+03  0.15587990639E+03  0.10566000000E+00 0.  1.
         13    1    4    4    0    0  0.29462571383E+01 -0.13566969080E+02  0.24764479241E+02  0.28390732243E+02  0.10566000000E+00 0. -1.
        -13    1    4    4    0    0  0.18944614785E+01 -0.12163815217E+02  0.24685533695E+02  0.27585034398E+02  0.10566000000E+00 0.  1.
         14    1    4    4    0    0  0.22359072990E+01 -0.10907809999E+02  0.21879029755E+02  0.24549369512E+02  0.00000000000E+00 0. -1.
<mgrwt>
<rscale>  0 0.79388267E+02</rscale>
<asrwt>0</asrwt>
<pdfrwt beam="1">  1        2 0.10560378E-02 0.79388267E+02</pdfrwt>
<pdfrwt beam="2">  1       -1 0.35313964E-01 0.79388267E+02</pdfrwt>
<totfact> 0.97237114E+04</totfact>
</mgrwt>
</event>
<event>
 8    1  0.1520917E-013  0.7916382E+02  0.7818608E-02  0.1331441E+00
         -1   -1    0    0    0  501 -0.00000000000E+00  0.00000000000E+00  0.18789767703E+03  0.18789767710E+03  0.50400000000E-02 0.  1.
          2   -1    0    0  501    0  0.00000000000E+00 -0.00000000000E+00 -0.83381957564E+01  0.83381961464E+01  0.25500000000E-02 0. -1.
         24    2    1    2    0    0 -0.71054273576E-14  0.00000000000E+00  0.17955948128E+03  0.19623587325E+03  0.79163821489E+02 0.  0.
         66    2    3    3    0    0 -0.33786987242E+02 -0.40968920535E+01  0.39866053341E+02  0.52456145873E+02  0.19999998539E+01 0.  0.
        -13    1    3    3    0    0  0.33786987242E+02  0.40968920535E+01  0.13969342794E+03  0.14377972738E+03  0.10566000000E+00 0.  1.
         13    1    4    4    0    0 -0.73396977065E+01 -0.14073269822E+01  0.94726086720E+01  0.12066201173E+02  0.10566000000E+00 0.  1.
        -13    1    4    4    0    0 -0.14485458046E+02 -0.15692358025E+01  0.15965393088E+02  0.21614715735E+02  0.10566000000E+00 0. -1.
        -14    1    4    4    0    0 -0.11961831490E+02 -0.11203292688E+01  0.14428051581E+02  0.18775228965E+02  0.00000000000E+00 0.  1.
<mgrwt>
<rscale>  0 0.79163821E+02</rscale>
<asrwt>0</asrwt>
<pdfrwt beam="1">  1        2 0.12827994E-02 0.79163821E+02</pdfrwt>
<pdfrwt beam="2">  1       -1 0.28907333E-01 0.79163821E+02</pdfrwt>
<totfact> 0.10421133E+05</totfact>
</mgrwt>
</event>
<event>
 8    1  0.1520917E-013  0.7962662E+02  0.7818608E-02  0.1330114E+00
         -1   -1    0    0    0  501 -0.00000000000E+00  0.00000000000E+00  0.10411554437E+02  0.10411555656E+02  0.50400000000E-02 0.  1.
          2   -1    0    0  501    0  0.00000000000E+00 -0.00000000000E+00 -0.15224428773E+03  0.15224428775E+03  0.25500000000E-02 0. -1.
         24    2    1    2    0    0  0.00000000000E+00  0.00000000000E+00 -0.14183273330E+03  0.16265584341E+03  0.79626623446E+02 0.  0.
         66    2    3    3    0    0  0.31966791241E+02  0.23338039718E+02 -0.62649547514E+02  0.74131677700E+02  0.19999987038E+01 0.  0.
        -13    1    3    3    0    0 -0.31966791241E+02 -0.23338039718E+02 -0.79183185783E+02  0.88524165711E+02  0.10566000000E+00 0.  1.
         13    1    4    4    0    0  0.18637204082E+02  0.14316324496E+02 -0.37554868359E+02  0.44302165009E+02  0.10566000000E+00 0.  1.
        -13    1    4    4    0    0  0.42109541902E+01  0.31206480175E+01 -0.89192685508E+01  0.10345776663E+02  0.10566000000E+00 0. -1.
        -14    1    4    4    0    0  0.91186329689E+01  0.59010672043E+01 -0.16175410604E+02  0.19483736027E+02  0.00000000000E+00 0.  1.
<mgrwt>
<rscale>  0 0.79626623E+02</rscale>
<asrwt>0</asrwt>
<pdfrwt beam="1">  1        2 0.23422196E-01 0.79626623E+02</pdfrwt>
<pdfrwt beam="2">  1       -1 0.16017778E-02 0.79626623E+02</pdfrwt>
<totfact> 0.20377547E+05</totfact>
</mgrwt>
</event>
<event>
 8    1  0.1520917E-013  0.7784014E+02  0.7818608E-02  0.1335295E+00
         -1   -1    0    0    0  501 -0.00000000000E+00  0.00000000000E+00  0.43288707924E+02  0.43288708218E+02  0.50400000000E-02 0.  1.
          2   -1    0    0  501    0  0.00000000000E+00 -0.00000000000E+00 -0.34992306905E+02  0.34992306998E+02  0.25500000000E-02 0. -1.
         24    2    1    2    0    0  0.35527136788E-14  0.00000000000E+00  0.82964010194E+01  0.78281015216E+02  0.77840137932E+02 0.  0.
         66    2    3    3    0    0  0.25332955645E+02  0.67540471597E+01 -0.24741409370E+02  0.36104198430E+02  0.20000029721E+01 0.  0.
        -13    1    3    3    0    0 -0.25332955645E+02 -0.67540471597E+01  0.33037810390E+02  0.42176816785E+02  0.10566000000E+00 0.  1.
         13    1    4    4    0    0  0.67988013548E+01  0.17403333382E+01 -0.59659780404E+01  0.92117597670E+01  0.10566000000E+00 0. -1.
        -13    1    4    4    0    0  0.16923881056E+02  0.41769912878E+01 -0.17204192138E+02  0.24492047635E+02  0.10566000000E+00 0.  1.
        -14    1    4    4    0    0  0.16102732348E+01  0.83672253356E+00 -0.15712391917E+01  0.24003910279E+01  0.00000000000E+00 0.  1.
<mgrwt>
<rscale>  0 0.77840138E+02</rscale>
<asrwt>0</asrwt>
<pdfrwt beam="1">  1        2 0.53834318E-02 0.77840138E+02</pdfrwt>
<pdfrwt beam="2">  1       -1 0.66598013E-02 0.77840138E+02</pdfrwt>
<totfact> 0.14968309E+05</totfact>
</mgrwt>
</event>
<event>
 8    1  0.1520917E-013  0.8368468E+02  0.7818608E-02  0.1318909E+00
          2   -1    0    0  501    0  0.00000000000E+00  0.00000000000E+00  0.25528736302E+03  0.25528736303E+03  0.25500000000E-02 0. -1.
         -1   -1    0    0    0  501 -0.00000000000E+00 -0.00000000000E+00 -0.68580806075E+01  0.68580824595E+01  0.50400000000E-02 0.  1.
         24    2    1    2    0    0  0.35527136788E-14 -0.71054273576E-14  0.24842928241E+03  0.26214544549E+03  0.83684683380E+02 0.  0.
         66    2    3    3    0    0 -0.20414628688E+02  0.34316706730E+02  0.16320748914E+03  0.16803296684E+03  0.20000021902E+01 0.  0.
        -13    1    3    3    0    0  0.20414628688E+02 -0.34316706730E+02  0.85221793272E+02  0.94112478651E+02  0.10566000000E+00 0.  1.
         13    1    4    4    0    0 -0.15528328765E+02  0.24872336553E+02  0.12172761341E+03  0.12520936527E+03  0.10566000000E+00 0. -1.
        -13    1    4    4    0    0 -0.12648170205E+01  0.28133624989E+01  0.12352645823E+02  0.12732391508E+02  0.10566000000E+00 0.  1.
         14    1    4    4    0    0 -0.36214829026E+01  0.66310076777E+01  0.29127229911E+02  0.30091210070E+02  0.00000000000E+00 0. -1.
<mgrwt>
<rscale>  0 0.83684683E+02</rscale>
<asrwt>0</asrwt>
<pdfrwt beam="1">  1        2 0.39274972E-01 0.83684683E+02</pdfrwt>
<pdfrwt beam="2">  1       -1 0.10550896E-02 0.83684683E+02</pdfrwt>
<totfact> 0.21358398E+05</totfact>
</mgrwt>
</event>
<event>
 8    1  0.1520917E-013  0.7984587E+02  0.7818608E-02  0.1329489E+00
         -1   -1    0    0    0  501 -0.00000000000E+00  0.00000000000E+00  0.15742853407E+01  0.15742934084E+01  0.50400000000E-02 0.  1.
          2   -1    0    0  501    0  0.00000000000E+00 -0.00000000000E+00 -0.10124192670E+04  0.10124192670E+04  0.25500000000E-02 0. -1.
         24    2    1    2    0    0 -0.17763568394E-14 -0.17763568394E-14 -0.10108449817E+04  0.10139935604E+04  0.79845874097E+02 0.  0.
         66    2    3    3    0    0  0.14764298471E+02  0.54363746081E+01 -0.97135737373E+03  0.97148684303E+03  0.20000023442E+01 0.  0.
        -13    1    3    3    0    0 -0.14764298471E+02 -0.54363746081E+01 -0.39487607924E+02  0.42506717373E+02  0.10566000000E+00 0.  1.
         13    1    4    4    0    0  0.59885891711E+00  0.10420098831E+00 -0.24358807561E+02  0.24366619784E+02  0.10566000000E+00 0.  1.
        -13    1    4    4    0    0  0.42402536769E+00  0.13543586375E-01 -0.32931123586E+02  0.32934025652E+02  0.10566000000E+00 0. -1.
         14    1    4    4    0    0  0.13741414186E+02  0.53186300335E+01 -0.91406744258E+03  0.91418619760E+03  0.00000000000E+00 0. -1.
<mgrwt>
<rscale>  0 0.79845874E+02</rscale>
<asrwt>0</asrwt>
<pdfrwt beam="1">  1        2 0.15575629E+00 0.79845874E+02</pdfrwt>
<pdfrwt beam="2">  1       -1 0.24219917E-03 0.79845874E+02</pdfrwt>
<totfact> 0.35424364E+05</totfact>
</mgrwt>
</event>
<event>
 8    1  0.1520917E-013  0.8400780E+02  0.7818608E-02  0.1318048E+00
         -1   -1    0    0    0  501 -0.00000000000E+00  0.00000000000E+00  0.15187606751E+02  0.15187607588E+02  0.50400000000E-02 0.  1.
          2   -1    0    0  501    0  0.00000000000E+00 -0.00000000000E+00 -0.11616889887E+03  0.11616889890E+03  0.25500000000E-02 0. -1.
         24    2    1    2    0    0 -0.17763568394E-14  0.00000000000E+00 -0.10098129212E+03  0.13135650649E+03  0.84007799866E+02 0.  0.
         66    2    3    3    0    0 -0.12543947507E+02  0.34003743447E+02 -0.17397039759E+02  0.40252480263E+02  0.19999968674E+01 0.  0.
        -13    1    3    3    0    0  0.12543947507E+02 -0.34003743447E+02 -0.83584252363E+02  0.91104026226E+02  0.10566000000E+00 0.  1.
         13    1    4    4    0    0 -0.76102578455E+01  0.20427048267E+02 -0.10170046514E+02  0.24054549165E+02  0.10566000000E+00 0. -1.
        -13    1    4    4    0    0 -0.20571616642E+01  0.74229968100E+01 -0.38468329560E+01  0.86105797471E+01  0.10566000000E+00 0.  1.
        -14    1    4    4    0    0 -0.28765279970E+01  0.61536983697E+01 -0.33801602884E+01  0.75873513507E+01  0.00000000000E+00 0.  1.
<mgrwt>
<rscale>  0 0.84007800E+02</rscale>
<asrwt>0</asrwt>
<pdfrwt beam="1">  1        2 0.17872138E-01 0.84007800E+02</pdfrwt>
<pdfrwt beam="2">  1       -1 0.23365550E-02 0.84007800E+02</pdfrwt>
<totfact> 0.16237498E+05</totfact>
</mgrwt>
</event>
<event>
 8    1  0.1520917E-013  0.7889942E+02  0.7818608E-02  0.1332204E+00
         -1   -1    0    0    0  501 -0.00000000000E+00  0.00000000000E+00  0.85973769020E+00  0.85975246295E+00  0.50400000000E-02 0.  1.
          2   -1    0    0  501    0  0.00000000000E+00 -0.00000000000E+00 -0.18101641156E+04  0.18101641156E+04  0.25500000000E-02 0. -1.
         24    2    1    2    0    0  0.17763568394E-14  0.17763568394E-14 -0.18093043779E+04  0.18110238681E+04  0.78899421903E+02 0.  0.
         66    2    3    3    0    0  0.99018200794E+01  0.11905550459E+02 -0.17374332371E+04  0.17375033932E+04  0.19999949987E+01 0.  0.
        -13    1    3    3    0    0 -0.99018200794E+01 -0.11905550459E+02 -0.71871140810E+02  0.73520474821E+02  0.10566000000E+00 0.  1.
         13    1    4    4    0    0  0.38297916870E+01  0.49303085990E+01 -0.77284551734E+03  0.77287073957E+03  0.10566000000E+00 0. -1.
        -13    1    4    4    0    0  0.38255569692E+01  0.42701867745E+01 -0.64962666407E+03  0.64965197084E+03  0.10566000000E+00 0.  1.
        -14    1    4    4    0    0  0.22464714232E+01  0.27050550854E+01 -0.31496105568E+03  0.31498068282E+03  0.00000000000E+00 0.  1.
<mgrwt>
<rscale>  0 0.78899422E+02</rscale>
<asrwt>0</asrwt>
<pdfrwt beam="1">  1        2 0.27848374E+00 0.78899422E+02</pdfrwt>
<pdfrwt beam="2">  1       -1 0.13226992E-03 0.78899422E+02</pdfrwt>
<totfact> 0.31205614E+05</totfact>
</mgrwt>
</event>
<event>
 8    1  0.1520917E-013  0.8087272E+02  0.7818608E-02  0.1326593E+00
         -1   -1    0    0    0  501 -0.00000000000E+00  0.00000000000E+00  0.20134138499E+03  0.20134138505E+03  0.50400000000E-02 0.  1.
          2   -1    0    0  501    0  0.00000000000E+00 -0.00000000000E+00 -0.81210285619E+01  0.81210289623E+01  0.25500000000E-02 0. -1.
         24    2    1    2    0    0  0.00000000000E+00  0.00000000000E+00  0.19322035643E+03  0.20946241401E+03  0.80872719423E+02 0.  0.
         66    2    3    3    0    0  0.32593292541E+02  0.18901383841E+02  0.58823770217E+02  0.69884340597E+02  0.20000221058E+01 0.  0.
        -13    1    3    3    0    0 -0.32593292541E+02 -0.18901383841E+02  0.13439658621E+03  0.13957807342E+03  0.10566000000E+00 0.  1.
         13    1    4    4    0    0  0.19233640072E+02  0.11173196245E+02  0.33053630383E+02  0.39841270942E+02  0.10566000000E+00 0. -1.
        -13    1    4    4    0    0  0.21598278553E+01  0.11126889002E+01  0.38341193370E+01  0.45403268692E+01  0.10566000000E+00 0.  1.
         14    1    4    4    0    0  0.11199824614E+02  0.66154986960E+01  0.21936020497E+02  0.25502742786E+02  0.00000000000E+00 0. -1.
<mgrwt>
<rscale>  0 0.80872719E+02</rscale>
<asrwt>0</asrwt>
<pdfrwt beam="1">  1        2 0.12493891E-02 0.80872719E+02</pdfrwt>
<pdfrwt beam="2">  1       -1 0.30975597E-01 0.80872719E+02</pdfrwt>
<totfact> 0.96693617E+04</totfact>
</mgrwt>
</event>
<event>
 8    1  0.1520917E-013  0.8247877E+02  0.7818608E-02  0.1322161E+00
         -1   -1    0    0    0  501 -0.00000000000E+00  0.00000000000E+00  0.11818372825E+03  0.11818372835E+03  0.50400000000E-02 0.  1.
          2   -1    0    0  501    0  0.00000000000E+00 -0.00000000000E+00 -0.14390192948E+02  0.14390193174E+02  0.25500000000E-02 0. -1.
         24    2    1    2    0    0  0.00000000000E+00  0.00000000000E+00  0.10379353530E+03  0.13257392153E+03  0.82478765142E+02 0.  0.
         66    2    3    3    0    0  0.22688774598E+02 -0.24979497751E+02  0.13892391099E+02  0.36547973508E+02  0.20000091087E+01 0.  0.
        -13    1    3    3    0    0 -0.22688774598E+02  0.24979497751E+02  0.89901144200E+02  0.96025948020E+02  0.10566000000E+00 0.  1.
         13    1    4    4    0    0  0.16530880539E+02 -0.18463754566E+02  0.94186044702E+01  0.26512289948E+02  0.10566000000E+00 0. -1.
        -13    1    4    4    0    0  0.27466576120E+01 -0.25465587383E+01  0.17464612105E+01  0.41340513108E+01  0.10566000000E+00 0.  1.
         14    1    4    4    0    0  0.34112364466E+01 -0.39691844465E+01  0.27273254185E+01  0.59016322491E+01  0.00000000000E+00 0. -1.
<mgrwt>
<rscale>  0 0.82478765E+02</rscale>
<asrwt>0</asrwt>
<pdfrwt beam="1">  1        2 0.22138759E-02 0.82478765E+02</pdfrwt>
<pdfrwt beam="2">  1       -1 0.18182112E-01 0.82478765E+02</pdfrwt>
<totfact> 0.10582227E+05</totfact>
</mgrwt>
</event>
<event>
 8    1  0.1520917E-013  0.8055229E+02  0.7818608E-02  0.1327491E+00
          2   -1    0    0  501    0  0.00000000000E+00  0.00000000000E+00  0.84740433184E+02  0.84740433222E+02  0.25500000000E-02 0. -1.
         -1   -1    0    0    0  501 -0.00000000000E+00 -0.00000000000E+00 -0.19142782730E+02  0.19142783393E+02  0.50400000000E-02 0.  1.
         24    2    1    2    0    0  0.00000000000E+00  0.00000000000E+00  0.65597650454E+02  0.10388321662E+03  0.80552287052E+02 0.  0.
         66    2    3    3    0    0 -0.19973763661E+02  0.19844010974E+02  0.69915433079E+02  0.75398301008E+02  0.20000014921E+01 0.  0.
        -13    1    3    3    0    0  0.19973763661E+02 -0.19844010974E+02 -0.43177826251E+01  0.28484915607E+02  0.10566000000E+00 0.  1.
         13    1    4    4    0    0 -0.88160787921E+01  0.86532066374E+01  0.31082264671E+02  0.33447265530E+02  0.10566000000E+00 0. -1.
        -13    1    4    4    0    0 -0.28432104680E+01  0.37915175361E+01  0.11666406730E+02  0.12592682836E+02  0.10566000000E+00 0.  1.
         14    1    4    4    0    0 -0.83144744009E+01  0.73992868003E+01  0.27166761679E+02  0.29358352641E+02  0.00000000000E+00 0. -1.
<mgrwt>
<rscale>  0 0.80552287E+02</rscale>
<asrwt>0</asrwt>
<pdfrwt beam="1">  1        2 0.13036990E-01 0.80552287E+02</pdfrwt>
<pdfrwt beam="2">  1       -1 0.29450436E-02 0.80552287E+02</pdfrwt>
<totfact> 0.16636180E+05</totfact>
</mgrwt>
</event>
<event>
 8    1  0.1520917E-013  0.8043610E+02  0.7818608E-02  0.1327818E+00
         -1   -1    0    0    0  501 -0.00000000000E+00  0.00000000000E+00  0.25668026657E+01  0.25668076138E+01  0.50400000000E-02 0.  1.
          2   -1    0    0  501    0  0.00000000000E+00 -0.00000000000E+00 -0.63015743721E+03  0.63015743722E+03  0.25500000000E-02 0. -1.
         24    2    1    2    0    0  0.35527136788E-14 -0.44408920985E-15 -0.62759063455E+03  0.63272424483E+03  0.80436095297E+02 0.  0.
         66    2    3    3    0    0  0.25034712373E+02 -0.37512556461E+01 -0.55956934509E+03  0.56014521393E+03  0.19999966888E+01 0.  0.
        -13    1    3    3    0    0 -0.25034712373E+02  0.37512556461E+01 -0.68021289457E+02  0.72579030897E+02  0.10566000000E+00 0.  1.
         13    1    4    4    0    0  0.44014536699E+01 -0.16988648161E+00 -0.91729197282E+02  0.91834952245E+02  0.10566000000E+00 0. -1.
        -13    1    4    4    0    0  0.88214780701E+00  0.73562053645E-01 -0.19198512926E+02  0.19219200262E+02  0.10566000000E+00 0.  1.
        -14    1    4    4    0    0  0.19751110896E+02 -0.36549312181E+01 -0.44864163488E+03  0.44909106143E+03  0.00000000000E+00 0.  1.
<mgrwt>
<rscale>  0 0.80436095E+02</rscale>
<asrwt>0</asrwt>
<pdfrwt beam="1">  1        2 0.96947175E-01 0.80436095E+02</pdfrwt>
<pdfrwt beam="2">  1       -1 0.39489360E-03 0.80436095E+02</pdfrwt>
<totfact> 0.32136483E+05</totfact>
</mgrwt>
</event>
<event>
 8    1  0.1520917E-013  0.7942756E+02  0.7818608E-02  0.1330684E+00
         -1   -1    0    0    0  501 -0.00000000000E+00  0.00000000000E+00  0.74226334608E+02  0.74226334779E+02  0.50400000000E-02 0.  1.
          2   -1    0    0  501    0  0.00000000000E+00 -0.00000000000E+00 -0.21248313773E+02  0.21248313926E+02  0.25500000000E-02 0. -1.
         24    2    1    2    0    0  0.44408920985E-15  0.00000000000E+00  0.52978020835E+02  0.95474648705E+02  0.79427563564E+02 0.  0.
         66    2    3    3    0    0  0.35680802992E+01 -0.33123213380E+02  0.57687366707E+00  0.33379803104E+02  0.20000026095E+01 0.  0.
        -13    1    3    3    0    0 -0.35680802992E+01  0.33123213380E+02  0.52401147168E+02  0.62094845601E+02  0.10566000000E+00 0.  1.
         13    1    4    4    0    0  0.73040398355E+00 -0.59471339006E+01  0.44708997532E+00  0.60094047203E+01  0.10566000000E+00 0. -1.
        -13    1    4    4    0    0  0.15599798679E+01 -0.17342079555E+02 -0.63763703071E+00  0.17424092674E+02  0.10566000000E+00 0.  1.
        -14    1    4    4    0    0  0.12776964477E+01 -0.98339999242E+01  0.76742072246E+00  0.99463057105E+01  0.00000000000E+00 0.  1.
<mgrwt>
<rscale>  0 0.79427564E+02</rscale>
<asrwt>0</asrwt>
<pdfrwt beam="1">  1        2 0.32689713E-02 0.79427564E+02</pdfrwt>
<pdfrwt beam="2">  1       -1 0.11419436E-01 0.79427564E+02</pdfrwt>
<totfact> 0.12828619E+05</totfact>
</mgrwt>
</event>
<event>
 8    1  0.1520917E-013  0.8205581E+02  0.7818608E-02  0.1323317E+00
         -1   -1    0    0    0  501 -0.00000000000E+00  0.00000000000E+00  0.31590608060E+01  0.31590648265E+01  0.50400000000E-02 0.  1.
          2   -1    0    0  501    0  0.00000000000E+00 -0.00000000000E+00 -0.53284440060E+03  0.53284440061E+03  0.25500000000E-02 0. -1.
         24    2    1    2    0    0  0.17763568394E-14  0.35527136788E-14 -0.52968533980E+03  0.53600346544E+03  0.82055808832E+02 0.  0.
         66    2    3    3    0    0 -0.10429518457E+02 -0.29014795381E+02 -0.44156804877E+03  0.44264768710E+03  0.19999990128E+01 0.  0.
        -13    1    3    3    0    0  0.10429518457E+02  0.29014795381E+02 -0.88117291025E+02  0.93355778332E+02  0.10566000000E+00 0.  1.
         13    1    4    4    0    0 -0.43824099056E+01 -0.12727757066E+02 -0.18676368587E+03  0.18724819583E+03  0.10566000000E+00 0. -1.
        -13    1    4    4    0    0 -0.29970159527E+01 -0.77491589225E+01 -0.11225866070E+03  0.11256575693E+03  0.10566000000E+00 0.  1.
        -14    1    4    4    0    0 -0.30500925991E+01 -0.85378793924E+01 -0.14254570220E+03  0.14283373434E+03  0.00000000000E+00 0.  1.
<mgrwt>
<rscale>  0 0.82055809E+02</rscale>
<asrwt>0</asrwt>
<pdfrwt beam="1">  1        2 0.81975990E-01 0.82055809E+02</pdfrwt>
<pdfrwt beam="2">  1       -1 0.48601009E-03 0.82055809E+02</pdfrwt>
<totfact> 0.29073981E+05</totfact>
</mgrwt>
</event>
<event>
 8    1  0.1520917E-013  0.8026130E+02  0.7818608E-02  0.1328312E+00
         -1   -1    0    0    0  501 -0.00000000000E+00  0.00000000000E+00  0.78538718592E+02  0.78538718754E+02  0.50400000000E-02 0.  1.
          2   -1    0    0  501    0  0.00000000000E+00 -0.00000000000E+00 -0.20505417368E+02  0.20505417527E+02  0.25500000000E-02 0. -1.
         24    2    1    2    0    0 -0.14210854715E-13 -0.35527136788E-14  0.58033301223E+02  0.99044136281E+02  0.80261303756E+02 0.  0.
         66    2    3    3    0    0 -0.35266192809E+02 -0.17162082319E+02  0.18693633142E+02  0.43493600067E+02  0.19999754960E+01 0.  0.
        -13    1    3    3    0    0  0.35266192809E+02  0.17162082319E+02  0.39339668082E+02  0.55550536213E+02  0.10566000000E+00 0.  1.
         13    1    4    4    0    0 -0.18127287681E+00 -0.12725025487E+00  0.88664168173E-02  0.24555067130E+00  0.10566000000E+00 0.  1.
        -13    1    4    4    0    0 -0.79117138906E+01 -0.37590327671E+01  0.43052036154E+01  0.97607113591E+01  0.10566000000E+00 0. -1.
         14    1    4    4    0    0 -0.27173206042E+02 -0.13275799297E+02  0.14379563110E+02  0.33487338037E+02  0.00000000000E+00 0. -1.
<mgrwt>
<rscale>  0 0.80261304E+02</rscale>
<asrwt>0</asrwt>
<pdfrwt beam="1">  1        2 0.31546797E-02 0.80261304E+02</pdfrwt>
<pdfrwt beam="2">  1       -1 0.12082880E-01 0.80261304E+02</pdfrwt>
<totfact> 0.12362267E+05</totfact>
</mgrwt>
</event>
<event>
 8    1  0.1520917E-013  0.7776904E+02  0.7818608E-02  0.1335504E+00
          2   -1    0    0  501    0  0.00000000000E+00  0.00000000000E+00  0.48655682881E+02  0.48655682948E+02  0.25500000000E-02 0. -1.
         -1   -1    0    0    0  501 -0.00000000000E+00 -0.00000000000E+00 -0.31075629464E+02  0.31075629872E+02  0.50400000000E-02 0.  1.
         24    2    1    2    0    0  0.00000000000E+00  0.00000000000E+00  0.17580053417E+02  0.79731312820E+02  0.77769042465E+02 0.  0.
         66    2    3    3    0    0  0.31781674834E+02  0.13169019722E+02  0.27321149164E+02  0.43976620176E+02  0.19999986798E+01 0.  0.
        -13    1    3    3    0    0 -0.31781674834E+02 -0.13169019722E+02 -0.97410957474E+01  0.35754692644E+02  0.10566000000E+00 0.  1.
         13    1    4    4    0    0  0.11965055325E+02  0.45451997201E+01  0.10540893197E+02  0.16581404731E+02  0.10566000000E+00 0. -1.
        -13    1    4    4    0    0  0.11177274143E+02  0.55197640462E+01  0.10034390041E+02  0.16003105946E+02  0.10566000000E+00 0.  1.
        -14    1    4    4    0    0  0.86393453664E+01  0.31040559553E+01  0.67458659262E+01  0.11392109499E+02  0.00000000000E+00 0.  1.
<mgrwt>
<rscale>  0 0.77769042E+02</rscale>
<asrwt>0</asrwt>
<pdfrwt beam="1">  1        2 0.74854897E-02 0.77769042E+02</pdfrwt>
<pdfrwt beam="2">  1       -1 0.47808661E-02 0.77769042E+02</pdfrwt>
<totfact> 0.16050397E+05</totfact>
</mgrwt>
</event>
<event>
 8    1  0.1520917E-013  0.7400883E+02  0.7818608E-02  0.1346968E+00
          2   -1    0    0  501    0  0.00000000000E+00  0.00000000000E+00  0.10687025217E+03  0.10687025220E+03  0.25500000000E-02 0. -1.
         -1   -1    0    0    0  501 -0.00000000000E+00 -0.00000000000E+00 -0.12812983192E+02  0.12812984184E+02  0.50400000000E-02 0.  1.
         24    2    1    2    0    0 -0.88817841970E-15  0.00000000000E+00  0.94057268974E+02  0.11968323638E+03  0.74008832065E+02 0.  0.
         66    2    3    3    0    0 -0.67309951366E+01  0.34443855526E+02  0.65896685647E+02  0.74686402087E+02  0.19999996363E+01 0.  0.
        -13    1    3    3    0    0  0.67309951366E+01 -0.34443855526E+02  0.28160583328E+02  0.44996834293E+02  0.10566000000E+00 0.  1.
         13    1    4    4    0    0 -0.26486076756E+01  0.14047889691E+02  0.28815368744E+02  0.32166674794E+02  0.10566000000E+00 0. -1.
        -13    1    4    4    0    0 -0.39767459236E+01  0.19377962298E+02  0.35334803582E+02  0.40495424916E+02  0.10566000000E+00 0.  1.
        -14    1    4    4    0    0 -0.10564153735E+00  0.10180035363E+01  0.17465133208E+01  0.20243023771E+01  0.00000000000E+00 0.  1.
<mgrwt>
<rscale>  0 0.74008832E+02</rscale>
<asrwt>0</asrwt>
<pdfrwt beam="1">  1        2 0.16441577E-01 0.74008832E+02</pdfrwt>
<pdfrwt beam="2">  1       -1 0.19712282E-02 0.74008832E+02</pdfrwt>
<totfact> 0.22219911E+05</totfact>
</mgrwt>
</event>
<event>
 8    1  0.1520917E-013  0.8088950E+02  0.7818608E-02  0.1326546E+00
          2   -1    0    0  501    0  0.00000000000E+00  0.00000000000E+00  0.21387702212E+02  0.21387702364E+02  0.25500000000E-02 0. -1.
         -1   -1    0    0    0  501 -0.00000000000E+00 -0.00000000000E+00 -0.76482169914E+02  0.76482170080E+02  0.50400000000E-02 0.  1.
         24    2    1    2    0    0  0.71054273576E-14 -0.35527136788E-14 -0.55094467702E+02  0.97869872444E+02  0.80889502167E+02 0.  0.
         66    2    3    3    0    0  0.37611954892E+02 -0.14245226060E+02 -0.22696098297E+02  0.46224435856E+02  0.19999939944E+01 0.  0.
        -13    1    3    3    0    0 -0.37611954892E+02  0.14245226060E+02 -0.32398369404E+02  0.51645436588E+02  0.10566000000E+00 0.  1.
         13    1    4    4    0    0  0.25908378029E+02 -0.10466041076E+02 -0.15653639093E+02  0.32028575504E+02  0.10566000000E+00 0. -1.
        -13    1    4    4    0    0  0.11496046518E+02 -0.36618849500E+01 -0.70128715472E+01  0.13955644675E+02  0.10566000000E+00 0.  1.
        -14    1    4    4    0    0  0.20753034440E+00 -0.11730003352E+00 -0.29587657059E-01  0.24021567634E+00  0.00000000000E+00 0.  1.
<mgrwt>
<rscale>  0 0.80889502E+02</rscale>
<asrwt>0</asrwt>
<pdfrwt beam="1">  1        2 0.32904158E-02 0.80889502E+02</pdfrwt>
<pdfrwt beam="2">  1       -1 0.11766488E-01 0.80889502E+02</pdfrwt>
<totfact> 0.12192362E+05</totfact>
</mgrwt>
</event>
<event>
 8    1  0.1520917E-013  0.8035844E+02  0.7818608E-02  0.1328037E+00
         -1   -1    0    0    0  501 -0.00000000000E+00  0.00000000000E+00  0.59046675881E+01  0.59046697391E+01  0.50400000000E-02 0.  1.
          2   -1    0    0  501    0  0.00000000000E+00 -0.00000000000E+00 -0.27340564595E+03  0.27340564596E+03  0.25500000000E-02 0. -1.
         24    2    1    2    0    0 -0.88817841970E-15  0.35527136788E-14 -0.26750097836E+03  0.27931031570E+03  0.80358440954E+02 0.  0.
         66    2    3    3    0    0  0.44681737877E+01 -0.29060526897E+02 -0.22888771509E+03  0.23077708930E+03  0.20000064972E+01 0.  0.
        -13    1    3    3    0    0 -0.44681737877E+01  0.29060526897E+02 -0.38613263279E+02  0.48533226408E+02  0.10566000000E+00 0.  1.
         13    1    4    4    0    0  0.24930686728E+01 -0.11768871994E+02 -0.95535270254E+02  0.96289774981E+02  0.10566000000E+00 0. -1.
        -13    1    4    4    0    0  0.15768075771E+00 -0.52766310390E+01 -0.39294072279E+02  0.39647231665E+02  0.10566000000E+00 0.  1.
        -14    1    4    4    0    0  0.18174243572E+01 -0.12015023864E+02 -0.94058372553E+02  0.94840082650E+02  0.00000000000E+00 0.  1.
<mgrwt>
<rscale>  0 0.80358441E+02</rscale>
<asrwt>0</asrwt>
<pdfrwt beam="1">  1        2 0.42062397E-01 0.80358441E+02</pdfrwt>
<pdfrwt beam="2">  1       -1 0.90841078E-03 0.80358441E+02</pdfrwt>
<totfact> 0.24363776E+05</totfact>
</mgrwt>
</event>
<event>
 8    1  0.1520917E-013  0.8863937E+02  0.7818608E-02  0.1306181E+00
          2   -1    0    0  501    0  0.00000000000E+00  0.00000000000E+00  0.33333093586E+03  0.33333093587E+03  0.25500000000E-02 0. -1.
         -1   -1    0    0    0  501 -0.00000000000E+00 -0.00000000000E+00 -0.58927447187E+01  0.58927468740E+01  0.50400000000E-02 0.  1.
         24    2    1    2    0    0  0.00000000000E+00  0.00000000000E+00  0.32743819114E+03  0.33922368274E+03  0.88639370013E+02 0.  0.
         66    2    3    3    0    0  0.41776892348E+02  0.14011539282E+02  0.18117086491E+03  0.18646317131E+03  0.19999986373E+01 0.  0.
        -13    1    3    3    0    0 -0.41776892348E+02 -0.14011539282E+02  0.14626732623E+03  0.15276051143E+03  0.10566000000E+00 0.  1.
         13    1    4    4    0    0  0.11393580092E+02  0.42861456685E+01  0.50203188076E+02  0.51658067802E+02  0.10566000000E+00 0. -1.
        -13    1    4    4    0    0  0.14993834484E+02  0.51524525219E+01  0.67810009481E+02  0.69638864073E+02  0.10566000000E+00 0.  1.
        -14    1    4    4    0    0  0.15389477773E+02  0.45729410913E+01  0.63157667353E+02  0.65166239433E+02  0.00000000000E+00 0.  1.
<mgrwt>
<rscale>  0 0.88639370E+02</rscale>
<asrwt>0</asrwt>
<pdfrwt beam="1">  1        2 0.51281683E-01 0.88639370E+02</pdfrwt>
<pdfrwt beam="2">  1       -1 0.90657627E-03 0.88639370E+02</pdfrwt>
<totfact> 0.20219421E+05</totfact>
</mgrwt>
</event>
<event>
 8    1  0.1520917E-013  0.8606717E+02  0.7818608E-02  0.1312665E+00
          2   -1    0    0  501    0  0.00000000000E+00  0.00000000000E+00  0.23183308237E+03  0.23183308239E+03  0.25500000000E-02 0. -1.
         -1   -1    0    0    0  501 -0.00000000000E+00 -0.00000000000E+00 -0.79880292502E+01  0.79880308402E+01  0.50400000000E-02 0.  1.
         24    2    1    2    0    0  0.00000000000E+00  0.00000000000E+00  0.22384505312E+03  0.23982111323E+03  0.86067174591E+02 0.  0.
         66    2    3    3    0    0  0.35554048301E+02 -0.11854385677E+02  0.17078051719E+03  0.17485594604E+03  0.20000005800E+01 0.  0.
        -13    1    3    3    0    0 -0.35554048301E+02  0.11854385677E+02  0.53064535935E+02  0.64965167193E+02  0.10566000000E+00 0.  1.
         13    1    4    4    0    0  0.24208781733E+02 -0.76790210125E+01  0.11747324476E+03  0.12018738235E+03  0.10566000000E+00 0. -1.
        -13    1    4    4    0    0  0.10741102666E+01 -0.57805429788E+00  0.45853975023E+01  0.47460398150E+01  0.10566000000E+00 0.  1.
        -14    1    4    4    0    0  0.10271156301E+02 -0.35973103668E+01  0.48721874927E+02  0.49922523875E+02  0.00000000000E+00 0.  1.
<mgrwt>
<rscale>  0 0.86067175E+02</rscale>
<asrwt>0</asrwt>
<pdfrwt beam="1">  1        2 0.35666626E-01 0.86067175E+02</pdfrwt>
<pdfrwt beam="2">  1       -1 0.12289278E-02 0.86067175E+02</pdfrwt>
<totfact> 0.19153827E+05</totfact>
</mgrwt>
</event>
<event>
 8    1  0.1520917E-013  0.7739582E+02  0.7818608E-02  0.1336608E+00
          2   -1    0    0  501    0  0.00000000000E+00  0.00000000000E+00  0.39398094493E+03  0.39398094494E+03  0.25500000000E-02 0. -1.
         -1   -1    0    0    0  501 -0.00000000000E+00 -0.00000000000E+00 -0.38010154304E+01  0.38010187718E+01  0.50400000000E-02 0.  1.
         24    2    1    2    0    0 -0.11102230246E-15  0.00000000000E+00  0.39017992950E+03  0.39778196371E+03  0.77395822037E+02 0.  0.
         66    2    3    3    0    0 -0.77978583964E+00 -0.38255644708E+02  0.16641026177E+03  0.17076439220E+03  0.20000001206E+01 0.  0.
        -13    1    3    3    0    0  0.77978583964E+00  0.38255644708E+02  0.22376966773E+03  0.22701757152E+03  0.10566000000E+00 0.  1.
         13    1    4    4    0    0 -0.41532944365E+00 -0.13077543145E+02  0.53892962495E+02  0.55458608022E+02  0.10566000000E+00 0. -1.
        -13    1    4    4    0    0  0.28544280866E+00 -0.16145339041E+02  0.71751998763E+02  0.73546678653E+02  0.10566000000E+00 0.  1.
         14    1    4    4    0    0 -0.64989920465E+00 -0.90327625213E+01  0.40765300515E+02  0.41759105520E+02  0.00000000000E+00 0. -1.
<mgrwt>
<rscale>  0 0.77395822E+02</rscale>
<asrwt>0</asrwt>
<pdfrwt beam="1">  1        2 0.60612477E-01 0.77395822E+02</pdfrwt>
<pdfrwt beam="2">  1       -1 0.58477164E-03 0.77395822E+02</pdfrwt>
<totfact> 0.30637747E+05</totfact>
</mgrwt>
</event>
<event>
 8    1  0.1520917E-013  0.8086043E+02  0.7818608E-02  0.1326627E+00
          2   -1    0    0  501    0  0.00000000000E+00  0.00000000000E+00  0.93761214393E+02  0.93761214428E+02  0.25500000000E-02 0. -1.
         -1   -1    0    0    0  501 -0.00000000000E+00 -0.00000000000E+00 -0.17433673681E+02  0.17433674409E+02  0.50400000000E-02 0.  1.
         24    2    1    2    0    0 -0.35527136788E-14  0.00000000000E+00  0.76327540712E+02  0.11119488884E+03  0.80860434283E+02 0.  0.
         66    2    3    3    0    0 -0.16942580096E+02  0.36419526999E+02  0.44207069431E+02  0.59763684238E+02  0.19999997439E+01 0.  0.
        -13    1    3    3    0    0  0.16942580096E+02 -0.36419526999E+02  0.32120471281E+02  0.51431204599E+02  0.10566000000E+00 0.  1.
         13    1    4    4    0    0 -0.29500214240E+01  0.75409796981E+01  0.93241917373E+01  0.12349927805E+02  0.10566000000E+00 0. -1.
        -13    1    4    4    0    0 -0.27168781130E+01  0.55923478948E+01  0.74720154805E+01  0.97210061740E+01  0.10566000000E+00 0.  1.
        -14    1    4    4    0    0 -0.11275680559E+02  0.23286199406E+02  0.27410862213E+02  0.37692750259E+02  0.00000000000E+00 0.  1.
<mgrwt>
<rscale>  0 0.80860434E+02</rscale>
<asrwt>0</asrwt>
<pdfrwt beam="1">  1        2 0.14424802E-01 0.80860434E+02</pdfrwt>
<pdfrwt beam="2">  1       -1 0.26821037E-02 0.80860434E+02</pdfrwt>
<totfact> 0.16919804E+05</totfact>
</mgrwt>
</event>
<event>
 8    1  0.1520917E-013  0.7913615E+02  0.7818608E-02  0.1331521E+00
          2   -1    0    0  501    0  0.00000000000E+00  0.00000000000E+00  0.93642845135E+02  0.93642845170E+02  0.25500000000E-02 0. -1.
         -1   -1    0    0    0  501 -0.00000000000E+00 -0.00000000000E+00 -0.16719190613E+02  0.16719191373E+02  0.50400000000E-02 0.  1.
         24    2    1    2    0    0  0.17763568394E-14  0.00000000000E+00  0.76923654522E+02  0.11036203654E+03  0.79136151567E+02 0.  0.
         66    2    3    3    0    0 -0.13058352674E+02  0.98298619380E+01  0.88700674832E+02  0.90216165211E+02  0.19999973380E+01 0.  0.
        -13    1    3    3    0    0  0.13058352674E+02 -0.98298619380E+01 -0.11777020310E+02  0.20145871332E+02  0.10566000000E+00 0.  1.
         13    1    4    4    0    0 -0.16632142752E+01  0.17069795272E+01  0.15223639733E+02  0.15409426711E+02  0.10566000000E+00 0. -1.
        -13    1    4    4    0    0 -0.13495761986E+01  0.60871086580E+00  0.68491925624E+01  0.70081729164E+01  0.10566000000E+00 0.  1.
         14    1    4    4    0    0 -0.10045562200E+02  0.75141715449E+01  0.66627842538E+02  0.67798565583E+02  0.00000000000E+00 0. -1.
<mgrwt>
<rscale>  0 0.79136152E+02</rscale>
<asrwt>0</asrwt>
<pdfrwt beam="1">  1        2 0.14406592E-01 0.79136152E+02</pdfrwt>
<pdfrwt beam="2">  1       -1 0.25721832E-02 0.79136152E+02</pdfrwt>
<totfact> 0.17921132E+05</totfact>
</mgrwt>
</event>
<event>
 8    1  0.1520917E-013  0.8054931E+02  0.7818608E-02  0.1327500E+00
          2   -1    0    0  501    0  0.00000000000E+00  0.00000000000E+00  0.11532430286E+02  0.11532430568E+02  0.25500000000E-02 0. -1.
         -1   -1    0    0    0  501 -0.00000000000E+00 -0.00000000000E+00 -0.14065099242E+03  0.14065099251E+03  0.50400000000E-02 0.  1.
         24    2    1    2    0    0 -0.17763568394E-14  0.00000000000E+00 -0.12911856213E+03  0.15218342308E+03  0.80549308949E+02 0.  0.
         66    2    3    3    0    0  0.13645470809E+02 -0.21416382247E+02 -0.55994499142E+01  0.26080914976E+02  0.19999961139E+01 0.  0.
        -13    1    3    3    0    0 -0.13645470809E+02  0.21416382247E+02 -0.12351911222E+03  0.12610250810E+03  0.10566000000E+00 0.  1.
         13    1    4    4    0    0  0.39782693248E+01 -0.51111992062E+01 -0.19317570249E+01  0.67597213984E+01  0.10566000000E+00 0. -1.
        -13    1    4    4    0    0  0.85532758880E+01 -0.14697388134E+02 -0.31116636095E+01  0.17287722836E+02  0.10566000000E+00 0.  1.
        -14    1    4    4    0    0  0.11139255961E+01 -0.16077949068E+01 -0.55602927974E+00  0.20334707414E+01  0.00000000000E+00 0.  1.
<mgrwt>
<rscale>  0 0.80549309E+02</rscale>
<asrwt>0</asrwt>
<pdfrwt beam="1">  1        2 0.17742202E-02 0.80549309E+02</pdfrwt>
<pdfrwt beam="2">  1       -1 0.21638613E-01 0.80549309E+02</pdfrwt>
<totfact> 0.10775116E+05</totfact>
</mgrwt>
</event>
<event>
 8    1  0.1520917E-013  0.8023693E+02  0.7818608E-02  0.1328380E+00
         -1   -1    0    0    0  501 -0.00000000000E+00  0.00000000000E+00  0.10945711523E+02  0.10945712683E+02  0.50400000000E-02 0.  1.
          2   -1    0    0  501    0  0.00000000000E+00 -0.00000000000E+00 -0.14704307551E+03  0.14704307554E+03  0.25500000000E-02 0. -1.
         24    2    1    2    0    0  0.00000000000E+00  0.00000000000E+00 -0.13609736399E+03  0.15798878822E+03  0.80236928641E+02 0.  0.
         66    2    3    3    0    0  0.35341484028E+02 -0.10282489944E+02 -0.36787867484E+02  0.52077800341E+02  0.20000004087E+01 0.  0.
        -13    1    3    3    0    0 -0.35341484028E+02  0.10282489944E+02 -0.99309496508E+02  0.10591098788E+03  0.10566000000E+00 0.  1.
         13    1    4    4    0    0  0.32320807986E+02 -0.96753488113E+01 -0.33668437471E+02  0.47663632355E+02  0.10566000000E+00 0. -1.
        -13    1    4    4    0    0  0.22843663646E+00 -0.97614306971E-01 -0.40541719741E+00  0.48707185236E+00  0.10566000000E+00 0. -1.
        -14    1    4    4    0    0  0.27922394054E+01 -0.50952682548E+00 -0.27140128150E+01  0.39270961337E+01  0.00000000000E+00 0.  1.
<mgrwt>
<rscale>  0 0.80236929E+02</rscale>
<asrwt>0</asrwt>
<pdfrwt beam="1">  1        2 0.22622010E-01 0.80236929E+02</pdfrwt>
<pdfrwt beam="2">  1       -1 0.16839558E-02 0.80236929E+02</pdfrwt>
<totfact> 0.19746653E+05</totfact>
</mgrwt>
</event>
<event>
 8    1  0.1520917E-013  0.8003479E+02  0.7818608E-02  0.1328953E+00
         -1   -1    0    0    0  501 -0.00000000000E+00  0.00000000000E+00  0.35229966582E+01  0.35230002633E+01  0.50400000000E-02 0.  1.
          2   -1    0    0  501    0  0.00000000000E+00 -0.00000000000E+00 -0.45455368546E+03  0.45455368547E+03  0.25500000000E-02 0. -1.
         24    2    1    2    0    0  0.17763568394E-14 -0.35527136788E-14 -0.45103068880E+03  0.45807668573E+03  0.80034790990E+02 0.  0.
         66    2    3    3    0    0  0.14070614415E+02 -0.21585151400E+02 -0.40071218935E+03  0.40154471688E+03  0.20000022298E+01 0.  0.
        -13    1    3    3    0    0 -0.14070614415E+02  0.21585151400E+02 -0.50318499445E+02  0.56531968845E+02  0.10566000000E+00 0.  1.
         13    1    4    4    0    0  0.64671561526E+01 -0.90839533691E+01 -0.16810171453E+03  0.16847118421E+03  0.10566000000E+00 0.  1.
        -13    1    4    4    0    0  0.72108585539E+01 -0.11382220353E+02 -0.21713954359E+03  0.21755722001E+03  0.10566000000E+00 0. -1.
         14    1    4    4    0    0  0.39259970896E+00 -0.11189776785E+01 -0.15470931236E+02  0.15516312671E+02  0.00000000000E+00 0. -1.
<mgrwt>
<rscale>  0 0.80034791E+02</rscale>
<asrwt>0</asrwt>
<pdfrwt beam="1">  1        2 0.69931290E-01 0.80034791E+02</pdfrwt>
<pdfrwt beam="2">  1       -1 0.54200013E-03 0.80034791E+02</pdfrwt>
<totfact> 0.29484400E+05</totfact>
</mgrwt>
</event>
<event>
 8    1  0.1520917E-013  0.8006422E+02  0.7818608E-02  0.1328869E+00
          2   -1    0    0  501    0  0.00000000000E+00  0.00000000000E+00  0.16107199546E+02  0.16107199747E+02  0.25500000000E-02 0. -1.
         -1   -1    0    0    0  501 -0.00000000000E+00 -0.00000000000E+00 -0.99494004415E+02  0.99494004543E+02  0.50400000000E-02 0.  1.
         24    2    1    2    0    0  0.00000000000E+00  0.35527136788E-14 -0.83386804870E+02  0.11560120429E+03  0.80064219268E+02 0.  0.
         66    2    3    3    0    0 -0.24568868346E+02  0.18464445638E+02 -0.47385945407E+01  0.31161182994E+02  0.20000007047E+01 0.  0.
        -13    1    3    3    0    0  0.24568868346E+02 -0.18464445638E+02 -0.78648210329E+02  0.84440021297E+02  0.10566000000E+00 0.  1.
         13    1    4    4    0    0 -0.28449954819E+01  0.27882903386E+01 -0.75662944207E+00  0.40561329432E+01  0.10566000000E+00 0. -1.
        -13    1    4    4    0    0 -0.12138245064E+02  0.81089151538E+01 -0.22355753588E+01  0.14768224654E+02  0.10566000000E+00 0.  1.
         14    1    4    4    0    0 -0.95856278001E+01  0.75672401459E+01 -0.17463897397E+01  0.12336825397E+02  0.00000000000E+00 0. -1.
<mgrwt>
<rscale>  0 0.80064219E+02</rscale>
<asrwt>0</asrwt>
<pdfrwt beam="1">  1        2 0.24780308E-02 0.80064219E+02</pdfrwt>
<pdfrwt beam="2">  1       -1 0.15306770E-01 0.80064219E+02</pdfrwt>
<totfact> 0.11842177E+05</totfact>
</mgrwt>
</event>
<event>
 8    1  0.1520917E-013  0.8061796E+02  0.7818608E-02  0.1327307E+00
          2   -1    0    0  501    0  0.00000000000E+00  0.00000000000E+00  0.22881767030E+03  0.22881767032E+03  0.25500000000E-02 0. -1.
         -1   -1    0    0    0  501 -0.00000000000E+00 -0.00000000000E+00 -0.71009094518E+01  0.71009112404E+01  0.50400000000E-02 0.  1.
         24    2    1    2    0    0  0.88817841970E-15  0.35527136788E-14  0.22171676085E+03  0.23591858156E+03  0.80617957564E+02 0.  0.
         66    2    3    3    0    0  0.59050259083E+01  0.22959881417E+02  0.20623756566E+03  0.20760529610E+03  0.19999983928E+01 0.  0.
        -13    1    3    3    0    0 -0.59050259083E+01 -0.22959881417E+02  0.15479195194E+02  0.28313285460E+02  0.10566000000E+00 0.  1.
         13    1    4    4    0    0  0.21190622178E+01  0.60156678614E+01  0.60186921923E+02  0.60524006965E+02  0.10566000000E+00 0. -1.
        -13    1    4    4    0    0  0.17802921913E+01  0.78279224134E+01  0.64150656791E+02  0.64651092337E+02  0.10566000000E+00 0.  1.
        -14    1    4    4    0    0  0.20056714991E+01  0.91162911426E+01  0.81899986944E+02  0.82430196796E+02  0.00000000000E+00 0.  1.
<mgrwt>
<rscale>  0 0.80617958E+02</rscale>
<asrwt>0</asrwt>
<pdfrwt beam="1">  1        2 0.35202713E-01 0.80617958E+02</pdfrwt>
<pdfrwt beam="2">  1       -1 0.10924479E-02 0.80617958E+02</pdfrwt>
<totfact> 0.22662619E+05</totfact>
</mgrwt>
</event>
<event>
 8    1  0.1520917E-013  0.7992078E+02  0.7818608E-02  0.1329276E+00
         -1   -1    0    0    0  501 -0.00000000000E+00  0.00000000000E+00  0.40307429743E+02  0.40307430058E+02  0.50400000000E-02 0.  1.
          2   -1    0    0  501    0  0.00000000000E+00 -0.00000000000E+00 -0.39616338490E+02  0.39616338573E+02  0.25500000000E-02 0. -1.
         24    2    1    2    0    0  0.00000000000E+00  0.00000000000E+00  0.69109125226E+00  0.79923768630E+02  0.79920780683E+02 0.  0.
         66    2    3    3    0    0 -0.53650525021E+01  0.19190593250E+02 -0.34264277067E+02  0.39687571047E+02  0.19999887662E+01 0.  0.
        -13    1    3    3    0    0  0.53650525021E+01 -0.19190593250E+02  0.34955368319E+02  0.40236197583E+02  0.10566000000E+00 0.  1.
         13    1    4    4    0    0 -0.30281688974E+01  0.10168519412E+02 -0.19488840718E+02  0.22189967789E+02  0.10566000000E+00 0. -1.
        -13    1    4    4    0    0 -0.43860340731E+00  0.13361892164E+01 -0.16623414909E+01  0.21799811556E+01  0.10566000000E+00 0.  1.
         14    1    4    4    0    0 -0.18982801974E+01  0.76858846214E+01 -0.13113094858E+02  0.15317622102E+02  0.00000000000E+00 0. -1.
<mgrwt>
<rscale>  0 0.79920781E+02</rscale>
<asrwt>0</asrwt>
<pdfrwt beam="1">  1        2 0.60948213E-02 0.79920781E+02</pdfrwt>
<pdfrwt beam="2">  1       -1 0.62011431E-02 0.79920781E+02</pdfrwt>
<totfact> 0.14266094E+05</totfact>
</mgrwt>
</event>
<event>
 8    1  0.1520917E-013  0.7826526E+02  0.7818608E-02  0.1334048E+00
          2   -1    0    0  501    0  0.00000000000E+00  0.00000000000E+00  0.13642916280E+04  0.13642916280E+04  0.25500000000E-02 0. -1.
         -1   -1    0    0    0  501 -0.00000000000E+00 -0.00000000000E+00 -0.11224543376E+01  0.11224656527E+01  0.50400000000E-02 0.  1.
         24    2    1    2    0    0 -0.17763568394E-14 -0.88817841970E-15  0.13631691736E+04  0.13654140936E+04  0.78265261314E+02 0.  0.
         66    2    3    3    0    0 -0.13080597574E+02 -0.47015812777E+01  0.13197382474E+04  0.13198129597E+04  0.19999984867E+01 0.  0.
        -13    1    3    3    0    0  0.13080597574E+02  0.47015812777E+01  0.43430926212E+02  0.45601133923E+02  0.10566000000E+00 0.  1.
         13    1    4    4    0    0 -0.74992631625E+00  0.14720264746E-01  0.65895249387E+02  0.65899602897E+02  0.10566000000E+00 0. -1.
        -13    1    4    4    0    0 -0.18431952668E+01 -0.45794459660E+00  0.22720804895E+03  0.22721601121E+03  0.10566000000E+00 0.  1.
         14    1    4    4    0    0 -0.10487475991E+02 -0.42583569458E+01  0.10266349491E+04  0.10266973456E+04  0.00000000000E+00 0. -1.
<mgrwt>
<rscale>  0 0.78265261E+02</rscale>
<asrwt>0</asrwt>
<pdfrwt beam="1">  1        2 0.20989182E+00 0.78265261E+02</pdfrwt>
<pdfrwt beam="2">  1       -1 0.17268550E-03 0.78265261E+02</pdfrwt>
<totfact> 0.36253100E+05</totfact>
</mgrwt>
</event>
<event>
 8    1  0.1520917E-013  0.7990566E+02  0.7818608E-02  0.1329319E+00
         -1   -1    0    0    0  501 -0.00000000000E+00  0.00000000000E+00  0.13100278632E+03  0.13100278641E+03  0.50400000000E-02 0.  1.
          2   -1    0    0  501    0  0.00000000000E+00 -0.00000000000E+00 -0.12184690525E+02  0.12184690792E+02  0.25500000000E-02 0. -1.
         24    2    1    2    0    0  0.00000000000E+00  0.00000000000E+00  0.11881809579E+03  0.14318747721E+03  0.79905655250E+02 0.  0.
         66    2    3    3    0    0  0.39065191182E+02  0.15988442845E+00  0.44657497204E+02  0.59366714431E+02  0.20000001834E+01 0.  0.
        -13    1    3    3    0    0 -0.39065191182E+02 -0.15988442845E+00  0.74160598589E+02  0.83820762775E+02  0.10566000000E+00 0.  1.
         13    1    4    4    0    0  0.16844956629E+02  0.91666776145E-01  0.20621994393E+02  0.26627782172E+02  0.10566000000E+00 0. -1.
        -13    1    4    4    0    0  0.15137025751E+02 -0.53698822414E-01  0.16762173723E+02  0.22585704862E+02  0.10566000000E+00 0.  1.
        -14    1    4    4    0    0  0.70832088020E+01  0.12191647472E+00  0.72733290882E+01  0.10153227398E+02  0.00000000000E+00 0.  1.
<mgrwt>
<rscale>  0 0.79905655E+02</rscale>
<asrwt>0</asrwt>
<pdfrwt beam="1">  1        2 0.18745678E-02 0.79905655E+02</pdfrwt>
<pdfrwt beam="2">  1       -1 0.20154275E-01 0.79905655E+02</pdfrwt>
<totfact> 0.11186509E+05</totfact>
</mgrwt>
</event>
<event>
 8    1  0.1520917E-013  0.7955671E+02  0.7818608E-02  0.1330314E+00
          2   -1    0    0  501    0  0.00000000000E+00  0.00000000000E+00  0.17056199227E+03  0.17056199229E+03  0.25500000000E-02 0. -1.
         -1   -1    0    0    0  501 -0.00000000000E+00 -0.00000000000E+00 -0.92770819673E+01  0.92770833363E+01  0.50400000000E-02 0.  1.
         24    2    1    2    0    0  0.44408920985E-15  0.17763568394E-14  0.16128491030E+03  0.17983907562E+03  0.79556714552E+02 0.  0.
         66    2    3    3    0    0  0.35359078324E+01  0.11838114312E+02  0.16610569450E+03  0.16657654498E+03  0.19999989257E+01 0.  0.
        -13    1    3    3    0    0 -0.35359078324E+01 -0.11838114312E+02 -0.48207842055E+01  0.13262530643E+02  0.10566000000E+00 0.  1.
         13    1    4    4    0    0  0.19002275256E+01  0.66560606807E+01  0.85286174002E+02  0.85566679545E+02  0.10566000000E+00 0. -1.
        -13    1    4    4    0    0  0.37837514472E+00  0.26183306022E+01  0.33652514112E+02  0.33756505936E+02  0.10566000000E+00 0.  1.
         14    1    4    4    0    0  0.12573051621E+01  0.25637230287E+01  0.47167006391E+02  0.47253359499E+02  0.00000000000E+00 0. -1.
<mgrwt>
<rscale>  0 0.79556715E+02</rscale>
<asrwt>0</asrwt>
<pdfrwt beam="1">  1        2 0.26240307E-01 0.79556715E+02</pdfrwt>
<pdfrwt beam="2">  1       -1 0.14272435E-02 0.79556715E+02</pdfrwt>
<totfact> 0.21201750E+05</totfact>
</mgrwt>
</event>
<event>
 8    1  0.1520917E-013  0.7947692E+02  0.7818608E-02  0.1330542E+00
          2   -1    0    0  501    0  0.00000000000E+00  0.00000000000E+00  0.51036397728E+01  0.51036404099E+01  0.25500000000E-02 0. -1.
         -1   -1    0    0    0  501 -0.00000000000E+00 -0.00000000000E+00 -0.30941545018E+03  0.30941545022E+03  0.50400000000E-02 0.  1.
         24    2    1    2    0    0  0.17763568394E-14  0.71054273576E-14 -0.30431181041E+03  0.31451909063E+03  0.79476917517E+02 0.  0.
         66    2    3    3    0    0  0.14080088523E+02  0.34697692788E+02 -0.20459721676E+03  0.20800528811E+03  0.19999993062E+01 0.  0.
        -13    1    3    3    0    0 -0.14080088523E+02 -0.34697692788E+02 -0.99714593648E+02  0.10651380252E+03  0.10566000000E+00 0.  1.
         13    1    4    4    0    0  0.18474264186E+01  0.49054045834E+01 -0.27058640086E+02  0.27561878489E+02  0.10566000000E+00 0. -1.
        -13    1    4    4    0    0  0.83287777395E+01  0.21943915572E+02 -0.13122535188E+03  0.13330794466E+03  0.10566000000E+00 0.  1.
        -14    1    4    4    0    0  0.39038843654E+01  0.78483726333E+01 -0.46313224790E+02  0.47135464955E+02  0.00000000000E+00 0.  1.
<mgrwt>
<rscale>  0 0.79476918E+02</rscale>
<asrwt>0</asrwt>
<pdfrwt beam="1">  1        2 0.78517564E-03 0.79476918E+02</pdfrwt>
<pdfrwt beam="2">  1       -1 0.47602363E-01 0.79476918E+02</pdfrwt>
<totfact> 0.86791352E+04</totfact>
</mgrwt>
</event>
<event>
 8    1  0.1520917E-013  0.7952602E+02  0.7818608E-02  0.1330402E+00
          2   -1    0    0  501    0  0.00000000000E+00  0.00000000000E+00  0.11678597976E+03  0.11678597979E+03  0.25500000000E-02 0. -1.
         -1   -1    0    0    0  501 -0.00000000000E+00 -0.00000000000E+00 -0.13538412310E+02  0.13538413249E+02  0.50400000000E-02 0.  1.
         24    2    1    2    0    0  0.00000000000E+00  0.00000000000E+00  0.10324756745E+03  0.13032439304E+03  0.79526016097E+02 0.  0.
         66    2    3    3    0    0 -0.56855314448E+01  0.21450768435E+02  0.10567671316E+03  0.10800013164E+03  0.19999986414E+01 0.  0.
        -13    1    3    3    0    0  0.56855314448E+01 -0.21450768435E+02 -0.24291457095E+01  0.22324261403E+02  0.10566000000E+00 0.  1.
         13    1    4    4    0    0 -0.37076839764E+01  0.11930629914E+02  0.60000190958E+02  0.61287200373E+02  0.10566000000E+00 0. -1.
        -13    1    4    4    0    0 -0.19605397519E+01  0.74552457766E+01  0.36899544215E+02  0.37696311929E+02  0.10566000000E+00 0.  1.
        -14    1    4    4    0    0 -0.17307716526E-01  0.20648927441E+01  0.87769779905E+01  0.90166193358E+01  0.00000000000E+00 0.  1.
<mgrwt>
<rscale>  0 0.79526016E+02</rscale>
<asrwt>0</asrwt>
<pdfrwt beam="1">  1        2 0.17967073E-01 0.79526016E+02</pdfrwt>
<pdfrwt beam="2">  1       -1 0.20828328E-02 0.79526016E+02</pdfrwt>
<totfact> 0.18832335E+05</totfact>
</mgrwt>
</event>
<event>
 8    1  0.1520917E-013  0.8011063E+02  0.7818608E-02  0.1328738E+00
         -1   -1    0    0    0  501 -0.00000000000E+00  0.00000000000E+00  0.68675643410E+01  0.68675661903E+01  0.50400000000E-02 0.  1.
          2   -1    0    0  501    0  0.00000000000E+00 -0.00000000000E+00 -0.23362402281E+03  0.23362402282E+03  0.25500000000E-02 0. -1.
         24    2    1    2    0    0  0.00000000000E+00  0.00000000000E+00 -0.22675645847E+03  0.24049158901E+03  0.80110629314E+02 0.  0.
         66    2    3    3    0    0  0.55667637964E+01 -0.30371674159E+02 -0.18992567218E+03  0.19242969732E+03  0.20000018469E+01 0.  0.
        -13    1    3    3    0    0 -0.55667637964E+01  0.30371674159E+02 -0.36830786284E+02  0.48061891689E+02  0.10566000000E+00 0.  1.
         13    1    4    4    0    0  0.51958182556E+00 -0.64682125362E+01 -0.42705417542E+02  0.43195735787E+02  0.10566000000E+00 0. -1.
        -13    1    4    4    0    0  0.29566451543E+01 -0.14762699726E+02 -0.90730081356E+02  0.91970853430E+02  0.10566000000E+00 0. -1.
         14    1    4    4    0    0  0.20905368165E+01 -0.91407618970E+01 -0.56490173285E+02  0.57263108106E+02  0.00000000000E+00 0. -1.
<mgrwt>
<rscale>  0 0.80110629E+02</rscale>
<asrwt>0</asrwt>
<pdfrwt beam="1">  1        2 0.35942151E-01 0.80110629E+02</pdfrwt>
<pdfrwt beam="2">  1       -1 0.10565487E-02 0.80110629E+02</pdfrwt>
<totfact> 0.23213415E+05</totfact>
</mgrwt>
</event>
<event>
 8    1  0.1520917E-013  0.8059839E+02  0.7818608E-02  0.1327362E+00
          2   -1    0    0  501    0  0.00000000000E+00  0.00000000000E+00  0.58940188319E+03  0.58940188319E+03  0.25500000000E-02 0. -1.
         -1   -1    0    0    0  501 -0.00000000000E+00 -0.00000000000E+00 -0.27553759025E+01  0.27553805119E+01  0.50400000000E-02 0.  1.
         24    2    1    2    0    0  0.00000000000E+00  0.35527136788E-14  0.58664650729E+03  0.59215726371E+03  0.80598389865E+02 0.  0.
         66    2    3    3    0    0 -0.17209943454E+02 -0.26929053383E+02  0.47356721090E+03  0.47464856400E+03  0.20000010828E+01 0.  0.
        -13    1    3    3    0    0  0.17209943454E+02  0.26929053383E+02  0.11307929639E+03  0.11750869970E+03  0.10566000000E+00 0.  1.
         13    1    4    4    0    0 -0.10880510752E+02 -0.15524314011E+02  0.28446004332E+03  0.28509106835E+03  0.10566000000E+00 0. -1.
        -13    1    4    4    0    0 -0.21355268158E+01 -0.43687665360E+01  0.72577127540E+02  0.72739928525E+02  0.10566000000E+00 0.  1.
         14    1    4    4    0    0 -0.41939058860E+01 -0.70359728365E+01  0.11653004004E+03  0.11681756713E+03  0.00000000000E+00 0. -1.
<mgrwt>
<rscale>  0 0.80598390E+02</rscale>
<asrwt>0</asrwt>
<pdfrwt beam="1">  1        2 0.90677292E-01 0.80598390E+02</pdfrwt>
<pdfrwt beam="2">  1       -1 0.42390397E-03 0.80598390E+02</pdfrwt>
<totfact> 0.31388109E+05</totfact>
</mgrwt>
</event>
<event>
 8    1  0.1520917E-013  0.8193423E+02  0.7818608E-02  0.1323650E+00
         -1   -1    0    0    0  501 -0.00000000000E+00  0.00000000000E+00  0.19521993600E+01  0.19522058659E+01  0.50400000000E-02 0.  1.
          2   -1    0    0  501    0  0.00000000000E+00 -0.00000000000E+00 -0.85969782924E+03  0.85969782925E+03  0.25500000000E-02 0. -1.
         24    2    1    2    0    0  0.00000000000E+00  0.00000000000E+00 -0.85774562988E+03  0.86165003511E+03  0.81934226221E+02 0.  0.
         66    2    3    3    0    0  0.15780090921E+02  0.20289574859E+02 -0.76427163666E+03  0.76470635718E+03  0.19999989789E+01 0.  0.
        -13    1    3    3    0    0 -0.15780090921E+02 -0.20289574859E+02 -0.93473993222E+02  0.96943677928E+02  0.10566000000E+00 0.  1.
         13    1    4    4    0    0  0.11826340005E+02  0.14914135774E+02 -0.56833116777E+03  0.56864982299E+03  0.10566000000E+00 0. -1.
        -13    1    4    4    0    0  0.30451643457E+01  0.37728421989E+01 -0.15231777396E+03  0.15239495658E+03  0.10566000000E+00 0.  1.
         14    1    4    4    0    0  0.90858657010E+00  0.16025968853E+01 -0.43622694932E+02  0.43661577611E+02  0.00000000000E+00 0. -1.
<mgrwt>
<rscale>  0 0.81934226E+02</rscale>
<asrwt>0</asrwt>
<pdfrwt beam="1">  1        2 0.13226090E+00 0.81934226E+02</pdfrwt>
<pdfrwt beam="2">  1       -1 0.30033955E-03 0.81934226E+02</pdfrwt>
<totfact> 0.32657124E+05</totfact>
</mgrwt>
</event>
<event>
 8    1  0.1520917E-013  0.8041589E+02  0.7818608E-02  0.1327875E+00
         -1   -1    0    0    0  501 -0.00000000000E+00  0.00000000000E+00  0.91914804893E+01  0.91914818711E+01  0.50400000000E-02 0.  1.
          2   -1    0    0  501    0  0.00000000000E+00 -0.00000000000E+00 -0.17588884223E+03  0.17588884225E+03  0.25500000000E-02 0. -1.
         24    2    1    2    0    0  0.00000000000E+00  0.17763568394E-14 -0.16669736174E+03  0.18508032412E+03  0.80415893734E+02 0.  0.
         66    2    3    3    0    0  0.36776861784E+02  0.13904278918E+02 -0.64308761127E+02  0.75402143817E+02  0.19999998792E+01 0.  0.
        -13    1    3    3    0    0 -0.36776861784E+02 -0.13904278918E+02 -0.10238860062E+03  0.10967818031E+03  0.10566000000E+00 0.  1.
         13    1    4    4    0    0  0.22400948210E+01  0.49178364493E+00 -0.37264299602E+01  0.43769076120E+01  0.10566000000E+00 0. -1.
        -13    1    4    4    0    0  0.24886189064E+02  0.98753134030E+01 -0.42720708825E+02  0.50417401237E+02  0.10566000000E+00 0.  1.
         14    1    4    4    0    0  0.96505778994E+01  0.35371818704E+01 -0.17861622342E+02  0.20607834968E+02  0.00000000000E+00 0. -1.
<mgrwt>
<rscale>  0 0.80415894E+02</rscale>
<asrwt>0</asrwt>
<pdfrwt beam="1">  1        2 0.27059820E-01 0.80415894E+02</pdfrwt>
<pdfrwt beam="2">  1       -1 0.14140742E-02 0.80415894E+02</pdfrwt>
<totfact> 0.20821136E+05</totfact>
</mgrwt>
</event>
<event>
 8    1  0.1520917E-013  0.8128220E+02  0.7818608E-02  0.1325452E+00
          2   -1    0    0  501    0  0.00000000000E+00  0.00000000000E+00  0.34014121026E+03  0.34014121027E+03  0.25500000000E-02 0. -1.
         -1   -1    0    0    0  501 -0.00000000000E+00 -0.00000000000E+00 -0.48559207201E+01  0.48559233356E+01  0.50400000000E-02 0.  1.
         24    2    1    2    0    0  0.00000000000E+00 -0.17763568394E-14  0.33528528954E+03  0.34499713361E+03  0.81282204781E+02 0.  0.
         66    2    3    3    0    0 -0.20181038492E+01 -0.98651276077E+01  0.33475585663E+03  0.33491323808E+03  0.20000005817E+01 0.  0.
        -13    1    3    3    0    0  0.20181038492E+01  0.98651276077E+01  0.52943290952E+00  0.10083895532E+02  0.10566000000E+00 0.  1.
         13    1    4    4    0    0  0.74486774648E-01 -0.30212631012E+01  0.11249153425E+03  0.11253217327E+03  0.10566000000E+00 0. -1.
        -13    1    4    4    0    0 -0.58214639550E+00 -0.31290337504E+01  0.92554219501E+02  0.92608986919E+02  0.10566000000E+00 0.  1.
        -14    1    4    4    0    0 -0.15104442283E+01 -0.37148307561E+01  0.12971010289E+03  0.12977207789E+03  0.00000000000E+00 0.  1.
<mgrwt>
<rscale>  0 0.81282205E+02</rscale>
<asrwt>0</asrwt>
<pdfrwt beam="1">  1        2 0.52329423E-01 0.81282205E+02</pdfrwt>
<pdfrwt beam="2">  1       -1 0.74706484E-03 0.81282205E+02</pdfrwt>
<totfact> 0.25587254E+05</totfact>
</mgrwt>
</event>
<event>
 8    1  0.1520917E-013  0.7828492E+02  0.7818608E-02  0.1333990E+00
          2   -1    0    0  501    0  0.00000000000E+00  0.00000000000E+00  0.16308023596E+04  0.16308023596E+04  0.25500000000E-02 0. -1.
         -1   -1    0    0    0  501 -0.00000000000E+00 -0.00000000000E+00 -0.93948913923E+00  0.93950265797E+00  0.50400000000E-02 0.  1.
         24    2    1    2    0    0  0.35527136788E-14 -0.17763568394E-14  0.16298628705E+04  0.16317418623E+04  0.78284919014E+02 0.  0.
         66    2    3    3    0    0  0.13128204217E+02 -0.58364167221E+01  0.15738130476E+04  0.15738798945E+04  0.20000036780E+01 0.  0.
        -13    1    3    3    0    0 -0.13128204217E+02  0.58364167221E+01  0.56049822864E+02  0.57861967762E+02  0.10566000000E+00 0.  1.
         13    1    4    4    0    0  0.27115720452E+01 -0.12459448521E+01  0.31371013061E+03  0.31372434113E+03  0.10566000000E+00 0. -1.
        -13    1    4    4    0    0  0.17370467952E+01 -0.14806350864E+00  0.16581807283E+03  0.16582727066E+03  0.10566000000E+00 0.  1.
        -14    1    4    4    0    0  0.86795853762E+01 -0.44424083613E+01  0.10942848442E+04  0.10943282827E+04  0.00000000000E+00 0.  1.
<mgrwt>
<rscale>  0 0.78284919E+02</rscale>
<asrwt>0</asrwt>
<pdfrwt beam="1">  1        2 0.25089481E+00 0.78284919E+02</pdfrwt>
<pdfrwt beam="2">  1       -1 0.14453660E-03 0.78284919E+02</pdfrwt>
<totfact> 0.33906401E+05</totfact>
</mgrwt>
</event>
<event>
 8    1  0.1520917E-013  0.8048454E+02  0.7818608E-02  0.1327682E+00
         -1   -1    0    0    0  501 -0.00000000000E+00  0.00000000000E+00  0.69574923128E+01  0.69574941383E+01  0.50400000000E-02 0.  1.
          2   -1    0    0  501    0  0.00000000000E+00 -0.00000000000E+00 -0.23276203307E+03  0.23276203308E+03  0.25500000000E-02 0. -1.
         24    2    1    2    0    0 -0.17763568394E-14  0.44408920985E-15 -0.22580454076E+03  0.23971952722E+03  0.80484539540E+02 0.  0.
         66    2    3    3    0    0 -0.12686619941E+02  0.34783184682E+01 -0.22616819558E+03  0.22655926758E+03  0.20000023613E+01 0.  0.
        -13    1    3    3    0    0  0.12686619941E+02 -0.34783184682E+01  0.36365482606E+00  0.13160259639E+02  0.10566000000E+00 0.  1.
         13    1    4    4    0    0 -0.22976419833E+01  0.29564654419E+00 -0.39626761073E+02  0.39694557848E+02  0.10566000000E+00 0. -1.
        -13    1    4    4    0    0 -0.84445725779E+00  0.53185328530E+00 -0.24727557827E+02  0.24747914177E+02  0.10566000000E+00 0.  1.
        -14    1    4    4    0    0 -0.95445207003E+01  0.26508186387E+01 -0.16181387668E+03  0.16211679556E+03  0.00000000000E+00 0.  1.
<mgrwt>
<rscale>  0 0.80484540E+02</rscale>
<asrwt>0</asrwt>
<pdfrwt beam="1">  1        2 0.35809538E-01 0.80484540E+02</pdfrwt>
<pdfrwt beam="2">  1       -1 0.10703838E-02 0.80484540E+02</pdfrwt>
<totfact> 0.22900416E+05</totfact>
</mgrwt>
</event>
<event>
 8    1  0.1520917E-013  0.8005652E+02  0.7818608E-02  0.1328891E+00
          2   -1    0    0  501    0  0.00000000000E+00  0.00000000000E+00  0.12319947101E+04  0.12319947101E+04  0.25500000000E-02 0. -1.
         -1   -1    0    0    0  501 -0.00000000000E+00 -0.00000000000E+00 -0.13005375797E+01  0.13005473455E+01  0.50400000000E-02 0.  1.
         24    2    1    2    0    0  0.00000000000E+00  0.00000000000E+00  0.12306941725E+04  0.12332952574E+04  0.80056516090E+02 0.  0.
         66    2    3    3    0    0  0.18590578600E+01 -0.11871364461E+02  0.12035331147E+04  0.12035947589E+04  0.19999943366E+01 0.  0.
        -13    1    3    3    0    0 -0.18590578600E+01  0.11871364461E+02  0.27161057753E+02  0.29700498524E+02  0.10566000000E+00 0.  1.
         13    1    4    4    0    0  0.13429182349E+01 -0.71993890743E+01  0.74768652796E+03  0.74772240163E+03  0.10566000000E+00 0. -1.
        -13    1    4    4    0    0  0.71245605855E+00 -0.23852631539E+01  0.20119113527E+03  0.20120656339E+03  0.10566000000E+00 0.  1.
        -14    1    4    4    0    0 -0.19631643343E+00 -0.22867122327E+01  0.25465545149E+03  0.25466579387E+03  0.00000000000E+00 0.  1.
<mgrwt>
<rscale>  0 0.80056516E+02</rscale>
<asrwt>0</asrwt>
<pdfrwt beam="1">  1        2 0.18953895E+00 0.80056516E+02</pdfrwt>
<pdfrwt beam="2">  1       -1 0.20008208E-03 0.80056516E+02</pdfrwt>
<totfact> 0.34860574E+05</totfact>
</mgrwt>
</event>
<event>
 8    1  0.1520917E-013  0.7964398E+02  0.7818608E-02  0.1330065E+00
         -1   -1    0    0    0  501 -0.00000000000E+00  0.00000000000E+00  0.12832737435E+02  0.12832738425E+02  0.50400000000E-02 0.  1.
          2   -1    0    0  501    0  0.00000000000E+00 -0.00000000000E+00 -0.12357386418E+03  0.12357386420E+03  0.25500000000E-02 0. -1.
         24    2    1    2    0    0  0.00000000000E+00  0.88817841970E-15 -0.11074112674E+03  0.13640660263E+03  0.79643983379E+02 0.  0.
         66    2    3    3    0    0 -0.23460751123E+02 -0.42520041034E+01 -0.10997859843E+03  0.11255122597E+03  0.19999927673E+01 0.  0.
        -13    1    3    3    0    0  0.23460751123E+02  0.42520041034E+01 -0.76252830658E+00  0.23855376660E+02  0.10566000000E+00 0.  1.
         13    1    4    4    0    0 -0.10330160802E+02 -0.14932350503E+01 -0.45304407867E+02  0.46491316494E+02  0.10566000000E+00 0. -1.
        -13    1    4    4    0    0 -0.12727424750E+02 -0.28553845859E+01 -0.62802375974E+02  0.64142732666E+02  0.10566000000E+00 0.  1.
        -14    1    4    4    0    0 -0.40316557086E+00  0.96615532757E-01 -0.18718145921E+01  0.19171768061E+01  0.00000000000E+00 0.  1.
<mgrwt>
<rscale>  0 0.79643983E+02</rscale>
<asrwt>0</asrwt>
<pdfrwt beam="1">  1        2 0.19011363E-01 0.79643983E+02</pdfrwt>
<pdfrwt beam="2">  1       -1 0.19742675E-02 0.79643983E+02</pdfrwt>
<totfact> 0.19077678E+05</totfact>
</mgrwt>
</event>
<event>
 8    1  0.1520917E-013  0.8005032E+02  0.7818608E-02  0.1328909E+00
          2   -1    0    0  501    0  0.00000000000E+00  0.00000000000E+00  0.15696860609E+03  0.15696860611E+03  0.25500000000E-02 0. -1.
         -1   -1    0    0    0  501 -0.00000000000E+00 -0.00000000000E+00 -0.10205946117E+02  0.10205947361E+02  0.50400000000E-02 0.  1.
         24    2    1    2    0    0 -0.17763568394E-14  0.00000000000E+00  0.14676265997E+03  0.16717455347E+03  0.80050315216E+02 0.  0.
         66    2    3    3    0    0  0.15909176460E+02  0.16600781711E+02  0.14178146211E+03  0.14364773164E+03  0.19999899405E+01 0.  0.
        -13    1    3    3    0    0 -0.15909176460E+02 -0.16600781711E+02  0.49811978625E+01  0.23526821826E+02  0.10566000000E+00 0.  1.
         13    1    4    4    0    0  0.27812747076E+01  0.33573044541E+01  0.24469970692E+02  0.24855534834E+02  0.10566000000E+00 0. -1.
        -13    1    4    4    0    0  0.29001887395E+01  0.35899780781E+01  0.26841003215E+02  0.27235081329E+02  0.10566000000E+00 0.  1.
         14    1    4    4    0    0  0.10227713013E+02  0.96534991786E+01  0.90470488200E+02  0.91557115480E+02  0.00000000000E+00 0. -1.
<mgrwt>
<rscale>  0 0.80050315E+02</rscale>
<asrwt>0</asrwt>
<pdfrwt beam="1">  1        2 0.24149015E-01 0.80050315E+02</pdfrwt>
<pdfrwt beam="2">  1       -1 0.15701457E-02 0.80050315E+02</pdfrwt>
<totfact> 0.20293350E+05</totfact>
</mgrwt>
</event>
<event>
 8    1  0.1520917E-013  0.7747905E+02  0.7818608E-02  0.1336362E+00
         -1   -1    0    0    0  501 -0.00000000000E+00  0.00000000000E+00  0.45973265017E+01  0.45973292644E+01  0.50400000000E-02 0.  1.
          2   -1    0    0  501    0  0.00000000000E+00 -0.00000000000E+00 -0.32643982743E+03  0.32643982744E+03  0.25500000000E-02 0. -1.
         24    2    1    2    0    0  0.00000000000E+00 -0.22204460493E-15 -0.32184250093E+03  0.33103715671E+03  0.77479053397E+02 0.  0.
         66    2    3    3    0    0 -0.38529561143E+02 -0.13983779884E+01 -0.17599050103E+03  0.18017530075E+03  0.20000014007E+01 0.  0.
        -13    1    3    3    0    0  0.38529561143E+02  0.13983779884E+01 -0.14585199990E+03  0.15086185596E+03  0.10566000000E+00 0.  1.
         13    1    4    4    0    0 -0.14176663508E+02 -0.68546604863E+00 -0.62156352712E+02  0.63756340848E+02  0.10566000000E+00 0. -1.
        -13    1    4    4    0    0 -0.11370977139E+02 -0.26525270445E-02 -0.55645831873E+02  0.56795852815E+02  0.10566000000E+00 0.  1.
        -14    1    4    4    0    0 -0.12981920497E+02 -0.71025941274E+00 -0.58188316444E+02  0.59623107088E+02  0.00000000000E+00 0.  1.
<mgrwt>
<rscale>  0 0.77479053E+02</rscale>
<asrwt>0</asrwt>
<pdfrwt beam="1">  1        2 0.50221494E-01 0.77479053E+02</pdfrwt>
<pdfrwt beam="2">  1       -1 0.70728147E-03 0.77479053E+02</pdfrwt>
<totfact> 0.28579551E+05</totfact>
</mgrwt>
</event>
<event>
 8    1  0.1520917E-013  0.8093325E+02  0.7818608E-02  0.1326424E+00
         -1   -1    0    0    0  501 -0.00000000000E+00  0.00000000000E+00  0.13995612308E+01  0.13995703056E+01  0.50400000000E-02 0.  1.
          2   -1    0    0  501    0  0.00000000000E+00 -0.00000000000E+00 -0.11700399162E+04  0.11700399162E+04  0.25500000000E-02 0. -1.
         24    2    1    2    0    0  0.17763568394E-14  0.00000000000E+00 -0.11686403550E+04  0.11714394865E+04  0.80933252057E+02 0.  0.
         66    2    3    3    0    0  0.10461087949E+02 -0.12579539749E+02 -0.11199970002E+04  0.11201182793E+04  0.20000001197E+01 0.  0.
        -13    1    3    3    0    0 -0.10461087949E+02  0.12579539749E+02 -0.48643354780E+02  0.51321207211E+02  0.10566000000E+00 0.  1.
         13    1    4    4    0    0  0.85814961187E-01 -0.20312875427E+00 -0.10539793586E+02  0.10542629576E+02  0.10566000000E+00 0. -1.
        -13    1    4    4    0    0  0.16468178088E+01 -0.22020903723E+01 -0.15704740022E+03  0.15707150694E+03  0.10566000000E+00 0.  1.
        -14    1    4    4    0    0  0.87284551788E+01 -0.10174320622E+02 -0.95240980641E+03  0.95250414281E+03  0.00000000000E+00 0.  1.
<mgrwt>
<rscale>  0 0.80933252E+02</rscale>
<asrwt>0</asrwt>
<pdfrwt beam="1">  1        2 0.18000536E+00 0.80933252E+02</pdfrwt>
<pdfrwt beam="2">  1       -1 0.21531875E-03 0.80933252E+02</pdfrwt>
<totfact> 0.34082651E+05</totfact>
</mgrwt>
</event>
<event>
 8    1  0.1520917E-013  0.7876575E+02  0.7818608E-02  0.1332591E+00
         -1   -1    0    0    0  501 -0.00000000000E+00  0.00000000000E+00  0.25451512407E+01  0.25451562309E+01  0.50400000000E-02 0.  1.
          2   -1    0    0  501    0  0.00000000000E+00 -0.00000000000E+00 -0.60939769129E+03  0.60939769130E+03  0.25500000000E-02 0. -1.
         24    2    1    2    0    0  0.00000000000E+00  0.00000000000E+00 -0.60685254005E+03  0.61194284753E+03  0.78765749373E+02 0.  0.
         66    2    3    3    0    0 -0.28914754058E+02  0.20278929539E+02 -0.43856946013E+03  0.43999371511E+03  0.19999994060E+01 0.  0.
        -13    1    3    3    0    0  0.28914754058E+02 -0.20278929539E+02 -0.16828307993E+03  0.17194913242E+03  0.10566000000E+00 0.  1.
         13    1    4    4    0    0 -0.19335336455E+02  0.13882840534E+02 -0.29835574903E+03  0.29930377986E+03  0.10566000000E+00 0. -1.
        -13    1    4    4    0    0 -0.10511711126E+01  0.39313690710E+00 -0.12061808336E+02  0.12114367574E+02  0.10566000000E+00 0.  1.
        -14    1    4    4    0    0 -0.85282464900E+01  0.60029520976E+01 -0.12815190276E+03  0.12857556768E+03  0.00000000000E+00 0.  1.
<mgrwt>
<rscale>  0 0.78765749E+02</rscale>
<asrwt>0</asrwt>
<pdfrwt beam="1">  1        2 0.93753375E-01 0.78765749E+02</pdfrwt>
<pdfrwt beam="2">  1       -1 0.39156260E-03 0.78765749E+02</pdfrwt>
<totfact> 0.33634346E+05</totfact>
</mgrwt>
</event>
<event>
 8    1  0.1520917E-013  0.8038575E+02  0.7818608E-02  0.1327960E+00
         -1   -1    0    0    0  501 -0.00000000000E+00  0.00000000000E+00  0.18762434050E+03  0.18762434057E+03  0.50400000000E-02 0.  1.
          2   -1    0    0  501    0  0.00000000000E+00 -0.00000000000E+00 -0.86101161002E+01  0.86101164778E+01  0.25500000000E-02 0. -1.
         24    2    1    2    0    0 -0.71054273576E-14  0.44408920985E-15  0.17901422440E+03  0.19623445705E+03  0.80385754924E+02 0.  0.
         66    2    3    3    0    0 -0.39147112384E+02  0.39664861260E+01  0.69845860677E+02  0.80191481291E+02  0.19999994188E+01 0.  0.
        -13    1    3    3    0    0  0.39147112384E+02 -0.39664861260E+01  0.10916836373E+03  0.11604297576E+03  0.10566000000E+00 0.  1.
         13    1    4    4    0    0 -0.12950244220E+02  0.11348475529E+01  0.22615767299E+02  0.26086026890E+02  0.10566000000E+00 0. -1.
        -13    1    4    4    0    0 -0.22483107742E+02  0.19450371437E+01  0.39859682566E+02  0.45804789723E+02  0.10566000000E+00 0.  1.
        -14    1    4    4    0    0 -0.37137604219E+01  0.88660142935E+00  0.73704108120E+01  0.83006646784E+01  0.00000000000E+00 0.  1.
<mgrwt>
<rscale>  0 0.80385755E+02</rscale>
<asrwt>0</asrwt>
<pdfrwt beam="1">  1        2 0.13246333E-02 0.80385755E+02</pdfrwt>
<pdfrwt beam="2">  1       -1 0.28865283E-01 0.80385755E+02</pdfrwt>
<totfact> 0.10027475E+05</totfact>
</mgrwt>
</event>
<event>
 8    1  0.1520917E-013  0.7746174E+02  0.7818608E-02  0.1336413E+00
          2   -1    0    0  501    0  0.00000000000E+00  0.00000000000E+00  0.12929531975E+03  0.12929531978E+03  0.25500000000E-02 0. -1.
         -1   -1    0    0    0  501 -0.00000000000E+00 -0.00000000000E+00 -0.11601969746E+02  0.11601970841E+02  0.50400000000E-02 0.  1.
         24    2    1    2    0    0 -0.22204460493E-15  0.17763568394E-14  0.11769335000E+03  0.14089729062E+03  0.77461744544E+02 0.  0.
         66    2    3    3    0    0 -0.11066230881E+01  0.15124095918E+02  0.12365883549E+03  0.12460124591E+03  0.19999990637E+01 0.  0.
        -13    1    3    3    0    0  0.11066230881E+01 -0.15124095918E+02 -0.59654854831E+01  0.16296044706E+02  0.10566000000E+00 0.  1.
         13    1    4    4    0    0 -0.60097631966E+00  0.82302114603E+01  0.70296444426E+02  0.70779225881E+02  0.10566000000E+00 0. -1.
        -13    1    4    4    0    0  0.28450237072E+00  0.15866196333E+01  0.10145067916E+02  0.10272870607E+02  0.10566000000E+00 0.  1.
        -14    1    4    4    0    0 -0.79014913916E+00  0.53072648239E+01  0.43217323146E+02  0.43549149423E+02  0.00000000000E+00 0.  1.
<mgrwt>
<rscale>  0 0.77461745E+02</rscale>
<asrwt>0</asrwt>
<pdfrwt beam="1">  1        2 0.19891589E-01 0.77461745E+02</pdfrwt>
<pdfrwt beam="2">  1       -1 0.17849184E-02 0.77461745E+02</pdfrwt>
<totfact> 0.20824336E+05</totfact>
</mgrwt>
</event>
<event>
 8    1  0.1520917E-013  0.7927798E+02  0.7818608E-02  0.1331113E+00
         -1   -1    0    0    0  501 -0.00000000000E+00  0.00000000000E+00  0.32075751313E+01  0.32075790909E+01  0.50400000000E-02 0.  1.
          2   -1    0    0  501    0  0.00000000000E+00 -0.00000000000E+00 -0.48985557432E+03  0.48985557433E+03  0.25500000000E-02 0. -1.
         24    2    1    2    0    0  0.00000000000E+00  0.00000000000E+00 -0.48664799919E+03  0.49306315342E+03  0.79277980194E+02 0.  0.
         66    2    3    3    0    0  0.24809833262E+02  0.30610118982E+02 -0.26892291281E+03  0.27180147211E+03  0.19999996693E+01 0.  0.
        -13    1    3    3    0    0 -0.24809833262E+02 -0.30610118982E+02 -0.21772508639E+03  0.22126168131E+03  0.10566000000E+00 0.  1.
         13    1    4    4    0    0  0.15414836528E+02  0.19737710913E+02 -0.17584756299E+03  0.17762198904E+03  0.10566000000E+00 0. -1.
        -13    1    4    4    0    0  0.51094913491E+01  0.62621646761E+01 -0.51617531569E+02  0.52246553356E+02  0.10566000000E+00 0.  1.
         14    1    4    4    0    0  0.42855053840E+01  0.46102433923E+01 -0.41457818250E+02  0.41932929716E+02  0.00000000000E+00 0. -1.
<mgrwt>
<rscale>  0 0.79277980E+02</rscale>
<asrwt>0</asrwt>
<pdfrwt beam="1">  1        2 0.75362337E-01 0.79277980E+02</pdfrwt>
<pdfrwt beam="2">  1       -1 0.49347379E-03 0.79277980E+02</pdfrwt>
<totfact> 0.30975086E+05</totfact>
</mgrwt>
</event>
<event>
 8    1  0.1520917E-013  0.7920095E+02  0.7818608E-02  0.1331334E+00
         -1   -1    0    0    0  501 -0.00000000000E+00  0.00000000000E+00  0.13621567526E+01  0.13621660766E+01  0.50400000000E-02 0.  1.
          2   -1    0    0  501    0  0.00000000000E+00 -0.00000000000E+00 -0.11512568227E+04  0.11512568227E+04  0.25500000000E-02 0. -1.
         24    2    1    2    0    0  0.00000000000E+00 -0.35527136788E-14 -0.11498946660E+04  0.11526189888E+04  0.79200950251E+02 0.  0.
         66    2    3    3    0    0  0.20382036323E+01  0.25528995698E+02 -0.10143990962E+04  0.10147243026E+04  0.19999977480E+01 0.  0.
        -13    1    3    3    0    0 -0.20382036323E+01 -0.25528995698E+02 -0.13549556978E+03  0.13789468622E+03  0.10566000000E+00 0.  1.
         13    1    4    4    0    0  0.79658060163E+00  0.31608996160E+01 -0.13446730535E+03  0.13450685187E+03  0.10566000000E+00 0. -1.
        -13    1    4    4    0    0  0.63120420711E+00  0.13863738761E+02 -0.52751346538E+03  0.52769600055E+03  0.10566000000E+00 0.  1.
         14    1    4    4    0    0  0.61041882361E+00  0.85043573215E+01 -0.35241832547E+03  0.35252145018E+03  0.00000000000E+00 0. -1.
<mgrwt>
<rscale>  0 0.79200950E+02</rscale>
<asrwt>0</asrwt>
<pdfrwt beam="1">  1        2 0.17711566E+00 0.79200950E+02</pdfrwt>
<pdfrwt beam="2">  1       -1 0.20956422E-03 0.79200950E+02</pdfrwt>
<totfact> 0.36097966E+05</totfact>
</mgrwt>
</event>
<event>
 8    1  0.1520917E-013  0.8035154E+02  0.7818608E-02  0.1328057E+00
          2   -1    0    0  501    0  0.00000000000E+00  0.00000000000E+00  0.12805181054E+04  0.12805181054E+04  0.25500000000E-02 0. -1.
         -1   -1    0    0    0  501 -0.00000000000E+00 -0.00000000000E+00 -0.12604946491E+01  0.12605047251E+01  0.50400000000E-02 0.  1.
         24    2    1    2    0    0  0.00000000000E+00  0.17763568394E-14  0.12792576107E+04  0.12817786101E+04  0.80351544581E+02 0.  0.
         66    2    3    3    0    0 -0.19070804068E+02  0.14641698407E+02  0.11529819100E+04  0.11532343039E+04  0.19999994535E+01 0.  0.
        -13    1    3    3    0    0  0.19070804068E+02 -0.14641698407E+02  0.12627570073E+03  0.12854430621E+03  0.10566000000E+00 0.  1.
         13    1    4    4    0    0 -0.21340752106E+01  0.19318631212E+01  0.11847698577E+03  0.11851199810E+03  0.10566000000E+00 0. -1.
        -13    1    4    4    0    0 -0.12224192021E+02  0.91725754140E+01  0.77183890281E+03  0.77199020076E+03  0.10566000000E+00 0.  1.
        -14    1    4    4    0    0 -0.47125368362E+01  0.35372598715E+01  0.26266602142E+03  0.26273210504E+03  0.00000000000E+00 0.  1.
<mgrwt>
<rscale>  0 0.80351545E+02</rscale>
<asrwt>0</asrwt>
<pdfrwt beam="1">  1        2 0.19700310E+00 0.80351545E+02</pdfrwt>
<pdfrwt beam="2">  1       -1 0.19392272E-03 0.80351545E+02</pdfrwt>
<totfact> 0.34320906E+05</totfact>
</mgrwt>
</event>
<event>
 8    1  0.1520917E-013  0.8022710E+02  0.7818608E-02  0.1328408E+00
          2   -1    0    0  501    0  0.00000000000E+00  0.00000000000E+00  0.30221933159E+03  0.30221933161E+03  0.25500000000E-02 0. -1.
         -1   -1    0    0    0  501 -0.00000000000E+00 -0.00000000000E+00 -0.53242680127E+01  0.53242703982E+01  0.50400000000E-02 0.  1.
         24    2    1    2    0    0  0.00000000000E+00 -0.88817841970E-15  0.29689506358E+03  0.30754360200E+03  0.80227104859E+02 0.  0.
         66    2    3    3    0    0  0.32989870724E+02 -0.50825981718E+01  0.23364886717E+03  0.23602956912E+03  0.19999987281E+01 0.  0.
        -13    1    3    3    0    0 -0.32989870724E+02  0.50825981718E+01  0.63246196412E+02  0.71514032883E+02  0.10566000000E+00 0.  1.
         13    1    4    4    0    0  0.53722573811E+01 -0.21969121762E+00  0.39706261953E+02  0.40068788551E+02  0.10566000000E+00 0. -1.
        -13    1    4    4    0    0  0.14526303064E+01 -0.28816960688E+00  0.94672987702E+01  0.95830103083E+01  0.10566000000E+00 0.  1.
         14    1    4    4    0    0  0.26164983037E+02 -0.45747373473E+01  0.18447530645E+03  0.18637777026E+03  0.00000000000E+00 0. -1.
<mgrwt>
<rscale>  0 0.80227105E+02</rscale>
<asrwt>0</asrwt>
<pdfrwt beam="1">  1        2 0.46495263E-01 0.80227105E+02</pdfrwt>
<pdfrwt beam="2">  1       -1 0.81911867E-03 0.80227105E+02</pdfrwt>
<totfact> 0.25373309E+05</totfact>
</mgrwt>
</event>
<event>
 8    1  0.1520917E-013  0.8042513E+02  0.7818608E-02  0.1327849E+00
          2   -1    0    0  501    0  0.00000000000E+00  0.00000000000E+00  0.45853779423E+02  0.45853779494E+02  0.25500000000E-02 0. -1.
         -1   -1    0    0    0  501 -0.00000000000E+00 -0.00000000000E+00 -0.35265365152E+02  0.35265365513E+02  0.50400000000E-02 0.  1.
         24    2    1    2    0    0  0.35527136788E-14  0.35527136788E-14  0.10588414270E+02  0.81119145006E+02  0.80425127726E+02 0.  0.
         66    2    3    3    0    0  0.20704002324E+02  0.30922498977E+02  0.20600366358E+02  0.42582058922E+02  0.19999981858E+01 0.  0.
        -13    1    3    3    0    0 -0.20704002324E+02 -0.30922498977E+02 -0.10011952088E+02  0.38537086084E+02  0.10566000000E+00 0.  1.
         13    1    4    4    0    0  0.12783306590E+01  0.19736393555E+01  0.17958719337E+01  0.29606927596E+01  0.10566000000E+00 0.  1.
        -13    1    4    4    0    0  0.14455657189E+02  0.21086397927E+02  0.13429040216E+02  0.28878235532E+02  0.10566000000E+00 0. -1.
         14    1    4    4    0    0  0.49700144763E+01  0.78624616937E+01  0.53754542090E+01  0.10743130630E+02  0.00000000000E+00 0. -1.
<mgrwt>
<rscale>  0 0.80425128E+02</rscale>
<asrwt>0</asrwt>
<pdfrwt beam="1">  1        2 0.70544276E-02 0.80425128E+02</pdfrwt>
<pdfrwt beam="2">  1       -1 0.54254409E-02 0.80425128E+02</pdfrwt>
<totfact> 0.14455311E+05</totfact>
</mgrwt>
</event>
<event>
 8    1  0.1520917E-013  0.7753690E+02  0.7818608E-02  0.1336190E+00
         -1   -1    0    0    0  501 -0.00000000000E+00  0.00000000000E+00  0.12106799805E+03  0.12106799816E+03  0.50400000000E-02 0.  1.
          2   -1    0    0  501    0  0.00000000000E+00 -0.00000000000E+00 -0.12414449671E+02  0.12414449933E+02  0.25500000000E-02 0. -1.
         24    2    1    2    0    0  0.00000000000E+00  0.00000000000E+00  0.10865354838E+03  0.13348244809E+03  0.77536896843E+02 0.  0.
         66    2    3    3    0    0  0.37188355067E+01  0.19590759676E+02 -0.28211610994E+01  0.20238244618E+02  0.19999982623E+01 0.  0.
        -13    1    3    3    0    0 -0.37188355067E+01 -0.19590759676E+02  0.11147470948E+03  0.11324420347E+03  0.10566000000E+00 0.  1.
         13    1    4    4    0    0  0.22227415731E+00  0.25221863117E+01 -0.14807105202E+00  0.25384874756E+01  0.10566000000E+00 0. -1.
        -13    1    4    4    0    0  0.27573377931E+01  0.11234516622E+02 -0.23868557525E+01  0.11812092103E+02  0.10566000000E+00 0.  1.
        -14    1    4    4    0    0  0.73922355630E+00  0.58340567424E+01 -0.28623429485E+00  0.58876650389E+01  0.00000000000E+00 0.  1.
<mgrwt>
<rscale>  0 0.77536897E+02</rscale>
<asrwt>0</asrwt>
<pdfrwt beam="1">  1        2 0.19099154E-02 0.77536897E+02</pdfrwt>
<pdfrwt beam="2">  1       -1 0.18625845E-01 0.77536897E+02</pdfrwt>
<totfact> 0.12289107E+05</totfact>
</mgrwt>
</event>
<event>
 8    1  0.1520917E-013  0.7990327E+02  0.7818608E-02  0.1329326E+00
         -1   -1    0    0    0  501 -0.00000000000E+00  0.00000000000E+00  0.32079943102E+02  0.32079943497E+02  0.50400000000E-02 0.  1.
          2   -1    0    0  501    0  0.00000000000E+00 -0.00000000000E+00 -0.49754855533E+02  0.49754855599E+02  0.25500000000E-02 0. -1.
         24    2    1    2    0    0  0.35527136788E-14  0.71054273576E-14 -0.17674912432E+02  0.81834799096E+02  0.79903265350E+02 0.  0.
         66    2    3    3    0    0 -0.29392414879E+02 -0.26360968503E+02 -0.14929125660E+02  0.42257466924E+02  0.20000012762E+01 0.  0.
        -13    1    3    3    0    0  0.29392414879E+02  0.26360968503E+02 -0.27457867718E+01  0.39577332172E+02  0.10566000000E+00 0.  1.
         13    1    4    4    0    0 -0.10389750806E+02 -0.86272709840E+01 -0.54730154094E+01  0.14571952105E+02  0.10566000000E+00 0. -1.
        -13    1    4    4    0    0 -0.18616081580E+02 -0.17298981246E+02 -0.94195456495E+01  0.27102624408E+02  0.10566000000E+00 0.  1.
        -14    1    4    4    0    0 -0.38658249316E+00 -0.43471627268E+00 -0.36564600972E-01  0.58289041148E+00  0.00000000000E+00 0.  1.
<mgrwt>
<rscale>  0 0.79903265E+02</rscale>
<asrwt>0</asrwt>
<pdfrwt beam="1">  1        2 0.76545931E-02 0.79903265E+02</pdfrwt>
<pdfrwt beam="2">  1       -1 0.49353759E-02 0.79903265E+02</pdfrwt>
<totfact> 0.14976590E+05</totfact>
</mgrwt>
</event>
<event>
 8    1  0.1520917E-013  0.8100179E+02  0.7818608E-02  0.1326232E+00
         -1   -1    0    0    0  501 -0.00000000000E+00  0.00000000000E+00  0.38035931215E+01  0.38035964606E+01  0.50400000000E-02 0.  1.
          2   -1    0    0  501    0  0.00000000000E+00 -0.00000000000E+00 -0.43125583088E+03  0.43125583089E+03  0.25500000000E-02 0. -1.
         24    2    1    2    0    0  0.00000000000E+00  0.17763568394E-14 -0.42745223776E+03  0.43505942735E+03  0.81001788621E+02 0.  0.
         66    2    3    3    0    0 -0.19985840533E+02 -0.94704238648E+01 -0.39593124590E+03  0.39655349480E+03  0.20000012948E+01 0.  0.
        -13    1    3    3    0    0  0.19985840533E+02  0.94704238648E+01 -0.31520991862E+02  0.38505932556E+02  0.10566000000E+00 0.  1.
         13    1    4    4    0    0 -0.14937057615E+02 -0.68433209641E+01 -0.30482798670E+03  0.30527046921E+03  0.10566000000E+00 0. -1.
        -13    1    4    4    0    0 -0.42029555715E+01 -0.24291774122E+01 -0.76459748704E+02  0.76613772093E+02  0.10566000000E+00 0.  1.
         14    1    4    4    0    0 -0.84582734643E+00 -0.19792548855E+00 -0.14643510492E+02  0.14669253489E+02  0.00000000000E+00 0. -1.
<mgrwt>
<rscale>  0 0.81001789E+02</rscale>
<asrwt>0</asrwt>
<pdfrwt beam="1">  1        2 0.66347012E-01 0.81001789E+02</pdfrwt>
<pdfrwt beam="2">  1       -1 0.58516877E-03 0.81001789E+02</pdfrwt>
<totfact> 0.28070530E+05</totfact>
</mgrwt>
</event>
<event>
 8    1  0.1520917E-013  0.7980695E+02  0.7818608E-02  0.1329600E+00
         -1   -1    0    0    0  501 -0.00000000000E+00  0.00000000000E+00  0.36350291914E+02  0.36350292264E+02  0.50400000000E-02 0.  1.
          2   -1    0    0  501    0  0.00000000000E+00 -0.00000000000E+00 -0.43803975241E+02  0.43803975315E+02  0.25500000000E-02 0. -1.
         24    2    1    2    0    0  0.00000000000E+00  0.00000000000E+00 -0.74536833264E+01  0.80154267578E+02  0.79806949672E+02 0.  0.
         66    2    3    3    0    0 -0.33194637627E+02 -0.93719869328E+01 -0.23830377662E+02  0.41971478423E+02  0.19999988060E+01 0.  0.
        -13    1    3    3    0    0  0.33194637627E+02  0.93719869328E+01  0.16376694336E+02  0.38182789155E+02  0.10566000000E+00 0.  1.
         13    1    4    4    0    0 -0.11365583821E+02 -0.28928033289E+01 -0.80359663506E+01  0.14217338918E+02  0.10566000000E+00 0. -1.
        -13    1    4    4    0    0 -0.14990012363E+02 -0.47968396634E+01 -0.10145866078E+02  0.18725915302E+02  0.10566000000E+00 0.  1.
        -14    1    4    4    0    0 -0.68390414432E+01 -0.16823439405E+01 -0.56485452335E+01  0.90282242025E+01  0.00000000000E+00 0.  1.
<mgrwt>
<rscale>  0 0.79806950E+02</rscale>
<asrwt>0</asrwt>
<pdfrwt beam="1">  1        2 0.67390731E-02 0.79806950E+02</pdfrwt>
<pdfrwt beam="2">  1       -1 0.55923527E-02 0.79806950E+02</pdfrwt>
<totfact> 0.14623557E+05</totfact>
</mgrwt>
</event>
<event>
 8    1  0.1520917E-013  0.8007781E+02  0.7818608E-02  0.1328831E+00
         -1   -1    0    0    0  501 -0.00000000000E+00  0.00000000000E+00  0.87223921133E+01  0.87223935694E+01  0.50400000000E-02 0.  1.
          2   -1    0    0  501    0  0.00000000000E+00 -0.00000000000E+00 -0.18379289822E+03  0.18379289824E+03  0.25500000000E-02 0. -1.
         24    2    1    2    0    0  0.00000000000E+00 -0.44408920985E-15 -0.17507050611E+03  0.19251529181E+03  0.80077808856E+02 0.  0.
         66    2    3    3    0    0 -0.39822068401E+02 -0.36596795232E+01 -0.90919641010E+02  0.99345717125E+02  0.20000009023E+01 0.  0.
        -13    1    3    3    0    0  0.39822068401E+02  0.36596795232E+01 -0.84150865097E+02  0.93169574683E+02  0.10566000000E+00 0.  1.
         13    1    4    4    0    0 -0.22047387318E+02 -0.15601337495E+01 -0.49620312284E+02  0.54320418446E+02  0.10566000000E+00 0. -1.
        -13    1    4    4    0    0 -0.74162807174E+01 -0.12657460495E+01 -0.18353301466E+02  0.19835780083E+02  0.10566000000E+00 0.  1.
        -14    1    4    4    0    0 -0.10358400366E+02 -0.83379972409E+00 -0.22946027260E+02  0.25189518597E+02  0.00000000000E+00 0.  1.
<mgrwt>
<rscale>  0 0.80077809E+02</rscale>
<asrwt>0</asrwt>
<pdfrwt beam="1">  1        2 0.28275828E-01 0.80077809E+02</pdfrwt>
<pdfrwt beam="2">  1       -1 0.13419067E-02 0.80077809E+02</pdfrwt>
<totfact> 0.21370989E+05</totfact>
</mgrwt>
</event>
<event>
 8    1  0.1520917E-013  0.7773553E+02  0.7818608E-02  0.1335603E+00
          2   -1    0    0  501    0  0.00000000000E+00  0.00000000000E+00  0.48120199391E+02  0.48120199459E+02  0.25500000000E-02 0. -1.
         -1   -1    0    0    0  501 -0.00000000000E+00 -0.00000000000E+00 -0.31394364385E+02  0.31394364789E+02  0.50400000000E-02 0.  1.
         24    2    1    2    0    0 -0.35527136788E-14  0.35527136788E-14  0.16725835007E+02  0.79514564248E+02  0.77735528369E+02 0.  0.
         66    2    3    3    0    0  0.22149373670E+02 -0.16488784662E+02  0.36310699709E+02  0.45661161716E+02  0.20000005733E+01 0.  0.
        -13    1    3    3    0    0 -0.22149373670E+02  0.16488784662E+02 -0.19584864702E+02  0.33853402532E+02  0.10566000000E+00 0.  1.
         13    1    4    4    0    0  0.14462688751E+02 -0.10511325163E+02  0.23367810418E+02  0.29423171997E+02  0.10566000000E+00 0. -1.
        -13    1    4    4    0    0  0.82985978022E+00 -0.91964811627E+00  0.21936289238E+01  0.25214265414E+01  0.10566000000E+00 0.  1.
        -14    1    4    4    0    0  0.68568251386E+01 -0.50578113826E+01  0.10749260367E+02  0.13716563178E+02  0.00000000000E+00 0.  1.
<mgrwt>
<rscale>  0 0.77735528E+02</rscale>
<asrwt>0</asrwt>
<pdfrwt beam="1">  1        2 0.74031076E-02 0.77735528E+02</pdfrwt>
<pdfrwt beam="2">  1       -1 0.48299023E-02 0.77735528E+02</pdfrwt>
<totfact> 0.16031544E+05</totfact>
</mgrwt>
</event>
<event>
 8    1  0.1520917E-013  0.7978713E+02  0.7818608E-02  0.1329657E+00
         -1   -1    0    0    0  501 -0.00000000000E+00  0.00000000000E+00  0.72722755576E+02  0.72722755751E+02  0.50400000000E-02 0.  1.
          2   -1    0    0  501    0  0.00000000000E+00 -0.00000000000E+00 -0.21884438564E+02  0.21884438712E+02  0.25500000000E-02 0. -1.
         24    2    1    2    0    0  0.00000000000E+00 -0.17763568394E-14  0.50838317013E+02  0.94607194463E+02  0.79787134098E+02 0.  0.
         66    2    3    3    0    0  0.32712649839E+02 -0.12592122162E+02  0.29117751596E+01  0.35230064370E+02  0.20000002302E+01 0.  0.
        -13    1    3    3    0    0 -0.32712649839E+02  0.12592122162E+02  0.47926541853E+02  0.59377130093E+02  0.10566000000E+00 0.  1.
         13    1    4    4    0    0  0.85493731225E+01 -0.27487344083E+01  0.10720223108E+01  0.90447618822E+01  0.10566000000E+00 0. -1.
        -13    1    4    4    0    0  0.77963624439E+01 -0.37414482724E+01  0.84855905849E+00  0.86898169741E+01  0.10566000000E+00 0.  1.
         14    1    4    4    0    0  0.16366914273E+02 -0.61019394818E+01  0.99119379027E+00  0.17495485514E+02  0.00000000000E+00 0. -1.
<mgrwt>
<rscale>  0 0.79787134E+02</rscale>
<asrwt>0</asrwt>
<pdfrwt beam="1">  1        2 0.33668367E-02 0.79787134E+02</pdfrwt>
<pdfrwt beam="2">  1       -1 0.11188116E-01 0.79787134E+02</pdfrwt>
<totfact> 0.12738820E+05</totfact>
</mgrwt>
</event>
<event>
 8    1  0.1520917E-013  0.8033623E+02  0.7818608E-02  0.1328100E+00
         -1   -1    0    0    0  501 -0.00000000000E+00  0.00000000000E+00  0.19740370384E+02  0.19740371027E+02  0.50400000000E-02 0.  1.
          2   -1    0    0  501    0  0.00000000000E+00 -0.00000000000E+00 -0.81734918988E+02  0.81734919028E+02  0.25500000000E-02 0. -1.
         24    2    1    2    0    0  0.00000000000E+00  0.00000000000E+00 -0.61994548604E+02  0.10147529005E+03  0.80336233638E+02 0.  0.
         66    2    3    3    0    0  0.13213268248E+02 -0.46689915015E+01 -0.78532418140E+02  0.79798061629E+02  0.20000003325E+01 0.  0.
        -13    1    3    3    0    0 -0.13213268248E+02  0.46689915015E+01  0.16537869536E+02  0.21677228426E+02  0.10566000000E+00 0.  1.
         13    1    4    4    0    0  0.78972458247E+01 -0.26860090875E+01 -0.47578409983E+02  0.48304217176E+02  0.10566000000E+00 0. -1.
        -13    1    4    4    0    0  0.60418609997E+00  0.91076562371E-01 -0.23605047896E+01  0.24405906418E+01  0.10566000000E+00 0.  1.
        -14    1    4    4    0    0  0.47118363229E+01 -0.20740589763E+01 -0.28593503368E+02  0.29053253811E+02  0.00000000000E+00 0.  1.
<mgrwt>
<rscale>  0 0.80336234E+02</rscale>
<asrwt>0</asrwt>
<pdfrwt beam="1">  1        2 0.12574603E-01 0.80336234E+02</pdfrwt>
<pdfrwt beam="2">  1       -1 0.30369802E-02 0.80336234E+02</pdfrwt>
<totfact> 0.16599616E+05</totfact>
</mgrwt>
</event>
<event>
 8    1  0.1520917E-013  0.7616714E+02  0.7818608E-02  0.1340294E+00
          2   -1    0    0  501    0  0.00000000000E+00  0.00000000000E+00  0.82718642339E+03  0.82718642339E+03  0.25500000000E-02 0. -1.
         -1   -1    0    0    0  501 -0.00000000000E+00 -0.00000000000E+00 -0.17533596044E+01  0.17533668481E+01  0.50400000000E-02 0.  1.
         24    2    1    2    0    0  0.17763568394E-14  0.17763568394E-14  0.82543306378E+03  0.82893979024E+03  0.76167138951E+02 0.  0.
         66    2    3    3    0    0  0.80928965440E+01  0.15523723102E+02  0.78075999807E+03  0.78095880528E+03  0.20000011245E+01 0.  0.
        -13    1    3    3    0    0 -0.80928965440E+01 -0.15523723102E+02  0.44673065709E+02  0.47980984955E+02  0.10566000000E+00 0.  1.
         13    1    4    4    0    0  0.15079585660E+01  0.25482143818E+01  0.12224317317E+03  0.12227907379E+03  0.10566000000E+00 0. -1.
        -13    1    4    4    0    0  0.25969421041E+01  0.35810326873E+01  0.18454811299E+03  0.18460115134E+03  0.10566000000E+00 0.  1.
         14    1    4    4    0    0  0.39879958739E+01  0.93944760331E+01  0.47396871191E+03  0.47407858015E+03  0.00000000000E+00 0. -1.
<mgrwt>
<rscale>  0 0.76167139E+02</rscale>
<asrwt>0</asrwt>
<pdfrwt beam="1">  1        2 0.12725981E+00 0.76167139E+02</pdfrwt>
<pdfrwt beam="2">  1       -1 0.26974744E-03 0.76167139E+02</pdfrwt>
<totfact> 0.39242080E+05</totfact>
</mgrwt>
</event>
<event>
 8    1  0.1520917E-013  0.7835004E+02  0.7818608E-02  0.1333800E+00
         -1   -1    0    0    0  501 -0.00000000000E+00  0.00000000000E+00  0.20985408240E+01  0.20985468762E+01  0.50400000000E-02 0.  1.
          2   -1    0    0  501    0  0.00000000000E+00 -0.00000000000E+00 -0.73130810621E+03  0.73130810621E+03  0.25500000000E-02 0. -1.
         24    2    1    2    0    0 -0.17763568394E-14  0.00000000000E+00 -0.72920956538E+03  0.73340665309E+03  0.78350038592E+02 0.  0.
         66    2    3    3    0    0 -0.14058939731E+02  0.30643466442E+02 -0.55111644284E+03  0.55215035035E+03  0.19999995705E+01 0.  0.
        -13    1    3    3    0    0  0.14058939731E+02 -0.30643466442E+02 -0.17809312254E+03  0.18125630274E+03  0.10566000000E+00 0.  1.
         13    1    4    4    0    0 -0.14906401319E+01  0.28789171768E+01 -0.47955468428E+02  0.48065042268E+02  0.10566000000E+00 0. -1.
        -13    1    4    4    0    0 -0.23002763528E+01  0.49151422823E+01 -0.99149046995E+02  0.99297505401E+02  0.10566000000E+00 0.  1.
        -14    1    4    4    0    0 -0.10268023246E+02  0.22849406983E+02 -0.40401192742E+03  0.40478780268E+03  0.00000000000E+00 0.  1.
<mgrwt>
<rscale>  0 0.78350039E+02</rscale>
<asrwt>0</asrwt>
<pdfrwt beam="1">  1        2 0.11250874E+00 0.78350039E+02</pdfrwt>
<pdfrwt beam="2">  1       -1 0.32285348E-03 0.78350039E+02</pdfrwt>
<totfact> 0.35653775E+05</totfact>
</mgrwt>
</event>
<event>
 8    1  0.1520917E-013  0.7874010E+02  0.7818608E-02  0.1332665E+00
         -1   -1    0    0    0  501 -0.00000000000E+00  0.00000000000E+00  0.34653890048E+02  0.34653890414E+02  0.50400000000E-02 0.  1.
          2   -1    0    0  501    0  0.00000000000E+00 -0.00000000000E+00 -0.44728051351E+02  0.44728051424E+02  0.25500000000E-02 0. -1.
         24    2    1    2    0    0 -0.35527136788E-14 -0.35527136788E-14 -0.10074161303E+02  0.79381941838E+02  0.78740103911E+02 0.  0.
         66    2    3    3    0    0 -0.30797854017E+02  0.24382763287E+02 -0.27930050222E+01  0.39431305318E+02  0.20000011106E+01 0.  0.
        -13    1    3    3    0    0  0.30797854017E+02 -0.24382763287E+02 -0.72811562809E+01  0.39950636520E+02  0.10566000000E+00 0.  1.
         13    1    4    4    0    0 -0.54133279864E+00  0.30969218253E+00  0.31137846508E-01  0.63331196727E+00  0.10566000000E+00 0. -1.
        -13    1    4    4    0    0 -0.50327129915E+01  0.40627393346E+01 -0.10364410776E+01  0.65512918648E+01  0.10566000000E+00 0.  1.
         14    1    4    4    0    0 -0.25223808227E+02  0.20010331770E+02 -0.17877017911E+01  0.32246701485E+02  0.00000000000E+00 0. -1.
<mgrwt>
<rscale>  0 0.78740104E+02</rscale>
<asrwt>0</asrwt>
<pdfrwt beam="1">  1        2 0.68812387E-02 0.78740104E+02</pdfrwt>
<pdfrwt beam="2">  1       -1 0.53313678E-02 0.78740104E+02</pdfrwt>
<totfact> 0.15241128E+05</totfact>
</mgrwt>
</event>
<event>
 8    1  0.1520917E-013  0.8099608E+02  0.7818608E-02  0.1326248E+00
         -1   -1    0    0    0  501 -0.00000000000E+00  0.00000000000E+00  0.22531128975E+03  0.22531128980E+03  0.50400000000E-02 0.  1.
          2   -1    0    0  501    0  0.00000000000E+00 -0.00000000000E+00 -0.72792240456E+01  0.72792244922E+01  0.25500000000E-02 0. -1.
         24    2    1    2    0    0  0.00000000000E+00  0.00000000000E+00  0.21803206570E+03  0.23259051430E+03  0.80996084265E+02 0.  0.
         66    2    3    3    0    0  0.39056847761E+02  0.64659862102E+01  0.84912821596E+02  0.93709303724E+02  0.19999995535E+01 0.  0.
        -13    1    3    3    0    0 -0.39056847761E+02 -0.64659862102E+01  0.13311924410E+03  0.13888121057E+03  0.10566000000E+00 0.  1.
         13    1    4    4    0    0  0.29633251556E+02  0.51491411989E+01  0.65023417801E+02  0.71642859235E+02  0.10566000000E+00 0. -1.
        -13    1    4    4    0    0  0.67824118133E+01  0.55678642147E+00  0.14405570802E+02  0.15932443482E+02  0.10566000000E+00 0.  1.
         14    1    4    4    0    0  0.26411843921E+01  0.76005858981E+00  0.54838329929E+01  0.61340010064E+01  0.00000000000E+00 0. -1.
<mgrwt>
<rscale>  0 0.80996084E+02</rscale>
<asrwt>0</asrwt>
<pdfrwt beam="1">  1        2 0.11198807E-02 0.80996084E+02</pdfrwt>
<pdfrwt beam="2">  1       -1 0.34663273E-01 0.80996084E+02</pdfrwt>
<totfact> 0.92954503E+04</totfact>
</mgrwt>
</event>
<event>
 8    1  0.1520917E-013  0.8653624E+02  0.7818608E-02  0.1311463E+00
          2   -1    0    0  501    0  0.00000000000E+00  0.00000000000E+00  0.26497743716E+04  0.26497743716E+04  0.25500000000E-02 0. -1.
         -1   -1    0    0    0  501 -0.00000000000E+00 -0.00000000000E+00 -0.70651544671E+00  0.70653342316E+00  0.50400000000E-02 0.  1.
         24    2    1    2    0    0 -0.17763568394E-14  0.00000000000E+00  0.26490678562E+04  0.26504809050E+04  0.86536243241E+02 0.  0.
         66    2    3    3    0    0  0.86254337382E+01 -0.62756015762E+01  0.26088445573E+04  0.26088671306E+04  0.19999999588E+01 0.  0.
        -13    1    3    3    0    0 -0.86254337382E+01  0.62756015762E+01  0.40223298892E+02  0.41613774404E+02  0.10566000000E+00 0.  1.
         13    1    4    4    0    0  0.47733156893E+01 -0.31312813995E+01  0.13483463185E+04  0.13483584076E+04  0.10566000000E+00 0. -1.
        -13    1    4    4    0    0  0.21462671976E+00 -0.18267796087E-01  0.24402396719E+02  0.24403576132E+02  0.10566000000E+00 0. -1.
        -14    1    4    4    0    0  0.36374913292E+01 -0.31260523806E+01  0.12360958421E+04  0.12361051469E+04  0.00000000000E+00 0.  1.
<mgrwt>
<rscale>  0 0.86536243E+02</rscale>
<asrwt>0</asrwt>
<pdfrwt beam="1">  1        2 0.40766172E+00 0.86536243E+02</pdfrwt>
<pdfrwt beam="2">  1       -1 0.10869497E-03 0.86536243E+02</pdfrwt>
<totfact> 0.15404780E+05</totfact>
</mgrwt>
</event>
<event>
 8    1  0.1655868E-013  0.7663885E+02  0.7818608E-02  0.1338870E+00
         -1   -1    0    0    0  501 -0.00000000000E+00  0.00000000000E+00  0.16417295065E+01  0.16417372428E+01  0.50400000000E-02 0.  1.
          2   -1    0    0  501    0  0.00000000000E+00 -0.00000000000E+00 -0.89440727450E+03  0.89440727450E+03  0.25500000000E-02 0. -1.
         24    2    1    2    0    0  0.17763568394E-14  0.00000000000E+00 -0.89276554499E+03  0.89604901175E+03  0.76638848662E+02 0.  0.
         66    2    3    3    0    0  0.12724899824E+02  0.11997380450E+02 -0.84498364893E+03  0.84516698182E+03  0.20000000375E+01 0.  0.
        -13    1    3    3    0    0 -0.12724899824E+02 -0.11997380450E+02 -0.47781896068E+02  0.50882029923E+02  0.10566000000E+00 0.  1.
         13    1    4    4    0    0  0.38598635808E+01  0.32008898267E+01 -0.24838984116E+03  0.24844047295E+03  0.10566000000E+00 0. -1.
        -13    1    4    4    0    0  0.49825094230E+01  0.48334352636E+01 -0.36717640230E+03  0.36724203064E+03  0.10566000000E+00 0.  1.
        -14    1    4    4    0    0  0.38825268199E+01  0.39630553594E+01 -0.22941740547E+03  0.22948447824E+03  0.00000000000E+00 0.  1.
<mgrwt>
<rscale>  0 0.76638849E+02</rscale>
<asrwt>0</asrwt>
<pdfrwt beam="1">  1        2 0.13760073E+00 0.76638849E+02</pdfrwt>
<pdfrwt beam="2">  1       -1 0.25257508E-03 0.76638849E+02</pdfrwt>
<totfact> 0.39030135E+05</totfact>
</mgrwt>
</event>
<event>
 8    1  0.1520917E-013  0.8037044E+02  0.7818608E-02  0.1328003E+00
         -1   -1    0    0    0  501 -0.00000000000E+00  0.00000000000E+00  0.51928498366E+02  0.51928498610E+02  0.50400000000E-02 0.  1.
          2   -1    0    0  501    0  0.00000000000E+00 -0.00000000000E+00 -0.31097606915E+02  0.31097607020E+02  0.25500000000E-02 0. -1.
         24    2    1    2    0    0  0.00000000000E+00  0.00000000000E+00  0.20830891450E+02  0.83026105630E+02  0.80370443432E+02 0.  0.
         66    2    3    3    0    0 -0.29242524522E+02  0.27033784782E+02  0.50643461901E+01  0.40194506623E+02  0.20000000599E+01 0.  0.
        -13    1    3    3    0    0  0.29242524522E+02 -0.27033784782E+02  0.15766545260E+02  0.42831599007E+02  0.10566000000E+00 0.  1.
         13    1    4    4    0    0 -0.39385432432E+01  0.35629130694E+01  0.41793098107E+00  0.53284428081E+01  0.10566000000E+00 0. -1.
        -13    1    4    4    0    0 -0.91261982130E-01  0.20304806681E+00  0.42179040330E-01  0.25000074772E+00  0.10566000000E+00 0.  1.
         14    1    4    4    0    0 -0.25212719297E+02  0.23267823646E+02  0.46042361687E+01  0.34616063067E+02  0.00000000000E+00 0. -1.
<mgrwt>
<rscale>  0 0.80370443E+02</rscale>
<asrwt>0</asrwt>
<pdfrwt beam="1">  1        2 0.47842473E-02 0.80370443E+02</pdfrwt>
<pdfrwt beam="2">  1       -1 0.79889997E-02 0.80370443E+02</pdfrwt>
<totfact> 0.13377039E+05</totfact>
</mgrwt>
</event>
<event>
 8    1  0.1520917E-013  0.7775779E+02  0.7818608E-02  0.1335538E+00
         -1   -1    0    0    0  501 -0.00000000000E+00  0.00000000000E+00  0.24843110412E+02  0.24843110923E+02  0.50400000000E-02 0.  1.
          2   -1    0    0  501    0  0.00000000000E+00 -0.00000000000E+00 -0.60844573214E+02  0.60844573267E+02  0.25500000000E-02 0. -1.
         24    2    1    2    0    0  0.35527136788E-14  0.00000000000E+00 -0.36001462802E+02  0.85687684190E+02  0.77757789951E+02 0.  0.
         66    2    3    3    0    0 -0.21584122606E+02 -0.17595907849E+02 -0.47869471327E+02  0.55416392310E+02  0.19999824726E+01 0.  0.
        -13    1    3    3    0    0  0.21584122606E+02  0.17595907849E+02  0.11868008526E+02  0.30271291880E+02  0.10566000000E+00 0.  1.
         13    1    4    4    0    0 -0.13536342236E+02 -0.11574773400E+02 -0.29498008166E+02  0.34457968457E+02  0.10566000000E+00 0. -1.
        -13    1    4    4    0    0 -0.70264263289E+00 -0.27878980925E+00 -0.14253503101E+01  0.16168543439E+01  0.10566000000E+00 0.  1.
         14    1    4    4    0    0 -0.73451377365E+01 -0.57423446397E+01 -0.16946112851E+02  0.19341569509E+02  0.00000000000E+00 0. -1.
<mgrwt>
<rscale>  0 0.77757790E+02</rscale>
<asrwt>0</asrwt>
<pdfrwt beam="1">  1        2 0.93607036E-02 0.77757790E+02</pdfrwt>
<pdfrwt beam="2">  1       -1 0.38220171E-02 0.77757790E+02</pdfrwt>
<totfact> 0.16869311E+05</totfact>
</mgrwt>
</event>
<event>
 8    1  0.1520917E-013  0.8000857E+02  0.7818608E-02  0.1329027E+00
          2   -1    0    0  501    0  0.00000000000E+00  0.00000000000E+00  0.57274273526E+03  0.57274273527E+03  0.25500000000E-02 0. -1.
         -1   -1    0    0    0  501 -0.00000000000E+00 -0.00000000000E+00 -0.27941714380E+01  0.27941759834E+01  0.50400000000E-02 0.  1.
         24    2    1    2    0    0 -0.35527136788E-14  0.11102230246E-15  0.56994856383E+03  0.57553691125E+03  0.80008567087E+02 0.  0.
         66    2    3    3    0    0 -0.16749378744E+02  0.98014039723E+00  0.54618907353E+03  0.54645036957E+03  0.20000011110E+01 0.  0.
        -13    1    3    3    0    0  0.16749378744E+02 -0.98014039723E+00  0.23759490299E+02  0.29086541678E+02  0.10566000000E+00 0.  1.
         13    1    4    4    0    0 -0.79834333612E+01  0.10253611163E+01  0.25515088154E+03  0.25527782921E+03  0.10566000000E+00 0. -1.
        -13    1    4    4    0    0 -0.10045714415E+01  0.22026147549E+00  0.25859519387E+02  0.25880177470E+02  0.10566000000E+00 0. -1.
         14    1    4    4    0    0 -0.77613739412E+01 -0.26548219456E+00  0.26517867260E+03  0.26529236289E+03  0.00000000000E+00 0. -1.
<mgrwt>
<rscale>  0 0.80008567E+02</rscale>
<asrwt>0</asrwt>
<pdfrwt beam="1">  1        2 0.88114198E-01 0.80008567E+02</pdfrwt>
<pdfrwt beam="2">  1       -1 0.42987322E-03 0.80008567E+02</pdfrwt>
<totfact> 0.31731995E+05</totfact>
</mgrwt>
</event>
<event>
 8    1  0.1520917E-013  0.8084007E+02  0.7818608E-02  0.1326684E+00
         -1   -1    0    0    0  501 -0.00000000000E+00  0.00000000000E+00  0.21850645698E+03  0.21850645704E+03  0.50400000000E-02 0.  1.
          2   -1    0    0  501    0  0.00000000000E+00 -0.00000000000E+00 -0.74770301580E+01  0.74770305928E+01  0.25500000000E-02 0. -1.
         24    2    1    2    0    0 -0.71054273576E-14 -0.27755575616E-16  0.21102942683E+03  0.22598348763E+03  0.80840074821E+02 0.  0.
         66    2    3    3    0    0  0.36788381695E+02 -0.50828388434E-01  0.58937418780E+02  0.69505445448E+02  0.20000007943E+01 0.  0.
        -13    1    3    3    0    0 -0.36788381695E+02  0.50828388434E-01  0.15209200805E+03  0.15647804219E+03  0.10566000000E+00 0.  1.
         13    1    4    4    0    0  0.21009650347E+02 -0.50781686775E-01  0.32538146827E+02  0.38731771835E+02  0.10566000000E+00 0. -1.
        -13    1    4    4    0    0  0.26682538890E+01 -0.31240468667E+00  0.40590333445E+01  0.48686847538E+01  0.10566000000E+00 0. -1.
        -14    1    4    4    0    0  0.13110477459E+02  0.31235798501E+00  0.22340238608E+02  0.25904988859E+02  0.00000000000E+00 0.  1.
<mgrwt>
<rscale>  0 0.80840075E+02</rscale>
<asrwt>0</asrwt>
<pdfrwt beam="1">  1        2 0.11503122E-02 0.80840075E+02</pdfrwt>
<pdfrwt beam="2">  1       -1 0.33616384E-01 0.80840075E+02</pdfrwt>
<totfact> 0.94347826E+04</totfact>
</mgrwt>
</event>
<event>
 8    1  0.1520917E-013  0.8418108E+02  0.7818608E-02  0.1317588E+00
         -1   -1    0    0    0  501 -0.00000000000E+00  0.00000000000E+00  0.25562106923E+01  0.25562156609E+01  0.50400000000E-02 0.  1.
          2   -1    0    0  501    0  0.00000000000E+00 -0.00000000000E+00 -0.69306174298E+03  0.69306174299E+03  0.25500000000E-02 0. -1.
         24    2    1    2    0    0  0.00000000000E+00  0.35527136788E-14 -0.69050553229E+03  0.69561795865E+03  0.84181080241E+02 0.  0.
         66    2    3    3    0    0  0.89953545952E+00  0.25177653314E+02 -0.62382339680E+03  0.62433512938E+03  0.19999991383E+01 0.  0.
        -13    1    3    3    0    0 -0.89953545952E+00 -0.25177653314E+02 -0.66682135494E+02  0.71282829269E+02  0.10566000000E+00 0.  1.
         13    1    4    4    0    0  0.12002806162E+00  0.17789079971E+01 -0.54967296249E+02  0.54996306616E+02  0.10566000000E+00 0. -1.
        -13    1    4    4    0    0  0.63351874726E-01  0.14645701047E+01 -0.42537553585E+02  0.42562937023E+02  0.10566000000E+00 0.  1.
         14    1    4    4    0    0  0.71615552317E+00  0.21934175213E+02 -0.52631854696E+03  0.52677588574E+03  0.00000000000E+00 0. -1.
<mgrwt>
<rscale>  0 0.84181080E+02</rscale>
<asrwt>0</asrwt>
<pdfrwt beam="1">  1        2 0.10662473E+00 0.84181080E+02</pdfrwt>
<pdfrwt beam="2">  1       -1 0.39326412E-03 0.84181080E+02</pdfrwt>
<totfact> 0.29225282E+05</totfact>
</mgrwt>
</event>
<event>
 8    1  0.1520917E-013  0.7926033E+02  0.7818608E-02  0.1331164E+00
         -1   -1    0    0    0  501 -0.00000000000E+00  0.00000000000E+00  0.22904873190E+02  0.22904873745E+02  0.50400000000E-02 0.  1.
          2   -1    0    0  501    0  0.00000000000E+00 -0.00000000000E+00 -0.68568375651E+02  0.68568375698E+02  0.25500000000E-02 0. -1.
         24    2    1    2    0    0  0.00000000000E+00  0.00000000000E+00 -0.45663502461E+02  0.91473249443E+02  0.79260329969E+02 0.  0.
         66    2    3    3    0    0  0.86983033963E+01 -0.17429804700E+02 -0.62642754317E+02  0.65632105283E+02  0.20000003832E+01 0.  0.
        -13    1    3    3    0    0 -0.86983033963E+01  0.17429804700E+02  0.16979251857E+02  0.25841144160E+02  0.10566000000E+00 0.  1.
         13    1    4    4    0    0  0.57494890836E+01 -0.98559935478E+01 -0.36079251549E+02  0.37840729246E+02  0.10566000000E+00 0. -1.
        -13    1    4    4    0    0  0.14135089681E+01 -0.40342937058E+01 -0.15246854077E+02  0.15835127299E+02  0.10566000000E+00 0.  1.
         14    1    4    4    0    0  0.15353053445E+01 -0.35395174463E+01 -0.11316648692E+02  0.11956248738E+02  0.00000000000E+00 0. -1.
<mgrwt>
<rscale>  0 0.79260330E+02</rscale>
<asrwt>0</asrwt>
<pdfrwt beam="1">  1        2 0.10548981E-01 0.79260330E+02</pdfrwt>
<pdfrwt beam="2">  1       -1 0.35238267E-02 0.79260330E+02</pdfrwt>
<totfact> 0.16474633E+05</totfact>
</mgrwt>
</event>
<event>
 8    1  0.1520917E-013  0.8035045E+02  0.7818608E-02  0.1328060E+00
          2   -1    0    0  501    0  0.00000000000E+00  0.00000000000E+00  0.14182443952E+03  0.14182443955E+03  0.25500000000E-02 0. -1.
         -1   -1    0    0    0  501 -0.00000000000E+00 -0.00000000000E+00 -0.11380608846E+02  0.11380609962E+02  0.50400000000E-02 0.  1.
         24    2    1    2    0    0 -0.35527136788E-14 -0.35527136788E-14  0.13044383068E+03  0.15320504951E+03  0.80350446378E+02 0.  0.
         66    2    3    3    0    0  0.16082347223E+02  0.21098875306E+02  0.12272476182E+03  0.12557536222E+03  0.20000007447E+01 0.  0.
        -13    1    3    3    0    0 -0.16082347223E+02 -0.21098875306E+02  0.77190688599E+01  0.27629687285E+02  0.10566000000E+00 0.  1.
         13    1    4    4    0    0  0.10269530120E+02  0.13039802974E+02  0.75231450345E+02  0.77040781379E+02  0.10566000000E+00 0. -1.
        -13    1    4    4    0    0  0.38311648011E+01  0.44148146495E+01  0.28534647372E+02  0.29127404224E+02  0.10566000000E+00 0.  1.
        -14    1    4    4    0    0  0.19816523019E+01  0.36442576827E+01  0.18958664101E+02  0.19407176621E+02  0.00000000000E+00 0.  1.
<mgrwt>
<rscale>  0 0.80350446E+02</rscale>
<asrwt>0</asrwt>
<pdfrwt beam="1">  1        2 0.21819144E-01 0.80350446E+02</pdfrwt>
<pdfrwt beam="2">  1       -1 0.17508631E-02 0.80350446E+02</pdfrwt>
<totfact> 0.19447318E+05</totfact>
</mgrwt>
</event>
<event>
 8    1  0.1715029E-013  0.7843276E+02  0.7818608E-02  0.1333559E+00
         -1   -1    0    0    0  501 -0.00000000000E+00  0.00000000000E+00  0.16153570626E+01  0.16153649251E+01  0.50400000000E-02 0.  1.
          2   -1    0    0  501    0  0.00000000000E+00 -0.00000000000E+00 -0.95206238788E+03  0.95206238788E+03  0.25500000000E-02 0. -1.
         24    2    1    2    0    0  0.00000000000E+00 -0.17763568394E-14 -0.95044703081E+03  0.95367775281E+03  0.78432759815E+02 0.  0.
         66    2    3    3    0    0 -0.28422108506E+02 -0.12990108144E+02 -0.76310590648E+03  0.76374811532E+03  0.20000001588E+01 0.  0.
        -13    1    3    3    0    0  0.28422108506E+02  0.12990108144E+02 -0.18734112434E+03  0.18992963748E+03  0.10566000000E+00 0.  1.
         13    1    4    4    0    0 -0.22162606233E+02 -0.99056019786E+01 -0.59093320914E+03  0.59143162825E+03  0.10566000000E+00 0. -1.
        -13    1    4    4    0    0 -0.53867137161E+01 -0.23247621584E+01 -0.14748772120E+03  0.14760440465E+03  0.10566000000E+00 0.  1.
        -14    1    4    4    0    0 -0.87278855648E+00 -0.75974400666E+00 -0.24684976135E+02  0.24712082421E+02  0.00000000000E+00 0.  1.
<mgrwt>
<rscale>  0 0.78432760E+02</rscale>
<asrwt>0</asrwt>
<pdfrwt beam="1">  1        2 0.14647069E+00 0.78432760E+02</pdfrwt>
<pdfrwt beam="2">  1       -1 0.24851784E-03 0.78432760E+02</pdfrwt>
<totfact> 0.36979382E+05</totfact>
</mgrwt>
</event>
<event>
 8    1  0.1520917E-013  0.8083729E+02  0.7818608E-02  0.1326692E+00
         -1   -1    0    0    0  501 -0.00000000000E+00  0.00000000000E+00  0.35952111714E+02  0.35952112067E+02  0.50400000000E-02 0.  1.
          2   -1    0    0  501    0  0.00000000000E+00 -0.00000000000E+00 -0.45440077160E+02  0.45440077232E+02  0.25500000000E-02 0. -1.
         24    2    1    2    0    0  0.17763568394E-14  0.00000000000E+00 -0.94879654464E+01  0.81392189299E+02  0.80837287130E+02 0.  0.
         66    2    3    3    0    0  0.14772671983E+02 -0.32980002040E+02 -0.22919301768E+02  0.42839312215E+02  0.19999763555E+01 0.  0.
        -13    1    3    3    0    0 -0.14772671983E+02  0.32980002040E+02  0.13431336322E+02  0.38552877084E+02  0.10566000000E+00 0.  1.
         13    1    4    4    0    0  0.91925659818E+00 -0.20352592700E+01 -0.18652650294E+01  0.29116474125E+01  0.10566000000E+00 0.  1.
        -13    1    4    4    0    0  0.35575717047E+01 -0.91883879078E+01 -0.58998819010E+01  0.11484883946E+02  0.10566000000E+00 0.  1.
         14    1    4    4    0    0  0.10295843680E+02 -0.21756354862E+02 -0.15154154838E+02  0.28442780856E+02  0.00000000000E+00 0. -1.
<mgrwt>
<rscale>  0 0.80837287E+02</rscale>
<asrwt>0</asrwt>
<pdfrwt beam="1">  1        2 0.69907811E-02 0.80837287E+02</pdfrwt>
<pdfrwt beam="2">  1       -1 0.55310941E-02 0.80837287E+02</pdfrwt>
<totfact> 0.14225884E+05</totfact>
</mgrwt>
</event>
<event>
 8    1  0.1520917E-013  0.8464691E+02  0.7818608E-02  0.1316359E+00
          2   -1    0    0  501    0  0.00000000000E+00  0.00000000000E+00  0.17029703489E+03  0.17029703491E+03  0.25500000000E-02 0. -1.
         -1   -1    0    0    0  501 -0.00000000000E+00 -0.00000000000E+00 -0.10518530335E+02  0.10518531543E+02  0.50400000000E-02 0.  1.
         24    2    1    2    0    0  0.88817841970E-15  0.35527136788E-14  0.15977850455E+03  0.18081556645E+03  0.84646905161E+02 0.  0.
         66    2    3    3    0    0 -0.69645779418E+01 -0.13771469009E+02  0.16406281045E+03  0.16479916405E+03  0.19999988613E+01 0.  0.
        -13    1    3    3    0    0  0.69645779418E+01  0.13771469009E+02 -0.42843058994E+01  0.16016402394E+02  0.10566000000E+00 0.  1.
         13    1    4    4    0    0 -0.70188113693E+00 -0.16334527606E+01  0.24382856957E+02  0.24447815495E+02  0.10566000000E+00 0. -1.
        -13    1    4    4    0    0 -0.11813639022E+01 -0.30867169491E+01  0.30255977256E+02  0.30436142429E+02  0.10566000000E+00 0.  1.
        -14    1    4    4    0    0 -0.50813329026E+01 -0.90512992992E+01  0.10942397624E+03  0.10991520613E+03  0.00000000000E+00 0.  1.
<mgrwt>
<rscale>  0 0.84646905E+02</rscale>
<asrwt>0</asrwt>
<pdfrwt beam="1">  1        2 0.26199541E-01 0.84646905E+02</pdfrwt>
<pdfrwt beam="2">  1       -1 0.16182357E-02 0.84646905E+02</pdfrwt>
<totfact> 0.17974809E+05</totfact>
</mgrwt>
</event>
<event>
 8    1  0.1520917E-013  0.8412784E+02  0.7818608E-02  0.1317729E+00
         -1   -1    0    0    0  501 -0.00000000000E+00  0.00000000000E+00  0.16459892134E+02  0.16459892906E+02  0.50400000000E-02 0.  1.
          2   -1    0    0  501    0  0.00000000000E+00 -0.00000000000E+00 -0.10749603634E+03  0.10749603637E+03  0.25500000000E-02 0. -1.
         24    2    1    2    0    0  0.00000000000E+00  0.00000000000E+00 -0.91036144207E+02  0.12395592928E+03  0.84127836362E+02 0.  0.
         66    2    3    3    0    0  0.16762245521E+02  0.38194390537E+02 -0.37805255976E+02  0.56329581089E+02  0.19999956963E+01 0.  0.
        -13    1    3    3    0    0 -0.16762245521E+02 -0.38194390537E+02 -0.53230888231E+02  0.67626348189E+02  0.10566000000E+00 0.  1.
         13    1    4    4    0    0  0.89227544617E+00  0.14917160912E+01 -0.15150162416E+01  0.23082050638E+01  0.10566000000E+00 0. -1.
        -13    1    4    4    0    0  0.30065953922E+01  0.85508071396E+01 -0.83346119555E+01  0.12313928661E+02  0.10566000000E+00 0.  1.
         14    1    4    4    0    0  0.12863374683E+02  0.28151867307E+02 -0.27955627779E+02  0.41707447364E+02  0.00000000000E+00 0. -1.
<mgrwt>
<rscale>  0 0.84127836E+02</rscale>
<asrwt>0</asrwt>
<pdfrwt beam="1">  1        2 0.16537851E-01 0.84127836E+02</pdfrwt>
<pdfrwt beam="2">  1       -1 0.25322912E-02 0.84127836E+02</pdfrwt>
<totfact> 0.15809404E+05</totfact>
</mgrwt>
</event>
<event>
 8    1  0.1520917E-013  0.8062219E+02  0.7818608E-02  0.1327295E+00
          2   -1    0    0  501    0  0.00000000000E+00  0.00000000000E+00  0.27337871370E+01  0.27337883263E+01  0.25500000000E-02 0. -1.
         -1   -1    0    0    0  501 -0.00000000000E+00 -0.00000000000E+00 -0.59440764978E+03  0.59440764981E+03  0.50400000000E-02 0.  1.
         24    2    1    2    0    0  0.00000000000E+00  0.00000000000E+00 -0.59167386265E+03  0.59714143813E+03  0.80622189218E+02 0.  0.
         66    2    3    3    0    0  0.28185029344E+02 -0.21809749908E+02 -0.43516095124E+03  0.43662239356E+03  0.20000002226E+01 0.  0.
        -13    1    3    3    0    0 -0.28185029344E+02  0.21809749908E+02 -0.15651291141E+03  0.16051904457E+03  0.10566000000E+00 0.  1.
         13    1    4    4    0    0  0.18231375393E+02 -0.13461430254E+02 -0.26785727011E+03  0.26881428806E+03  0.10566000000E+00 0. -1.
        -13    1    4    4    0    0  0.55757703317E+00 -0.41591538968E+00 -0.85582647065E+01  0.85871378573E+01  0.10566000000E+00 0. -1.
         14    1    4    4    0    0  0.93960769171E+01 -0.79324042636E+01 -0.15874541643E+03  0.15922096764E+03  0.00000000000E+00 0. -1.
<mgrwt>
<rscale>  0 0.80622189E+02</rscale>
<asrwt>0</asrwt>
<pdfrwt beam="1">  1        2 0.42058320E-03 0.80622189E+02</pdfrwt>
<pdfrwt beam="2">  1       -1 0.91447228E-01 0.80622189E+02</pdfrwt>
<totfact> 0.58243925E+04</totfact>
</mgrwt>
</event>
<event>
 8    1  0.1593211E-013  0.8217493E+02  0.7818608E-02  0.1322990E+00
         -1   -1    0    0    0  501 -0.00000000000E+00  0.00000000000E+00  0.13360801550E+01  0.13360896610E+01  0.50400000000E-02 0.  1.
          2   -1    0    0  501    0  0.00000000000E+00 -0.00000000000E+00 -0.12635274055E+04  0.12635274055E+04  0.25500000000E-02 0. -1.
         24    2    1    2    0    0  0.17763568394E-14  0.88817841970E-15 -0.12621913254E+04  0.12648634952E+04  0.82174933049E+02 0.  0.
         66    2    3    3    0    0  0.14827720833E+02 -0.41664362885E+01 -0.12173794643E+04  0.12174785339E+04  0.19999995310E+01 0.  0.
        -13    1    3    3    0    0 -0.14827720833E+02  0.41664362885E+01 -0.44811861084E+02  0.47384961267E+02  0.10566000000E+00 0.  1.
         13    1    4    4    0    0  0.79021073684E+01 -0.22467034152E+01 -0.67974428034E+03  0.67979393112E+03  0.10566000000E+00 0. -1.
        -13    1    4    4    0    0  0.66469703218E+01 -0.16039221485E+01 -0.51605957144E+03  0.51610488006E+03  0.10566000000E+00 0.  1.
        -14    1    4    4    0    0  0.27864314245E+00 -0.31581072485E+00 -0.21575612500E+02  0.21579722731E+02  0.00000000000E+00 0.  1.
<mgrwt>
<rscale>  0 0.82174933E+02</rscale>
<asrwt>0</asrwt>
<pdfrwt beam="1">  1        2 0.19438788E+00 0.82174933E+02</pdfrwt>
<pdfrwt beam="2">  1       -1 0.20555254E-03 0.82174933E+02</pdfrwt>
<totfact> 0.32448806E+05</totfact>
</mgrwt>
</event>
<event>
 8    1  0.1520917E-013  0.7856720E+02  0.7818608E-02  0.1333167E+00
          2   -1    0    0  501    0  0.00000000000E+00  0.00000000000E+00  0.83092100268E+03  0.83092100269E+03  0.25500000000E-02 0. -1.
         -1   -1    0    0    0  501 -0.00000000000E+00 -0.00000000000E+00 -0.18572141874E+01  0.18572210261E+01  0.50400000000E-02 0.  1.
         24    2    1    2    0    0 -0.35527136788E-14  0.00000000000E+00  0.82906378850E+03  0.83277822371E+03  0.78567197328E+02 0.  0.
         66    2    3    3    0    0 -0.30646615382E+02 -0.13586237093E+02  0.63135160538E+03  0.63224413836E+03  0.19999999018E+01 0.  0.
        -13    1    3    3    0    0  0.30646615382E+02  0.13586237093E+02  0.19771218311E+03  0.20053408535E+03  0.10566000000E+00 0.  1.
         13    1    4    4    0    0 -0.21737476433E+02 -0.93447511137E+01  0.44849220469E+03  0.44911592165E+03  0.10566000000E+00 0. -1.
        -13    1    4    4    0    0 -0.68073353811E+01 -0.36845047572E+01  0.14467013979E+03  0.14487710620E+03  0.10566000000E+00 0.  1.
         14    1    4    4    0    0 -0.21018035678E+01 -0.55698122211E+00  0.38189260911E+02  0.38251110510E+02  0.00000000000E+00 0. -1.
<mgrwt>
<rscale>  0 0.78567197E+02</rscale>
<asrwt>0</asrwt>
<pdfrwt beam="1">  1        2 0.12783398E+00 0.78567197E+02</pdfrwt>
<pdfrwt beam="2">  1       -1 0.28572584E-03 0.78567197E+02</pdfrwt>
<totfact> 0.36239234E+05</totfact>
</mgrwt>
</event>
<event>
 8    1  0.1520917E-013  0.7914037E+02  0.7818608E-02  0.1331509E+00
          2   -1    0    0  501    0  0.00000000000E+00  0.00000000000E+00  0.87512402983E+01  0.87512406698E+01  0.25500000000E-02 0. -1.
         -1   -1    0    0    0  501 -0.00000000000E+00 -0.00000000000E+00 -0.17892314285E+03  0.17892314293E+03  0.50400000000E-02 0.  1.
         24    2    1    2    0    0  0.00000000000E+00  0.00000000000E+00 -0.17017190256E+03  0.18767438359E+03  0.79140367944E+02 0.  0.
         66    2    3    3    0    0  0.24223101989E+02 -0.30346008670E+02 -0.67369483600E+02  0.77783585894E+02  0.20000004530E+01 0.  0.
        -13    1    3    3    0    0 -0.24223101989E+02  0.30346008670E+02 -0.10280241896E+03  0.10989079770E+03  0.10566000000E+00 0.  1.
         13    1    4    4    0    0  0.15624984304E+02 -0.20894584049E+02 -0.45062004380E+02  0.52070329170E+02  0.10566000000E+00 0. -1.
        -13    1    4    4    0    0  0.13440098057E+01 -0.15453368274E+01 -0.32540545120E+01  0.38463571169E+01  0.10566000000E+00 0.  1.
         14    1    4    4    0    0  0.72541078789E+01 -0.79060877935E+01 -0.19053424708E+02  0.21866899607E+02  0.00000000000E+00 0. -1.
<mgrwt>
<rscale>  0 0.79140368E+02</rscale>
<asrwt>0</asrwt>
<pdfrwt beam="1">  1        2 0.13463448E-02 0.79140368E+02</pdfrwt>
<pdfrwt beam="2">  1       -1 0.27526635E-01 0.79140368E+02</pdfrwt>
<totfact> 0.10575931E+05</totfact>
</mgrwt>
</event>
<event>
 8    1  0.1520917E-013  0.7823983E+02  0.7818608E-02  0.1334122E+00
         -1   -1    0    0    0  501 -0.00000000000E+00  0.00000000000E+00  0.36619476649E+01  0.36619511333E+01  0.50400000000E-02 0.  1.
          2   -1    0    0  501    0  0.00000000000E+00 -0.00000000000E+00 -0.41791068983E+03  0.41791068983E+03  0.25500000000E-02 0. -1.
         24    2    1    2    0    0  0.00000000000E+00  0.71054273576E-14 -0.41424874216E+03  0.42157264097E+03  0.78239831479E+02 0.  0.
         66    2    3    3    0    0 -0.21767874148E+01  0.34421877989E+02 -0.30643150356E+03  0.30837294047E+03  0.19999889797E+01 0.  0.
        -13    1    3    3    0    0  0.21767874148E+01 -0.34421877989E+02 -0.10781723860E+03  0.11319970049E+03  0.10566000000E+00 0.  1.
         13    1    4    4    0    0 -0.15082668127E+01  0.11026142853E+02 -0.99013005032E+02  0.99636524550E+02  0.10566000000E+00 0. -1.
        -13    1    4    4    0    0 -0.53017874661E-01  0.13021113834E+01 -0.13027694650E+02  0.13093139306E+02  0.10566000000E+00 0. -1.
        -14    1    4    4    0    0 -0.61550272749E+00  0.22093623752E+02 -0.19439080388E+03  0.19564327662E+03  0.00000000000E+00 0.  1.
<mgrwt>
<rscale>  0 0.78239831E+02</rscale>
<asrwt>0</asrwt>
<pdfrwt beam="1">  1        2 0.64293915E-01 0.78239831E+02</pdfrwt>
<pdfrwt beam="2">  1       -1 0.56337716E-03 0.78239831E+02</pdfrwt>
<totfact> 0.30400490E+05</totfact>
</mgrwt>
</event>
<event>
 8    1  0.1520917E-013  0.7980600E+02  0.7818608E-02  0.1329603E+00
         -1   -1    0    0    0  501 -0.00000000000E+00  0.00000000000E+00  0.16781629751E+02  0.16781630508E+02  0.50400000000E-02 0.  1.
          2   -1    0    0  501    0  0.00000000000E+00 -0.00000000000E+00 -0.94880491295E+02  0.94880491329E+02  0.25500000000E-02 0. -1.
         24    2    1    2    0    0  0.00000000000E+00  0.17763568394E-14 -0.78098861544E+02  0.11166212184E+03  0.79805997761E+02 0.  0.
         66    2    3    3    0    0 -0.18582510769E+02  0.10914547895E+02 -0.86020295646E+02  0.88701343442E+02  0.20000008145E+01 0.  0.
        -13    1    3    3    0    0  0.18582510769E+02 -0.10914547895E+02  0.79214341019E+01  0.22960778395E+02  0.10566000000E+00 0.  1.
         13    1    4    4    0    0 -0.76906959436E+01  0.39980937424E+01 -0.33671560397E+02  0.34769479451E+02  0.10566000000E+00 0. -1.
        -13    1    4    4    0    0 -0.98581427705E+01  0.65987301497E+01 -0.48846830409E+02  0.50266790463E+02  0.10566000000E+00 0.  1.
        -14    1    4    4    0    0 -0.10336720545E+01  0.31772400294E+00 -0.35019048400E+01  0.36650735282E+01  0.00000000000E+00 0.  1.
<mgrwt>
<rscale>  0 0.79805998E+02</rscale>
<asrwt>0</asrwt>
<pdfrwt beam="1">  1        2 0.14596998E-01 0.79805998E+02</pdfrwt>
<pdfrwt beam="2">  1       -1 0.25817893E-02 0.79805998E+02</pdfrwt>
<totfact> 0.17583687E+05</totfact>
</mgrwt>
</event>
<event>
 8    1  0.1520917E-013  0.7981255E+02  0.7818608E-02  0.1329584E+00
          2   -1    0    0  501    0  0.00000000000E+00  0.00000000000E+00  0.19354317459E+04  0.19354317459E+04  0.25500000000E-02 0. -1.
         -1   -1    0    0    0  501 -0.00000000000E+00 -0.00000000000E+00 -0.82281177000E+00  0.82282720571E+00  0.50400000000E-02 0.  1.
         24    2    1    2    0    0 -0.17763568394E-14  0.00000000000E+00  0.19346089341E+04  0.19362545731E+04  0.79812554549E+02 0.  0.
         66    2    3    3    0    0  0.14391492371E+02 -0.87675078197E+01  0.18448091686E+04  0.18448872195E+04  0.19999998235E+01 0.  0.
        -13    1    3    3    0    0 -0.14391492371E+02  0.87675078197E+01  0.89799765566E+02  0.91367353610E+02  0.10566000000E+00 0.  1.
         13    1    4    4    0    0  0.31118471671E+01 -0.21638433137E+01  0.37164659074E+03  0.37166593251E+03  0.10566000000E+00 0. -1.
        -13    1    4    4    0    0  0.46323203017E+01 -0.34789070640E+01  0.68216219803E+03  0.68218680490E+03  0.10566000000E+00 0. -1.
         14    1    4    4    0    0  0.66473249023E+01 -0.31247574420E+01  0.79100037978E+03  0.79103448208E+03  0.00000000000E+00 0. -1.
<mgrwt>
<rscale>  0 0.79812555E+02</rscale>
<asrwt>0</asrwt>
<pdfrwt beam="1">  1        2 0.29775389E+00 0.79812555E+02</pdfrwt>
<pdfrwt beam="2">  1       -1 0.12658967E-03 0.79812555E+02</pdfrwt>
<totfact> 0.28757613E+05</totfact>
</mgrwt>
</event>
<event>
 8    1  0.1520917E-013  0.8063277E+02  0.7818608E-02  0.1327265E+00
         -1   -1    0    0    0  501 -0.00000000000E+00  0.00000000000E+00  0.21247166784E+01  0.21247226561E+01  0.50400000000E-02 0.  1.
          2   -1    0    0  501    0  0.00000000000E+00 -0.00000000000E+00 -0.76500016504E+03  0.76500016504E+03  0.25500000000E-02 0. -1.
         24    2    1    2    0    0  0.00000000000E+00 -0.35527136788E-14 -0.76287544836E+03  0.76712488770E+03  0.80632770114E+02 0.  0.
         66    2    3    3    0    0 -0.11164921746E+02 -0.23600096722E+02 -0.67363659961E+03  0.67414530212E+03  0.20000006636E+01 0.  0.
        -13    1    3    3    0    0  0.11164921746E+02  0.23600096722E+02 -0.89238848752E+02  0.92979585574E+02  0.10566000000E+00 0.  1.
         13    1    4    4    0    0 -0.15882893168E+01 -0.39128018198E+01 -0.96245856414E+02  0.96338511105E+02  0.10566000000E+00 0. -1.
        -13    1    4    4    0    0 -0.36678558255E+01 -0.82244881243E+01 -0.24994704719E+03  0.25010924200E+03  0.10566000000E+00 0.  1.
         14    1    4    4    0    0 -0.59087766039E+01 -0.11462806778E+02 -0.32744369600E+03  0.32769754902E+03  0.00000000000E+00 0. -1.
<mgrwt>
<rscale>  0 0.80632770E+02</rscale>
<asrwt>0</asrwt>
<pdfrwt beam="1">  1        2 0.11769211E+00 0.80632770E+02</pdfrwt>
<pdfrwt beam="2">  1       -1 0.32688056E-03 0.80632770E+02</pdfrwt>
<totfact> 0.33394756E+05</totfact>
</mgrwt>
</event>
<event>
 8    1  0.1520917E-013  0.7929548E+02  0.7818608E-02  0.1331063E+00
         -1   -1    0    0    0  501 -0.00000000000E+00  0.00000000000E+00  0.66690961396E+02  0.66690961586E+02  0.50400000000E-02 0.  1.
          2   -1    0    0  501    0  0.00000000000E+00 -0.00000000000E+00 -0.23570556546E+02  0.23570556684E+02  0.25500000000E-02 0. -1.
         24    2    1    2    0    0 -0.35527136788E-14  0.00000000000E+00  0.43120404849E+02  0.90261518270E+02  0.79295475067E+02 0.  0.
         66    2    3    3    0    0  0.28779139582E+02 -0.11483155837E+02 -0.65361238516E+01  0.31730468820E+02  0.19999983600E+01 0.  0.
        -13    1    3    3    0    0 -0.28779139582E+02  0.11483155837E+02  0.49656528701E+02  0.58531049450E+02  0.10566000000E+00 0.  1.
         13    1    4    4    0    0  0.19897674805E+02 -0.87251698655E+01 -0.44140108730E+01  0.22170717351E+02  0.10566000000E+00 0. -1.
        -13    1    4    4    0    0  0.30794467567E+01 -0.97564570082E+00 -0.44365263118E+00  0.32623409622E+01  0.10566000000E+00 0.  1.
        -14    1    4    4    0    0  0.58020180208E+01 -0.17823402708E+01 -0.16784603474E+01  0.62974105070E+01  0.00000000000E+00 0.  1.
<mgrwt>
<rscale>  0 0.79295475E+02</rscale>
<asrwt>0</asrwt>
<pdfrwt beam="1">  1        2 0.36262395E-02 0.79295475E+02</pdfrwt>
<pdfrwt beam="2">  1       -1 0.10260148E-01 0.79295475E+02</pdfrwt>
<totfact> 0.13156509E+05</totfact>
</mgrwt>
</event>
<event>
 8    1  0.1520917E-013  0.7987228E+02  0.7818608E-02  0.1329414E+00
          2   -1    0    0  501    0  0.00000000000E+00  0.00000000000E+00  0.16991602536E+02  0.16991602727E+02  0.25500000000E-02 0. -1.
         -1   -1    0    0    0  501 -0.00000000000E+00 -0.00000000000E+00 -0.93863742216E+02  0.93863742351E+02  0.50400000000E-02 0.  1.
         24    2    1    2    0    0  0.00000000000E+00  0.00000000000E+00 -0.76872139680E+02  0.11085534508E+03  0.79872283512E+02 0.  0.
         66    2    3    3    0    0  0.38463122243E+02 -0.87348826948E+01 -0.29997221572E+02  0.49593782414E+02  0.20000009227E+01 0.  0.
        -13    1    3    3    0    0 -0.38463122243E+02  0.87348826948E+01 -0.46874918107E+02  0.61261562664E+02  0.10566000000E+00 0.  1.
         13    1    4    4    0    0  0.19665871276E+02 -0.41526335792E+01 -0.15667545324E+02  0.25484779756E+02  0.10566000000E+00 0. -1.
        -13    1    4    4    0    0  0.83871086528E+01 -0.14145033694E+01 -0.61923195494E+01  0.10521425606E+02  0.10566000000E+00 0.  1.
         14    1    4    4    0    0  0.10410142314E+02 -0.31677457461E+01 -0.81373566995E+01  0.13587577053E+02  0.00000000000E+00 0. -1.
<mgrwt>
<rscale>  0 0.79872284E+02</rscale>
<asrwt>0</asrwt>
<pdfrwt beam="1">  1        2 0.26140928E-02 0.79872284E+02</pdfrwt>
<pdfrwt beam="2">  1       -1 0.14440575E-01 0.79872284E+02</pdfrwt>
<totfact> 0.12061207E+05</totfact>
</mgrwt>
</event>
<event>
 8    1  0.1520917E-013  0.7971721E+02  0.7818608E-02  0.1329856E+00
          2   -1    0    0  501    0  0.00000000000E+00  0.00000000000E+00  0.16043618545E+02  0.16043618748E+02  0.25500000000E-02 0. -1.
         -1   -1    0    0    0  501 -0.00000000000E+00 -0.00000000000E+00 -0.99024304979E+02  0.99024305107E+02  0.50400000000E-02 0.  1.
         24    2    1    2    0    0  0.00000000000E+00  0.00000000000E+00 -0.82980686434E+02  0.11506792386E+03  0.79717205040E+02 0.  0.
         66    2    3    3    0    0 -0.36780829352E+02  0.37783979248E+01 -0.20126131875E+02  0.42144594999E+02  0.20000011568E+01 0.  0.
        -13    1    3    3    0    0  0.36780829352E+02 -0.37783979248E+01 -0.62854554559E+02  0.72923328857E+02  0.10566000000E+00 0.  1.
         13    1    4    4    0    0 -0.21041843486E+01  0.72114323741E-01 -0.11235964910E+01  0.23888125416E+01  0.10566000000E+00 0. -1.
        -13    1    4    4    0    0 -0.24382871761E+02  0.21029393761E+01 -0.14060943774E+02  0.28225309444E+02  0.10566000000E+00 0.  1.
        -14    1    4    4    0    0 -0.10293773242E+02  0.16033442249E+01 -0.49415916103E+01  0.11530473013E+02  0.00000000000E+00 0.  1.
<mgrwt>
<rscale>  0 0.79717205E+02</rscale>
<asrwt>0</asrwt>
<pdfrwt beam="1">  1        2 0.24682491E-02 0.79717205E+02</pdfrwt>
<pdfrwt beam="2">  1       -1 0.15234508E-01 0.79717205E+02</pdfrwt>
<totfact> 0.11983156E+05</totfact>
</mgrwt>
</event>
<event>
 8    1  0.1520917E-013  0.7927698E+02  0.7818608E-02  0.1331116E+00
         -1   -1    0    0    0  501 -0.00000000000E+00  0.00000000000E+00  0.82781608994E+01  0.82781624337E+01  0.50400000000E-02 0.  1.
          2   -1    0    0  501    0  0.00000000000E+00 -0.00000000000E+00 -0.18980180141E+03  0.18980180143E+03  0.25500000000E-02 0. -1.
         24    2    1    2    0    0  0.00000000000E+00  0.17763568394E-14 -0.18152364051E+03  0.19807996386E+03  0.79276982907E+02 0.  0.
         66    2    3    3    0    0  0.26557892137E+02  0.13687661830E+02 -0.15580805565E+03  0.15865945917E+03  0.20000144332E+01 0.  0.
        -13    1    3    3    0    0 -0.26557892137E+02 -0.13687661830E+02 -0.25715584856E+02  0.39420504685E+02  0.10566000000E+00 0.  1.
         13    1    4    4    0    0  0.94633092875E+01  0.50458129918E+01 -0.58353636684E+02  0.59331041872E+02  0.10566000000E+00 0. -1.
        -13    1    4    4    0    0  0.86959778752E+01  0.42594671939E+01 -0.52713014890E+02  0.53595113535E+02  0.10566000000E+00 0.  1.
         14    1    4    4    0    0  0.83986049744E+01  0.43823816443E+01 -0.44741404080E+02  0.45733303767E+02  0.00000000000E+00 0. -1.
<mgrwt>
<rscale>  0 0.79276983E+02</rscale>
<asrwt>0</asrwt>
<pdfrwt beam="1">  1        2 0.29200274E-01 0.79276983E+02</pdfrwt>
<pdfrwt beam="2">  1       -1 0.12735635E-02 0.79276983E+02</pdfrwt>
<totfact> 0.22188769E+05</totfact>
</mgrwt>
</event>
<event>
 8    1  0.1520917E-013  0.7905471E+02  0.7818608E-02  0.1331756E+00
         -1   -1    0    0    0  501 -0.00000000000E+00  0.00000000000E+00  0.83730611615E+01  0.83730626784E+01  0.50400000000E-02 0.  1.
          2   -1    0    0  501    0  0.00000000000E+00 -0.00000000000E+00 -0.18659983131E+03  0.18659983133E+03  0.25500000000E-02 0. -1.
         24    2    1    2    0    0  0.88817841970E-15  0.00000000000E+00 -0.17822677015E+03  0.19497289400E+03  0.79054713960E+02 0.  0.
         66    2    3    3    0    0 -0.71116150358E+01 -0.20151873675E+02 -0.17110699816E+03  0.17244789904E+03  0.19999956732E+01 0.  0.
        -13    1    3    3    0    0  0.71116150358E+01  0.20151873675E+02 -0.71197719883E+01  0.22524994966E+02  0.10566000000E+00 0.  1.
         13    1    4    4    0    0 -0.37448935782E+01 -0.11341587119E+02 -0.96806056104E+02  0.97540142960E+02  0.10566000000E+00 0. -1.
        -13    1    4    4    0    0 -0.22637883341E+01 -0.41725470348E+01 -0.37085704039E+02  0.37388440654E+02  0.10566000000E+00 0.  1.
        -14    1    4    4    0    0 -0.11029331235E+01 -0.46377395208E+01 -0.37215238015E+02  0.37519315424E+02  0.00000000000E+00 0.  1.
<mgrwt>
<rscale>  0 0.79054714E+02</rscale>
<asrwt>0</asrwt>
<pdfrwt beam="1">  1        2 0.28707663E-01 0.79054714E+02</pdfrwt>
<pdfrwt beam="2">  1       -1 0.12881635E-02 0.79054714E+02</pdfrwt>
<totfact> 0.22223882E+05</totfact>
</mgrwt>
</event>
<event>
 8    1  0.1520917E-013  0.7860472E+02  0.7818608E-02  0.1333058E+00
          2   -1    0    0  501    0  0.00000000000E+00  0.00000000000E+00  0.30672594642E+02  0.30672594748E+02  0.25500000000E-02 0. -1.
         -1   -1    0    0    0  501 -0.00000000000E+00 -0.00000000000E+00 -0.50360112152E+02  0.50360112405E+02  0.50400000000E-02 0.  1.
         24    2    1    2    0    0 -0.17763568394E-14  0.00000000000E+00 -0.19687517511E+02  0.81032707152E+02  0.78604715397E+02 0.  0.
         66    2    3    3    0    0 -0.11214724189E+02  0.10907489603E+02  0.27289457527E+02  0.31519166421E+02  0.19999979161E+01 0.  0.
        -13    1    3    3    0    0  0.11214724189E+02 -0.10907489603E+02 -0.46976975037E+02  0.49513540732E+02  0.10566000000E+00 0.  1.
         13    1    4    4    0    0 -0.19689481610E+01  0.24311723911E+01  0.65334029520E+01  0.72445755034E+01  0.10566000000E+00 0. -1.
        -13    1    4    4    0    0 -0.68488264562E+01  0.58054250462E+01  0.14201080415E+02  0.16801524716E+02  0.10566000000E+00 0.  1.
         14    1    4    4    0    0 -0.23969495723E+01  0.26708921657E+01  0.65549741602E+01  0.74730662016E+01  0.00000000000E+00 0. -1.
<mgrwt>
<rscale>  0 0.78604715E+02</rscale>
<asrwt>0</asrwt>
<pdfrwt beam="1">  1        2 0.47188607E-02 0.78604715E+02</pdfrwt>
<pdfrwt beam="2">  1       -1 0.77477096E-02 0.78604715E+02</pdfrwt>
<totfact> 0.14195625E+05</totfact>
</mgrwt>
</event>
<event>
 8    1  0.1520917E-013  0.7959684E+02  0.7818608E-02  0.1330199E+00
         -1   -1    0    0    0  501 -0.00000000000E+00  0.00000000000E+00  0.16200107225E+02  0.16200108009E+02  0.50400000000E-02 0.  1.
          2   -1    0    0  501    0  0.00000000000E+00 -0.00000000000E+00 -0.97771838158E+02  0.97771838191E+02  0.25500000000E-02 0. -1.
         24    2    1    2    0    0 -0.35527136788E-14  0.00000000000E+00 -0.81571730933E+02  0.11397194620E+03  0.79596841854E+02 0.  0.
         66    2    3    3    0    0 -0.30085314659E+02  0.10162259261E+02 -0.75101999815E+02  0.81564134546E+02  0.19999991361E+01 0.  0.
        -13    1    3    3    0    0  0.30085314659E+02 -0.10162259261E+02 -0.64697311182E+01  0.32407811654E+02  0.10566000000E+00 0.  1.
         13    1    4    4    0    0 -0.37934418995E+01  0.11533742252E+01 -0.10287868817E+02  0.11025964011E+02  0.10566000000E+00 0. -1.
        -13    1    4    4    0    0 -0.77496038743E+00  0.69371238443E-01 -0.21966958129E+01  0.23328121443E+01  0.10566000000E+00 0.  1.
         14    1    4    4    0    0 -0.25516912372E+02  0.89395137977E+01 -0.62617435185E+02  0.68205358390E+02  0.00000000000E+00 0. -1.
<mgrwt>
<rscale>  0 0.79596842E+02</rscale>
<asrwt>0</asrwt>
<pdfrwt beam="1">  1        2 0.15041821E-01 0.79596842E+02</pdfrwt>
<pdfrwt beam="2">  1       -1 0.24923243E-02 0.79596842E+02</pdfrwt>
<totfact> 0.17854966E+05</totfact>
</mgrwt>
</event>
<event>
 8    1  0.1520917E-013  0.7941786E+02  0.7818608E-02  0.1330712E+00
          2   -1    0    0  501    0  0.00000000000E+00  0.00000000000E+00  0.11649138032E+03  0.11649138035E+03  0.25500000000E-02 0. -1.
         -1   -1    0    0    0  501 -0.00000000000E+00 -0.00000000000E+00 -0.13535757932E+02  0.13535758870E+02  0.50400000000E-02 0.  1.
         24    2    1    2    0    0  0.00000000000E+00  0.00000000000E+00  0.10295562239E+03  0.13002713922E+03  0.79417861669E+02 0.  0.
         66    2    3    3    0    0  0.27192166801E+02 -0.28443434490E+02  0.43105765500E+02  0.58399913707E+02  0.20000001657E+01 0.  0.
        -13    1    3    3    0    0 -0.27192166801E+02  0.28443434490E+02  0.59849856891E+02  0.71627225514E+02  0.10566000000E+00 0.  1.
         13    1    4    4    0    0  0.11186616712E+02 -0.11821638078E+02  0.17830413605E+02  0.24141796405E+02  0.10566000000E+00 0. -1.
        -13    1    4    4    0    0  0.14080501965E+02 -0.15278243778E+02  0.22651368859E+02  0.30737289141E+02  0.10566000000E+00 0.  1.
        -14    1    4    4    0    0  0.19250481245E+01 -0.13435526346E+01  0.26239830362E+01  0.35208281608E+01  0.00000000000E+00 0.  1.
<mgrwt>
<rscale>  0 0.79417862E+02</rscale>
<asrwt>0</asrwt>
<pdfrwt beam="1">  1        2 0.17921752E-01 0.79417862E+02</pdfrwt>
<pdfrwt beam="2">  1       -1 0.20824243E-02 0.79417862E+02</pdfrwt>
<totfact> 0.18886693E+05</totfact>
</mgrwt>
</event>
<event>
 8    1  0.1520917E-013  0.8022758E+02  0.7818608E-02  0.1328407E+00
          2   -1    0    0  501    0  0.00000000000E+00  0.00000000000E+00  0.88842043754E+02  0.88842043791E+02  0.25500000000E-02 0. -1.
         -1   -1    0    0    0  501 -0.00000000000E+00 -0.00000000000E+00 -0.18112100139E+02  0.18112100840E+02  0.50400000000E-02 0.  1.
         24    2    1    2    0    0  0.00000000000E+00  0.00000000000E+00  0.70729943616E+02  0.10695414463E+03  0.80227577116E+02 0.  0.
         66    2    3    3    0    0  0.36526780363E+02  0.14721090279E+02  0.45380496535E+02  0.60119095640E+02  0.20000030076E+01 0.  0.
        -13    1    3    3    0    0 -0.36526780363E+02 -0.14721090279E+02  0.25349447080E+02  0.46835048991E+02  0.10566000000E+00 0.  1.
         13    1    4    4    0    0  0.10482207818E+02  0.48226535287E+01  0.13588897541E+02  0.17827057195E+02  0.10566000000E+00 0. -1.
        -13    1    4    4    0    0  0.11089759367E+02  0.38109536497E+01  0.12629719233E+02  0.17234474244E+02  0.10566000000E+00 0.  1.
        -14    1    4    4    0    0  0.14954813178E+02  0.60874831007E+01  0.19161879761E+02  0.25057564201E+02  0.00000000000E+00 0.  1.
<mgrwt>
<rscale>  0 0.80227577E+02</rscale>
<asrwt>0</asrwt>
<pdfrwt beam="1">  1        2 0.13668006E-01 0.80227577E+02</pdfrwt>
<pdfrwt beam="2">  1       -1 0.27864771E-02 0.80227577E+02</pdfrwt>
<totfact> 0.17030459E+05</totfact>
</mgrwt>
</event>
<event>
 8    1  0.1520917E-013  0.8000694E+02  0.7818608E-02  0.1329032E+00
          2   -1    0    0  501    0  0.00000000000E+00  0.00000000000E+00  0.52842549909E+03  0.52842549909E+03  0.25500000000E-02 0. -1.
         -1   -1    0    0    0  501 -0.00000000000E+00 -0.00000000000E+00 -0.30283858437E+01  0.30283900376E+01  0.50400000000E-02 0.  1.
         24    2    1    2    0    0 -0.17763568394E-14  0.35527136788E-14  0.52539711324E+03  0.53145388913E+03  0.80006935123E+02 0.  0.
         66    2    3    3    0    0 -0.15883486998E+02  0.22122037650E+02  0.45727632438E+03  0.45809093698E+03  0.19999987172E+01 0.  0.
        -13    1    3    3    0    0  0.15883486998E+02 -0.22122037650E+02  0.68120788860E+02  0.73362952149E+02  0.10566000000E+00 0.  1.
         13    1    4    4    0    0 -0.10993437444E+02  0.16061527167E+02  0.32205782716E+03  0.32264544553E+03  0.10566000000E+00 0. -1.
        -13    1    4    4    0    0 -0.34727175733E+01  0.47045551051E+01  0.96010294869E+02  0.96188255473E+02  0.10566000000E+00 0.  1.
        -14    1    4    4    0    0 -0.14173319807E+01  0.13559553773E+01  0.39208202350E+02  0.39257235976E+02  0.00000000000E+00 0.  1.
<mgrwt>
<rscale>  0 0.80006935E+02</rscale>
<asrwt>0</asrwt>
<pdfrwt beam="1">  1        2 0.81296289E-01 0.80006935E+02</pdfrwt>
<pdfrwt beam="2">  1       -1 0.46590551E-03 0.80006935E+02</pdfrwt>
<totfact> 0.30976637E+05</totfact>
</mgrwt>
</event>
<event>
 8    1  0.1520917E-013  0.7877335E+02  0.7818608E-02  0.1332569E+00
          2   -1    0    0  501    0  0.00000000000E+00  0.00000000000E+00  0.11650961089E+02  0.11650961368E+02  0.25500000000E-02 0. -1.
         -1   -1    0    0    0  501 -0.00000000000E+00 -0.00000000000E+00 -0.13314869857E+03  0.13314869866E+03  0.50400000000E-02 0.  1.
         24    2    1    2    0    0  0.00000000000E+00  0.00000000000E+00 -0.12149773748E+03  0.14479966003E+03  0.78773354204E+02 0.  0.
         66    2    3    3    0    0 -0.28727337344E+02 -0.14848863139E+02 -0.19539015067E+02  0.37835456265E+02  0.19999983993E+01 0.  0.
        -13    1    3    3    0    0  0.28727337344E+02  0.14848863139E+02 -0.10195872241E+03  0.10696420376E+03  0.10566000000E+00 0.  1.
         13    1    4    4    0    0 -0.18693074961E+02 -0.94528614218E+01 -0.13502984190E+02  0.24922467507E+02  0.10566000000E+00 0. -1.
        -13    1    4    4    0    0 -0.36423785790E+01 -0.23052269971E+01 -0.24386771447E+01  0.49537161276E+01  0.10566000000E+00 0.  1.
         14    1    4    4    0    0 -0.63918838035E+01 -0.30907747202E+01 -0.35973537327E+01  0.79592726305E+01  0.00000000000E+00 0. -1.
<mgrwt>
<rscale>  0 0.78773354E+02</rscale>
<asrwt>0</asrwt>
<pdfrwt beam="1">  1        2 0.17924557E-02 0.78773354E+02</pdfrwt>
<pdfrwt beam="2">  1       -1 0.20484414E-01 0.78773354E+02</pdfrwt>
<totfact> 0.11550831E+05</totfact>
</mgrwt>
</event>
<event>
 8    1  0.1520917E-013  0.8085615E+02  0.7818608E-02  0.1326639E+00
          2   -1    0    0  501    0  0.00000000000E+00  0.00000000000E+00  0.50687856874E+02  0.50687856938E+02  0.25500000000E-02 0. -1.
         -1   -1    0    0    0  501 -0.00000000000E+00 -0.00000000000E+00 -0.32244986138E+02  0.32244986531E+02  0.50400000000E-02 0.  1.
         24    2    1    2    0    0  0.00000000000E+00  0.00000000000E+00  0.18442870736E+02  0.82932843470E+02  0.80856150322E+02 0.  0.
         66    2    3    3    0    0 -0.38621080732E+01 -0.17197866192E+02  0.46516583013E+02  0.49784284446E+02  0.20000005598E+01 0.  0.
        -13    1    3    3    0    0  0.38621080732E+01  0.17197866192E+02 -0.28073712276E+02  0.33148559024E+02  0.10566000000E+00 0.  1.
         13    1    4    4    0    0 -0.20182286283E+01 -0.11100425006E+02  0.27735009362E+02  0.29942187469E+02  0.10566000000E+00 0. -1.
        -13    1    4    4    0    0 -0.90102680876E+00 -0.21010353972E+01  0.63335638770E+01  0.67343443979E+01  0.10566000000E+00 0.  1.
         14    1    4    4    0    0 -0.94285263607E+00 -0.39964057896E+01  0.12448009774E+02  0.13107752578E+02  0.00000000000E+00 0. -1.
<mgrwt>
<rscale>  0 0.80856150E+02</rscale>
<asrwt>0</asrwt>
<pdfrwt beam="1">  1        2 0.77981318E-02 0.80856150E+02</pdfrwt>
<pdfrwt beam="2">  1       -1 0.49607672E-02 0.80856150E+02</pdfrwt>
<totfact> 0.14556775E+05</totfact>
</mgrwt>
</event>
<event>
 8    1  0.1630493E-013  0.7975990E+02  0.7818608E-02  0.1329734E+00
          2   -1    0    0  501    0  0.00000000000E+00  0.00000000000E+00  0.14278880498E+03  0.14278880500E+03  0.25500000000E-02 0. -1.
         -1   -1    0    0    0  501 -0.00000000000E+00 -0.00000000000E+00 -0.11138200973E+02  0.11138202113E+02  0.50400000000E-02 0.  1.
         24    2    1    2    0    0  0.00000000000E+00  0.00000000000E+00  0.13165060401E+03  0.15392700712E+03  0.79759902109E+02 0.  0.
         66    2    3    3    0    0 -0.16791431480E+02 -0.18170284365E+02  0.12616702514E+03  0.12858549559E+03  0.20000095859E+01 0.  0.
        -13    1    3    3    0    0  0.16791431480E+02  0.18170284365E+02  0.54835788634E+01  0.25341511523E+02  0.10566000000E+00 0.  1.
         13    1    4    4    0    0 -0.11612669708E+02 -0.11857218916E+02  0.83889898882E+02  0.85515928555E+02  0.10566000000E+00 0.  1.
        -13    1    4    4    0    0 -0.46817156585E+01 -0.53661284621E+01  0.35344923618E+02  0.36055354468E+02  0.10566000000E+00 0. -1.
        -14    1    4    4    0    0 -0.49704611378E+00 -0.94693698688E+00  0.69322026435E+01  0.70142125707E+01  0.00000000000E+00 0.  1.
<mgrwt>
<rscale>  0 0.79759902E+02</rscale>
<asrwt>0</asrwt>
<pdfrwt beam="1">  1        2 0.21967509E-01 0.79759902E+02</pdfrwt>
<pdfrwt beam="2">  1       -1 0.17135694E-02 0.79759902E+02</pdfrwt>
<totfact> 0.19874860E+05</totfact>
</mgrwt>
</event>
<event>
 8    1  0.1520917E-013  0.7805363E+02  0.7818608E-02  0.1334667E+00
          2   -1    0    0  501    0  0.00000000000E+00  0.00000000000E+00  0.49386338903E+02  0.49386338969E+02  0.25500000000E-02 0. -1.
         -1   -1    0    0    0  501 -0.00000000000E+00 -0.00000000000E+00 -0.30840354944E+02  0.30840355355E+02  0.50400000000E-02 0.  1.
         24    2    1    2    0    0  0.88817841970E-15  0.00000000000E+00  0.18545983959E+02  0.80226694324E+02  0.78053628751E+02 0.  0.
         66    2    3    3    0    0 -0.63267149134E+01 -0.35067713453E+02  0.25573351825E+02  0.43906356886E+02  0.20000007527E+01 0.  0.
        -13    1    3    3    0    0  0.63267149134E+01  0.35067713453E+02 -0.70273678655E+01  0.36320337438E+02  0.10566000000E+00 0.  1.
         13    1    4    4    0    0 -0.31523966535E+01 -0.17320431872E+02  0.13503492498E+02  0.22187619038E+02  0.10566000000E+00 0. -1.
        -13    1    4    4    0    0 -0.22023986238E+01 -0.12779111858E+02  0.81517493179E+01  0.15317259564E+02  0.10566000000E+00 0.  1.
        -14    1    4    4    0    0 -0.97191963615E+00 -0.49681697236E+01  0.39181100091E+01  0.64014782843E+01  0.00000000000E+00 0.  1.
<mgrwt>
<rscale>  0 0.78053629E+02</rscale>
<asrwt>0</asrwt>
<pdfrwt beam="1">  1        2 0.75978983E-02 0.78053629E+02</pdfrwt>
<pdfrwt beam="2">  1       -1 0.47446700E-02 0.78053629E+02</pdfrwt>
<totfact> 0.15941765E+05</totfact>
</mgrwt>
</event>
<event>
 8    1  0.1520917E-013  0.8473369E+02  0.7818608E-02  0.1316130E+00
         -1   -1    0    0    0  501 -0.00000000000E+00  0.00000000000E+00  0.47657452009E+03  0.47657452012E+03  0.50400000000E-02 0.  1.
          2   -1    0    0  501    0  0.00000000000E+00 -0.00000000000E+00 -0.37663564785E+01  0.37663573418E+01  0.25500000000E-02 0. -1.
         24    2    1    2    0    0  0.00000000000E+00 -0.44408920985E-15  0.47280816362E+03  0.48034087746E+03  0.84733694478E+02 0.  0.
         66    2    3    3    0    0  0.40480868390E+02  0.38063094135E+01  0.30355144312E+03  0.30626894608E+03  0.20000045264E+01 0.  0.
        -13    1    3    3    0    0 -0.40480868390E+02 -0.38063094135E+01  0.16925672050E+03  0.17407193138E+03  0.10566000000E+00 0.  1.
         13    1    4    4    0    0  0.63276078173E+01  0.10614816456E+01  0.47309942281E+02  0.47743137377E+02  0.10566000000E+00 0. -1.
        -13    1    4    4    0    0  0.67296190859E+01  0.74881476008E+00  0.54517061514E+02  0.54936050611E+02  0.10566000000E+00 0.  1.
        -14    1    4    4    0    0  0.27423641487E+02  0.19960130079E+01  0.20172443933E+03  0.20358975810E+03  0.00000000000E+00 0.  1.
<mgrwt>
<rscale>  0 0.84733694E+02</rscale>
<asrwt>0</asrwt>
<pdfrwt beam="1">  1        2 0.57943999E-03 0.84733694E+02</pdfrwt>
<pdfrwt beam="2">  1       -1 0.73319098E-01 0.84733694E+02</pdfrwt>
<totfact> 0.59288060E+04</totfact>
</mgrwt>
</event>
<event>
 8    1  0.1520917E-013  0.7870537E+02  0.7818608E-02  0.1332766E+00
          2   -1    0    0  501    0  0.00000000000E+00  0.00000000000E+00  0.69125951314E+03  0.69125951314E+03  0.25500000000E-02 0. -1.
         -1   -1    0    0    0  501 -0.00000000000E+00 -0.00000000000E+00 -0.22403045207E+01  0.22403101900E+01  0.50400000000E-02 0.  1.
         24    2    1    2    0    0  0.00000000000E+00  0.35527136788E-14  0.68901920862E+03  0.69349982333E+03  0.78705369060E+02 0.  0.
         66    2    3    3    0    0  0.15034479385E+02  0.19331215382E+02  0.61587135699E+03  0.61636130623E+03  0.20000007100E+01 0.  0.
        -13    1    3    3    0    0 -0.15034479385E+02 -0.19331215382E+02  0.73147851628E+02  0.77138517099E+02  0.10566000000E+00 0.  1.
         13    1    4    4    0    0  0.63301885992E+01  0.74242735692E+01  0.23983277169E+03  0.24003116603E+03  0.10566000000E+00 0. -1.
        -13    1    4    4    0    0  0.77969867565E+00  0.15606407719E+01  0.37243951737E+02  0.37284938442E+02  0.10566000000E+00 0.  1.
        -14    1    4    4    0    0  0.79245921098E+01  0.10346301041E+02  0.33879463356E+03  0.33904520176E+03  0.00000000000E+00 0.  1.
<mgrwt>
<rscale>  0 0.78705369E+02</rscale>
<asrwt>0</asrwt>
<pdfrwt beam="1">  1        2 0.10634770E+00 0.78705369E+02</pdfrwt>
<pdfrwt beam="2">  1       -1 0.34466239E-03 0.78705369E+02</pdfrwt>
<totfact> 0.34798662E+05</totfact>
</mgrwt>
</event>
<event>
 8    1  0.1520917E-013  0.8020331E+02  0.7818608E-02  0.1328475E+00
          2   -1    0    0  501    0  0.00000000000E+00  0.00000000000E+00  0.41322674223E+02  0.41322674302E+02  0.25500000000E-02 0. -1.
         -1   -1    0    0    0  501 -0.00000000000E+00 -0.00000000000E+00 -0.38916711460E+02  0.38916711787E+02  0.50400000000E-02 0.  1.
         24    2    1    2    0    0  0.35527136788E-14  0.71054273576E-14  0.24059627627E+01  0.80239386088E+02  0.80203306808E+02 0.  0.
         66    2    3    3    0    0 -0.88161367319E+01 -0.39075876380E+02  0.24246288696E+01  0.40181179760E+02  0.19999999993E+01 0.  0.
        -13    1    3    3    0    0  0.88161367319E+01  0.39075876380E+02 -0.18666106872E-01  0.40058206328E+02  0.10566000000E+00 0.  1.
         13    1    4    4    0    0 -0.24264003061E+01 -0.11040117627E+02  0.60025096081E+00  0.11320030075E+02  0.10566000000E+00 0. -1.
        -13    1    4    4    0    0 -0.47609405971E+00 -0.46367144465E+01  0.51951267750E+00  0.46911452621E+01  0.10566000000E+00 0.  1.
        -14    1    4    4    0    0 -0.59136423661E+01 -0.23399044307E+02  0.13048652313E+01  0.24170004423E+02  0.00000000000E+00 0.  1.
<mgrwt>
<rscale>  0 0.80203307E+02</rscale>
<asrwt>0</asrwt>
<pdfrwt beam="1">  1        2 0.63573345E-02 0.80203307E+02</pdfrwt>
<pdfrwt beam="2">  1       -1 0.59871865E-02 0.80203307E+02</pdfrwt>
<totfact> 0.14250973E+05</totfact>
</mgrwt>
</event>
<event>
 8    1  0.1520917E-013  0.8049843E+02  0.7818608E-02  0.1327643E+00
          2   -1    0    0  501    0  0.00000000000E+00  0.00000000000E+00  0.26096960443E+03  0.26096960444E+03  0.25500000000E-02 0. -1.
         -1   -1    0    0    0  501 -0.00000000000E+00 -0.00000000000E+00 -0.62076156413E+01  0.62076176873E+01  0.50400000000E-02 0.  1.
         24    2    1    2    0    0  0.00000000000E+00  0.00000000000E+00  0.25476198879E+03  0.26717722213E+03  0.80498429136E+02 0.  0.
         66    2    3    3    0    0  0.10336710382E+02  0.20017910349E+02  0.23806003895E+03  0.23913206909E+03  0.20000024189E+01 0.  0.
        -13    1    3    3    0    0 -0.10336710382E+02 -0.20017910349E+02  0.16701949843E+02  0.28045153037E+02  0.10566000000E+00 0.  1.
         13    1    4    4    0    0  0.35383858044E+00  0.29700648427E+00  0.69002551699E+01  0.69165092379E+01  0.10566000000E+00 0.  1.
        -13    1    4    4    0    0  0.69437876487E+01  0.13606129750E+02  0.15587216573E+03  0.15661892021E+03  0.10566000000E+00 0. -1.
         14    1    4    4    0    0  0.30390841524E+01  0.61147741152E+01  0.75287618050E+02  0.75596639652E+02  0.00000000000E+00 0. -1.
<mgrwt>
<rscale>  0 0.80498429E+02</rscale>
<asrwt>0</asrwt>
<pdfrwt beam="1">  1        2 0.40149167E-01 0.80498429E+02</pdfrwt>
<pdfrwt beam="2">  1       -1 0.95501802E-03 0.80498429E+02</pdfrwt>
<totfact> 0.23847399E+05</totfact>
</mgrwt>
</event>
<event>
 8    1  0.1520917E-013  0.8166888E+02  0.7818608E-02  0.1324381E+00
          2   -1    0    0  501    0  0.00000000000E+00  0.00000000000E+00  0.17035535278E+03  0.17035535280E+03  0.25500000000E-02 0. -1.
         -1   -1    0    0    0  501 -0.00000000000E+00 -0.00000000000E+00 -0.97880775174E+01  0.97880788150E+01  0.50400000000E-02 0.  1.
         24    2    1    2    0    0  0.00000000000E+00  0.00000000000E+00  0.16056727526E+03  0.18014343161E+03  0.81668880660E+02 0.  0.
         66    2    3    3    0    0 -0.26828474415E+02 -0.24127638993E+01  0.14795442123E+03  0.15039979835E+03  0.20000277026E+01 0.  0.
        -13    1    3    3    0    0  0.26828474415E+02  0.24127638993E+01  0.12612854025E+02  0.29743633264E+02  0.10566000000E+00 0.  1.
         13    1    4    4    0    0 -0.11728413553E+02 -0.42623589144E+00  0.65879764918E+02  0.66917052769E+02  0.10566000000E+00 0. -1.
        -13    1    4    4    0    0 -0.75089286114E+01 -0.10846742867E+01  0.38014568472E+02  0.38764405160E+02  0.10566000000E+00 0.  1.
        -14    1    4    4    0    0 -0.75911322500E+01 -0.90185372109E+00  0.44060087844E+02  0.44718340419E+02  0.00000000000E+00 0.  1.
<mgrwt>
<rscale>  0 0.81668881E+02</rscale>
<asrwt>0</asrwt>
<pdfrwt beam="1">  1        2 0.26208514E-01 0.81668881E+02</pdfrwt>
<pdfrwt beam="2">  1       -1 0.15058583E-02 0.81668881E+02</pdfrwt>
<totfact> 0.19772088E+05</totfact>
</mgrwt>
</event>
<event>
 8    1  0.1520917E-013  0.8207288E+02  0.7818608E-02  0.1323270E+00
         -1   -1    0    0    0  501 -0.00000000000E+00  0.00000000000E+00  0.92005689373E+01  0.92005703178E+01  0.50400000000E-02 0.  1.
          2   -1    0    0  501    0  0.00000000000E+00 -0.00000000000E+00 -0.18303101151E+03  0.18303101153E+03  0.25500000000E-02 0. -1.
         24    2    1    2    0    0  0.00000000000E+00  0.00000000000E+00 -0.17383044258E+03  0.19223158185E+03  0.82072884036E+02 0.  0.
         66    2    3    3    0    0  0.40158103956E+02  0.54192074857E+01 -0.10176962597E+03  0.10955865051E+03  0.20000017675E+01 0.  0.
        -13    1    3    3    0    0 -0.40158103956E+02 -0.54192074857E+01 -0.72060816605E+02  0.82672931344E+02  0.10566000000E+00 0.  1.
         13    1    4    4    0    0  0.18740609890E+01  0.33547634560E+00 -0.40744387362E+01  0.44985402098E+01  0.10566000000E+00 0. -1.
        -13    1    4    4    0    0  0.32237863887E+02  0.47071414450E+01 -0.82994072240E+02  0.89159768055E+02  0.10566000000E+00 0.  1.
         14    1    4    4    0    0  0.60461790808E+01  0.37658969505E+00 -0.14701114995E+02  0.15900342240E+02  0.00000000000E+00 0. -1.
<mgrwt>
<rscale>  0 0.82072884E+02</rscale>
<asrwt>0</asrwt>
<pdfrwt beam="1">  1        2 0.28158614E-01 0.82072884E+02</pdfrwt>
<pdfrwt beam="2">  1       -1 0.14154724E-02 0.82072884E+02</pdfrwt>
<totfact> 0.19995060E+05</totfact>
</mgrwt>
</event>
<event>
 8    1  0.1520917E-013  0.8250262E+02  0.7818608E-02  0.1322096E+00
          2   -1    0    0  501    0  0.00000000000E+00  0.00000000000E+00  0.74304870122E+02  0.74304870166E+02  0.25500000000E-02 0. -1.
         -1   -1    0    0    0  501 -0.00000000000E+00 -0.00000000000E+00 -0.22901199853E+02  0.22901200408E+02  0.50400000000E-02 0.  1.
         24    2    1    2    0    0 -0.71054273576E-14  0.00000000000E+00  0.51403670269E+02  0.97206070574E+02  0.82502623227E+02 0.  0.
         66    2    3    3    0    0  0.37212993648E+02 -0.17302875008E+02  0.30350954457E+02  0.51082059616E+02  0.19999995943E+01 0.  0.
        -13    1    3    3    0    0 -0.37212993648E+02  0.17302875008E+02  0.21052715812E+02  0.46124010958E+02  0.10566000000E+00 0.  1.
         13    1    4    4    0    0  0.12059684271E+02 -0.58899539307E+01  0.89485904644E+01  0.16131211280E+02  0.10566000000E+00 0.  1.
        -13    1    4    4    0    0  0.24424086314E+02 -0.11115214600E+02  0.20936411394E+02  0.34035694116E+02  0.10566000000E+00 0. -1.
         14    1    4    4    0    0  0.72922306206E+00 -0.29770647742E+00  0.46595259872E+00  0.91515421935E+00  0.00000000000E+00 0. -1.
<mgrwt>
<rscale>  0 0.82502623E+02</rscale>
<asrwt>0</asrwt>
<pdfrwt beam="1">  1        2 0.11431518E-01 0.82502623E+02</pdfrwt>
<pdfrwt beam="2">  1       -1 0.35232616E-02 0.82502623E+02</pdfrwt>
<totfact> 0.15075210E+05</totfact>
</mgrwt>
</event>
<event>
 8    1  0.1520917E-013  0.8063585E+02  0.7818608E-02  0.1327257E+00
         -1   -1    0    0    0  501 -0.00000000000E+00  0.00000000000E+00  0.26231167575E+01  0.26231215994E+01  0.50400000000E-02 0.  1.
          2   -1    0    0  501    0  0.00000000000E+00 -0.00000000000E+00 -0.61969540065E+03  0.61969540065E+03  0.25500000000E-02 0. -1.
         24    2    1    2    0    0  0.35527136788E-14 -0.17763568394E-14 -0.61707228389E+03  0.62231852225E+03  0.80635845583E+02 0.  0.
         66    2    3    3    0    0 -0.24520972454E+02  0.57551161837E+01 -0.55144866569E+03  0.55202720072E+03  0.19999991315E+01 0.  0.
        -13    1    3    3    0    0  0.24520972454E+02 -0.57551161837E+01 -0.65623618202E+02  0.70291321529E+02  0.10566000000E+00 0.  1.
         13    1    4    4    0    0 -0.10634243934E+02  0.33702103557E+01 -0.24709572913E+03  0.24734743981E+03  0.10566000000E+00 0. -1.
        -13    1    4    4    0    0 -0.62022910700E+01  0.12177124197E+01 -0.14334678360E+03  0.14348610654E+03  0.10566000000E+00 0.  1.
        -14    1    4    4    0    0 -0.76844374495E+01  0.11671934084E+01 -0.16100615296E+03  0.16119365437E+03  0.00000000000E+00 0.  1.
<mgrwt>
<rscale>  0 0.80635846E+02</rscale>
<asrwt>0</asrwt>
<pdfrwt beam="1">  1        2 0.95337638E-01 0.80635846E+02</pdfrwt>
<pdfrwt beam="2">  1       -1 0.40355729E-03 0.80635846E+02</pdfrwt>
<totfact> 0.31787415E+05</totfact>
</mgrwt>
</event>
<event>
 8    1  0.1520917E-013  0.7941596E+02  0.7818608E-02  0.1330717E+00
         -1   -1    0    0    0  501 -0.00000000000E+00  0.00000000000E+00  0.49190696314E+02  0.49190696573E+02  0.50400000000E-02 0.  1.
          2   -1    0    0  501    0  0.00000000000E+00 -0.00000000000E+00 -0.32053291459E+02  0.32053291560E+02  0.25500000000E-02 0. -1.
         24    2    1    2    0    0  0.00000000000E+00  0.00000000000E+00  0.17137404855E+02  0.81243988133E+02  0.79415961636E+02 0.  0.
         66    2    3    3    0    0  0.27902493081E+02 -0.13189939534E+02 -0.16943885130E+02  0.35264980791E+02  0.20000004531E+01 0.  0.
        -13    1    3    3    0    0 -0.27902493081E+02  0.13189939534E+02  0.34081289986E+02  0.45979007342E+02  0.10566000000E+00 0.  1.
         13    1    4    4    0    0  0.19448927413E+02 -0.87799549437E+01 -0.10979178619E+02  0.23997956444E+02  0.10566000000E+00 0. -1.
        -13    1    4    4    0    0  0.32752228635E+01 -0.17897999938E+01 -0.27051676983E+01  0.46108095965E+01  0.10566000000E+00 0.  1.
        -14    1    4    4    0    0  0.51783428049E+01 -0.26201845968E+01 -0.32595388128E+01  0.66562147500E+01  0.00000000000E+00 0.  1.
<mgrwt>
<rscale>  0 0.79415962E+02</rscale>
<asrwt>0</asrwt>
<pdfrwt beam="1">  1        2 0.49312756E-02 0.79415962E+02</pdfrwt>
<pdfrwt beam="2">  1       -1 0.75677994E-02 0.79415962E+02</pdfrwt>
<totfact> 0.13914403E+05</totfact>
</mgrwt>
</event>
<event>
 8    1  0.1520917E-013  0.8008300E+02  0.7818608E-02  0.1328816E+00
         -1   -1    0    0    0  501 -0.00000000000E+00  0.00000000000E+00  0.13461309279E+01  0.13461403629E+01  0.50400000000E-02 0.  1.
          2   -1    0    0  501    0  0.00000000000E+00 -0.00000000000E+00 -0.11910550111E+04  0.11910550111E+04  0.25500000000E-02 0. -1.
         24    2    1    2    0    0  0.35527136788E-14  0.00000000000E+00 -0.11897088802E+04  0.11924011515E+04  0.80082997298E+02 0.  0.
         66    2    3    3    0    0 -0.23778902615E+02  0.24012116531E+01 -0.10731110084E+04  0.10733789817E+04  0.20000017962E+01 0.  0.
        -13    1    3    3    0    0  0.23778902615E+02 -0.24012116531E+01 -0.11659787181E+03  0.11902216979E+03  0.10566000000E+00 0.  1.
         13    1    4    4    0    0 -0.10381333576E+02  0.10936671617E+01 -0.43863062203E+03  0.43875483124E+03  0.10566000000E+00 0. -1.
        -13    1    4    4    0    0 -0.89521907480E+01  0.95844292349E+00 -0.39941560648E+03  0.39951708123E+03  0.10566000000E+00 0.  1.
        -14    1    4    4    0    0 -0.44453782913E+01  0.34910156800E+00 -0.23506477985E+03  0.23510706920E+03  0.00000000000E+00 0.  1.
<mgrwt>
<rscale>  0 0.80082997E+02</rscale>
<asrwt>0</asrwt>
<pdfrwt beam="1">  1        2 0.18323839E+00 0.80082997E+02</pdfrwt>
<pdfrwt beam="2">  1       -1 0.20709874E-03 0.80082997E+02</pdfrwt>
<totfact> 0.34971777E+05</totfact>
</mgrwt>
</event>
<event>
 8    1  0.1520917E-013  0.7875093E+02  0.7818608E-02  0.1332634E+00
         -1   -1    0    0    0  501 -0.00000000000E+00  0.00000000000E+00  0.42085749518E+01  0.42085779697E+01  0.50400000000E-02 0.  1.
          2   -1    0    0  501    0  0.00000000000E+00 -0.00000000000E+00 -0.36839704784E+03  0.36839704785E+03  0.25500000000E-02 0. -1.
         24    2    1    2    0    0  0.00000000000E+00  0.00000000000E+00 -0.36418847289E+03  0.37260562582E+03  0.78750927658E+02 0.  0.
         66    2    3    3    0    0 -0.17490644621E+02 -0.59839226633E+00 -0.34896650953E+03  0.34941079762E+03  0.20000001487E+01 0.  0.
        -13    1    3    3    0    0  0.17490644621E+02  0.59839226633E+00 -0.15221963366E+02  0.23194828201E+02  0.10566000000E+00 0.  1.
         13    1    4    4    0    0 -0.85177873117E+01 -0.75102739179E+00 -0.16611023651E+03  0.16633020947E+03  0.10566000000E+00 0. -1.
        -13    1    4    4    0    0 -0.10504656215E+01  0.35485844313E+00 -0.26993679656E+02  0.27016648718E+02  0.10566000000E+00 0.  1.
         14    1    4    4    0    0 -0.79223916873E+01 -0.20222331767E+00 -0.15586259336E+03  0.15606393944E+03  0.00000000000E+00 0. -1.
<mgrwt>
<rscale>  0 0.78750928E+02</rscale>
<asrwt>0</asrwt>
<pdfrwt beam="1">  1        2 0.56676444E-01 0.78750928E+02</pdfrwt>
<pdfrwt beam="2">  1       -1 0.64747359E-03 0.78750928E+02</pdfrwt>
<totfact> 0.28596939E+05</totfact>
</mgrwt>
</event>
<event>
 8    1  0.1520917E-013  0.7642536E+02  0.7818608E-02  0.1339513E+00
         -1   -1    0    0    0  501 -0.00000000000E+00  0.00000000000E+00  0.11317717484E+01  0.11317829704E+01  0.50400000000E-02 0.  1.
          2   -1    0    0  501    0  0.00000000000E+00 -0.00000000000E+00 -0.12901909872E+04  0.12901909872E+04  0.25500000000E-02 0. -1.
         24    2    1    2    0    0 -0.35527136788E-14 -0.88817841970E-15 -0.12890592154E+04  0.12913227701E+04  0.76425361144E+02 0.  0.
         66    2    3    3    0    0 -0.14016464502E+02 -0.38280480764E+01 -0.12416559846E+04  0.12417426059E+04  0.19999994054E+01 0.  0.
        -13    1    3    3    0    0  0.14016464502E+02  0.38280480764E+01 -0.47403230761E+02  0.49580164177E+02  0.10566000000E+00 0.  1.
         13    1    4    4    0    0 -0.86680349868E+01 -0.23896124116E+01 -0.84558168870E+03  0.84562949837E+03  0.10566000000E+00 0. -1.
        -13    1    4    4    0    0 -0.51074567319E+01 -0.13528354043E+01 -0.38087678026E+03  0.38091344053E+03  0.10566000000E+00 0. -1.
         14    1    4    4    0    0 -0.24097278373E+00 -0.85600260562E-01 -0.15197515685E+02  0.15199667045E+02  0.00000000000E+00 0. -1.
<mgrwt>
<rscale>  0 0.76425361E+02</rscale>
<asrwt>0</asrwt>
<pdfrwt beam="1">  1        2 0.19848974E+00 0.76425361E+02</pdfrwt>
<pdfrwt beam="2">  1       -1 0.17412063E-03 0.76425361E+02</pdfrwt>
<totfact> 0.39025167E+05</totfact>
</mgrwt>
</event>
<event>
 8    1  0.1520917E-013  0.8045371E+02  0.7818608E-02  0.1327769E+00
          2   -1    0    0  501    0  0.00000000000E+00  0.00000000000E+00  0.58414689474E+03  0.58414689475E+03  0.25500000000E-02 0. -1.
         -1   -1    0    0    0  501 -0.00000000000E+00 -0.00000000000E+00 -0.27701907735E+01  0.27701953583E+01  0.50400000000E-02 0.  1.
         24    2    1    2    0    0  0.00000000000E+00  0.00000000000E+00  0.58137670397E+03  0.58691709011E+03  0.80453705578E+02 0.  0.
         66    2    3    3    0    0 -0.90689531011E+01 -0.10184801726E+02  0.56675492031E+03  0.56692249539E+03  0.19999959708E+01 0.  0.
        -13    1    3    3    0    0  0.90689531011E+01  0.10184801726E+02  0.14621783656E+02  0.19994594716E+02  0.10566000000E+00 0.  1.
         13    1    4    4    0    0 -0.24568252281E+01 -0.18826444525E+01  0.12787500840E+03  0.12791250634E+03  0.10566000000E+00 0. -1.
        -13    1    4    4    0    0 -0.12155857178E+01 -0.23754316833E+01  0.11056406180E+03  0.11059630758E+03  0.10566000000E+00 0.  1.
        -14    1    4    4    0    0 -0.53965421552E+01 -0.59267255900E+01  0.32831585011E+03  0.32841368147E+03  0.00000000000E+00 0.  1.
<mgrwt>
<rscale>  0 0.80453706E+02</rscale>
<asrwt>0</asrwt>
<pdfrwt beam="1">  1        2 0.89868709E-01 0.80453706E+02</pdfrwt>
<pdfrwt beam="2">  1       -1 0.42618376E-03 0.80453706E+02</pdfrwt>
<totfact> 0.31455078E+05</totfact>
</mgrwt>
</event>
<event>
 8    1  0.1520917E-013  0.7852246E+02  0.7818608E-02  0.1333298E+00
         -1   -1    0    0    0  501 -0.00000000000E+00  0.00000000000E+00  0.74189177451E+02  0.74189177622E+02  0.50400000000E-02 0.  1.
          2   -1    0    0  501    0  0.00000000000E+00 -0.00000000000E+00 -0.20777209292E+02  0.20777209448E+02  0.25500000000E-02 0. -1.
         24    2    1    2    0    0  0.00000000000E+00  0.35527136788E-14  0.53411968159E+02  0.94966387070E+02  0.78522457492E+02 0.  0.
         66    2    3    3    0    0 -0.16222040940E+02 -0.16957939438E+02 -0.11305407162E+02  0.26125438829E+02  0.20000001605E+01 0.  0.
        -13    1    3    3    0    0  0.16222040940E+02  0.16957939438E+02  0.64717375321E+02  0.68840948241E+02  0.10566000000E+00 0.  1.
         13    1    4    4    0    0 -0.13903709043E+02 -0.14745039543E+02 -0.98476660860E+01  0.22532576587E+02  0.10566000000E+00 0. -1.
        -13    1    4    4    0    0 -0.98352472296E+00 -0.14089390239E+01 -0.85484111493E+00  0.19220685267E+01  0.10566000000E+00 0.  1.
         14    1    4    4    0    0 -0.13348071744E+01 -0.80396087121E+00 -0.60289996126E+00  0.16707937151E+01  0.00000000000E+00 0. -1.
<mgrwt>
<rscale>  0 0.78522457E+02</rscale>
<asrwt>0</asrwt>
<pdfrwt beam="1">  1        2 0.31964938E-02 0.78522457E+02</pdfrwt>
<pdfrwt beam="2">  1       -1 0.11413720E-01 0.78522457E+02</pdfrwt>
<totfact> 0.13196584E+05</totfact>
</mgrwt>
</event>
<event>
 8    1  0.1520917E-013  0.7426669E+02  0.7818608E-02  0.1346157E+00
         -1   -1    0    0    0  501 -0.00000000000E+00  0.00000000000E+00  0.13500140633E+01  0.13500234712E+01  0.50400000000E-02 0.  1.
          2   -1    0    0  501    0  0.00000000000E+00 -0.00000000000E+00 -0.10213823343E+04  0.10213823343E+04  0.25500000000E-02 0. -1.
         24    2    1    2    0    0  0.00000000000E+00  0.00000000000E+00 -0.10200323202E+04  0.10227323577E+04  0.74266690454E+02 0.  0.
         66    2    3    3    0    0 -0.26260099950E+02 -0.80333373355E+01 -0.85404254428E+03  0.85448627537E+03  0.19999992855E+01 0.  0.
        -13    1    3    3    0    0  0.26260099950E+02  0.80333373355E+01 -0.16598977592E+03  0.16824608237E+03  0.10566000000E+00 0.  1.
         13    1    4    4    0    0 -0.66005340219E+01 -0.22504448344E+01 -0.22091489017E+03  0.22102495655E+03  0.10566000000E+00 0. -1.
        -13    1    4    4    0    0 -0.16700313416E+02 -0.54372640379E+01 -0.54944656098E+03  0.54972720402E+03  0.10566000000E+00 0.  1.
        -14    1    4    4    0    0 -0.29592525115E+01 -0.34562846318E+00 -0.83681093126E+02  0.83734114799E+02  0.00000000000E+00 0.  1.
<mgrwt>
<rscale>  0 0.74266690E+02</rscale>
<asrwt>0</asrwt>
<pdfrwt beam="1">  1        2 0.15713513E+00 0.74266690E+02</pdfrwt>
<pdfrwt beam="2">  1       -1 0.20769601E-03 0.74266690E+02</pdfrwt>
<totfact> 0.42733298E+05</totfact>
</mgrwt>
</event>
<event>
 8    1  0.1520917E-013  0.8527040E+02  0.7818608E-02  0.1314727E+00
         -1   -1    0    0    0  501 -0.00000000000E+00  0.00000000000E+00  0.77721168658E+01  0.77721185000E+01  0.50400000000E-02 0.  1.
          2   -1    0    0  501    0  0.00000000000E+00 -0.00000000000E+00 -0.23388221365E+03  0.23388221366E+03  0.25500000000E-02 0. -1.
         24    2    1    2    0    0 -0.17763568394E-14  0.35527136788E-14 -0.22611009678E+03  0.24165433216E+03  0.85270395717E+02 0.  0.
         66    2    3    3    0    0 -0.14944720933E+02 -0.25164889422E+02 -0.20088523442E+03  0.20301599384E+03  0.20000003197E+01 0.  0.
        -13    1    3    3    0    0  0.14944720933E+02  0.25164889422E+02 -0.25224862360E+02  0.38638338325E+02  0.10566000000E+00 0.  1.
         13    1    4    4    0    0 -0.25814672454E+01 -0.57124501137E+01 -0.41290310881E+02  0.41763584570E+02  0.10566000000E+00 0. -1.
        -13    1    4    4    0    0 -0.25109804110E+01 -0.39530582666E+01 -0.30492744954E+02  0.30850451393E+02  0.10566000000E+00 0.  1.
         14    1    4    4    0    0 -0.98522732766E+01 -0.15499381042E+02 -0.12910217859E+03  0.13040195787E+03  0.00000000000E+00 0. -1.
<mgrwt>
<rscale>  0 0.85270396E+02</rscale>
<asrwt>0</asrwt>
<pdfrwt beam="1">  1        2 0.35981874E-01 0.85270396E+02</pdfrwt>
<pdfrwt beam="2">  1       -1 0.11957106E-02 0.85270396E+02</pdfrwt>
<totfact> 0.19693870E+05</totfact>
</mgrwt>
</event>
<event>
 8    1  0.1520917E-013  0.7766952E+02  0.7818608E-02  0.1335798E+00
          2   -1    0    0  501    0  0.00000000000E+00  0.00000000000E+00  0.53015474736E+02  0.53015474797E+02  0.25500000000E-02 0. -1.
         -1   -1    0    0    0  501 -0.00000000000E+00 -0.00000000000E+00 -0.28447138521E+02  0.28447138967E+02  0.50400000000E-02 0.  1.
         24    2    1    2    0    0  0.00000000000E+00 -0.35527136788E-14  0.24568336215E+02  0.81462613765E+02  0.77669519742E+02 0.  0.
         66    2    3    3    0    0  0.47106191367E+01 -0.29077912619E+02  0.38793184692E+02  0.48750652448E+02  0.20000001593E+01 0.  0.
        -13    1    3    3    0    0 -0.47106191367E+01  0.29077912619E+02 -0.14224848477E+02  0.32711961316E+02  0.10566000000E+00 0.  1.
         13    1    4    4    0    0  0.35389172763E+01 -0.22323321355E+02  0.30676820220E+02  0.38104239589E+02  0.10566000000E+00 0. -1.
        -13    1    4    4    0    0  0.28855330655E-01 -0.87695573676E+00  0.79867861380E+00  0.11911908151E+01  0.10566000000E+00 0.  1.
        -14    1    4    4    0    0  0.11428465298E+01 -0.58776355273E+01  0.73176858581E+01  0.94552220439E+01  0.00000000000E+00 0.  1.
<mgrwt>
<rscale>  0 0.77669520E+02</rscale>
<asrwt>0</asrwt>
<pdfrwt beam="1">  1        2 0.81562268E-02 0.77669520E+02</pdfrwt>
<pdfrwt beam="2">  1       -1 0.43764830E-02 0.77669520E+02</pdfrwt>
<totfact> 0.16407565E+05</totfact>
</mgrwt>
</event>
<event>
 8    1  0.1520917E-013  0.8190409E+02  0.7818608E-02  0.1323733E+00
          2   -1    0    0  501    0  0.00000000000E+00  0.00000000000E+00  0.29809432068E+03  0.29809432069E+03  0.25500000000E-02 0. -1.
         -1   -1    0    0    0  501 -0.00000000000E+00 -0.00000000000E+00 -0.56259703822E+01  0.56259726397E+01  0.50400000000E-02 0.  1.
         24    2    1    2    0    0  0.35527136788E-14 -0.35527136788E-14  0.29246835030E+03  0.30372029333E+03  0.81904094250E+02 0.  0.
         66    2    3    3    0    0  0.25137065745E+02 -0.14843716533E+02  0.25269388862E+03  0.25438240768E+03  0.19999988745E+01 0.  0.
        -13    1    3    3    0    0 -0.25137065745E+02  0.14843716533E+02  0.39774461673E+02  0.49337885647E+02  0.10566000000E+00 0.  1.
         13    1    4    4    0    0  0.45576997782E+01 -0.32530190720E+01  0.43388321963E+02  0.43748284620E+02  0.10566000000E+00 0. -1.
        -13    1    4    4    0    0  0.78039519475E+01 -0.44166686607E+01  0.80194523196E+02  0.80694369957E+02  0.10566000000E+00 0.  1.
         14    1    4    4    0    0  0.12775414019E+02 -0.71740288002E+01  0.12911104346E+03  0.12993975311E+03  0.00000000000E+00 0. -1.
<mgrwt>
<rscale>  0 0.81904094E+02</rscale>
<asrwt>0</asrwt>
<pdfrwt beam="1">  1        2 0.45860677E-01 0.81904094E+02</pdfrwt>
<pdfrwt beam="2">  1       -1 0.86553385E-03 0.81904094E+02</pdfrwt>
<totfact> 0.23912630E+05</totfact>
</mgrwt>
</event>
<event>
 8    1  0.1520917E-013  0.7861953E+02  0.7818608E-02  0.1333015E+00
         -1   -1    0    0    0  501 -0.00000000000E+00  0.00000000000E+00  0.16794025216E+02  0.16794025972E+02  0.50400000000E-02 0.  1.
          2   -1    0    0  501    0  0.00000000000E+00 -0.00000000000E+00 -0.92012347023E+02  0.92012347059E+02  0.25500000000E-02 0. -1.
         24    2    1    2    0    0  0.00000000000E+00  0.00000000000E+00 -0.75218321807E+02  0.10880637303E+03  0.78619532412E+02 0.  0.
         66    2    3    3    0    0 -0.24966672819E+02 -0.12652301584E+02 -0.75782521204E+02  0.80810927472E+02  0.19999979521E+01 0.  0.
        -13    1    3    3    0    0  0.24966672819E+02  0.12652301584E+02  0.56419939728E+00  0.27995445559E+02  0.10566000000E+00 0.  1.
         13    1    4    4    0    0 -0.69203616980E+01 -0.38053002640E+01 -0.21666416687E+02  0.23061146810E+02  0.10566000000E+00 0. -1.
        -13    1    4    4    0    0 -0.40077361991E+01 -0.19473519093E+01 -0.13974286530E+02  0.14667855227E+02  0.10566000000E+00 0.  1.
        -14    1    4    4    0    0 -0.14038574922E+02 -0.68996494105E+01 -0.40141817988E+02  0.43081925435E+02  0.00000000000E+00 0.  1.
<mgrwt>
<rscale>  0 0.78619532E+02</rscale>
<asrwt>0</asrwt>
<pdfrwt beam="1">  1        2 0.14155745E-01 0.78619532E+02</pdfrwt>
<pdfrwt beam="2">  1       -1 0.25836963E-02 0.78619532E+02</pdfrwt>
<totfact> 0.18151778E+05</totfact>
</mgrwt>
</event>
<event>
 8    1  0.2172936E-013  0.7704133E+02  0.7818608E-02  0.1337664E+00
          2   -1    0    0  501    0  0.00000000000E+00  0.00000000000E+00  0.45155164822E+02  0.45155164894E+02  0.25500000000E-02 0. -1.
         -1   -1    0    0    0  501 -0.00000000000E+00 -0.00000000000E+00 -0.32860953098E+02  0.32860953484E+02  0.50400000000E-02 0.  1.
         24    2    1    2    0    0  0.00000000000E+00  0.17763568394E-14  0.12294211725E+02  0.78016118379E+02  0.77041333613E+02 0.  0.
         66    2    3    3    0    0 -0.34104521716E+02 -0.13053093574E+02  0.18484632697E+02  0.40977839137E+02  0.20000002871E+01 0.  0.
        -13    1    3    3    0    0  0.34104521716E+02  0.13053093574E+02 -0.61904209718E+01  0.37038279241E+02  0.10566000000E+00 0.  1.
         13    1    4    4    0    0 -0.19959917745E+02 -0.74912878630E+01  0.10898518096E+02  0.23943821144E+02  0.10566000000E+00 0. -1.
        -13    1    4    4    0    0 -0.85677561423E+01 -0.39236684060E+01  0.43235207008E+01  0.10368491422E+02  0.10566000000E+00 0.  1.
        -14    1    4    4    0    0 -0.55768478284E+01 -0.16381373046E+01  0.32625938997E+01  0.66655265721E+01  0.00000000000E+00 0.  1.
<mgrwt>
<rscale>  0 0.77041334E+02</rscale>
<asrwt>0</asrwt>
<pdfrwt beam="1">  1        2 0.69469485E-02 0.77041334E+02</pdfrwt>
<pdfrwt beam="2">  1       -1 0.50555313E-02 0.77041334E+02</pdfrwt>
<totfact> 0.16211780E+05</totfact>
</mgrwt>
</event>
<event>
 8    1  0.1520917E-013  0.7985536E+02  0.7818608E-02  0.1329462E+00
          2   -1    0    0  501    0  0.00000000000E+00  0.00000000000E+00  0.60147996921E+03  0.60147996922E+03  0.25500000000E-02 0. -1.
         -1   -1    0    0    0  501 -0.00000000000E+00 -0.00000000000E+00 -0.26504925150E+01  0.26504973068E+01  0.50400000000E-02 0.  1.
         24    2    1    2    0    0  0.88817841970E-15  0.00000000000E+00  0.59882947670E+03  0.60413046652E+03  0.79855359379E+02 0.  0.
         66    2    3    3    0    0  0.70550538132E+01 -0.80243740387E+01  0.59045350421E+03  0.59055355811E+03  0.19999984768E+01 0.  0.
        -13    1    3    3    0    0 -0.70550538132E+01  0.80243740387E+01  0.83759724815E+01  0.13576908413E+02  0.10566000000E+00 0.  1.
         13    1    4    4    0    0  0.61665858870E+01 -0.65215063581E+01  0.48992876431E+03  0.49001098160E+03  0.10566000000E+00 0. -1.
        -13    1    4    4    0    0  0.95421132790E+00 -0.11545824096E+01  0.72154919843E+02  0.72170542476E+02  0.10566000000E+00 0.  1.
         14    1    4    4    0    0 -0.65743401733E-01 -0.34828527094E+00  0.28369820060E+02  0.28372034031E+02  0.00000000000E+00 0. -1.
<mgrwt>
<rscale>  0 0.79855359E+02</rscale>
<asrwt>0</asrwt>
<pdfrwt beam="1">  1        2 0.92535512E-01 0.79855359E+02</pdfrwt>
<pdfrwt beam="2">  1       -1 0.40776787E-03 0.79855359E+02</pdfrwt>
<totfact> 0.32337474E+05</totfact>
</mgrwt>
</event>
<event>
 8    1  0.1520917E-013  0.7902095E+02  0.7818608E-02  0.1331853E+00
          2   -1    0    0  501    0  0.00000000000E+00  0.00000000000E+00  0.64652367751E+03  0.64652367752E+03  0.25500000000E-02 0. -1.
         -1   -1    0    0    0  501 -0.00000000000E+00 -0.00000000000E+00 -0.24145687174E+01  0.24145739774E+01  0.50400000000E-02 0.  1.
         24    2    1    2    0    0  0.17763568394E-14 -0.44408920985E-15  0.64410910880E+03  0.64893825150E+03  0.79020947985E+02 0.  0.
         66    2    3    3    0    0 -0.13473338103E+02  0.39113804101E+01  0.62536200854E+03  0.62552255871E+03  0.20000001903E+01 0.  0.
        -13    1    3    3    0    0  0.13473338103E+02 -0.39113804101E+01  0.18747100259E+02  0.23415692783E+02  0.10566000000E+00 0.  1.
         13    1    4    4    0    0 -0.51513413814E+01  0.20168247434E+01  0.24499736909E+03  0.24505984152E+03  0.10566000000E+00 0. -1.
        -13    1    4    4    0    0 -0.36761830363E+00 -0.17170018530E+00  0.17476117716E+02  0.17481146376E+02  0.10566000000E+00 0.  1.
         14    1    4    4    0    0 -0.79543784180E+01  0.20662558520E+01  0.36288852173E+03  0.36298157082E+03  0.00000000000E+00 0. -1.
<mgrwt>
<rscale>  0 0.79020948E+02</rscale>
<asrwt>0</asrwt>
<pdfrwt beam="1">  1        2 0.99465259E-01 0.79020948E+02</pdfrwt>
<pdfrwt beam="2">  1       -1 0.37147223E-03 0.79020948E+02</pdfrwt>
<totfact> 0.33879571E+05</totfact>
</mgrwt>
</event>
<event>
 8    1  0.1520917E-013  0.7967628E+02  0.7818608E-02  0.1329973E+00
         -1   -1    0    0    0  501 -0.00000000000E+00  0.00000000000E+00  0.32056209965E+02  0.32056210361E+02  0.50400000000E-02 0.  1.
          2   -1    0    0  501    0  0.00000000000E+00 -0.00000000000E+00 -0.49509203731E+02  0.49509203796E+02  0.25500000000E-02 0. -1.
         24    2    1    2    0    0  0.00000000000E+00  0.35527136788E-14 -0.17452993766E+02  0.81565414157E+02  0.79676281259E+02 0.  0.
         66    2    3    3    0    0  0.31996816189E+02  0.22682207066E+02 -0.15734765282E+02  0.42306756045E+02  0.20000012304E+01 0.  0.
        -13    1    3    3    0    0 -0.31996816189E+02 -0.22682207066E+02 -0.17182284842E+01  0.39258658113E+02  0.10566000000E+00 0.  1.
         13    1    4    4    0    0  0.10972510220E+02  0.76771609883E+01 -0.51769120798E+01  0.14357798024E+02  0.10566000000E+00 0. -1.
        -13    1    4    4    0    0  0.25884660379E+01  0.21235991675E+01 -0.87026096322E+00  0.34609750120E+01  0.10566000000E+00 0.  1.
        -14    1    4    4    0    0  0.18435839931E+02  0.12881446910E+02 -0.96875922387E+01  0.24487983009E+02  0.00000000000E+00 0.  1.
<mgrwt>
<rscale>  0 0.79676281E+02</rscale>
<asrwt>0</asrwt>
<pdfrwt beam="1">  1        2 0.76168006E-02 0.79676281E+02</pdfrwt>
<pdfrwt beam="2">  1       -1 0.49317247E-02 0.79676281E+02</pdfrwt>
<totfact> 0.15077545E+05</totfact>
</mgrwt>
</event>
<event>
 8    1  0.1520917E-013  0.8061084E+02  0.7818608E-02  0.1327327E+00
         -1   -1    0    0    0  501 -0.00000000000E+00  0.00000000000E+00  0.10027597612E+03  0.10027597625E+03  0.50400000000E-02 0.  1.
          2   -1    0    0  501    0  0.00000000000E+00 -0.00000000000E+00 -0.16200558817E+02  0.16200559018E+02  0.25500000000E-02 0. -1.
         24    2    1    2    0    0  0.00000000000E+00  0.00000000000E+00  0.84075417303E+02  0.11647653526E+03  0.80610839671E+02 0.  0.
         66    2    3    3    0    0 -0.24221771595E+02  0.24050704524E+02  0.11161345692E+02  0.35968128186E+02  0.20000000620E+01 0.  0.
        -13    1    3    3    0    0  0.24221771595E+02 -0.24050704524E+02  0.72914071611E+02  0.80508407078E+02  0.10566000000E+00 0.  1.
         13    1    4    4    0    0 -0.32768036875E+01  0.35455071663E+01  0.20570336808E+01  0.52488679800E+01  0.10566000000E+00 0. -1.
        -13    1    4    4    0    0 -0.11205240104E+02  0.10368281836E+02  0.42524323623E+01  0.15847808020E+02  0.10566000000E+00 0.  1.
        -14    1    4    4    0    0 -0.97397278036E+01  0.10136915522E+02  0.48518796489E+01  0.14871452186E+02  0.00000000000E+00 0.  1.
<mgrwt>
<rscale>  0 0.80610840E+02</rscale>
<asrwt>0</asrwt>
<pdfrwt beam="1">  1        2 0.24923937E-02 0.80610840E+02</pdfrwt>
<pdfrwt beam="2">  1       -1 0.15427073E-01 0.80610840E+02</pdfrwt>
<totfact> 0.11623497E+05</totfact>
</mgrwt>
</event>
<event>
 8    1  0.1520917E-013  0.8016689E+02  0.7818608E-02  0.1328578E+00
          2   -1    0    0  501    0  0.00000000000E+00  0.00000000000E+00  0.95894249587E+03  0.95894249587E+03  0.25500000000E-02 0. -1.
         -1   -1    0    0    0  501 -0.00000000000E+00 -0.00000000000E+00 -0.16754694966E+01  0.16754770770E+01  0.50400000000E-02 0.  1.
         24    2    1    2    0    0  0.00000000000E+00 -0.44408920985E-15  0.95726702637E+03  0.96061797295E+03  0.80166889509E+02 0.  0.
         66    2    3    3    0    0 -0.10471679273E+02 -0.25869999592E+01  0.94121061980E+03  0.94127455051E+03  0.19999944430E+01 0.  0.
        -13    1    3    3    0    0  0.10471679273E+02  0.25869999592E+01  0.16056406568E+02  0.19343422435E+02  0.10566000000E+00 0.  1.
         13    1    4    4    0    0 -0.20261105330E+01 -0.16587780925E+00  0.20106579512E+03  0.20107609945E+03  0.10566000000E+00 0. -1.
        -13    1    4    4    0    0 -0.11153014136E+01 -0.63060114892E+00  0.14722364930E+03  0.14722926215E+03  0.10566000000E+00 0.  1.
        -14    1    4    4    0    0 -0.73302673267E+01 -0.17905210010E+01  0.59292117539E+03  0.59296918892E+03  0.00000000000E+00 0.  1.
<mgrwt>
<rscale>  0 0.80166890E+02</rscale>
<asrwt>0</asrwt>
<pdfrwt beam="1">  1        2 0.14752954E+00 0.80166890E+02</pdfrwt>
<pdfrwt beam="2">  1       -1 0.25776525E-03 0.80166890E+02</pdfrwt>
<totfact> 0.34958368E+05</totfact>
</mgrwt>
</event>
<event>
 8    1  0.1520917E-013  0.8089608E+02  0.7818608E-02  0.1326528E+00
          2   -1    0    0  501    0  0.00000000000E+00  0.00000000000E+00  0.10815058806E+03  0.10815058809E+03  0.25500000000E-02 0. -1.
         -1   -1    0    0    0  501 -0.00000000000E+00 -0.00000000000E+00 -0.15127460787E+02  0.15127461626E+02  0.50400000000E-02 0.  1.
         24    2    1    2    0    0 -0.71054273576E-14 -0.88817841970E-15  0.93023127271E+02  0.12327804971E+03  0.80896077371E+02 0.  0.
         66    2    3    3    0    0 -0.25363747724E+02 -0.47554305857E+01  0.93955326006E+02  0.97455308241E+02  0.20000002266E+01 0.  0.
        -13    1    3    3    0    0  0.25363747724E+02  0.47554305857E+01 -0.93219873454E+00  0.25822741473E+02  0.10566000000E+00 0.  1.
         13    1    4    4    0    0 -0.15747373576E+02 -0.29419213034E+01  0.57370749726E+02  0.59565499777E+02  0.10566000000E+00 0. -1.
        -13    1    4    4    0    0 -0.36940108773E+01 -0.69049274176E+00  0.11890979506E+02  0.12471128828E+02  0.10566000000E+00 0.  1.
        -14    1    4    4    0    0 -0.59223632709E+01 -0.11230165405E+01  0.24693596774E+02  0.25418679637E+02  0.00000000000E+00 0.  1.
<mgrwt>
<rscale>  0 0.80896077E+02</rscale>
<asrwt>0</asrwt>
<pdfrwt beam="1">  1        2 0.16638552E-01 0.80896077E+02</pdfrwt>
<pdfrwt beam="2">  1       -1 0.23273017E-02 0.80896077E+02</pdfrwt>
<totfact> 0.17592599E+05</totfact>
</mgrwt>
</event>
<event>
 8    1  0.1520917E-013  0.7774166E+02  0.7818608E-02  0.1335585E+00
          2   -1    0    0  501    0  0.00000000000E+00  0.00000000000E+00  0.19772193052E+02  0.19772193216E+02  0.25500000000E-02 0. -1.
         -1   -1    0    0    0  501 -0.00000000000E+00 -0.00000000000E+00 -0.76417482659E+02  0.76417482825E+02  0.50400000000E-02 0.  1.
         24    2    1    2    0    0  0.35527136788E-14  0.00000000000E+00 -0.56645289607E+02  0.96189676041E+02  0.77741655129E+02 0.  0.
         66    2    3    3    0    0  0.30121976248E+02 -0.80049231127E+00  0.19904643909E+01  0.30264437687E+02  0.19999997595E+01 0.  0.
        -13    1    3    3    0    0 -0.30121976248E+02  0.80049231127E+00 -0.58635753998E+02  0.65925238354E+02  0.10566000000E+00 0.  1.
         13    1    4    4    0    0  0.23818883747E+02 -0.13356379848E+01  0.17504389640E+01  0.23920667892E+02  0.10566000000E+00 0. -1.
        -13    1    4    4    0    0  0.86289629517E+00 -0.10102984722E-01  0.92767199625E-01  0.87433510478E+00  0.10566000000E+00 0. -1.
         14    1    4    4    0    0  0.54401962054E+01  0.54524865822E+00  0.14725822736E+00  0.54694346909E+01  0.00000000000E+00 0. -1.
<mgrwt>
<rscale>  0 0.77741655E+02</rscale>
<asrwt>0</asrwt>
<pdfrwt beam="1">  1        2 0.30418759E-02 0.77741655E+02</pdfrwt>
<pdfrwt beam="2">  1       -1 0.11756536E-01 0.77741655E+02</pdfrwt>
<totfact> 0.13446467E+05</totfact>
</mgrwt>
</event>
<event>
 8    1  0.1520917E-013  0.7948780E+02  0.7818608E-02  0.1330511E+00
         -1   -1    0    0    0  501 -0.00000000000E+00  0.00000000000E+00  0.10263966440E+01  0.10264090181E+01  0.50400000000E-02 0.  1.
          2   -1    0    0  501    0  0.00000000000E+00 -0.00000000000E+00 -0.15389451829E+04  0.15389451829E+04  0.25500000000E-02 0. -1.
         24    2    1    2    0    0  0.00000000000E+00 -0.44408920985E-15 -0.15379187862E+04  0.15399715919E+04  0.79487802852E+02 0.  0.
         66    2    3    3    0    0  0.18958011416E+02  0.38714782979E+01 -0.14414571062E+04  0.14415883544E+04  0.19999981675E+01 0.  0.
        -13    1    3    3    0    0 -0.18958011416E+02 -0.38714782979E+01 -0.96461680002E+02  0.98383237464E+02  0.10566000000E+00 0.  1.
         13    1    4    4    0    0  0.11767175376E+01  0.33343923202E+00 -0.77318450183E+02  0.77328195043E+02  0.10566000000E+00 0. -1.
        -13    1    4    4    0    0  0.12182961491E+02  0.30515062281E+01 -0.90656285800E+03  0.90664985684E+03  0.10566000000E+00 0.  1.
         14    1    4    4    0    0  0.55983323873E+01  0.48653283775E+00 -0.45757579805E+03  0.45761030255E+03  0.00000000000E+00 0. -1.
<mgrwt>
<rscale>  0 0.79487803E+02</rscale>
<asrwt>0</asrwt>
<pdfrwt beam="1">  1        2 0.23675895E+00 0.79487803E+02</pdfrwt>
<pdfrwt beam="2">  1       -1 0.15790936E-03 0.79487803E+02</pdfrwt>
<totfact> 0.33470679E+05</totfact>
</mgrwt>
</event>
<event>
 8    1  0.1520917E-013  0.7893279E+02  0.7818608E-02  0.1332108E+00
         -1   -1    0    0    0  501 -0.00000000000E+00  0.00000000000E+00  0.10823293619E+02  0.10823294793E+02  0.50400000000E-02 0.  1.
          2   -1    0    0  501    0  0.00000000000E+00 -0.00000000000E+00 -0.14391147517E+03  0.14391147519E+03  0.25500000000E-02 0. -1.
         24    2    1    2    0    0  0.00000000000E+00 -0.35527136788E-14 -0.13308818155E+03  0.15473476999E+03  0.78932787699E+02 0.  0.
         66    2    3    3    0    0  0.25602397352E+02 -0.29149815780E+02 -0.52670133534E+02  0.65447211384E+02  0.20000003092E+01 0.  0.
        -13    1    3    3    0    0 -0.25602397352E+02  0.29149815780E+02 -0.80418048016E+02  0.89287558601E+02  0.10566000000E+00 0.  1.
         13    1    4    4    0    0  0.20549113762E+02 -0.22529090994E+02 -0.40951918786E+02  0.51057779365E+02  0.10566000000E+00 0. -1.
        -13    1    4    4    0    0  0.43231018671E+01 -0.53093440459E+01 -0.97430194856E+01  0.11908649658E+02  0.10566000000E+00 0.  1.
         14    1    4    4    0    0  0.73018172308E+00 -0.13113807404E+01 -0.19751952624E+01  0.24807823604E+01  0.00000000000E+00 0. -1.
<mgrwt>
<rscale>  0 0.78932788E+02</rscale>
<asrwt>0</asrwt>
<pdfrwt beam="1">  1        2 0.22140226E-01 0.78932788E+02</pdfrwt>
<pdfrwt beam="2">  1       -1 0.16651223E-02 0.78932788E+02</pdfrwt>
<totfact> 0.20483157E+05</totfact>
</mgrwt>
</event>
<event>
 8    1  0.1520917E-013  0.8214928E+02  0.7818608E-02  0.1323060E+00
          2   -1    0    0  501    0  0.00000000000E+00  0.00000000000E+00  0.57326663667E+03  0.57326663668E+03  0.25500000000E-02 0. -1.
         -1   -1    0    0    0  501 -0.00000000000E+00 -0.00000000000E+00 -0.29430016401E+01  0.29430059557E+01  0.50400000000E-02 0.  1.
         24    2    1    2    0    0  0.00000000000E+00  0.00000000000E+00  0.57032363503E+03  0.57620964263E+03  0.82149276246E+02 0.  0.
         66    2    3    3    0    0 -0.33249160654E+02  0.55293064667E+01  0.44968394639E+03  0.45094981047E+03  0.20000017981E+01 0.  0.
        -13    1    3    3    0    0  0.33249160654E+02 -0.55293064667E+01  0.12063968865E+03  0.12525983217E+03  0.10566000000E+00 0.  1.
         13    1    4    4    0    0 -0.16292897040E+02  0.23511868126E+01  0.21456616495E+03  0.21519673994E+03  0.10566000000E+00 0. -1.
        -13    1    4    4    0    0 -0.56776828155E+00  0.35398185862E-01  0.10782409928E+02  0.10797923029E+02  0.10566000000E+00 0.  1.
        -14    1    4    4    0    0 -0.16388495333E+02  0.31427214683E+01  0.22433537151E+03  0.22495514750E+03  0.00000000000E+00 0.  1.
<mgrwt>
<rscale>  0 0.82149276E+02</rscale>
<asrwt>0</asrwt>
<pdfrwt beam="1">  1        2 0.88194896E-01 0.82149276E+02</pdfrwt>
<pdfrwt beam="2">  1       -1 0.45276967E-03 0.82149276E+02</pdfrwt>
<totfact> 0.29629460E+05</totfact>
</mgrwt>
</event>
<event>
 8    1  0.1759759E-013  0.7080451E+02  0.7818608E-02  0.1357378E+00
         -1   -1    0    0    0  501 -0.00000000000E+00  0.00000000000E+00  0.10600822855E+02  0.10600824053E+02  0.50400000000E-02 0.  1.
          2   -1    0    0  501    0  0.00000000000E+00 -0.00000000000E+00 -0.11822851618E+03  0.11822851621E+03  0.25500000000E-02 0. -1.
         24    2    1    2    0    0  0.00000000000E+00  0.44408920985E-15 -0.10762769332E+03  0.12882934026E+03  0.70804509331E+02 0.  0.
         66    2    3    3    0    0  0.18224337402E+02 -0.32111579374E+01 -0.10871042127E+03  0.11029231048E+03  0.20000124330E+01 0.  0.
        -13    1    3    3    0    0 -0.18224337402E+02  0.32111579374E+01  0.10827279488E+01  0.18537029775E+02  0.10566000000E+00 0.  1.
         13    1    4    4    0    0  0.13898857294E+02 -0.23211536662E+01 -0.85373244063E+02  0.86528422812E+02  0.10566000000E+00 0. -1.
        -13    1    4    4    0    0  0.13389071252E+01 -0.42663608380E+00 -0.91960236890E+01  0.93033706990E+01  0.10566000000E+00 0.  1.
        -14    1    4    4    0    0  0.29865729828E+01 -0.46336818743E+00 -0.14141153520E+02  0.14460516974E+02  0.00000000000E+00 0.  1.
<mgrwt>
<rscale>  0 0.70804509E+02</rscale>
<asrwt>0</asrwt>
<pdfrwt beam="1">  1        2 0.18189002E-01 0.70804509E+02</pdfrwt>
<pdfrwt beam="2">  1       -1 0.16308960E-02 0.70804509E+02</pdfrwt>
<totfact> 0.25700473E+05</totfact>
</mgrwt>
</event>
<event>
 8    1  0.1520917E-013  0.8131736E+02  0.7818608E-02  0.1325354E+00
         -1   -1    0    0    0  501 -0.00000000000E+00  0.00000000000E+00  0.58689436789E+02  0.58689437005E+02  0.50400000000E-02 0.  1.
          2   -1    0    0  501    0  0.00000000000E+00 -0.00000000000E+00 -0.28167387105E+02  0.28167387221E+02  0.25500000000E-02 0. -1.
         24    2    1    2    0    0  0.35527136788E-14  0.00000000000E+00  0.30522049683E+02  0.86856824226E+02  0.81317356067E+02 0.  0.
         66    2    3    3    0    0  0.21436476049E+02 -0.42176730719E+01 -0.21324616709E+02  0.30594943244E+02  0.20000006959E+01 0.  0.
        -13    1    3    3    0    0 -0.21436476049E+02  0.42176730719E+01  0.51846666393E+02  0.56261880982E+02  0.10566000000E+00 0.  1.
         13    1    4    4    0    0  0.16252331852E+02 -0.31947618983E+01 -0.16023656965E+02  0.23045900737E+02  0.10566000000E+00 0. -1.
        -13    1    4    4    0    0  0.17977244124E+01  0.74377157418E-01 -0.20302066081E+01  0.27148200551E+01  0.10566000000E+00 0.  1.
         14    1    4    4    0    0  0.33864197844E+01 -0.10972883310E+01 -0.32707531362E+01  0.48342224520E+01  0.00000000000E+00 0. -1.
<mgrwt>
<rscale>  0 0.81317356E+02</rscale>
<asrwt>0</asrwt>
<pdfrwt beam="1">  1        2 0.43334443E-02 0.81317356E+02</pdfrwt>
<pdfrwt beam="2">  1       -1 0.90291440E-02 0.81317356E+02</pdfrwt>
<totfact> 0.12691654E+05</totfact>
</mgrwt>
</event>
<event>
 8    1  0.1520917E-013  0.7823625E+02  0.7818608E-02  0.1334133E+00
         -1   -1    0    0    0  501 -0.00000000000E+00  0.00000000000E+00  0.11234081504E+02  0.11234082635E+02  0.50400000000E-02 0.  1.
          2   -1    0    0  501    0  0.00000000000E+00 -0.00000000000E+00 -0.13621295456E+03  0.13621295458E+03  0.25500000000E-02 0. -1.
         24    2    1    2    0    0 -0.17763568394E-14  0.17763568394E-14 -0.12497887306E+03  0.14744703722E+03  0.78236245271E+02 0.  0.
         66    2    3    3    0    0  0.13488611661E+02 -0.14915505273E+02 -0.12570934752E+03  0.12732342673E+03  0.19999994268E+01 0.  0.
        -13    1    3    3    0    0 -0.13488611661E+02  0.14915505273E+02  0.73047446685E+00  0.20123610488E+02  0.10566000000E+00 0.  1.
         13    1    4    4    0    0  0.95082238945E+01 -0.97003090528E+01 -0.83030779330E+02  0.84134557689E+02  0.10566000000E+00 0. -1.
        -13    1    4    4    0    0  0.24464504669E+01 -0.37684378341E+01 -0.27575495305E+02  0.27939315470E+02  0.10566000000E+00 0.  1.
        -14    1    4    4    0    0  0.15339372992E+01 -0.14467583862E+01 -0.15103072889E+02  0.15249553572E+02  0.00000000000E+00 0.  1.
<mgrwt>
<rscale>  0 0.78236245E+02</rscale>
<asrwt>0</asrwt>
<pdfrwt beam="1">  1        2 0.20955838E-01 0.78236245E+02</pdfrwt>
<pdfrwt beam="2">  1       -1 0.17283204E-02 0.78236245E+02</pdfrwt>
<totfact> 0.20610859E+05</totfact>
</mgrwt>
</event>
<event>
 8    1  0.1520917E-013  0.7985966E+02  0.7818608E-02  0.1329450E+00
         -1   -1    0    0    0  501 -0.00000000000E+00  0.00000000000E+00  0.23300890053E+03  0.23300890058E+03  0.50400000000E-02 0.  1.
          2   -1    0    0  501    0  0.00000000000E+00 -0.00000000000E+00 -0.68426190357E+01  0.68426195109E+01  0.25500000000E-02 0. -1.
         24    2    1    2    0    0  0.44408920985E-15  0.00000000000E+00  0.22616628149E+03  0.23985152009E+03  0.79859656943E+02 0.  0.
         66    2    3    3    0    0  0.23073183034E+01  0.33766222589E+02  0.49661356039E+02  0.60130955385E+02  0.20000015599E+01 0.  0.
        -13    1    3    3    0    0 -0.23073183034E+01 -0.33766222589E+02  0.17650492545E+03  0.17972056471E+03  0.10566000000E+00 0.  1.
         13    1    4    4    0    0  0.15814048088E+01  0.13353810742E+02  0.19723169102E+02  0.23871314710E+02  0.10566000000E+00 0. -1.
        -13    1    4    4    0    0 -0.24723129596E+00  0.20197238533E+01  0.30584655843E+01  0.36750215678E+01  0.10566000000E+00 0.  1.
         14    1    4    4    0    0  0.97314479054E+00  0.18392687994E+02  0.26879721352E+02  0.32584619108E+02  0.00000000000E+00 0. -1.
<mgrwt>
<rscale>  0 0.79859657E+02</rscale>
<asrwt>0</asrwt>
<pdfrwt beam="1">  1        2 0.10527107E-02 0.79859657E+02</pdfrwt>
<pdfrwt beam="2">  1       -1 0.35847521E-01 0.79859657E+02</pdfrwt>
<totfact> 0.95301378E+04</totfact>
</mgrwt>
</event>
<event>
 8    1  0.1520917E-013  0.7444712E+02  0.7818608E-02  0.1345592E+00
         -1   -1    0    0    0  501 -0.00000000000E+00  0.00000000000E+00  0.13733299737E+01  0.13733392219E+01  0.50400000000E-02 0.  1.
          2   -1    0    0  501    0  0.00000000000E+00 -0.00000000000E+00 -0.10089263413E+04  0.10089263413E+04  0.25500000000E-02 0. -1.
         24    2    1    2    0    0  0.00000000000E+00  0.00000000000E+00 -0.10075530114E+04  0.10102996806E+04  0.74447121077E+02 0.  0.
         66    2    3    3    0    0  0.95062328504E+01 -0.67555936582E+01 -0.98347156886E+03  0.98354274602E+03  0.19999992470E+01 0.  0.
        -13    1    3    3    0    0 -0.95062328504E+01  0.67555936582E+01 -0.24081442508E+02  0.26756934540E+02  0.10566000000E+00 0.  1.
         13    1    4    4    0    0  0.33333077501E+01 -0.26625076469E+01 -0.36034275150E+03  0.36036801968E+03  0.10566000000E+00 0. -1.
        -13    1    4    4    0    0  0.78087882872E+00 -0.71729582478E+00 -0.13951879749E+03  0.13952286659E+03  0.10566000000E+00 0.  1.
         14    1    4    4    0    0  0.53920462716E+01 -0.33757901866E+01 -0.48361001987E+03  0.48365185975E+03  0.00000000000E+00 0. -1.
<mgrwt>
<rscale>  0 0.74447121E+02</rscale>
<asrwt>0</asrwt>
<pdfrwt beam="1">  1        2 0.15521884E+00 0.74447121E+02</pdfrwt>
<pdfrwt beam="2">  1       -1 0.21128305E-03 0.74447121E+02</pdfrwt>
<totfact> 0.42450837E+05</totfact>
</mgrwt>
</event>
<event>
 8    1  0.1520917E-013  0.8014228E+02  0.7818608E-02  0.1328648E+00
         -1   -1    0    0    0  501 -0.00000000000E+00  0.00000000000E+00  0.17154557456E+01  0.17154631493E+01  0.50400000000E-02 0.  1.
          2   -1    0    0  501    0  0.00000000000E+00 -0.00000000000E+00 -0.93601530132E+03  0.93601530133E+03  0.25500000000E-02 0. -1.
         24    2    1    2    0    0 -0.88817841970E-15 -0.35527136788E-14 -0.93429984558E+03  0.93773076448E+03  0.80142280966E+02 0.  0.
         66    2    3    3    0    0 -0.65331198835E+01 -0.30684689985E+02 -0.75866119831E+03  0.75931221882E+03  0.19999945216E+01 0.  0.
        -13    1    3    3    0    0  0.65331198835E+01  0.30684689985E+02 -0.17563864727E+03  0.17841854565E+03  0.10566000000E+00 0.  1.
         13    1    4    4    0    0 -0.17000561261E+01 -0.99835660831E+01 -0.24427919151E+03  0.24448905160E+03  0.10566000000E+00 0.  1.
        -13    1    4    4    0    0 -0.44722579746E+01 -0.19506124641E+02 -0.47502877815E+03  0.47545014589E+03  0.10566000000E+00 0. -1.
        -14    1    4    4    0    0 -0.36080578279E+00 -0.11949992605E+01 -0.39353228646E+02  0.39373021334E+02  0.00000000000E+00 0.  1.
<mgrwt>
<rscale>  0 0.80142281E+02</rscale>
<asrwt>0</asrwt>
<pdfrwt beam="1">  1        2 0.14400195E+00 0.80142281E+02</pdfrwt>
<pdfrwt beam="2">  1       -1 0.26391759E-03 0.80142281E+02</pdfrwt>
<totfact> 0.34919961E+05</totfact>
</mgrwt>
</event>
<event>
 8    1  0.1520917E-013  0.7966775E+02  0.7818608E-02  0.1329997E+00
         -1   -1    0    0    0  501 -0.00000000000E+00  0.00000000000E+00  0.53458183270E+02  0.53458183508E+02  0.50400000000E-02 0.  1.
          2   -1    0    0  501    0  0.00000000000E+00 -0.00000000000E+00 -0.29681846728E+02  0.29681846838E+02  0.25500000000E-02 0. -1.
         24    2    1    2    0    0 -0.88817841970E-15  0.00000000000E+00  0.23776336542E+02  0.83140030345E+02  0.79667750479E+02 0.  0.
         66    2    3    3    0    0  0.77309276814E+01 -0.26502628498E+02 -0.18034977319E+02  0.33036600413E+02  0.19999999702E+01 0.  0.
        -13    1    3    3    0    0 -0.77309276814E+01  0.26502628498E+02  0.41811313861E+02  0.50103429932E+02  0.10566000000E+00 0.  1.
         13    1    4    4    0    0  0.57502640773E+01 -0.19467351511E+02 -0.13683206660E+02  0.24480290447E+02  0.10566000000E+00 0. -1.
        -13    1    4    4    0    0  0.12306851226E+01 -0.27721702694E+01 -0.19239009662E+01  0.35933372840E+01  0.10566000000E+00 0.  1.
        -14    1    4    4    0    0  0.74997848152E+00 -0.42631067172E+01 -0.24278696925E+01  0.49629726827E+01  0.00000000000E+00 0.  1.
<mgrwt>
<rscale>  0 0.79667750E+02</rscale>
<asrwt>0</asrwt>
<pdfrwt beam="1">  1        2 0.45664380E-02 0.79667750E+02</pdfrwt>
<pdfrwt beam="2">  1       -1 0.82243359E-02 0.79667750E+02</pdfrwt>
<totfact> 0.13584516E+05</totfact>
</mgrwt>
</event>
<event>
 8    1  0.1520917E-013  0.8339083E+02  0.7818608E-02  0.1319695E+00
         -1   -1    0    0    0  501 -0.00000000000E+00  0.00000000000E+00  0.33325727468E+01  0.33325765579E+01  0.50400000000E-02 0.  1.
          2   -1    0    0  501    0  0.00000000000E+00 -0.00000000000E+00 -0.52167098955E+03  0.52167098955E+03  0.25500000000E-02 0. -1.
         24    2    1    2    0    0  0.71054273576E-14 -0.88817841970E-15 -0.51833841680E+03  0.52500356611E+03  0.83390827424E+02 0.  0.
         66    2    3    3    0    0  0.31798357882E+02 -0.70942247479E+01 -0.42288964763E+03  0.42414751875E+03  0.20000005418E+01 0.  0.
        -13    1    3    3    0    0 -0.31798357882E+02  0.70942247479E+01 -0.95448769170E+02  0.10085604736E+03  0.10566000000E+00 0.  1.
         13    1    4    4    0    0  0.14917711751E+02 -0.31083736908E+01 -0.20113247133E+03  0.20170890486E+03  0.10566000000E+00 0. -1.
        -13    1    4    4    0    0  0.94520331475E+01 -0.16707813017E+01 -0.12746997394E+03  0.12783089556E+03  0.10566000000E+00 0.  1.
         14    1    4    4    0    0  0.74286129832E+01 -0.23150697554E+01 -0.94287202364E+02  0.94607718334E+02  0.00000000000E+00 0. -1.
<mgrwt>
<rscale>  0 0.83390827E+02</rscale>
<asrwt>0</asrwt>
<pdfrwt beam="1">  1        2 0.80257011E-01 0.83390827E+02</pdfrwt>
<pdfrwt beam="2">  1       -1 0.51270421E-03 0.83390827E+02</pdfrwt>
<totfact> 0.27691156E+05</totfact>
</mgrwt>
</event>
<event>
 8    1  0.1520917E-013  0.7903357E+02  0.7818608E-02  0.1331817E+00
          2   -1    0    0  501    0  0.00000000000E+00  0.00000000000E+00  0.44040674299E+01  0.44040681682E+01  0.25500000000E-02 0. -1.
         -1   -1    0    0    0  501 -0.00000000000E+00 -0.00000000000E+00 -0.35457586721E+03  0.35457586725E+03  0.50400000000E-02 0.  1.
         24    2    1    2    0    0 -0.35527136788E-14  0.00000000000E+00 -0.35017179978E+03  0.35897993542E+03  0.79033566721E+02 0.  0.
         66    2    3    3    0    0 -0.30208093618E+02 -0.19913207137E+02 -0.24708764117E+03  0.24973058915E+03  0.20000000718E+01 0.  0.
        -13    1    3    3    0    0  0.30208093618E+02  0.19913207137E+02 -0.10308415861E+03  0.10924934626E+03  0.10566000000E+00 0.  1.
         13    1    4    4    0    0 -0.69141390785E+01 -0.50909470316E+01 -0.57905497873E+02  0.58538712907E+02  0.10566000000E+00 0. -1.
        -13    1    4    4    0    0 -0.17410415016E+02 -0.11696012174E+02 -0.14590662520E+03  0.14740649135E+03  0.10566000000E+00 0.  1.
        -14    1    4    4    0    0 -0.58835395240E+01 -0.31262479311E+01 -0.43275518096E+02  0.43785384890E+02  0.00000000000E+00 0.  1.
<mgrwt>
<rscale>  0 0.79033567E+02</rscale>
<asrwt>0</asrwt>
<pdfrwt beam="1">  1        2 0.67754917E-03 0.79033567E+02</pdfrwt>
<pdfrwt beam="2">  1       -1 0.54550111E-01 0.79033567E+02</pdfrwt>
<totfact> 0.82943096E+04</totfact>
</mgrwt>
</event>
<event>
 8    1  0.1520917E-013  0.8133755E+02  0.7818608E-02  0.1325298E+00
         -1   -1    0    0    0  501 -0.00000000000E+00  0.00000000000E+00  0.26270080188E+02  0.26270080672E+02  0.50400000000E-02 0.  1.
          2   -1    0    0  501    0  0.00000000000E+00 -0.00000000000E+00 -0.62959430769E+02  0.62959430821E+02  0.25500000000E-02 0. -1.
         24    2    1    2    0    0  0.00000000000E+00  0.00000000000E+00 -0.36689350581E+02  0.89229511493E+02  0.81337551446E+02 0.  0.
         66    2    3    3    0    0 -0.31391577151E+02  0.22488921026E+02 -0.32265143973E+02  0.50360919376E+02  0.19999999767E+01 0.  0.
        -13    1    3    3    0    0  0.31391577151E+02 -0.22488921026E+02 -0.44242066081E+01  0.38868592116E+02  0.10566000000E+00 0.  1.
         13    1    4    4    0    0 -0.15741919874E+01  0.12131031576E+01 -0.18979947538E+01  0.27501359612E+01  0.10566000000E+00 0. -1.
        -13    1    4    4    0    0 -0.33104903643E+01  0.22796593334E+01 -0.26846897305E+01  0.48347612261E+01  0.10566000000E+00 0.  1.
        -14    1    4    4    0    0 -0.26506894799E+02  0.18996158535E+02 -0.27682459488E+02  0.42776022189E+02  0.00000000000E+00 0.  1.
<mgrwt>
<rscale>  0 0.81337551E+02</rscale>
<asrwt>0</asrwt>
<pdfrwt beam="1">  1        2 0.96860663E-02 0.81337551E+02</pdfrwt>
<pdfrwt beam="2">  1       -1 0.40415508E-02 0.81337551E+02</pdfrwt>
<totfact> 0.15047734E+05</totfact>
</mgrwt>
</event>
<event>
 8    1  0.1520917E-013  0.7883320E+02  0.7818608E-02  0.1332396E+00
         -1   -1    0    0    0  501 -0.00000000000E+00  0.00000000000E+00  0.11411118358E+02  0.11411119471E+02  0.50400000000E-02 0.  1.
          2   -1    0    0  501    0  0.00000000000E+00 -0.00000000000E+00 -0.13615389890E+03  0.13615389892E+03  0.25500000000E-02 0. -1.
         24    2    1    2    0    0  0.00000000000E+00  0.35527136788E-14 -0.12474278054E+03  0.14756501839E+03  0.78833199581E+02 0.  0.
         66    2    3    3    0    0 -0.32359394726E+02 -0.22392276052E+02 -0.59105596677E+02  0.71035314856E+02  0.19999860769E+01 0.  0.
        -13    1    3    3    0    0  0.32359394726E+02  0.22392276052E+02 -0.65637183865E+02  0.76529703538E+02  0.10566000000E+00 0.  1.
         13    1    4    4    0    0 -0.10904376878E+02 -0.71896648328E+01 -0.19878252911E+02  0.23785559030E+02  0.10566000000E+00 0. -1.
        -13    1    4    4    0    0 -0.83726148056E+01 -0.61894859350E+01 -0.16816774549E+02  0.19779420747E+02  0.10566000000E+00 0.  1.
         14    1    4    4    0    0 -0.13082403042E+02 -0.90131252842E+01 -0.22410569217E+02  0.27470335079E+02  0.00000000000E+00 0. -1.
<mgrwt>
<rscale>  0 0.78833200E+02</rscale>
<asrwt>0</asrwt>
<pdfrwt beam="1">  1        2 0.20946753E-01 0.78833200E+02</pdfrwt>
<pdfrwt beam="2">  1       -1 0.17555569E-02 0.78833200E+02</pdfrwt>
<totfact> 0.20196581E+05</totfact>
</mgrwt>
</event>
<event>
 8    1  0.1520917E-013  0.7618190E+02  0.7818608E-02  0.1340250E+00
          2   -1    0    0  501    0  0.00000000000E+00  0.00000000000E+00  0.34837251596E+03  0.34837251597E+03  0.25500000000E-02 0. -1.
         -1   -1    0    0    0  501 -0.00000000000E+00 -0.00000000000E+00 -0.41648523055E+01  0.41648553550E+01  0.50400000000E-02 0.  1.
         24    2    1    2    0    0  0.00000000000E+00  0.00000000000E+00  0.34420766365E+03  0.35253737132E+03  0.76181903768E+02 0.  0.
         66    2    3    3    0    0  0.44967240830E+01 -0.22966484631E+02  0.31114460558E+03  0.31202987921E+03  0.19999991510E+01 0.  0.
        -13    1    3    3    0    0 -0.44967240830E+01  0.22966484631E+02  0.33063058071E+02  0.40507492107E+02  0.10566000000E+00 0.  1.
         13    1    4    4    0    0  0.46971110108E+00 -0.34486258733E+01  0.47978691071E+02  0.48104881351E+02  0.10566000000E+00 0. -1.
        -13    1    4    4    0    0  0.41346549243E+01 -0.18440214985E+02  0.25141962941E+03  0.25212889188E+03  0.10566000000E+00 0.  1.
        -14    1    4    4    0    0 -0.10764194238E+00 -0.10776437722E+01  0.11746285095E+02  0.11796105986E+02  0.00000000000E+00 0.  1.
<mgrwt>
<rscale>  0 0.76181904E+02</rscale>
<asrwt>0</asrwt>
<pdfrwt beam="1">  1        2 0.53595774E-01 0.76181904E+02</pdfrwt>
<pdfrwt beam="2">  1       -1 0.64074672E-03 0.76181904E+02</pdfrwt>
<totfact> 0.30567966E+05</totfact>
</mgrwt>
</event>
<event>
 8    1  0.1520917E-013  0.7762115E+02  0.7818608E-02  0.1335941E+00
         -1   -1    0    0    0  501 -0.00000000000E+00  0.00000000000E+00  0.41083755101E+01  0.41083786015E+01  0.50400000000E-02 0.  1.
          2   -1    0    0  501    0  0.00000000000E+00 -0.00000000000E+00 -0.36663152789E+03  0.36663152790E+03  0.25500000000E-02 0. -1.
         24    2    1    2    0    0  0.00000000000E+00  0.00000000000E+00 -0.36252315238E+03  0.37073990650E+03  0.77621145705E+02 0.  0.
         66    2    3    3    0    0 -0.42669709602E+01  0.37555743880E+02 -0.22291449459E+03  0.22610509246E+03  0.19999992541E+01 0.  0.
        -13    1    3    3    0    0  0.42669709602E+01 -0.37555743880E+02 -0.13960865779E+03  0.14463481404E+03  0.10566000000E+00 0.  1.
         13    1    4    4    0    0 -0.27838805272E+01  0.22874291106E+02 -0.13733536125E+03  0.13925514640E+03  0.10566000000E+00 0. -1.
        -13    1    4    4    0    0  0.37003431544E-01  0.42232775766E+01 -0.25910851561E+02  0.26253015739E+02  0.10566000000E+00 0.  1.
        -14    1    4    4    0    0 -0.15200938646E+01  0.10458175197E+02 -0.59668281777E+02  0.60596930319E+02  0.00000000000E+00 0.  1.
<mgrwt>
<rscale>  0 0.77621146E+02</rscale>
<asrwt>0</asrwt>
<pdfrwt beam="1">  1        2 0.56404825E-01 0.77621146E+02</pdfrwt>
<pdfrwt beam="2">  1       -1 0.63205830E-03 0.77621146E+02</pdfrwt>
<totfact> 0.29645207E+05</totfact>
</mgrwt>
</event>
<event>
 8    1  0.1520917E-013  0.7993588E+02  0.7818608E-02  0.1329233E+00
          2   -1    0    0  501    0  0.00000000000E+00  0.00000000000E+00  0.24674311940E+03  0.24674311941E+03  0.25500000000E-02 0. -1.
         -1   -1    0    0    0  501 -0.00000000000E+00 -0.00000000000E+00 -0.64740852435E+01  0.64740872053E+01  0.50400000000E-02 0.  1.
         24    2    1    2    0    0  0.35527136788E-14  0.00000000000E+00  0.24026903416E+03  0.25321720662E+03  0.79935880261E+02 0.  0.
         66    2    3    3    0    0  0.12965485229E+02  0.35421645203E+02  0.16183077685E+03  0.16618061586E+03  0.19999996275E+01 0.  0.
        -13    1    3    3    0    0 -0.12965485229E+02 -0.35421645203E+02  0.78438257310E+02  0.87036590753E+02  0.10566000000E+00 0.  1.
         13    1    4    4    0    0  0.49727559984E+01  0.14192208032E+02  0.64289378405E+02  0.66024862065E+02  0.10566000000E+00 0. -1.
        -13    1    4    4    0    0  0.22746208940E+01  0.72732707743E+01  0.30325347473E+02  0.31268390291E+02  0.10566000000E+00 0.  1.
         14    1    4    4    0    0  0.57181083362E+01  0.13956166396E+02  0.67216050968E+02  0.68887363508E+02  0.00000000000E+00 0. -1.
<mgrwt>
<rscale>  0 0.79935880E+02</rscale>
<asrwt>0</asrwt>
<pdfrwt beam="1">  1        2 0.37960480E-01 0.79935880E+02</pdfrwt>
<pdfrwt beam="2">  1       -1 0.99601327E-03 0.79935880E+02</pdfrwt>
<totfact> 0.23806725E+05</totfact>
</mgrwt>
</event>
<event>
 8    1  0.1520917E-013  0.7791808E+02  0.7818608E-02  0.1335066E+00
          2   -1    0    0  501    0  0.00000000000E+00  0.00000000000E+00  0.55411858549E+02  0.55411858608E+02  0.25500000000E-02 0. -1.
         -1   -1    0    0    0  501 -0.00000000000E+00 -0.00000000000E+00 -0.27391373352E+02  0.27391373816E+02  0.50400000000E-02 0.  1.
         24    2    1    2    0    0  0.00000000000E+00  0.35527136788E-14  0.28020485197E+02  0.82803232424E+02  0.77918083326E+02 0.  0.
         66    2    3    3    0    0 -0.14501291431E+02  0.26465456796E+02  0.40160345482E+02  0.50274856682E+02  0.20000021357E+01 0.  0.
        -13    1    3    3    0    0  0.14501291431E+02 -0.26465456796E+02 -0.12139860285E+02  0.32528375742E+02  0.10566000000E+00 0.  1.
         13    1    4    4    0    0 -0.10952001160E+02  0.20665254647E+02  0.30924456025E+02  0.38772828418E+02  0.10566000000E+00 0. -1.
        -13    1    4    4    0    0 -0.10128079503E+01  0.21036748343E+01  0.37312277135E+01  0.44027777639E+01  0.10566000000E+00 0.  1.
        -14    1    4    4    0    0 -0.25364823213E+01  0.36965273147E+01  0.55046617438E+01  0.70992505004E+01  0.00000000000E+00 0.  1.
<mgrwt>
<rscale>  0 0.77918083E+02</rscale>
<asrwt>0</asrwt>
<pdfrwt beam="1">  1        2 0.85249013E-02 0.77918083E+02</pdfrwt>
<pdfrwt beam="2">  1       -1 0.42140575E-02 0.77918083E+02</pdfrwt>
<totfact> 0.16424874E+05</totfact>
</mgrwt>
</event>
<event>
 8    1  0.1520917E-013  0.7896689E+02  0.7818608E-02  0.1332009E+00
          2   -1    0    0  501    0  0.00000000000E+00  0.00000000000E+00  0.36577421719E+02  0.36577421808E+02  0.25500000000E-02 0. -1.
         -1   -1    0    0    0  501 -0.00000000000E+00 -0.00000000000E+00 -0.42620349052E+02  0.42620349350E+02  0.50400000000E-02 0.  1.
         24    2    1    2    0    0  0.00000000000E+00  0.00000000000E+00 -0.60429273330E+01  0.79197771157E+02  0.78966891705E+02 0.  0.
         66    2    3    3    0    0  0.24554567507E+02 -0.11830132309E+02  0.25591737791E+02  0.37440831405E+02  0.19999993135E+01 0.  0.
        -13    1    3    3    0    0 -0.24554567507E+02  0.11830132309E+02 -0.31634665124E+02  0.41756939752E+02  0.10566000000E+00 0.  1.
         13    1    4    4    0    0  0.54365861489E+01 -0.22151972725E+01  0.57991028196E+01  0.82525344870E+01  0.10566000000E+00 0. -1.
        -13    1    4    4    0    0  0.78906780643E+01 -0.38450155936E+01  0.91165244546E+01  0.12655794222E+02  0.10566000000E+00 0.  1.
         14    1    4    4    0    0  0.11227303294E+02 -0.57699194430E+01  0.10676110516E+02  0.16532502696E+02  0.00000000000E+00 0. -1.
<mgrwt>
<rscale>  0 0.78966892E+02</rscale>
<asrwt>0</asrwt>
<pdfrwt beam="1">  1        2 0.56272957E-02 0.78966892E+02</pdfrwt>
<pdfrwt beam="2">  1       -1 0.65569768E-02 0.78966892E+02</pdfrwt>
<totfact> 0.14511448E+05</totfact>
</mgrwt>
</event>
<event>
 8    1  0.1520917E-013  0.7966898E+02  0.7818608E-02  0.1329993E+00
         -1   -1    0    0    0  501 -0.00000000000E+00  0.00000000000E+00  0.14512300358E+02  0.14512301233E+02  0.50400000000E-02 0.  1.
          2   -1    0    0  501    0  0.00000000000E+00 -0.00000000000E+00 -0.10934080396E+03  0.10934080399E+03  0.25500000000E-02 0. -1.
         24    2    1    2    0    0  0.17763568394E-14  0.00000000000E+00 -0.94828503601E+02  0.12385310522E+03  0.79668981278E+02 0.  0.
         66    2    3    3    0    0  0.96280437645E+01  0.17557166063E+02 -0.10093274500E+03  0.10291925144E+03  0.19999992984E+01 0.  0.
        -13    1    3    3    0    0 -0.96280437645E+01 -0.17557166063E+02  0.61042414006E+01  0.20933853778E+02  0.10566000000E+00 0.  1.
         13    1    4    4    0    0  0.57487725247E+01  0.11542128581E+02 -0.61804203059E+02  0.63135091649E+02  0.10566000000E+00 0. -1.
        -13    1    4    4    0    0  0.24470130077E+01  0.36240909448E+01 -0.22046299516E+02  0.22476040448E+02  0.10566000000E+00 0.  1.
         14    1    4    4    0    0  0.14322582321E+01  0.23909465373E+01 -0.17082242427E+02  0.17308119346E+02  0.00000000000E+00 0. -1.
<mgrwt>
<rscale>  0 0.79668981E+02</rscale>
<asrwt>0</asrwt>
<pdfrwt beam="1">  1        2 0.16821662E-01 0.79668981E+02</pdfrwt>
<pdfrwt beam="2">  1       -1 0.22326617E-02 0.79668981E+02</pdfrwt>
<totfact> 0.18384674E+05</totfact>
</mgrwt>
</event>
<event>
 8    1  0.1520917E-013  0.7877978E+02  0.7818608E-02  0.1332550E+00
         -1   -1    0    0    0  501 -0.00000000000E+00  0.00000000000E+00  0.29011040608E+02  0.29011041046E+02  0.50400000000E-02 0.  1.
          2   -1    0    0  501    0  0.00000000000E+00 -0.00000000000E+00 -0.53481823327E+02  0.53481823388E+02  0.25500000000E-02 0. -1.
         24    2    1    2    0    0  0.00000000000E+00  0.00000000000E+00 -0.24470782719E+02  0.82492864434E+02  0.78779778342E+02 0.  0.
         66    2    3    3    0    0  0.10990417027E+01  0.39182004247E+02 -0.16036285226E+02  0.42398110894E+02  0.20000035081E+01 0.  0.
        -13    1    3    3    0    0 -0.10990417027E+01 -0.39182004247E+02 -0.84344974926E+01  0.40094753540E+02  0.10566000000E+00 0.  1.
         13    1    4    4    0    0  0.17279776112E+00  0.65892610256E+01 -0.30758445467E+01  0.72746273885E+01  0.10566000000E+00 0. -1.
        -13    1    4    4    0    0 -0.32236961810E+00  0.23826686202E+01 -0.84776879351E+00  0.25516480728E+01  0.10566000000E+00 0.  1.
         14    1    4    4    0    0  0.12486135597E+01  0.30210074601E+02 -0.12112671886E+02  0.32571835433E+02  0.00000000000E+00 0. -1.
<mgrwt>
<rscale>  0 0.78779778E+02</rscale>
<asrwt>0</asrwt>
<pdfrwt beam="1">  1        2 0.82279728E-02 0.78779778E+02</pdfrwt>
<pdfrwt beam="2">  1       -1 0.44632371E-02 0.78779778E+02</pdfrwt>
<totfact> 0.15815663E+05</totfact>
</mgrwt>
</event>
<event>
 8    1  0.1520917E-013  0.7948118E+02  0.7818608E-02  0.1330530E+00
          2   -1    0    0  501    0  0.00000000000E+00  0.00000000000E+00  0.16504146358E+03  0.16504146360E+03  0.25500000000E-02 0. -1.
         -1   -1    0    0    0  501 -0.00000000000E+00 -0.00000000000E+00 -0.95691984870E+01  0.95691998142E+01  0.50400000000E-02 0.  1.
         24    2    1    2    0    0 -0.35527136788E-14  0.00000000000E+00  0.15547226510E+03  0.17461066342E+03  0.79481183716E+02 0.  0.
         66    2    3    3    0    0  0.28919360679E+02  0.26743242528E+02  0.88939497173E+02  0.97292161009E+02  0.19999983635E+01 0.  0.
        -13    1    3    3    0    0 -0.28919360679E+02 -0.26743242528E+02  0.66532767924E+02  0.77318502409E+02  0.10566000000E+00 0.  1.
         13    1    4    4    0    0  0.80012227113E+01  0.76189406185E+01  0.24161627755E+02  0.26568086887E+02  0.10566000000E+00 0. -1.
        -13    1    4    4    0    0  0.73051552905E+01  0.69054270519E+01  0.21207819523E+02  0.23469831477E+02  0.10566000000E+00 0.  1.
         14    1    4    4    0    0  0.13612982678E+02  0.12218874858E+02  0.43570049895E+02  0.47254242646E+02  0.00000000000E+00 0. -1.
<mgrwt>
<rscale>  0 0.79481184E+02</rscale>
<asrwt>0</asrwt>
<pdfrwt beam="1">  1        2 0.25390995E-01 0.79481184E+02</pdfrwt>
<pdfrwt beam="2">  1       -1 0.14721845E-02 0.79481184E+02</pdfrwt>
<totfact> 0.21024127E+05</totfact>
</mgrwt>
</event>
<event>
 8    1  0.1520917E-013  0.7832702E+02  0.7818608E-02  0.1333867E+00
          2   -1    0    0  501    0  0.00000000000E+00  0.00000000000E+00  0.11727392200E+02  0.11727392477E+02  0.25500000000E-02 0. -1.
         -1   -1    0    0    0  501 -0.00000000000E+00 -0.00000000000E+00 -0.13078613724E+03  0.13078613734E+03  0.50400000000E-02 0.  1.
         24    2    1    2    0    0  0.35527136788E-14  0.00000000000E+00 -0.11905874504E+03  0.14251352981E+03  0.78327015835E+02 0.  0.
         66    2    3    3    0    0  0.23853159863E+02 -0.27464843687E+02 -0.33296783022E+02  0.49355512620E+02  0.19999980578E+01 0.  0.
        -13    1    3    3    0    0 -0.23853159863E+02  0.27464843687E+02 -0.85761962019E+02  0.93158017194E+02  0.10566000000E+00 0.  1.
         13    1    4    4    0    0  0.41153773376E+01 -0.43785815477E+01 -0.63609585666E+01  0.87510722156E+01  0.10566000000E+00 0.  1.
        -13    1    4    4    0    0  0.11528256193E+02 -0.13769525266E+02 -0.16371402584E+02  0.24300915692E+02  0.10566000000E+00 0. -1.
         14    1    4    4    0    0  0.82095263322E+01 -0.93167368735E+01 -0.10564421871E+02  0.16303524712E+02  0.00000000000E+00 0. -1.
<mgrwt>
<rscale>  0 0.78327016E+02</rscale>
<asrwt>0</asrwt>
<pdfrwt beam="1">  1        2 0.18042143E-02 0.78327016E+02</pdfrwt>
<pdfrwt beam="2">  1       -1 0.20120943E-01 0.78327016E+02</pdfrwt>
<totfact> 0.11767218E+05</totfact>
</mgrwt>
</event>
<event>
 8    1  0.1520917E-013  0.8020139E+02  0.7818608E-02  0.1328481E+00
          2   -1    0    0  501    0  0.00000000000E+00  0.00000000000E+00  0.88288542616E+02  0.88288542653E+02  0.25500000000E-02 0. -1.
         -1   -1    0    0    0  501 -0.00000000000E+00 -0.00000000000E+00 -0.18213753881E+02  0.18213754578E+02  0.50400000000E-02 0.  1.
         24    2    1    2    0    0  0.00000000000E+00 -0.71054273576E-14  0.70074788736E+02  0.10650229723E+03  0.80201392127E+02 0.  0.
         66    2    3    3    0    0 -0.95972625318E+01 -0.36788375736E+02  0.51886160440E+02  0.64355774234E+02  0.19999986645E+01 0.  0.
        -13    1    3    3    0    0  0.95972625318E+01  0.36788375736E+02  0.18188628295E+02  0.42146522996E+02  0.10566000000E+00 0.  1.
         13    1    4    4    0    0 -0.20561861202E+01 -0.87025458034E+01  0.13335548910E+02  0.16056470147E+02  0.10566000000E+00 0.  1.
        -13    1    4    4    0    0 -0.25850883613E+01 -0.87748222814E+01  0.11473572619E+02  0.14674270700E+02  0.10566000000E+00 0. -1.
         14    1    4    4    0    0 -0.49559880503E+01 -0.19311007651E+02  0.27077038911E+02  0.33625033387E+02  0.00000000000E+00 0. -1.
<mgrwt>
<rscale>  0 0.80201392E+02</rscale>
<asrwt>0</asrwt>
<pdfrwt beam="1">  1        2 0.13582853E-01 0.80201392E+02</pdfrwt>
<pdfrwt beam="2">  1       -1 0.28021161E-02 0.80201392E+02</pdfrwt>
<totfact> 0.17016939E+05</totfact>
</mgrwt>
</event>
<event>
 8    1  0.1520917E-013  0.7941807E+02  0.7818608E-02  0.1330711E+00
          2   -1    0    0  501    0  0.00000000000E+00  0.00000000000E+00  0.94580967459E+03  0.94580967459E+03  0.25500000000E-02 0. -1.
         -1   -1    0    0    0  501 -0.00000000000E+00 -0.00000000000E+00 -0.16671470289E+01  0.16671546472E+01  0.50400000000E-02 0.  1.
         24    2    1    2    0    0  0.00000000000E+00  0.35527136788E-14  0.94414252756E+03  0.94747682924E+03  0.79418068464E+02 0.  0.
         66    2    3    3    0    0  0.21056745814E+02  0.22120952267E+02  0.77467363397E+03  0.77527799030E+03  0.20000004726E+01 0.  0.
        -13    1    3    3    0    0 -0.21056745814E+02 -0.22120952267E+02  0.16946889359E+03  0.17219883894E+03  0.10566000000E+00 0.  1.
         13    1    4    4    0    0  0.15679860147E+01  0.14347944742E+01  0.53045263517E+02  0.53087930464E+02  0.10566000000E+00 0. -1.
        -13    1    4    4    0    0  0.16870358787E+02  0.17413836336E+02  0.60082066948E+03  0.60130968622E+03  0.10566000000E+00 0.  1.
        -14    1    4    4    0    0  0.26184010116E+01  0.32723214571E+01  0.12080770098E+03  0.12088037362E+03  0.00000000000E+00 0.  1.
<mgrwt>
<rscale>  0 0.79418068E+02</rscale>
<asrwt>0</asrwt>
<pdfrwt beam="1">  1        2 0.14550911E+00 0.79418068E+02</pdfrwt>
<pdfrwt beam="2">  1       -1 0.25648487E-03 0.79418068E+02</pdfrwt>
<totfact> 0.35783362E+05</totfact>
</mgrwt>
</event>
<event>
 8    1  0.1520917E-013  0.7871156E+02  0.7818608E-02  0.1332748E+00
         -1   -1    0    0    0  501 -0.00000000000E+00  0.00000000000E+00  0.52381810623E+01  0.52381834870E+01  0.50400000000E-02 0.  1.
          2   -1    0    0  501    0  0.00000000000E+00 -0.00000000000E+00 -0.29568984862E+03  0.29568984863E+03  0.25500000000E-02 0. -1.
         24    2    1    2    0    0 -0.88817841970E-15 -0.17763568394E-14 -0.29045166755E+03  0.30092803211E+03  0.78711557774E+02 0.  0.
         66    2    3    3    0    0 -0.41090476144E+01 -0.12399252983E+02 -0.28715069635E+03  0.28745460190E+03  0.19999978315E+01 0.  0.
        -13    1    3    3    0    0  0.41090476144E+01  0.12399252983E+02 -0.33009712032E+01  0.13473430215E+02  0.10566000000E+00 0.  1.
         13    1    4    4    0    0 -0.21146496279E+01 -0.40031742571E+01 -0.96573834801E+02  0.96679955934E+02  0.10566000000E+00 0. -1.
        -13    1    4    4    0    0 -0.35596430966E+00 -0.32290987797E+01 -0.76733881020E+02  0.76802691684E+02  0.10566000000E+00 0.  1.
         14    1    4    4    0    0 -0.16384336769E+01 -0.51669799467E+01 -0.11384298053E+03  0.11397195428E+03  0.00000000000E+00 0. -1.
<mgrwt>
<rscale>  0 0.78711558E+02</rscale>
<asrwt>0</asrwt>
<pdfrwt beam="1">  1        2 0.45490733E-01 0.78711558E+02</pdfrwt>
<pdfrwt beam="2">  1       -1 0.80587443E-03 0.78711558E+02</pdfrwt>
<totfact> 0.26463459E+05</totfact>
</mgrwt>
</event>
<event>
 8    1  0.1520917E-013  0.8861492E+02  0.7818608E-02  0.1306241E+00
         -1   -1    0    0    0  501 -0.00000000000E+00  0.00000000000E+00  0.22231514638E+02  0.22231515209E+02  0.50400000000E-02 0.  1.
          2   -1    0    0  501    0  0.00000000000E+00 -0.00000000000E+00 -0.88304869284E+02  0.88304869320E+02  0.25500000000E-02 0. -1.
         24    2    1    2    0    0 -0.71054273576E-14  0.00000000000E+00 -0.66073354646E+02  0.11053638453E+03  0.88614920362E+02 0.  0.
         66    2    3    3    0    0 -0.35837657527E+02  0.98404935702E+01 -0.63093620789E+02  0.73252836031E+02  0.19999979202E+01 0.  0.
        -13    1    3    3    0    0  0.35837657527E+02 -0.98404935702E+01 -0.29797338571E+01  0.37283548498E+02  0.10566000000E+00 0.  1.
         13    1    4    4    0    0 -0.13246023582E+02  0.40337799092E+01 -0.22057355928E+02  0.26043552670E+02  0.10566000000E+00 0. -1.
        -13    1    4    4    0    0 -0.22347739575E+02  0.57847176054E+01 -0.40732053341E+02  0.46818754312E+02  0.10566000000E+00 0.  1.
        -14    1    4    4    0    0 -0.24389436940E+00  0.21996055588E-01 -0.30421151928E+00  0.39052904930E+00  0.00000000000E+00 0.  1.
<mgrwt>
<rscale>  0 0.88614920E+02</rscale>
<asrwt>0</asrwt>
<pdfrwt beam="1">  1        2 0.13585364E-01 0.88614920E+02</pdfrwt>
<pdfrwt beam="2">  1       -1 0.34202331E-02 0.88614920E+02</pdfrwt>
<totfact> 0.12992162E+05</totfact>
</mgrwt>
</event>
<event>
 8    1  0.1520917E-013  0.8020958E+02  0.7818608E-02  0.1328458E+00
         -1   -1    0    0    0  501 -0.00000000000E+00  0.00000000000E+00  0.18534259859E+02  0.18534260544E+02  0.50400000000E-02 0.  1.
          2   -1    0    0  501    0  0.00000000000E+00 -0.00000000000E+00 -0.86779521623E+02  0.86779521661E+02  0.25500000000E-02 0. -1.
         24    2    1    2    0    0  0.55511151231E-16  0.35527136788E-14 -0.68245261765E+02  0.10531378220E+03  0.80209581529E+02 0.  0.
         66    2    3    3    0    0  0.27946133045E+00 -0.23762204753E+02 -0.76520160588E+02  0.80150205592E+02  0.20000016771E+01 0.  0.
        -13    1    3    3    0    0 -0.27946133045E+00  0.23762204753E+02  0.82748988234E+01  0.25163576613E+02  0.10566000000E+00 0.  1.
         13    1    4    4    0    0  0.14140863960E+00 -0.10264505421E+02 -0.32068995692E+02  0.33672120763E+02  0.10566000000E+00 0. -1.
        -13    1    4    4    0    0 -0.54962436789E+00 -0.76983763617E+01 -0.24135917862E+02  0.25340102222E+02  0.10566000000E+00 0.  1.
        -14    1    4    4    0    0  0.68767705874E+00 -0.57993229704E+01 -0.20315247033E+02  0.21137982607E+02  0.00000000000E+00 0.  1.
<mgrwt>
<rscale>  0 0.80209582E+02</rscale>
<asrwt>0</asrwt>
<pdfrwt beam="1">  1        2 0.13350695E-01 0.80209582E+02</pdfrwt>
<pdfrwt beam="2">  1       -1 0.28514247E-02 0.80209582E+02</pdfrwt>
<totfact> 0.16934347E+05</totfact>
</mgrwt>
</event>
<event>
 8    1  0.1520917E-013  0.7118283E+02  0.7818608E-02  0.1356116E+00
          2   -1    0    0  501    0  0.00000000000E+00  0.00000000000E+00  0.54105579704E+02  0.54105579764E+02  0.25500000000E-02 0. -1.
         -1   -1    0    0    0  501 -0.00000000000E+00 -0.00000000000E+00 -0.23412535319E+02  0.23412535862E+02  0.50400000000E-02 0.  1.
         24    2    1    2    0    0  0.00000000000E+00  0.17763568394E-14  0.30693044385E+02  0.77518115626E+02  0.71182829929E+02 0.  0.
         66    2    3    3    0    0 -0.32264185281E+02 -0.86966256184E+01  0.28612906621E+02  0.44037567750E+02  0.19999997640E+01 0.  0.
        -13    1    3    3    0    0  0.32264185281E+02  0.86966256184E+01  0.20801377642E+01  0.33480547877E+02  0.10566000000E+00 0.  1.
         13    1    4    4    0    0 -0.11801515544E+02 -0.31684207542E+01  0.10023945452E+02  0.15805230326E+02  0.10566000000E+00 0. -1.
        -13    1    4    4    0    0 -0.13347335180E+01 -0.33899008612E+00  0.77448721739E+00  0.15834842367E+01  0.10566000000E+00 0.  1.
         14    1    4    4    0    0 -0.19127936219E+02 -0.51892147780E+01  0.17814473951E+02  0.26648853187E+02  0.00000000000E+00 0. -1.
<mgrwt>
<rscale>  0 0.71182830E+02</rscale>
<asrwt>0</asrwt>
<pdfrwt beam="1">  1        2 0.83239353E-02 0.71182830E+02</pdfrwt>
<pdfrwt beam="2">  1       -1 0.36019286E-02 0.71182830E+02</pdfrwt>
<totfact> 0.20855646E+05</totfact>
</mgrwt>
</event>
<event>
 8    1  0.1520917E-013  0.8045316E+02  0.7818608E-02  0.1327770E+00
         -1   -1    0    0    0  501 -0.00000000000E+00  0.00000000000E+00  0.92911246413E+01  0.92911260083E+01  0.50400000000E-02 0.  1.
          2   -1    0    0  501    0  0.00000000000E+00 -0.00000000000E+00 -0.17416379272E+03  0.17416379274E+03  0.25500000000E-02 0. -1.
         24    2    1    2    0    0 -0.17763568394E-14 -0.35527136788E-14 -0.16487266808E+03  0.18345491875E+03  0.80453157385E+02 0.  0.
         66    2    3    3    0    0  0.12702618115E+02  0.25690114489E+02 -0.14677433925E+03  0.14955950372E+03  0.20000004613E+01 0.  0.
        -13    1    3    3    0    0 -0.12702618115E+02 -0.25690114489E+02 -0.18098328834E+02  0.33895415030E+02  0.10566000000E+00 0.  1.
         13    1    4    4    0    0  0.24429785996E+01  0.38650696499E+01 -0.21612788668E+02  0.22091417019E+02  0.10566000000E+00 0. -1.
        -13    1    4    4    0    0  0.25923812925E+01  0.46225565784E+01 -0.28516172899E+02  0.29004684982E+02  0.10566000000E+00 0.  1.
         14    1    4    4    0    0  0.76672582234E+01  0.17202488261E+02 -0.96645377683E+02  0.98463401721E+02  0.00000000000E+00 0. -1.
<mgrwt>
<rscale>  0 0.80453157E+02</rscale>
<asrwt>0</asrwt>
<pdfrwt beam="1">  1        2 0.26794427E-01 0.80453157E+02</pdfrwt>
<pdfrwt beam="2">  1       -1 0.14294040E-02 0.80453157E+02</pdfrwt>
<totfact> 0.20726809E+05</totfact>
</mgrwt>
</event>
<event>
 8    1  0.1520917E-013  0.7716162E+02  0.7818608E-02  0.1337305E+00
          2   -1    0    0  501    0  0.00000000000E+00  0.00000000000E+00  0.23138925225E+02  0.23138925366E+02  0.25500000000E-02 0. -1.
         -1   -1    0    0    0  501 -0.00000000000E+00 -0.00000000000E+00 -0.64327916423E+02  0.64327916620E+02  0.50400000000E-02 0.  1.
         24    2    1    2    0    0  0.35527136788E-14  0.00000000000E+00 -0.41188991197E+02  0.87466841986E+02  0.77161619029E+02 0.  0.
         66    2    3    3    0    0 -0.18521240286E+02  0.32860173659E+02 -0.11564935288E+02  0.39504114716E+02  0.19999991564E+01 0.  0.
        -13    1    3    3    0    0  0.18521240286E+02 -0.32860173659E+02 -0.29624055909E+02  0.47962727270E+02  0.10566000000E+00 0.  1.
         13    1    4    4    0    0 -0.46159164022E+01  0.75388365811E+01 -0.31273360975E+01  0.93772136763E+01  0.10566000000E+00 0. -1.
        -13    1    4    4    0    0 -0.51102395773E+01  0.10693962097E+02 -0.35541941532E+01  0.12374119524E+02  0.10566000000E+00 0.  1.
        -14    1    4    4    0    0 -0.87950843066E+01  0.14627374981E+02 -0.48834050373E+01  0.17752781516E+02  0.00000000000E+00 0.  1.
<mgrwt>
<rscale>  0 0.77161619E+02</rscale>
<asrwt>0</asrwt>
<pdfrwt beam="1">  1        2 0.35598347E-02 0.77161619E+02</pdfrwt>
<pdfrwt beam="2">  1       -1 0.98966025E-02 0.77161619E+02</pdfrwt>
<totfact> 0.14161975E+05</totfact>
</mgrwt>
</event>
<event>
 8    1  0.1520917E-013  0.7931706E+02  0.7818608E-02  0.1331001E+00
         -1   -1    0    0    0  501 -0.00000000000E+00  0.00000000000E+00  0.88817427773E+01  0.88817442073E+01  0.50400000000E-02 0.  1.
          2   -1    0    0  501    0  0.00000000000E+00 -0.00000000000E+00 -0.17708222481E+03  0.17708222483E+03  0.25500000000E-02 0. -1.
         24    2    1    2    0    0  0.00000000000E+00  0.00000000000E+00 -0.16820048204E+03  0.18596396904E+03  0.79317057583E+02 0.  0.
         66    2    3    3    0    0  0.15531772757E+02 -0.35950176457E+01 -0.16922714534E+03  0.16998819618E+03  0.20000014835E+01 0.  0.
        -13    1    3    3    0    0 -0.15531772757E+02  0.35950176457E+01  0.10266632988E+01  0.15975772858E+02  0.10566000000E+00 0.  1.
         13    1    4    4    0    0  0.12549135235E+02 -0.33081646373E+01 -0.14134254446E+03  0.14193713674E+03  0.10566000000E+00 0. -1.
        -13    1    4    4    0    0  0.17719499030E+00 -0.11794499827E+00 -0.18522235514E+01  0.18674060103E+01  0.10566000000E+00 0. -1.
         14    1    4    4    0    0  0.28054425311E+01 -0.16890801008E+00 -0.26032377324E+02  0.26183653428E+02  0.00000000000E+00 0. -1.
<mgrwt>
<rscale>  0 0.79317058E+02</rscale>
<asrwt>0</asrwt>
<pdfrwt beam="1">  1        2 0.27243417E-01 0.79317058E+02</pdfrwt>
<pdfrwt beam="2">  1       -1 0.13664222E-02 0.79317058E+02</pdfrwt>
<totfact> 0.21641878E+05</totfact>
</mgrwt>
</event>
<event>
 8    1  0.1520917E-013  0.8163147E+02  0.7818608E-02  0.1324484E+00
         -1   -1    0    0    0  501 -0.00000000000E+00  0.00000000000E+00  0.27432076822E+02  0.27432077285E+02  0.50400000000E-02 0.  1.
          2   -1    0    0  501    0  0.00000000000E+00 -0.00000000000E+00 -0.60729057250E+02  0.60729057303E+02  0.25500000000E-02 0. -1.
         24    2    1    2    0    0 -0.22204460493E-15  0.00000000000E+00 -0.33296980428E+02  0.88161134589E+02  0.81631469094E+02 0.  0.
         66    2    3    3    0    0  0.14201807760E+01  0.22003777529E+02 -0.53721709794E+02  0.58105122333E+02  0.19999997797E+01 0.  0.
        -13    1    3    3    0    0 -0.14201807760E+01 -0.22003777529E+02  0.20424729367E+02  0.30056012256E+02  0.10566000000E+00 0.  1.
         13    1    4    4    0    0  0.11722803126E+01  0.11349564176E+02 -0.26302140371E+02  0.28670552842E+02  0.10566000000E+00 0. -1.
        -13    1    4    4    0    0  0.61791659241E+00  0.77071252921E+01 -0.19939196041E+02  0.21386077340E+02  0.10566000000E+00 0.  1.
        -14    1    4    4    0    0 -0.37001612902E+00  0.29470880610E+01 -0.74803733819E+01  0.80484921512E+01  0.00000000000E+00 0.  1.
<mgrwt>
<rscale>  0 0.81631469E+02</rscale>
<asrwt>0</asrwt>
<pdfrwt beam="1">  1        2 0.93429318E-02 0.81631469E+02</pdfrwt>
<pdfrwt beam="2">  1       -1 0.42203196E-02 0.81631469E+02</pdfrwt>
<totfact> 0.14774739E+05</totfact>
</mgrwt>
</event>
<event>
 8    1  0.1520917E-013  0.7991658E+02  0.7818608E-02  0.1329288E+00
         -1   -1    0    0    0  501 -0.00000000000E+00  0.00000000000E+00  0.35929233965E+01  0.35929269315E+01  0.50400000000E-02 0.  1.
          2   -1    0    0  501    0  0.00000000000E+00 -0.00000000000E+00 -0.44439136803E+03  0.44439136804E+03  0.25500000000E-02 0. -1.
         24    2    1    2    0    0  0.00000000000E+00 -0.44408920985E-15 -0.44079844464E+03  0.44798429497E+03  0.79916579928E+02 0.  0.
         66    2    3    3    0    0 -0.19701516439E+02 -0.28200713277E+01 -0.41460549671E+03  0.41508772620E+03  0.19999953194E+01 0.  0.
        -13    1    3    3    0    0  0.19701516439E+02  0.28200713277E+01 -0.26192947923E+02  0.32896568776E+02  0.10566000000E+00 0.  1.
         13    1    4    4    0    0 -0.90780597315E+01 -0.20168954701E+01 -0.18563500356E+03  0.18586781525E+03  0.10566000000E+00 0. -1.
        -13    1    4    4    0    0 -0.79053459357E+01 -0.85965803858E+00 -0.17637395740E+03  0.17655315777E+03  0.10566000000E+00 0.  1.
         14    1    4    4    0    0 -0.27181107718E+01  0.56482180976E-01 -0.52596535757E+02  0.52666753176E+02  0.00000000000E+00 0. -1.
<mgrwt>
<rscale>  0 0.79916580E+02</rscale>
<asrwt>0</asrwt>
<pdfrwt beam="1">  1        2 0.68367859E-01 0.79916580E+02</pdfrwt>
<pdfrwt beam="2">  1       -1 0.55275807E-03 0.79916580E+02</pdfrwt>
<totfact> 0.29374445E+05</totfact>
</mgrwt>
</event>
<event>
 8    1  0.1520917E-013  0.7987840E+02  0.7818608E-02  0.1329397E+00
         -1   -1    0    0    0  501 -0.00000000000E+00  0.00000000000E+00  0.40661488565E+02  0.40661488877E+02  0.50400000000E-02 0.  1.
          2   -1    0    0  501    0  0.00000000000E+00 -0.00000000000E+00 -0.39229742728E+02  0.39229742811E+02  0.25500000000E-02 0. -1.
         24    2    1    2    0    0  0.00000000000E+00  0.00000000000E+00  0.14317458370E+01  0.79891231688E+02  0.79878401364E+02 0.  0.
         66    2    3    3    0    0 -0.82578389536E+01  0.35508942086E+02 -0.15536148842E+02  0.39679324419E+02  0.19999983202E+01 0.  0.
        -13    1    3    3    0    0  0.82578389536E+01 -0.35508942086E+02  0.16967894679E+02  0.40211907268E+02  0.10566000000E+00 0.  1.
         13    1    4    4    0    0 -0.21136419800E+01  0.83888730073E+01 -0.40286607778E+01  0.95436861040E+01  0.10566000000E+00 0. -1.
        -13    1    4    4    0    0 -0.34545556869E+01  0.18567668283E+02 -0.77759249047E+01  0.20424701531E+02  0.10566000000E+00 0.  1.
        -14    1    4    4    0    0 -0.26896412867E+01  0.85524007961E+01 -0.37315631593E+01  0.97109367849E+01  0.00000000000E+00 0.  1.
<mgrwt>
<rscale>  0 0.79878401E+02</rscale>
<asrwt>0</asrwt>
<pdfrwt beam="1">  1        2 0.60353450E-02 0.79878401E+02</pdfrwt>
<pdfrwt beam="2">  1       -1 0.62556137E-02 0.79878401E+02</pdfrwt>
<totfact> 0.14258367E+05</totfact>
</mgrwt>
</event>
<event>
 8    1  0.1520917E-013  0.8028322E+02  0.7818608E-02  0.1328250E+00
          2   -1    0    0  501    0  0.00000000000E+00  0.00000000000E+00  0.46011518302E+03  0.46011518302E+03  0.25500000000E-02 0. -1.
         -1   -1    0    0    0  501 -0.00000000000E+00 -0.00000000000E+00 -0.35020535807E+01  0.35020572073E+01  0.50400000000E-02 0.  1.
         24    2    1    2    0    0  0.00000000000E+00  0.35527136788E-14  0.45661312944E+03  0.46361724023E+03  0.80283220328E+02 0.  0.
         66    2    3    3    0    0 -0.20556141958E+02 -0.17878939223E+02  0.39849820002E+03  0.39943338226E+03  0.19999996554E+01 0.  0.
        -13    1    3    3    0    0  0.20556141958E+02  0.17878939223E+02  0.58114929414E+02  0.64183857976E+02  0.10566000000E+00 0.  1.
         13    1    4    4    0    0 -0.40475279170E+01 -0.38332216904E+01  0.89875617678E+02  0.90048397475E+02  0.10566000000E+00 0. -1.
        -13    1    4    4    0    0 -0.18406161126E+01 -0.12054862621E+01  0.28668963128E+02  0.28753463716E+02  0.10566000000E+00 0.  1.
         14    1    4    4    0    0 -0.14667997928E+02 -0.12840231271E+02  0.27995361922E+03  0.28063152107E+03  0.00000000000E+00 0. -1.
<mgrwt>
<rscale>  0 0.80283220E+02</rscale>
<asrwt>0</asrwt>
<pdfrwt beam="1">  1        2 0.70786955E-01 0.80283220E+02</pdfrwt>
<pdfrwt beam="2">  1       -1 0.53877773E-03 0.80283220E+02</pdfrwt>
<totfact> 0.29365771E+05</totfact>
</mgrwt>
</event>
<event>
 8    1  0.1520917E-013  0.7775847E+02  0.7818608E-02  0.1335536E+00
         -1   -1    0    0    0  501 -0.00000000000E+00  0.00000000000E+00  0.10278550361E+03  0.10278550374E+03  0.50400000000E-02 0.  1.
          2   -1    0    0  501    0  0.00000000000E+00 -0.00000000000E+00 -0.14706303234E+02  0.14706303455E+02  0.25500000000E-02 0. -1.
         24    2    1    2    0    0 -0.35527136788E-14  0.00000000000E+00  0.88079200379E+02  0.11749180719E+03  0.77758467178E+02 0.  0.
         66    2    3    3    0    0 -0.20749374216E+02 -0.19018818387E+02  0.35997182116E+01  0.28446616112E+02  0.20000034564E+01 0.  0.
        -13    1    3    3    0    0  0.20749374216E+02  0.19018818387E+02  0.84479482167E+02  0.89045191080E+02  0.10566000000E+00 0.  1.
         13    1    4    4    0    0 -0.41586462852E+01 -0.45544679494E+01  0.84515939038E+00  0.62259919417E+01  0.10566000000E+00 0. -1.
        -13    1    4    4    0    0 -0.10513164038E+02 -0.95210998702E+01  0.23378497447E+01  0.14375488385E+02  0.10566000000E+00 0.  1.
        -14    1    4    4    0    0 -0.60775638924E+01 -0.49432505678E+01  0.41670907654E+00  0.78451357857E+01  0.00000000000E+00 0.  1.
<mgrwt>
<rscale>  0 0.77758467E+02</rscale>
<asrwt>0</asrwt>
<pdfrwt beam="1">  1        2 0.22625082E-02 0.77758467E+02</pdfrwt>
<pdfrwt beam="2">  1       -1 0.15813154E-01 0.77758467E+02</pdfrwt>
<totfact> 0.12649104E+05</totfact>
</mgrwt>
</event>
<event>
 8    1  0.1520917E-013  0.8043003E+02  0.7818608E-02  0.1327835E+00
          2   -1    0    0  501    0  0.00000000000E+00  0.00000000000E+00  0.39637758309E+02  0.39637758391E+02  0.25500000000E-02 0. -1.
         -1   -1    0    0    0  501 -0.00000000000E+00 -0.00000000000E+00 -0.40800681238E+02  0.40800681549E+02  0.50400000000E-02 0.  1.
         24    2    1    2    0    0  0.00000000000E+00  0.00000000000E+00 -0.11629229281E+01  0.80438439940E+02  0.80430033136E+02 0.  0.
         66    2    3    3    0    0 -0.94433946641E+01 -0.37264620494E+02  0.11141732091E+02  0.40074528553E+02  0.20000003555E+01 0.  0.
        -13    1    3    3    0    0  0.94433946641E+01  0.37264620494E+02 -0.12304655019E+02  0.40363911387E+02  0.10566000000E+00 0.  1.
         13    1    4    4    0    0 -0.46811376696E+01 -0.18444237987E+02  0.60545032148E+01  0.19969254819E+02  0.10566000000E+00 0.  1.
        -13    1    4    4    0    0 -0.23645083295E+01 -0.71847373996E+01  0.22295915300E+01  0.78862914965E+01  0.10566000000E+00 0. -1.
        -14    1    4    4    0    0 -0.23977486651E+01 -0.11635645107E+02  0.28576373458E+01  0.12218982238E+02  0.00000000000E+00 0.  1.
<mgrwt>
<rscale>  0 0.80430033E+02</rscale>
<asrwt>0</asrwt>
<pdfrwt beam="1">  1        2 0.60981167E-02 0.80430033E+02</pdfrwt>
<pdfrwt beam="2">  1       -1 0.62770279E-02 0.80430033E+02</pdfrwt>
<totfact> 0.14019134E+05</totfact>
</mgrwt>
</event>
<event>
 8    1  0.1520917E-013  0.7684066E+02  0.7818608E-02  0.1338264E+00
          2   -1    0    0  501    0  0.00000000000E+00  0.00000000000E+00  0.69115781602E+02  0.69115781649E+02  0.25500000000E-02 0. -1.
         -1   -1    0    0    0  501 -0.00000000000E+00 -0.00000000000E+00 -0.21357228825E+02  0.21357229420E+02  0.50400000000E-02 0.  1.
         24    2    1    2    0    0  0.00000000000E+00  0.00000000000E+00  0.47758552777E+02  0.90473011069E+02  0.76840655701E+02 0.  0.
         66    2    3    3    0    0  0.22955201875E+02 -0.92306171248E+01  0.58463414505E+02  0.63514694834E+02  0.20000096432E+01 0.  0.
        -13    1    3    3    0    0 -0.22955201875E+02  0.92306171248E+01 -0.10704861728E+02  0.26958316236E+02  0.10566000000E+00 0.  1.
         13    1    4    4    0    0  0.11221398068E+02 -0.42103450686E+01  0.26322687949E+02  0.28923033124E+02  0.10566000000E+00 0. -1.
        -13    1    4    4    0    0  0.38011885122E+01 -0.13622549884E+01  0.10934213731E+02  0.11656456010E+02  0.10566000000E+00 0.  1.
         14    1    4    4    0    0  0.79326152945E+01 -0.36580170678E+01  0.21206512826E+02  0.22935205700E+02  0.00000000000E+00 0. -1.
<mgrwt>
<rscale>  0 0.76840656E+02</rscale>
<asrwt>0</asrwt>
<pdfrwt beam="1">  1        2 0.10633197E-01 0.76840656E+02</pdfrwt>
<pdfrwt beam="2">  1       -1 0.32857275E-02 0.76840656E+02</pdfrwt>
<totfact> 0.17947195E+05</totfact>
</mgrwt>
</event>
<event>
 8    1  0.1520917E-013  0.8004544E+02  0.7818608E-02  0.1328923E+00
         -1   -1    0    0    0  501 -0.00000000000E+00  0.00000000000E+00  0.14376366221E+01  0.14376454565E+01  0.50400000000E-02 0.  1.
          2   -1    0    0  501    0  0.00000000000E+00 -0.00000000000E+00 -0.11141990505E+04  0.11141990505E+04  0.25500000000E-02 0. -1.
         24    2    1    2    0    0  0.35527136788E-14  0.88817841970E-15 -0.11127614139E+04  0.11156366960E+04  0.80045444316E+02 0.  0.
         66    2    3    3    0    0  0.16720014549E+02  0.78552573919E+01 -0.10511758496E+04  0.10513400643E+04  0.20000004361E+01 0.  0.
        -13    1    3    3    0    0 -0.16720014549E+02 -0.78552573919E+01 -0.61585564294E+02  0.64296631706E+02  0.10566000000E+00 0.  1.
         13    1    4    4    0    0  0.59377417302E+01  0.21460733802E+01 -0.39234113306E+03  0.39239194470E+03  0.10566000000E+00 0. -1.
        -13    1    4    4    0    0  0.10810683926E+01  0.75244227727E+00 -0.79534123259E+02  0.79545099188E+02  0.10566000000E+00 0.  1.
        -14    1    4    4    0    0  0.97012044266E+01  0.49567417344E+01 -0.57930059327E+03  0.57940302037E+03  0.00000000000E+00 0.  1.
<mgrwt>
<rscale>  0 0.80045444E+02</rscale>
<asrwt>0</asrwt>
<pdfrwt beam="1">  1        2 0.17141455E+00 0.80045444E+02</pdfrwt>
<pdfrwt beam="2">  1       -1 0.22117644E-03 0.80045444E+02</pdfrwt>
<totfact> 0.35183262E+05</totfact>
</mgrwt>
</event>
<event>
 8    1  0.1520917E-013  0.7910619E+02  0.7818608E-02  0.1331607E+00
          2   -1    0    0  501    0  0.00000000000E+00  0.00000000000E+00  0.16814200493E+03  0.16814200495E+03  0.25500000000E-02 0. -1.
         -1   -1    0    0    0  501 -0.00000000000E+00 -0.00000000000E+00 -0.93043213812E+01  0.93043227462E+01  0.50400000000E-02 0.  1.
         24    2    1    2    0    0  0.00000000000E+00  0.00000000000E+00  0.15883768354E+03  0.17744632769E+03  0.79106191270E+02 0.  0.
         66    2    3    3    0    0 -0.39130412618E+02 -0.23840221269E+01  0.90812235227E+02  0.98932981463E+02  0.20000002634E+01 0.  0.
        -13    1    3    3    0    0  0.39130412618E+02  0.23840221269E+01  0.68025448318E+02  0.78513346229E+02  0.10566000000E+00 0.  1.
         13    1    4    4    0    0 -0.24220197037E+02 -0.17220697275E+01  0.57943365650E+02  0.62825379072E+02  0.10566000000E+00 0. -1.
        -13    1    4    4    0    0 -0.52769475450E+01 -0.26104329689E-01  0.12378146696E+02  0.13456468203E+02  0.10566000000E+00 0. -1.
         14    1    4    4    0    0 -0.96332680359E+01 -0.63584806969E+00  0.20490722881E+02  0.22651134188E+02  0.00000000000E+00 0. -1.
<mgrwt>
<rscale>  0 0.79106191E+02</rscale>
<asrwt>0</asrwt>
<pdfrwt beam="1">  1        2 0.25867999E-01 0.79106191E+02</pdfrwt>
<pdfrwt beam="2">  1       -1 0.14314342E-02 0.79106191E+02</pdfrwt>
<totfact> 0.21420484E+05</totfact>
</mgrwt>
</event>
<event>
 8    1  0.1520917E-013  0.7828805E+02  0.7818608E-02  0.1333981E+00
         -1   -1    0    0    0  501 -0.00000000000E+00  0.00000000000E+00  0.24204388785E+02  0.24204389310E+02  0.50400000000E-02 0.  1.
          2   -1    0    0  501    0  0.00000000000E+00 -0.00000000000E+00 -0.63304827424E+02  0.63304827476E+02  0.25500000000E-02 0. -1.
         24    2    1    2    0    0  0.17763568394E-14 -0.35527136788E-14 -0.39100438639E+02  0.87509216785E+02  0.78288049667E+02 0.  0.
         66    2    3    3    0    0 -0.11415114897E+02  0.31234285596E+02 -0.42589433024E+02  0.54071667673E+02  0.19999987099E+01 0.  0.
        -13    1    3    3    0    0  0.11415114897E+02 -0.31234285596E+02  0.34889943847E+01  0.33437549112E+02  0.10566000000E+00 0.  1.
         13    1    4    4    0    0 -0.66081559632E+01  0.17315915891E+02 -0.22942707989E+02  0.29493858382E+02  0.10566000000E+00 0. -1.
        -13    1    4    4    0    0 -0.23185241779E+01  0.83832318156E+01 -0.11579101824E+02  0.14482433951E+02  0.10566000000E+00 0.  1.
         14    1    4    4    0    0 -0.24884347562E+01  0.55351378897E+01 -0.80676232107E+01  0.10095375340E+02  0.00000000000E+00 0. -1.
<mgrwt>
<rscale>  0 0.78288050E+02</rscale>
<asrwt>0</asrwt>
<pdfrwt beam="1">  1        2 0.97392042E-02 0.78288050E+02</pdfrwt>
<pdfrwt beam="2">  1       -1 0.37237522E-02 0.78288050E+02</pdfrwt>
<totfact> 0.16714277E+05</totfact>
</mgrwt>
</event>
<event>
 8    1  0.1520917E-013  0.7930947E+02  0.7818608E-02  0.1331023E+00
          2   -1    0    0  501    0  0.00000000000E+00  0.00000000000E+00  0.19969048850E+03  0.19969048852E+03  0.25500000000E-02 0. -1.
         -1   -1    0    0    0  501 -0.00000000000E+00 -0.00000000000E+00 -0.78746758244E+01  0.78746774373E+01  0.50400000000E-02 0.  1.
         24    2    1    2    0    0  0.17763568394E-14 -0.35527136788E-14  0.19181581267E+03  0.20756516595E+03  0.79309470588E+02 0.  0.
         66    2    3    3    0    0 -0.78575662715E+01  0.26202463493E+02  0.17101231155E+03  0.17319792481E+03  0.20000037485E+01 0.  0.
        -13    1    3    3    0    0  0.78575662715E+01 -0.26202463493E+02  0.20803501122E+02  0.34367241143E+02  0.10566000000E+00 0.  1.
         13    1    4    4    0    0 -0.18888564709E+01  0.47029009965E+01  0.30882054087E+02  0.31295326891E+02  0.10566000000E+00 0. -1.
        -13    1    4    4    0    0 -0.19415965216E+01  0.57192134663E+01  0.41304536228E+02  0.41743922633E+02  0.10566000000E+00 0.  1.
         14    1    4    4    0    0 -0.40271132790E+01  0.15780349030E+02  0.98825721238E+02  0.10015867529E+03  0.00000000000E+00 0. -1.
<mgrwt>
<rscale>  0 0.79309471E+02</rscale>
<asrwt>0</asrwt>
<pdfrwt beam="1">  1        2 0.30721612E-01 0.79309471E+02</pdfrwt>
<pdfrwt beam="2">  1       -1 0.12114888E-02 0.79309471E+02</pdfrwt>
<totfact> 0.22556610E+05</totfact>
</mgrwt>
</event>
<event>
 8    1  0.1520917E-013  0.8053533E+02  0.7818608E-02  0.1327539E+00
          2   -1    0    0  501    0  0.00000000000E+00  0.00000000000E+00  0.98054933490E+03  0.98054933490E+03  0.25500000000E-02 0. -1.
         -1   -1    0    0    0  501 -0.00000000000E+00 -0.00000000000E+00 -0.16536454932E+01  0.16536531737E+01  0.50400000000E-02 0.  1.
         24    2    1    2    0    0  0.00000000000E+00  0.00000000000E+00  0.97889568940E+03  0.98220298807E+03  0.80535327951E+02 0.  0.
         66    2    3    3    0    0 -0.19165427024E+02 -0.25507146438E+02  0.78887287629E+03  0.78952032466E+03  0.19999983745E+01 0.  0.
        -13    1    3    3    0    0  0.19165427024E+02  0.25507146438E+02  0.19002281311E+03  0.19268266341E+03  0.10566000000E+00 0.  1.
         13    1    4    4    0    0 -0.11731152505E+02 -0.16489284606E+02  0.50098555145E+03  0.50139410683E+03  0.10566000000E+00 0. -1.
        -13    1    4    4    0    0 -0.60396657888E+01 -0.66956935784E+01  0.21817949632E+03  0.21836577949E+03  0.10566000000E+00 0.  1.
         14    1    4    4    0    0 -0.13946087305E+01 -0.23221682537E+01  0.69707828527E+02  0.69760438336E+02  0.00000000000E+00 0. -1.
<mgrwt>
<rscale>  0 0.80535328E+02</rscale>
<asrwt>0</asrwt>
<pdfrwt beam="1">  1        2 0.15085392E+00 0.80535328E+02</pdfrwt>
<pdfrwt beam="2">  1       -1 0.25440730E-03 0.80535328E+02</pdfrwt>
<totfact> 0.34593069E+05</totfact>
</mgrwt>
</event>
<event>
 8    1  0.1520917E-013  0.8010257E+02  0.7818608E-02  0.1328761E+00
         -1   -1    0    0    0  501 -0.00000000000E+00  0.00000000000E+00  0.10542919146E+02  0.10542920351E+02  0.50400000000E-02 0.  1.
          2   -1    0    0  501    0  0.00000000000E+00 -0.00000000000E+00 -0.15215003538E+03  0.15215003540E+03  0.25500000000E-02 0. -1.
         24    2    1    2    0    0 -0.35527136788E-14  0.00000000000E+00 -0.14160711624E+03  0.16269295575E+03  0.80102574761E+02 0.  0.
         66    2    3    3    0    0  0.17395826324E+02  0.16757066078E+02 -0.13567258119E+03  0.13782040246E+03  0.20000025144E+01 0.  0.
        -13    1    3    3    0    0 -0.17395826324E+02 -0.16757066078E+02 -0.59345350415E+01  0.24872553291E+02  0.10566000000E+00 0.  1.
         13    1    4    4    0    0  0.72744161469E+01  0.63972442968E+01 -0.56995176694E+02  0.57812656013E+02  0.10566000000E+00 0. -1.
        -13    1    4    4    0    0  0.96032086800E+01  0.97207175812E+01 -0.72587350093E+02  0.73862362031E+02  0.10566000000E+00 0.  1.
         14    1    4    4    0    0  0.51820149743E+00  0.63910419963E+00 -0.60900544066E+01  0.61453844180E+01  0.00000000000E+00 0. -1.
<mgrwt>
<rscale>  0 0.80102575E+02</rscale>
<asrwt>0</asrwt>
<pdfrwt beam="1">  1        2 0.23407696E-01 0.80102575E+02</pdfrwt>
<pdfrwt beam="2">  1       -1 0.16219878E-02 0.80102575E+02</pdfrwt>
<totfact> 0.20053979E+05</totfact>
</mgrwt>
</event>
<event>
 8    1  0.1520917E-013  0.8007896E+02  0.7818608E-02  0.1328828E+00
          2   -1    0    0  501    0  0.00000000000E+00  0.00000000000E+00  0.15166325019E+03  0.15166325021E+03  0.25500000000E-02 0. -1.
         -1   -1    0    0    0  501 -0.00000000000E+00 -0.00000000000E+00 -0.10570521951E+02  0.10570523152E+02  0.50400000000E-02 0.  1.
         24    2    1    2    0    0  0.00000000000E+00 -0.71054273576E-14  0.14109272824E+03  0.16223377337E+03  0.80078956400E+02 0.  0.
         66    2    3    3    0    0  0.14983917152E+02 -0.33058036415E+02  0.36460614708E+02  0.51485220819E+02  0.19999982654E+01 0.  0.
        -13    1    3    3    0    0 -0.14983917152E+02  0.33058036415E+02  0.10463211353E+03  0.11074855255E+03  0.10566000000E+00 0.  1.
         13    1    4    4    0    0  0.86968336109E+00 -0.16454531566E+01  0.18086061936E+01  0.25973227829E+01  0.10566000000E+00 0.  1.
        -13    1    4    4    0    0  0.64470769984E+01 -0.12596958488E+02  0.13482853689E+02  0.19546014238E+02  0.10566000000E+00 0.  1.
         14    1    4    4    0    0  0.76671567930E+01 -0.18815624770E+02  0.21169154826E+02  0.29341883798E+02  0.00000000000E+00 0. -1.
<mgrwt>
<rscale>  0 0.80078956E+02</rscale>
<asrwt>0</asrwt>
<pdfrwt beam="1">  1        2 0.23332808E-01 0.80078956E+02</pdfrwt>
<pdfrwt beam="2">  1       -1 0.16262342E-02 0.80078956E+02</pdfrwt>
<totfact> 0.20048884E+05</totfact>
</mgrwt>
</event>
<event>
 8    1  0.1520917E-013  0.7388088E+02  0.7818608E-02  0.1347372E+00
         -1   -1    0    0    0  501 -0.00000000000E+00  0.00000000000E+00  0.27309542166E+01  0.27309588673E+01  0.50400000000E-02 0.  1.
          2   -1    0    0  501    0  0.00000000000E+00 -0.00000000000E+00 -0.49967700465E+03  0.49967700466E+03  0.25500000000E-02 0. -1.
         24    2    1    2    0    0  0.88817841970E-15  0.00000000000E+00 -0.49694605044E+03  0.50240796353E+03  0.73880882309E+02 0.  0.
         66    2    3    3    0    0  0.77660432294E+01 -0.66645051818E+01 -0.48983462643E+03  0.48994559729E+03  0.19999993740E+01 0.  0.
        -13    1    3    3    0    0 -0.77660432294E+01  0.66645051818E+01 -0.71114240045E+01  0.12462366235E+02  0.10566000000E+00 0.  1.
         13    1    4    4    0    0  0.43180623476E+01 -0.33626618824E+01 -0.29940360956E+03  0.29945364539E+03  0.10566000000E+00 0. -1.
        -13    1    4    4    0    0  0.10062576212E+01 -0.75741451648E+00 -0.59720374514E+02  0.59733746972E+02  0.10566000000E+00 0.  1.
        -14    1    4    4    0    0  0.24417232606E+01 -0.25444287829E+01 -0.13071064236E+03  0.13075820493E+03  0.00000000000E+00 0.  1.
<mgrwt>
<rscale>  0 0.73880882E+02</rscale>
<asrwt>0</asrwt>
<pdfrwt beam="1">  1        2 0.76873313E-01 0.73880882E+02</pdfrwt>
<pdfrwt beam="2">  1       -1 0.42014756E-03 0.73880882E+02</pdfrwt>
<totfact> 0.37428933E+05</totfact>
</mgrwt>
</event>
<event>
 8    1  0.1520917E-013  0.7868940E+02  0.7818608E-02  0.1332812E+00
         -1   -1    0    0    0  501 -0.00000000000E+00  0.00000000000E+00  0.28817240028E+02  0.28817240468E+02  0.50400000000E-02 0.  1.
          2   -1    0    0  501    0  0.00000000000E+00 -0.00000000000E+00 -0.53718037051E+02  0.53718037111E+02  0.25500000000E-02 0. -1.
         24    2    1    2    0    0  0.17763568394E-14  0.44408920985E-15 -0.24900797023E+02  0.82535277580E+02  0.78689404323E+02 0.  0.
         66    2    3    3    0    0 -0.11247297563E+02  0.22613665163E+01 -0.51904803556E+02  0.53195151236E+02  0.20000004528E+01 0.  0.
        -13    1    3    3    0    0  0.11247297563E+02 -0.22613665163E+01  0.27004006533E+02  0.29340126344E+02  0.10566000000E+00 0.  1.
         13    1    4    4    0    0 -0.42278594351E+01  0.45520977937E-01 -0.17733732505E+02  0.18231108034E+02  0.10566000000E+00 0.  1.
        -13    1    4    4    0    0 -0.59425583718E+01  0.20329550476E+01 -0.27883264335E+02  0.28582066060E+02  0.10566000000E+00 0. -1.
        -14    1    4    4    0    0 -0.10768797565E+01  0.18289049075E+00 -0.62878067160E+01  0.63819771419E+01  0.00000000000E+00 0.  1.
<mgrwt>
<rscale>  0 0.78689404E+02</rscale>
<asrwt>0</asrwt>
<pdfrwt beam="1">  1        2 0.82643134E-02 0.78689404E+02</pdfrwt>
<pdfrwt beam="2">  1       -1 0.44334216E-02 0.78689404E+02</pdfrwt>
<totfact> 0.15880676E+05</totfact>
</mgrwt>
</event>
<event>
 8    1  0.1520917E-013  0.7739038E+02  0.7818608E-02  0.1336625E+00
         -1   -1    0    0    0  501 -0.00000000000E+00  0.00000000000E+00  0.61128245266E+01  0.61128266044E+01  0.50400000000E-02 0.  1.
          2   -1    0    0  501    0  0.00000000000E+00 -0.00000000000E+00 -0.24494692450E+03  0.24494692451E+03  0.25500000000E-02 0. -1.
         24    2    1    2    0    0  0.00000000000E+00  0.17763568394E-14 -0.23883409997E+03  0.25105975112E+03  0.77390382614E+02 0.  0.
         66    2    3    3    0    0  0.33507939549E+02  0.12873429182E+02 -0.16614870024E+03  0.16999381690E+03  0.20000005307E+01 0.  0.
        -13    1    3    3    0    0 -0.33507939549E+02 -0.12873429182E+02 -0.72685399735E+02  0.81065934216E+02  0.10566000000E+00 0.  1.
         13    1    4    4    0    0  0.11212596516E+02  0.49217270397E+01 -0.57336063670E+02  0.58629182827E+02  0.10566000000E+00 0.  1.
        -13    1    4    4    0    0  0.12731545965E+02  0.39149062729E+01 -0.62050092048E+02  0.63463720668E+02  0.10566000000E+00 0. -1.
         14    1    4    4    0    0  0.95637970669E+01  0.40367958689E+01 -0.46762544522E+02  0.47900913408E+02  0.00000000000E+00 0. -1.
<mgrwt>
<rscale>  0 0.77390383E+02</rscale>
<asrwt>0</asrwt>
<pdfrwt beam="1">  1        2 0.37684135E-01 0.77390383E+02</pdfrwt>
<pdfrwt beam="2">  1       -1 0.94043489E-03 0.77390383E+02</pdfrwt>
<totfact> 0.25850096E+05</totfact>
</mgrwt>
</event>
<event>
 8    1  0.1520917E-013  0.7936549E+02  0.7818608E-02  0.1330862E+00
          2   -1    0    0  501    0  0.00000000000E+00  0.00000000000E+00  0.52476228498E+02  0.52476228560E+02  0.25500000000E-02 0. -1.
         -1   -1    0    0    0  501 -0.00000000000E+00 -0.00000000000E+00 -0.30008255272E+02  0.30008255695E+02  0.50400000000E-02 0.  1.
         24    2    1    2    0    0  0.00000000000E+00  0.00000000000E+00  0.22467973226E+02  0.82484484255E+02  0.79365485710E+02 0.  0.
         66    2    3    3    0    0  0.23095545609E+02  0.27250923936E+02  0.29142951393E+02  0.46144649640E+02  0.19999980482E+01 0.  0.
        -13    1    3    3    0    0 -0.23095545609E+02 -0.27250923936E+02 -0.66749781668E+01  0.36339834615E+02  0.10566000000E+00 0.  1.
         13    1    4    4    0    0  0.87002916715E+01  0.10934117844E+02  0.12455793245E+02  0.18719186884E+02  0.10566000000E+00 0. -1.
        -13    1    4    4    0    0  0.39909950101E+01  0.44551545483E+01  0.43487799966E+01  0.73959106751E+01  0.10566000000E+00 0.  1.
         14    1    4    4    0    0  0.10404258927E+02  0.11861651543E+02  0.12338378151E+02  0.20029552081E+02  0.00000000000E+00 0. -1.
<mgrwt>
<rscale>  0 0.79365486E+02</rscale>
<asrwt>0</asrwt>
<pdfrwt beam="1">  1        2 0.80732659E-02 0.79365486E+02</pdfrwt>
<pdfrwt beam="2">  1       -1 0.46166547E-02 0.79365486E+02</pdfrwt>
<totfact> 0.15434473E+05</totfact>
</mgrwt>
</event>
<event>
 8    1  0.1520917E-013  0.8297374E+02  0.7818608E-02  0.1320818E+00
         -1   -1    0    0    0  501 -0.00000000000E+00  0.00000000000E+00  0.46866675090E+02  0.46866675361E+02  0.50400000000E-02 0.  1.
          2   -1    0    0  501    0  0.00000000000E+00 -0.00000000000E+00 -0.36724606845E+02  0.36724606934E+02  0.25500000000E-02 0. -1.
         24    2    1    2    0    0  0.00000000000E+00  0.00000000000E+00  0.10142068244E+02  0.83591282295E+02  0.82973736371E+02 0.  0.
         66    2    3    3    0    0  0.13985231745E+02  0.13512191091E+02 -0.31818094226E+02  0.37343769782E+02  0.20000015832E+01 0.  0.
        -13    1    3    3    0    0 -0.13985231745E+02 -0.13512191091E+02  0.41960162470E+02  0.46247512513E+02  0.10566000000E+00 0.  1.
         13    1    4    4    0    0  0.55889253959E+01  0.46331062401E+01 -0.13181445038E+02  0.15048701533E+02  0.10566000000E+00 0. -1.
        -13    1    4    4    0    0  0.80778276012E+01  0.85937169757E+01 -0.18166326359E+02  0.21659405524E+02  0.10566000000E+00 0.  1.
         14    1    4    4    0    0  0.31847874800E+00  0.28536787499E+00 -0.47032282885E+00  0.63566272530E+00  0.00000000000E+00 0. -1.
<mgrwt>
<rscale>  0 0.82973736E+02</rscale>
<asrwt>0</asrwt>
<pdfrwt beam="1">  1        2 0.56499396E-02 0.82973736E+02</pdfrwt>
<pdfrwt beam="2">  1       -1 0.72102577E-02 0.82973736E+02</pdfrwt>
<totfact> 0.12655869E+05</totfact>
</mgrwt>
</event>
<event>
 8    1  0.1520917E-013  0.7784865E+02  0.7818608E-02  0.1335270E+00
          2   -1    0    0  501    0  0.00000000000E+00  0.00000000000E+00  0.59048941373E+03  0.59048941373E+03  0.25500000000E-02 0. -1.
         -1   -1    0    0    0  501 -0.00000000000E+00 -0.00000000000E+00 -0.25658401826E+01  0.25658451325E+01  0.50400000000E-02 0.  1.
         24    2    1    2    0    0  0.00000000000E+00  0.00000000000E+00  0.58792357354E+03  0.59305525886E+03  0.77848646348E+02 0.  0.
         66    2    3    3    0    0  0.43889615815E+01 -0.23532294173E+02  0.52772862445E+03  0.52827505422E+03  0.19999997291E+01 0.  0.
        -13    1    3    3    0    0 -0.43889615815E+01  0.23532294173E+02  0.60194949094E+02  0.64780204641E+02  0.10566000000E+00 0.  1.
         13    1    4    4    0    0  0.21078416299E+01 -0.14133179230E+02  0.31909553997E+03  0.31941534801E+03  0.10566000000E+00 0. -1.
        -13    1    4    4    0    0  0.91420177172E+00 -0.41766693950E+01  0.81672537069E+02  0.81784441108E+02  0.10566000000E+00 0.  1.
        -14    1    4    4    0    0  0.13669181800E+01 -0.52224455477E+01  0.12696054741E+03  0.12707526510E+03  0.00000000000E+00 0.  1.
<mgrwt>
<rscale>  0 0.77848646E+02</rscale>
<asrwt>0</asrwt>
<pdfrwt beam="1">  1        2 0.90844471E-01 0.77848646E+02</pdfrwt>
<pdfrwt beam="2">  1       -1 0.39474526E-03 0.77848646E+02</pdfrwt>
<totfact> 0.34370513E+05</totfact>
</mgrwt>
</event>
<event>
 8    1  0.1520917E-013  0.7807448E+02  0.7818608E-02  0.1334606E+00
         -1   -1    0    0    0  501 -0.00000000000E+00  0.00000000000E+00  0.82679538312E+01  0.82679553673E+01  0.50400000000E-02 0.  1.
          2   -1    0    0  501    0  0.00000000000E+00 -0.00000000000E+00 -0.18431477640E+03  0.18431477642E+03  0.25500000000E-02 0. -1.
         24    2    1    2    0    0  0.71054273576E-14  0.00000000000E+00 -0.17604682257E+03  0.19258273179E+03  0.78074482677E+02 0.  0.
         66    2    3    3    0    0  0.37211155075E+02  0.11377176443E+02 -0.94966056237E+02  0.10264824430E+03  0.20000038300E+01 0.  0.
        -13    1    3    3    0    0 -0.37211155075E+02 -0.11377176443E+02 -0.81080766334E+02  0.89934487485E+02  0.10566000000E+00 0.  1.
         13    1    4    4    0    0  0.10738348698E+02  0.25104651667E+01 -0.27548812560E+02  0.29674278518E+02  0.10566000000E+00 0. -1.
        -13    1    4    4    0    0  0.62324381650E+01  0.24428104861E+01 -0.16014368152E+02  0.17357469859E+02  0.10566000000E+00 0.  1.
         14    1    4    4    0    0  0.20240368212E+02  0.64239007898E+01 -0.51402875526E+02  0.55616495926E+02  0.00000000000E+00 0. -1.
<mgrwt>
<rscale>  0 0.78074483E+02</rscale>
<asrwt>0</asrwt>
<pdfrwt beam="1">  1        2 0.28356116E-01 0.78074483E+02</pdfrwt>
<pdfrwt beam="2">  1       -1 0.12719932E-02 0.78074483E+02</pdfrwt>
<totfact> 0.22871011E+05</totfact>
</mgrwt>
</event>
<event>
 8    1  0.1520917E-013  0.7865362E+02  0.7818608E-02  0.1332916E+00
          2   -1    0    0  501    0  0.00000000000E+00  0.00000000000E+00  0.25365440836E+03  0.25365440837E+03  0.25500000000E-02 0. -1.
         -1   -1    0    0    0  501 -0.00000000000E+00 -0.00000000000E+00 -0.60972636317E+01  0.60972657147E+01  0.50400000000E-02 0.  1.
         24    2    1    2    0    0 -0.35527136788E-14 -0.35527136788E-14  0.24755714473E+03  0.25975167409E+03  0.78653622201E+02 0.  0.
         66    2    3    3    0    0 -0.28218708174E+02 -0.24610946231E+02  0.16329483229E+03  0.16754461022E+03  0.19999990341E+01 0.  0.
        -13    1    3    3    0    0  0.28218708174E+02  0.24610946231E+02  0.84262312441E+02  0.92207063869E+02  0.10566000000E+00 0.  1.
         13    1    4    4    0    0 -0.13060104203E+02 -0.10987169900E+02  0.73905133805E+02  0.75850274824E+02  0.10566000000E+00 0. -1.
        -13    1    4    4    0    0 -0.63107449072E+00 -0.26927277023E+00  0.28423009797E+01  0.29258505998E+01  0.10566000000E+00 0. -1.
        -14    1    4    4    0    0 -0.14527529481E+02 -0.13354503561E+02  0.86547397505E+02  0.88768484796E+02  0.00000000000E+00 0.  1.
<mgrwt>
<rscale>  0 0.78653622E+02</rscale>
<asrwt>0</asrwt>
<pdfrwt beam="1">  1        2 0.39023763E-01 0.78653622E+02</pdfrwt>
<pdfrwt beam="2">  1       -1 0.93804053E-03 0.78653622E+02</pdfrwt>
<totfact> 0.25086427E+05</totfact>
</mgrwt>
</event>
<event>
 8    1  0.1520917E-013  0.8093366E+02  0.7818608E-02  0.1326423E+00
          2   -1    0    0  501    0  0.00000000000E+00  0.00000000000E+00  0.41615943614E+03  0.41615943615E+03  0.25500000000E-02 0. -1.
         -1   -1    0    0    0  501 -0.00000000000E+00 -0.00000000000E+00 -0.39349430056E+01  0.39349462333E+01  0.50400000000E-02 0.  1.
         24    2    1    2    0    0 -0.71054273576E-14  0.00000000000E+00  0.41222449313E+03  0.42009438238E+03  0.80933660292E+02 0.  0.
         66    2    3    3    0    0  0.25398539132E+02  0.14382580576E+00  0.36959357740E+03  0.37047067216E+03  0.19999994188E+01 0.  0.
        -13    1    3    3    0    0 -0.25398539132E+02 -0.14382580576E+00  0.42630915732E+02  0.49623710221E+02  0.10566000000E+00 0.  1.
         13    1    4    4    0    0  0.20503363484E+02 -0.11240531973E-01  0.30137197878E+03  0.30206864914E+03  0.10566000000E+00 0. -1.
        -13    1    4    4    0    0  0.26764754140E+01  0.30351576281E+00  0.41924756088E+02  0.42011331561E+02  0.10566000000E+00 0.  1.
        -14    1    4    4    0    0  0.22187002345E+01 -0.14844942508E+00  0.26296842539E+02  0.26390691455E+02  0.00000000000E+00 0.  1.
<mgrwt>
<rscale>  0 0.80933660E+02</rscale>
<asrwt>0</asrwt>
<pdfrwt beam="1">  1        2 0.64024493E-01 0.80933660E+02</pdfrwt>
<pdfrwt beam="2">  1       -1 0.60537643E-03 0.80933660E+02</pdfrwt>
<totfact> 0.27789861E+05</totfact>
</mgrwt>
</event>
<event>
 8    1  0.1520917E-013  0.7793585E+02  0.7818608E-02  0.1335013E+00
         -1   -1    0    0    0  501 -0.00000000000E+00  0.00000000000E+00  0.14500678922E+02  0.14500679798E+02  0.50400000000E-02 0.  1.
          2   -1    0    0  501    0  0.00000000000E+00 -0.00000000000E+00 -0.10471917752E+03  0.10471917755E+03  0.25500000000E-02 0. -1.
         24    2    1    2    0    0  0.00000000000E+00  0.00000000000E+00 -0.90218498597E+02  0.11921985735E+03  0.77935851167E+02 0.  0.
         66    2    3    3    0    0  0.14657697071E+02  0.48608620376E+01 -0.99825336487E+02  0.10103253865E+03  0.19999995493E+01 0.  0.
        -13    1    3    3    0    0 -0.14657697071E+02 -0.48608620376E+01  0.96068378894E+01  0.18187318699E+02  0.10566000000E+00 0.  1.
         13    1    4    4    0    0  0.31416798390E+01  0.12995270420E+01 -0.25586655131E+02  0.25811761032E+02  0.10566000000E+00 0. -1.
        -13    1    4    4    0    0  0.97473937611E+00  0.43120251452E+00 -0.87526814753E+01  0.88179730950E+01  0.10566000000E+00 0.  1.
        -14    1    4    4    0    0  0.10541277856E+02  0.31301324811E+01 -0.65485999880E+02  0.66402804523E+02  0.00000000000E+00 0.  1.
<mgrwt>
<rscale>  0 0.77935851E+02</rscale>
<asrwt>0</asrwt>
<pdfrwt beam="1">  1        2 0.16110642E-01 0.77935851E+02</pdfrwt>
<pdfrwt beam="2">  1       -1 0.22308738E-02 0.77935851E+02</pdfrwt>
<totfact> 0.19257111E+05</totfact>
</mgrwt>
</event>
<event>
 8    1  0.1520917E-013  0.8042703E+02  0.7818608E-02  0.1327844E+00
         -1   -1    0    0    0  501 -0.00000000000E+00  0.00000000000E+00  0.19540822530E+02  0.19540823180E+02  0.50400000000E-02 0.  1.
          2   -1    0    0  501    0  0.00000000000E+00 -0.00000000000E+00 -0.82756323533E+02  0.82756323572E+02  0.25500000000E-02 0. -1.
         24    2    1    2    0    0 -0.71054273576E-14 -0.17763568394E-14 -0.63215501003E+02  0.10229714675E+03  0.80427026965E+02 0.  0.
         66    2    3    3    0    0  0.32091253184E+02  0.15881120617E+02 -0.54839896508E+02  0.65524596695E+02  0.20000000319E+01 0.  0.
        -13    1    3    3    0    0 -0.32091253184E+02 -0.15881120617E+02 -0.83756044959E+01  0.36772550057E+02  0.10566000000E+00 0.  1.
         13    1    4    4    0    0  0.12793500212E+02  0.70965696373E+01 -0.23182734434E+02  0.27413231991E+02  0.10566000000E+00 0. -1.
        -13    1    4    4    0    0  0.68985117887E+01  0.31383656717E+01 -0.12042062002E+02  0.14228887001E+02  0.10566000000E+00 0.  1.
         14    1    4    4    0    0  0.12399241183E+02  0.56461853079E+01 -0.19615100072E+02  0.23882477704E+02  0.00000000000E+00 0. -1.
<mgrwt>
<rscale>  0 0.80427027E+02</rscale>
<asrwt>0</asrwt>
<pdfrwt beam="1">  1        2 0.12731742E-01 0.80427027E+02</pdfrwt>
<pdfrwt beam="2">  1       -1 0.30062805E-02 0.80427027E+02</pdfrwt>
<totfact> 0.16602677E+05</totfact>
</mgrwt>
</event>
<event>
 8    1  0.1520917E-013  0.8125959E+02  0.7818608E-02  0.1325514E+00
         -1   -1    0    0    0  501 -0.00000000000E+00  0.00000000000E+00  0.23911156790E+01  0.23911209907E+01  0.50400000000E-02 0.  1.
          2   -1    0    0  501    0  0.00000000000E+00 -0.00000000000E+00 -0.69037998434E+03  0.69037998435E+03  0.25500000000E-02 0. -1.
         24    2    1    2    0    0  0.00000000000E+00  0.00000000000E+00 -0.68798886867E+03  0.69277110534E+03  0.81259590119E+02 0.  0.
         66    2    3    3    0    0 -0.18665050340E+02 -0.33061175348E+02 -0.46696509600E+03  0.46851022006E+03  0.19999995152E+01 0.  0.
        -13    1    3    3    0    0  0.18665050340E+02  0.33061175348E+02 -0.22102377267E+03  0.22426088528E+03  0.10566000000E+00 0.  1.
         13    1    4    4    0    0 -0.66116824868E+01 -0.10979393781E+02 -0.15344565830E+03  0.15398000730E+03  0.10566000000E+00 0. -1.
        -13    1    4    4    0    0 -0.88934461001E+01 -0.15971473132E+02 -0.23505303756E+03  0.23576285324E+03  0.10566000000E+00 0.  1.
         14    1    4    4    0    0 -0.31599217536E+01 -0.61103084348E+01 -0.78466400135E+02  0.78767359514E+02  0.00000000000E+00 0. -1.
<mgrwt>
<rscale>  0 0.81259590E+02</rscale>
<asrwt>0</asrwt>
<pdfrwt beam="1">  1        2 0.10621215E+00 0.81259590E+02</pdfrwt>
<pdfrwt beam="2">  1       -1 0.36786491E-03 0.81259590E+02</pdfrwt>
<totfact> 0.32016637E+05</totfact>
</mgrwt>
</event>
<event>
 8    1  0.1520917E-013  0.7932437E+02  0.7818608E-02  0.1330980E+00
         -1   -1    0    0    0  501 -0.00000000000E+00  0.00000000000E+00  0.28110233208E+03  0.28110233212E+03  0.50400000000E-02 0.  1.
          2   -1    0    0  501    0  0.00000000000E+00 -0.00000000000E+00 -0.55961426996E+01  0.55961432806E+01  0.25500000000E-02 0. -1.
         24    2    1    2    0    0  0.00000000000E+00  0.00000000000E+00  0.27550618938E+03  0.28669847540E+03  0.79324368343E+02 0.  0.
         66    2    3    3    0    0 -0.37796320746E+02 -0.68827898540E+00  0.94764276629E+02  0.10204559625E+03  0.19999999866E+01 0.  0.
        -13    1    3    3    0    0  0.37796320746E+02  0.68827898540E+00  0.18074191275E+03  0.18465287915E+03  0.10566000000E+00 0.  1.
         13    1    4    4    0    0 -0.26184993647E+02 -0.22559405407E+00  0.65681123493E+02  0.70708740141E+02  0.10566000000E+00 0. -1.
        -13    1    4    4    0    0 -0.57076427199E+01 -0.26902506299E+00  0.12893960482E+02  0.14103720816E+02  0.10566000000E+00 0.  1.
        -14    1    4    4    0    0 -0.59036843788E+01 -0.19365986834E+00  0.16189192654E+02  0.17233135297E+02  0.00000000000E+00 0.  1.
<mgrwt>
<rscale>  0 0.79324368E+02</rscale>
<asrwt>0</asrwt>
<pdfrwt beam="1">  1        2 0.86094546E-03 0.79324368E+02</pdfrwt>
<pdfrwt beam="2">  1       -1 0.43246493E-01 0.79324368E+02</pdfrwt>
<totfact> 0.90632494E+04</totfact>
</mgrwt>
</event>
<event>
 8    1  0.1520917E-013  0.7989480E+02  0.7818608E-02  0.1329350E+00
          2   -1    0    0  501    0  0.00000000000E+00  0.00000000000E+00  0.73775889551E+03  0.73775889551E+03  0.25500000000E-02 0. -1.
         -1   -1    0    0    0  501 -0.00000000000E+00 -0.00000000000E+00 -0.21630272344E+01  0.21630331062E+01  0.50400000000E-02 0.  1.
         24    2    1    2    0    0 -0.17763568394E-14  0.55511151231E-16  0.73559586827E+03  0.73992192862E+03  0.79894799764E+02 0.  0.
         66    2    3    3    0    0 -0.11309523627E+02  0.49152341968E+00  0.72258101721E+03  0.72267245233E+03  0.20000010418E+01 0.  0.
        -13    1    3    3    0    0  0.11309523627E+02 -0.49152341968E+00  0.13014851058E+02  0.17249476283E+02  0.10566000000E+00 0.  1.
         13    1    4    4    0    0 -0.14227881154E+01 -0.48124251196E-01  0.10541451892E+03  0.10542418415E+03  0.10566000000E+00 0. -1.
        -13    1    4    4    0    0 -0.74618530571E+01  0.79304905752E+00  0.50084961642E+03  0.50090583707E+03  0.10566000000E+00 0.  1.
        -14    1    4    4    0    0 -0.24248824545E+01 -0.25340138665E+00  0.11631688187E+03  0.11634243111E+03  0.00000000000E+00 0.  1.
<mgrwt>
<rscale>  0 0.79894800E+02</rscale>
<asrwt>0</asrwt>
<pdfrwt beam="1">  1        2 0.11350147E+00 0.79894800E+02</pdfrwt>
<pdfrwt beam="2">  1       -1 0.33277357E-03 0.79894800E+02</pdfrwt>
<totfact> 0.33954332E+05</totfact>
</mgrwt>
</event>
<event>
 8    1  0.1520917E-013  0.8034425E+02  0.7818608E-02  0.1328077E+00
          2   -1    0    0  501    0  0.00000000000E+00  0.00000000000E+00  0.56293323698E+03  0.56293323698E+03  0.25500000000E-02 0. -1.
         -1   -1    0    0    0  501 -0.00000000000E+00 -0.00000000000E+00 -0.28667670605E+01  0.28667714909E+01  0.50400000000E-02 0.  1.
         24    2    1    2    0    0  0.00000000000E+00  0.00000000000E+00  0.56006646992E+03  0.56580000847E+03  0.80344252216E+02 0.  0.
         66    2    3    3    0    0  0.13459334161E+02  0.12213355149E+02  0.53230068199E+03  0.53261462218E+03  0.19999990235E+01 0.  0.
        -13    1    3    3    0    0 -0.13459334161E+02 -0.12213355149E+02  0.27765787928E+02  0.33185386292E+02  0.10566000000E+00 0.  1.
         13    1    4    4    0    0  0.82882005488E+01  0.67285895908E+01  0.30070970485E+03  0.30089916242E+03  0.10566000000E+00 0. -1.
        -13    1    4    4    0    0  0.34771768843E+01  0.42803123168E+01  0.16873675343E+03  0.16882687865E+03  0.10566000000E+00 0.  1.
        -14    1    4    4    0    0  0.16939567279E+01  0.12044532418E+01  0.62854223701E+02  0.62888581111E+02  0.00000000000E+00 0.  1.
<mgrwt>
<rscale>  0 0.80344252E+02</rscale>
<asrwt>0</asrwt>
<pdfrwt beam="1">  1        2 0.86605076E-01 0.80344252E+02</pdfrwt>
<pdfrwt beam="2">  1       -1 0.44104162E-03 0.80344252E+02</pdfrwt>
<totfact> 0.31229601E+05</totfact>
</mgrwt>
</event>
<event>
 8    1  0.1520917E-013  0.7810056E+02  0.7818608E-02  0.1334530E+00
          2   -1    0    0  501    0  0.00000000000E+00  0.00000000000E+00  0.30648883437E+03  0.30648883438E+03  0.25500000000E-02 0. -1.
         -1   -1    0    0    0  501 -0.00000000000E+00 -0.00000000000E+00 -0.49754629988E+01  0.49754655515E+01  0.50400000000E-02 0.  1.
         24    2    1    2    0    0  0.44408920985E-15 -0.35527136788E-14  0.30151337137E+03  0.31146429993E+03  0.78100557082E+02 0.  0.
         66    2    3    3    0    0 -0.29412183903E+01  0.19254418883E+02  0.28571399587E+03  0.28638413163E+03  0.19999989638E+01 0.  0.
        -13    1    3    3    0    0  0.29412183903E+01 -0.19254418883E+02  0.15799375495E+02  0.25080168305E+02  0.10566000000E+00 0.  1.
         13    1    4    4    0    0  0.95580585293E-01  0.16892370908E+00  0.30682008679E+01  0.30761488047E+01  0.10566000000E+00 0.  1.
        -13    1    4    4    0    0 -0.29966863029E+01  0.17970484246E+02  0.26934288448E+03  0.26995836534E+03  0.10566000000E+00 0. -1.
        -14    1    4    4    0    0 -0.40112672699E-01  0.11150109284E+01  0.13302910524E+02  0.13349617478E+02  0.00000000000E+00 0.  1.
<mgrwt>
<rscale>  0 0.78100557E+02</rscale>
<asrwt>0</asrwt>
<pdfrwt beam="1">  1        2 0.47152147E-01 0.78100557E+02</pdfrwt>
<pdfrwt beam="2">  1       -1 0.76545574E-03 0.78100557E+02</pdfrwt>
<totfact> 0.27360853E+05</totfact>
</mgrwt>
</event>
<event>
 8    1  0.1520917E-013  0.7965854E+02  0.7818608E-02  0.1330023E+00
          2   -1    0    0  501    0  0.00000000000E+00  0.00000000000E+00  0.10607537765E+02  0.10607538071E+02  0.25500000000E-02 0. -1.
         -1   -1    0    0    0  501 -0.00000000000E+00 -0.00000000000E+00 -0.14955128155E+03  0.14955128163E+03  0.50400000000E-02 0.  1.
         24    2    1    2    0    0  0.00000000000E+00  0.44408920985E-15 -0.13894374378E+03  0.16015881971E+03  0.79658543752E+02 0.  0.
         66    2    3    3    0    0 -0.26513311028E+02 -0.38756601504E+01 -0.10335523973E+02  0.28788877290E+02  0.19999991371E+01 0.  0.
        -13    1    3    3    0    0  0.26513311028E+02  0.38756601504E+01 -0.12860821981E+03  0.13136994242E+03  0.10566000000E+00 0.  1.
         13    1    4    4    0    0 -0.15709415046E+02 -0.22157594655E+01 -0.70774864999E+01  0.17372313901E+02  0.10566000000E+00 0. -1.
        -13    1    4    4    0    0 -0.17712219705E+01 -0.40237734881E+00 -0.44982795483E+00  0.18742049045E+01  0.10566000000E+00 0.  1.
         14    1    4    4    0    0 -0.90326740115E+01 -0.12575233361E+01 -0.28082095184E+01  0.95423584841E+01  0.00000000000E+00 0. -1.
<mgrwt>
<rscale>  0 0.79658544E+02</rscale>
<asrwt>0</asrwt>
<pdfrwt beam="1">  1        2 0.16319290E-02 0.79658544E+02</pdfrwt>
<pdfrwt beam="2">  1       -1 0.23007888E-01 0.79658544E+02</pdfrwt>
<totfact> 0.10912820E+05</totfact>
</mgrwt>
</event>
<event>
 8    1  0.1520917E-013  0.7685724E+02  0.7818608E-02  0.1338214E+00
          2   -1    0    0  501    0  0.00000000000E+00  0.00000000000E+00  0.54821237280E+03  0.54821237280E+03  0.25500000000E-02 0. -1.
         -1   -1    0    0    0  501 -0.00000000000E+00 -0.00000000000E+00 -0.26937691095E+01  0.26937738243E+01  0.50400000000E-02 0.  1.
         24    2    1    2    0    0  0.00000000000E+00  0.00000000000E+00  0.54551860369E+03  0.55090614663E+03  0.76857240534E+02 0.  0.
         66    2    3    3    0    0 -0.96810629445E+01  0.32886553318E+02  0.39699306464E+03  0.39847552213E+03  0.20000004427E+01 0.  0.
        -13    1    3    3    0    0  0.96810629445E+01 -0.32886553318E+02  0.14852553905E+03  0.15243062449E+03  0.10566000000E+00 0.  1.
         13    1    4    4    0    0 -0.44988255745E+01  0.14589559339E+02  0.18269883228E+03  0.18333567343E+03  0.10566000000E+00 0. -1.
        -13    1    4    4    0    0 -0.63173693540E+00  0.20879598183E+01  0.20669168444E+02  0.20784233350E+02  0.10566000000E+00 0.  1.
         14    1    4    4    0    0 -0.45505004346E+01  0.16209034161E+02  0.19362506391E+03  0.19435561535E+03  0.00000000000E+00 0. -1.
<mgrwt>
<rscale>  0 0.76857241E+02</rscale>
<asrwt>0</asrwt>
<pdfrwt beam="1">  1        2 0.84340307E-01 0.76857241E+02</pdfrwt>
<pdfrwt beam="2">  1       -1 0.41442666E-03 0.76857241E+02</pdfrwt>
<totfact> 0.34771758E+05</totfact>
</mgrwt>
</event>
<event>
 8    1  0.1520917E-013  0.7920486E+02  0.7818608E-02  0.1331323E+00
         -1   -1    0    0    0  501 -0.00000000000E+00  0.00000000000E+00  0.11231523616E+02  0.11231524747E+02  0.50400000000E-02 0.  1.
          2   -1    0    0  501    0  0.00000000000E+00 -0.00000000000E+00 -0.13963844640E+03  0.13963844643E+03  0.25500000000E-02 0. -1.
         24    2    1    2    0    0 -0.17763568394E-14 -0.71054273576E-14 -0.12840692279E+03  0.15086997117E+03  0.79204863375E+02 0.  0.
         66    2    3    3    0    0  0.15221226102E+02  0.36232443914E+02 -0.73152577676E+02  0.83064886308E+02  0.20000001562E+01 0.  0.
        -13    1    3    3    0    0 -0.15221226102E+02 -0.36232443914E+02 -0.55254345112E+02  0.67805084867E+02  0.10566000000E+00 0.  1.
         13    1    4    4    0    0  0.53456922622E+01  0.13888264733E+02 -0.27415962452E+02  0.31194654739E+02  0.10566000000E+00 0. -1.
        -13    1    4    4    0    0  0.42878608358E+01  0.96322383904E+01 -0.18315789984E+02  0.21133979600E+02  0.10566000000E+00 0.  1.
         14    1    4    4    0    0  0.55876730042E+01  0.12711940790E+02 -0.27420825240E+02  0.30736251969E+02  0.00000000000E+00 0. -1.
<mgrwt>
<rscale>  0 0.79204863E+02</rscale>
<asrwt>0</asrwt>
<pdfrwt beam="1">  1        2 0.21482837E-01 0.79204863E+02</pdfrwt>
<pdfrwt beam="2">  1       -1 0.17279269E-02 0.79204863E+02</pdfrwt>
<totfact> 0.20104533E+05</totfact>
</mgrwt>
</event>
<event>
 8    1  0.1520917E-013  0.8039508E+02  0.7818608E-02  0.1327934E+00
         -1   -1    0    0    0  501 -0.00000000000E+00  0.00000000000E+00  0.20786706777E+02  0.20786707388E+02  0.50400000000E-02 0.  1.
          2   -1    0    0  501    0  0.00000000000E+00 -0.00000000000E+00 -0.77734404076E+02  0.77734404118E+02  0.25500000000E-02 0. -1.
         24    2    1    2    0    0 -0.14210854715E-13  0.00000000000E+00 -0.56947697299E+02  0.98521111506E+02  0.80395081844E+02 0.  0.
         66    2    3    3    0    0 -0.37406474121E+02  0.13303216661E+02 -0.36007555382E+02  0.53635472520E+02  0.19999970428E+01 0.  0.
        -13    1    3    3    0    0  0.37406474121E+02 -0.13303216661E+02 -0.20940141917E+02  0.44885638986E+02  0.10566000000E+00 0.  1.
         13    1    4    4    0    0 -0.92553828760E+00  0.56016327076E+00 -0.87441422326E+00  0.13950513543E+01  0.10566000000E+00 0. -1.
        -13    1    4    4    0    0 -0.32363945775E+01  0.14765950526E+01 -0.31253666349E+01  0.47364188422E+01  0.10566000000E+00 0.  1.
         14    1    4    4    0    0 -0.33244541256E+02  0.11266458337E+02 -0.32007774524E+02  0.47504002324E+02  0.00000000000E+00 0. -1.
<mgrwt>
<rscale>  0 0.80395082E+02</rscale>
<asrwt>0</asrwt>
<pdfrwt beam="1">  1        2 0.11959139E-01 0.80395082E+02</pdfrwt>
<pdfrwt beam="2">  1       -1 0.31979550E-02 0.80395082E+02</pdfrwt>
<totfact> 0.16354655E+05</totfact>
</mgrwt>
</event>
<event>
 8    1  0.1520917E-013  0.8003177E+02  0.7818608E-02  0.1328961E+00
          2   -1    0    0  501    0  0.00000000000E+00  0.00000000000E+00  0.67042037348E+03  0.67042037349E+03  0.25500000000E-02 0. -1.
         -1   -1    0    0    0  501 -0.00000000000E+00 -0.00000000000E+00 -0.23884554563E+01  0.23884607738E+01  0.50400000000E-02 0.  1.
         24    2    1    2    0    0  0.00000000000E+00  0.00000000000E+00  0.66803191803E+03  0.67280883426E+03  0.80031768431E+02 0.  0.
         66    2    3    3    0    0 -0.24984296821E+02 -0.23065277840E+02  0.51117482096E+03  0.51230842245E+03  0.19999984450E+01 0.  0.
        -13    1    3    3    0    0  0.24984296821E+02  0.23065277840E+02  0.15685709706E+03  0.16050041181E+03  0.10566000000E+00 0.  1.
         13    1    4    4    0    0 -0.99687922254E+01 -0.90790736884E+01  0.19499544694E+03  0.19546110070E+03  0.10566000000E+00 0. -1.
        -13    1    4    4    0    0 -0.57748954882E+01 -0.46804610303E+01  0.10877892045E+03  0.10903265948E+03  0.10566000000E+00 0.  1.
         14    1    4    4    0    0 -0.92406091076E+01 -0.93057431213E+01  0.20740045357E+03  0.20781466227E+03  0.00000000000E+00 0. -1.
<mgrwt>
<rscale>  0 0.80031768E+02</rscale>
<asrwt>0</asrwt>
<pdfrwt beam="1">  1        2 0.10314174E+00 0.80031768E+02</pdfrwt>
<pdfrwt beam="2">  1       -1 0.36745458E-03 0.80031768E+02</pdfrwt>
<totfact> 0.33077568E+05</totfact>
</mgrwt>
</event>
<event>
 8    1  0.1520917E-013  0.7980287E+02  0.7818608E-02  0.1329612E+00
         -1   -1    0    0    0  501 -0.00000000000E+00  0.00000000000E+00  0.19149511368E+02  0.19149512031E+02  0.50400000000E-02 0.  1.
          2   -1    0    0  501    0  0.00000000000E+00 -0.00000000000E+00 -0.83141777261E+02  0.83141777300E+02  0.25500000000E-02 0. -1.
         24    2    1    2    0    0  0.00000000000E+00  0.00000000000E+00 -0.63992265893E+02  0.10229128933E+03  0.79802868237E+02 0.  0.
         66    2    3    3    0    0  0.28634469988E+02  0.74660709298E+01 -0.66277515398E+02  0.72611184615E+02  0.19999992852E+01 0.  0.
        -13    1    3    3    0    0 -0.28634469988E+02 -0.74660709298E+01  0.22852495052E+01  0.29680104716E+02  0.10566000000E+00 0.  1.
         13    1    4    4    0    0  0.11932656609E+02  0.34534586766E+01 -0.29413735210E+02  0.31929510701E+02  0.10566000000E+00 0. -1.
        -13    1    4    4    0    0  0.12550520986E+02  0.26069227538E+01 -0.27881865023E+02  0.30687476020E+02  0.10566000000E+00 0.  1.
        -14    1    4    4    0    0  0.41512923929E+01  0.14056894994E+01 -0.89819151651E+01  0.99941978934E+01  0.00000000000E+00 0.  1.
<mgrwt>
<rscale>  0 0.79802868E+02</rscale>
<asrwt>0</asrwt>
<pdfrwt beam="1">  1        2 0.12791042E-01 0.79802868E+02</pdfrwt>
<pdfrwt beam="2">  1       -1 0.29460788E-02 0.79802868E+02</pdfrwt>
<totfact> 0.16975302E+05</totfact>
</mgrwt>
</event>
<event>
 8    1  0.1520917E-013  0.7976721E+02  0.7818608E-02  0.1329713E+00
          2   -1    0    0  501    0  0.00000000000E+00  0.00000000000E+00  0.34060174981E+02  0.34060175077E+02  0.25500000000E-02 0. -1.
         -1   -1    0    0    0  501 -0.00000000000E+00 -0.00000000000E+00 -0.46702698810E+02  0.46702699082E+02  0.50400000000E-02 0.  1.
         24    2    1    2    0    0  0.00000000000E+00  0.00000000000E+00 -0.12642523829E+02  0.80762874159E+02  0.79767214027E+02 0.  0.
         66    2    3    3    0    0  0.99675926770E+01 -0.47664327328E+01  0.32449340614E+02  0.34337028042E+02  0.20000009254E+01 0.  0.
        -13    1    3    3    0    0 -0.99675926770E+01  0.47664327328E+01 -0.45091864442E+02  0.46425846117E+02  0.10566000000E+00 0.  1.
         13    1    4    4    0    0  0.43217324158E+01 -0.23116679342E+01  0.16903700699E+02  0.17600211393E+02  0.10566000000E+00 0. -1.
        -13    1    4    4    0    0  0.18381410386E+01 -0.46617066639E+00  0.44285464496E+01  0.48186372824E+01  0.10566000000E+00 0.  1.
         14    1    4    4    0    0  0.38077192226E+01 -0.19885941322E+01  0.11117093465E+02  0.11918179367E+02  0.00000000000E+00 0. -1.
<mgrwt>
<rscale>  0 0.79767214E+02</rscale>
<asrwt>0</asrwt>
<pdfrwt beam="1">  1        2 0.52400269E-02 0.79767214E+02</pdfrwt>
<pdfrwt beam="2">  1       -1 0.71850307E-02 0.79767214E+02</pdfrwt>
<totfact> 0.13910985E+05</totfact>
</mgrwt>
</event>
<event>
 8    1  0.1520917E-013  0.7978705E+02  0.7818608E-02  0.1329657E+00
         -1   -1    0    0    0  501 -0.00000000000E+00  0.00000000000E+00  0.96236554790E+02  0.96236554922E+02  0.50400000000E-02 0.  1.
          2   -1    0    0  501    0  0.00000000000E+00 -0.00000000000E+00 -0.16537306395E+02  0.16537306592E+02  0.25500000000E-02 0. -1.
         24    2    1    2    0    0  0.00000000000E+00 -0.17763568394E-14  0.79699248395E+02  0.11277386151E+03  0.79787051869E+02 0.  0.
         66    2    3    3    0    0 -0.33383900656E+02 -0.10542417565E+02  0.12913107357E+02  0.37368111137E+02  0.19999993043E+01 0.  0.
        -13    1    3    3    0    0  0.33383900656E+02  0.10542417565E+02  0.66786141038E+02  0.75405750377E+02  0.10566000000E+00 0.  1.
         13    1    4    4    0    0 -0.76993426441E+01 -0.29015561620E+01  0.31511783928E+01  0.88113560029E+01  0.10566000000E+00 0. -1.
        -13    1    4    4    0    0 -0.13188312520E+02 -0.34464770617E+01  0.55589216333E+01  0.14721500095E+02  0.10566000000E+00 0.  1.
         14    1    4    4    0    0 -0.12496245491E+02 -0.41943843415E+01  0.42030073306E+01  0.13835255039E+02  0.00000000000E+00 0. -1.
<mgrwt>
<rscale>  0 0.79787052E+02</rscale>
<asrwt>0</asrwt>
<pdfrwt beam="1">  1        2 0.25442011E-02 0.79787052E+02</pdfrwt>
<pdfrwt beam="2">  1       -1 0.14805624E-01 0.79787052E+02</pdfrwt>
<totfact> 0.12029791E+05</totfact>
</mgrwt>
</event>
<event>
 8    1  0.1537861E-013  0.8311680E+02  0.7818608E-02  0.1320432E+00
          2   -1    0    0  501    0  0.00000000000E+00  0.00000000000E+00  0.14775553938E+02  0.14775554158E+02  0.25500000000E-02 0. -1.
         -1   -1    0    0    0  501 -0.00000000000E+00 -0.00000000000E+00 -0.11688905135E+03  0.11688905146E+03  0.50400000000E-02 0.  1.
         24    2    1    2    0    0  0.00000000000E+00  0.00000000000E+00 -0.10211349741E+03  0.13166460562E+03  0.83116797450E+02 0.  0.
         66    2    3    3    0    0 -0.11383409941E+02 -0.14855071073E+02  0.76500431495E+01  0.20316946642E+02  0.20000005458E+01 0.  0.
        -13    1    3    3    0    0  0.11383409941E+02  0.14855071073E+02 -0.10976354056E+03  0.11134765897E+03  0.10566000000E+00 0.  1.
         13    1    4    4    0    0 -0.48502547270E+01 -0.61040652905E+01  0.34472834247E+01  0.85252279168E+01  0.10566000000E+00 0. -1.
        -13    1    4    4    0    0 -0.53634489974E+01 -0.79717427528E+01  0.37596380358E+01  0.10318009007E+02  0.10566000000E+00 0.  1.
        -14    1    4    4    0    0 -0.11697062166E+01 -0.77926302985E+00  0.44312168901E+00  0.14737097184E+01  0.00000000000E+00 0.  1.
<mgrwt>
<rscale>  0 0.83116797E+02</rscale>
<asrwt>0</asrwt>
<pdfrwt beam="1">  1        2 0.22731622E-02 0.83116797E+02</pdfrwt>
<pdfrwt beam="2">  1       -1 0.17982930E-01 0.83116797E+02</pdfrwt>
<totfact> 0.10405994E+05</totfact>
</mgrwt>
</event>
<event>
 8    1  0.1520917E-013  0.8519132E+02  0.7818608E-02  0.1314933E+00
          2   -1    0    0  501    0  0.00000000000E+00  0.00000000000E+00  0.80063946469E+01  0.80063950530E+01  0.25500000000E-02 0. -1.
         -1   -1    0    0    0  501 -0.00000000000E+00 -0.00000000000E+00 -0.22661763257E+03  0.22661763262E+03  0.50400000000E-02 0.  1.
         24    2    1    2    0    0  0.00000000000E+00  0.00000000000E+00 -0.21861123792E+03  0.23462402768E+03  0.85191320086E+02 0.  0.
         66    2    3    3    0    0 -0.22975256849E+02 -0.21592576093E+02 -0.30583328815E+02  0.43970919818E+02  0.20000046540E+01 0.  0.
        -13    1    3    3    0    0  0.22975256849E+02  0.21592576093E+02 -0.18802790911E+03  0.19065310786E+03  0.10566000000E+00 0.  1.
         13    1    4    4    0    0 -0.82736513415E+01 -0.79321564285E+01 -0.10720877469E+02  0.15694610217E+02  0.10566000000E+00 0. -1.
        -13    1    4    4    0    0 -0.87856037102E+01 -0.75433419576E+01 -0.10615159824E+02  0.15709284597E+02  0.10566000000E+00 0.  1.
        -14    1    4    4    0    0 -0.59160017973E+01 -0.61170777064E+01 -0.92472915225E+01  0.12567025003E+02  0.00000000000E+00 0.  1.
<mgrwt>
<rscale>  0 0.85191320E+02</rscale>
<asrwt>0</asrwt>
<pdfrwt beam="1">  1        2 0.12317532E-02 0.85191320E+02</pdfrwt>
<pdfrwt beam="2">  1       -1 0.34864246E-01 0.85191320E+02</pdfrwt>
<totfact> 0.81544463E+04</totfact>
</mgrwt>
</event>
<event>
 8    1  0.1520917E-013  0.8400200E+02  0.7818608E-02  0.1318063E+00
         -1   -1    0    0    0  501 -0.00000000000E+00  0.00000000000E+00  0.11672064603E+02  0.11672065691E+02  0.50400000000E-02 0.  1.
          2   -1    0    0  501    0  0.00000000000E+00 -0.00000000000E+00 -0.15113725618E+03  0.15113725620E+03  0.25500000000E-02 0. -1.
         24    2    1    2    0    0 -0.35527136788E-14  0.00000000000E+00 -0.13946519157E+03  0.16280932189E+03  0.84001997795E+02 0.  0.
         66    2    3    3    0    0  0.22012119960E+02  0.34409442678E+02 -0.51027318915E+02  0.65393657570E+02  0.20000010327E+01 0.  0.
        -13    1    3    3    0    0 -0.22012119960E+02 -0.34409442678E+02 -0.88437872657E+02  0.97415664319E+02  0.10566000000E+00 0.  1.
         13    1    4    4    0    0  0.81078773364E+01  0.12500965602E+02 -0.18162461475E+02  0.23492509162E+02  0.10566000000E+00 0. -1.
        -13    1    4    4    0    0  0.44844668223E+01  0.64405006524E+01 -0.10926786166E+02  0.13453486956E+02  0.10566000000E+00 0.  1.
        -14    1    4    4    0    0  0.94197758015E+01  0.15467976423E+02 -0.21938071275E+02  0.28447661451E+02  0.00000000000E+00 0.  1.
<mgrwt>
<rscale>  0 0.84001998E+02</rscale>
<asrwt>0</asrwt>
<pdfrwt beam="1">  1        2 0.23251884E-01 0.84001998E+02</pdfrwt>
<pdfrwt beam="2">  1       -1 0.17957024E-02 0.84001998E+02</pdfrwt>
<totfact> 0.17633810E+05</totfact>
</mgrwt>
</event>
<event>
 8    1  0.1520917E-013  0.7996007E+02  0.7818608E-02  0.1329165E+00
          2   -1    0    0  501    0  0.00000000000E+00  0.00000000000E+00  0.35823010430E+02  0.35823010521E+02  0.25500000000E-02 0. -1.
         -1   -1    0    0    0  501 -0.00000000000E+00 -0.00000000000E+00 -0.44619453663E+02  0.44619453948E+02  0.50400000000E-02 0.  1.
         24    2    1    2    0    0  0.00000000000E+00 -0.35527136788E-14 -0.87964432333E+01  0.80442464468E+02  0.79960069261E+02 0.  0.
         66    2    3    3    0    0  0.20185557112E+02 -0.30622982115E+02  0.11543132063E+02  0.38502826453E+02  0.19999993774E+01 0.  0.
        -13    1    3    3    0    0 -0.20185557112E+02  0.30622982115E+02 -0.20339575297E+02  0.41939638015E+02  0.10566000000E+00 0.  1.
         13    1    4    4    0    0  0.70744384683E+00 -0.15756894897E+01  0.30311651897E+00  0.17567919126E+01  0.10566000000E+00 0.  1.
        -13    1    4    4    0    0  0.89388806327E+01 -0.14109943176E+02  0.53090292971E+01  0.17526866220E+02  0.10566000000E+00 0. -1.
        -14    1    4    4    0    0  0.10539232633E+02 -0.14937349449E+02  0.59309862472E+01  0.19219168320E+02  0.00000000000E+00 0.  1.
<mgrwt>
<rscale>  0 0.79960069E+02</rscale>
<asrwt>0</asrwt>
<pdfrwt beam="1">  1        2 0.55112324E-02 0.79960069E+02</pdfrwt>
<pdfrwt beam="2">  1       -1 0.68645314E-02 0.79960069E+02</pdfrwt>
<totfact> 0.13958341E+05</totfact>
</mgrwt>
</event>
<event>
 8    1  0.1520917E-013  0.8222364E+02  0.7818608E-02  0.1322857E+00
          2   -1    0    0  501    0  0.00000000000E+00  0.00000000000E+00  0.14488398454E+02  0.14488398679E+02  0.25500000000E-02 0. -1.
         -1   -1    0    0    0  501 -0.00000000000E+00 -0.00000000000E+00 -0.11665758642E+03  0.11665758653E+03  0.50400000000E-02 0.  1.
         24    2    1    2    0    0  0.00000000000E+00  0.00000000000E+00 -0.10216918797E+03  0.13114598521E+03  0.82223636909E+02 0.  0.
         66    2    3    3    0    0  0.11590382931E+02  0.38313912647E+02 -0.36333394874E+02  0.54096288941E+02  0.20000038274E+01 0.  0.
        -13    1    3    3    0    0 -0.11590382931E+02 -0.38313912647E+02 -0.65835793092E+02  0.77049696267E+02  0.10566000000E+00 0.  1.
         13    1    4    4    0    0  0.50007171623E+01  0.18642588344E+02 -0.17807478811E+02  0.26261582929E+02  0.10566000000E+00 0.  1.
        -13    1    4    4    0    0  0.59530049810E+01  0.18543131101E+02 -0.17252450485E+02  0.26018151185E+02  0.10566000000E+00 0. -1.
        -14    1    4    4    0    0  0.63666078792E+00  0.11281932025E+01 -0.12734655771E+01  0.18165548263E+01  0.00000000000E+00 0.  1.
<mgrwt>
<rscale>  0 0.82223637E+02</rscale>
<asrwt>0</asrwt>
<pdfrwt beam="1">  1        2 0.22289845E-02 0.82223637E+02</pdfrwt>
<pdfrwt beam="2">  1       -1 0.17947320E-01 0.82223637E+02</pdfrwt>
<totfact> 0.10696660E+05</totfact>
</mgrwt>
</event>
<event>
 8    1  0.1520917E-013  0.8154925E+02  0.7818608E-02  0.1324712E+00
         -1   -1    0    0    0  501 -0.00000000000E+00  0.00000000000E+00  0.96453043863E+01  0.96453057030E+01  0.50400000000E-02 0.  1.
          2   -1    0    0  501    0  0.00000000000E+00 -0.00000000000E+00 -0.17237091083E+03  0.17237091085E+03  0.25500000000E-02 0. -1.
         24    2    1    2    0    0  0.00000000000E+00  0.00000000000E+00 -0.16272560644E+03  0.18201621655E+03  0.81549249508E+02 0.  0.
         66    2    3    3    0    0 -0.32700033268E+02 -0.22171868485E+02 -0.10369577917E+03  0.11098512758E+03  0.19999998826E+01 0.  0.
        -13    1    3    3    0    0  0.32700033268E+02  0.22171868485E+02 -0.59029827273E+02  0.71031088966E+02  0.10566000000E+00 0.  1.
         13    1    4    4    0    0 -0.15132917392E+02 -0.10922932129E+02 -0.46864476185E+02  0.50444087139E+02  0.10566000000E+00 0. -1.
        -13    1    4    4    0    0 -0.67539023656E+01 -0.44863490638E+01 -0.22677878818E+02  0.24084017040E+02  0.10566000000E+00 0.  1.
         14    1    4    4    0    0 -0.10813213510E+02 -0.67625872917E+01 -0.34153424166E+02  0.36457023406E+02  0.00000000000E+00 0. -1.
<mgrwt>
<rscale>  0 0.81549250E+02</rscale>
<asrwt>0</asrwt>
<pdfrwt beam="1">  1        2 0.26518599E-01 0.81549250E+02</pdfrwt>
<pdfrwt beam="2">  1       -1 0.14838932E-02 0.81549250E+02</pdfrwt>
<totfact> 0.19927526E+05</totfact>
</mgrwt>
</event>
<event>
 8    1  0.1520917E-013  0.7766001E+02  0.7818608E-02  0.1335826E+00
         -1   -1    0    0    0  501 -0.00000000000E+00  0.00000000000E+00  0.37444861875E+02  0.37444862214E+02  0.50400000000E-02 0.  1.
          2   -1    0    0  501    0  0.00000000000E+00 -0.00000000000E+00 -0.40266390402E+02  0.40266390482E+02  0.25500000000E-02 0. -1.
         24    2    1    2    0    0  0.00000000000E+00  0.00000000000E+00 -0.28215285270E+01  0.77711252696E+02  0.77660013987E+02 0.  0.
         66    2    3    3    0    0 -0.35596013143E+02  0.80915175519E+01 -0.14581524865E+02  0.39359492817E+02  0.19999998683E+01 0.  0.
        -13    1    3    3    0    0  0.35596013143E+02 -0.80915175519E+01  0.11759996338E+02  0.38351759879E+02  0.10566000000E+00 0.  1.
         13    1    4    4    0    0 -0.82579331372E+01  0.16975225523E+01 -0.36369600566E+01  0.91822483632E+01  0.10566000000E+00 0. -1.
        -13    1    4    4    0    0 -0.58920566985E+01  0.10028483591E+01 -0.29221669468E+01  0.66537403519E+01  0.10566000000E+00 0.  1.
        -14    1    4    4    0    0 -0.21446023307E+02  0.53911466404E+01 -0.80223978617E+01  0.23523504102E+02  0.00000000000E+00 0.  1.
<mgrwt>
<rscale>  0 0.77660014E+02</rscale>
<asrwt>0</asrwt>
<pdfrwt beam="1">  1        2 0.61948293E-02 0.77660014E+02</pdfrwt>
<pdfrwt beam="2">  1       -1 0.57607481E-02 0.77660014E+02</pdfrwt>
<totfact> 0.15492296E+05</totfact>
</mgrwt>
</event>
<event>
 8    1  0.1520917E-013  0.7957119E+02  0.7818608E-02  0.1330273E+00
          2   -1    0    0  501    0  0.00000000000E+00  0.00000000000E+00  0.34169955285E+03  0.34169955286E+03  0.25500000000E-02 0. -1.
         -1   -1    0    0    0  501 -0.00000000000E+00 -0.00000000000E+00 -0.46324120530E+01  0.46324147948E+01  0.50400000000E-02 0.  1.
         24    2    1    2    0    0  0.00000000000E+00 -0.17763568394E-14  0.33706714079E+03  0.34633196765E+03  0.79571190855E+02 0.  0.
         66    2    3    3    0    0 -0.38379512562E+02  0.10167094788E+02  0.17790537122E+03  0.18229283556E+03  0.19999961953E+01 0.  0.
        -13    1    3    3    0    0  0.38379512562E+02 -0.10167094788E+02  0.15916176957E+03  0.16403913209E+03  0.10566000000E+00 0.  1.
         13    1    4    4    0    0 -0.11119310508E+02  0.31698463359E+01  0.49523558599E+02  0.50855491467E+02  0.10566000000E+00 0. -1.
        -13    1    4    4    0    0 -0.97890922774E+01  0.26097044535E+01  0.49204105846E+02  0.50236362140E+02  0.10566000000E+00 0.  1.
        -14    1    4    4    0    0 -0.17471109777E+02  0.43875439981E+01  0.79177706779E+02  0.81200981952E+02  0.00000000000E+00 0.  1.
<mgrwt>
<rscale>  0 0.79571191E+02</rscale>
<asrwt>0</asrwt>
<pdfrwt beam="1">  1        2 0.52569178E-01 0.79571191E+02</pdfrwt>
<pdfrwt beam="2">  1       -1 0.71267878E-03 0.79571191E+02</pdfrwt>
<totfact> 0.27097639E+05</totfact>
</mgrwt>
</event>
<event>
 8    1  0.1520917E-013  0.8415518E+02  0.7818608E-02  0.1317657E+00
          2   -1    0    0  501    0  0.00000000000E+00  0.00000000000E+00  0.10556058920E+02  0.10556059228E+02  0.25500000000E-02 0. -1.
         -1   -1    0    0    0  501 -0.00000000000E+00 -0.00000000000E+00 -0.16772579400E+03  0.16772579408E+03  0.50400000000E-02 0.  1.
         24    2    1    2    0    0  0.00000000000E+00  0.00000000000E+00 -0.15716973509E+03  0.17828185331E+03  0.84155175671E+02 0.  0.
         66    2    3    3    0    0  0.23966314950E+02  0.33305168170E+02 -0.59109125163E+02  0.71982686513E+02  0.20000002261E+01 0.  0.
        -13    1    3    3    0    0 -0.23966314950E+02 -0.33305168170E+02 -0.98060609922E+02  0.10629916680E+03  0.10566000000E+00 0.  1.
         13    1    4    4    0    0  0.11395293857E+00  0.24235726583E+00 -0.31294653574E+00  0.42523156790E+00  0.10566000000E+00 0.  1.
        -13    1    4    4    0    0  0.31844723972E+01  0.38010996129E+01 -0.73298584624E+01  0.88502662011E+01  0.10566000000E+00 0.  1.
         14    1    4    4    0    0  0.20667889614E+02  0.29261711291E+02 -0.51466320165E+02  0.62707188744E+02  0.00000000000E+00 0. -1.
<mgrwt>
<rscale>  0 0.84155176E+02</rscale>
<asrwt>0</asrwt>
<pdfrwt beam="1">  1        2 0.16240092E-02 0.84155176E+02</pdfrwt>
<pdfrwt beam="2">  1       -1 0.25803966E-01 0.84155176E+02</pdfrwt>
<totfact> 0.92125380E+04</totfact>
</mgrwt>
</event>
<event>
 8    1  0.1520917E-013  0.7923310E+02  0.7818608E-02  0.1331242E+00
          2   -1    0    0  501    0  0.00000000000E+00  0.00000000000E+00  0.67445694811E+03  0.67445694811E+03  0.25500000000E-02 0. -1.
         -1   -1    0    0    0  501 -0.00000000000E+00 -0.00000000000E+00 -0.23270119454E+01  0.23270174033E+01  0.50400000000E-02 0.  1.
         24    2    1    2    0    0  0.00000000000E+00  0.00000000000E+00  0.67212993616E+03  0.67678396551E+03  0.79233104784E+02 0.  0.
         66    2    3    3    0    0 -0.41031141401E+01 -0.17949742502E+02  0.63565651860E+03  0.63592628381E+03  0.20000003205E+01 0.  0.
        -13    1    3    3    0    0  0.41031141401E+01  0.17949742502E+02  0.36473417557E+02  0.40857681700E+02  0.10566000000E+00 0.  1.
         13    1    4    4    0    0 -0.16770947086E+01 -0.44771294066E+01  0.17078027623E+03  0.17084721609E+03  0.10566000000E+00 0. -1.
        -13    1    4    4    0    0 -0.97447031166E+00 -0.42970250230E+01  0.16591887766E+03  0.16597740552E+03  0.10566000000E+00 0.  1.
         14    1    4    4    0    0 -0.14515491199E+01 -0.91755880728E+01  0.29895736472E+03  0.29910166220E+03  0.00000000000E+00 0. -1.
<mgrwt>
<rscale>  0 0.79233105E+02</rscale>
<asrwt>0</asrwt>
<pdfrwt beam="1">  1        2 0.10376264E+00 0.79233105E+02</pdfrwt>
<pdfrwt beam="2">  1       -1 0.35800215E-03 0.79233105E+02</pdfrwt>
<totfact> 0.34000666E+05</totfact>
</mgrwt>
</event>
<event>
 8    1  0.1520917E-013  0.8171641E+02  0.7818608E-02  0.1324250E+00
         -1   -1    0    0    0  501 -0.00000000000E+00  0.00000000000E+00  0.54276812963E+01  0.54276836363E+01  0.50400000000E-02 0.  1.
          2   -1    0    0  501    0  0.00000000000E+00 -0.00000000000E+00 -0.30757011273E+03  0.30757011274E+03  0.25500000000E-02 0. -1.
         24    2    1    2    0    0  0.00000000000E+00  0.00000000000E+00 -0.30214243144E+03  0.31299779638E+03  0.81716410006E+02 0.  0.
         66    2    3    3    0    0 -0.32726432208E+02  0.16418258853E+02 -0.81917922194E+02  0.89750345724E+02  0.19999980646E+01 0.  0.
        -13    1    3    3    0    0  0.32726432208E+02 -0.16418258853E+02 -0.22022450924E+03  0.22324745065E+03  0.10566000000E+00 0.  1.
         13    1    4    4    0    0 -0.41146634452E+01  0.26031034878E+01 -0.11847255397E+02  0.12809185279E+02  0.10566000000E+00 0.  1.
        -13    1    4    4    0    0 -0.50103878387E+01  0.24323865926E+01 -0.12938681765E+02  0.14086913809E+02  0.10566000000E+00 0. -1.
        -14    1    4    4    0    0 -0.23601380924E+02  0.11382768773E+02 -0.57131985032E+02  0.62854246636E+02  0.00000000000E+00 0.  1.
<mgrwt>
<rscale>  0 0.81716410E+02</rscale>
<asrwt>0</asrwt>
<pdfrwt beam="1">  1        2 0.47318465E-01 0.81716410E+02</pdfrwt>
<pdfrwt beam="2">  1       -1 0.83502831E-03 0.81716410E+02</pdfrwt>
<totfact> 0.24331811E+05</totfact>
</mgrwt>
</event>
<event>
 8    1  0.1520917E-013  0.8060186E+02  0.7818608E-02  0.1327352E+00
          2   -1    0    0  501    0  0.00000000000E+00  0.00000000000E+00  0.22083869068E+03  0.22083869070E+03  0.25500000000E-02 0. -1.
         -1   -1    0    0    0  501 -0.00000000000E+00 -0.00000000000E+00 -0.73545295876E+01  0.73545313146E+01  0.50400000000E-02 0.  1.
         24    2    1    2    0    0  0.00000000000E+00  0.00000000000E+00  0.21348416110E+03  0.22819322201E+03  0.80601858128E+02 0.  0.
         66    2    3    3    0    0  0.31237180296E+02  0.24842511898E+02  0.12211871835E+03  0.12849082925E+03  0.19999999571E+01 0.  0.
        -13    1    3    3    0    0 -0.31237180296E+02 -0.24842511898E+02  0.91365442748E+02  0.99702392764E+02  0.10566000000E+00 0.  1.
         13    1    4    4    0    0  0.18684930842E+02  0.14445896326E+02  0.70701953371E+02  0.74542524345E+02  0.10566000000E+00 0. -1.
        -13    1    4    4    0    0  0.70210639192E+01  0.55262570673E+01  0.29699800358E+02  0.31014902242E+02  0.10566000000E+00 0.  1.
        -14    1    4    4    0    0  0.55311855356E+01  0.48703585049E+01  0.21716964619E+02  0.22933402662E+02  0.00000000000E+00 0.  1.
<mgrwt>
<rscale>  0 0.80601858E+02</rscale>
<asrwt>0</asrwt>
<pdfrwt beam="1">  1        2 0.33975186E-01 0.80601858E+02</pdfrwt>
<pdfrwt beam="2">  1       -1 0.11314661E-02 0.80601858E+02</pdfrwt>
<totfact> 0.22391222E+05</totfact>
</mgrwt>
</event>
<event>
 8    1  0.1520917E-013  0.7960625E+02  0.7818608E-02  0.1330173E+00
         -1   -1    0    0    0  501 -0.00000000000E+00  0.00000000000E+00  0.19082019537E+02  0.19082020202E+02  0.50400000000E-02 0.  1.
          2   -1    0    0  501    0  0.00000000000E+00 -0.00000000000E+00 -0.83025205481E+02  0.83025205520E+02  0.25500000000E-02 0. -1.
         24    2    1    2    0    0  0.00000000000E+00  0.00000000000E+00 -0.63943185944E+02  0.10210722572E+03  0.79606246715E+02 0.  0.
         66    2    3    3    0    0 -0.22403140274E+01 -0.12346939950E+02 -0.80407725898E+02  0.81405579097E+02  0.19999977491E+01 0.  0.
        -13    1    3    3    0    0  0.22403140274E+01  0.12346939950E+02  0.16464539954E+02  0.20701646625E+02  0.10566000000E+00 0.  1.
         13    1    4    4    0    0 -0.85843369683E+00 -0.84471863287E+01 -0.52551181709E+02  0.53232788094E+02  0.10566000000E+00 0. -1.
        -13    1    4    4    0    0 -0.48983839332E+00 -0.18542620645E+01 -0.15219662456E+02  0.15340388482E+02  0.10566000000E+00 0.  1.
         14    1    4    4    0    0 -0.89204193730E+00 -0.20454915566E+01 -0.12636881733E+02  0.12832402521E+02  0.00000000000E+00 0. -1.
<mgrwt>
<rscale>  0 0.79606247E+02</rscale>
<asrwt>0</asrwt>
<pdfrwt beam="1">  1        2 0.12773108E-01 0.79606247E+02</pdfrwt>
<pdfrwt beam="2">  1       -1 0.29356954E-02 0.79606247E+02</pdfrwt>
<totfact> 0.17082152E+05</totfact>
</mgrwt>
</event>
<event>
 8    1  0.1520917E-013  0.7817536E+02  0.7818608E-02  0.1334311E+00
          2   -1    0    0  501    0  0.00000000000E+00  0.00000000000E+00  0.57741627742E+01  0.57741633373E+01  0.25500000000E-02 0. -1.
         -1   -1    0    0    0  501 -0.00000000000E+00 -0.00000000000E+00 -0.26460055734E+03  0.26460055739E+03  0.50400000000E-02 0.  1.
         24    2    1    2    0    0 -0.35527136788E-14  0.35527136788E-14 -0.25882639457E+03  0.27037472073E+03  0.78175361101E+02 0.  0.
         66    2    3    3    0    0  0.27064926345E+02 -0.24786168826E+02 -0.83228110007E+02  0.90982320922E+02  0.20000054778E+01 0.  0.
        -13    1    3    3    0    0 -0.27064926345E+02  0.24786168826E+02 -0.17559828456E+03  0.17939239980E+03  0.10566000000E+00 0.  1.
         13    1    4    4    0    0  0.98921825315E+01 -0.96553891511E+01 -0.29724608468E+02  0.32781783470E+02  0.10566000000E+00 0. -1.
        -13    1    4    4    0    0  0.55285090521E+00 -0.67318574891E+00 -0.20876145780E+01  0.22645356782E+01  0.10566000000E+00 0. -1.
         14    1    4    4    0    0  0.16619892908E+02 -0.14457593926E+02 -0.51415886961E+02  0.55936001774E+02  0.00000000000E+00 0. -1.
<mgrwt>
<rscale>  0 0.78175361E+02</rscale>
<asrwt>0</asrwt>
<pdfrwt beam="1">  1        2 0.88833298E-03 0.78175361E+02</pdfrwt>
<pdfrwt beam="2">  1       -1 0.40707769E-01 0.78175361E+02</pdfrwt>
<totfact> 0.96246308E+04</totfact>
</mgrwt>
</event>
<event>
 8    1  0.1520917E-013  0.7909838E+02  0.7818608E-02  0.1331630E+00
          2   -1    0    0  501    0  0.00000000000E+00  0.00000000000E+00  0.87149022174E+03  0.87149022175E+03  0.25500000000E-02 0. -1.
         -1   -1    0    0    0  501 -0.00000000000E+00 -0.00000000000E+00 -0.17947825995E+01  0.17947896760E+01  0.50400000000E-02 0.  1.
         24    2    1    2    0    0  0.00000000000E+00  0.17763568394E-14  0.86969543914E+03  0.87328501142E+03  0.79098383730E+02 0.  0.
         66    2    3    3    0    0  0.25775098791E+02  0.10363158275E+02  0.74551455015E+03  0.74603464748E+03  0.19999987917E+01 0.  0.
        -13    1    3    3    0    0 -0.25775098791E+02 -0.10363158275E+02  0.12418088900E+03  0.12725036394E+03  0.10566000000E+00 0.  1.
         13    1    4    4    0    0  0.12714109578E+02  0.52663631404E+01  0.38663412375E+03  0.38687897329E+03  0.10566000000E+00 0. -1.
        -13    1    4    4    0    0  0.49374624713E+01  0.22652317373E+01  0.12922455594E+03  0.12933872905E+03  0.10566000000E+00 0.  1.
         14    1    4    4    0    0  0.81235267417E+01  0.28315633971E+01  0.22965587046E+03  0.22981694514E+03  0.00000000000E+00 0. -1.
<mgrwt>
<rscale>  0 0.79098384E+02</rscale>
<asrwt>0</asrwt>
<pdfrwt beam="1">  1        2 0.13407549E+00 0.79098384E+02</pdfrwt>
<pdfrwt beam="2">  1       -1 0.27612080E-03 0.79098384E+02</pdfrwt>
<totfact> 0.35851908E+05</totfact>
</mgrwt>
</event>
<event>
 8    1  0.1520917E-013  0.7722063E+02  0.7818608E-02  0.1337129E+00
         -1   -1    0    0    0  501 -0.00000000000E+00  0.00000000000E+00  0.10446571883E+02  0.10446573099E+02  0.50400000000E-02 0.  1.
          2   -1    0    0  501    0  0.00000000000E+00 -0.00000000000E+00 -0.14270291309E+03  0.14270291311E+03  0.25500000000E-02 0. -1.
         24    2    1    2    0    0  0.71054273576E-14  0.26645352591E-14 -0.13225634121E+03  0.15314948621E+03  0.77220627668E+02 0.  0.
         66    2    3    3    0    0  0.33552011990E+02  0.68308682755E+01 -0.10144750925E+03  0.10708872677E+03  0.19999993471E+01 0.  0.
        -13    1    3    3    0    0 -0.33552011990E+02 -0.68308682755E+01 -0.30808831953E+02  0.46060759442E+02  0.10566000000E+00 0.  1.
         13    1    4    4    0    0  0.30933347871E+01  0.10223786837E+01 -0.91427534531E+01  0.97064454368E+01  0.10566000000E+00 0. -1.
        -13    1    4    4    0    0  0.46627129683E+00 -0.13725608115E-01 -0.16252566709E+01  0.16941725403E+01  0.10566000000E+00 0.  1.
         14    1    4    4    0    0  0.29992405906E+02  0.58222152000E+01 -0.90679499129E+02  0.95688108792E+02  0.00000000000E+00 0. -1.
<mgrwt>
<rscale>  0 0.77220628E+02</rscale>
<asrwt>0</asrwt>
<pdfrwt beam="1">  1        2 0.21954293E-01 0.77220628E+02</pdfrwt>
<pdfrwt beam="2">  1       -1 0.16071651E-02 0.77220628E+02</pdfrwt>
<totfact> 0.21650429E+05</totfact>
</mgrwt>
</event>
<event>
 8    1  0.1520917E-013  0.8150758E+02  0.7818608E-02  0.1324827E+00
          2   -1    0    0  501    0  0.00000000000E+00  0.00000000000E+00  0.82553490951E+02  0.82553490990E+02  0.25500000000E-02 0. -1.
         -1   -1    0    0    0  501 -0.00000000000E+00 -0.00000000000E+00 -0.20118728353E+02  0.20118728984E+02  0.50400000000E-02 0.  1.
         24    2    1    2    0    0  0.00000000000E+00  0.17763568394E-14  0.62434762598E+02  0.10267221997E+03  0.81507577402E+02 0.  0.
         66    2    3    3    0    0  0.20014799726E+01 -0.10088970149E+02  0.80878312285E+02  0.81554243513E+02  0.19999990691E+01 0.  0.
        -13    1    3    3    0    0 -0.20014799726E+01  0.10088970149E+02 -0.18443549687E+02  0.21117976461E+02  0.10566000000E+00 0.  1.
         13    1    4    4    0    0  0.11878129097E+01 -0.61154038439E+01  0.45649439849E+02  0.46072677221E+02  0.10566000000E+00 0. -1.
        -13    1    4    4    0    0  0.54009851070E+00 -0.50521448988E+00  0.59569273856E+01  0.60035902587E+01  0.10566000000E+00 0.  1.
        -14    1    4    4    0    0  0.27356855216E+00 -0.34683518148E+01  0.29271945050E+02  0.29477976034E+02  0.00000000000E+00 0.  1.
<mgrwt>
<rscale>  0 0.81507577E+02</rscale>
<asrwt>0</asrwt>
<pdfrwt beam="1">  1        2 0.12700537E-01 0.81507577E+02</pdfrwt>
<pdfrwt beam="2">  1       -1 0.30951891E-02 0.81507577E+02</pdfrwt>
<totfact> 0.16005388E+05</totfact>
</mgrwt>
</event>
<event>
 8    1  0.1520917E-013  0.7485344E+02  0.7818608E-02  0.1344325E+00
          2   -1    0    0  501    0  0.00000000000E+00  0.00000000000E+00  0.49372205345E+02  0.49372205411E+02  0.25500000000E-02 0. -1.
         -1   -1    0    0    0  501 -0.00000000000E+00 -0.00000000000E+00 -0.28371418217E+02  0.28371418665E+02  0.50400000000E-02 0.  1.
         24    2    1    2    0    0  0.88817841970E-15  0.00000000000E+00  0.21000787128E+02  0.77743624076E+02  0.74853443638E+02 0.  0.
         66    2    3    3    0    0  0.46614000056E+01 -0.12610736658E+02  0.46755180877E+02  0.48690925569E+02  0.19999912353E+01 0.  0.
        -13    1    3    3    0    0 -0.46614000056E+01  0.12610736658E+02 -0.25754393749E+02  0.29052698506E+02  0.10566000000E+00 0.  1.
         13    1    4    4    0    0  0.68783104142E+00 -0.91558189742E+00  0.57668074977E+01  0.58803600658E+01  0.10566000000E+00 0. -1.
        -13    1    4    4    0    0  0.26385053832E+01 -0.73338549549E+01  0.25561025889E+02  0.26723105128E+02  0.10566000000E+00 0.  1.
         14    1    4    4    0    0  0.13350635810E+01 -0.43612998058E+01  0.15427347490E+02  0.16087460376E+02  0.00000000000E+00 0. -1.
<mgrwt>
<rscale>  0 0.74853444E+02</rscale>
<asrwt>0</asrwt>
<pdfrwt beam="1">  1        2 0.75957238E-02 0.74853444E+02</pdfrwt>
<pdfrwt beam="2">  1       -1 0.43648337E-02 0.74853444E+02</pdfrwt>
<totfact> 0.17864683E+05</totfact>
</mgrwt>
</event>
<event>
 8    1  0.1520917E-013  0.8107989E+02  0.7818608E-02  0.1326015E+00
          2   -1    0    0  501    0  0.00000000000E+00  0.00000000000E+00  0.18245219186E+03  0.18245219188E+03  0.25500000000E-02 0. -1.
         -1   -1    0    0    0  501 -0.00000000000E+00 -0.00000000000E+00 -0.90077668931E+01  0.90077683031E+01  0.50400000000E-02 0.  1.
         24    2    1    2    0    0  0.00000000000E+00 -0.71054273576E-14  0.17344442497E+03  0.19145996018E+03  0.81079885301E+02 0.  0.
         66    2    3    3    0    0  0.20869951246E+02  0.33288356139E+02  0.63420799106E+02  0.74631543556E+02  0.20000037163E+01 0.  0.
        -13    1    3    3    0    0 -0.20869951246E+02 -0.33288356139E+02  0.11002362586E+03  0.11682841663E+03  0.10566000000E+00 0.  1.
         13    1    4    4    0    0  0.94864683637E+01  0.15864303740E+02  0.29774111394E+02  0.35045371855E+02  0.10566000000E+00 0.  1.
        -13    1    4    4    0    0  0.34844629145E+00  0.10295268601E+01  0.18662596525E+01  0.21622741500E+01  0.10566000000E+00 0. -1.
         14    1    4    4    0    0  0.11035036591E+02  0.16394525539E+02  0.31780428060E+02  0.37423897551E+02  0.00000000000E+00 0. -1.
<mgrwt>
<rscale>  0 0.81079885E+02</rscale>
<asrwt>0</asrwt>
<pdfrwt beam="1">  1        2 0.28069567E-01 0.81079885E+02</pdfrwt>
<pdfrwt beam="2">  1       -1 0.13858104E-02 0.81079885E+02</pdfrwt>
<totfact> 0.20627891E+05</totfact>
</mgrwt>
</event>
<event>
 8    1  0.1520917E-013  0.8154536E+02  0.7818608E-02  0.1324722E+00
         -1   -1    0    0    0  501 -0.00000000000E+00  0.00000000000E+00  0.58404038977E+01  0.58404060724E+01  0.50400000000E-02 0.  1.
          2   -1    0    0  501    0  0.00000000000E+00 -0.00000000000E+00 -0.28463974286E+03  0.28463974287E+03  0.25500000000E-02 0. -1.
         24    2    1    2    0    0 -0.35527136788E-14  0.00000000000E+00 -0.27879933896E+03  0.29048014894E+03  0.81545358694E+02 0.  0.
         66    2    3    3    0    0  0.31439169846E+02  0.10208228756E+02 -0.22436343804E+03  0.22679413943E+03  0.20000034763E+01 0.  0.
        -13    1    3    3    0    0 -0.31439169846E+02 -0.10208228756E+02 -0.54435900918E+02  0.63686009513E+02  0.10566000000E+00 0.  1.
         13    1    4    4    0    0  0.78606920872E+01  0.25603447044E+01 -0.51676306175E+02  0.52333522994E+02  0.10566000000E+00 0. -1.
        -13    1    4    4    0    0  0.89968383394E+01  0.33008006608E+01 -0.64018540638E+02  0.64731932572E+02  0.10566000000E+00 0.  1.
        -14    1    4    4    0    0  0.14581639420E+02  0.43470833907E+01 -0.10866859123E+03  0.10972868386E+03  0.00000000000E+00 0.  1.
<mgrwt>
<rscale>  0 0.81545359E+02</rscale>
<asrwt>0</asrwt>
<pdfrwt beam="1">  1        2 0.43790719E-01 0.81545359E+02</pdfrwt>
<pdfrwt beam="2">  1       -1 0.89852407E-03 0.81545359E+02</pdfrwt>
<totfact> 0.23787875E+05</totfact>
</mgrwt>
</event>
<event>
 8    1  0.1520917E-013  0.7959175E+02  0.7818608E-02  0.1330214E+00
         -1   -1    0    0    0  501 -0.00000000000E+00  0.00000000000E+00  0.23464276676E+02  0.23464277217E+02  0.50400000000E-02 0.  1.
          2   -1    0    0  501    0  0.00000000000E+00 -0.00000000000E+00 -0.67494586019E+02  0.67494586067E+02  0.25500000000E-02 0. -1.
         24    2    1    2    0    0  0.88817841970E-15  0.00000000000E+00 -0.44030309343E+02  0.90958863284E+02  0.79591750007E+02 0.  0.
         66    2    3    3    0    0 -0.73859158703E+01 -0.21753788036E+02 -0.59129739884E+02  0.63467355253E+02  0.19999992139E+01 0.  0.
        -13    1    3    3    0    0  0.73859158703E+01  0.21753788036E+02  0.15099430541E+02  0.27491508032E+02  0.10566000000E+00 0.  1.
         13    1    4    4    0    0 -0.57801384220E+01 -0.16048667725E+02 -0.43182965324E+02  0.46430048397E+02  0.10566000000E+00 0. -1.
        -13    1    4    4    0    0 -0.80428707869E+00 -0.41861469121E+01 -0.10786213454E+02  0.11598459742E+02  0.10566000000E+00 0.  1.
        -14    1    4    4    0    0 -0.80149036962E+00 -0.15189733992E+01 -0.51605611057E+01  0.54388471136E+01  0.00000000000E+00 0.  1.
<mgrwt>
<rscale>  0 0.79591750E+02</rscale>
<asrwt>0</asrwt>
<pdfrwt beam="1">  1        2 0.10383782E-01 0.79591750E+02</pdfrwt>
<pdfrwt beam="2">  1       -1 0.36098888E-02 0.79591750E+02</pdfrwt>
<totfact> 0.16227755E+05</totfact>
</mgrwt>
</event>
<event>
 8    1  0.1520917E-013  0.8566365E+02  0.7818608E-02  0.1313706E+00
         -1   -1    0    0    0  501 -0.00000000000E+00  0.00000000000E+00  0.13131898670E+02  0.13131899637E+02  0.50400000000E-02 0.  1.
          2   -1    0    0  501    0  0.00000000000E+00 -0.00000000000E+00 -0.13970295329E+03  0.13970295332E+03  0.25500000000E-02 0. -1.
         24    2    1    2    0    0  0.44408920985E-15 -0.71054273576E-14 -0.12657105462E+03  0.15283485295E+03  0.85663646952E+02 0.  0.
         66    2    3    3    0    0 -0.27910552367E+01  0.33596707192E+02 -0.11038949827E+03  0.11543989803E+03  0.20000016122E+01 0.  0.
        -13    1    3    3    0    0  0.27910552367E+01 -0.33596707192E+02 -0.16181556355E+02  0.37394954921E+02  0.10566000000E+00 0.  1.
         13    1    4    4    0    0 -0.13538617941E+01  0.21281254006E+02 -0.70401898458E+02  0.73560608918E+02  0.10566000000E+00 0. -1.
        -13    1    4    4    0    0 -0.15824269870E+01  0.10409396460E+02 -0.34191224319E+02  0.35775838135E+02  0.10566000000E+00 0.  1.
        -14    1    4    4    0    0  0.14523354432E+00  0.19060567260E+01 -0.57963754920E+01  0.61034509803E+01  0.00000000000E+00 0.  1.
<mgrwt>
<rscale>  0 0.85663647E+02</rscale>
<asrwt>0</asrwt>
<pdfrwt beam="1">  1        2 0.21492761E-01 0.85663647E+02</pdfrwt>
<pdfrwt beam="2">  1       -1 0.20202923E-02 0.85663647E+02</pdfrwt>
<totfact> 0.16315210E+05</totfact>
</mgrwt>
</event>
<event>
 8    1  0.1520917E-013  0.8103557E+02  0.7818608E-02  0.1326138E+00
         -1   -1    0    0    0  501 -0.00000000000E+00  0.00000000000E+00  0.23611026281E+01  0.23611080073E+01  0.50400000000E-02 0.  1.
          2   -1    0    0  501    0  0.00000000000E+00 -0.00000000000E+00 -0.69530602762E+03  0.69530602762E+03  0.25500000000E-02 0. -1.
         24    2    1    2    0    0  0.00000000000E+00  0.00000000000E+00 -0.69294492499E+03  0.69766713563E+03  0.81035566691E+02 0.  0.
         66    2    3    3    0    0 -0.12035645190E+02 -0.32076282431E+02 -0.53252245940E+03  0.53362713051E+03  0.20000002815E+01 0.  0.
        -13    1    3    3    0    0  0.12035645190E+02  0.32076282431E+02 -0.16042246559E+03  0.16404000512E+03  0.10566000000E+00 0.  1.
         13    1    4    4    0    0 -0.78741497320E+01 -0.21742656291E+02 -0.37043315194E+03  0.37115424901E+03  0.10566000000E+00 0. -1.
        -13    1    4    4    0    0 -0.24863513065E+01 -0.63354256436E+01 -0.10322155047E+03  0.10344573073E+03  0.10566000000E+00 0.  1.
        -14    1    4    4    0    0 -0.16751441519E+01 -0.39982004966E+01 -0.58867756995E+02  0.59027150776E+02  0.00000000000E+00 0.  1.
<mgrwt>
<rscale>  0 0.81035567E+02</rscale>
<asrwt>0</asrwt>
<pdfrwt beam="1">  1        2 0.10696999E+00 0.81035567E+02</pdfrwt>
<pdfrwt beam="2">  1       -1 0.36324753E-03 0.81035567E+02</pdfrwt>
<totfact> 0.32300994E+05</totfact>
</mgrwt>
</event>
<event>
 8    1  0.1520917E-013  0.7981655E+02  0.7818608E-02  0.1329573E+00
          2   -1    0    0  501    0  0.00000000000E+00  0.00000000000E+00  0.37519188484E+02  0.37519188571E+02  0.25500000000E-02 0. -1.
         -1   -1    0    0    0  501 -0.00000000000E+00 -0.00000000000E+00 -0.42449489690E+02  0.42449489990E+02  0.50400000000E-02 0.  1.
         24    2    1    2    0    0  0.00000000000E+00  0.00000000000E+00 -0.49303012061E+01  0.79968678561E+02  0.79816550168E+02 0.  0.
         66    2    3    3    0    0  0.38930126479E+02  0.86023031692E+01 -0.14105989547E+01  0.39944263068E+02  0.19999987850E+01 0.  0.
        -13    1    3    3    0    0 -0.38930126479E+02 -0.86023031692E+01 -0.35197022513E+01  0.40024415492E+02  0.10566000000E+00 0.  1.
         13    1    4    4    0    0  0.29390914460E+02  0.65923044600E+01 -0.13942892747E+01  0.30153599080E+02  0.10566000000E+00 0. -1.
        -13    1    4    4    0    0  0.83276864440E+01  0.19449648831E+01 -0.24532712036E+00  0.85559686382E+01  0.10566000000E+00 0.  1.
        -14    1    4    4    0    0  0.12115255760E+01  0.65033826065E-01  0.22901744034E+00  0.12346953502E+01  0.00000000000E+00 0.  1.
<mgrwt>
<rscale>  0 0.79816550E+02</rscale>
<asrwt>0</asrwt>
<pdfrwt beam="1">  1        2 0.57721829E-02 0.79816550E+02</pdfrwt>
<pdfrwt beam="2">  1       -1 0.65306907E-02 0.79816550E+02</pdfrwt>
<totfact> 0.14159829E+05</totfact>
</mgrwt>
</event>
<event>
 8    1  0.1520917E-013  0.7700603E+02  0.7818608E-02  0.1337769E+00
          2   -1    0    0  501    0  0.00000000000E+00  0.00000000000E+00  0.29458347329E+03  0.29458347330E+03  0.25500000000E-02 0. -1.
         -1   -1    0    0    0  501 -0.00000000000E+00 -0.00000000000E+00 -0.50324673642E+01  0.50324698879E+01  0.50400000000E-02 0.  1.
         24    2    1    2    0    0  0.00000000000E+00 -0.44408920985E-15  0.28955100593E+03  0.29961594319E+03  0.77006028208E+02 0.  0.
         66    2    3    3    0    0 -0.28449641694E+02 -0.34625000295E+01  0.24476193767E+03  0.24644223899E+03  0.20000018238E+01 0.  0.
        -13    1    3    3    0    0  0.28449641694E+02  0.34625000295E+01  0.44789068254E+02  0.53173704197E+02  0.10566000000E+00 0.  1.
         13    1    4    4    0    0 -0.16584562510E+02 -0.13623335779E+01  0.14048506301E+03  0.14146719676E+03  0.10566000000E+00 0. -1.
        -13    1    4    4    0    0 -0.63170158510E+01 -0.15492470155E+01  0.54435529506E+02  0.54822831851E+02  0.10566000000E+00 0.  1.
         14    1    4    4    0    0 -0.55480633329E+01 -0.55091943607E+00  0.49841345157E+02  0.50152210381E+02  0.00000000000E+00 0. -1.
<mgrwt>
<rscale>  0 0.77006028E+02</rscale>
<asrwt>0</asrwt>
<pdfrwt beam="1">  1        2 0.45320534E-01 0.77006028E+02</pdfrwt>
<pdfrwt beam="2">  1       -1 0.77422596E-03 0.77006028E+02</pdfrwt>
<totfact> 0.27985930E+05</totfact>
</mgrwt>
</event>
<event>
 8    1  0.1520917E-013  0.7922079E+02  0.7818608E-02  0.1331277E+00
          2   -1    0    0  501    0  0.00000000000E+00  0.00000000000E+00  0.13881270858E+03  0.13881270860E+03  0.25500000000E-02 0. -1.
         -1   -1    0    0    0  501 -0.00000000000E+00 -0.00000000000E+00 -0.11302879748E+02  0.11302880872E+02  0.50400000000E-02 0.  1.
         24    2    1    2    0    0  0.17763568394E-14  0.17763568394E-14  0.12750982883E+03  0.15011558948E+03  0.79220791178E+02 0.  0.
         66    2    3    3    0    0 -0.81731965557E+01 -0.90609866514E+01  0.13515239794E+03  0.13571688649E+03  0.19999976986E+01 0.  0.
        -13    1    3    3    0    0  0.81731965557E+01  0.90609866514E+01 -0.76425691031E+01  0.14398702982E+02  0.10566000000E+00 0.  1.
         13    1    4    4    0    0 -0.45189261777E+01 -0.61132449394E+01  0.77766183007E+02  0.78136949269E+02  0.10566000000E+00 0. -1.
        -13    1    4    4    0    0 -0.11000722263E+01 -0.11546442263E+01  0.19702350379E+02  0.19767072031E+02  0.10566000000E+00 0. -1.
        -14    1    4    4    0    0 -0.25541981518E+01 -0.17930974857E+01  0.37683864549E+02  0.37812865193E+02  0.00000000000E+00 0.  1.
<mgrwt>
<rscale>  0 0.79220791E+02</rscale>
<asrwt>0</asrwt>
<pdfrwt beam="1">  1        2 0.21355802E-01 0.79220791E+02</pdfrwt>
<pdfrwt beam="2">  1       -1 0.17389047E-02 0.79220791E+02</pdfrwt>
<totfact> 0.20056368E+05</totfact>
</mgrwt>
</event>
<event>
 8    1  0.1520917E-013  0.7468899E+02  0.7818608E-02  0.1344837E+00
         -1   -1    0    0    0  501 -0.00000000000E+00  0.00000000000E+00  0.39466763537E+02  0.39466763859E+02  0.50400000000E-02 0.  1.
          2   -1    0    0  501    0  0.00000000000E+00 -0.00000000000E+00 -0.35336351909E+02  0.35336352001E+02  0.25500000000E-02 0. -1.
         24    2    1    2    0    0  0.00000000000E+00 -0.88817841970E-15  0.41304116278E+01  0.74803115860E+02  0.74688994117E+02 0.  0.
         66    2    3    3    0    0  0.95433199657E+01  0.32660242863E+01 -0.33916820776E+02  0.35441396789E+02  0.20000010387E+01 0.  0.
        -13    1    3    3    0    0 -0.95433199657E+01 -0.32660242863E+01  0.38047232404E+02  0.39361719072E+02  0.10566000000E+00 0.  1.
         13    1    4    4    0    0  0.26553419703E+01  0.11112187336E+01 -0.12238963081E+02  0.12573345990E+02  0.10566000000E+00 0. -1.
        -13    1    4    4    0    0  0.69038250581E+01  0.20926366420E+01 -0.21424072438E+02  0.22606281702E+02  0.10566000000E+00 0.  1.
         14    1    4    4    0    0 -0.15847062598E-01  0.62168910693E-01 -0.25378525755E+00  0.26176909634E+00  0.00000000000E+00 0. -1.
<mgrwt>
<rscale>  0 0.74688994E+02</rscale>
<asrwt>0</asrwt>
<pdfrwt beam="1">  1        2 0.54363619E-02 0.74688994E+02</pdfrwt>
<pdfrwt beam="2">  1       -1 0.60718098E-02 0.74688994E+02</pdfrwt>
<totfact> 0.16807480E+05</totfact>
</mgrwt>
</event>
<event>
 8    1  0.1520917E-013  0.8010645E+02  0.7818608E-02  0.1328750E+00
          2   -1    0    0  501    0  0.00000000000E+00  0.00000000000E+00  0.42084190305E+03  0.42084190306E+03  0.25500000000E-02 0. -1.
         -1   -1    0    0    0  501 -0.00000000000E+00 -0.00000000000E+00 -0.38120258418E+01  0.38120291736E+01  0.50400000000E-02 0.  1.
         24    2    1    2    0    0  0.00000000000E+00  0.88817841970E-15  0.41702987721E+03  0.42465393223E+03  0.80106452145E+02 0.  0.
         66    2    3    3    0    0  0.93390923670E+01  0.75088598647E+01  0.41110670216E+03  0.41128618039E+03  0.19999989713E+01 0.  0.
        -13    1    3    3    0    0 -0.93390923670E+01 -0.75088598647E+01  0.59231750544E+01  0.13367751848E+02  0.10566000000E+00 0.  1.
         13    1    4    4    0    0  0.64304024437E+01  0.49100160132E+01  0.26694224414E+03  0.26706484456E+03  0.10566000000E+00 0. -1.
        -13    1    4    4    0    0  0.21032897295E+01  0.24400966673E+01  0.11163591210E+03  0.11168243341E+03  0.10566000000E+00 0.  1.
        -14    1    4    4    0    0  0.80540019375E+00  0.15874718417E+00  0.32528545923E+02  0.32538902410E+02  0.00000000000E+00 0.  1.
<mgrwt>
<rscale>  0 0.80106452E+02</rscale>
<asrwt>0</asrwt>
<pdfrwt beam="1">  1        2 0.64744920E-01 0.80106452E+02</pdfrwt>
<pdfrwt beam="2">  1       -1 0.58646567E-03 0.80106452E+02</pdfrwt>
<totfact> 0.28656249E+05</totfact>
</mgrwt>
</event>
<event>
 8    1  0.1520917E-013  0.8255801E+02  0.7818608E-02  0.1321945E+00
          2   -1    0    0  501    0  0.00000000000E+00  0.00000000000E+00  0.42439640611E+03  0.42439640611E+03  0.25500000000E-02 0. -1.
         -1   -1    0    0    0  501 -0.00000000000E+00 -0.00000000000E+00 -0.40150097743E+01  0.40150129376E+01  0.50400000000E-02 0.  1.
         24    2    1    2    0    0  0.00000000000E+00  0.00000000000E+00  0.42038139633E+03  0.42841141905E+03  0.82558013492E+02 0.  0.
         66    2    3    3    0    0 -0.24574260534E+02  0.45697533738E+01  0.38062554418E+03  0.38145062827E+03  0.19999991060E+01 0.  0.
        -13    1    3    3    0    0  0.24574260534E+02 -0.45697533738E+01  0.39755852149E+02  0.46960790781E+02  0.10566000000E+00 0.  1.
         13    1    4    4    0    0 -0.18314405471E+02  0.35150104266E+01  0.28196809956E+03  0.28258413451E+03  0.10566000000E+00 0. -1.
        -13    1    4    4    0    0 -0.62438025084E+00  0.17794021061E+00  0.66497170665E+01  0.66821713923E+01  0.10566000000E+00 0. -1.
         14    1    4    4    0    0 -0.56354748121E+01  0.87680273654E+00  0.92007727559E+02  0.92184322366E+02  0.00000000000E+00 0. -1.
<mgrwt>
<rscale>  0 0.82558013E+02</rscale>
<asrwt>0</asrwt>
<pdfrwt beam="1">  1        2 0.65291746E-01 0.82558013E+02</pdfrwt>
<pdfrwt beam="2">  1       -1 0.61769414E-03 0.82558013E+02</pdfrwt>
<totfact> 0.26560965E+05</totfact>
</mgrwt>
</event>
<event>
 8    1  0.1520917E-013  0.8177187E+02  0.7818608E-02  0.1324097E+00
          2   -1    0    0  501    0  0.00000000000E+00  0.00000000000E+00  0.25257778830E+03  0.25257778831E+03  0.25500000000E-02 0. -1.
         -1   -1    0    0    0  501 -0.00000000000E+00 -0.00000000000E+00 -0.66183941177E+01  0.66183960367E+01  0.50400000000E-02 0.  1.
         24    2    1    2    0    0  0.00000000000E+00  0.00000000000E+00  0.24595939418E+03  0.25919618435E+03  0.81771867992E+02 0.  0.
         66    2    3    3    0    0  0.94077374797E+01  0.33606477013E+02  0.19042446169E+03  0.19360624066E+03  0.19999981274E+01 0.  0.
        -13    1    3    3    0    0 -0.94077374797E+01 -0.33606477013E+02  0.55534932495E+02  0.65589943688E+02  0.10566000000E+00 0.  1.
         13    1    4    4    0    0  0.71944396020E+01  0.23259619834E+02  0.13496916397E+03  0.13714757112E+03  0.10566000000E+00 0. -1.
        -13    1    4    4    0    0  0.74144576058E-01  0.65488054315E+00  0.31336478517E+01  0.32039473838E+01  0.10566000000E+00 0.  1.
         14    1    4    4    0    0  0.21391533016E+01  0.96919766359E+01  0.52321649867E+02  0.53254722164E+02  0.00000000000E+00 0. -1.
<mgrwt>
<rscale>  0 0.81771868E+02</rscale>
<asrwt>0</asrwt>
<pdfrwt beam="1">  1        2 0.38858118E-01 0.81771868E+02</pdfrwt>
<pdfrwt beam="2">  1       -1 0.10182147E-02 0.81771868E+02</pdfrwt>
<totfact> 0.22614319E+05</totfact>
</mgrwt>
</event>
<event>
 8    1  0.1520917E-013  0.7977602E+02  0.7818608E-02  0.1329688E+00
          2   -1    0    0  501    0  0.00000000000E+00  0.00000000000E+00  0.40033522731E+02  0.40033522812E+02  0.25500000000E-02 0. -1.
         -1   -1    0    0    0  501 -0.00000000000E+00 -0.00000000000E+00 -0.39743027905E+02  0.39743028225E+02  0.50400000000E-02 0.  1.
         24    2    1    2    0    0 -0.88817841970E-15  0.00000000000E+00  0.29049482586E+00  0.79776551037E+02  0.79776022137E+02 0.  0.
         66    2    3    3    0    0  0.77833548850E+01 -0.37729011265E+02  0.10391848064E+02  0.39950587074E+02  0.19999992547E+01 0.  0.
        -13    1    3    3    0    0 -0.77833548850E+01  0.37729011265E+02 -0.10101353239E+02  0.39825963963E+02  0.10566000000E+00 0.  1.
         13    1    4    4    0    0  0.22995017295E+01 -0.14276197116E+02  0.36680140861E+01  0.14918545629E+02  0.10566000000E+00 0. -1.
        -13    1    4    4    0    0  0.11807504290E+01 -0.35347279456E+01  0.83471714119E+00  0.38205222112E+01  0.10566000000E+00 0.  1.
        -14    1    4    4    0    0  0.43031027265E+01 -0.19918086203E+02  0.58891168371E+01  0.21211519234E+02  0.00000000000E+00 0.  1.
<mgrwt>
<rscale>  0 0.79776022E+02</rscale>
<asrwt>0</asrwt>
<pdfrwt beam="1">  1        2 0.61590035E-02 0.79776022E+02</pdfrwt>
<pdfrwt beam="2">  1       -1 0.61143120E-02 0.79776022E+02</pdfrwt>
<totfact> 0.14368614E+05</totfact>
</mgrwt>
</event>
<event>
 8    1  0.1520917E-013  0.7904816E+02  0.7818608E-02  0.1331775E+00
          2   -1    0    0  501    0  0.00000000000E+00  0.00000000000E+00  0.60295781672E+02  0.60295781725E+02  0.25500000000E-02 0. -1.
         -1   -1    0    0    0  501 -0.00000000000E+00 -0.00000000000E+00 -0.25908163431E+02  0.25908163921E+02  0.50400000000E-02 0.  1.
         24    2    1    2    0    0 -0.71054273576E-14  0.00000000000E+00  0.34387618241E+02  0.86203945646E+02  0.79048162260E+02 0.  0.
         66    2    3    3    0    0  0.34609097945E+02 -0.62862036564E+01  0.36799114144E+02  0.50945861559E+02  0.19999978027E+01 0.  0.
        -13    1    3    3    0    0 -0.34609097945E+02  0.62862036564E+01 -0.24114959030E+01  0.35258084087E+02  0.10566000000E+00 0.  1.
         13    1    4    4    0    0  0.27515992262E+02 -0.46322108045E+01  0.29976842726E+02  0.40953747947E+02  0.10566000000E+00 0. -1.
        -13    1    4    4    0    0  0.21627957391E+01 -0.30880510517E+00  0.21726329962E+01  0.30829440757E+01  0.10566000000E+00 0.  1.
         14    1    4    4    0    0  0.49303099444E+01 -0.13451877468E+01  0.46496384216E+01  0.69091695358E+01  0.00000000000E+00 0. -1.
<mgrwt>
<rscale>  0 0.79048162E+02</rscale>
<asrwt>0</asrwt>
<pdfrwt beam="1">  1        2 0.92762741E-02 0.79048162E+02</pdfrwt>
<pdfrwt beam="2">  1       -1 0.39858714E-02 0.79048162E+02</pdfrwt>
<totfact> 0.16099223E+05</totfact>
</mgrwt>
</event>
<event>
 8    1  0.1520917E-013  0.7906761E+02  0.7818608E-02  0.1331718E+00
         -1   -1    0    0    0  501 -0.00000000000E+00  0.00000000000E+00  0.46423967205E+01  0.46423994563E+01  0.50400000000E-02 0.  1.
          2   -1    0    0  501    0  0.00000000000E+00 -0.00000000000E+00 -0.33666259012E+03  0.33666259013E+03  0.25500000000E-02 0. -1.
         24    2    1    2    0    0 -0.35527136788E-14 -0.35527136788E-14 -0.33202019340E+03  0.34130498959E+03  0.79067610886E+02 0.  0.
         66    2    3    3    0    0  0.25285771435E+02  0.20645258648E+02 -0.26218582233E+03  0.26421771769E+03  0.19999921185E+01 0.  0.
        -13    1    3    3    0    0 -0.25285771435E+02 -0.20645258648E+02 -0.69834371067E+02  0.77087271894E+02  0.10566000000E+00 0.  1.
         13    1    4    4    0    0  0.19777556541E+01  0.20710400600E+01 -0.24791263532E+02  0.24956334585E+02  0.10566000000E+00 0. -1.
        -13    1    4    4    0    0  0.16203558871E+02  0.13262083021E+02 -0.17069472454E+03  0.17197423736E+03  0.10566000000E+00 0.  1.
        -14    1    4    4    0    0  0.71044569102E+01  0.53121355673E+01 -0.66699834260E+02  0.67287145746E+02  0.00000000000E+00 0.  1.
<mgrwt>
<rscale>  0 0.79067611E+02</rscale>
<asrwt>0</asrwt>
<pdfrwt beam="1">  1        2 0.51794226E-01 0.79067611E+02</pdfrwt>
<pdfrwt beam="2">  1       -1 0.71421536E-03 0.79067611E+02</pdfrwt>
<totfact> 0.27405112E+05</totfact>
</mgrwt>
</event>
<event>
 8    1  0.1520917E-013  0.8025367E+02  0.7818608E-02  0.1328333E+00
         -1   -1    0    0    0  501 -0.00000000000E+00  0.00000000000E+00  0.21044110933E+01  0.21044171286E+01  0.50400000000E-02 0.  1.
          2   -1    0    0  501    0  0.00000000000E+00 -0.00000000000E+00 -0.76513602548E+03  0.76513602549E+03  0.25500000000E-02 0. -1.
         24    2    1    2    0    0  0.00000000000E+00  0.00000000000E+00 -0.76303161439E+03  0.76724044262E+03  0.80253674229E+02 0.  0.
         66    2    3    3    0    0 -0.16185426017E+02 -0.64083860164E+01 -0.72712814639E+03  0.72733924457E+03  0.19999998383E+01 0.  0.
        -13    1    3    3    0    0  0.16185426017E+02  0.64083860164E+01 -0.35903468001E+02  0.39901198043E+02  0.10566000000E+00 0.  1.
         13    1    4    4    0    0 -0.11025904355E+02 -0.39426355367E+01 -0.48010623461E+03  0.48024902146E+03  0.10566000000E+00 0. -1.
        -13    1    4    4    0    0 -0.35857357286E+01 -0.18776515076E+01 -0.15443350748E+03  0.15448657700E+03  0.10566000000E+00 0.  1.
         14    1    4    4    0    0 -0.15737859333E+01 -0.58809897209E+00 -0.92588404299E+02  0.92603646112E+02  0.00000000000E+00 0. -1.
<mgrwt>
<rscale>  0 0.80253674E+02</rscale>
<asrwt>0</asrwt>
<pdfrwt beam="1">  1        2 0.11771301E+00 0.80253674E+02</pdfrwt>
<pdfrwt beam="2">  1       -1 0.32375663E-03 0.80253674E+02</pdfrwt>
<totfact> 0.33807566E+05</totfact>
</mgrwt>
</event>
<event>
 8    1  0.1520917E-013  0.7902882E+02  0.7818608E-02  0.1331830E+00
          2   -1    0    0  501    0  0.00000000000E+00  0.00000000000E+00  0.28251979498E+03  0.28251979499E+03  0.25500000000E-02 0. -1.
         -1   -1    0    0    0  501 -0.00000000000E+00 -0.00000000000E+00 -0.55266503400E+01  0.55266526381E+01  0.50400000000E-02 0.  1.
         24    2    1    2    0    0 -0.35527136788E-14  0.35527136788E-14  0.27699314464E+03  0.28804644763E+03  0.79028816355E+02 0.  0.
         66    2    3    3    0    0  0.30491201673E+02 -0.22171111361E+02  0.18141942448E+03  0.18530590691E+03  0.19999995367E+01 0.  0.
        -13    1    3    3    0    0 -0.30491201673E+02  0.22171111361E+02  0.95573720164E+02  0.10274054072E+03  0.10566000000E+00 0.  1.
         13    1    4    4    0    0  0.13768513742E+02 -0.10470460846E+02  0.79678768454E+02  0.81534776797E+02  0.10566000000E+00 0. -1.
        -13    1    4    4    0    0  0.55911781273E+01 -0.34507736989E+01  0.32238071818E+02  0.32900965800E+02  0.10566000000E+00 0.  1.
        -14    1    4    4    0    0  0.11131509804E+02 -0.82498768156E+01  0.69502584208E+02  0.70870164311E+02  0.00000000000E+00 0.  1.
<mgrwt>
<rscale>  0 0.79028816E+02</rscale>
<asrwt>0</asrwt>
<pdfrwt beam="1">  1        2 0.43464580E-01 0.79028816E+02</pdfrwt>
<pdfrwt beam="2">  1       -1 0.85025415E-03 0.79028816E+02</pdfrwt>
<totfact> 0.25757980E+05</totfact>
</mgrwt>
</event>
<event>
 8    1  0.1520917E-013  0.7881466E+02  0.7818608E-02  0.1332449E+00
         -1   -1    0    0    0  501 -0.00000000000E+00  0.00000000000E+00  0.68292462856E+01  0.68292481454E+01  0.50400000000E-02 0.  1.
          2   -1    0    0  501    0  0.00000000000E+00 -0.00000000000E+00 -0.22739516294E+03  0.22739516296E+03  0.25500000000E-02 0. -1.
         24    2    1    2    0    0 -0.35527136788E-14  0.35527136788E-14 -0.22056591666E+03  0.23422441110E+03  0.78814663392E+02 0.  0.
         66    2    3    3    0    0 -0.28371705509E+02  0.21268236238E+02 -0.16127908836E+03  0.16514307701E+03  0.19999991805E+01 0.  0.
        -13    1    3    3    0    0  0.28371705509E+02 -0.21268236238E+02 -0.59286828298E+02  0.69081334091E+02  0.10566000000E+00 0.  1.
         13    1    4    4    0    0 -0.18916611073E+02  0.14282065530E+02 -0.10999613174E+03  0.11252100130E+03  0.10566000000E+00 0. -1.
        -13    1    4    4    0    0 -0.86653343540E+01  0.63931080883E+01 -0.45635652597E+02  0.46889058452E+02  0.10566000000E+00 0.  1.
        -14    1    4    4    0    0 -0.78976008166E+00  0.59306261909E+00 -0.56473040196E+01  0.57330172637E+01  0.00000000000E+00 0.  1.
<mgrwt>
<rscale>  0 0.78814663E+02</rscale>
<asrwt>0</asrwt>
<pdfrwt beam="1">  1        2 0.34983866E-01 0.78814663E+02</pdfrwt>
<pdfrwt beam="2">  1       -1 0.10506536E-02 0.78814663E+02</pdfrwt>
<totfact> 0.23999785E+05</totfact>
</mgrwt>
</event>
<event>
 8    1  0.1520917E-013  0.7951313E+02  0.7818608E-02  0.1330439E+00
         -1   -1    0    0    0  501 -0.00000000000E+00  0.00000000000E+00  0.16332404783E+02  0.16332405561E+02  0.50400000000E-02 0.  1.
          2   -1    0    0  501    0  0.00000000000E+00 -0.00000000000E+00 -0.96775978289E+02  0.96775978323E+02  0.25500000000E-02 0. -1.
         24    2    1    2    0    0  0.35527136788E-14 -0.35527136788E-14 -0.80443573506E+02  0.11310838388E+03  0.79513130906E+02 0.  0.
         66    2    3    3    0    0 -0.25146350269E+02  0.22321664041E+02 -0.70355526784E+02  0.78003178171E+02  0.20000095744E+01 0.  0.
        -13    1    3    3    0    0  0.25146350269E+02 -0.22321664041E+02 -0.10088046721E+02  0.35105205712E+02  0.10566000000E+00 0.  1.
         13    1    4    4    0    0 -0.34288758869E+00  0.16007525666E+00 -0.65458391063E+00  0.76343966227E+00  0.10566000000E+00 0. -1.
        -13    1    4    4    0    0 -0.82375582502E+01  0.67121349958E+01 -0.21669076026E+02  0.24134418203E+02  0.10566000000E+00 0.  1.
         14    1    4    4    0    0 -0.16565904431E+02  0.15449453788E+02 -0.48031866848E+02  0.53105320307E+02  0.00000000000E+00 0. -1.
<mgrwt>
<rscale>  0 0.79513131E+02</rscale>
<asrwt>0</asrwt>
<pdfrwt beam="1">  1        2 0.14888612E-01 0.79513131E+02</pdfrwt>
<pdfrwt beam="2">  1       -1 0.25126778E-02 0.79513131E+02</pdfrwt>
<totfact> 0.17854735E+05</totfact>
</mgrwt>
</event>
<event>
 8    1  0.1520917E-013  0.7965265E+02  0.7818608E-02  0.1330040E+00
         -1   -1    0    0    0  501 -0.00000000000E+00  0.00000000000E+00  0.33127984308E+01  0.33128022646E+01  0.50400000000E-02 0.  1.
          2   -1    0    0  501    0  0.00000000000E+00 -0.00000000000E+00 -0.47879009343E+03  0.47879009344E+03  0.25500000000E-02 0. -1.
         24    2    1    2    0    0  0.00000000000E+00  0.00000000000E+00 -0.47547729500E+03  0.48210289571E+03  0.79652645806E+02 0.  0.
         66    2    3    3    0    0  0.11634620139E+02  0.10790602480E+02 -0.45881336936E+03  0.45909204892E+03  0.19999989647E+01 0.  0.
        -13    1    3    3    0    0 -0.11634620139E+02 -0.10790602480E+02 -0.16663925647E+02  0.23010846783E+02  0.10566000000E+00 0.  1.
         13    1    4    4    0    0  0.94926681298E+00  0.87940721880E+00 -0.36627985483E+02  0.36650988379E+02  0.10566000000E+00 0. -1.
        -13    1    4    4    0    0  0.51052401160E+01  0.48389680867E+01 -0.17702312240E+03  0.17716285197E+03  0.10566000000E+00 0.  1.
        -14    1    4    4    0    0  0.55801132105E+01  0.50722271746E+01 -0.24516226147E+03  0.24527820858E+03  0.00000000000E+00 0.  1.
<mgrwt>
<rscale>  0 0.79652646E+02</rscale>
<asrwt>0</asrwt>
<pdfrwt beam="1">  1        2 0.73659959E-01 0.79652646E+02</pdfrwt>
<pdfrwt beam="2">  1       -1 0.50966197E-03 0.79652646E+02</pdfrwt>
<totfact> 0.30371204E+05</totfact>
</mgrwt>
</event>
<event>
 8    1  0.1520917E-013  0.7964964E+02  0.7818608E-02  0.1330049E+00
          2   -1    0    0  501    0  0.00000000000E+00  0.00000000000E+00  0.31278709104E+03  0.31278709105E+03  0.25500000000E-02 0. -1.
         -1   -1    0    0    0  501 -0.00000000000E+00 -0.00000000000E+00 -0.50705920868E+01  0.50705945916E+01  0.50400000000E-02 0.  1.
         24    2    1    2    0    0 -0.17763568394E-14  0.00000000000E+00  0.30771649895E+03  0.31785768564E+03  0.79649636494E+02 0.  0.
         66    2    3    3    0    0 -0.11134618802E+02  0.17756924424E+02  0.28897531042E+03  0.28974129518E+03  0.20000002119E+01 0.  0.
        -13    1    3    3    0    0  0.11134618802E+02 -0.17756924424E+02  0.18741188536E+02  0.28116390462E+02  0.10566000000E+00 0.  1.
         13    1    4    4    0    0 -0.29265141857E+01  0.54892355646E+01  0.87057256991E+02  0.87279283631E+02  0.10566000000E+00 0. -1.
        -13    1    4    4    0    0 -0.54433875001E+01  0.88828245273E+01  0.13504213672E+03  0.13544343798E+03  0.10566000000E+00 0.  1.
         14    1    4    4    0    0 -0.27647171157E+01  0.33848643320E+01  0.66875916707E+02  0.67018573565E+02  0.00000000000E+00 0. -1.
<mgrwt>
<rscale>  0 0.79649636E+02</rscale>
<asrwt>0</asrwt>
<pdfrwt beam="1">  1        2 0.48121090E-01 0.79649636E+02</pdfrwt>
<pdfrwt beam="2">  1       -1 0.78009131E-03 0.79649636E+02</pdfrwt>
<totfact> 0.26181655E+05</totfact>
</mgrwt>
</event>
<event>
 8    1  0.1520917E-013  0.8002226E+02  0.7818608E-02  0.1328988E+00
         -1   -1    0    0    0  501 -0.00000000000E+00  0.00000000000E+00  0.35481881598E+01  0.35481917393E+01  0.50400000000E-02 0.  1.
          2   -1    0    0  501    0  0.00000000000E+00 -0.00000000000E+00 -0.45118513892E+03  0.45118513892E+03  0.25500000000E-02 0. -1.
         24    2    1    2    0    0 -0.35527136788E-14  0.00000000000E+00 -0.44763695076E+03  0.45473333066E+03  0.80022261485E+02 0.  0.
         66    2    3    3    0    0  0.23938193954E+02  0.14642901957E+01 -0.40577437208E+03  0.40648741962E+03  0.19999977431E+01 0.  0.
        -13    1    3    3    0    0 -0.23938193954E+02 -0.14642901957E+01 -0.41862578674E+02  0.48245911047E+02  0.10566000000E+00 0.  1.
         13    1    4    4    0    0  0.18442433485E+02  0.84218049063E+00 -0.30938798318E+03  0.30993832922E+03  0.10566000000E+00 0. -1.
        -13    1    4    4    0    0  0.82951181301E+00 -0.61237108112E-01 -0.10562144890E+02  0.10595372034E+02  0.10566000000E+00 0. -1.
        -14    1    4    4    0    0  0.46662486551E+01  0.68334681322E+00 -0.85824244017E+02  0.85953718363E+02  0.00000000000E+00 0.  1.
<mgrwt>
<rscale>  0 0.80022261E+02</rscale>
<asrwt>0</asrwt>
<pdfrwt beam="1">  1        2 0.69413053E-01 0.80022261E+02</pdfrwt>
<pdfrwt beam="2">  1       -1 0.54587574E-03 0.80022261E+02</pdfrwt>
<totfact> 0.29423094E+05</totfact>
</mgrwt>
</event>
<event>
 8    1  0.1520917E-013  0.8125356E+02  0.7818608E-02  0.1325531E+00
          2   -1    0    0  501    0  0.00000000000E+00  0.00000000000E+00  0.14225501589E+03  0.14225501591E+03  0.25500000000E-02 0. -1.
         -1   -1    0    0    0  501 -0.00000000000E+00 -0.00000000000E+00 -0.11602650452E+02  0.11602651547E+02  0.50400000000E-02 0.  1.
         24    2    1    2    0    0  0.00000000000E+00 -0.88817841970E-15  0.13065236544E+03  0.15385766746E+03  0.81253561409E+02 0.  0.
         66    2    3    3    0    0  0.25161872465E+02 -0.72176682065E+01  0.12413637920E+03  0.12688205253E+03  0.20000129677E+01 0.  0.
        -13    1    3    3    0    0 -0.25161872465E+02  0.72176682065E+01  0.65159862353E+01  0.26975614932E+02  0.10566000000E+00 0.  1.
         13    1    4    4    0    0  0.14877911487E+02 -0.39060142800E+01  0.74066899663E+02  0.75647379251E+02  0.10566000000E+00 0. -1.
        -13    1    4    4    0    0  0.12998881927E+01 -0.62901003186E+00  0.53219008732E+01  0.55153563687E+01  0.10566000000E+00 0.  1.
        -14    1    4    4    0    0  0.89840727861E+01 -0.26826438947E+01  0.44747578667E+02  0.45719316909E+02  0.00000000000E+00 0.  1.
<mgrwt>
<rscale>  0 0.81253561E+02</rscale>
<asrwt>0</asrwt>
<pdfrwt beam="1">  1        2 0.21885388E-01 0.81253561E+02</pdfrwt>
<pdfrwt beam="2">  1       -1 0.17850231E-02 0.81253561E+02</pdfrwt>
<totfact> 0.18895950E+05</totfact>
</mgrwt>
</event>
<event>
 8    1  0.1520917E-013  0.8025270E+02  0.7818608E-02  0.1328336E+00
          2   -1    0    0  501    0  0.00000000000E+00  0.00000000000E+00  0.28059224360E+02  0.28059224476E+02  0.25500000000E-02 0. -1.
         -1   -1    0    0    0  501 -0.00000000000E+00 -0.00000000000E+00 -0.57383048351E+02  0.57383048573E+02  0.50400000000E-02 0.  1.
         24    2    1    2    0    0  0.35527136788E-14  0.00000000000E+00 -0.29323823991E+02  0.85442273049E+02  0.80252696966E+02 0.  0.
         66    2    3    3    0    0 -0.23011104426E+02 -0.15845056158E+02  0.15956272469E+02  0.32236305047E+02  0.20000000954E+01 0.  0.
        -13    1    3    3    0    0  0.23011104426E+02  0.15845056158E+02 -0.45280096460E+02  0.53205968002E+02  0.10566000000E+00 0.  1.
         13    1    4    4    0    0 -0.12706614329E+02 -0.83464113650E+01  0.87212221843E+01  0.17526879665E+02  0.10566000000E+00 0. -1.
        -13    1    4    4    0    0 -0.12163410385E+01 -0.14152684708E+01  0.97248023680E+00  0.21069770319E+01  0.10566000000E+00 0.  1.
        -14    1    4    4    0    0 -0.90881490584E+01 -0.60833763224E+01  0.62625700483E+01  0.12602448349E+02  0.00000000000E+00 0.  1.
<mgrwt>
<rscale>  0 0.80252697E+02</rscale>
<asrwt>0</asrwt>
<pdfrwt beam="1">  1        2 0.43168038E-02 0.80252697E+02</pdfrwt>
<pdfrwt beam="2">  1       -1 0.88281613E-02 0.80252697E+02</pdfrwt>
<totfact> 0.13161748E+05</totfact>
</mgrwt>
</event>
<event>
 8    1  0.1520917E-013  0.7738898E+02  0.7818608E-02  0.1336629E+00
          2   -1    0    0  501    0  0.00000000000E+00  0.00000000000E+00  0.68902255139E+03  0.68902255140E+03  0.25500000000E-02 0. -1.
         -1   -1    0    0    0  501 -0.00000000000E+00 -0.00000000000E+00 -0.21730223146E+01  0.21730281593E+01  0.50400000000E-02 0.  1.
         24    2    1    2    0    0  0.44408920985E-15  0.00000000000E+00  0.68684952908E+03  0.69119557956E+03  0.77388975984E+02 0.  0.
         66    2    3    3    0    0 -0.22127682106E+01  0.15164000367E+02  0.66074066515E+03  0.66092137949E+03  0.20000068937E+01 0.  0.
        -13    1    3    3    0    0  0.22127682106E+01 -0.15164000367E+02  0.26108863925E+02  0.30274200069E+02  0.10566000000E+00 0.  1.
         13    1    4    4    0    0 -0.20903808729E+00  0.17505050854E+01  0.10112320035E+03  0.10113862159E+03  0.10566000000E+00 0. -1.
        -13    1    4    4    0    0 -0.50045599616E+00  0.67958377495E+01  0.27663841468E+03  0.27672234732E+03  0.10566000000E+00 0.  1.
         14    1    4    4    0    0 -0.15032741271E+01  0.66176575323E+01  0.28297905013E+03  0.28306041058E+03  0.00000000000E+00 0. -1.
<mgrwt>
<rscale>  0 0.77388976E+02</rscale>
<asrwt>0</asrwt>
<pdfrwt beam="1">  1        2 0.10600364E+00 0.77388976E+02</pdfrwt>
<pdfrwt beam="2">  1       -1 0.33431102E-03 0.77388976E+02</pdfrwt>
<totfact> 0.36327053E+05</totfact>
</mgrwt>
</event>
<event>
 8    1  0.1520917E-013  0.7996599E+02  0.7818608E-02  0.1329148E+00
          2   -1    0    0  501    0  0.00000000000E+00  0.00000000000E+00  0.71556058409E+03  0.71556058410E+03  0.25500000000E-02 0. -1.
         -1   -1    0    0    0  501 -0.00000000000E+00 -0.00000000000E+00 -0.22341056894E+01  0.22341113744E+01  0.50400000000E-02 0.  1.
         24    2    1    2    0    0  0.00000000000E+00  0.17763568394E-14  0.71332647840E+03  0.71779469547E+03  0.79965993122E+02 0.  0.
         66    2    3    3    0    0  0.16249574361E+02 -0.12537341132E+02  0.66462860745E+03  0.66494843364E+03  0.19999942808E+01 0.  0.
        -13    1    3    3    0    0 -0.16249574361E+02  0.12537341132E+02  0.48697870954E+02  0.52846261827E+02  0.10566000000E+00 0.  1.
         13    1    4    4    0    0  0.54553089954E+01 -0.42043812924E+01  0.19940213146E+03  0.19952107261E+03  0.10566000000E+00 0. -1.
        -13    1    4    4    0    0  0.58302945823E+01 -0.47859036839E+01  0.27199612316E+03  0.27210071552E+03  0.10566000000E+00 0.  1.
        -14    1    4    4    0    0  0.49639707836E+01 -0.35470561557E+01  0.19323035282E+03  0.19332664551E+03  0.00000000000E+00 0.  1.
<mgrwt>
<rscale>  0 0.79965993E+02</rscale>
<asrwt>0</asrwt>
<pdfrwt beam="1">  1        2 0.11008636E+00 0.79965993E+02</pdfrwt>
<pdfrwt beam="2">  1       -1 0.34370864E-03 0.79965993E+02</pdfrwt>
<totfact> 0.33654557E+05</totfact>
</mgrwt>
</event>
<event>
 8    1  0.1520917E-013  0.8105613E+02  0.7818608E-02  0.1326081E+00
          2   -1    0    0  501    0  0.00000000000E+00  0.00000000000E+00  0.42509823346E+03  0.42509823347E+03  0.25500000000E-02 0. -1.
         -1   -1    0    0    0  501 -0.00000000000E+00 -0.00000000000E+00 -0.38638679553E+01  0.38638712424E+01  0.50400000000E-02 0.  1.
         24    2    1    2    0    0 -0.35527136788E-14  0.17763568394E-14  0.42123436550E+03  0.42896210471E+03  0.81056132372E+02 0.  0.
         66    2    3    3    0    0  0.20630282983E+02 -0.15934126119E+02  0.37480325830E+03  0.37571397018E+03  0.20000002571E+01 0.  0.
        -13    1    3    3    0    0 -0.20630282983E+02  0.15934126119E+02  0.46431107200E+02  0.53248134530E+02  0.10566000000E+00 0.  1.
         13    1    4    4    0    0  0.67841134728E+01 -0.56533811512E+01  0.12376497534E+03  0.12407967278E+03  0.10566000000E+00 0. -1.
        -13    1    4    4    0    0  0.72020378380E+01 -0.50887568488E+01  0.13858105043E+03  0.13886138231E+03  0.10566000000E+00 0.  1.
        -14    1    4    4    0    0  0.66441316725E+01 -0.51919881188E+01  0.11245723254E+03  0.11277291509E+03  0.00000000000E+00 0.  1.
<mgrwt>
<rscale>  0 0.81056132E+02</rscale>
<asrwt>0</asrwt>
<pdfrwt beam="1">  1        2 0.65399695E-01 0.81056132E+02</pdfrwt>
<pdfrwt beam="2">  1       -1 0.59444179E-03 0.81056132E+02</pdfrwt>
<totfact> 0.27883690E+05</totfact>
</mgrwt>
</event>
<event>
 8    1  0.1520917E-013  0.8111519E+02  0.7818608E-02  0.1325916E+00
         -1   -1    0    0    0  501 -0.00000000000E+00  0.00000000000E+00  0.60373934839E+01  0.60373955876E+01  0.50400000000E-02 0.  1.
          2   -1    0    0  501    0  0.00000000000E+00 -0.00000000000E+00 -0.27245500244E+03  0.27245500245E+03  0.25500000000E-02 0. -1.
         24    2    1    2    0    0 -0.11102230246E-15  0.00000000000E+00 -0.26641760896E+03  0.27849239804E+03  0.81115186025E+02 0.  0.
         66    2    3    3    0    0 -0.73473226371E+00  0.34250485623E+02 -0.20766442203E+03  0.21048075393E+03  0.19999998397E+01 0.  0.
        -13    1    3    3    0    0  0.73473226371E+00 -0.34250485623E+02 -0.58753186921E+02  0.68011644108E+02  0.10566000000E+00 0.  1.
         13    1    4    4    0    0  0.16631281250E+00  0.19850394586E+02 -0.12227005206E+03  0.12387107257E+03  0.10566000000E+00 0. -1.
        -13    1    4    4    0    0 -0.20991505088E+00  0.52185140854E+01 -0.33488222822E+02  0.33893202643E+02  0.10566000000E+00 0.  1.
        -14    1    4    4    0    0 -0.69113002532E+00  0.91815769511E+01 -0.51906147152E+02  0.52716478716E+02  0.00000000000E+00 0.  1.
<mgrwt>
<rscale>  0 0.81115186E+02</rscale>
<asrwt>0</asrwt>
<pdfrwt beam="1">  1        2 0.41916145E-01 0.81115186E+02</pdfrwt>
<pdfrwt beam="2">  1       -1 0.92883014E-03 0.81115186E+02</pdfrwt>
<totfact> 0.23741045E+05</totfact>
</mgrwt>
</event>
<event>
 8    1  0.1520917E-013  0.8073923E+02  0.7818608E-02  0.1326967E+00
          2   -1    0    0  501    0  0.00000000000E+00  0.00000000000E+00  0.41537659686E+03  0.41537659686E+03  0.25500000000E-02 0. -1.
         -1   -1    0    0    0  501 -0.00000000000E+00 -0.00000000000E+00 -0.39234400601E+01  0.39234432972E+01  0.50400000000E-02 0.  1.
         24    2    1    2    0    0  0.00000000000E+00  0.00000000000E+00  0.41145315680E+03  0.41930004016E+03  0.80739231119E+02 0.  0.
         66    2    3    3    0    0  0.34193942267E+02  0.15528211781E+02  0.28241564067E+03  0.28490866104E+03  0.19999985945E+01 0.  0.
        -13    1    3    3    0    0 -0.34193942267E+02 -0.15528211781E+02  0.12903751613E+03  0.13439137912E+03  0.10566000000E+00 0.  1.
         13    1    4    4    0    0  0.12061769157E+02  0.46388342775E+01  0.96917240262E+02  0.97775087229E+02  0.10566000000E+00 0. -1.
        -13    1    4    4    0    0  0.68544511493E+01  0.29151723639E+01  0.56908327161E+02  0.57393820179E+02  0.10566000000E+00 0.  1.
        -14    1    4    4    0    0  0.15277721960E+02  0.79742051399E+01  0.12859007324E+03  0.12973975363E+03  0.00000000000E+00 0.  1.
<mgrwt>
<rscale>  0 0.80739231E+02</rscale>
<asrwt>0</asrwt>
<pdfrwt beam="1">  1        2 0.63904126E-01 0.80739231E+02</pdfrwt>
<pdfrwt beam="2">  1       -1 0.60360610E-03 0.80739231E+02</pdfrwt>
<totfact> 0.27946922E+05</totfact>
</mgrwt>
</event>
<event>
 8    1  0.1520917E-013  0.7738532E+02  0.7818608E-02  0.1336640E+00
          2   -1    0    0  501    0  0.00000000000E+00  0.00000000000E+00  0.11948765226E+04  0.11948765226E+04  0.25500000000E-02 0. -1.
         -1   -1    0    0    0  501 -0.00000000000E+00 -0.00000000000E+00 -0.12529460974E+01  0.12529562341E+01  0.50400000000E-02 0.  1.
         24    2    1    2    0    0  0.00000000000E+00 -0.17763568394E-14  0.11936235765E+04  0.11961294789E+04  0.77385320053E+02 0.  0.
         66    2    3    3    0    0 -0.16760763045E+02  0.12251259944E+02  0.11014187049E+04  0.11016161673E+04  0.19999966469E+01 0.  0.
        -13    1    3    3    0    0  0.16760763045E+02 -0.12251259944E+02  0.92204871627E+02  0.94513311570E+02  0.10566000000E+00 0.  1.
         13    1    4    4    0    0 -0.10400505134E+02  0.85244571843E+01  0.71740702396E+03  0.71753305573E+03  0.10566000000E+00 0. -1.
        -13    1    4    4    0    0 -0.19701181990E+01  0.83053590592E+00  0.10363948109E+03  0.10366158575E+03  0.10566000000E+00 0.  1.
         14    1    4    4    0    0 -0.43901397125E+01  0.28962668536E+01  0.28037219986E+03  0.28042152582E+03  0.00000000000E+00 0. -1.
<mgrwt>
<rscale>  0 0.77385320E+02</rscale>
<asrwt>0</asrwt>
<pdfrwt beam="1">  1        2 0.18382732E+00 0.77385320E+02</pdfrwt>
<pdfrwt beam="2">  1       -1 0.19276154E-03 0.77385320E+02</pdfrwt>
<totfact> 0.38207059E+05</totfact>
</mgrwt>
</event>
<event>
 8    1  0.1520917E-013  0.8088049E+02  0.7818608E-02  0.1326571E+00
         -1   -1    0    0    0  501 -0.00000000000E+00  0.00000000000E+00  0.95837021265E+01  0.95837034518E+01  0.50400000000E-02 0.  1.
          2   -1    0    0  501    0  0.00000000000E+00 -0.00000000000E+00 -0.17064526759E+03  0.17064526761E+03  0.25500000000E-02 0. -1.
         24    2    1    2    0    0 -0.17763568394E-14  0.00000000000E+00 -0.16106156546E+03  0.18022897106E+03  0.80880492951E+02 0.  0.
         66    2    3    3    0    0  0.72241391500E+01  0.86164355129E+01 -0.16708348785E+03  0.16747335031E+03  0.20000008472E+01 0.  0.
        -13    1    3    3    0    0 -0.72241391500E+01 -0.86164355129E+01  0.60219223906E+01  0.12755620750E+02  0.10566000000E+00 0.  1.
         13    1    4    4    0    0  0.49711331115E+01  0.69912906899E+01 -0.12078916857E+03  0.12109345448E+03  0.10566000000E+00 0. -1.
        -13    1    4    4    0    0  0.59183961345E+00  0.40187052347E+00 -0.15223043974E+02  0.15240210166E+02  0.10566000000E+00 0.  1.
         14    1    4    4    0    0  0.16611664250E+01  0.12232742995E+01 -0.31071275311E+02  0.31139685666E+02  0.00000000000E+00 0. -1.
<mgrwt>
<rscale>  0 0.80880493E+02</rscale>
<asrwt>0</asrwt>
<pdfrwt beam="1">  1        2 0.26253116E-01 0.80880493E+02</pdfrwt>
<pdfrwt beam="2">  1       -1 0.14744159E-02 0.80880493E+02</pdfrwt>
<totfact> 0.20298711E+05</totfact>
</mgrwt>
</event>
<event>
 8    1  0.1520917E-013  0.7995895E+02  0.7818608E-02  0.1329168E+00
         -1   -1    0    0    0  501 -0.00000000000E+00  0.00000000000E+00  0.23479169744E+01  0.23479223838E+01  0.50400000000E-02 0.  1.
          2   -1    0    0  501    0  0.00000000000E+00 -0.00000000000E+00 -0.68075520935E+03  0.68075520936E+03  0.25500000000E-02 0. -1.
         24    2    1    2    0    0  0.00000000000E+00  0.00000000000E+00 -0.67840729238E+03  0.68310313174E+03  0.79958953487E+02 0.  0.
         66    2    3    3    0    0 -0.57617901128E+01  0.34023200358E+02 -0.51146577748E+03  0.51263243939E+03  0.20000001762E+01 0.  0.
        -13    1    3    3    0    0  0.57617901128E+01 -0.34023200358E+02 -0.16694151490E+03  0.17047069235E+03  0.10566000000E+00 0.  1.
         13    1    4    4    0    0 -0.37113615610E+00  0.12694306991E+01 -0.24206117782E+02  0.24242452402E+02  0.10566000000E+00 0.  1.
        -13    1    4    4    0    0 -0.50415442081E+01  0.28703320812E+02 -0.42718992419E+03  0.42818283511E+03  0.10566000000E+00 0. -1.
        -14    1    4    4    0    0 -0.34910974866E+00  0.40504488465E+01 -0.60069735507E+02  0.60207151878E+02  0.00000000000E+00 0.  1.
<mgrwt>
<rscale>  0 0.79958953E+02</rscale>
<asrwt>0</asrwt>
<pdfrwt beam="1">  1        2 0.10473141E+00 0.79958953E+02</pdfrwt>
<pdfrwt beam="2">  1       -1 0.36121896E-03 0.79958953E+02</pdfrwt>
<totfact> 0.33278655E+05</totfact>
</mgrwt>
</event>
<event>
 8    1  0.1520917E-013  0.7903771E+02  0.7818608E-02  0.1331805E+00
         -1   -1    0    0    0  501 -0.00000000000E+00  0.00000000000E+00  0.10715366486E+03  0.10715366498E+03  0.50400000000E-02 0.  1.
          2   -1    0    0  501    0  0.00000000000E+00 -0.00000000000E+00 -0.14574767282E+02  0.14574767505E+02  0.25500000000E-02 0. -1.
         24    2    1    2    0    0  0.00000000000E+00  0.00000000000E+00  0.92578897579E+02  0.12172843249E+03  0.79037706181E+02 0.  0.
         66    2    3    3    0    0 -0.85758500578E+01  0.21444315000E+02 -0.30212521989E+01  0.23378019921E+02  0.20000001370E+01 0.  0.
        -13    1    3    3    0    0  0.85758500578E+01 -0.21444315000E+02  0.95600149778E+02  0.98350412565E+02  0.10566000000E+00 0.  1.
         13    1    4    4    0    0 -0.32339891190E+01  0.92079789504E+01 -0.76045586271E+00  0.97895362059E+01  0.10566000000E+00 0. -1.
        -13    1    4    4    0    0 -0.21641347042E+01  0.45955637064E+01 -0.13907908433E+01  0.52676510897E+01  0.10566000000E+00 0.  1.
        -14    1    4    4    0    0 -0.31777262346E+01  0.76407723429E+01 -0.87000549289E+00  0.83208326252E+01  0.00000000000E+00 0.  1.
<mgrwt>
<rscale>  0 0.79037706E+02</rscale>
<asrwt>0</asrwt>
<pdfrwt beam="1">  1        2 0.22422720E-02 0.79037706E+02</pdfrwt>
<pdfrwt beam="2">  1       -1 0.16485179E-01 0.79037706E+02</pdfrwt>
<totfact> 0.12035440E+05</totfact>
</mgrwt>
</event>
<event>
 8    1  0.1520917E-013  0.8115101E+02  0.7818608E-02  0.1325816E+00
         -1   -1    0    0    0  501 -0.00000000000E+00  0.00000000000E+00  0.32923300366E+02  0.32923300752E+02  0.50400000000E-02 0.  1.
          2   -1    0    0  501    0  0.00000000000E+00 -0.00000000000E+00 -0.50006271560E+02  0.50006271625E+02  0.25500000000E-02 0. -1.
         24    2    1    2    0    0  0.00000000000E+00 -0.71054273576E-14 -0.17082971194E+02  0.82929572376E+02  0.81151007817E+02 0.  0.
         66    2    3    3    0    0 -0.11220168553E+01 -0.36296847310E+02 -0.26987839717E+02  0.45288668681E+02  0.19999929613E+01 0.  0.
        -13    1    3    3    0    0  0.11220168553E+01  0.36296847310E+02  0.99048685229E+01  0.37640903695E+02  0.10566000000E+00 0.  1.
         13    1    4    4    0    0 -0.10231872941E+01 -0.35803042570E+02 -0.26389121183E+02  0.44489343110E+02  0.10566000000E+00 0. -1.
        -13    1    4    4    0    0 -0.47253007050E-01 -0.40135297175E+00 -0.42511894547E+00  0.59599262412E+00  0.10566000000E+00 0. -1.
         14    1    4    4    0    0 -0.51576554141E-01 -0.92451769072E-01 -0.17359958786E+00  0.20333294727E+00  0.00000000000E+00 0. -1.
<mgrwt>
<rscale>  0 0.81151008E+02</rscale>
<asrwt>0</asrwt>
<pdfrwt beam="1">  1        2 0.76932725E-02 0.81151008E+02</pdfrwt>
<pdfrwt beam="2">  1       -1 0.50651232E-02 0.81151008E+02</pdfrwt>
<totfact> 0.14369380E+05</totfact>
</mgrwt>
</event>
<event>
 8    1  0.1520917E-013  0.8051778E+02  0.7818608E-02  0.1327588E+00
         -1   -1    0    0    0  501 -0.00000000000E+00  0.00000000000E+00  0.19192269548E+01  0.19192335725E+01  0.50400000000E-02 0.  1.
          2   -1    0    0  501    0  0.00000000000E+00 -0.00000000000E+00 -0.84449396649E+03  0.84449396649E+03  0.25500000000E-02 0. -1.
         24    2    1    2    0    0  0.00000000000E+00  0.00000000000E+00 -0.84257473953E+03  0.84641320006E+03  0.80517784022E+02 0.  0.
         66    2    3    3    0    0 -0.81460889119E+01  0.24496708142E+02 -0.74594849794E+03  0.74639775525E+03  0.19999945659E+01 0.  0.
        -13    1    3    3    0    0  0.81460889119E+01 -0.24496708142E+02 -0.96626241588E+02  0.10001544482E+03  0.10566000000E+00 0.  1.
         13    1    4    4    0    0 -0.36558146033E+01  0.85956018292E+01 -0.27990062540E+03  0.28005645969E+03  0.10566000000E+00 0. -1.
        -13    1    4    4    0    0 -0.38884013802E+01  0.13872652830E+02 -0.39897773657E+03  0.39923779331E+03  0.10566000000E+00 0.  1.
         14    1    4    4    0    0 -0.60187292835E+00  0.20284534829E+01 -0.67070135972E+02  0.67103502248E+02  0.00000000000E+00 0. -1.
<mgrwt>
<rscale>  0 0.80517784E+02</rscale>
<asrwt>0</asrwt>
<pdfrwt beam="1">  1        2 0.12992185E+00 0.80517784E+02</pdfrwt>
<pdfrwt beam="2">  1       -1 0.29526687E-03 0.80517784E+02</pdfrwt>
<totfact> 0.34086775E+05</totfact>
</mgrwt>
</event>
<event>
 8    1  0.1520917E-013  0.8105033E+02  0.7818608E-02  0.1326097E+00
         -1   -1    0    0    0  501 -0.00000000000E+00  0.00000000000E+00  0.16660985644E+02  0.16660986407E+02  0.50400000000E-02 0.  1.
          2   -1    0    0  501    0  0.00000000000E+00 -0.00000000000E+00 -0.98570933007E+02  0.98570933040E+02  0.25500000000E-02 0. -1.
         24    2    1    2    0    0  0.00000000000E+00  0.00000000000E+00 -0.81909947363E+02  0.11523191945E+03  0.81050328700E+02 0.  0.
         66    2    3    3    0    0  0.19210092707E+02  0.34714955661E+02 -0.52541263527E+02  0.65869113989E+02  0.19999990964E+01 0.  0.
        -13    1    3    3    0    0 -0.19210092707E+02 -0.34714955661E+02 -0.29368683836E+02  0.49362805458E+02  0.10566000000E+00 0.  1.
         13    1    4    4    0    0  0.94138764056E+01  0.17468390390E+02 -0.25849692456E+02  0.32588088251E+02  0.10566000000E+00 0. -1.
        -13    1    4    4    0    0  0.44598981141E+01  0.66245290748E+01 -0.11113179793E+02  0.13685357350E+02  0.10566000000E+00 0.  1.
        -14    1    4    4    0    0  0.53363181874E+01  0.10622036196E+02 -0.15578391277E+02  0.19595668387E+02  0.00000000000E+00 0.  1.
<mgrwt>
<rscale>  0 0.81050329E+02</rscale>
<asrwt>0</asrwt>
<pdfrwt beam="1">  1        2 0.15164759E-01 0.81050329E+02</pdfrwt>
<pdfrwt beam="2">  1       -1 0.25632287E-02 0.81050329E+02</pdfrwt>
<totfact> 0.17047845E+05</totfact>
</mgrwt>
</event>
<event>
 8    1  0.1520917E-013  0.8094629E+02  0.7818608E-02  0.1326387E+00
          2   -1    0    0  501    0  0.00000000000E+00  0.00000000000E+00  0.41000240840E+03  0.41000240840E+03  0.25500000000E-02 0. -1.
         -1   -1    0    0    0  501 -0.00000000000E+00 -0.00000000000E+00 -0.39952807097E+01  0.39952838886E+01  0.50400000000E-02 0.  1.
         24    2    1    2    0    0  0.71054273576E-14 -0.35527136788E-14  0.40600712769E+03  0.41399769229E+03  0.80946287694E+02 0.  0.
         66    2    3    3    0    0  0.25867123716E+02 -0.18647593739E+02  0.33039737422E+03  0.33193864754E+03  0.20000002449E+01 0.  0.
        -13    1    3    3    0    0 -0.25867123716E+02  0.18647593739E+02  0.75609753468E+02  0.82059044749E+02  0.10566000000E+00 0.  1.
         13    1    4    4    0    0  0.47341879343E+01 -0.41781470829E+01  0.68720017939E+02  0.69009575263E+02  0.10566000000E+00 0. -1.
        -13    1    4    4    0    0  0.97840551257E+01 -0.68974233768E+01  0.11847311540E+03  0.11907641421E+03  0.10566000000E+00 0.  1.
         14    1    4    4    0    0  0.11348880657E+02 -0.75720232790E+01  0.14320424087E+03  0.14385265807E+03  0.00000000000E+00 0. -1.
<mgrwt>
<rscale>  0 0.80946288E+02</rscale>
<asrwt>0</asrwt>
<pdfrwt beam="1">  1        2 0.63077285E-01 0.80946288E+02</pdfrwt>
<pdfrwt beam="2">  1       -1 0.61465890E-03 0.80946288E+02</pdfrwt>
<totfact> 0.27635397E+05</totfact>
</mgrwt>
</event>
<event>
 8    1  0.1520917E-013  0.8134830E+02  0.7818608E-02  0.1325268E+00
         -1   -1    0    0    0  501 -0.00000000000E+00  0.00000000000E+00  0.38704124575E+01  0.38704157390E+01  0.50400000000E-02 0.  1.
          2   -1    0    0  501    0  0.00000000000E+00 -0.00000000000E+00 -0.42744429619E+03  0.42744429620E+03  0.25500000000E-02 0. -1.
         24    2    1    2    0    0  0.00000000000E+00  0.00000000000E+00 -0.42357388373E+03  0.43131471194E+03  0.81348299016E+02 0.  0.
         66    2    3    3    0    0  0.38950977220E+02 -0.11455631312E+02 -0.20134850391E+03  0.20541088126E+03  0.19999990516E+01 0.  0.
        -13    1    3    3    0    0 -0.38950977220E+02  0.11455631312E+02 -0.22222537982E+03  0.22590383068E+03  0.10566000000E+00 0.  1.
         13    1    4    4    0    0  0.15158910917E+02 -0.39421105538E+01 -0.77362608488E+02  0.78932358205E+02  0.10566000000E+00 0. -1.
        -13    1    4    4    0    0  0.58712480850E+01 -0.24373867641E+01 -0.30783995594E+02  0.31433707339E+02  0.10566000000E+00 0.  1.
         14    1    4    4    0    0  0.17920818218E+02 -0.50761339936E+01 -0.93201899831E+02  0.95044815713E+02  0.00000000000E+00 0. -1.
<mgrwt>
<rscale>  0 0.81348299E+02</rscale>
<asrwt>0</asrwt>
<pdfrwt beam="1">  1        2 0.65760624E-01 0.81348299E+02</pdfrwt>
<pdfrwt beam="2">  1       -1 0.59544866E-03 0.81348299E+02</pdfrwt>
<totfact> 0.27674856E+05</totfact>
</mgrwt>
</event>
<event>
 8    1  0.1520917E-013  0.7971416E+02  0.7818608E-02  0.1329865E+00
          2   -1    0    0  501    0  0.00000000000E+00  0.00000000000E+00  0.29495624986E+03  0.29495624988E+03  0.25500000000E-02 0. -1.
         -1   -1    0    0    0  501 -0.00000000000E+00 -0.00000000000E+00 -0.53858373313E+01  0.53858396895E+01  0.50400000000E-02 0.  1.
         24    2    1    2    0    0  0.00000000000E+00  0.00000000000E+00  0.28957041253E+03  0.30034208957E+03  0.79714157774E+02 0.  0.
         66    2    3    3    0    0 -0.28247030823E+02 -0.23608340092E+02  0.20218205653E+03  0.20551601509E+03  0.20000004069E+01 0.  0.
        -13    1    3    3    0    0  0.28247030823E+02  0.23608340092E+02  0.87388356000E+02  0.94826074477E+02  0.10566000000E+00 0.  1.
         13    1    4    4    0    0 -0.99937331098E+01 -0.88756025283E+01  0.72869043973E+02  0.74084814606E+02  0.10566000000E+00 0. -1.
        -13    1    4    4    0    0 -0.16688625150E+02 -0.13824243820E+02  0.12073269600E+03  0.12266219864E+03  0.10566000000E+00 0.  1.
        -14    1    4    4    0    0 -0.15646725625E+01 -0.90849374433E+00  0.85803165579E+01  0.87690018443E+01  0.00000000000E+00 0.  1.
<mgrwt>
<rscale>  0 0.79714158E+02</rscale>
<asrwt>0</asrwt>
<pdfrwt beam="1">  1        2 0.45377886E-01 0.79714158E+02</pdfrwt>
<pdfrwt beam="2">  1       -1 0.82859052E-03 0.79714158E+02</pdfrwt>
<totfact> 0.25577348E+05</totfact>
</mgrwt>
</event>
<event>
 8    1  0.1520917E-013  0.7769018E+02  0.7818608E-02  0.1335737E+00
          2   -1    0    0  501    0  0.00000000000E+00  0.00000000000E+00  0.17015735778E+03  0.17015735780E+03  0.25500000000E-02 0. -1.
         -1   -1    0    0    0  501 -0.00000000000E+00 -0.00000000000E+00 -0.88679135129E+01  0.88679149451E+01  0.50400000000E-02 0.  1.
         24    2    1    2    0    0  0.00000000000E+00  0.35527136788E-14  0.16128944427E+03  0.17902527274E+03  0.77690176014E+02 0.  0.
         66    2    3    3    0    0  0.12935829375E+02  0.21218598578E+02  0.14941907017E+03  0.15148472895E+03  0.19999919805E+01 0.  0.
        -13    1    3    3    0    0 -0.12935829375E+02 -0.21218598578E+02  0.11870374100E+02  0.27540543795E+02  0.10566000000E+00 0.  1.
         13    1    4    4    0    0  0.11412221423E+01  0.21103471491E+01  0.16561427247E+02  0.16734634431E+02  0.10566000000E+00 0. -1.
        -13    1    4    4    0    0  0.64548007609E+01  0.99352243743E+01  0.74157731718E+02  0.75098292083E+02  0.10566000000E+00 0.  1.
         14    1    4    4    0    0  0.53398064716E+01  0.91730270548E+01  0.58699911203E+02  0.59651802435E+02  0.00000000000E+00 0. -1.
<mgrwt>
<rscale>  0 0.77690176E+02</rscale>
<asrwt>0</asrwt>
<pdfrwt beam="1">  1        2 0.26178055E-01 0.77690176E+02</pdfrwt>
<pdfrwt beam="2">  1       -1 0.13642945E-02 0.77690176E+02</pdfrwt>
<totfact> 0.22556248E+05</totfact>
</mgrwt>
</event>
<event>
 8    1  0.1520917E-013  0.7859758E+02  0.7818608E-02  0.1333079E+00
          2   -1    0    0  501    0  0.00000000000E+00  0.00000000000E+00  0.16055965790E+03  0.16055965792E+03  0.25500000000E-02 0. -1.
         -1   -1    0    0    0  501 -0.00000000000E+00 -0.00000000000E+00 -0.96188227873E+01  0.96188241077E+01  0.50400000000E-02 0.  1.
         24    2    1    2    0    0  0.00000000000E+00  0.71054273576E-14  0.15094083511E+03  0.17017848202E+03  0.78597582919E+02 0.  0.
         66    2    3    3    0    0 -0.23550025496E+01 -0.36239864733E+02  0.10788969127E+03  0.11385543183E+03  0.20000106648E+01 0.  0.
        -13    1    3    3    0    0  0.23550025496E+01  0.36239864733E+02  0.43051143836E+02  0.56323050188E+02  0.10566000000E+00 0.  1.
         13    1    4    4    0    0  0.10263309362E+00 -0.61622410380E+01  0.17339675504E+02  0.18402697052E+02  0.10566000000E+00 0.  1.
        -13    1    4    4    0    0 -0.12212498901E+01 -0.16307987550E+02  0.50749917677E+02  0.53319857628E+02  0.10566000000E+00 0. -1.
         14    1    4    4    0    0 -0.12363857532E+01 -0.13769636145E+02  0.39800098091E+02  0.42132877155E+02  0.00000000000E+00 0. -1.
<mgrwt>
<rscale>  0 0.78597583E+02</rscale>
<asrwt>0</asrwt>
<pdfrwt beam="1">  1        2 0.24701485E-01 0.78597583E+02</pdfrwt>
<pdfrwt beam="2">  1       -1 0.14798191E-02 0.78597583E+02</pdfrwt>
<totfact> 0.21459921E+05</totfact>
</mgrwt>
</event>
<event>
 8    1  0.1520917E-013  0.7443978E+02  0.7818608E-02  0.1345615E+00
         -1   -1    0    0    0  501 -0.00000000000E+00  0.00000000000E+00  0.84913467242E+01  0.84913482199E+01  0.50400000000E-02 0.  1.
          2   -1    0    0  501    0  0.00000000000E+00 -0.00000000000E+00 -0.16314491234E+03  0.16314491236E+03  0.25500000000E-02 0. -1.
         24    2    1    2    0    0  0.00000000000E+00  0.00000000000E+00 -0.15465356562E+03  0.17163626058E+03  0.74439778265E+02 0.  0.
         66    2    3    3    0    0  0.26383572379E+01 -0.36488047784E+02 -0.92845593582E+02  0.99813039189E+02  0.19999961237E+01 0.  0.
        -13    1    3    3    0    0 -0.26383572379E+01  0.36488047784E+02 -0.61807972035E+02  0.71823221392E+02  0.10566000000E+00 0.  1.
         13    1    4    4    0    0  0.19364948926E+01 -0.31987011503E+02 -0.80699653684E+02  0.86829512184E+02  0.10566000000E+00 0. -1.
        -13    1    4    4    0    0  0.35330412475E+00 -0.29457673502E+01 -0.72345229959E+01  0.78199652237E+01  0.10566000000E+00 0. -1.
         14    1    4    4    0    0  0.34855822056E+00 -0.15552689310E+01 -0.49114169019E+01  0.51635617809E+01  0.00000000000E+00 0. -1.
<mgrwt>
<rscale>  0 0.74439778E+02</rscale>
<asrwt>0</asrwt>
<pdfrwt beam="1">  1        2 0.25099215E-01 0.74439778E+02</pdfrwt>
<pdfrwt beam="2">  1       -1 0.13063613E-02 0.74439778E+02</pdfrwt>
<totfact> 0.24894460E+05</totfact>
</mgrwt>
</event>
<event>
 8    1  0.1520917E-013  0.7949649E+02  0.7818608E-02  0.1330486E+00
         -1   -1    0    0    0  501 -0.00000000000E+00  0.00000000000E+00  0.16898136717E+01  0.16898211877E+01  0.50400000000E-02 0.  1.
          2   -1    0    0  501    0  0.00000000000E+00 -0.00000000000E+00 -0.93496663772E+03  0.93496663773E+03  0.25500000000E-02 0. -1.
         24    2    1    2    0    0 -0.44408920985E-15  0.00000000000E+00 -0.93327682405E+03  0.93665645891E+03  0.79496488692E+02 0.  0.
         66    2    3    3    0    0  0.29333980835E+01  0.23781946213E+02 -0.84021860670E+03  0.84056260494E+03  0.19999992985E+01 0.  0.
        -13    1    3    3    0    0 -0.29333980835E+01 -0.23781946213E+02 -0.93058217354E+02  0.96093853972E+02  0.10566000000E+00 0.  1.
         13    1    4    4    0    0  0.19619877572E+01  0.15116219610E+02 -0.55233188548E+03  0.55254219058E+03  0.10566000000E+00 0. -1.
        -13    1    4    4    0    0  0.79678405585E+00  0.84300842072E+01 -0.27499640324E+03  0.27512676013E+03  0.10566000000E+00 0.  1.
        -14    1    4    4    0    0  0.17462627043E+00  0.23564239640E+00 -0.12890317983E+02  0.12893654229E+02  0.00000000000E+00 0.  1.
<mgrwt>
<rscale>  0 0.79496489E+02</rscale>
<asrwt>0</asrwt>
<pdfrwt beam="1">  1        2 0.14384061E+00 0.79496489E+02</pdfrwt>
<pdfrwt beam="2">  1       -1 0.25997266E-03 0.79496489E+02</pdfrwt>
<totfact> 0.35657650E+05</totfact>
</mgrwt>
</event>
<event>
 8    1  0.1520917E-013  0.7845405E+02  0.7818608E-02  0.1333497E+00
          2   -1    0    0  501    0  0.00000000000E+00  0.00000000000E+00  0.15680125319E+03  0.15680125321E+03  0.25500000000E-02 0. -1.
         -1   -1    0    0    0  501 -0.00000000000E+00 -0.00000000000E+00 -0.98134382064E+01  0.98134395006E+01  0.50400000000E-02 0.  1.
         24    2    1    2    0    0  0.00000000000E+00  0.17763568394E-14  0.14698781498E+03  0.16661469271E+03  0.78454050715E+02 0.  0.
         66    2    3    3    0    0  0.36213738767E+02 -0.13394029406E+02  0.87932747988E+02  0.96057290540E+02  0.19999994846E+01 0.  0.
        -13    1    3    3    0    0 -0.36213738767E+02  0.13394029406E+02  0.59055066992E+02  0.70557402168E+02  0.10566000000E+00 0.  1.
         13    1    4    4    0    0  0.22540895246E+02 -0.77214385279E+01  0.52950102125E+02  0.58064077109E+02  0.10566000000E+00 0. -1.
        -13    1    4    4    0    0  0.10348857747E+02 -0.42932918164E+01  0.27277765663E+02  0.29489301024E+02  0.10566000000E+00 0.  1.
         14    1    4    4    0    0  0.33239857749E+01 -0.13792990614E+01  0.77048801999E+01  0.85039124071E+01  0.00000000000E+00 0. -1.
<mgrwt>
<rscale>  0 0.78454051E+02</rscale>
<asrwt>0</asrwt>
<pdfrwt beam="1">  1        2 0.24123270E-01 0.78454051E+02</pdfrwt>
<pdfrwt beam="2">  1       -1 0.15097598E-02 0.78454051E+02</pdfrwt>
<totfact> 0.21397831E+05</totfact>
</mgrwt>
</event>
<event>
 8    1  0.1520917E-013  0.7930521E+02  0.7818608E-02  0.1331035E+00
          2   -1    0    0  501    0  0.00000000000E+00  0.00000000000E+00  0.14340510771E+03  0.14340510773E+03  0.25500000000E-02 0. -1.
         -1   -1    0    0    0  501 -0.00000000000E+00 -0.00000000000E+00 -0.10964246523E+02  0.10964247682E+02  0.50400000000E-02 0.  1.
         24    2    1    2    0    0  0.00000000000E+00  0.22204460493E-15  0.13244086119E+03  0.15436935541E+03  0.79305209029E+02 0.  0.
         66    2    3    3    0    0  0.35590787910E+02  0.10742364911E+01  0.10011546277E+03  0.10627776867E+03  0.20000153567E+01 0.  0.
        -13    1    3    3    0    0 -0.35590787910E+02 -0.10742364911E+01  0.32325398420E+02  0.48091586740E+02  0.10566000000E+00 0.  1.
         13    1    4    4    0    0  0.70709928702E+01 -0.19267132458E+00  0.21016225478E+02  0.22174962453E+02  0.10566000000E+00 0. -1.
        -13    1    4    4    0    0  0.17780184172E+02  0.84003161752E+00  0.47507873315E+02  0.50733123235E+02  0.10566000000E+00 0.  1.
        -14    1    4    4    0    0  0.10739610868E+02  0.42687619817E+00  0.31591363972E+02  0.33369682985E+02  0.00000000000E+00 0.  1.
<mgrwt>
<rscale>  0 0.79305209E+02</rscale>
<asrwt>0</asrwt>
<pdfrwt beam="1">  1        2 0.22062324E-01 0.79305209E+02</pdfrwt>
<pdfrwt beam="2">  1       -1 0.16868072E-02 0.79305209E+02</pdfrwt>
<totfact> 0.20206366E+05</totfact>
</mgrwt>
</event>
<event>
 8    1  0.1520917E-013  0.8334540E+02  0.7818608E-02  0.1319817E+00
         -1   -1    0    0    0  501 -0.00000000000E+00  0.00000000000E+00  0.47921997225E+01  0.47922023728E+01  0.50400000000E-02 0.  1.
          2   -1    0    0  501    0  0.00000000000E+00 -0.00000000000E+00 -0.36238334582E+03  0.36238334583E+03  0.25500000000E-02 0. -1.
         24    2    1    2    0    0  0.35527136788E-14 -0.44408920985E-15 -0.35759114609E+03  0.36717554820E+03  0.83345398373E+02 0.  0.
         66    2    3    3    0    0  0.31331929483E+02 -0.23626975136E+01 -0.29933256656E+03  0.30098381610E+03  0.20000017699E+01 0.  0.
        -13    1    3    3    0    0 -0.31331929483E+02  0.23626975136E+01 -0.58258579538E+02  0.66191732101E+02  0.10566000000E+00 0.  1.
         13    1    4    4    0    0  0.97341513093E+01 -0.15653737707E+01 -0.92800922714E+02  0.93323236749E+02  0.10566000000E+00 0. -1.
        -13    1    4    4    0    0  0.85388913323E+01 -0.42795018878E+00 -0.78693337692E+02  0.79156480264E+02  0.10566000000E+00 0.  1.
        -14    1    4    4    0    0  0.13058886841E+02 -0.36937355409E+00 -0.12783830615E+03  0.12850409909E+03  0.00000000000E+00 0.  1.
<mgrwt>
<rscale>  0 0.83345398E+02</rscale>
<asrwt>0</asrwt>
<pdfrwt beam="1">  1        2 0.55751262E-01 0.83345398E+02</pdfrwt>
<pdfrwt beam="2">  1       -1 0.73726199E-03 0.83345398E+02</pdfrwt>
<totfact> 0.24507751E+05</totfact>
</mgrwt>
</event>
<event>
 8    1  0.1520917E-013  0.7939043E+02  0.7818608E-02  0.1330790E+00
         -1   -1    0    0    0  501 -0.00000000000E+00  0.00000000000E+00  0.31346320776E+02  0.31346321181E+02  0.50400000000E-02 0.  1.
          2   -1    0    0  501    0  0.00000000000E+00 -0.00000000000E+00 -0.50267778636E+02  0.50267778701E+02  0.25500000000E-02 0. -1.
         24    2    1    2    0    0 -0.35527136788E-14  0.00000000000E+00 -0.18921457861E+02  0.81614099882E+02  0.79390425947E+02 0.  0.
         66    2    3    3    0    0  0.26859364606E+02  0.12342707222E+02 -0.36664064899E+02  0.47138323500E+02  0.19999997159E+01 0.  0.
        -13    1    3    3    0    0 -0.26859364606E+02 -0.12342707222E+02  0.17742607038E+02  0.34475776382E+02  0.10566000000E+00 0.  1.
         13    1    4    4    0    0  0.11118498426E+02  0.58962068243E+01 -0.15084532978E+02  0.19645369973E+02  0.10566000000E+00 0. -1.
        -13    1    4    4    0    0  0.25318732743E+01  0.73551741935E+00 -0.30962148397E+01  0.40680558649E+01  0.10566000000E+00 0. -1.
        -14    1    4    4    0    0  0.13208992906E+02  0.57109829779E+01 -0.18483317081E+02  0.23424897662E+02  0.00000000000E+00 0.  1.
<mgrwt>
<rscale>  0 0.79390426E+02</rscale>
<asrwt>0</asrwt>
<pdfrwt beam="1">  1        2 0.77335044E-02 0.79390426E+02</pdfrwt>
<pdfrwt beam="2">  1       -1 0.48225109E-02 0.79390426E+02</pdfrwt>
<totfact> 0.15276916E+05</totfact>
</mgrwt>
</event>
<event>
 8    1  0.1520917E-013  0.7629666E+02  0.7818608E-02  0.1339902E+00
         -1   -1    0    0    0  501 -0.00000000000E+00  0.00000000000E+00  0.10207932330E+02  0.10207933574E+02  0.50400000000E-02 0.  1.
          2   -1    0    0  501    0  0.00000000000E+00 -0.00000000000E+00 -0.14256509318E+03  0.14256509320E+03  0.25500000000E-02 0. -1.
         24    2    1    2    0    0  0.44408920985E-15  0.35527136788E-14 -0.13235716085E+03  0.15277302677E+03  0.76296655773E+02 0.  0.
         66    2    3    3    0    0  0.38401421402E+01  0.28602308621E+02 -0.11610031878E+03  0.11965000113E+03  0.19999995249E+01 0.  0.
        -13    1    3    3    0    0 -0.38401421402E+01 -0.28602308621E+02 -0.16256842064E+02  0.33123025647E+02  0.10566000000E+00 0.  1.
         13    1    4    4    0    0  0.25137796875E+01  0.12197925485E+02 -0.51713352160E+02  0.53192014722E+02  0.10566000000E+00 0. -1.
        -13    1    4    4    0    0  0.10431494566E+01  0.14240171061E+02 -0.55949551593E+02  0.57742827434E+02  0.10566000000E+00 0.  1.
         14    1    4    4    0    0  0.28321299610E+00  0.21642120750E+01 -0.84374150294E+01  0.87151589707E+01  0.00000000000E+00 0. -1.
<mgrwt>
<rscale>  0 0.76296656E+02</rscale>
<asrwt>0</asrwt>
<pdfrwt beam="1">  1        2 0.21933090E-01 0.76296656E+02</pdfrwt>
<pdfrwt beam="2">  1       -1 0.15704513E-02 0.76296656E+02</pdfrwt>
<totfact> 0.22343856E+05</totfact>
</mgrwt>
</event>
<event>
 8    1  0.1520917E-013  0.7856176E+02  0.7818608E-02  0.1333183E+00
         -1   -1    0    0    0  501 -0.00000000000E+00  0.00000000000E+00  0.14934809853E+02  0.14934810704E+02  0.50400000000E-02 0.  1.
          2   -1    0    0  501    0  0.00000000000E+00 -0.00000000000E+00 -0.10331484175E+03  0.10331484178E+03  0.25500000000E-02 0. -1.
         24    2    1    2    0    0 -0.35527136788E-14 -0.88817841970E-15 -0.88380031895E+02  0.11824965248E+03  0.78561760893E+02 0.  0.
         66    2    3    3    0    0 -0.27742336896E+02  0.65927393859E+01 -0.84827257765E+02  0.89514050226E+02  0.20000147253E+01 0.  0.
        -13    1    3    3    0    0  0.27742336896E+02 -0.65927393859E+01 -0.35527741304E+01  0.28735602257E+02  0.10566000000E+00 0.  1.
         13    1    4    4    0    0 -0.11141066758E+02  0.24974977242E+01 -0.34432813563E+02  0.36276585800E+02  0.10566000000E+00 0. -1.
        -13    1    4    4    0    0 -0.50770203025E+01  0.68047447502E+00 -0.16311842292E+02  0.17097559582E+02  0.10566000000E+00 0.  1.
         14    1    4    4    0    0 -0.11524249835E+02  0.34147671867E+01 -0.34082601909E+02  0.36139904844E+02  0.00000000000E+00 0. -1.
<mgrwt>
<rscale>  0 0.78561761E+02</rscale>
<asrwt>0</asrwt>
<pdfrwt beam="1">  1        2 0.15894591E-01 0.78561761E+02</pdfrwt>
<pdfrwt beam="2">  1       -1 0.22976632E-02 0.78561761E+02</pdfrwt>
<totfact> 0.18778530E+05</totfact>
</mgrwt>
</event>
<event>
 8    1  0.1520917E-013  0.8077599E+02  0.7818608E-02  0.1326864E+00
         -1   -1    0    0    0  501 -0.00000000000E+00  0.00000000000E+00  0.99000351976E+01  0.99000364805E+01  0.50400000000E-02 0.  1.
          2   -1    0    0  501    0  0.00000000000E+00 -0.00000000000E+00 -0.16476610055E+03  0.16476610057E+03  0.25500000000E-02 0. -1.
         24    2    1    2    0    0  0.00000000000E+00  0.35527136788E-14 -0.15486606535E+03  0.17466613705E+03  0.80775994170E+02 0.  0.
         66    2    3    3    0    0  0.83578140417E+01  0.29581630235E+02 -0.20916801953E+02  0.37234909768E+02  0.19999996583E+01 0.  0.
        -13    1    3    3    0    0 -0.83578140417E+01 -0.29581630235E+02 -0.13394926340E+03  0.13743122728E+03  0.10566000000E+00 0.  1.
         13    1    4    4    0    0  0.42273254792E+01  0.15941489682E+02 -0.10678227004E+02  0.19647826088E+02  0.10566000000E+00 0. -1.
        -13    1    4    4    0    0  0.20948749910E+01  0.87470359099E+01 -0.62196003025E+01  0.10935891843E+02  0.10566000000E+00 0.  1.
        -14    1    4    4    0    0  0.20356135715E+01  0.48931046424E+01 -0.40189746467E+01  0.66511918379E+01  0.00000000000E+00 0.  1.
<mgrwt>
<rscale>  0 0.80775994E+02</rscale>
<asrwt>0</asrwt>
<pdfrwt beam="1">  1        2 0.25348629E-01 0.80775994E+02</pdfrwt>
<pdfrwt beam="2">  1       -1 0.15230826E-02 0.80775994E+02</pdfrwt>
<totfact> 0.20132058E+05</totfact>
</mgrwt>
</event>
<event>
 8    1  0.1520917E-013  0.8011643E+02  0.7818608E-02  0.1328721E+00
          2   -1    0    0  501    0  0.00000000000E+00  0.00000000000E+00  0.12028866027E+03  0.12028866030E+03  0.25500000000E-02 0. -1.
         -1   -1    0    0    0  501 -0.00000000000E+00 -0.00000000000E+00 -0.13340081920E+02  0.13340082872E+02  0.50400000000E-02 0.  1.
         24    2    1    2    0    0  0.00000000000E+00  0.71054273576E-14  0.10694857835E+03  0.13362874317E+03  0.80116431460E+02 0.  0.
         66    2    3    3    0    0 -0.92505034596E+01  0.36377755496E+02  0.76723716453E+02  0.85436769254E+02  0.19999912468E+01 0.  0.
        -13    1    3    3    0    0  0.92505034596E+01 -0.36377755496E+02  0.30224861900E+02  0.48191973918E+02  0.10566000000E+00 0.  1.
         13    1    4    4    0    0 -0.74081681938E+01  0.26859634285E+02  0.57517761516E+02  0.63911070745E+02  0.10566000000E+00 0. -1.
        -13    1    4    4    0    0 -0.55037119521E+00  0.35550698843E+01  0.78037725263E+01  0.85936872187E+01  0.10566000000E+00 0.  1.
        -14    1    4    4    0    0 -0.12919640706E+01  0.59630513264E+01  0.11402182411E+02  0.12932011290E+02  0.00000000000E+00 0.  1.
<mgrwt>
<rscale>  0 0.80116431E+02</rscale>
<asrwt>0</asrwt>
<pdfrwt beam="1">  1        2 0.18505948E-01 0.80116431E+02</pdfrwt>
<pdfrwt beam="2">  1       -1 0.20523204E-02 0.80116431E+02</pdfrwt>
<totfact> 0.18627600E+05</totfact>
</mgrwt>
</event>
<event>
 8    1  0.1520917E-013  0.8039964E+02  0.7818608E-02  0.1327921E+00
         -1   -1    0    0    0  501 -0.00000000000E+00  0.00000000000E+00  0.13941445845E+02  0.13941446756E+02  0.50400000000E-02 0.  1.
          2   -1    0    0  501    0  0.00000000000E+00 -0.00000000000E+00 -0.11591520218E+03  0.11591520221E+03  0.25500000000E-02 0. -1.
         24    2    1    2    0    0  0.00000000000E+00  0.00000000000E+00 -0.10197375633E+03  0.12985664896E+03  0.80399641163E+02 0.  0.
         66    2    3    3    0    0  0.18454675005E+02  0.35662241944E+02 -0.53093065273E+02  0.66597628637E+02  0.20000074863E+01 0.  0.
        -13    1    3    3    0    0 -0.18454675005E+02 -0.35662241944E+02 -0.48880691059E+02  0.63259020325E+02  0.10566000000E+00 0.  1.
         13    1    4    4    0    0  0.29133943990E+01  0.50421001311E+01 -0.87063623509E+01  0.10474853225E+02  0.10566000000E+00 0.  1.
        -13    1    4    4    0    0  0.62725804850E+01  0.12879493524E+02 -0.18150711147E+02  0.23123280445E+02  0.10566000000E+00 0. -1.
        -14    1    4    4    0    0  0.92687001213E+01  0.17740648289E+02 -0.26235991775E+02  0.32999494967E+02  0.00000000000E+00 0.  1.
<mgrwt>
<rscale>  0 0.80399641E+02</rscale>
<asrwt>0</asrwt>
<pdfrwt beam="1">  1        2 0.17833107E-01 0.80399641E+02</pdfrwt>
<pdfrwt beam="2">  1       -1 0.21448380E-02 0.80399641E+02</pdfrwt>
<totfact> 0.18250726E+05</totfact>
</mgrwt>
</event>
<event>
 8    1  0.1520917E-013  0.8003306E+02  0.7818608E-02  0.1328958E+00
          2   -1    0    0  501    0  0.00000000000E+00  0.00000000000E+00  0.21580323741E+03  0.21580323742E+03  0.25500000000E-02 0. -1.
         -1   -1    0    0    0  501 -0.00000000000E+00 -0.00000000000E+00 -0.74202887065E+01  0.74202904181E+01  0.50400000000E-02 0.  1.
         24    2    1    2    0    0  0.00000000000E+00 -0.44408920985E-15  0.20838294870E+03  0.22322352784E+03  0.80033056123E+02 0.  0.
         66    2    3    3    0    0  0.34325899729E+02 -0.31804585068E+01  0.16079652116E+03  0.16446246966E+03  0.20000001827E+01 0.  0.
        -13    1    3    3    0    0 -0.34325899729E+02  0.31804585068E+01  0.47586427545E+02  0.58761058185E+02  0.10566000000E+00 0.  1.
         13    1    4    4    0    0  0.30097227183E+02 -0.28309147342E+01  0.14023726388E+03  0.14345856024E+03  0.10566000000E+00 0. -1.
        -13    1    4    4    0    0  0.40872709194E+01 -0.28695184949E+00  0.19003216974E+02  0.19440204329E+02  0.10566000000E+00 0.  1.
         14    1    4    4    0    0  0.14140162642E+00 -0.62591923140E-01  0.15560403008E+01  0.15637050830E+01  0.00000000000E+00 0. -1.
<mgrwt>
<rscale>  0 0.80033056E+02</rscale>
<asrwt>0</asrwt>
<pdfrwt beam="1">  1        2 0.33200497E-01 0.80033056E+02</pdfrwt>
<pdfrwt beam="2">  1       -1 0.11415831E-02 0.80033056E+02</pdfrwt>
<totfact> 0.22628306E+05</totfact>
</mgrwt>
</event>
<event>
 8    1  0.1631228E-013  0.8014983E+02  0.7818608E-02  0.1328627E+00
         -1   -1    0    0    0  501 -0.00000000000E+00  0.00000000000E+00  0.10882066648E+03  0.10882066660E+03  0.50400000000E-02 0.  1.
          2   -1    0    0  501    0  0.00000000000E+00 -0.00000000000E+00 -0.14758215217E+02  0.14758215437E+02  0.25500000000E-02 0. -1.
         24    2    1    2    0    0 -0.71054273576E-14  0.00000000000E+00  0.94062451264E+02  0.12357888203E+03  0.80149830612E+02 0.  0.
         66    2    3    3    0    0  0.33658571866E+02  0.56953025683E+01  0.14767706680E+02  0.37248101811E+02  0.19999991267E+01 0.  0.
        -13    1    3    3    0    0 -0.33658571866E+02 -0.56953025683E+01  0.79294744584E+02  0.86330780224E+02  0.10566000000E+00 0.  1.
         13    1    4    4    0    0  0.17968564053E+02  0.35485446815E+01  0.76111150995E+01  0.19834356571E+02  0.10566000000E+00 0.  1.
        -13    1    4    4    0    0  0.13077845130E+02  0.20376670320E+01  0.56079298513E+01  0.14375053441E+02  0.10566000000E+00 0. -1.
        -14    1    4    4    0    0  0.26121626833E+01  0.10909085476E+00  0.15486617296E+01  0.30386917993E+01  0.00000000000E+00 0.  1.
<mgrwt>
<rscale>  0 0.80149831E+02</rscale>
<asrwt>0</asrwt>
<pdfrwt beam="1">  1        2 0.22704947E-02 0.80149831E+02</pdfrwt>
<pdfrwt beam="2">  1       -1 0.16741641E-01 0.80149831E+02</pdfrwt>
<totfact> 0.11582947E+05</totfact>
</mgrwt>
</event>
<event>
 8    1  0.1520917E-013  0.8596404E+02  0.7818608E-02  0.1312931E+00
         -1   -1    0    0    0  501 -0.00000000000E+00  0.00000000000E+00  0.39705371117E+01  0.39705403105E+01  0.50400000000E-02 0.  1.
          2   -1    0    0  501    0  0.00000000000E+00 -0.00000000000E+00 -0.46529051105E+03  0.46529051106E+03  0.25500000000E-02 0. -1.
         24    2    1    2    0    0 -0.35527136788E-14 -0.88817841970E-15 -0.46131997394E+03  0.46926105137E+03  0.85964038854E+02 0.  0.
         66    2    3    3    0    0 -0.14668724229E+02 -0.24402118242E+01 -0.45079016152E+03  0.45103979406E+03  0.19999997014E+01 0.  0.
        -13    1    3    3    0    0  0.14668724229E+02  0.24402118242E+01 -0.10529812419E+02  0.18221257307E+02  0.10566000000E+00 0.  1.
         13    1    4    4    0    0 -0.58985581701E+01 -0.39540865853E+00 -0.16727660702E+03  0.16738107348E+03  0.10566000000E+00 0. -1.
        -13    1    4    4    0    0 -0.33624554360E+00  0.86388625837E-01 -0.14564220311E+02  0.14568740555E+02  0.10566000000E+00 0.  1.
         14    1    4    4    0    0 -0.84339205152E+01 -0.21311917915E+01 -0.26894933419E+03  0.26908998003E+03  0.00000000000E+00 0. -1.
<mgrwt>
<rscale>  0 0.85964039E+02</rscale>
<asrwt>0</asrwt>
<pdfrwt beam="1">  1        2 0.71583112E-01 0.85964039E+02</pdfrwt>
<pdfrwt beam="2">  1       -1 0.61085248E-03 0.85964039E+02</pdfrwt>
<totfact> 0.24645036E+05</totfact>
</mgrwt>
</event>
<event>
 8    1  0.1520917E-013  0.7980857E+02  0.7818608E-02  0.1329596E+00
          2   -1    0    0  501    0  0.00000000000E+00  0.00000000000E+00  0.57493493261E+03  0.57493493261E+03  0.25500000000E-02 0. -1.
         -1   -1    0    0    0  501 -0.00000000000E+00 -0.00000000000E+00 -0.27696190997E+01  0.27696236855E+01  0.50400000000E-02 0.  1.
         24    2    1    2    0    0  0.00000000000E+00  0.00000000000E+00  0.57216531351E+03  0.57770455630E+03  0.79808573391E+02 0.  0.
         66    2    3    3    0    0 -0.63367961074E+01 -0.32887724602E+02  0.44295590881E+03  0.44422482435E+03  0.20000014216E+01 0.  0.
        -13    1    3    3    0    0  0.63367961074E+01  0.32887724602E+02  0.12920940470E+03  0.13347973195E+03  0.10566000000E+00 0.  1.
         13    1    4    4    0    0 -0.47810472256E+01 -0.22079862613E+02  0.30318166654E+03  0.30402222425E+03  0.10566000000E+00 0. -1.
        -13    1    4    4    0    0 -0.15766550689E+01 -0.86956352644E+01  0.11351039359E+03  0.11385394385E+03  0.10566000000E+00 0.  1.
         14    1    4    4    0    0  0.20906187123E-01 -0.21122267245E+01  0.26263848683E+02  0.26348656255E+02  0.00000000000E+00 0. -1.
<mgrwt>
<rscale>  0 0.79808573E+02</rscale>
<asrwt>0</asrwt>
<pdfrwt beam="1">  1        2 0.88451690E-01 0.79808573E+02</pdfrwt>
<pdfrwt beam="2">  1       -1 0.42609482E-03 0.79808573E+02</pdfrwt>
<totfact> 0.31974811E+05</totfact>
</mgrwt>
</event>
<event>
 8    1  0.1520917E-013  0.8209567E+02  0.7818608E-02  0.1323207E+00
         -1   -1    0    0    0  501 -0.00000000000E+00  0.00000000000E+00  0.27449552148E+02  0.27449552611E+02  0.50400000000E-02 0.  1.
          2   -1    0    0  501    0  0.00000000000E+00 -0.00000000000E+00 -0.61382593619E+02  0.61382593672E+02  0.25500000000E-02 0. -1.
         24    2    1    2    0    0  0.00000000000E+00  0.71054273576E-14 -0.33933041471E+02  0.88832146283E+02  0.82095669251E+02 0.  0.
         66    2    3    3    0    0  0.13894101593E+02  0.35024363671E+02 -0.34530159826E+02  0.51147669054E+02  0.20000006081E+01 0.  0.
        -13    1    3    3    0    0 -0.13894101593E+02 -0.35024363671E+02  0.59711835494E+00  0.37684477229E+02  0.10566000000E+00 0.  1.
         13    1    4    4    0    0  0.30528308157E+01  0.93279125563E+01 -0.84393627186E+01  0.12944641199E+02  0.10566000000E+00 0. -1.
        -13    1    4    4    0    0  0.43964815764E+01  0.10335836553E+02 -0.11136386468E+02  0.15817358664E+02  0.10566000000E+00 0.  1.
         14    1    4    4    0    0  0.64447892005E+01  0.15360614562E+02 -0.14954410640E+02  0.22385669191E+02  0.00000000000E+00 0. -1.
<mgrwt>
<rscale>  0 0.82095669E+02</rscale>
<asrwt>0</asrwt>
<pdfrwt beam="1">  1        2 0.94434759E-02 0.82095669E+02</pdfrwt>
<pdfrwt beam="2">  1       -1 0.42230081E-02 0.82095669E+02</pdfrwt>
<totfact> 0.14584554E+05</totfact>
</mgrwt>
</event>
<event>
 8    1  0.1520917E-013  0.8278311E+02  0.7818608E-02  0.1321334E+00
         -1   -1    0    0    0  501 -0.00000000000E+00  0.00000000000E+00  0.56197549084E+01  0.56197571684E+01  0.50400000000E-02 0.  1.
          2   -1    0    0  501    0  0.00000000000E+00 -0.00000000000E+00 -0.30486389084E+03  0.30486389085E+03  0.25500000000E-02 0. -1.
         24    2    1    2    0    0  0.00000000000E+00 -0.35527136788E-14 -0.29924413593E+03  0.31048364802E+03  0.82783106959E+02 0.  0.
         66    2    3    3    0    0 -0.13505127539E+02 -0.16579701794E+02 -0.28252272254E+03  0.28333789676E+03  0.20000022478E+01 0.  0.
        -13    1    3    3    0    0  0.13505127539E+02  0.16579701794E+02 -0.16721413392E+02  0.27145751257E+02  0.10566000000E+00 0.  1.
         13    1    4    4    0    0 -0.39786370582E+01 -0.61938847096E+01 -0.94295039444E+02  0.94582024658E+02  0.10566000000E+00 0. -1.
        -13    1    4    4    0    0 -0.63877644242E+01 -0.72803919067E+01 -0.13246892277E+03  0.13282256700E+03  0.10566000000E+00 0.  1.
        -14    1    4    4    0    0 -0.31387260569E+01 -0.31054251780E+01 -0.55758760327E+02  0.55933305105E+02  0.00000000000E+00 0.  1.
<mgrwt>
<rscale>  0 0.82783107E+02</rscale>
<asrwt>0</asrwt>
<pdfrwt beam="1">  1        2 0.46902124E-01 0.82783107E+02</pdfrwt>
<pdfrwt beam="2">  1       -1 0.86457809E-03 0.82783107E+02</pdfrwt>
<totfact> 0.23441136E+05</totfact>
</mgrwt>
</event>
<event>
 8    1  0.1520917E-013  0.7900552E+02  0.7818608E-02  0.1331898E+00
         -1   -1    0    0    0  501 -0.00000000000E+00  0.00000000000E+00  0.10039489186E+02  0.10039490451E+02  0.50400000000E-02 0.  1.
          2   -1    0    0  501    0  0.00000000000E+00 -0.00000000000E+00 -0.15543299692E+03  0.15543299694E+03  0.25500000000E-02 0. -1.
         24    2    1    2    0    0 -0.71054273576E-14  0.27755575616E-16 -0.14539350774E+03  0.16547248739E+03  0.79005518748E+02 0.  0.
         66    2    3    3    0    0 -0.38758809589E+02  0.57979829715E-01 -0.88446550634E+02  0.96586960833E+02  0.20000003860E+01 0.  0.
        -13    1    3    3    0    0  0.38758809589E+02 -0.57979829715E-01 -0.56946957103E+02  0.68885526562E+02  0.10566000000E+00 0.  1.
         13    1    4    4    0    0 -0.48175351109E+01 -0.25932210060E+00 -0.12291614968E+02  0.13204955700E+02  0.10566000000E+00 0. -1.
        -13    1    4    4    0    0 -0.47326819388E+00 -0.86291537607E-02 -0.10126757073E+01  0.11228238372E+01  0.10566000000E+00 0. -1.
         14    1    4    4    0    0 -0.33468006284E+02  0.32593108408E+00 -0.75142259959E+02  0.82259181295E+02  0.00000000000E+00 0. -1.
<mgrwt>
<rscale>  0 0.79005519E+02</rscale>
<asrwt>0</asrwt>
<pdfrwt beam="1">  1        2 0.23912767E-01 0.79005519E+02</pdfrwt>
<pdfrwt beam="2">  1       -1 0.15445370E-02 0.79005519E+02</pdfrwt>
<totfact> 0.20945020E+05</totfact>
</mgrwt>
</event>
<event>
 8    1  0.1520917E-013  0.8009898E+02  0.7818608E-02  0.1328771E+00
         -1   -1    0    0    0  501 -0.00000000000E+00  0.00000000000E+00  0.33740392578E+02  0.33740392955E+02  0.50400000000E-02 0.  1.
          2   -1    0    0  501    0  0.00000000000E+00 -0.00000000000E+00 -0.47538325756E+02  0.47538325825E+02  0.25500000000E-02 0. -1.
         24    2    1    2    0    0  0.00000000000E+00 -0.17763568394E-14 -0.13797933178E+02  0.81278718779E+02  0.80098983554E+02 0.  0.
         66    2    3    3    0    0 -0.10699731340E+02 -0.10658206356E+02 -0.44515001348E+02  0.47049622173E+02  0.19999970451E+01 0.  0.
        -13    1    3    3    0    0  0.10699731340E+02  0.10658206356E+02  0.30717068170E+02  0.34229096606E+02  0.10566000000E+00 0.  1.
         13    1    4    4    0    0 -0.37478297498E+01 -0.39539016369E+01 -0.15597206941E+02  0.16521609921E+02  0.10566000000E+00 0. -1.
        -13    1    4    4    0    0 -0.69927978802E+01 -0.65194199291E+01 -0.27900321356E+02  0.29493069596E+02  0.10566000000E+00 0.  1.
        -14    1    4    4    0    0  0.40896290022E-01 -0.18488479034E+00 -0.10174730508E+01  0.10349426561E+01  0.00000000000E+00 0.  1.
<mgrwt>
<rscale>  0 0.80098984E+02</rscale>
<asrwt>0</asrwt>
<pdfrwt beam="1">  1        2 0.73135885E-02 0.80098984E+02</pdfrwt>
<pdfrwt beam="2">  1       -1 0.51908297E-02 0.80098984E+02</pdfrwt>
<totfact> 0.14730798E+05</totfact>
</mgrwt>
</event>
<event>
 8    1  0.1520917E-013  0.8071695E+02  0.7818608E-02  0.1327029E+00
          2   -1    0    0  501    0  0.00000000000E+00  0.00000000000E+00  0.15460704153E+03  0.15460704155E+03  0.25500000000E-02 0. -1.
         -1   -1    0    0    0  501 -0.00000000000E+00 -0.00000000000E+00 -0.10535138173E+02  0.10535139378E+02  0.50400000000E-02 0.  1.
         24    2    1    2    0    0  0.00000000000E+00  0.00000000000E+00  0.14407190336E+03  0.16514218093E+03  0.80716953518E+02 0.  0.
         66    2    3    3    0    0 -0.18534582129E+02  0.11336286027E+02  0.14160474063E+03  0.14327576441E+03  0.19999956361E+01 0.  0.
        -13    1    3    3    0    0  0.18534582129E+02 -0.11336286027E+02  0.24671627300E+01  0.21866416523E+02  0.10566000000E+00 0.  1.
         13    1    4    4    0    0 -0.57675010178E+01  0.38019949008E+01  0.41687084461E+02  0.42255690837E+02  0.10566000000E+00 0. -1.
        -13    1    4    4    0    0 -0.93555371554E+01  0.48953125782E+01  0.69153062692E+02  0.69954609601E+02  0.10566000000E+00 0.  1.
        -14    1    4    4    0    0 -0.34115439558E+01  0.26389785479E+01  0.30764593478E+02  0.31065463972E+02  0.00000000000E+00 0.  1.
<mgrwt>
<rscale>  0 0.80716954E+02</rscale>
<asrwt>0</asrwt>
<pdfrwt beam="1">  1        2 0.23785696E-01 0.80716954E+02</pdfrwt>
<pdfrwt beam="2">  1       -1 0.16207908E-02 0.80716954E+02</pdfrwt>
<totfact> 0.19753901E+05</totfact>
</mgrwt>
</event>
<event>
 8    1  0.1520917E-013  0.7811100E+02  0.7818608E-02  0.1334499E+00
          2   -1    0    0  501    0  0.00000000000E+00  0.00000000000E+00  0.59519341050E+01  0.59519346513E+01  0.25500000000E-02 0. -1.
         -1   -1    0    0    0  501 -0.00000000000E+00 -0.00000000000E+00 -0.25627500210E+03  0.25627500215E+03  0.50400000000E-02 0.  1.
         24    2    1    2    0    0  0.00000000000E+00  0.00000000000E+00 -0.25032306800E+03  0.26222693681E+03  0.78110998032E+02 0.  0.
         66    2    3    3    0    0 -0.36471227085E+02 -0.93191299563E+01 -0.90625994548E+02  0.98153285596E+02  0.19999993082E+01 0.  0.
        -13    1    3    3    0    0  0.36471227085E+02  0.93191299563E+01 -0.15969707345E+03  0.16407365121E+03  0.10566000000E+00 0.  1.
         13    1    4    4    0    0 -0.75103767538E+01 -0.24443050721E+01 -0.18429395451E+02  0.20050789685E+02  0.10566000000E+00 0. -1.
        -13    1    4    4    0    0 -0.73146563845E+01 -0.11799544632E+01 -0.17723960481E+02  0.19210581192E+02  0.10566000000E+00 0.  1.
         14    1    4    4    0    0 -0.21646193946E+02 -0.56948704210E+01 -0.54472638616E+02  0.58891914719E+02  0.00000000000E+00 0. -1.
<mgrwt>
<rscale>  0 0.78110998E+02</rscale>
<asrwt>0</asrwt>
<pdfrwt beam="1">  1        2 0.91568241E-03 0.78110998E+02</pdfrwt>
<pdfrwt beam="2">  1       -1 0.39426915E-01 0.78110998E+02</pdfrwt>
<totfact> 0.97575886E+04</totfact>
</mgrwt>
</event>
<event>
 8    1  0.1520917E-013  0.8010898E+02  0.7818608E-02  0.1328742E+00
          2   -1    0    0  501    0  0.00000000000E+00  0.00000000000E+00  0.28621220593E+03  0.28621220594E+03  0.25500000000E-02 0. -1.
         -1   -1    0    0    0  501 -0.00000000000E+00 -0.00000000000E+00 -0.56054969708E+01  0.56054992365E+01  0.50400000000E-02 0.  1.
         24    2    1    2    0    0 -0.71054273576E-14 -0.17763568394E-14  0.28060670895E+03  0.29181770517E+03  0.80108975416E+02 0.  0.
         66    2    3    3    0    0 -0.33930848979E+02 -0.10379534829E+02  0.72894276925E+02  0.81096318410E+02  0.19999988754E+01 0.  0.
        -13    1    3    3    0    0  0.33930848979E+02  0.10379534829E+02  0.20771243203E+03  0.21072138676E+03  0.10566000000E+00 0.  1.
         13    1    4    4    0    0 -0.73032689628E+01 -0.17013567730E+01  0.15035350183E+02  0.16801942494E+02  0.10566000000E+00 0. -1.
        -13    1    4    4    0    0 -0.21123281483E+02 -0.73291645118E+01  0.45403024415E+02  0.50609835636E+02  0.10566000000E+00 0.  1.
        -14    1    4    4    0    0 -0.55042985333E+01 -0.13490135441E+01  0.12455902327E+02  0.13684540279E+02  0.00000000000E+00 0.  1.
<mgrwt>
<rscale>  0 0.80108975E+02</rscale>
<asrwt>0</asrwt>
<pdfrwt beam="1">  1        2 0.44032656E-01 0.80108975E+02</pdfrwt>
<pdfrwt beam="2">  1       -1 0.86238415E-03 0.80108975E+02</pdfrwt>
<totfact> 0.24974311E+05</totfact>
</mgrwt>
</event>
<event>
 8    1  0.1520917E-013  0.8678619E+02  0.7818608E-02  0.1310826E+00
         -1   -1    0    0    0  501 -0.00000000000E+00  0.00000000000E+00  0.19775405028E+01  0.19775469253E+01  0.50400000000E-02 0.  1.
          2   -1    0    0  501    0  0.00000000000E+00 -0.00000000000E+00 -0.95217155224E+03  0.95217155225E+03  0.25500000000E-02 0. -1.
         24    2    1    2    0    0  0.17763568394E-14  0.00000000000E+00 -0.95019401174E+03  0.95414909917E+03  0.86786194198E+02 0.  0.
         66    2    3    3    0    0  0.14191240711E+02  0.31327933595E+02 -0.76583930837E+03  0.76661377302E+03  0.20000005888E+01 0.  0.
        -13    1    3    3    0    0 -0.14191240711E+02 -0.31327933595E+02 -0.18435470338E+03  0.18753532616E+03  0.10566000000E+00 0.  1.
         13    1    4    4    0    0  0.41699655318E+01  0.78763131931E+01 -0.19116071456E+03  0.19136837480E+03  0.10566000000E+00 0. -1.
        -13    1    4    4    0    0  0.14400531463E+01  0.44549160281E+01 -0.10823274018E+03  0.10833400777E+03  0.10566000000E+00 0.  1.
        -14    1    4    4    0    0  0.85812220333E+01  0.18996704374E+02 -0.46644585363E+03  0.46691139044E+03  0.00000000000E+00 0.  1.
<mgrwt>
<rscale>  0 0.86786194E+02</rscale>
<asrwt>0</asrwt>
<pdfrwt beam="1">  1        2 0.14648757E+00 0.86786194E+02</pdfrwt>
<pdfrwt beam="2">  1       -1 0.30423826E-03 0.86786194E+02</pdfrwt>
<totfact> 0.28411335E+05</totfact>
</mgrwt>
</event>
<event>
 8    1  0.1520917E-013  0.8472092E+02  0.7818608E-02  0.1316164E+00
          2   -1    0    0  501    0  0.00000000000E+00  0.00000000000E+00  0.58850390257E+01  0.58850395782E+01  0.25500000000E-02 0. -1.
         -1   -1    0    0    0  501 -0.00000000000E+00 -0.00000000000E+00 -0.30491022436E+03  0.30491022440E+03  0.50400000000E-02 0.  1.
         24    2    1    2    0    0  0.00000000000E+00  0.00000000000E+00 -0.29902518533E+03  0.31079526398E+03  0.84720922138E+02 0.  0.
         66    2    3    3    0    0  0.38561919073E+02 -0.41222668782E+01 -0.87297836268E+02  0.95545418002E+02  0.19999993216E+01 0.  0.
        -13    1    3    3    0    0 -0.38561919073E+02  0.41222668782E+01 -0.21172734906E+03  0.21524984597E+03  0.10566000000E+00 0.  1.
         13    1    4    4    0    0  0.33921630657E+02 -0.34237150706E+01 -0.77802273656E+02  0.84944710261E+02  0.10566000000E+00 0. -1.
        -13    1    4    4    0    0  0.38565666594E+00 -0.97881453863E-01 -0.96341502872E+00  0.10476852563E+01  0.10566000000E+00 0. -1.
         14    1    4    4    0    0  0.42546317502E+01 -0.60067035374E+00 -0.85321475827E+01  0.95530224839E+01  0.00000000000E+00 0. -1.
<mgrwt>
<rscale>  0 0.84720922E+02</rscale>
<asrwt>0</asrwt>
<pdfrwt beam="1">  1        2 0.90539090E-03 0.84720922E+02</pdfrwt>
<pdfrwt beam="2">  1       -1 0.46909253E-01 0.84720922E+02</pdfrwt>
<totfact> 0.74105275E+04</totfact>
</mgrwt>
</event>
<event>
 8    1  0.1520917E-013  0.8029803E+02  0.7818608E-02  0.1328208E+00
         -1   -1    0    0    0  501 -0.00000000000E+00  0.00000000000E+00  0.65307033621E+01  0.65307053069E+01  0.50400000000E-02 0.  1.
          2   -1    0    0  501    0  0.00000000000E+00 -0.00000000000E+00 -0.24682535018E+03  0.24682535019E+03  0.25500000000E-02 0. -1.
         24    2    1    2    0    0  0.44408920985E-15  0.00000000000E+00 -0.24029464682E+03  0.25335605550E+03  0.80298029672E+02 0.  0.
         66    2    3    3    0    0 -0.23871685629E+01  0.21596181542E+02 -0.22665259500E+03  0.22770044456E+03  0.20000001535E+01 0.  0.
        -13    1    3    3    0    0  0.23871685629E+01 -0.21596181542E+02 -0.13642051817E+02  0.25655610941E+02  0.10566000000E+00 0.  1.
         13    1    4    4    0    0 -0.12526333544E+01  0.15569270605E+02 -0.16359318936E+03  0.16433719618E+03  0.10566000000E+00 0. -1.
        -13    1    4    4    0    0  0.90604789160E-01  0.14125889439E+01 -0.13498086933E+02  0.13572513829E+02  0.10566000000E+00 0.  1.
        -14    1    4    4    0    0 -0.12251399977E+01  0.46143219932E+01 -0.49561318704E+02  0.49790734551E+02  0.00000000000E+00 0.  1.
<mgrwt>
<rscale>  0 0.80298030E+02</rscale>
<asrwt>0</asrwt>
<pdfrwt beam="1">  1        2 0.37973124E-01 0.80298030E+02</pdfrwt>
<pdfrwt beam="2">  1       -1 0.10047239E-02 0.80298030E+02</pdfrwt>
<totfact> 0.23528193E+05</totfact>
</mgrwt>
</event>
<event>
 8    1  0.1520917E-013  0.7906083E+02  0.7818608E-02  0.1331738E+00
         -1   -1    0    0    0  501 -0.00000000000E+00  0.00000000000E+00  0.19703290985E+02  0.19703291630E+02  0.50400000000E-02 0.  1.
          2   -1    0    0  501    0  0.00000000000E+00 -0.00000000000E+00 -0.79309282311E+02  0.79309282352E+02  0.25500000000E-02 0. -1.
         24    2    1    2    0    0  0.00000000000E+00  0.35527136788E-14 -0.59605991326E+02  0.99012573982E+02  0.79060834833E+02 0.  0.
         66    2    3    3    0    0 -0.28318253667E+02 -0.27530111392E+02 -0.30954987067E+02  0.50219933829E+02  0.20000013761E+01 0.  0.
        -13    1    3    3    0    0  0.28318253667E+02  0.27530111392E+02 -0.28651004259E+02  0.48792640153E+02  0.10566000000E+00 0.  1.
         13    1    4    4    0    0 -0.55741278613E+01 -0.48948846224E+01 -0.59839426775E+01  0.95315020266E+01  0.10566000000E+00 0. -1.
        -13    1    4    4    0    0 -0.11676224975E+02 -0.12568240411E+02 -0.13789911800E+02  0.22010627619E+02  0.10566000000E+00 0.  1.
        -14    1    4    4    0    0 -0.11067900830E+02 -0.10066986358E+02 -0.11181132590E+02  0.18677804184E+02  0.00000000000E+00 0.  1.
<mgrwt>
<rscale>  0 0.79060835E+02</rscale>
<asrwt>0</asrwt>
<pdfrwt beam="1">  1        2 0.12201428E-01 0.79060835E+02</pdfrwt>
<pdfrwt beam="2">  1       -1 0.30312756E-02 0.79060835E+02</pdfrwt>
<totfact> 0.17197168E+05</totfact>
</mgrwt>
</event>
<event>
 8    1  0.1520917E-013  0.8150156E+02  0.7818608E-02  0.1324843E+00
          2   -1    0    0  501    0  0.00000000000E+00  0.00000000000E+00  0.17081269655E+04  0.17081269655E+04  0.25500000000E-02 0. -1.
         -1   -1    0    0    0  501 -0.00000000000E+00 -0.00000000000E+00 -0.97218469083E+00  0.97219775493E+00  0.50400000000E-02 0.  1.
         24    2    1    2    0    0 -0.17763568394E-14 -0.88817841970E-15  0.17071547809E+04  0.17090991633E+04  0.81501559530E+02 0.  0.
         66    2    3    3    0    0  0.14655286246E+02  0.25427629135E+01  0.16491260502E+04  0.16491943404E+04  0.19999981280E+01 0.  0.
        -13    1    3    3    0    0 -0.14655286246E+02 -0.25427629135E+01  0.58028730646E+02  0.59904822866E+02  0.10566000000E+00 0.  1.
         13    1    4    4    0    0  0.45663168846E+01  0.50216675713E+00  0.56093108118E+03  0.56094990188E+03  0.10566000000E+00 0. -1.
        -13    1    4    4    0    0  0.20169472626E+01  0.35578443988E+00  0.27566404897E+03  0.27567167739E+03  0.10566000000E+00 0.  1.
        -14    1    4    4    0    0  0.80720220984E+01  0.16848117165E+01  0.81253092005E+03  0.81257276116E+03  0.00000000000E+00 0.  1.
<mgrwt>
<rscale>  0 0.81501560E+02</rscale>
<asrwt>0</asrwt>
<pdfrwt beam="1">  1        2 0.26278796E+00 0.81501560E+02</pdfrwt>
<pdfrwt beam="2">  1       -1 0.14956834E-03 0.81501560E+02</pdfrwt>
<totfact> 0.29769934E+05</totfact>
</mgrwt>
</event>
<event>
 8    1  0.1520917E-013  0.8318130E+02  0.7818608E-02  0.1320258E+00
          2   -1    0    0  501    0  0.00000000000E+00  0.00000000000E+00  0.53998465127E+02  0.53998465188E+02  0.25500000000E-02 0. -1.
         -1   -1    0    0    0  501 -0.00000000000E+00 -0.00000000000E+00 -0.32033916731E+02  0.32033917127E+02  0.50400000000E-02 0.  1.
         24    2    1    2    0    0  0.00000000000E+00  0.88817841970E-15  0.21964548397E+02  0.86032382315E+02  0.83181304513E+02 0.  0.
         66    2    3    3    0    0  0.40932831226E+02  0.64585809406E+01  0.76264294707E+01  0.42182607420E+02  0.20000005710E+01 0.  0.
        -13    1    3    3    0    0 -0.40932831226E+02 -0.64585809406E+01  0.14338118926E+02  0.43849774895E+02  0.10566000000E+00 0.  1.
         13    1    4    4    0    0  0.28074477155E+01  0.71351489192E+00  0.81725594809E+00  0.30116336923E+01  0.10566000000E+00 0. -1.
        -13    1    4    4    0    0  0.21509873879E+02  0.34511366192E+01  0.44106831807E+01  0.22227242483E+02  0.10566000000E+00 0.  1.
        -14    1    4    4    0    0  0.16615509632E+02  0.22939294294E+01  0.23984903419E+01  0.16943731244E+02  0.00000000000E+00 0.  1.
<mgrwt>
<rscale>  0 0.83181305E+02</rscale>
<asrwt>0</asrwt>
<pdfrwt beam="1">  1        2 0.83074562E-02 0.83181305E+02</pdfrwt>
<pdfrwt beam="2">  1       -1 0.49282949E-02 0.83181305E+02</pdfrwt>
<totfact> 0.13658792E+05</totfact>
</mgrwt>
</event>
<event>
 8    1  0.1520917E-013  0.7946915E+02  0.7818608E-02  0.1330565E+00
         -1   -1    0    0    0  501 -0.00000000000E+00  0.00000000000E+00  0.77094584460E+01  0.77094600934E+01  0.50400000000E-02 0.  1.
          2   -1    0    0  501    0  0.00000000000E+00 -0.00000000000E+00 -0.20479212731E+03  0.20479212732E+03  0.25500000000E-02 0. -1.
         24    2    1    2    0    0  0.00000000000E+00  0.00000000000E+00 -0.19708266886E+03  0.21250158742E+03  0.79469153066E+02 0.  0.
         66    2    3    3    0    0  0.19036978095E+02  0.16953060849E+02 -0.18001921915E+03  0.18182610393E+03  0.19999997693E+01 0.  0.
        -13    1    3    3    0    0 -0.19036978095E+02 -0.16953060849E+02 -0.17063449710E+02  0.30675483487E+02  0.10566000000E+00 0.  1.
         13    1    4    4    0    0  0.13297410837E+02  0.10979136448E+02 -0.12014792260E+03  0.12137914582E+03  0.10566000000E+00 0. -1.
        -13    1    4    4    0    0  0.46857317610E+01  0.47169025421E+01 -0.45750876875E+02  0.46231581745E+02  0.10566000000E+00 0.  1.
         14    1    4    4    0    0  0.10538354965E+01  0.12570218588E+01 -0.14120419677E+02  0.14215376361E+02  0.00000000000E+00 0. -1.
<mgrwt>
<rscale>  0 0.79469153E+02</rscale>
<asrwt>0</asrwt>
<pdfrwt beam="1">  1        2 0.31506477E-01 0.79469153E+02</pdfrwt>
<pdfrwt beam="2">  1       -1 0.11860708E-02 0.79469153E+02</pdfrwt>
<totfact> 0.22634963E+05</totfact>
</mgrwt>
</event>
<event>
 8    1  0.1520917E-013  0.7970299E+02  0.7818608E-02  0.1329896E+00
         -1   -1    0    0    0  501 -0.00000000000E+00  0.00000000000E+00  0.19117915752E+01  0.19117982186E+01  0.50400000000E-02 0.  1.
          2   -1    0    0  501    0  0.00000000000E+00 -0.00000000000E+00 -0.83070713134E+03  0.83070713134E+03  0.25500000000E-02 0. -1.
         24    2    1    2    0    0 -0.69388939039E-16  0.00000000000E+00 -0.82879533976E+03  0.83261892956E+03  0.79702990220E+02 0.  0.
         66    2    3    3    0    0 -0.67556011436E-01 -0.28684567351E+02 -0.70327838251E+03  0.70386596186E+03  0.20000002775E+01 0.  0.
        -13    1    3    3    0    0  0.67556011436E-01  0.28684567351E+02 -0.12551695726E+03  0.12875296770E+03  0.10566000000E+00 0.  1.
         13    1    4    4    0    0  0.43822472849E+00 -0.17223788023E+02 -0.40304012511E+03  0.40340823558E+03  0.10566000000E+00 0. -1.
        -13    1    4    4    0    0 -0.38549111972E+00 -0.76903419684E+01 -0.20697403086E+03  0.20711723872E+03  0.10566000000E+00 0.  1.
        -14    1    4    4    0    0 -0.12028962020E+00 -0.37704373592E+01 -0.93264226536E+02  0.93340487564E+02  0.00000000000E+00 0.  1.
<mgrwt>
<rscale>  0 0.79702990E+02</rscale>
<asrwt>0</asrwt>
<pdfrwt beam="1">  1        2 0.12780081E+00 0.79702990E+02</pdfrwt>
<pdfrwt beam="2">  1       -1 0.29412296E-03 0.79702990E+02</pdfrwt>
<totfact> 0.34913218E+05</totfact>
</mgrwt>
</event>
<event>
 8    1  0.1520917E-013  0.8054960E+02  0.7818608E-02  0.1327499E+00
          2   -1    0    0  501    0  0.00000000000E+00  0.00000000000E+00  0.10944051063E+03  0.10944051066E+03  0.25500000000E-02 0. -1.
         -1   -1    0    0    0  501 -0.00000000000E+00 -0.00000000000E+00 -0.14821379171E+02  0.14821380028E+02  0.50400000000E-02 0.  1.
         24    2    1    2    0    0  0.55511151231E-16  0.00000000000E+00  0.94619131462E+02  0.12426189069E+03  0.80549596146E+02 0.  0.
         66    2    3    3    0    0 -0.28665347027E+00  0.22555693422E+02  0.98763523935E+02  0.10132657668E+03  0.20000011829E+01 0.  0.
        -13    1    3    3    0    0  0.28665347027E+00 -0.22555693422E+02 -0.41443924726E+01  0.22935314015E+02  0.10566000000E+00 0.  1.
         13    1    4    4    0    0 -0.78229164423E+00  0.16805921556E+02  0.71838555002E+02  0.73782383591E+02  0.10566000000E+00 0. -1.
        -13    1    4    4    0    0  0.54558575681E+00  0.52037343498E+01  0.23504863375E+02  0.24080412814E+02  0.10566000000E+00 0.  1.
        -14    1    4    4    0    0 -0.49947582845E-01  0.54603751615E+00  0.34201055588E+01  0.34637802707E+01  0.00000000000E+00 0.  1.
<mgrwt>
<rscale>  0 0.80549596E+02</rscale>
<asrwt>0</asrwt>
<pdfrwt beam="1">  1        2 0.16837002E-01 0.80549596E+02</pdfrwt>
<pdfrwt beam="2">  1       -1 0.22802122E-02 0.80549596E+02</pdfrwt>
<totfact> 0.17856989E+05</totfact>
</mgrwt>
</event>
<event>
 8    1  0.1520917E-013  0.7896590E+02  0.7818608E-02  0.1332012E+00
          2   -1    0    0  501    0  0.00000000000E+00  0.00000000000E+00  0.35132675981E+03  0.35132675982E+03  0.25500000000E-02 0. -1.
         -1   -1    0    0    0  501 -0.00000000000E+00 -0.00000000000E+00 -0.44371874558E+01  0.44371903181E+01  0.50400000000E-02 0.  1.
         24    2    1    2    0    0 -0.55511151231E-16  0.00000000000E+00  0.34688957235E+03  0.35576395014E+03  0.78965896495E+02 0.  0.
         66    2    3    3    0    0  0.23393213507E+00  0.23108907939E+02  0.31764193359E+03  0.31848779304E+03  0.19999982317E+01 0.  0.
        -13    1    3    3    0    0 -0.23393213507E+00 -0.23108907939E+02  0.29247638766E+02  0.37276157095E+02  0.10566000000E+00 0.  1.
         13    1    4    4    0    0  0.37580368816E+00  0.86812503904E+01  0.10891419459E+03  0.10926032346E+03  0.10566000000E+00 0. -1.
        -13    1    4    4    0    0 -0.42407462375E+00  0.51347003210E+01  0.75959063909E+02  0.76133668903E+02  0.10566000000E+00 0.  1.
         14    1    4    4    0    0  0.28220307066E+00  0.92929572272E+01  0.13276867509E+03  0.13309380067E+03  0.00000000000E+00 0. -1.
<mgrwt>
<rscale>  0 0.78965896E+02</rscale>
<asrwt>0</asrwt>
<pdfrwt beam="1">  1        2 0.54050265E-01 0.78965896E+02</pdfrwt>
<pdfrwt beam="2">  1       -1 0.68264452E-03 0.78965896E+02</pdfrwt>
<totfact> 0.27919829E+05</totfact>
</mgrwt>
</event>
<event>
 8    1  0.1520917E-013  0.7683755E+02  0.7818608E-02  0.1338273E+00
          2   -1    0    0  501    0  0.00000000000E+00  0.00000000000E+00  0.21402397964E+04  0.21402397964E+04  0.25500000000E-02 0. -1.
         -1   -1    0    0    0  501 -0.00000000000E+00 -0.00000000000E+00 -0.68963418938E+00  0.68965260586E+00  0.50400000000E-02 0.  1.
         24    2    1    2    0    0  0.00000000000E+00  0.00000000000E+00  0.21395501622E+04  0.21409294490E+04  0.76837549489E+02 0.  0.
         66    2    3    3    0    0  0.15316118149E+02 -0.30954717826E+01  0.20476264512E+04  0.20476870486E+04  0.19999984178E+01 0.  0.
        -13    1    3    3    0    0 -0.15316118149E+02  0.30954717826E+01  0.91923710968E+02  0.93242400349E+02  0.10566000000E+00 0.  1.
         13    1    4    4    0    0  0.56581493286E+00 -0.12585473598E+00  0.94530617347E+02  0.94532453506E+02  0.10566000000E+00 0. -1.
        -13    1    4    4    0    0  0.11439449554E+02 -0.20747562422E+01  0.15930707934E+04  0.15931132193E+04  0.10566000000E+00 0.  1.
        -14    1    4    4    0    0  0.33108536620E+01 -0.89486080439E+00  0.36002504045E+03  0.36004137578E+03  0.00000000000E+00 0.  1.
<mgrwt>
<rscale>  0 0.76837549E+02</rscale>
<asrwt>0</asrwt>
<pdfrwt beam="1">  1        2 0.32926758E+00 0.76837549E+02</pdfrwt>
<pdfrwt beam="2">  1       -1 0.10609901E-03 0.76837549E+02</pdfrwt>
<totfact> 0.28785889E+05</totfact>
</mgrwt>
</event>
<event>
 8    1  0.1520917E-013  0.7979756E+02  0.7818608E-02  0.1329627E+00
          2   -1    0    0  501    0  0.00000000000E+00  0.00000000000E+00  0.63026640963E+03  0.63026640963E+03  0.25500000000E-02 0. -1.
         -1   -1    0    0    0  501 -0.00000000000E+00 -0.00000000000E+00 -0.25257748861E+01  0.25257799146E+01  0.50400000000E-02 0.  1.
         24    2    1    2    0    0  0.00000000000E+00 -0.17763568394E-14  0.62774063474E+03  0.63279218955E+03  0.79797560404E+02 0.  0.
         66    2    3    3    0    0 -0.27190845282E+02 -0.12718415993E+02  0.52219010620E+03  0.52305602681E+03  0.19999995303E+01 0.  0.
        -13    1    3    3    0    0  0.27190845282E+02  0.12718415993E+02  0.10555052854E+03  0.10973616273E+03  0.10566000000E+00 0.  1.
         13    1    4    4    0    0 -0.79487114434E+01 -0.40200763907E+01  0.16253249079E+03  0.16277642567E+03  0.10566000000E+00 0. -1.
        -13    1    4    4    0    0 -0.52563985483E+01 -0.17247614860E+01  0.94195215839E+02  0.94357587818E+02  0.10566000000E+00 0.  1.
        -14    1    4    4    0    0 -0.13985735291E+02 -0.69735781165E+01  0.26546239957E+03  0.26592201332E+03  0.00000000000E+00 0.  1.
<mgrwt>
<rscale>  0 0.79797560E+02</rscale>
<asrwt>0</asrwt>
<pdfrwt beam="1">  1        2 0.96964200E-01 0.79797560E+02</pdfrwt>
<pdfrwt beam="2">  1       -1 0.38858059E-03 0.79797560E+02</pdfrwt>
<totfact> 0.32811315E+05</totfact>
</mgrwt>
</event>
<event>
 8    1  0.1520917E-013  0.7959931E+02  0.7818608E-02  0.1330192E+00
          2   -1    0    0  501    0  0.00000000000E+00  0.00000000000E+00  0.29145851878E+03  0.29145851879E+03  0.25500000000E-02 0. -1.
         -1   -1    0    0    0  501 -0.00000000000E+00 -0.00000000000E+00 -0.54347780976E+01  0.54347804346E+01  0.50400000000E-02 0.  1.
         24    2    1    2    0    0  0.44408920985E-15  0.00000000000E+00  0.28602374068E+03  0.29689329922E+03  0.79599314640E+02 0.  0.
         66    2    3    3    0    0 -0.20288214346E+01  0.27565944274E+02  0.24977882372E+03  0.25131147642E+03  0.20000009906E+01 0.  0.
        -13    1    3    3    0    0  0.20288214346E+01 -0.27565944274E+02  0.36244916959E+02  0.45581822798E+02  0.10566000000E+00 0.  1.
         13    1    4    4    0    0 -0.89046451780E+00  0.74905344044E+01  0.71780477040E+02  0.72175820611E+02  0.10566000000E+00 0. -1.
        -13    1    4    4    0    0 -0.56242327567E+00  0.17441506808E+02  0.15570517575E+03  0.15668004148E+03  0.10566000000E+00 0.  1.
        -14    1    4    4    0    0 -0.57593364110E+00  0.26339030611E+01  0.22293170926E+02  0.22455614327E+02  0.00000000000E+00 0.  1.
<mgrwt>
<rscale>  0 0.79599315E+02</rscale>
<asrwt>0</asrwt>
<pdfrwt beam="1">  1        2 0.44839784E-01 0.79599315E+02</pdfrwt>
<pdfrwt beam="2">  1       -1 0.83611968E-03 0.79599315E+02</pdfrwt>
<totfact> 0.25563538E+05</totfact>
</mgrwt>
</event>
<event>
 8    1  0.1520917E-013  0.8002755E+02  0.7818608E-02  0.1328973E+00
         -1   -1    0    0    0  501 -0.00000000000E+00  0.00000000000E+00  0.13888980848E+01  0.13889072293E+01  0.50400000000E-02 0.  1.
          2   -1    0    0  501    0  0.00000000000E+00 -0.00000000000E+00 -0.11527820652E+04  0.11527820652E+04  0.25500000000E-02 0. -1.
         24    2    1    2    0    0  0.00000000000E+00  0.00000000000E+00 -0.11513931671E+04  0.11541709724E+04  0.80027547290E+02 0.  0.
         66    2    3    3    0    0  0.10843879652E+02 -0.21571379620E+02 -0.10357997018E+04  0.10360829776E+04  0.19999996950E+01 0.  0.
        -13    1    3    3    0    0 -0.10843879652E+02  0.21571379620E+02 -0.11559346524E+03  0.11808799480E+03  0.10566000000E+00 0.  1.
         13    1    4    4    0    0  0.13391609661E+00 -0.39577581527E+00 -0.13291841667E+02  0.13298826676E+02  0.10566000000E+00 0.  1.
        -13    1    4    4    0    0  0.80047699609E+01 -0.15218019890E+02 -0.76429195456E+03  0.76448536117E+03  0.10566000000E+00 0. -1.
         14    1    4    4    0    0  0.27051935943E+01 -0.59575839155E+01 -0.25821590562E+03  0.25829878976E+03  0.00000000000E+00 0. -1.
<mgrwt>
<rscale>  0 0.80027547E+02</rscale>
<asrwt>0</asrwt>
<pdfrwt beam="1">  1        2 0.17735032E+00 0.80027547E+02</pdfrwt>
<pdfrwt beam="2">  1       -1 0.21367825E-03 0.80027547E+02</pdfrwt>
<totfact> 0.35135121E+05</totfact>
</mgrwt>
</event>
<event>
 8    1  0.1520917E-013  0.7751608E+02  0.7818608E-02  0.1336252E+00
         -1   -1    0    0    0  501 -0.00000000000E+00  0.00000000000E+00  0.16302774164E+02  0.16302774943E+02  0.50400000000E-02 0.  1.
          2   -1    0    0  501    0  0.00000000000E+00 -0.00000000000E+00 -0.92142945193E+02  0.92142945229E+02  0.25500000000E-02 0. -1.
         24    2    1    2    0    0  0.00000000000E+00  0.00000000000E+00 -0.75840171030E+02  0.10844572017E+03  0.77516080149E+02 0.  0.
         66    2    3    3    0    0  0.28823846562E+02 -0.13373675182E+02 -0.68929807479E+02  0.75927515932E+02  0.19999995132E+01 0.  0.
        -13    1    3    3    0    0 -0.28823846562E+02  0.13373675182E+02 -0.69103635507E+01  0.32518204239E+02  0.10566000000E+00 0.  1.
         13    1    4    4    0    0  0.10886351989E+02 -0.48552658254E+01 -0.26821874982E+02  0.29351497533E+02  0.10566000000E+00 0. -1.
        -13    1    4    4    0    0  0.39368731168E+01 -0.20533627795E+01 -0.81857592559E+01  0.93130600381E+01  0.10566000000E+00 0.  1.
        -14    1    4    4    0    0  0.14000621455E+02 -0.64650465773E+01 -0.33922173241E+02  0.37262958361E+02  0.00000000000E+00 0.  1.
<mgrwt>
<rscale>  0 0.77516080E+02</rscale>
<asrwt>0</asrwt>
<pdfrwt beam="1">  1        2 0.14175837E-01 0.77516080E+02</pdfrwt>
<pdfrwt beam="2">  1       -1 0.25081192E-02 0.77516080E+02</pdfrwt>
<totfact> 0.18858941E+05</totfact>
</mgrwt>
</event>
<event>
 8    1  0.1520917E-013  0.7912229E+02  0.7818608E-02  0.1331561E+00
         -1   -1    0    0    0  501 -0.00000000000E+00  0.00000000000E+00  0.39430422249E+02  0.39430422571E+02  0.50400000000E-02 0.  1.
          2   -1    0    0  501    0  0.00000000000E+00 -0.00000000000E+00 -0.39692297527E+02  0.39692297609E+02  0.25500000000E-02 0. -1.
         24    2    1    2    0    0  0.00000000000E+00 -0.35527136788E-14 -0.26187527742E+00  0.79122720180E+02  0.79122286810E+02 0.  0.
         66    2    3    3    0    0  0.42398156257E+01 -0.31694466732E+02 -0.23381177699E+02  0.39663518890E+02  0.20000005311E+01 0.  0.
        -13    1    3    3    0    0 -0.42398156257E+01  0.31694466732E+02  0.23119302422E+02  0.39459201290E+02  0.10566000000E+00 0.  1.
         13    1    4    4    0    0  0.24893127916E+01 -0.18853398241E+02 -0.14429215414E+02  0.23871755798E+02  0.10566000000E+00 0. -1.
        -13    1    4    4    0    0  0.12728809728E+00 -0.42384872999E+01 -0.25912496785E+01  0.49705850544E+01  0.10566000000E+00 0.  1.
        -14    1    4    4    0    0  0.16232147369E+01 -0.86025811913E+01 -0.63607126069E+01  0.10821178037E+02  0.00000000000E+00 0.  1.
<mgrwt>
<rscale>  0 0.79122287E+02</rscale>
<asrwt>0</asrwt>
<pdfrwt beam="1">  1        2 0.61065073E-02 0.79122287E+02</pdfrwt>
<pdfrwt beam="2">  1       -1 0.60662188E-02 0.79122287E+02</pdfrwt>
<totfact> 0.14673178E+05</totfact>
</mgrwt>
</event>
<event>
 8    1  0.1520917E-013  0.7996990E+02  0.7818608E-02  0.1329137E+00
          2   -1    0    0  501    0  0.00000000000E+00  0.00000000000E+00  0.22967600742E+03  0.22967600743E+03  0.25500000000E-02 0. -1.
         -1   -1    0    0    0  501 -0.00000000000E+00 -0.00000000000E+00 -0.69610926322E+01  0.69610944567E+01  0.50400000000E-02 0.  1.
         24    2    1    2    0    0 -0.88817841970E-15  0.00000000000E+00  0.22271491479E+03  0.23663710189E+03  0.79969898852E+02 0.  0.
         66    2    3    3    0    0  0.70427591111E+01 -0.30945119925E+02  0.18327769063E+03  0.18601589372E+03  0.19999829115E+01 0.  0.
        -13    1    3    3    0    0 -0.70427591111E+01  0.30945119925E+02  0.39437224157E+02  0.50621208167E+02  0.10566000000E+00 0.  1.
         13    1    4    4    0    0  0.58605444781E+01 -0.24010284677E+02  0.14214358666E+03  0.14427629793E+03  0.10566000000E+00 0. -1.
        -13    1    4    4    0    0  0.79127276690E+00 -0.54971977028E+01  0.30512651370E+02  0.31014163746E+02  0.10566000000E+00 0.  1.
        -14    1    4    4    0    0  0.39094186619E+00 -0.14376375459E+01  0.10621452603E+02  0.10725432050E+02  0.00000000000E+00 0.  1.
<mgrwt>
<rscale>  0 0.79969899E+02</rscale>
<asrwt>0</asrwt>
<pdfrwt beam="1">  1        2 0.35334765E-01 0.79969899E+02</pdfrwt>
<pdfrwt beam="2">  1       -1 0.10709377E-02 0.79969899E+02</pdfrwt>
<totfact> 0.23180286E+05</totfact>
</mgrwt>
</event>
<event>
 8    1  0.1520917E-013  0.7891022E+02  0.7818608E-02  0.1332173E+00
         -1   -1    0    0    0  501 -0.00000000000E+00  0.00000000000E+00  0.65782968898E+01  0.65782988205E+01  0.50400000000E-02 0.  1.
          2   -1    0    0  501    0  0.00000000000E+00 -0.00000000000E+00 -0.23664262422E+03  0.23664262423E+03  0.25500000000E-02 0. -1.
         24    2    1    2    0    0  0.00000000000E+00  0.00000000000E+00 -0.23006432733E+03  0.24322092305E+03  0.78910219246E+02 0.  0.
         66    2    3    3    0    0  0.39353028169E+02 -0.22966877666E+01 -0.11240974980E+03  0.11913810241E+03  0.19999988395E+01 0.  0.
        -13    1    3    3    0    0 -0.39353028169E+02  0.22966877666E+01 -0.11765457753E+03  0.12408282064E+03  0.10566000000E+00 0.  1.
         13    1    4    4    0    0  0.17336919490E+02 -0.41137101942E+00 -0.51177320025E+02  0.54035796029E+02  0.10566000000E+00 0.  1.
        -13    1    4    4    0    0  0.30774269685E+01 -0.10619800003E-01 -0.86919892337E+01  0.92213074128E+01  0.10566000000E+00 0. -1.
         14    1    4    4    0    0  0.18938681711E+02 -0.18746969472E+01 -0.52540440538E+02  0.55880998967E+02  0.00000000000E+00 0. -1.
<mgrwt>
<rscale>  0 0.78910219E+02</rscale>
<asrwt>0</asrwt>
<pdfrwt beam="1">  1        2 0.36406551E-01 0.78910219E+02</pdfrwt>
<pdfrwt beam="2">  1       -1 0.10120460E-02 0.78910219E+02</pdfrwt>
<totfact> 0.24264209E+05</totfact>
</mgrwt>
</event>
<event>
 8    1  0.1520917E-013  0.7911794E+02  0.7818608E-02  0.1331573E+00
          2   -1    0    0  501    0  0.00000000000E+00  0.00000000000E+00  0.66274929210E+03  0.66274929210E+03  0.25500000000E-02 0. -1.
         -1   -1    0    0    0  501 -0.00000000000E+00 -0.00000000000E+00 -0.23612402343E+01  0.23612456132E+01  0.50400000000E-02 0.  1.
         24    2    1    2    0    0 -0.35527136788E-14  0.35527136788E-14  0.66038805186E+03  0.66511053771E+03  0.79117939411E+02 0.  0.
         66    2    3    3    0    0  0.12706566831E+02 -0.31689987407E+02  0.49794529910E+03  0.49911845588E+03  0.19999906692E+01 0.  0.
        -13    1    3    3    0    0 -0.12706566831E+02  0.31689987407E+02  0.16244275277E+03  0.16599208184E+03  0.10566000000E+00 0.  1.
         13    1    4    4    0    0  0.56226091241E+01 -0.13644902390E+02  0.22607250556E+03  0.22655371554E+03  0.10566000000E+00 0. -1.
        -13    1    4    4    0    0  0.51861456823E+01 -0.12046887720E+02  0.18196937986E+03  0.18244147001E+03  0.10566000000E+00 0.  1.
        -14    1    4    4    0    0  0.18978120248E+01 -0.59981972971E+01  0.89903413682E+02  0.90123270319E+02  0.00000000000E+00 0.  1.
<mgrwt>
<rscale>  0 0.79117939E+02</rscale>
<asrwt>0</asrwt>
<pdfrwt beam="1">  1        2 0.10196143E+00 0.79117939E+02</pdfrwt>
<pdfrwt beam="2">  1       -1 0.36326816E-03 0.79117939E+02</pdfrwt>
<totfact> 0.33983309E+05</totfact>
</mgrwt>
</event>
<event>
 8    1  0.1520917E-013  0.8065557E+02  0.7818608E-02  0.1327201E+00
         -1   -1    0    0    0  501 -0.00000000000E+00  0.00000000000E+00  0.32908826502E+01  0.32908865096E+01  0.50400000000E-02 0.  1.
          2   -1    0    0  501    0  0.00000000000E+00 -0.00000000000E+00 -0.49419246214E+03  0.49419246215E+03  0.25500000000E-02 0. -1.
         24    2    1    2    0    0  0.35527136788E-14  0.35527136788E-14 -0.49090157949E+03  0.49748334866E+03  0.80655572929E+02 0.  0.
         66    2    3    3    0    0 -0.21145086964E+02 -0.24412461949E+02 -0.39430534555E+03  0.39563087409E+03  0.19999994870E+01 0.  0.
        -13    1    3    3    0    0  0.21145086964E+02  0.24412461949E+02 -0.96596233939E+02  0.10185247457E+03  0.10566000000E+00 0.  1.
         13    1    4    4    0    0 -0.20513901188E+01 -0.22431857936E+01 -0.36381615652E+02  0.36508536062E+02  0.10566000000E+00 0. -1.
        -13    1    4    4    0    0 -0.11416713354E+02 -0.14364824244E+02 -0.23048469206E+03  0.23121395710E+03  0.10566000000E+00 0.  1.
        -14    1    4    4    0    0 -0.76769834909E+01 -0.78044519110E+01 -0.12743903784E+03  0.12790838092E+03  0.00000000000E+00 0.  1.
<mgrwt>
<rscale>  0 0.80655573E+02</rscale>
<asrwt>0</asrwt>
<pdfrwt beam="1">  1        2 0.76029551E-01 0.80655573E+02</pdfrwt>
<pdfrwt beam="2">  1       -1 0.50629033E-03 0.80655573E+02</pdfrwt>
<totfact> 0.29699010E+05</totfact>
</mgrwt>
</event>
<event>
 8    1  0.1520917E-013  0.7974421E+02  0.7818608E-02  0.1329779E+00
          2   -1    0    0  501    0  0.00000000000E+00  0.00000000000E+00  0.18629873873E+03  0.18629873874E+03  0.25500000000E-02 0. -1.
         -1   -1    0    0    0  501 -0.00000000000E+00 -0.00000000000E+00 -0.85335233674E+01  0.85335248557E+01  0.50400000000E-02 0.  1.
         24    2    1    2    0    0  0.71054273576E-14  0.00000000000E+00  0.17776521536E+03  0.19483226360E+03  0.79744210747E+02 0.  0.
         66    2    3    3    0    0  0.24983228935E+02 -0.92377821188E+01  0.16134503038E+03  0.16354117884E+03  0.20000007418E+01 0.  0.
        -13    1    3    3    0    0 -0.24983228935E+02  0.92377821188E+01  0.16420184983E+02  0.31291084760E+02  0.10566000000E+00 0.  1.
         13    1    4    4    0    0  0.23081301215E+01 -0.84933680954E+00  0.12465354682E+02  0.12706103614E+02  0.10566000000E+00 0. -1.
        -13    1    4    4    0    0  0.40078628253E+01 -0.19261540533E+01  0.28753093015E+02  0.29095095048E+02  0.10566000000E+00 0.  1.
         14    1    4    4    0    0  0.18667235988E+02 -0.64622912559E+01  0.12012658268E+03  0.12173998018E+03  0.00000000000E+00 0. -1.
<mgrwt>
<rscale>  0 0.79744211E+02</rscale>
<asrwt>0</asrwt>
<pdfrwt beam="1">  1        2 0.28661344E-01 0.79744211E+02</pdfrwt>
<pdfrwt beam="2">  1       -1 0.13128499E-02 0.79744211E+02</pdfrwt>
<totfact> 0.21708212E+05</totfact>
</mgrwt>
</event>
<event>
 8    1  0.1520917E-013  0.8010226E+02  0.7818608E-02  0.1328761E+00
         -1   -1    0    0    0  501 -0.00000000000E+00  0.00000000000E+00  0.60018033280E+01  0.60018054442E+01  0.50400000000E-02 0.  1.
          2   -1    0    0  501    0  0.00000000000E+00 -0.00000000000E+00 -0.26726844117E+03  0.26726844118E+03  0.25500000000E-02 0. -1.
         24    2    1    2    0    0  0.00000000000E+00  0.00000000000E+00 -0.26126663784E+03  0.27327024663E+03  0.80102257409E+02 0.  0.
         66    2    3    3    0    0  0.33261013707E+02 -0.19378276269E+00 -0.20667389042E+03  0.20934285172E+03  0.19999999478E+01 0.  0.
        -13    1    3    3    0    0 -0.33261013707E+02  0.19378276269E+00 -0.54592747421E+02  0.63927394906E+02  0.10566000000E+00 0.  1.
         13    1    4    4    0    0  0.16683771883E+01  0.67864524325E-01 -0.90385268310E+01  0.91920737240E+01  0.10566000000E+00 0. -1.
        -13    1    4    4    0    0  0.16424020928E+02 -0.91164355660E+00 -0.10262386976E+03  0.10393387016E+03  0.10566000000E+00 0.  1.
        -14    1    4    4    0    0  0.15168615591E+02  0.64999626958E+00 -0.95011493832E+02  0.96216907840E+02  0.00000000000E+00 0.  1.
<mgrwt>
<rscale>  0 0.80102257E+02</rscale>
<asrwt>0</asrwt>
<pdfrwt beam="1">  1        2 0.41118213E-01 0.80102257E+02</pdfrwt>
<pdfrwt beam="2">  1       -1 0.92335473E-03 0.80102257E+02</pdfrwt>
<totfact> 0.24367846E+05</totfact>
</mgrwt>
</event>
<event>
 8    1  0.1520917E-013  0.7893657E+02  0.7818608E-02  0.1332097E+00
         -1   -1    0    0    0  501 -0.00000000000E+00  0.00000000000E+00  0.10008430084E+01  0.10008556984E+01  0.50400000000E-02 0.  1.
          2   -1    0    0  501    0  0.00000000000E+00 -0.00000000000E+00 -0.15564234005E+04  0.15564234005E+04  0.25500000000E-02 0. -1.
         24    2    1    2    0    0  0.88817841970E-15  0.17763568394E-14 -0.15554225575E+04  0.15574242562E+04  0.78936565975E+02 0.  0.
         66    2    3    3    0    0 -0.43445710225E+01 -0.11788634324E+02 -0.15158852259E+04  0.15159386086E+04  0.19999991094E+01 0.  0.
        -13    1    3    3    0    0  0.43445710225E+01  0.11788634324E+02 -0.39537331600E+02  0.41485647526E+02  0.10566000000E+00 0.  1.
         13    1    4    4    0    0 -0.29478578431E+01 -0.66099279493E+01 -0.92911795139E+03  0.92914614554E+03  0.10566000000E+00 0. -1.
        -13    1    4    4    0    0 -0.38740750445E+00 -0.25022350451E+01 -0.23948280423E+03  0.23949621281E+03  0.10566000000E+00 0.  1.
        -14    1    4    4    0    0 -0.10093056750E+01 -0.26764713292E+01 -0.34728447023E+03  0.34729625028E+03  0.00000000000E+00 0.  1.
<mgrwt>
<rscale>  0 0.78936566E+02</rscale>
<asrwt>0</asrwt>
<pdfrwt beam="1">  1        2 0.23944782E+00 0.78936566E+02</pdfrwt>
<pdfrwt beam="2">  1       -1 0.15397807E-03 0.78936566E+02</pdfrwt>
<totfact> 0.33918811E+05</totfact>
</mgrwt>
</event>
<event>
 8    1  0.1520917E-013  0.8082097E+02  0.7818608E-02  0.1326738E+00
         -1   -1    0    0    0  501 -0.00000000000E+00  0.00000000000E+00  0.22745663015E+01  0.22745718853E+01  0.50400000000E-02 0.  1.
          2   -1    0    0  501    0  0.00000000000E+00 -0.00000000000E+00 -0.71794138469E+03  0.71794138469E+03  0.25500000000E-02 0. -1.
         24    2    1    2    0    0  0.00000000000E+00  0.00000000000E+00 -0.71566681838E+03  0.72021595658E+03  0.80820969865E+02 0.  0.
         66    2    3    3    0    0  0.33750195635E+02 -0.15323896651E+02 -0.50093927046E+03  0.50231270163E+03  0.20000041465E+01 0.  0.
        -13    1    3    3    0    0 -0.33750195635E+02  0.15323896651E+02 -0.21472754792E+03  0.21790325494E+03  0.10566000000E+00 0.  1.
         13    1    4    4    0    0  0.79303259345E+01 -0.32856754211E+01 -0.12464240386E+03  0.12493768741E+03  0.10566000000E+00 0. -1.
        -13    1    4    4    0    0  0.20958374335E+02 -0.93953288681E+01 -0.30071080247E+03  0.30158667667E+03  0.10566000000E+00 0.  1.
        -14    1    4    4    0    0  0.48614953659E+01 -0.26428923618E+01 -0.75586064139E+02  0.75788337554E+02  0.00000000000E+00 0.  1.
<mgrwt>
<rscale>  0 0.80820970E+02</rscale>
<asrwt>0</asrwt>
<pdfrwt beam="1">  1        2 0.11045234E+00 0.80820970E+02</pdfrwt>
<pdfrwt beam="2">  1       -1 0.34993428E-03 0.80820970E+02</pdfrwt>
<totfact> 0.32760479E+05</totfact>
</mgrwt>
</event>
<event>
 8    1  0.1520917E-013  0.8353254E+02  0.7818608E-02  0.1319315E+00
         -1   -1    0    0    0  501 -0.00000000000E+00  0.00000000000E+00  0.44887120342E+03  0.44887120345E+03  0.50400000000E-02 0.  1.
          2   -1    0    0  501    0  0.00000000000E+00 -0.00000000000E+00 -0.38862397336E+01  0.38862405702E+01  0.25500000000E-02 0. -1.
         24    2    1    2    0    0  0.00000000000E+00  0.00000000000E+00  0.44498496368E+03  0.45275744402E+03  0.83532539810E+02 0.  0.
         66    2    3    3    0    0  0.21163681685E+02 -0.35635824426E+02  0.19573510848E+03  0.20008509711E+03  0.19999977681E+01 0.  0.
        -13    1    3    3    0    0 -0.21163681685E+02  0.35635824426E+02  0.24924985521E+03  0.25267234690E+03  0.10566000000E+00 0.  1.
         13    1    4    4    0    0  0.16097839588E+02 -0.28012470923E+02  0.15413715014E+03  0.15748686035E+03  0.10566000000E+00 0. -1.
        -13    1    4    4    0    0  0.28464009357E+01 -0.42057206790E+01  0.21585900015E+02  0.22175489357E+02  0.10566000000E+00 0.  1.
         14    1    4    4    0    0  0.22194411607E+01 -0.34176328237E+01  0.20012058323E+02  0.20422747404E+02  0.00000000000E+00 0. -1.
<mgrwt>
<rscale>  0 0.83532540E+02</rscale>
<asrwt>0</asrwt>
<pdfrwt beam="1">  1        2 0.59788298E-03 0.83532540E+02</pdfrwt>
<pdfrwt beam="2">  1       -1 0.69057123E-01 0.83532540E+02</pdfrwt>
<totfact> 0.63707640E+04</totfact>
</mgrwt>
</event>
<event>
 8    1  0.1636717E-013  0.7961486E+02  0.7818608E-02  0.1330148E+00
         -1   -1    0    0    0  501 -0.00000000000E+00  0.00000000000E+00  0.17553261165E+01  0.17553333520E+01  0.50400000000E-02 0.  1.
          2   -1    0    0  501    0  0.00000000000E+00 -0.00000000000E+00 -0.90275431563E+03  0.90275431563E+03  0.25500000000E-02 0. -1.
         24    2    1    2    0    0  0.17763568394E-14  0.00000000000E+00 -0.90099898951E+03  0.90450964898E+03  0.79614860445E+02 0.  0.
         66    2    3    3    0    0  0.11214758282E+02 -0.23301697466E+02 -0.79423434590E+03  0.79465774778E+03  0.19999986141E+01 0.  0.
        -13    1    3    3    0    0 -0.11214758282E+02  0.23301697466E+02 -0.10676464362E+03  0.10985190121E+03  0.10566000000E+00 0.  1.
         13    1    4    4    0    0  0.55465884642E+01 -0.12232231305E+02 -0.41406430284E+03  0.41428209010E+03  0.10566000000E+00 0. -1.
        -13    1    4    4    0    0  0.45039979741E+01 -0.88919417111E+01 -0.31928641972E+03  0.31944198473E+03  0.10566000000E+00 0.  1.
        -14    1    4    4    0    0  0.11641718435E+01 -0.21775244499E+01 -0.60883623329E+02  0.60933672945E+02  0.00000000000E+00 0.  1.
<mgrwt>
<rscale>  0 0.79614860E+02</rscale>
<asrwt>0</asrwt>
<pdfrwt beam="1">  1        2 0.13888491E+00 0.79614860E+02</pdfrwt>
<pdfrwt beam="2">  1       -1 0.27005145E-03 0.79614860E+02</pdfrwt>
<totfact> 0.35398914E+05</totfact>
</mgrwt>
</event>
<event>
 8    1  0.1520917E-013  0.7576583E+02  0.7818608E-02  0.1341516E+00
         -1   -1    0    0    0  501 -0.00000000000E+00  0.00000000000E+00  0.10224825203E+02  0.10224826445E+02  0.50400000000E-02 0.  1.
          2   -1    0    0  501    0  0.00000000000E+00 -0.00000000000E+00 -0.14035594283E+03  0.14035594286E+03  0.25500000000E-02 0. -1.
         24    2    1    2    0    0  0.00000000000E+00  0.00000000000E+00 -0.13013111763E+03  0.15058076930E+03  0.75765825460E+02 0.  0.
         66    2    3    3    0    0 -0.27341791292E+01 -0.13331100073E+02 -0.13531913684E+03  0.13601640622E+03  0.19999998633E+01 0.  0.
        -13    1    3    3    0    0  0.27341791292E+01  0.13331100073E+02  0.51880192133E+01  0.14564363085E+02  0.10566000000E+00 0.  1.
         13    1    4    4    0    0 -0.19688892152E+01 -0.63951944724E+01 -0.65374390681E+02  0.65716034254E+02  0.10566000000E+00 0. -1.
        -13    1    4    4    0    0 -0.42953827929E+00 -0.20094691588E+01 -0.16441303979E+02  0.16569553705E+02  0.10566000000E+00 0.  1.
         14    1    4    4    0    0 -0.33575163471E+00 -0.49264364418E+01 -0.53503442182E+02  0.53730818256E+02  0.00000000000E+00 0. -1.
<mgrwt>
<rscale>  0 0.75765825E+02</rscale>
<asrwt>0</asrwt>
<pdfrwt beam="1">  1        2 0.21593221E-01 0.75765825E+02</pdfrwt>
<pdfrwt beam="2">  1       -1 0.15730502E-02 0.75765825E+02</pdfrwt>
<totfact> 0.22648582E+05</totfact>
</mgrwt>
</event>
<event>
 8    1  0.1520917E-013  0.8182259E+02  0.7818608E-02  0.1323957E+00
         -1   -1    0    0    0  501 -0.00000000000E+00  0.00000000000E+00  0.10173557385E+03  0.10173557397E+03  0.50400000000E-02 0.  1.
          2   -1    0    0  501    0  0.00000000000E+00 -0.00000000000E+00 -0.16451808685E+02  0.16451808882E+02  0.25500000000E-02 0. -1.
         24    2    1    2    0    0  0.00000000000E+00 -0.71054273576E-14  0.85283765161E+02  0.11818738285E+03  0.81822593857E+02 0.  0.
         66    2    3    3    0    0 -0.61348983826E+01  0.39707015189E+02  0.31719541935E+02  0.51229028578E+02  0.19999987822E+01 0.  0.
        -13    1    3    3    0    0  0.61348983826E+01 -0.39707015189E+02  0.53564223226E+02  0.66958354275E+02  0.10566000000E+00 0.  1.
         13    1    4    4    0    0 -0.24502753928E+01  0.13352929541E+02  0.11033895814E+02  0.17494644829E+02  0.10566000000E+00 0. -1.
        -13    1    4    4    0    0 -0.26332613357E+01  0.14517612220E+02  0.11916190641E+02  0.18965808532E+02  0.10566000000E+00 0.  1.
        -14    1    4    4    0    0 -0.10513616541E+01  0.11836473428E+02  0.87694554795E+01  0.14768575217E+02  0.00000000000E+00 0.  1.
<mgrwt>
<rscale>  0 0.81822594E+02</rscale>
<asrwt>0</asrwt>
<pdfrwt beam="1">  1        2 0.25310476E-02 0.81822594E+02</pdfrwt>
<pdfrwt beam="2">  1       -1 0.15651627E-01 0.81822594E+02</pdfrwt>
<totfact> 0.11164040E+05</totfact>
</mgrwt>
</event>
<event>
 8    1  0.1520917E-013  0.8027323E+02  0.7818608E-02  0.1328278E+00
          2   -1    0    0  501    0  0.00000000000E+00  0.00000000000E+00  0.11599961531E+04  0.11599961531E+04  0.25500000000E-02 0. -1.
         -1   -1    0    0    0  501 -0.00000000000E+00 -0.00000000000E+00 -0.13887481848E+01  0.13887573303E+01  0.50400000000E-02 0.  1.
         24    2    1    2    0    0  0.00000000000E+00  0.88817841970E-15  0.11586074049E+04  0.11613849104E+04  0.80273230016E+02 0.  0.
         66    2    3    3    0    0 -0.10328473247E+02 -0.73912968593E+01  0.11301338407E+04  0.11302069751E+04  0.20000032759E+01 0.  0.
        -13    1    3    3    0    0  0.10328473247E+02  0.73912968593E+01  0.28473564149E+02  0.31177935279E+02  0.10566000000E+00 0.  1.
         13    1    4    4    0    0 -0.71548419998E+01 -0.54449276650E+01  0.84073561181E+03  0.84078369342E+03  0.10566000000E+00 0. -1.
        -13    1    4    4    0    0 -0.30424287664E+01 -0.17312770083E+01  0.27909964028E+03  0.27912161160E+03  0.10566000000E+00 0.  1.
        -14    1    4    4    0    0 -0.13120248075E+00 -0.21509218599E+00  0.10298588658E+02  0.10301670111E+02  0.00000000000E+00 0.  1.
<mgrwt>
<rscale>  0 0.80273230E+02</rscale>
<asrwt>0</asrwt>
<pdfrwt beam="1">  1        2 0.17846108E+00 0.80273230E+02</pdfrwt>
<pdfrwt beam="2">  1       -1 0.21365412E-03 0.80273230E+02</pdfrwt>
<totfact> 0.34840191E+05</totfact>
</mgrwt>
</event>
<event>
 8    1  0.1520917E-013  0.8943822E+02  0.7818608E-02  0.1304218E+00
         -1   -1    0    0    0  501 -0.00000000000E+00  0.00000000000E+00  0.22708733205E+01  0.22708789134E+01  0.50400000000E-02 0.  1.
          2   -1    0    0  501    0  0.00000000000E+00 -0.00000000000E+00 -0.88062866592E+03  0.88062866592E+03  0.25500000000E-02 0. -1.
         24    2    1    2    0    0  0.17763568394E-14  0.00000000000E+00 -0.87835779260E+03  0.88289954483E+03  0.89438215843E+02 0.  0.
         66    2    3    3    0    0 -0.13083134234E+02  0.19441883530E+02 -0.81512121081E+03  0.81546044878E+03  0.19999936672E+01 0.  0.
        -13    1    3    3    0    0  0.13083134234E+02 -0.19441883530E+02 -0.63236581781E+02  0.67439096050E+02  0.10566000000E+00 0.  1.
         13    1    4    4    0    0 -0.31850480231E+01  0.35542290709E+01 -0.16551604973E+03  0.16558487539E+03  0.10566000000E+00 0.  1.
        -13    1    4    4    0    0 -0.97443902739E+01  0.15507637226E+02 -0.63023649471E+03  0.63050256969E+03  0.10566000000E+00 0. -1.
        -14    1    4    4    0    0 -0.15369593653E+00  0.38001723259E+00 -0.19368666379E+02  0.19373003712E+02  0.00000000000E+00 0.  1.
<mgrwt>
<rscale>  0 0.89438216E+02</rscale>
<asrwt>0</asrwt>
<pdfrwt beam="1">  1        2 0.13548106E+00 0.89438216E+02</pdfrwt>
<pdfrwt beam="2">  1       -1 0.34936626E-03 0.89438216E+02</pdfrwt>
<totfact> 0.26051379E+05</totfact>
</mgrwt>
</event>
<event>
 8    1  0.1520917E-013  0.8100648E+02  0.7818608E-02  0.1326219E+00
         -1   -1    0    0    0  501 -0.00000000000E+00  0.00000000000E+00  0.35722447707E+01  0.35722483261E+01  0.50400000000E-02 0.  1.
          2   -1    0    0  501    0  0.00000000000E+00 -0.00000000000E+00 -0.45923825398E+03  0.45923825398E+03  0.25500000000E-02 0. -1.
         24    2    1    2    0    0  0.00000000000E+00 -0.17763568394E-14 -0.45566600921E+03  0.46281050231E+03  0.81006475683E+02 0.  0.
         66    2    3    3    0    0 -0.14001090904E+02 -0.11889864010E+02 -0.43405352555E+03  0.43444661635E+03  0.20000017166E+01 0.  0.
        -13    1    3    3    0    0  0.14001090904E+02  0.11889864010E+02 -0.21612483657E+02  0.28363885956E+02  0.10566000000E+00 0.  1.
         13    1    4    4    0    0 -0.47659282057E+01 -0.51149328155E+01 -0.16833772259E+03  0.16848286744E+03  0.10566000000E+00 0. -1.
        -13    1    4    4    0    0 -0.52238478669E+01 -0.35114530783E+01 -0.15266071229E+03  0.15279045497E+03  0.10566000000E+00 0.  1.
         14    1    4    4    0    0 -0.40113148311E+01 -0.32634781165E+01 -0.11305509067E+03  0.11317329394E+03  0.00000000000E+00 0. -1.
<mgrwt>
<rscale>  0 0.81006476E+02</rscale>
<asrwt>0</asrwt>
<pdfrwt beam="1">  1        2 0.70651992E-01 0.81006476E+02</pdfrwt>
<pdfrwt beam="2">  1       -1 0.54957676E-03 0.81006476E+02</pdfrwt>
<totfact> 0.28668055E+05</totfact>
</mgrwt>
</event>
<event>
 8    1  0.1520917E-013  0.7887382E+02  0.7818608E-02  0.1332278E+00
          2   -1    0    0  501    0  0.00000000000E+00  0.00000000000E+00  0.17718012729E+03  0.17718012731E+03  0.25500000000E-02 0. -1.
         -1   -1    0    0    0  501 -0.00000000000E+00 -0.00000000000E+00 -0.87779016742E+01  0.87779031211E+01  0.50400000000E-02 0.  1.
         24    2    1    2    0    0  0.00000000000E+00  0.00000000000E+00  0.16840222562E+03  0.18595803043E+03  0.78873820048E+02 0.  0.
         66    2    3    3    0    0 -0.17741918521E+02 -0.63267415951E+01  0.16587463729E+03  0.16695268385E+03  0.20000039568E+01 0.  0.
        -13    1    3    3    0    0  0.17741918521E+02  0.63267415951E+01  0.25275883286E+01  0.19005346585E+02  0.10566000000E+00 0.  1.
         13    1    4    4    0    0 -0.60362480762E+01 -0.15393600929E+01  0.51733114852E+02  0.52106930985E+02  0.10566000000E+00 0. -1.
        -13    1    4    4    0    0 -0.34159159390E+01 -0.19068906918E+01  0.33203072920E+02  0.33432916852E+02  0.10566000000E+00 0.  1.
         14    1    4    4    0    0 -0.82897545056E+01 -0.28804908104E+01  0.80938449520E+02  0.81412836013E+02  0.00000000000E+00 0. -1.
<mgrwt>
<rscale>  0 0.78873820E+02</rscale>
<asrwt>0</asrwt>
<pdfrwt beam="1">  1        2 0.27258480E-01 0.78873820E+02</pdfrwt>
<pdfrwt beam="2">  1       -1 0.13504466E-02 0.78873820E+02</pdfrwt>
<totfact> 0.21968694E+05</totfact>
</mgrwt>
</event>
<event>
 8    1  0.1520917E-013  0.8463882E+02  0.7818608E-02  0.1316380E+00
         -1   -1    0    0    0  501 -0.00000000000E+00  0.00000000000E+00  0.35507280322E+01  0.35507316092E+01  0.50400000000E-02 0.  1.
          2   -1    0    0  501    0  0.00000000000E+00 -0.00000000000E+00 -0.50438430541E+03  0.50438430542E+03  0.25500000000E-02 0. -1.
         24    2    1    2    0    0  0.00000000000E+00  0.00000000000E+00 -0.50083357738E+03  0.50793503703E+03  0.84638818572E+02 0.  0.
         66    2    3    3    0    0 -0.18301902299E+02 -0.33946918815E+02 -0.35477257133E+03  0.35686822539E+03  0.20000007615E+01 0.  0.
        -13    1    3    3    0    0  0.18301902299E+02  0.33946918815E+02 -0.14606100605E+03  0.15106681163E+03  0.10566000000E+00 0.  1.
         13    1    4    4    0    0 -0.71461387330E+01 -0.14940986468E+02 -0.15681286365E+03  0.15768508409E+03  0.10566000000E+00 0. -1.
        -13    1    4    4    0    0 -0.76946041554E+01 -0.12809577587E+02 -0.13539869120E+03  0.13622080955E+03  0.10566000000E+00 0.  1.
        -14    1    4    4    0    0 -0.34611594110E+01 -0.61963547598E+01 -0.62561016482E+02  0.62962331755E+02  0.00000000000E+00 0.  1.
<mgrwt>
<rscale>  0 0.84638819E+02</rscale>
<asrwt>0</asrwt>
<pdfrwt beam="1">  1        2 0.77597529E-01 0.84638819E+02</pdfrwt>
<pdfrwt beam="2">  1       -1 0.54626653E-03 0.84638819E+02</pdfrwt>
<totfact> 0.26353677E+05</totfact>
</mgrwt>
</event>
<event>
 8    1  0.1520917E-013  0.7950692E+02  0.7818608E-02  0.1330457E+00
          2   -1    0    0  501    0  0.00000000000E+00  0.00000000000E+00  0.92395198034E+01  0.92395201553E+01  0.25500000000E-02 0. -1.
         -1   -1    0    0    0  501 -0.00000000000E+00 -0.00000000000E+00 -0.17104107588E+03  0.17104107595E+03  0.50400000000E-02 0.  1.
         24    2    1    2    0    0  0.00000000000E+00 -0.35527136788E-14 -0.16180155607E+03  0.18028059611E+03  0.79506916584E+02 0.  0.
         66    2    3    3    0    0  0.71851779737E+01  0.25096875909E+02 -0.13046383387E+02  0.29252146707E+02  0.20000011431E+01 0.  0.
        -13    1    3    3    0    0 -0.71851779737E+01 -0.25096875909E+02 -0.14875517269E+03  0.15102844940E+03  0.10566000000E+00 0.  1.
         13    1    4    4    0    0  0.50416510177E+01  0.17992025070E+02 -0.91471236207E+01  0.20804140109E+02  0.10566000000E+00 0. -1.
        -13    1    4    4    0    0  0.12079520517E+01  0.48626926755E+01 -0.30881735995E+01  0.58866721016E+01  0.10566000000E+00 0.  1.
         14    1    4    4    0    0  0.93557490435E+00  0.22421581642E+01 -0.81108616648E+00  0.25613344968E+01  0.00000000000E+00 0. -1.
<mgrwt>
<rscale>  0 0.79506917E+02</rscale>
<asrwt>0</asrwt>
<pdfrwt beam="1">  1        2 0.14214647E-02 0.79506917E+02</pdfrwt>
<pdfrwt beam="2">  1       -1 0.26314009E-01 0.79506917E+02</pdfrwt>
<totfact> 0.10584182E+05</totfact>
</mgrwt>
</event>
<event>
 8    1  0.1520917E-013  0.8654621E+02  0.7818608E-02  0.1311438E+00
          2   -1    0    0  501    0  0.00000000000E+00  0.00000000000E+00  0.23982316862E+03  0.23982316864E+03  0.25500000000E-02 0. -1.
         -1   -1    0    0    0  501 -0.00000000000E+00 -0.00000000000E+00 -0.78080922595E+01  0.78080938861E+01  0.50400000000E-02 0.  1.
         24    2    1    2    0    0  0.00000000000E+00 -0.35527136788E-14  0.23201507636E+03  0.24763126252E+03  0.86546210308E+02 0.  0.
         66    2    3    3    0    0  0.34472316728E+02  0.20530820584E+02  0.69870689433E+02  0.80596330273E+02  0.19999993016E+01 0.  0.
        -13    1    3    3    0    0 -0.34472316728E+02 -0.20530820584E+02  0.16214438693E+03  0.16703493225E+03  0.10566000000E+00 0.  1.
         13    1    4    4    0    0  0.22137300596E+01  0.15713550073E+01  0.48792593150E+01  0.55846300534E+01  0.10566000000E+00 0.  1.
        -13    1    4    4    0    0  0.25633302175E+01  0.15790405752E+01  0.44021295227E+01  0.53342234029E+01  0.10566000000E+00 0. -1.
         14    1    4    4    0    0  0.29695256451E+02  0.17380425002E+02  0.60589300596E+02  0.69677476817E+02  0.00000000000E+00 0. -1.
<mgrwt>
<rscale>  0 0.86546210E+02</rscale>
<asrwt>0</asrwt>
<pdfrwt beam="1">  1        2 0.36895868E-01 0.86546210E+02</pdfrwt>
<pdfrwt beam="2">  1       -1 0.12012452E-02 0.86546210E+02</pdfrwt>
<totfact> 0.19105211E+05</totfact>
</mgrwt>
</event>
<event>
 8    1  0.1520917E-013  0.7846878E+02  0.7818608E-02  0.1333454E+00
          2   -1    0    0  501    0  0.00000000000E+00  0.00000000000E+00  0.12937642331E+04  0.12937642331E+04  0.25500000000E-02 0. -1.
         -1   -1    0    0    0  501 -0.00000000000E+00 -0.00000000000E+00 -0.11898076189E+01  0.11898182935E+01  0.50400000000E-02 0.  1.
         24    2    1    2    0    0  0.00000000000E+00 -0.17763568394E-14  0.12925744254E+04  0.12949540514E+04  0.78468782449E+02 0.  0.
         66    2    3    3    0    0  0.57842547071E+01 -0.10956633505E+02  0.12606069159E+04  0.12606693864E+04  0.20000003907E+01 0.  0.
        -13    1    3    3    0    0 -0.57842547071E+01  0.10956633505E+02  0.31967509595E+02  0.34284664998E+02  0.10566000000E+00 0.  1.
         13    1    4    4    0    0  0.28722048283E+01 -0.49365010481E+01  0.50241892683E+03  0.50245139845E+03  0.10566000000E+00 0. -1.
        -13    1    4    4    0    0  0.80272755621E+00 -0.23517226500E+01  0.31346462943E+03  0.31347449663E+03  0.10566000000E+00 0.  1.
         14    1    4    4    0    0  0.21093223226E+01 -0.36684098064E+01  0.44472335960E+03  0.44474349129E+03  0.00000000000E+00 0. -1.
<mgrwt>
<rscale>  0 0.78468782E+02</rscale>
<asrwt>0</asrwt>
<pdfrwt beam="1">  1        2 0.19904211E+00 0.78468782E+02</pdfrwt>
<pdfrwt beam="2">  1       -1 0.18304681E-03 0.78468782E+02</pdfrwt>
<totfact> 0.36430233E+05</totfact>
</mgrwt>
</event>
<event>
 8    1  0.1520917E-013  0.7913137E+02  0.7818608E-02  0.1331535E+00
          2   -1    0    0  501    0  0.00000000000E+00  0.00000000000E+00  0.13067633454E+04  0.13067633454E+04  0.25500000000E-02 0. -1.
         -1   -1    0    0    0  501 -0.00000000000E+00 -0.00000000000E+00 -0.11979493815E+01  0.11979599836E+01  0.50400000000E-02 0.  1.
         24    2    1    2    0    0  0.00000000000E+00  0.69388939039E-16  0.13055653961E+04  0.13079613054E+04  0.79131366136E+02 0.  0.
         66    2    3    3    0    0  0.25396852216E+02  0.77619938746E-01  0.11541201583E+04  0.11544012933E+04  0.19999994410E+01 0.  0.
        -13    1    3    3    0    0 -0.25396852216E+02 -0.77619938746E-01  0.15144523773E+03  0.15356001212E+03  0.10566000000E+00 0.  1.
         13    1    4    4    0    0  0.16400253830E+02 -0.27497725907E+00  0.78159257392E+03  0.78176467476E+03  0.10566000000E+00 0. -1.
        -13    1    4    4    0    0  0.31565318830E+01  0.29065217747E+00  0.12762490691E+03  0.12766431060E+03  0.10566000000E+00 0.  1.
         14    1    4    4    0    0  0.58400665030E+01  0.61945020349E-01  0.24490267751E+03  0.24497230795E+03  0.00000000000E+00 0. -1.
<mgrwt>
<rscale>  0 0.79131366E+02</rscale>
<asrwt>0</asrwt>
<pdfrwt beam="1">  1        2 0.20103961E+00 0.79131366E+02</pdfrwt>
<pdfrwt beam="2">  1       -1 0.18430155E-03 0.79131366E+02</pdfrwt>
<totfact> 0.35575632E+05</totfact>
</mgrwt>
</event>
<event>
 8    1  0.1520917E-013  0.8253412E+02  0.7818608E-02  0.1322010E+00
         -1   -1    0    0    0  501 -0.00000000000E+00  0.00000000000E+00  0.84047201452E+01  0.84047216564E+01  0.50400000000E-02 0.  1.
          2   -1    0    0  501    0  0.00000000000E+00 -0.00000000000E+00 -0.20262068310E+03  0.20262068311E+03  0.25500000000E-02 0. -1.
         24    2    1    2    0    0  0.17763568394E-14  0.00000000000E+00 -0.19421596295E+03  0.21102540477E+03  0.82534121385E+02 0.  0.
         66    2    3    3    0    0  0.13469342804E+02 -0.87531024756E+01 -0.19428807879E+03  0.19496127195E+03  0.20000006134E+01 0.  0.
        -13    1    3    3    0    0 -0.13469342804E+02  0.87531024756E+01  0.72115836517E-01  0.16064132820E+02  0.10566000000E+00 0.  1.
         13    1    4    4    0    0  0.58725049675E+01 -0.47787338265E+01 -0.92828441159E+02  0.93136744970E+02  0.10566000000E+00 0. -1.
        -13    1    4    4    0    0  0.34321156317E+01 -0.13529980304E+01 -0.42776766989E+02  0.42935684220E+02  0.10566000000E+00 0.  1.
        -14    1    4    4    0    0  0.41647222049E+01 -0.26213706187E+01 -0.58682870639E+02  0.58888842758E+02  0.00000000000E+00 0.  1.
<mgrwt>
<rscale>  0 0.82534121E+02</rscale>
<asrwt>0</asrwt>
<pdfrwt beam="1">  1        2 0.31172409E-01 0.82534121E+02</pdfrwt>
<pdfrwt beam="2">  1       -1 0.12930341E-02 0.82534121E+02</pdfrwt>
<totfact> 0.20405932E+05</totfact>
</mgrwt>
</event>
<event>
 8    1  0.1520917E-013  0.7202645E+02  0.7818608E-02  0.1353335E+00
         -1   -1    0    0    0  501 -0.00000000000E+00  0.00000000000E+00  0.85360146248E+02  0.85360146396E+02  0.50400000000E-02 0.  1.
          2   -1    0    0  501    0  0.00000000000E+00 -0.00000000000E+00 -0.15193884917E+02  0.15193885131E+02  0.25500000000E-02 0. -1.
         24    2    1    2    0    0  0.88817841970E-15  0.00000000000E+00  0.70166261331E+02  0.10055403153E+03  0.72026446721E+02 0.  0.
         66    2    3    3    0    0 -0.51264358978E+01  0.17202615144E+02 -0.84315806471E+01  0.19932432434E+02  0.19999994228E+01 0.  0.
        -13    1    3    3    0    0  0.51264358978E+01 -0.17202615144E+02  0.78597841978E+02  0.80621599094E+02  0.10566000000E+00 0.  1.
         13    1    4    4    0    0 -0.35552258167E+00  0.29939037170E+01 -0.11757556355E+01  0.32378111623E+01  0.10566000000E+00 0. -1.
        -13    1    4    4    0    0 -0.18167383671E+01  0.45618376282E+01 -0.18477460008E+01  0.52474975140E+01  0.10566000000E+00 0.  1.
         14    1    4    4    0    0 -0.29541749490E+01  0.96468737992E+01 -0.54080790109E+01  0.11447123757E+02  0.00000000000E+00 0. -1.
<mgrwt>
<rscale>  0 0.72026447E+02</rscale>
<asrwt>0</asrwt>
<pdfrwt beam="1">  1        2 0.23375207E-02 0.72026447E+02</pdfrwt>
<pdfrwt beam="2">  1       -1 0.13132331E-01 0.72026447E+02</pdfrwt>
<totfact> 0.15887014E+05</totfact>
</mgrwt>
</event>
<event>
 8    1  0.1520917E-013  0.7558382E+02  0.7818608E-02  0.1342073E+00
          2   -1    0    0  501    0  0.00000000000E+00  0.00000000000E+00  0.35514596035E+03  0.35514596036E+03  0.25500000000E-02 0. -1.
         -1   -1    0    0    0  501 -0.00000000000E+00 -0.00000000000E+00 -0.40215238248E+01  0.40215269830E+01  0.50400000000E-02 0.  1.
         24    2    1    2    0    0  0.44408920985E-15  0.00000000000E+00  0.35112443652E+03  0.35916748734E+03  0.75583821274E+02 0.  0.
         66    2    3    3    0    0 -0.37366360660E+01  0.11219970640E+02  0.34611701899E+03  0.34632476237E+03  0.20000019675E+01 0.  0.
        -13    1    3    3    0    0  0.37366360660E+01 -0.11219970640E+02  0.50074175365E+01  0.12842724970E+02  0.10566000000E+00 0.  1.
         13    1    4    4    0    0 -0.24442806546E+01  0.70094382239E+01  0.21160327798E+03  0.21173347668E+03  0.10566000000E+00 0. -1.
        -13    1    4    4    0    0 -0.62883989834E+00  0.67390057162E+00  0.20911461856E+02  0.20932032453E+02  0.10566000000E+00 0.  1.
         14    1    4    4    0    0 -0.66351551314E+00  0.35366318443E+01  0.11360227915E+03  0.11365925323E+03  0.00000000000E+00 0. -1.
<mgrwt>
<rscale>  0 0.75583821E+02</rscale>
<asrwt>0</asrwt>
<pdfrwt beam="1">  1        2 0.54637844E-01 0.75583821E+02</pdfrwt>
<pdfrwt beam="2">  1       -1 0.61869618E-03 0.75583821E+02</pdfrwt>
<totfact> 0.31415483E+05</totfact>
</mgrwt>
</event>
<event>
 8    1  0.1520917E-013  0.8555567E+02  0.7818608E-02  0.1313986E+00
          2   -1    0    0  501    0  0.00000000000E+00  0.00000000000E+00  0.17325424894E+02  0.17325425082E+02  0.25500000000E-02 0. -1.
         -1   -1    0    0    0  501 -0.00000000000E+00 -0.00000000000E+00 -0.10562182828E+03  0.10562182840E+03  0.50400000000E-02 0.  1.
         24    2    1    2    0    0  0.00000000000E+00 -0.88817841970E-15 -0.88296403382E+02  0.12294725348E+03  0.85555667771E+02 0.  0.
         66    2    3    3    0    0 -0.34319061529E+02  0.70337068424E+01 -0.89524553343E+01  0.36213498388E+02  0.19999982127E+01 0.  0.
        -13    1    3    3    0    0  0.34319061529E+02 -0.70337068424E+01 -0.79343948048E+02  0.86733755090E+02  0.10566000000E+00 0.  1.
         13    1    4    4    0    0 -0.16141697514E+02  0.39193333022E+01 -0.40103986714E+01  0.17088301077E+02  0.10566000000E+00 0. -1.
        -13    1    4    4    0    0 -0.10757904194E+02  0.18523259477E+01 -0.34843388623E+01  0.11459292971E+02  0.10566000000E+00 0.  1.
        -14    1    4    4    0    0 -0.74194598212E+01  0.12620475925E+01 -0.14577178006E+01  0.76659043400E+01  0.00000000000E+00 0.  1.
<mgrwt>
<rscale>  0 0.85555668E+02</rscale>
<asrwt>0</asrwt>
<pdfrwt beam="1">  1        2 0.26654501E-02 0.85555668E+02</pdfrwt>
<pdfrwt beam="2">  1       -1 0.16249512E-01 0.85555668E+02</pdfrwt>
<totfact> 0.99052264E+04</totfact>
</mgrwt>
</event>
<event>
 8    1  0.1520917E-013  0.7047192E+02  0.7818608E-02  0.1358496E+00
         -1   -1    0    0    0  501 -0.00000000000E+00  0.00000000000E+00  0.52179258293E+02  0.52179258536E+02  0.50400000000E-02 0.  1.
          2   -1    0    0  501    0  0.00000000000E+00 -0.00000000000E+00 -0.23794377405E+02  0.23794377542E+02  0.25500000000E-02 0. -1.
         24    2    1    2    0    0  0.00000000000E+00  0.00000000000E+00  0.28384880887E+02  0.75973636078E+02  0.70471922891E+02 0.  0.
         66    2    3    3    0    0 -0.30668956353E+02 -0.80109705306E+00 -0.44171889917E+01  0.31060235042E+02  0.20000004874E+01 0.  0.
        -13    1    3    3    0    0  0.30668956353E+02  0.80109705306E+00  0.32802069879E+02  0.44913401037E+02  0.10566000000E+00 0.  1.
         13    1    4    4    0    0 -0.15145573211E+02 -0.64500306792E-01 -0.28532019923E+01  0.15412477861E+02  0.10566000000E+00 0. -1.
        -13    1    4    4    0    0 -0.57902249992E+01 -0.48549970979E+00 -0.98288968182E+00  0.58940352622E+01  0.10566000000E+00 0.  1.
         14    1    4    4    0    0 -0.97331581437E+01 -0.25109703648E+00 -0.58109731762E+00  0.97537219185E+01  0.00000000000E+00 0. -1.
<mgrwt>
<rscale>  0 0.70471923E+02</rscale>
<asrwt>0</asrwt>
<pdfrwt beam="1">  1        2 0.36606735E-02 0.70471923E+02</pdfrwt>
<pdfrwt beam="2">  1       -1 0.80275782E-02 0.70471923E+02</pdfrwt>
<totfact> 0.18342928E+05</totfact>
</mgrwt>
</event>
<event>
 8    1  0.1520917E-013  0.8052334E+02  0.7818608E-02  0.1327573E+00
          2   -1    0    0  501    0  0.00000000000E+00  0.00000000000E+00  0.13688046082E+03  0.13688046085E+03  0.25500000000E-02 0. -1.
         -1   -1    0    0    0  501 -0.00000000000E+00 -0.00000000000E+00 -0.11842463886E+02  0.11842464959E+02  0.50400000000E-02 0.  1.
         24    2    1    2    0    0 -0.71054273576E-14  0.17763568394E-14  0.12503799694E+03  0.14872292581E+03  0.80523338121E+02 0.  0.
         66    2    3    3    0    0 -0.37843267643E+02  0.13659951180E+02  0.61563035416E+02  0.73571152198E+02  0.19999835034E+01 0.  0.
        -13    1    3    3    0    0  0.37843267643E+02 -0.13659951180E+02  0.63474961523E+02  0.75151773609E+02  0.10566000000E+00 0.  1.
         13    1    4    4    0    0 -0.88445035685E+01  0.33994823006E+01  0.14019558060E+02  0.16921610311E+02  0.10566000000E+00 0. -1.
        -13    1    4    4    0    0 -0.12599774737E+02  0.52744927096E+01  0.21448536793E+02  0.25428831891E+02  0.10566000000E+00 0.  1.
        -14    1    4    4    0    0 -0.16398989338E+02  0.49859761699E+01  0.26094940563E+02  0.31220709996E+02  0.00000000000E+00 0.  1.
<mgrwt>
<rscale>  0 0.80523338E+02</rscale>
<asrwt>0</asrwt>
<pdfrwt beam="1">  1        2 0.21058534E-01 0.80523338E+02</pdfrwt>
<pdfrwt beam="2">  1       -1 0.18219175E-02 0.80523338E+02</pdfrwt>
<totfact> 0.19121316E+05</totfact>
</mgrwt>
</event>
<event>
 8    1  0.1520917E-013  0.8021741E+02  0.7818608E-02  0.1328436E+00
          2   -1    0    0  501    0  0.00000000000E+00  0.00000000000E+00  0.16839266141E+02  0.16839266334E+02  0.25500000000E-02 0. -1.
         -1   -1    0    0    0  501 -0.00000000000E+00 -0.00000000000E+00 -0.95533146118E+02  0.95533146251E+02  0.50400000000E-02 0.  1.
         24    2    1    2    0    0  0.00000000000E+00  0.35527136788E-14 -0.78693879977E+02  0.11237241259E+03  0.80217406867E+02 0.  0.
         66    2    3    3    0    0 -0.24620988290E+02 -0.31527454476E+02 -0.42950950896E+02  0.58727826713E+02  0.19999993727E+01 0.  0.
        -13    1    3    3    0    0  0.24620988290E+02  0.31527454476E+02 -0.35742929081E+02  0.53644585873E+02  0.10566000000E+00 0.  1.
         13    1    4    4    0    0 -0.12873301524E+02 -0.16928414347E+02 -0.22324723041E+02  0.30833383326E+02  0.10566000000E+00 0. -1.
        -13    1    4    4    0    0 -0.17551697800E+01 -0.23496765161E+01 -0.38882320402E+01  0.48714590342E+01  0.10566000000E+00 0.  1.
        -14    1    4    4    0    0 -0.99925169859E+01 -0.12249363613E+02 -0.16737995815E+02  0.23022984353E+02  0.00000000000E+00 0.  1.
<mgrwt>
<rscale>  0 0.80217407E+02</rscale>
<asrwt>0</asrwt>
<pdfrwt beam="1">  1        2 0.25906564E-02 0.80217407E+02</pdfrwt>
<pdfrwt beam="2">  1       -1 0.14697407E-01 0.80217407E+02</pdfrwt>
<totfact> 0.11888292E+05</totfact>
</mgrwt>
</event>
<event>
 8    1  0.1520917E-013  0.7971690E+02  0.7818608E-02  0.1329857E+00
          2   -1    0    0  501    0  0.00000000000E+00  0.00000000000E+00  0.25786668281E+02  0.25786668407E+02  0.25500000000E-02 0. -1.
         -1   -1    0    0    0  501 -0.00000000000E+00 -0.00000000000E+00 -0.61609197021E+02  0.61609197227E+02  0.50400000000E-02 0.  1.
         24    2    1    2    0    0  0.00000000000E+00  0.00000000000E+00 -0.35822528740E+02  0.87395865635E+02  0.79716897611E+02 0.  0.
         66    2    3    3    0    0 -0.18083899833E+02  0.35465483217E+02 -0.16426086868E+02  0.43111996627E+02  0.19999976070E+01 0.  0.
        -13    1    3    3    0    0  0.18083899833E+02 -0.35465483217E+02 -0.19396441871E+02  0.44283869007E+02  0.10566000000E+00 0.  1.
         13    1    4    4    0    0 -0.67235630569E+01  0.12612453684E+02 -0.50893968798E+01  0.15172126178E+02  0.10566000000E+00 0. -1.
        -13    1    4    4    0    0 -0.56542918028E+01  0.11954278043E+02 -0.62631406533E+01  0.14632630460E+02  0.10566000000E+00 0.  1.
        -14    1    4    4    0    0 -0.57060449730E+01  0.10898751490E+02 -0.50735493349E+01  0.13307239989E+02  0.00000000000E+00 0.  1.
<mgrwt>
<rscale>  0 0.79716898E+02</rscale>
<asrwt>0</asrwt>
<pdfrwt beam="1">  1        2 0.39671798E-02 0.79716898E+02</pdfrwt>
<pdfrwt beam="2">  1       -1 0.94783381E-02 0.79716898E+02</pdfrwt>
<totfact> 0.13191424E+05</totfact>
</mgrwt>
</event>
<event>
 8    1  0.1520917E-013  0.7812191E+02  0.7818608E-02  0.1334467E+00
         -1   -1    0    0    0  501 -0.00000000000E+00  0.00000000000E+00  0.71956566195E+01  0.71956583846E+01  0.50400000000E-02 0.  1.
          2   -1    0    0  501    0  0.00000000000E+00 -0.00000000000E+00 -0.21203874797E+03  0.21203874799E+03  0.25500000000E-02 0. -1.
         24    2    1    2    0    0  0.00000000000E+00  0.00000000000E+00 -0.20484309135E+03  0.21923440637E+03  0.78121910258E+02 0.  0.
         66    2    3    3    0    0  0.94066891339E+01 -0.29709932891E+02 -0.16845694516E+03  0.17132690475E+03  0.20000014219E+01 0.  0.
        -13    1    3    3    0    0 -0.94066891339E+01  0.29709932891E+02 -0.36386146191E+02  0.47907501621E+02  0.10566000000E+00 0.  1.
         13    1    4    4    0    0  0.45946590552E+01 -0.15978396094E+02 -0.92015922532E+02  0.93505942042E+02  0.10566000000E+00 0. -1.
        -13    1    4    4    0    0  0.47058714928E+01 -0.13023844227E+02 -0.71546426722E+02  0.72874330774E+02  0.10566000000E+00 0.  1.
         14    1    4    4    0    0  0.10615858588E+00 -0.70769256962E+00 -0.48945959075E+01  0.49466319366E+01  0.00000000000E+00 0. -1.
<mgrwt>
<rscale>  0 0.78121910E+02</rscale>
<asrwt>0</asrwt>
<pdfrwt beam="1">  1        2 0.32621341E-01 0.78121910E+02</pdfrwt>
<pdfrwt beam="2">  1       -1 0.11070244E-02 0.78121910E+02</pdfrwt>
<totfact> 0.23966377E+05</totfact>
</mgrwt>
</event>
<event>
 8    1  0.1520917E-013  0.8509630E+02  0.7818608E-02  0.1315181E+00
          2   -1    0    0  501    0  0.00000000000E+00  0.00000000000E+00  0.67118127732E+03  0.67118127733E+03  0.25500000000E-02 0. -1.
         -1   -1    0    0    0  501 -0.00000000000E+00 -0.00000000000E+00 -0.26972496997E+01  0.26972544085E+01  0.50400000000E-02 0.  1.
         24    2    1    2    0    0  0.71054273576E-14  0.00000000000E+00  0.66848402762E+03  0.67387853174E+03  0.85096300435E+02 0.  0.
         66    2    3    3    0    0 -0.39061664484E+02  0.95860736808E+01  0.44376401644E+03  0.44558748717E+03  0.19999977122E+01 0.  0.
        -13    1    3    3    0    0  0.39061664484E+02 -0.95860736808E+01  0.22472001118E+03  0.22829104457E+03  0.10566000000E+00 0.  1.
         13    1    4    4    0    0 -0.11534555091E+00  0.69935424579E-01  0.22451034810E+01  0.22516325712E+01  0.10566000000E+00 0.  1.
        -13    1    4    4    0    0 -0.96345490999E+01  0.21097539204E+01  0.10902695201E+03  0.10947220207E+03  0.10566000000E+00 0. -1.
         14    1    4    4    0    0 -0.29311769833E+02  0.74063843358E+01  0.33249196096E+03  0.33386365253E+03  0.00000000000E+00 0. -1.
<mgrwt>
<rscale>  0 0.85096300E+02</rscale>
<asrwt>0</asrwt>
<pdfrwt beam="1">  1        2 0.10325864E+00 0.85096300E+02</pdfrwt>
<pdfrwt beam="2">  1       -1 0.41496194E-03 0.85096300E+02</pdfrwt>
<totfact> 0.28193618E+05</totfact>
</mgrwt>
</event>
<event>
 8    1  0.1683714E-013  0.7929466E+02  0.7818608E-02  0.1331065E+00
         -1   -1    0    0    0  501 -0.00000000000E+00  0.00000000000E+00  0.48928800922E+01  0.48928826880E+01  0.50400000000E-02 0.  1.
          2   -1    0    0  501    0  0.00000000000E+00 -0.00000000000E+00 -0.32126485449E+03  0.32126485450E+03  0.25500000000E-02 0. -1.
         24    2    1    2    0    0  0.00000000000E+00  0.00000000000E+00 -0.31637197440E+03  0.32615773719E+03  0.79294661506E+02 0.  0.
         66    2    3    3    0    0 -0.23699949832E+02  0.52079605922E+01 -0.28712296977E+03  0.28815344912E+03  0.19999993230E+01 0.  0.
        -13    1    3    3    0    0  0.23699949832E+02 -0.52079605922E+01 -0.29249004634E+02  0.38004288070E+02  0.10566000000E+00 0.  1.
         13    1    4    4    0    0 -0.14168758696E+02  0.29638286112E+01 -0.17127956494E+03  0.17189019325E+03  0.10566000000E+00 0. -1.
        -13    1    4    4    0    0 -0.36485601426E+01  0.24386259198E+00 -0.42743144117E+02  0.42899405510E+02  0.10566000000E+00 0.  1.
        -14    1    4    4    0    0 -0.58826309935E+01  0.20002693890E+01 -0.73100260704E+02  0.73363850363E+02  0.00000000000E+00 0.  1.
<mgrwt>
<rscale>  0 0.79294662E+02</rscale>
<asrwt>0</asrwt>
<pdfrwt beam="1">  1        2 0.49425346E-01 0.79294662E+02</pdfrwt>
<pdfrwt beam="2">  1       -1 0.75275124E-03 0.79294662E+02</pdfrwt>
<totfact> 0.26746417E+05</totfact>
</mgrwt>
</event>
<event>
 8    1  0.1520917E-013  0.7962142E+02  0.7818608E-02  0.1330129E+00
          2   -1    0    0  501    0  0.00000000000E+00  0.00000000000E+00  0.30764961898E+03  0.30764961899E+03  0.25500000000E-02 0. -1.
         -1   -1    0    0    0  501 -0.00000000000E+00 -0.00000000000E+00 -0.51516140217E+01  0.51516164871E+01  0.50400000000E-02 0.  1.
         24    2    1    2    0    0  0.00000000000E+00  0.00000000000E+00  0.30249800496E+03  0.31280123548E+03  0.79621416168E+02 0.  0.
         66    2    3    3    0    0 -0.34391290780E+02  0.10568287425E+02  0.21806550729E+03  0.22102265733E+03  0.20000005349E+01 0.  0.
        -13    1    3    3    0    0  0.34391290780E+02 -0.10568287425E+02  0.84432497671E+02  0.91778578152E+02  0.10566000000E+00 0.  1.
         13    1    4    4    0    0 -0.24276122942E+02  0.74987543234E+01  0.15111782290E+03  0.15323892789E+03  0.10566000000E+00 0. -1.
        -13    1    4    4    0    0 -0.96082541494E+01  0.30175989538E+01  0.64684825668E+02  0.65464206151E+02  0.10566000000E+00 0.  1.
        -14    1    4    4    0    0 -0.50691368841E+00  0.51934148013E-01  0.22628587257E+01  0.23195232820E+01  0.00000000000E+00 0.  1.
<mgrwt>
<rscale>  0 0.79621416E+02</rscale>
<asrwt>0</asrwt>
<pdfrwt beam="1">  1        2 0.47330732E-01 0.79621416E+02</pdfrwt>
<pdfrwt beam="2">  1       -1 0.79255584E-03 0.79621416E+02</pdfrwt>
<totfact> 0.26049623E+05</totfact>
</mgrwt>
</event>
<event>
 8    1  0.1520917E-013  0.7933094E+02  0.7818608E-02  0.1330961E+00
          2   -1    0    0  501    0  0.00000000000E+00  0.00000000000E+00  0.83267487863E+03  0.83267487863E+03  0.25500000000E-02 0. -1.
         -1   -1    0    0    0  501 -0.00000000000E+00 -0.00000000000E+00 -0.18895090191E+01  0.18895157408E+01  0.50400000000E-02 0.  1.
         24    2    1    2    0    0  0.00000000000E+00  0.00000000000E+00  0.83078536961E+03  0.83456439437E+03  0.79330939730E+02 0.  0.
         66    2    3    3    0    0 -0.13588872744E+02 -0.58679147008E+01  0.80250943659E+03  0.80264841973E+03  0.19999976271E+01 0.  0.
        -13    1    3    3    0    0  0.13588872744E+02  0.58679147008E+01  0.28275933016E+02  0.31915974642E+02  0.10566000000E+00 0.  1.
         13    1    4    4    0    0 -0.10426380908E+02 -0.41873669370E+01  0.60465880286E+03  0.60476319539E+03  0.10566000000E+00 0. -1.
        -13    1    4    4    0    0 -0.31186805437E+01 -0.17790399895E+01  0.19226318212E+03  0.19229673298E+03  0.10566000000E+00 0.  1.
         14    1    4    4    0    0 -0.43811292016E-01  0.98492225659E-01  0.55874516126E+01  0.55884913591E+01  0.00000000000E+00 0. -1.
<mgrwt>
<rscale>  0 0.79330940E+02</rscale>
<asrwt>0</asrwt>
<pdfrwt beam="1">  1        2 0.12810349E+00 0.79330940E+02</pdfrwt>
<pdfrwt beam="2">  1       -1 0.29069498E-03 0.79330940E+02</pdfrwt>
<totfact> 0.35352630E+05</totfact>
</mgrwt>
</event>
<event>
 8    1  0.1520917E-013  0.7963294E+02  0.7818608E-02  0.1330096E+00
         -1   -1    0    0    0  501 -0.00000000000E+00  0.00000000000E+00  0.14614955688E+01  0.14615042590E+01  0.50400000000E-02 0.  1.
          2   -1    0    0  501    0  0.00000000000E+00 -0.00000000000E+00 -0.10847426821E+04  0.10847426821E+04  0.25500000000E-02 0. -1.
         24    2    1    2    0    0 -0.17763568394E-14 -0.17763568394E-14 -0.10832811865E+04  0.10862041863E+04  0.79632941537E+02 0.  0.
         66    2    3    3    0    0  0.12220987652E+02 -0.14639903171E+02 -0.10183457672E+04  0.10185262789E+04  0.20000080430E+01 0.  0.
        -13    1    3    3    0    0 -0.12220987652E+02  0.14639903171E+02 -0.64935419336E+02  0.67677907417E+02  0.10566000000E+00 0.  1.
         13    1    4    4    0    0  0.17381042770E+01 -0.19877485539E+01 -0.16814413313E+03  0.16816489770E+03  0.10566000000E+00 0. -1.
        -13    1    4    4    0    0  0.85566859501E+01 -0.99918610827E+01 -0.70340733041E+03  0.70353033894E+03  0.10566000000E+00 0.  1.
        -14    1    4    4    0    0  0.19261974247E+01 -0.26602935340E+01 -0.14679430362E+03  0.14683104227E+03  0.00000000000E+00 0.  1.
<mgrwt>
<rscale>  0 0.79632942E+02</rscale>
<asrwt>0</asrwt>
<pdfrwt beam="1">  1        2 0.16688285E+00 0.79632942E+02</pdfrwt>
<pdfrwt beam="2">  1       -1 0.22484701E-03 0.79632942E+02</pdfrwt>
<totfact> 0.35688067E+05</totfact>
</mgrwt>
</event>
<event>
 8    1  0.1520917E-013  0.7992061E+02  0.7818608E-02  0.1329277E+00
         -1   -1    0    0    0  501 -0.00000000000E+00  0.00000000000E+00  0.21337715700E+02  0.21337716295E+02  0.50400000000E-02 0.  1.
          2   -1    0    0  501    0  0.00000000000E+00 -0.00000000000E+00 -0.74835841991E+02  0.74835842034E+02  0.25500000000E-02 0. -1.
         24    2    1    2    0    0  0.35527136788E-14  0.88817841970E-15 -0.53498126291E+02  0.96173558329E+02  0.79920609389E+02 0.  0.
         66    2    3    3    0    0  0.17031029821E+02  0.41809594010E+01 -0.69940950490E+02  0.72133715776E+02  0.19999994728E+01 0.  0.
        -13    1    3    3    0    0 -0.17031029821E+02 -0.41809594010E+01  0.16442824200E+02  0.24039842553E+02  0.10566000000E+00 0.  1.
         13    1    4    4    0    0  0.66202659888E+01  0.69009053666E+00 -0.26044403868E+02  0.26881709090E+02  0.10566000000E+00 0. -1.
        -13    1    4    4    0    0  0.28422682001E+01  0.10612024733E+01 -0.12913854221E+02  0.13265874796E+02  0.10566000000E+00 0.  1.
         14    1    4    4    0    0  0.75684956324E+01  0.24296663911E+01 -0.30982692401E+02  0.31986131890E+02  0.00000000000E+00 0. -1.
<mgrwt>
<rscale>  0 0.79920609E+02</rscale>
<asrwt>0</asrwt>
<pdfrwt beam="1">  1        2 0.11513206E-01 0.79920609E+02</pdfrwt>
<pdfrwt beam="2">  1       -1 0.32827256E-02 0.79920609E+02</pdfrwt>
<totfact> 0.16459541E+05</totfact>
</mgrwt>
</event>
<event>
 8    1  0.1520917E-013  0.8818229E+02  0.7818608E-02  0.1307314E+00
          2   -1    0    0  501    0  0.00000000000E+00  0.00000000000E+00  0.38579894492E+03  0.38579894492E+03  0.25500000000E-02 0. -1.
         -1   -1    0    0    0  501 -0.00000000000E+00 -0.00000000000E+00 -0.50389683074E+01  0.50389708279E+01  0.50400000000E-02 0.  1.
         24    2    1    2    0    0  0.00000000000E+00  0.71054273576E-14  0.38075997661E+03  0.39083791575E+03  0.88182291888E+02 0.  0.
         66    2    3    3    0    0 -0.98080807391E+01  0.40782075544E+02  0.25037707277E+03  0.25387409239E+03  0.20000207489E+01 0.  0.
        -13    1    3    3    0    0  0.98080807391E+01 -0.40782075544E+02  0.13038290384E+03  0.13696382336E+03  0.10566000000E+00 0.  1.
         13    1    4    4    0    0 -0.74621158164E+01  0.33218634044E+02  0.20225615527E+03  0.20510174141E+03  0.10566000000E+00 0. -1.
        -13    1    4    4    0    0 -0.15114500450E+01  0.40880463935E+01  0.25171169297E+02  0.25545949432E+02  0.10566000000E+00 0.  1.
        -14    1    4    4    0    0 -0.83451487764E+00  0.34753951066E+01  0.22949748199E+02  0.23226401543E+02  0.00000000000E+00 0.  1.
<mgrwt>
<rscale>  0 0.88182292E+02</rscale>
<asrwt>0</asrwt>
<pdfrwt beam="1">  1        2 0.59353710E-01 0.88182292E+02</pdfrwt>
<pdfrwt beam="2">  1       -1 0.77522575E-03 0.88182292E+02</pdfrwt>
<totfact> 0.21602757E+05</totfact>
</mgrwt>
</event>
<event>
 8    1  0.1520917E-013  0.8131351E+02  0.7818608E-02  0.1325365E+00
         -1   -1    0    0    0  501 -0.00000000000E+00  0.00000000000E+00  0.50702846669E+02  0.50702846919E+02  0.50400000000E-02 0.  1.
          2   -1    0    0  501    0  0.00000000000E+00 -0.00000000000E+00 -0.32601165036E+02  0.32601165136E+02  0.25500000000E-02 0. -1.
         24    2    1    2    0    0  0.00000000000E+00  0.00000000000E+00  0.18101681633E+02  0.83304012055E+02  0.81313513923E+02 0.  0.
         66    2    3    3    0    0 -0.23844597683E+02  0.32417686990E+02  0.33068234319E+01  0.40427791820E+02  0.20000004536E+01 0.  0.
        -13    1    3    3    0    0  0.23844597683E+02 -0.32417686990E+02  0.14794858201E+02  0.42876220235E+02  0.10566000000E+00 0.  1.
         13    1    4    4    0    0 -0.84222957395E+01  0.12804374429E+02  0.17078458102E+01  0.15421250643E+02  0.10566000000E+00 0. -1.
        -13    1    4    4    0    0 -0.13989124203E+02  0.17941735026E+02  0.15563529257E+01  0.22804272630E+02  0.10566000000E+00 0.  1.
         14    1    4    4    0    0 -0.14331777407E+01  0.16715775341E+01  0.42624696055E-01  0.22022685471E+01  0.00000000000E+00 0. -1.
<mgrwt>
<rscale>  0 0.81313514E+02</rscale>
<asrwt>0</asrwt>
<pdfrwt beam="1">  1        2 0.50155639E-02 0.81313514E+02</pdfrwt>
<pdfrwt beam="2">  1       -1 0.78004380E-02 0.81313514E+02</pdfrwt>
<totfact> 0.13070013E+05</totfact>
</mgrwt>
</event>
<event>
 8    1  0.1520917E-013  0.8113457E+02  0.7818608E-02  0.1325862E+00
         -1   -1    0    0    0  501 -0.00000000000E+00  0.00000000000E+00  0.91086518166E+01  0.91086532110E+01  0.50400000000E-02 0.  1.
          2   -1    0    0  501    0  0.00000000000E+00 -0.00000000000E+00 -0.18067485417E+03  0.18067485419E+03  0.25500000000E-02 0. -1.
         24    2    1    2    0    0  0.00000000000E+00  0.17763568394E-14 -0.17156620236E+03  0.18978350740E+03  0.81134566559E+02 0.  0.
         66    2    3    3    0    0  0.15468181105E+02  0.15873698023E+02 -0.16524332431E+03  0.16673510471E+03  0.20000002018E+01 0.  0.
        -13    1    3    3    0    0 -0.15468181105E+02 -0.15873698023E+02 -0.63228780514E+01  0.23048402689E+02  0.10566000000E+00 0.  1.
         13    1    4    4    0    0  0.56892853611E+01  0.56553050555E+01 -0.56841293980E+02  0.57404654067E+02  0.10566000000E+00 0. -1.
        -13    1    4    4    0    0  0.40249483294E+01  0.32541495221E+01 -0.37837475341E+02  0.38189990866E+02  0.10566000000E+00 0.  1.
        -14    1    4    4    0    0  0.57539474143E+01  0.69642434452E+01 -0.70564554985E+02  0.71140459781E+02  0.00000000000E+00 0.  1.
<mgrwt>
<rscale>  0 0.81134567E+02</rscale>
<asrwt>0</asrwt>
<pdfrwt beam="1">  1        2 0.27796129E-01 0.81134567E+02</pdfrwt>
<pdfrwt beam="2">  1       -1 0.14013313E-02 0.81134567E+02</pdfrwt>
<totfact> 0.20522477E+05</totfact>
</mgrwt>
</event>
<event>
 8    1  0.1520917E-013  0.8041810E+02  0.7818608E-02  0.1327869E+00
         -1   -1    0    0    0  501 -0.00000000000E+00  0.00000000000E+00  0.48584867775E+01  0.48584893917E+01  0.50400000000E-02 0.  1.
          2   -1    0    0  501    0  0.00000000000E+00 -0.00000000000E+00 -0.33277179129E+03  0.33277179130E+03  0.25500000000E-02 0. -1.
         24    2    1    2    0    0  0.35527136788E-14  0.00000000000E+00 -0.32791330451E+03  0.33763028069E+03  0.80418102212E+02 0.  0.
         66    2    3    3    0    0 -0.27953922373E+02  0.10008935142E+02 -0.27773871043E+03  0.27932846584E+03  0.20000007343E+01 0.  0.
        -13    1    3    3    0    0  0.27953922373E+02 -0.10008935142E+02 -0.50174594084E+02  0.58301814845E+02  0.10566000000E+00 0.  1.
         13    1    4    4    0    0 -0.64104539101E+01  0.27919469067E+01 -0.66000200513E+02  0.66369620450E+02  0.10566000000E+00 0. -1.
        -13    1    4    4    0    0 -0.44404118426E+01  0.21028865945E+01 -0.45658239054E+02  0.45921948422E+02  0.10566000000E+00 0.  1.
         14    1    4    4    0    0 -0.17103056620E+02  0.51141016405E+01 -0.16608027086E+03  0.16703689697E+03  0.00000000000E+00 0. -1.
<mgrwt>
<rscale>  0 0.80418102E+02</rscale>
<asrwt>0</asrwt>
<pdfrwt beam="1">  1        2 0.51195642E-01 0.80418102E+02</pdfrwt>
<pdfrwt beam="2">  1       -1 0.74745997E-03 0.80418102E+02</pdfrwt>
<totfact> 0.26107750E+05</totfact>
</mgrwt>
</event>
<event>
 8    1  0.1520917E-013  0.8304776E+02  0.7818608E-02  0.1320618E+00
         -1   -1    0    0    0  501 -0.00000000000E+00  0.00000000000E+00  0.26961939214E+01  0.26961986320E+01  0.50400000000E-02 0.  1.
          2   -1    0    0  501    0  0.00000000000E+00 -0.00000000000E+00 -0.63950557628E+03  0.63950557629E+03  0.25500000000E-02 0. -1.
         24    2    1    2    0    0  0.35527136788E-14  0.00000000000E+00 -0.63680938236E+03  0.64220177492E+03  0.83047758830E+02 0.  0.
         66    2    3    3    0    0 -0.31373374811E+02  0.81769704684E+01 -0.51891121456E+03  0.51992691803E+03  0.20000000890E+01 0.  0.
        -13    1    3    3    0    0  0.31373374811E+02 -0.81769704684E+01 -0.11789816780E+03  0.12227485689E+03  0.10566000000E+00 0.  1.
         13    1    4    4    0    0 -0.30079310916E+01  0.82676335025E+00 -0.55380736500E+02  0.55468624703E+02  0.10566000000E+00 0. -1.
        -13    1    4    4    0    0 -0.19147315057E+02  0.42755451221E+01 -0.31449041713E+03  0.31510178290E+03  0.10566000000E+00 0.  1.
        -14    1    4    4    0    0 -0.92181286624E+01  0.30746619961E+01 -0.14904006093E+03  0.14935651042E+03  0.00000000000E+00 0.  1.
<mgrwt>
<rscale>  0 0.83047759E+02</rscale>
<asrwt>0</asrwt>
<pdfrwt beam="1">  1        2 0.98385353E-01 0.83047759E+02</pdfrwt>
<pdfrwt beam="2">  1       -1 0.41479994E-03 0.83047759E+02</pdfrwt>
<totfact> 0.29682685E+05</totfact>
</mgrwt>
</event>
<event>
 8    1  0.1520917E-013  0.7910264E+02  0.7818608E-02  0.1331617E+00
          2   -1    0    0  501    0  0.00000000000E+00  0.00000000000E+00  0.63482558369E+03  0.63482558370E+03  0.25500000000E-02 0. -1.
         -1   -1    0    0    0  501 -0.00000000000E+00 -0.00000000000E+00 -0.24641496286E+01  0.24641547828E+01  0.50400000000E-02 0.  1.
         24    2    1    2    0    0  0.00000000000E+00  0.00000000000E+00  0.63236143406E+03  0.63728973848E+03  0.79102638901E+02 0.  0.
         66    2    3    3    0    0 -0.87831245505E+01  0.21413263952E+02  0.57452095947E+03  0.57499043820E+03  0.20000007053E+01 0.  0.
        -13    1    3    3    0    0  0.87831245505E+01 -0.21413263952E+02  0.57840474590E+02  0.62299300275E+02  0.10566000000E+00 0.  1.
         13    1    4    4    0    0 -0.59412830078E+01  0.14606903172E+02  0.37329717517E+03  0.37363010133E+03  0.10566000000E+00 0. -1.
        -13    1    4    4    0    0 -0.22813737263E+01  0.60310887373E+01  0.17834277881E+03  0.17845934163E+03  0.10566000000E+00 0.  1.
         14    1    4    4    0    0 -0.56046781647E+00  0.77527204204E+00  0.22881005490E+02  0.22900995243E+02  0.00000000000E+00 0. -1.
<mgrwt>
<rscale>  0 0.79102639E+02</rscale>
<asrwt>0</asrwt>
<pdfrwt beam="1">  1        2 0.97665662E-01 0.79102639E+02</pdfrwt>
<pdfrwt beam="2">  1       -1 0.37909961E-03 0.79102639E+02</pdfrwt>
<totfact> 0.33629502E+05</totfact>
</mgrwt>
</event>
<event>
 8    1  0.1520917E-013  0.7966529E+02  0.7818608E-02  0.1330004E+00
         -1   -1    0    0    0  501 -0.00000000000E+00  0.00000000000E+00  0.11858876977E+02  0.11858878048E+02  0.50400000000E-02 0.  1.
          2   -1    0    0  501    0  0.00000000000E+00 -0.00000000000E+00 -0.13379340101E+03  0.13379340104E+03  0.25500000000E-02 0. -1.
         24    2    1    2    0    0  0.71054273576E-14  0.35527136788E-14 -0.12193452404E+03  0.14565227908E+03  0.79665288870E+02 0.  0.
         66    2    3    3    0    0 -0.33093309259E+02 -0.21714406795E+02 -0.53259091813E+02  0.66386846926E+02  0.20000009815E+01 0.  0.
        -13    1    3    3    0    0  0.33093309259E+02  0.21714406795E+02 -0.68675432223E+02  0.79265432158E+02  0.10566000000E+00 0.  1.
         13    1    4    4    0    0 -0.93513818861E+01 -0.59649044391E+01 -0.15154263062E+02  0.18780076708E+02  0.10566000000E+00 0. -1.
        -13    1    4    4    0    0 -0.16796183979E+00 -0.26411297968E+00 -0.37464581576E+00  0.49949010854E+00  0.10566000000E+00 0.  1.
        -14    1    4    4    0    0 -0.23573965533E+02 -0.15485389377E+02 -0.37730182935E+02  0.47107280110E+02  0.00000000000E+00 0.  1.
<mgrwt>
<rscale>  0 0.79665289E+02</rscale>
<asrwt>0</asrwt>
<pdfrwt beam="1">  1        2 0.20583599E-01 0.79665289E+02</pdfrwt>
<pdfrwt beam="2">  1       -1 0.18244428E-02 0.79665289E+02</pdfrwt>
<totfact> 0.19534347E+05</totfact>
</mgrwt>
</event>
<event>
 8    1  0.1520917E-013  0.8093644E+02  0.7818608E-02  0.1326415E+00
          2   -1    0    0  501    0  0.00000000000E+00  0.00000000000E+00  0.15191418941E+04  0.15191418941E+04  0.25500000000E-02 0. -1.
         -1   -1    0    0    0  501 -0.00000000000E+00 -0.00000000000E+00 -0.10780217578E+01  0.10780335393E+01  0.50400000000E-02 0.  1.
         24    2    1    2    0    0  0.00000000000E+00  0.00000000000E+00  0.15180638724E+04  0.15202199277E+04  0.80936443506E+02 0.  0.
         66    2    3    3    0    0 -0.16238502062E+02  0.25575602390E+00  0.14552010449E+04  0.14552930411E+04  0.19999961329E+01 0.  0.
        -13    1    3    3    0    0  0.16238502062E+02 -0.25575602390E+00  0.62862827491E+02  0.64926886608E+02  0.10566000000E+00 0.  1.
         13    1    4    4    0    0 -0.91361423435E+01  0.50024535633E+00  0.83486538224E+03  0.83491552685E+03  0.10566000000E+00 0. -1.
        -13    1    4    4    0    0 -0.57454989097E+01  0.44830308050E-01  0.53074740976E+03  0.53077851962E+03  0.10566000000E+00 0.  1.
        -14    1    4    4    0    0 -0.13568608093E+01 -0.28931964047E+00  0.89588252873E+02  0.89598994581E+02  0.00000000000E+00 0.  1.
<mgrwt>
<rscale>  0 0.80936444E+02</rscale>
<asrwt>0</asrwt>
<pdfrwt beam="1">  1        2 0.23371342E+00 0.80936444E+02</pdfrwt>
<pdfrwt beam="2">  1       -1 0.16585092E-03 0.80936444E+02</pdfrwt>
<totfact> 0.32102804E+05</totfact>
</mgrwt>
</event>
<event>
 8    1  0.1520917E-013  0.7750247E+02  0.7818608E-02  0.1336292E+00
          2   -1    0    0  501    0  0.00000000000E+00  0.00000000000E+00  0.17481784432E+03  0.17481784434E+03  0.25500000000E-02 0. -1.
         -1   -1    0    0    0  501 -0.00000000000E+00 -0.00000000000E+00 -0.85898445106E+01  0.85898459891E+01  0.50400000000E-02 0.  1.
         24    2    1    2    0    0  0.00000000000E+00 -0.71054273576E-14  0.16622799981E+03  0.18340769032E+03  0.77502470610E+02 0.  0.
         66    2    3    3    0    0  0.58408517972E+01  0.35211677956E+02  0.11871957006E+03  0.12398513674E+03  0.20000003663E+01 0.  0.
        -13    1    3    3    0    0 -0.58408517972E+01 -0.35211677956E+02  0.47508429743E+02  0.59422553588E+02  0.10566000000E+00 0.  1.
         13    1    4    4    0    0  0.22126188532E+01  0.11100216529E+02  0.40082062129E+02  0.41649650151E+02  0.10566000000E+00 0. -1.
        -13    1    4    4    0    0  0.34864881924E+01  0.23807708130E+02  0.77647767835E+02  0.81290525771E+02  0.10566000000E+00 0.  1.
        -14    1    4    4    0    0  0.14174475159E+00  0.30375329651E+00  0.98974009916E+00  0.10449608144E+01  0.00000000000E+00 0.  1.
<mgrwt>
<rscale>  0 0.77502471E+02</rscale>
<asrwt>0</asrwt>
<pdfrwt beam="1">  1        2 0.26895053E-01 0.77502471E+02</pdfrwt>
<pdfrwt beam="2">  1       -1 0.13215146E-02 0.77502471E+02</pdfrwt>
<totfact> 0.22905850E+05</totfact>
</mgrwt>
</event>
<event>
 8    1  0.1520917E-013  0.8042667E+02  0.7818608E-02  0.1327845E+00
          2   -1    0    0  501    0  0.00000000000E+00  0.00000000000E+00  0.16520337746E+04  0.16520337746E+04  0.25500000000E-02 0. -1.
         -1   -1    0    0    0  501 -0.00000000000E+00 -0.00000000000E+00 -0.97885501403E+00  0.97886798911E+00  0.50400000000E-02 0.  1.
         24    2    1    2    0    0  0.00000000000E+00  0.00000000000E+00  0.16510549196E+04  0.16530126426E+04  0.80426668942E+02 0.  0.
         66    2    3    3    0    0 -0.85058215074E+01  0.89900268871E+01  0.16118881071E+04  0.16119368596E+04  0.19999985130E+01 0.  0.
        -13    1    3    3    0    0  0.85058215074E+01 -0.89900268871E+01  0.39166812550E+02  0.41075783040E+02  0.10566000000E+00 0.  1.
         13    1    4    4    0    0 -0.15520580961E+01  0.11461064129E+01  0.22643512948E+03  0.22644337365E+03  0.10566000000E+00 0. -1.
        -13    1    4    4    0    0 -0.49613799192E+00  0.67601833750E+00  0.17597801059E+03  0.17598004014E+03  0.10566000000E+00 0.  1.
         14    1    4    4    0    0 -0.64576254193E+01  0.71679021367E+01  0.12094749670E+04  0.12095134458E+04  0.00000000000E+00 0. -1.
<mgrwt>
<rscale>  0 0.80426669E+02</rscale>
<asrwt>0</asrwt>
<pdfrwt beam="1">  1        2 0.25415611E+00 0.80426669E+02</pdfrwt>
<pdfrwt beam="2">  1       -1 0.15059582E-03 0.80426669E+02</pdfrwt>
<totfact> 0.31398666E+05</totfact>
</mgrwt>
</event>
