<event>
 8    1  0.1372337E-024  0.8385783E+02  0.7818608E-02  0.1318447E+00
         -2   -1    0    0    0  501 -0.00000000000E+00  0.00000000000E+00  0.21101128263E+03  0.21101128265E+03  0.25500000000E-02 0.  1.
          1   -1    0    0  501    0  0.00000000000E+00 -0.00000000000E+00 -0.83314680702E+01  0.83314695946E+01  0.50400000000E-02 0. -1.
        -24    2    1    2    0    0  0.71054273576E-14  0.00000000000E+00  0.20267981456E+03  0.21934275224E+03  0.83857830465E+02 0.  0.
         66    2    3    3    0    0  0.38294874334E+02 -0.60524527052E+01  0.14299357589E+03  0.14816980911E+03  0.20000000408E+01 0.  0.
         13    1    3    3    0    0 -0.38294874334E+02  0.60524527052E+01  0.59686238669E+02  0.71172943135E+02  0.10566000000E+00 0. -1.
         13    1    4    4    0    0  0.23988583678E+02 -0.37151031642E+01  0.90425067239E+02  0.93626695379E+02  0.10566000000E+00 0. -1.
        -13    1    4    4    0    0  0.43176597227E+01 -0.12237175014E+01  0.15669833644E+02  0.16300138665E+02  0.10566000000E+00 0.  1.
        -14    1    4    4    0    0  0.99886309337E+01 -0.11136320396E+01  0.36898675010E+02  0.38242975064E+02  0.00000000000E+00 0.  1.
<mgrwt>
<rscale>  0 0.83857830E+02</rscale>
<asrwt>0</asrwt>
<pdfrwt beam="1">  1        1 0.12817644E-02 0.83857830E+02</pdfrwt>
<pdfrwt beam="2">  1       -2 0.32463275E-01 0.83857830E+02</pdfrwt>
<totfact> 0.73675779E+04</totfact>
</mgrwt>
</event>
<event>
 8    1  0.1372337E-024  0.7656112E+02  0.7818608E-02  0.1339104E+00
          1   -1    0    0  501    0  0.00000000000E+00  0.00000000000E+00  0.81293219950E+02  0.81293220106E+02  0.50400000000E-02 0. -1.
         -2   -1    0    0    0  501 -0.00000000000E+00 -0.00000000000E+00 -0.18026118093E+02  0.18026118273E+02  0.25500000000E-02 0.  1.
        -24    2    1    2    0    0  0.00000000000E+00  0.00000000000E+00  0.63267101857E+02  0.99319338379E+02  0.76561118060E+02 0.  0.
         66    2    3    3    0    0  0.29930694754E+02  0.15884923966E+02  0.86230719419E+01  0.35021916445E+02  0.19999909809E+01 0.  0.
         13    1    3    3    0    0 -0.29930694754E+02 -0.15884923966E+02  0.54644029915E+02  0.64297421934E+02  0.10566000000E+00 0. -1.
         13    1    4    4    0    0  0.40457205261E+01  0.20575070996E+01  0.17978952670E+01  0.48831118630E+01  0.10566000000E+00 0. -1.
        -13    1    4    4    0    0  0.18197044576E+02  0.93605003016E+01  0.46620116882E+01  0.20988018349E+02  0.10566000000E+00 0.  1.
        -14    1    4    4    0    0  0.76879296526E+01  0.44669165646E+01  0.21631649867E+01  0.91507862338E+01  0.00000000000E+00 0.  1.
<mgrwt>
<rscale>  0 0.76561118E+02</rscale>
<asrwt>0</asrwt>
<pdfrwt beam="1">  1        1 0.12506649E-01 0.76561118E+02</pdfrwt>
<pdfrwt beam="2">  1       -2 0.27732489E-02 0.76561118E+02</pdfrwt>
<totfact> 0.16004978E+05</totfact>
</mgrwt>
</event>
<event>
 8    1  0.1372337E-024  0.7951818E+02  0.7818608E-02  0.1330424E+00
         -2   -1    0    0    0  501 -0.00000000000E+00  0.00000000000E+00  0.97612500220E+01  0.97612503550E+01  0.25500000000E-02 0.  1.
          1   -1    0    0  501    0  0.00000000000E+00 -0.00000000000E+00 -0.16194495611E+03  0.16194495619E+03  0.50400000000E-02 0. -1.
        -24    2    1    2    0    0  0.00000000000E+00  0.00000000000E+00 -0.15218370609E+03  0.17170620655E+03  0.79518180103E+02 0.  0.
         66    2    3    3    0    0  0.20384897494E+02 -0.27163734951E+02 -0.31604814877E+02  0.46435728329E+02  0.19999999368E+01 0.  0.
         13    1    3    3    0    0 -0.20384897494E+02  0.27163734951E+02 -0.12057889121E+03  0.12527047822E+03  0.10566000000E+00 0. -1.
         13    1    4    4    0    0  0.89970647021E+00 -0.11133450238E+01 -0.16725979549E+01  0.22040319483E+01  0.10566000000E+00 0. -1.
        -13    1    4    4    0    0  0.84012560448E+01 -0.12353190254E+02 -0.13323355857E+02  0.20017626930E+02  0.10566000000E+00 0.  1.
        -14    1    4    4    0    0  0.11083934979E+02 -0.13697199673E+02 -0.16608861065E+02  0.24214069451E+02  0.00000000000E+00 0.  1.
<mgrwt>
<rscale>  0 0.79518180E+02</rscale>
<asrwt>0</asrwt>
<pdfrwt beam="1">  1        1 0.24914607E-01 0.79518180E+02</pdfrwt>
<pdfrwt beam="2">  1       -2 0.15017309E-02 0.79518180E+02</pdfrwt>
<totfact> 0.16275000E+05</totfact>
</mgrwt>
</event>
<event>
 8    1  0.1372337E-024  0.7979399E+02  0.7818608E-02  0.1329637E+00
          1   -1    0    0  501    0  0.00000000000E+00  0.00000000000E+00  0.40558953301E+03  0.40558953304E+03  0.50400000000E-02 0. -1.
         -2   -1    0    0    0  501 -0.00000000000E+00 -0.00000000000E+00 -0.39245832675E+01  0.39245840959E+01  0.25500000000E-02 0.  1.
        -24    2    1    2    0    0  0.00000000000E+00  0.00000000000E+00  0.40166494974E+03  0.40951411713E+03  0.79793986509E+02 0.  0.
         66    2    3    3    0    0  0.28195207875E+01  0.39770344380E+02  0.19907179570E+03  0.20303499660E+03  0.20000027026E+01 0.  0.
         13    1    3    3    0    0 -0.28195207875E+01 -0.39770344380E+02  0.20259315404E+03  0.20647912053E+03  0.10566000000E+00 0. -1.
         13    1    4    4    0    0 -0.46445866689E-01  0.88133310213E+01  0.44256321430E+02  0.45125492922E+02  0.10566000000E+00 0. -1.
        -13    1    4    4    0    0  0.24872230034E+01  0.25616511968E+02  0.12626537020E+03  0.12886173536E+03  0.10566000000E+00 0.  1.
        -14    1    4    4    0    0  0.37874365081E+00  0.53405013908E+01  0.28550104070E+02  0.29047768318E+02  0.00000000000E+00 0.  1.
<mgrwt>
<rscale>  0 0.79793987E+02</rscale>
<asrwt>0</asrwt>
<pdfrwt beam="1">  1        1 0.62398415E-01 0.79793987E+02</pdfrwt>
<pdfrwt beam="2">  1       -2 0.60378186E-03 0.79793987E+02</pdfrwt>
<totfact> 0.19165673E+05</totfact>
</mgrwt>
</event>
<event>
 8    1  0.1372337E-024  0.7966675E+02  0.7818608E-02  0.1330000E+00
         -2   -1    0    0    0  501 -0.00000000000E+00  0.00000000000E+00  0.27436212686E+02  0.27436212804E+02  0.25500000000E-02 0.  1.
          1   -1    0    0  501    0  0.00000000000E+00 -0.00000000000E+00 -0.57832248389E+02  0.57832248608E+02  0.50400000000E-02 0. -1.
        -24    2    1    2    0    0 -0.71054273576E-14 -0.88817841970E-15 -0.30396035703E+02  0.85268461412E+02  0.79666752947E+02 0.  0.
         66    2    3    3    0    0  0.35580246085E+02  0.58639383642E+01  0.28409010624E+01  0.36227205166E+02  0.19999976686E+01 0.  0.
         13    1    3    3    0    0 -0.35580246085E+02 -0.58639383642E+01 -0.33236936765E+02  0.49041256246E+02  0.10566000000E+00 0. -1.
         13    1    4    4    0    0  0.27437900526E+01  0.36387386761E+00 -0.11850346564E+00  0.27723627380E+01  0.10566000000E+00 0.  1.
        -13    1    4    4    0    0  0.96433377682E+01  0.98294461641E+00  0.74881725090E+00  0.97227585973E+01  0.10566000000E+00 0.  1.
        -14    1    4    4    0    0  0.23193118264E+02  0.45171198802E+01  0.22105872772E+01  0.23732083831E+02  0.00000000000E+00 0.  1.
<mgrwt>
<rscale>  0 0.79666753E+02</rscale>
<asrwt>0</asrwt>
<pdfrwt beam="1">  1        1 0.88972690E-02 0.79666753E+02</pdfrwt>
<pdfrwt beam="2">  1       -2 0.42209558E-02 0.79666753E+02</pdfrwt>
<totfact> 0.13616729E+05</totfact>
</mgrwt>
</event>
<event>
 8    1  0.1372337E-024  0.7990449E+02  0.7818608E-02  0.1329323E+00
          1   -1    0    0  501    0  0.00000000000E+00  0.00000000000E+00  0.83675684948E+01  0.83675700126E+01  0.50400000000E-02 0. -1.
         -2   -1    0    0    0  501 -0.00000000000E+00 -0.00000000000E+00 -0.19075815274E+03  0.19075815275E+03  0.25500000000E-02 0.  1.
        -24    2    1    2    0    0  0.00000000000E+00  0.35527136788E-14 -0.18239058424E+03  0.19912572277E+03  0.79904494537E+02 0.  0.
         66    2    3    3    0    0 -0.27236836372E+02 -0.29123203713E+02 -0.96341682138E+02  0.10428674888E+03  0.20000062995E+01 0.  0.
         13    1    3    3    0    0  0.27236836372E+02  0.29123203713E+02 -0.86048902104E+02  0.94838973884E+02  0.10566000000E+00 0. -1.
         13    1    4    4    0    0 -0.14093689117E+02 -0.14780448484E+02 -0.50689293461E+02  0.54648964912E+02  0.10566000000E+00 0.  1.
        -13    1    4    4    0    0 -0.74011318376E+01 -0.72607792797E+01 -0.23953674346E+02  0.26101443388E+02  0.10566000000E+00 0. -1.
         14    1    4    4    0    0 -0.57420154172E+01 -0.70819759496E+01 -0.21698714332E+02  0.23536340583E+02  0.00000000000E+00 0. -1.
<mgrwt>
<rscale>  0 0.79904495E+02</rscale>
<asrwt>0</asrwt>
<pdfrwt beam="1">  1        1 0.12873185E-02 0.79904495E+02</pdfrwt>
<pdfrwt beam="2">  1       -2 0.29347405E-01 0.79904495E+02</pdfrwt>
<totfact> 0.86963835E+04</totfact>
</mgrwt>
</event>
<event>
 8    1  0.1372337E-024  0.8052534E+02  0.7818608E-02  0.1327567E+00
         -2   -1    0    0    0  501 -0.00000000000E+00  0.00000000000E+00  0.28419965046E+02  0.28419965160E+02  0.25500000000E-02 0.  1.
          1   -1    0    0  501    0  0.00000000000E+00 -0.00000000000E+00 -0.57040273679E+02  0.57040273901E+02  0.50400000000E-02 0. -1.
        -24    2    1    2    0    0  0.44408920985E-15 -0.71054273576E-14 -0.28620308633E+02  0.85460239061E+02  0.80525340075E+02 0.  0.
         66    2    3    3    0    0 -0.35664074664E+01  0.37992152004E+02 -0.77127310008E+00  0.38219337077E+02  0.19999970768E+01 0.  0.
         13    1    3    3    0    0  0.35664074664E+01 -0.37992152004E+02 -0.27849035533E+02  0.47240901984E+02  0.10566000000E+00 0. -1.
         13    1    4    4    0    0 -0.33111138044E+00  0.11985967010E+01 -0.16774624349E+00  0.12591948362E+01  0.10566000000E+00 0. -1.
        -13    1    4    4    0    0 -0.13126802695E+01  0.95630520957E+01 -0.38493769669E+00  0.96609748960E+01  0.10566000000E+00 0. -1.
        -14    1    4    4    0    0 -0.19226158164E+01  0.27230503207E+02 -0.21858915989E+00  0.27299167345E+02  0.00000000000E+00 0.  1.
<mgrwt>
<rscale>  0 0.80525340E+02</rscale>
<asrwt>0</asrwt>
<pdfrwt beam="1">  1        1 0.87754268E-02 0.80525340E+02</pdfrwt>
<pdfrwt beam="2">  1       -2 0.43723023E-02 0.80525340E+02</pdfrwt>
<totfact> 0.13190806E+05</totfact>
</mgrwt>
</event>
<event>
 8    1  0.1372337E-024  0.8083648E+02  0.7818608E-02  0.1326694E+00
          1   -1    0    0  501    0  0.00000000000E+00  0.00000000000E+00  0.57663733915E+01  0.57663755941E+01  0.50400000000E-02 0. -1.
         -2   -1    0    0    0  501 -0.00000000000E+00 -0.00000000000E+00 -0.28330353417E+03  0.28330353418E+03  0.25500000000E-02 0.  1.
        -24    2    1    2    0    0  0.17763568394E-14 -0.71054273576E-14 -0.27753716078E+03  0.28906990977E+03  0.80836483871E+02 0.  0.
         66    2    3    3    0    0 -0.12536087437E+02  0.36556104562E+02 -0.18088091041E+03  0.18497406852E+03  0.20000005568E+01 0.  0.
         13    1    3    3    0    0  0.12536087437E+02 -0.36556104562E+02 -0.96656250363E+02  0.10409584126E+03  0.10566000000E+00 0. -1.
         13    1    4    4    0    0 -0.21588970447E+01  0.74692868211E+01 -0.38797871418E+02  0.39569395657E+02  0.10566000000E+00 0. -1.
        -13    1    4    4    0    0 -0.50157948629E+01  0.14565460212E+02 -0.73295108697E+02  0.74896561685E+02  0.10566000000E+00 0.  1.
         14    1    4    4    0    0 -0.53613955297E+01  0.14521357529E+02 -0.68787930299E+02  0.70508111174E+02  0.00000000000E+00 0. -1.
<mgrwt>
<rscale>  0 0.80836484E+02</rscale>
<asrwt>0</asrwt>
<pdfrwt beam="1">  1        1 0.88713476E-03 0.80836484E+02</pdfrwt>
<pdfrwt beam="2">  1       -2 0.43585148E-01 0.80836484E+02</pdfrwt>
<totfact> 0.70525784E+04</totfact>
</mgrwt>
</event>
<event>
 8    1  0.1372337E-024  0.8409220E+02  0.7818608E-02  0.1317824E+00
          1   -1    0    0  501    0  0.00000000000E+00  0.00000000000E+00  0.95100188200E+02  0.95100188333E+02  0.50400000000E-02 0. -1.
         -2   -1    0    0    0  501 -0.00000000000E+00 -0.00000000000E+00 -0.18589600953E+02  0.18589601128E+02  0.25500000000E-02 0.  1.
        -24    2    1    2    0    0  0.44408920985E-15  0.00000000000E+00  0.76510587246E+02  0.11368978946E+03  0.84092200988E+02 0.  0.
         66    2    3    3    0    0  0.37100162162E+01 -0.27116023202E+02 -0.48342369456E+01  0.27864184183E+02  0.19999946749E+01 0.  0.
         13    1    3    3    0    0 -0.37100162162E+01  0.27116023202E+02  0.81344824192E+02  0.85825605279E+02  0.10566000000E+00 0. -1.
         13    1    4    4    0    0  0.20160686717E+01 -0.10078551721E+02 -0.20608804358E+01  0.10483326280E+02  0.10566000000E+00 0. -1.
        -13    1    4    4    0    0  0.13581820582E+01 -0.12599004317E+02 -0.15657370515E+01  0.12768800446E+02  0.10566000000E+00 0.  1.
         14    1    4    4    0    0  0.33576548634E+00 -0.44384671637E+01 -0.12076194583E+01  0.46120574564E+01  0.00000000000E+00 0. -1.
<mgrwt>
<rscale>  0 0.84092201E+02</rscale>
<asrwt>0</asrwt>
<pdfrwt beam="1">  1        1 0.14630798E-01 0.84092201E+02</pdfrwt>
<pdfrwt beam="2">  1       -2 0.28599386E-02 0.84092201E+02</pdfrwt>
<totfact> 0.12728979E+05</totfact>
</mgrwt>
</event>
<event>
 8    1  0.1372337E-024  0.8071926E+02  0.7818608E-02  0.1327023E+00
          1   -1    0    0  501    0  0.00000000000E+00  0.00000000000E+00  0.22359717829E+02  0.22359718397E+02  0.50400000000E-02 0. -1.
         -2   -1    0    0    0  501 -0.00000000000E+00 -0.00000000000E+00 -0.72849740019E+02  0.72849740064E+02  0.25500000000E-02 0.  1.
        -24    2    1    2    0    0  0.00000000000E+00  0.00000000000E+00 -0.50490022191E+02  0.95209458461E+02  0.80719258170E+02 0.  0.
         66    2    3    3    0    0  0.11776035214E+02  0.24077723578E+01 -0.70674377086E+02  0.71717082683E+02  0.19999997577E+01 0.  0.
         13    1    3    3    0    0 -0.11776035214E+02 -0.24077723578E+01  0.20184354895E+02  0.23492375777E+02  0.10566000000E+00 0. -1.
         13    1    4    4    0    0  0.34062233433E+00  0.95646990810E-01 -0.31411306547E+01  0.31627579336E+01  0.10566000000E+00 0. -1.
        -13    1    4    4    0    0  0.57416531717E+01  0.14875460628E+01 -0.29761885283E+02  0.30347328615E+02  0.10566000000E+00 0.  1.
        -14    1    4    4    0    0  0.56937597076E+01  0.82457930428E+00 -0.37771361148E+02  0.38206996135E+02  0.00000000000E+00 0.  1.
<mgrwt>
<rscale>  0 0.80719258E+02</rscale>
<asrwt>0</asrwt>
<pdfrwt beam="1">  1        1 0.34399567E-02 0.80719258E+02</pdfrwt>
<pdfrwt beam="2">  1       -2 0.11207652E-01 0.80719258E+02</pdfrwt>
<totfact> 0.11141914E+05</totfact>
</mgrwt>
</event>
<event>
 8    1  0.1372337E-024  0.8307738E+02  0.7818608E-02  0.1320538E+00
         -2   -1    0    0    0  501 -0.00000000000E+00  0.00000000000E+00  0.76169968175E+01  0.76169972443E+01  0.25500000000E-02 0.  1.
          1   -1    0    0  501    0  0.00000000000E+00 -0.00000000000E+00 -0.22652795597E+03  0.22652795603E+03  0.50400000000E-02 0. -1.
        -24    2    1    2    0    0 -0.35527136788E-14  0.00000000000E+00 -0.21891095915E+03  0.23414495327E+03  0.83077380224E+02 0.  0.
         66    2    3    3    0    0 -0.31408482322E+02  0.57479218314E+01 -0.34742152119E+02  0.47228683204E+02  0.20000040471E+01 0.  0.
         13    1    3    3    0    0  0.31408482322E+02 -0.57479218314E+01 -0.18416880704E+03  0.18691627007E+03  0.10566000000E+00 0. -1.
         13    1    4    4    0    0 -0.45704913763E+01  0.13756442487E+01 -0.55445862250E+01  0.73167881589E+01  0.10566000000E+00 0. -1.
        -13    1    4    4    0    0 -0.21445372399E+01  0.52104798653E+00 -0.20848224556E+01  0.30377919094E+01  0.10566000000E+00 0.  1.
        -14    1    4    4    0    0 -0.24693453706E+02  0.38512295962E+01 -0.27112743438E+02  0.36874103136E+02  0.00000000000E+00 0.  1.
<mgrwt>
<rscale>  0 0.83077380E+02</rscale>
<asrwt>0</asrwt>
<pdfrwt beam="1">  1        1 0.34850450E-01 0.83077380E+02</pdfrwt>
<pdfrwt beam="2">  1       -2 0.11718459E-02 0.83077380E+02</pdfrwt>
<totfact> 0.15454910E+05</totfact>
</mgrwt>
</event>
<event>
 8    1  0.1372337E-024  0.8055570E+02  0.7818608E-02  0.1327482E+00
          1   -1    0    0  501    0  0.00000000000E+00  0.00000000000E+00  0.21853499680E+02  0.21853500262E+02  0.50400000000E-02 0. -1.
         -2   -1    0    0    0  501 -0.00000000000E+00 -0.00000000000E+00 -0.74235489299E+02  0.74235489343E+02  0.25500000000E-02 0.  1.
        -24    2    1    2    0    0  0.00000000000E+00 -0.17763568394E-14 -0.52381989618E+02  0.96088989604E+02  0.80555701764E+02 0.  0.
         66    2    3    3    0    0  0.43153921787E+01 -0.14787122305E+02 -0.70567076782E+02  0.72256445575E+02  0.20000014360E+01 0.  0.
         13    1    3    3    0    0 -0.43153921787E+01  0.14787122305E+02  0.18185087164E+02  0.23832544029E+02  0.10566000000E+00 0. -1.
         13    1    4    4    0    0  0.22875693671E+00 -0.20615667278E+01 -0.77284151945E+01  0.80026216057E+01  0.10566000000E+00 0. -1.
        -13    1    4    4    0    0  0.11681827767E+01 -0.36652389506E+01 -0.15823074191E+02  0.16284331993E+02  0.10566000000E+00 0.  1.
         14    1    4    4    0    0  0.29184524653E+01 -0.90603166265E+01 -0.47015587397E+02  0.47969491976E+02  0.00000000000E+00 0. -1.
<mgrwt>
<rscale>  0 0.80555702E+02</rscale>
<asrwt>0</asrwt>
<pdfrwt beam="1">  1        1 0.33620770E-02 0.80555702E+02</pdfrwt>
<pdfrwt beam="2">  1       -2 0.11420844E-01 0.80555702E+02</pdfrwt>
<totfact> 0.11156020E+05</totfact>
</mgrwt>
</event>
<event>
 8    1  0.1372337E-024  0.8308086E+02  0.7818608E-02  0.1320529E+00
          1   -1    0    0  501    0  0.00000000000E+00  0.00000000000E+00  0.63151936475E+02  0.63151936676E+02  0.50400000000E-02 0. -1.
         -2   -1    0    0    0  501 -0.00000000000E+00 -0.00000000000E+00 -0.27324690828E+02  0.27324690947E+02  0.25500000000E-02 0.  1.
        -24    2    1    2    0    0  0.00000000000E+00  0.88817841970E-15  0.35827245647E+02  0.90476627623E+02  0.83080855890E+02 0.  0.
         66    2    3    3    0    0  0.38195559061E+02 -0.56528611117E+01  0.13098645647E+01  0.38685544109E+02  0.20000017881E+01 0.  0.
         13    1    3    3    0    0 -0.38195559061E+02  0.56528611117E+01  0.34517381083E+02  0.51791083514E+02  0.10566000000E+00 0. -1.
         13    1    4    4    0    0  0.34242858938E+01 -0.51284508960E+00 -0.19368395072E+00  0.34694987356E+01  0.10566000000E+00 0. -1.
        -13    1    4    4    0    0  0.93332840935E+01 -0.81674829053E+00  0.39086760280E-03  0.93695482243E+01  0.10566000000E+00 0.  1.
        -14    1    4    4    0    0  0.25437989073E+02 -0.43232677316E+01  0.15031576478E+01  0.25846497149E+02  0.00000000000E+00 0.  1.
<mgrwt>
<rscale>  0 0.83080856E+02</rscale>
<asrwt>0</asrwt>
<pdfrwt beam="1">  1        1 0.97156825E-02 0.83080856E+02</pdfrwt>
<pdfrwt beam="2">  1       -2 0.42037986E-02 0.83080856E+02</pdfrwt>
<totfact> 0.12296697E+05</totfact>
</mgrwt>
</event>
<event>
 8    1  0.1372337E-024  0.7509703E+02  0.7818608E-02  0.1343571E+00
          1   -1    0    0  501    0  0.00000000000E+00  0.00000000000E+00  0.49933469349E+01  0.49933494784E+01  0.50400000000E-02 0. -1.
         -2   -1    0    0    0  501 -0.00000000000E+00 -0.00000000000E+00 -0.28235382242E+03  0.28235382244E+03  0.25500000000E-02 0.  1.
        -24    2    1    2    0    0  0.00000000000E+00  0.00000000000E+00 -0.27736047549E+03  0.28734717191E+03  0.75097029524E+02 0.  0.
         66    2    3    3    0    0 -0.33794235581E+02 -0.68534193471E+01 -0.82170863005E+02  0.89135124599E+02  0.19999987310E+01 0.  0.
         13    1    3    3    0    0  0.33794235581E+02  0.68534193471E+01 -0.19518961248E+03  0.19821204731E+03  0.10566000000E+00 0. -1.
         13    1    4    4    0    0 -0.12497981194E+02 -0.17420071757E+01 -0.29828063312E+02  0.32387631095E+02  0.10566000000E+00 0. -1.
        -13    1    4    4    0    0 -0.16978742770E+02 -0.40967427847E+01 -0.40764618768E+02  0.44348915599E+02  0.10566000000E+00 0.  1.
         14    1    4    4    0    0 -0.43175116174E+01 -0.10146693866E+01 -0.11578180925E+02  0.12398577905E+02  0.00000000000E+00 0. -1.
<mgrwt>
<rscale>  0 0.75097030E+02</rscale>
<asrwt>0</asrwt>
<pdfrwt beam="1">  1        1 0.76820764E-03 0.75097030E+02</pdfrwt>
<pdfrwt beam="2">  1       -2 0.43439037E-01 0.75097030E+02</pdfrwt>
<totfact> 0.85422016E+04</totfact>
</mgrwt>
</event>
<event>
 8    1  0.1372337E-024  0.7970047E+02  0.7818608E-02  0.1329904E+00
         -2   -1    0    0    0  501 -0.00000000000E+00  0.00000000000E+00  0.11111603377E+02  0.11111603669E+02  0.25500000000E-02 0.  1.
          1   -1    0    0  501    0  0.00000000000E+00 -0.00000000000E+00 -0.14291738671E+03  0.14291738680E+03  0.50400000000E-02 0. -1.
        -24    2    1    2    0    0  0.00000000000E+00  0.00000000000E+00 -0.13180578334E+03  0.15402899047E+03  0.79700472926E+02 0.  0.
         66    2    3    3    0    0  0.12529665143E+02 -0.25289790778E+02 -0.11643068264E+02  0.30596193841E+02  0.20000031881E+01 0.  0.
         13    1    3    3    0    0 -0.12529665143E+02  0.25289790778E+02 -0.12016271507E+03  0.12343279663E+03  0.10566000000E+00 0. -1.
         13    1    4    4    0    0  0.22058609597E+01 -0.42775655228E+01 -0.12442859355E+01  0.49722028217E+01  0.10566000000E+00 0. -1.
        -13    1    4    4    0    0  0.60059483338E+00 -0.14234815708E+01 -0.75646111052E+00  0.17234881443E+01  0.10566000000E+00 0.  1.
        -14    1    4    4    0    0  0.97232093505E+01 -0.19588743685E+02 -0.96423212182E+01  0.23900502876E+02  0.00000000000E+00 0.  1.
<mgrwt>
<rscale>  0 0.79700473E+02</rscale>
<asrwt>0</asrwt>
<pdfrwt beam="1">  1        1 0.21987289E-01 0.79700473E+02</pdfrwt>
<pdfrwt beam="2">  1       -2 0.17094776E-02 0.79700473E+02</pdfrwt>
<totfact> 0.15806644E+05</totfact>
</mgrwt>
</event>
<event>
 8    1  0.1372337E-024  0.7960592E+02  0.7818608E-02  0.1330174E+00
          1   -1    0    0  501    0  0.00000000000E+00  0.00000000000E+00  0.35738768149E+02  0.35738768505E+02  0.50400000000E-02 0. -1.
         -2   -1    0    0    0  501 -0.00000000000E+00 -0.00000000000E+00 -0.44329325502E+02  0.44329325576E+02  0.25500000000E-02 0.  1.
        -24    2    1    2    0    0  0.55511151231E-16 -0.71054273576E-14 -0.85905573530E+01  0.80068094080E+02  0.79605916954E+02 0.  0.
         66    2    3    3    0    0  0.44762331163E+00 -0.36922849162E+02 -0.19174846295E+02  0.41655394445E+02  0.19999997676E+01 0.  0.
         13    1    3    3    0    0 -0.44762331163E+00  0.36922849162E+02  0.10584288942E+02  0.38412699636E+02  0.10566000000E+00 0. -1.
         13    1    4    4    0    0  0.34725139646E+00 -0.12423194824E+02 -0.68658845368E+01  0.14198869240E+02  0.10566000000E+00 0. -1.
        -13    1    4    4    0    0  0.59559538504E+00 -0.20355398247E+02 -0.10011830857E+02  0.22692397247E+02  0.10566000000E+00 0.  1.
         14    1    4    4    0    0 -0.49522346987E+00 -0.41442560902E+01 -0.22971309018E+01  0.47641279586E+01  0.00000000000E+00 0. -1.
<mgrwt>
<rscale>  0 0.79605917E+02</rscale>
<asrwt>0</asrwt>
<pdfrwt beam="1">  1        1 0.54982721E-02 0.79605917E+02</pdfrwt>
<pdfrwt beam="2">  1       -2 0.68198962E-02 0.79605917E+02</pdfrwt>
<totfact> 0.12639924E+05</totfact>
</mgrwt>
</event>
<event>
 8    1  0.1372337E-024  0.7965794E+02  0.7818608E-02  0.1330025E+00
          1   -1    0    0  501    0  0.00000000000E+00  0.00000000000E+00  0.29395316761E+02  0.29395317193E+02  0.50400000000E-02 0. -1.
         -2   -1    0    0    0  501 -0.00000000000E+00 -0.00000000000E+00 -0.53965965419E+02  0.53965965479E+02  0.25500000000E-02 0.  1.
        -24    2    1    2    0    0 -0.71054273576E-14  0.17763568394E-14 -0.24570648658E+02  0.83361282672E+02  0.79657935407E+02 0.  0.
         66    2    3    3    0    0 -0.37697192879E+02  0.89404717657E+01 -0.21846040829E+02  0.44522577259E+02  0.19999998656E+01 0.  0.
         13    1    3    3    0    0  0.37697192879E+02 -0.89404717657E+01 -0.27246078291E+01  0.38838705414E+02  0.10566000000E+00 0. -1.
         13    1    4    4    0    0 -0.27489430200E+02  0.66830855734E+01 -0.15042634388E+02  0.32040980304E+02  0.10566000000E+00 0. -1.
        -13    1    4    4    0    0 -0.24502195904E+01  0.69611838131E+00 -0.17616901897E+01  0.30988503033E+01  0.10566000000E+00 0.  1.
         14    1    4    4    0    0 -0.77575430889E+01  0.15612678110E+01 -0.50417162516E+01  0.93827466509E+01  0.00000000000E+00 0. -1.
<mgrwt>
<rscale>  0 0.79657935E+02</rscale>
<asrwt>0</asrwt>
<pdfrwt beam="1">  1        1 0.45223565E-02 0.79657935E+02</pdfrwt>
<pdfrwt beam="2">  1       -2 0.83024562E-02 0.79657935E+02</pdfrwt>
<totfact> 0.12200602E+05</totfact>
</mgrwt>
</event>
<event>
 8    1  0.1372337E-024  0.8006926E+02  0.7818608E-02  0.1328855E+00
         -2   -1    0    0    0  501 -0.00000000000E+00  0.00000000000E+00  0.43880220614E+02  0.43880220688E+02  0.25500000000E-02 0.  1.
          1   -1    0    0  501    0  0.00000000000E+00 -0.00000000000E+00 -0.36526058259E+02  0.36526058607E+02  0.50400000000E-02 0. -1.
        -24    2    1    2    0    0 -0.17763568394E-14  0.00000000000E+00  0.73541623553E+01  0.80406279295E+02  0.80069257809E+02 0.  0.
         66    2    3    3    0    0  0.11294928840E+02 -0.16046247931E+02  0.38693148265E+02  0.43430602261E+02  0.19999999769E+01 0.  0.
         13    1    3    3    0    0 -0.11294928840E+02  0.16046247931E+02 -0.31338985910E+02  0.36975677034E+02  0.10566000000E+00 0. -1.
         13    1    4    4    0    0  0.26098267512E+01 -0.28070597461E+01  0.80591736286E+01  0.89248094490E+01  0.10566000000E+00 0. -1.
        -13    1    4    4    0    0  0.64008485624E+01 -0.95610863487E+01  0.23377452912E+02  0.26055742231E+02  0.10566000000E+00 0.  1.
        -14    1    4    4    0    0  0.22842535268E+01 -0.36781018367E+01  0.72565217244E+01  0.84500505816E+01  0.00000000000E+00 0.  1.
<mgrwt>
<rscale>  0 0.80069258E+02</rscale>
<asrwt>0</asrwt>
<pdfrwt beam="1">  1        1 0.56193936E-02 0.80069258E+02</pdfrwt>
<pdfrwt beam="2">  1       -2 0.67508032E-02 0.80069258E+02</pdfrwt>
<totfact> 0.12478781E+05</totfact>
</mgrwt>
</event>
<event>
 8    1  0.1372337E-024  0.7802426E+02  0.7818608E-02  0.1334754E+00
         -2   -1    0    0    0  501 -0.00000000000E+00  0.00000000000E+00  0.39728440053E+02  0.39728440135E+02  0.25500000000E-02 0.  1.
          1   -1    0    0  501    0  0.00000000000E+00 -0.00000000000E+00 -0.38308731630E+02  0.38308731962E+02  0.50400000000E-02 0. -1.
        -24    2    1    2    0    0  0.35527136788E-14 -0.71054273576E-14  0.14197084230E+01  0.78037172097E+02  0.78024256849E+02 0.  0.
         66    2    3    3    0    0 -0.15511020650E+02  0.35762150861E+02  0.13569877443E+01  0.39055916425E+02  0.19999990702E+01 0.  0.
         13    1    3    3    0    0  0.15511020650E+02 -0.35762150861E+02  0.62720678674E-01  0.38981255671E+02  0.10566000000E+00 0. -1.
         13    1    4    4    0    0 -0.12696958230E+01  0.19295913556E+01 -0.14339230232E+00  0.23167165710E+01  0.10566000000E+00 0. -1.
        -13    1    4    4    0    0 -0.11047731941E+02  0.26042167750E+02  0.11131293330E+01  0.28310724171E+02  0.10566000000E+00 0.  1.
         14    1    4    4    0    0 -0.31935928867E+01  0.77903917554E+01  0.38725071357E+00  0.84284756833E+01  0.00000000000E+00 0. -1.
<mgrwt>
<rscale>  0 0.78024257E+02</rscale>
<asrwt>0</asrwt>
<pdfrwt beam="1">  1        1 0.58936510E-02 0.78024257E+02</pdfrwt>
<pdfrwt beam="2">  1       -2 0.61120678E-02 0.78024257E+02</pdfrwt>
<totfact> 0.13529022E+05</totfact>
</mgrwt>
</event>
<event>
 8    1  0.1372337E-024  0.7772016E+02  0.7818608E-02  0.1335649E+00
          1   -1    0    0  501    0  0.00000000000E+00  0.00000000000E+00  0.70164617585E+01  0.70164635686E+01  0.50400000000E-02 0. -1.
         -2   -1    0    0    0  501 -0.00000000000E+00 -0.00000000000E+00 -0.21522326488E+03  0.21522326490E+03  0.25500000000E-02 0.  1.
        -24    2    1    2    0    0  0.00000000000E+00  0.00000000000E+00 -0.20820680313E+03  0.22223972847E+03  0.77720164962E+02 0.  0.
         66    2    3    3    0    0 -0.20012821218E+02 -0.21772069513E+02 -0.17614746529E+03  0.17862381016E+03  0.20000002552E+01 0.  0.
         13    1    3    3    0    0  0.20012821218E+02  0.21772069513E+02 -0.32059337832E+02  0.43615918313E+02  0.10566000000E+00 0. -1.
         13    1    4    4    0    0 -0.95417314034E+00 -0.13242764796E+01 -0.87534131228E+01  0.89049177375E+01  0.10566000000E+00 0. -1.
        -13    1    4    4    0    0 -0.17624841440E+02 -0.18266074002E+02 -0.15125151494E+03  0.15336660794E+03  0.10566000000E+00 0.  1.
        -14    1    4    4    0    0 -0.14338066375E+01 -0.21817190316E+01 -0.16142537231E+02  0.16352284478E+02  0.00000000000E+00 0.  1.
<mgrwt>
<rscale>  0 0.77720165E+02</rscale>
<asrwt>0</asrwt>
<pdfrwt beam="1">  1        1 0.10794560E-02 0.77720165E+02</pdfrwt>
<pdfrwt beam="2">  1       -2 0.33111267E-01 0.77720165E+02</pdfrwt>
<totfact> 0.88901133E+04</totfact>
</mgrwt>
</event>
<event>
 8    1  0.1372337E-024  0.8145083E+02  0.7818608E-02  0.1324984E+00
         -2   -1    0    0    0  501 -0.00000000000E+00  0.00000000000E+00  0.50164381381E+02  0.50164381446E+02  0.25500000000E-02 0.  1.
          1   -1    0    0  501    0  0.00000000000E+00 -0.00000000000E+00 -0.33062489308E+02  0.33062489693E+02  0.50400000000E-02 0. -1.
        -24    2    1    2    0    0  0.35527136788E-14 -0.35527136788E-14  0.17101892072E+02  0.83226871138E+02  0.81450827909E+02 0.  0.
         66    2    3    3    0    0 -0.17000810743E+02  0.25869155753E+02  0.35557923939E+02  0.47186934102E+02  0.20000024397E+01 0.  0.
         13    1    3    3    0    0  0.17000810743E+02 -0.25869155753E+02 -0.18456031867E+02  0.36039937036E+02  0.10566000000E+00 0. -1.
         13    1    4    4    0    0 -0.11194516155E+02  0.17742409096E+02  0.24747158382E+02  0.32442923489E+02  0.10566000000E+00 0. -1.
        -13    1    4    4    0    0 -0.28121968417E+01  0.41810979627E+01  0.60461822080E+01  0.78713095847E+01  0.10566000000E+00 0.  1.
         14    1    4    4    0    0 -0.29940977459E+01  0.39456486940E+01  0.47645833491E+01  0.68727010280E+01  0.00000000000E+00 0. -1.
<mgrwt>
<rscale>  0 0.81450828E+02</rscale>
<asrwt>0</asrwt>
<pdfrwt beam="1">  1        1 0.50865369E-02 0.81450828E+02</pdfrwt>
<pdfrwt beam="2">  1       -2 0.77175971E-02 0.81450828E+02</pdfrwt>
<totfact> 0.11684998E+05</totfact>
</mgrwt>
</event>
<event>
 8    1  0.1372337E-024  0.7930527E+02  0.7818608E-02  0.1331035E+00
          1   -1    0    0  501    0  0.00000000000E+00  0.00000000000E+00  0.12520591154E+02  0.12520592168E+02  0.50400000000E-02 0. -1.
         -2   -1    0    0    0  501 -0.00000000000E+00 -0.00000000000E+00 -0.12557963053E+03  0.12557963056E+03  0.25500000000E-02 0.  1.
        -24    2    1    2    0    0  0.00000000000E+00 -0.17763568394E-14 -0.11305903938E+03  0.13810022272E+03  0.79305265473E+02 0.  0.
         66    2    3    3    0    0 -0.23900426052E+01 -0.13212875806E+02 -0.12148934051E+03  0.12224545902E+03  0.20000005539E+01 0.  0.
         13    1    3    3    0    0  0.23900426052E+01  0.13212875806E+02  0.84303011380E+01  0.15854763702E+02  0.10566000000E+00 0. -1.
         13    1    4    4    0    0 -0.71615629709E-01 -0.26287425600E+00 -0.11374024476E+01  0.11743423846E+01  0.10566000000E+00 0. -1.
        -13    1    4    4    0    0 -0.78350294094E+00 -0.60005665556E+01 -0.53297828502E+02  0.53640379966E+02  0.10566000000E+00 0.  1.
         14    1    4    4    0    0 -0.15349240346E+01 -0.69494349947E+01 -0.67054109565E+02  0.67430736672E+02  0.00000000000E+00 0. -1.
<mgrwt>
<rscale>  0 0.79305265E+02</rscale>
<asrwt>0</asrwt>
<pdfrwt beam="1">  1        1 0.19262450E-02 0.79305265E+02</pdfrwt>
<pdfrwt beam="2">  1       -2 0.19319942E-01 0.79305265E+02</pdfrwt>
<totfact> 0.10210375E+05</totfact>
</mgrwt>
</event>
<event>
 8    1  0.1372337E-024  0.8018681E+02  0.7818608E-02  0.1328522E+00
          1   -1    0    0  501    0  0.00000000000E+00  0.00000000000E+00  0.10385895630E+03  0.10385895643E+03  0.50400000000E-02 0. -1.
         -2   -1    0    0    0  501 -0.00000000000E+00 -0.00000000000E+00 -0.15477537671E+02  0.15477537881E+02  0.25500000000E-02 0.  1.
        -24    2    1    2    0    0  0.00000000000E+00  0.00000000000E+00  0.88381418632E+02  0.11933649431E+03  0.80186805111E+02 0.  0.
         66    2    3    3    0    0  0.62862891728E+01 -0.28590110547E+02  0.35002705027E+01  0.29549344198E+02  0.19999990751E+01 0.  0.
         13    1    3    3    0    0 -0.62862891728E+01  0.28590110547E+02  0.84881148129E+02  0.89787150108E+02  0.10566000000E+00 0. -1.
         13    1    4    4    0    0  0.37285651806E+00 -0.23125450591E+01  0.38360194701E+00  0.23759631990E+01  0.10566000000E+00 0. -1.
        -13    1    4    4    0    0  0.43957956531E+01 -0.20891383416E+02  0.31308949192E+01  0.21577455538E+02  0.10566000000E+00 0.  1.
         14    1    4    4    0    0  0.15176370016E+01 -0.53861820720E+01 -0.14226363508E-01  0.55959254615E+01  0.00000000000E+00 0. -1.
<mgrwt>
<rscale>  0 0.80186805E+02</rscale>
<asrwt>0</asrwt>
<pdfrwt beam="1">  1        1 0.15978301E-01 0.80186805E+02</pdfrwt>
<pdfrwt beam="2">  1       -2 0.23811596E-02 0.80186805E+02</pdfrwt>
<totfact> 0.14700555E+05</totfact>
</mgrwt>
</event>
<event>
 8    1  0.1372337E-024  0.8327616E+02  0.7818608E-02  0.1320003E+00
         -2   -1    0    0    0  501 -0.00000000000E+00  0.00000000000E+00  0.23234714915E+02  0.23234715055E+02  0.25500000000E-02 0.  1.
          1   -1    0    0  501    0  0.00000000000E+00 -0.00000000000E+00 -0.74618078875E+02  0.74618079045E+02  0.50400000000E-02 0. -1.
        -24    2    1    2    0    0  0.00000000000E+00  0.00000000000E+00 -0.51383363960E+02  0.97852794100E+02  0.83276162384E+02 0.  0.
         66    2    3    3    0    0  0.38961562487E+02 -0.27396519422E+01 -0.88326382182E+01  0.40093946558E+02  0.20000021269E+01 0.  0.
         13    1    3    3    0    0 -0.38961562487E+02  0.27396519422E+01 -0.42550725742E+02  0.57758847542E+02  0.10566000000E+00 0. -1.
         13    1    4    4    0    0  0.24611431143E+01  0.18503465819E+00 -0.77964961958E+00  0.25904595768E+01  0.10566000000E+00 0. -1.
        -13    1    4    4    0    0  0.47762825983E+01 -0.63347887279E+00 -0.12126875294E+01  0.49695015868E+01  0.10566000000E+00 0.  1.
        -14    1    4    4    0    0  0.31724136774E+02 -0.22912077276E+01 -0.68403010692E+01  0.32533985395E+02  0.00000000000E+00 0.  1.
<mgrwt>
<rscale>  0 0.83276162E+02</rscale>
<asrwt>0</asrwt>
<pdfrwt beam="1">  1        1 0.11479704E-01 0.83276162E+02</pdfrwt>
<pdfrwt beam="2">  1       -2 0.35745716E-02 0.83276162E+02</pdfrwt>
<totfact> 0.12553299E+05</totfact>
</mgrwt>
</event>
<event>
 8    1  0.1372337E-024  0.8019943E+02  0.7818608E-02  0.1328486E+00
         -2   -1    0    0    0  501 -0.00000000000E+00  0.00000000000E+00  0.11069828248E+02  0.11069828542E+02  0.25500000000E-02 0.  1.
          1   -1    0    0  501    0  0.00000000000E+00 -0.00000000000E+00 -0.14525852614E+03  0.14525852623E+03  0.50400000000E-02 0. -1.
        -24    2    1    2    0    0  0.00000000000E+00 -0.17763568394E-14 -0.13418869789E+03  0.15632835477E+03  0.80199425578E+02 0.  0.
         66    2    3    3    0    0  0.22595621640E+02 -0.13583417596E+02 -0.83052075845E+01  0.27713675798E+02  0.20000005932E+01 0.  0.
         13    1    3    3    0    0 -0.22595621640E+02  0.13583417596E+02 -0.12588349031E+03  0.12861467897E+03  0.10566000000E+00 0. -1.
         13    1    4    4    0    0  0.34761916763E+01 -0.16243497733E+01 -0.95820508809E+00  0.39562282268E+01  0.10566000000E+00 0. -1.
        -13    1    4    4    0    0  0.13206697771E+02 -0.82539836556E+01 -0.44074503611E+01  0.16185854779E+02  0.10566000000E+00 0.  1.
        -14    1    4    4    0    0  0.59127321925E+01 -0.37050841668E+01 -0.29395521352E+01  0.75715927927E+01  0.00000000000E+00 0.  1.
<mgrwt>
<rscale>  0 0.80199426E+02</rscale>
<asrwt>0</asrwt>
<pdfrwt beam="1">  1        1 0.22347464E-01 0.80199426E+02</pdfrwt>
<pdfrwt beam="2">  1       -2 0.17030506E-02 0.80199426E+02</pdfrwt>
<totfact> 0.15591284E+05</totfact>
</mgrwt>
</event>
<event>
 8    1  0.1372337E-024  0.7965516E+02  0.7818608E-02  0.1330033E+00
          1   -1    0    0  501    0  0.00000000000E+00  0.00000000000E+00  0.34103713924E+01  0.34103751166E+01  0.50400000000E-02 0. -1.
         -2   -1    0    0    0  501 -0.00000000000E+00 -0.00000000000E+00 -0.46512099890E+03  0.46512099890E+03  0.25500000000E-02 0.  1.
        -24    2    1    2    0    0  0.00000000000E+00  0.00000000000E+00 -0.46171062750E+03  0.46853137402E+03  0.79655162362E+02 0.  0.
         66    2    3    3    0    0 -0.23259389888E+02 -0.67790978581E+01 -0.41675197783E+03  0.41746037706E+03  0.20000013852E+01 0.  0.
         13    1    3    3    0    0  0.23259389888E+02  0.67790978581E+01 -0.44958649672E+02  0.51070996957E+02  0.10566000000E+00 0. -1.
         13    1    4    4    0    0 -0.13654711491E+02 -0.31881195828E+01 -0.23901822194E+03  0.23942918961E+03  0.10566000000E+00 0. -1.
        -13    1    4    4    0    0 -0.86205702911E+01 -0.33455465694E+01 -0.15611803372E+03  0.15639168306E+03  0.10566000000E+00 0.  1.
        -14    1    4    4    0    0 -0.98410810668E+00 -0.24543170592E+00 -0.21615722169E+02  0.21639504393E+02  0.00000000000E+00 0.  1.
<mgrwt>
<rscale>  0 0.79655162E+02</rscale>
<asrwt>0</asrwt>
<pdfrwt beam="1">  1        1 0.52467318E-03 0.79655162E+02</pdfrwt>
<pdfrwt beam="2">  1       -2 0.71557026E-01 0.79655162E+02</pdfrwt>
<totfact> 0.53791662E+04</totfact>
</mgrwt>
</event>
<event>
 8    1  0.1372337E-024  0.8095942E+02  0.7818608E-02  0.1326351E+00
          1   -1    0    0  501    0  0.00000000000E+00  0.00000000000E+00  0.99898327178E+01  0.99898339891E+01  0.50400000000E-02 0. -1.
         -2   -1    0    0    0  501 -0.00000000000E+00 -0.00000000000E+00 -0.16402745481E+03  0.16402745483E+03  0.25500000000E-02 0.  1.
        -24    2    1    2    0    0  0.17763568394E-14  0.71054273576E-14 -0.15403762209E+03  0.17401728882E+03  0.80959420626E+02 0.  0.
         66    2    3    3    0    0  0.10992666610E+02  0.36605221250E+02 -0.10556670333E+03  0.11229029253E+03  0.20000002653E+01 0.  0.
         13    1    3    3    0    0 -0.10992666610E+02 -0.36605221250E+02 -0.48470918759E+02  0.61726996292E+02  0.10566000000E+00 0. -1.
         13    1    4    4    0    0  0.39218314335E-01  0.40729788694E+00 -0.86302795579E+00  0.96094273137E+00  0.10566000000E+00 0. -1.
        -13    1    4    4    0    0  0.86027625848E+01  0.29791638189E+02 -0.85621553286E+02  0.91063773155E+02  0.10566000000E+00 0.  1.
        -14    1    4    4    0    0  0.23506857110E+01  0.64062851739E+01 -0.19082122092E+02  0.20265576640E+02  0.00000000000E+00 0.  1.
<mgrwt>
<rscale>  0 0.80959421E+02</rscale>
<asrwt>0</asrwt>
<pdfrwt beam="1">  1        1 0.15368976E-02 0.80959421E+02</pdfrwt>
<pdfrwt beam="2">  1       -2 0.25234991E-01 0.80959421E+02</pdfrwt>
<totfact> 0.88912925E+04</totfact>
</mgrwt>
</event>
<event>
 8    1  0.1372337E-024  0.8029043E+02  0.7818608E-02  0.1328229E+00
          1   -1    0    0  501    0  0.00000000000E+00  0.00000000000E+00  0.43235262054E+01  0.43235291430E+01  0.50400000000E-02 0. -1.
         -2   -1    0    0    0  501 -0.00000000000E+00 -0.00000000000E+00 -0.37276006984E+03  0.37276006985E+03  0.25500000000E-02 0.  1.
        -24    2    1    2    0    0  0.00000000000E+00 -0.22204460493E-15 -0.36843654364E+03  0.37708359899E+03  0.80290434942E+02 0.  0.
         66    2    3    3    0    0  0.32821415009E+02 -0.14151401667E+01 -0.29249301059E+03  0.29433893584E+03  0.20000005417E+01 0.  0.
         13    1    3    3    0    0 -0.32821415009E+02  0.14151401667E+01 -0.75943533045E+02  0.82744663153E+02  0.10566000000E+00 0. -1.
         13    1    4    4    0    0  0.22844383159E+02 -0.13410699387E+01 -0.20495079271E+03  0.20622439940E+03  0.10566000000E+00 0. -1.
        -13    1    4    4    0    0  0.66709316177E+01 -0.43727900093E+00 -0.56189099626E+02  0.56585498340E+02  0.10566000000E+00 0.  1.
         14    1    4    4    0    0  0.33061002325E+01  0.36320877287E+00 -0.31353118255E+02  0.31529038102E+02  0.00000000000E+00 0. -1.
<mgrwt>
<rscale>  0 0.80290435E+02</rscale>
<asrwt>0</asrwt>
<pdfrwt beam="1">  1        1 0.66515840E-03 0.80290435E+02</pdfrwt>
<pdfrwt beam="2">  1       -2 0.57347678E-01 0.80290435E+02</pdfrwt>
<totfact> 0.61276878E+04</totfact>
</mgrwt>
</event>
<event>
 8    1  0.1372337E-024  0.7952916E+02  0.7818608E-02  0.1330393E+00
          1   -1    0    0  501    0  0.00000000000E+00  0.00000000000E+00  0.17176385694E+02  0.17176386434E+02  0.50400000000E-02 0. -1.
         -2   -1    0    0    0  501 -0.00000000000E+00 -0.00000000000E+00 -0.92057890329E+02  0.92057890364E+02  0.25500000000E-02 0.  1.
        -24    2    1    2    0    0  0.00000000000E+00  0.00000000000E+00 -0.74881504635E+02  0.10923427680E+03  0.79529161263E+02 0.  0.
         66    2    3    3    0    0  0.28966265038E+02 -0.80318680723E+01 -0.73166740932E+02  0.79126022222E+02  0.19999997794E+01 0.  0.
         13    1    3    3    0    0 -0.28966265038E+02  0.80318680723E+01 -0.17147637028E+01  0.30108254576E+02  0.10566000000E+00 0. -1.
         13    1    4    4    0    0  0.40251302322E+01 -0.10544720089E+01 -0.11163098020E+02  0.11913836747E+02  0.10566000000E+00 0. -1.
        -13    1    4    4    0    0  0.58201056413E+01 -0.21138647470E+01 -0.13715375015E+02  0.15048745120E+02  0.10566000000E+00 0.  1.
         14    1    4    4    0    0  0.19121029165E+02 -0.48635313164E+01 -0.48288267897E+02  0.52163440355E+02  0.00000000000E+00 0. -1.
<mgrwt>
<rscale>  0 0.79529161E+02</rscale>
<asrwt>0</asrwt>
<pdfrwt beam="1">  1        1 0.26425210E-02 0.79529161E+02</pdfrwt>
<pdfrwt beam="2">  1       -2 0.14162752E-01 0.79529161E+02</pdfrwt>
<totfact> 0.10991946E+05</totfact>
</mgrwt>
</event>
<event>
 8    1  0.1372337E-024  0.7841120E+02  0.7818608E-02  0.1333622E+00
         -2   -1    0    0    0  501 -0.00000000000E+00  0.00000000000E+00  0.92228309248E+02  0.92228309283E+02  0.25500000000E-02 0.  1.
          1   -1    0    0  501    0  0.00000000000E+00 -0.00000000000E+00 -0.16666023899E+02  0.16666024661E+02  0.50400000000E-02 0. -1.
        -24    2    1    2    0    0 -0.17763568394E-14  0.17763568394E-14  0.75562285349E+02  0.10889433394E+03  0.78411204544E+02 0.  0.
         66    2    3    3    0    0 -0.11782291350E+02  0.13114670258E+02  0.86397513203E+02  0.88200608032E+02  0.20000010159E+01 0.  0.
         13    1    3    3    0    0  0.11782291350E+02 -0.13114670258E+02 -0.10835227855E+02  0.20693725912E+02  0.10566000000E+00 0. -1.
         13    1    4    4    0    0 -0.12023725987E+01  0.18212536773E+01  0.12296467661E+02  0.12489073056E+02  0.10566000000E+00 0. -1.
        -13    1    4    4    0    0 -0.17430282681E+01  0.13230632355E+01  0.11843021338E+02  0.12043959578E+02  0.10566000000E+00 0.  1.
        -14    1    4    4    0    0 -0.88368904828E+01  0.99703533453E+01  0.62258024204E+02  0.63667575398E+02  0.00000000000E+00 0.  1.
<mgrwt>
<rscale>  0 0.78411205E+02</rscale>
<asrwt>0</asrwt>
<pdfrwt beam="1">  1        1 0.25640038E-02 0.78411205E+02</pdfrwt>
<pdfrwt beam="2">  1       -2 0.14188971E-01 0.78411205E+02</pdfrwt>
<totfact> 0.11391761E+05</totfact>
</mgrwt>
</event>
<event>
 8    1  0.1372337E-024  0.8265635E+02  0.7818608E-02  0.1321678E+00
         -2   -1    0    0    0  501 -0.00000000000E+00  0.00000000000E+00  0.38664739195E+02  0.38664739279E+02  0.25500000000E-02 0.  1.
          1   -1    0    0  501    0  0.00000000000E+00 -0.00000000000E+00 -0.44175084377E+02  0.44175084664E+02  0.50400000000E-02 0. -1.
        -24    2    1    2    0    0  0.00000000000E+00  0.00000000000E+00 -0.55103451820E+01  0.82839823943E+02  0.82656352006E+02 0.  0.
         66    2    3    3    0    0 -0.37265451998E+02 -0.17353135145E+02  0.12730794525E+01  0.41176036000E+02  0.19999993502E+01 0.  0.
         13    1    3    3    0    0  0.37265451998E+02  0.17353135145E+02 -0.67834246345E+01  0.41663787943E+02  0.10566000000E+00 0. -1.
         13    1    4    4    0    0 -0.23707221822E+02 -0.11980345809E+02  0.48189054142E+00  0.26566980158E+02  0.10566000000E+00 0. -1.
        -13    1    4    4    0    0 -0.29770502252E+01 -0.12679037310E+01  0.12163512220E+00  0.32398097248E+01  0.10566000000E+00 0.  1.
        -14    1    4    4    0    0 -0.10581179951E+02 -0.41048856054E+01  0.66955378886E+00  0.11369246117E+02  0.00000000000E+00 0.  1.
<mgrwt>
<rscale>  0 0.82656352E+02</rscale>
<asrwt>0</asrwt>
<pdfrwt beam="1">  1        1 0.67961669E-02 0.82656352E+02</pdfrwt>
<pdfrwt beam="2">  1       -2 0.59484214E-02 0.82656352E+02</pdfrwt>
<totfact> 0.11770721E+05</totfact>
</mgrwt>
</event>
<event>
 8    1  0.1372337E-024  0.7322821E+02  0.7818608E-02  0.1349447E+00
          1   -1    0    0  501    0  0.00000000000E+00  0.00000000000E+00  0.57944193105E+02  0.57944193324E+02  0.50400000000E-02 0. -1.
         -2   -1    0    0    0  501 -0.00000000000E+00 -0.00000000000E+00 -0.23135928358E+02  0.23135928499E+02  0.25500000000E-02 0.  1.
        -24    2    1    2    0    0  0.00000000000E+00 -0.17763568394E-14  0.34808264746E+02  0.81080121823E+02  0.73228210821E+02 0.  0.
         66    2    3    3    0    0 -0.31822786223E+02  0.11368377026E+02  0.18899214898E+01  0.33904299561E+02  0.20000015731E+01 0.  0.
         13    1    3    3    0    0  0.31822786223E+02 -0.11368377026E+02  0.32918343257E+02  0.47175822261E+02  0.10566000000E+00 0. -1.
         13    1    4    4    0    0 -0.67269927844E+00  0.53633086376E+00 -0.33983025774E-01  0.86746411815E+00  0.10566000000E+00 0. -1.
        -13    1    4    4    0    0 -0.21097268630E+02  0.73991017998E+01  0.13946910657E+01  0.22400843250E+02  0.10566000000E+00 0.  1.
         14    1    4    4    0    0 -0.10052818315E+02  0.34329443621E+01  0.52921344982E+00  0.10635992194E+02  0.00000000000E+00 0. -1.
<mgrwt>
<rscale>  0 0.73228211E+02</rscale>
<asrwt>0</asrwt>
<pdfrwt beam="1">  1        1 0.89144911E-02 0.73228211E+02</pdfrwt>
<pdfrwt beam="2">  1       -2 0.35593737E-02 0.73228211E+02</pdfrwt>
<totfact> 0.17156601E+05</totfact>
</mgrwt>
</event>
<event>
 8    1  0.1372337E-024  0.8254462E+02  0.7818608E-02  0.1321981E+00
         -2   -1    0    0    0  501 -0.00000000000E+00  0.00000000000E+00  0.31719378986E+03  0.31719378987E+03  0.25500000000E-02 0.  1.
          1   -1    0    0  501    0  0.00000000000E+00 -0.00000000000E+00 -0.53702289538E+01  0.53702313188E+01  0.50400000000E-02 0. -1.
        -24    2    1    2    0    0  0.00000000000E+00 -0.17763568394E-14  0.31182356091E+03  0.32256402119E+03  0.82544622051E+02 0.  0.
         66    2    3    3    0    0  0.36979497555E+02  0.12522409026E+02  0.10399840469E+03  0.11110338492E+03  0.19999993417E+01 0.  0.
         13    1    3    3    0    0 -0.36979497555E+02 -0.12522409026E+02  0.20782515622E+03  0.21146063627E+03  0.10566000000E+00 0. -1.
         13    1    4    4    0    0  0.80445811618E+01  0.32651677145E+01  0.23572223328E+02  0.25120459449E+02  0.10566000000E+00 0. -1.
        -13    1    4    4    0    0  0.16601062783E+02  0.57701025197E+01  0.45130917354E+02  0.48432429568E+02  0.10566000000E+00 0.  1.
         14    1    4    4    0    0  0.12333853610E+02  0.34871387922E+01  0.35295264003E+02  0.37550495907E+02  0.00000000000E+00 0. -1.
<mgrwt>
<rscale>  0 0.82544622E+02</rscale>
<asrwt>0</asrwt>
<pdfrwt beam="1">  1        1 0.82618954E-03 0.82544622E+02</pdfrwt>
<pdfrwt beam="2">  1       -2 0.48799028E-01 0.82544622E+02</pdfrwt>
<totfact> 0.62829623E+04</totfact>
</mgrwt>
</event>
<event>
 8    1  0.1372337E-024  0.7826297E+02  0.7818608E-02  0.1334054E+00
         -2   -1    0    0    0  501 -0.00000000000E+00  0.00000000000E+00  0.28365717640E+02  0.28365717755E+02  0.25500000000E-02 0.  1.
          1   -1    0    0  501    0  0.00000000000E+00 -0.00000000000E+00 -0.53983233299E+02  0.53983233534E+02  0.50400000000E-02 0. -1.
        -24    2    1    2    0    0  0.88817841970E-15  0.35527136788E-14 -0.25617515659E+02  0.82348951289E+02  0.78262971256E+02 0.  0.
         66    2    3    3    0    0 -0.43240755281E+01  0.31090894970E+02  0.11722755596E+02  0.33567311293E+02  0.20000023665E+01 0.  0.
         13    1    3    3    0    0  0.43240755281E+01 -0.31090894970E+02 -0.37340271255E+02  0.48781639996E+02  0.10566000000E+00 0. -1.
         13    1    4    4    0    0 -0.23439918409E+01  0.16468775735E+02  0.63577738193E+01  0.17808630602E+02  0.10566000000E+00 0. -1.
        -13    1    4    4    0    0 -0.21421100100E+01  0.14103488181E+02  0.50656135158E+01  0.15138316237E+02  0.10566000000E+00 0.  1.
         14    1    4    4    0    0  0.16202632280E+00  0.51863105418E+00  0.29936826127E+00  0.62036445377E+00  0.00000000000E+00 0. -1.
<mgrwt>
<rscale>  0 0.78262971E+02</rscale>
<asrwt>0</asrwt>
<pdfrwt beam="1">  1        1 0.83051128E-02 0.78262971E+02</pdfrwt>
<pdfrwt beam="2">  1       -2 0.43639566E-02 0.78262971E+02</pdfrwt>
<totfact> 0.14149860E+05</totfact>
</mgrwt>
</event>
<event>
 8    1  0.1372337E-024  0.7918195E+02  0.7818608E-02  0.1331389E+00
         -2   -1    0    0    0  501 -0.00000000000E+00  0.00000000000E+00  0.63187467371E+01  0.63187472517E+01  0.25500000000E-02 0.  1.
          1   -1    0    0  501    0  0.00000000000E+00 -0.00000000000E+00 -0.24806266145E+03  0.24806266150E+03  0.50400000000E-02 0. -1.
        -24    2    1    2    0    0  0.17763568394E-14  0.71054273576E-14 -0.24174391471E+03  0.25438140875E+03  0.79181947553E+02 0.  0.
         66    2    3    3    0    0  0.12997026035E+02  0.35660004832E+02 -0.15685001488E+03  0.16138923691E+03  0.19999983697E+01 0.  0.
         13    1    3    3    0    0 -0.12997026035E+02 -0.35660004832E+02 -0.84893899833E+02  0.92992171838E+02  0.10566000000E+00 0. -1.
         13    1    4    4    0    0  0.30514962371E+00  0.72969515580E+00 -0.25020957550E+01  0.26262556075E+01  0.10566000000E+00 0. -1.
        -13    1    4    4    0    0  0.93635116423E+01  0.26536605358E+02 -0.11518501556E+03  0.11857261803E+03  0.10566000000E+00 0.  1.
        -14    1    4    4    0    0  0.33283647688E+01  0.83937043180E+01 -0.39162903565E+02  0.40190363271E+02  0.00000000000E+00 0.  1.
<mgrwt>
<rscale>  0 0.79181948E+02</rscale>
<asrwt>0</asrwt>
<pdfrwt beam="1">  1        1 0.38163479E-01 0.79181948E+02</pdfrwt>
<pdfrwt beam="2">  1       -2 0.97211512E-03 0.79181948E+02</pdfrwt>
<totfact> 0.17867776E+05</totfact>
</mgrwt>
</event>
<event>
 8    1  0.1372337E-024  0.7934988E+02  0.7818608E-02  0.1330907E+00
         -2   -1    0    0    0  501 -0.00000000000E+00  0.00000000000E+00  0.44463302811E+03  0.44463302812E+03  0.25500000000E-02 0.  1.
          1   -1    0    0  501    0  0.00000000000E+00 -0.00000000000E+00 -0.35402226401E+01  0.35402262277E+01  0.50400000000E-02 0. -1.
        -24    2    1    2    0    0  0.00000000000E+00  0.17763568394E-14  0.44109280547E+03  0.44817325434E+03  0.79349876325E+02 0.  0.
         66    2    3    3    0    0 -0.26850391868E+02  0.12038017380E+02  0.37078426913E+03  0.37195541620E+03  0.19999991417E+01 0.  0.
         13    1    3    3    0    0  0.26850391868E+02 -0.12038017380E+02  0.70308536337E+02  0.76217838147E+02  0.10566000000E+00 0. -1.
         13    1    4    4    0    0 -0.24722430757E+00  0.92074495337E-01  0.31076902355E+01  0.31206570152E+01  0.10566000000E+00 0.  1.
        -13    1    4    4    0    0 -0.82107384195E+01  0.40398789548E+01  0.12392660954E+03  0.12426404373E+03  0.10566000000E+00 0. -1.
        -14    1    4    4    0    0 -0.18392429141E+02  0.79060639298E+01  0.24374996935E+03  0.24457071545E+03  0.00000000000E+00 0.  1.
<mgrwt>
<rscale>  0 0.79349876E+02</rscale>
<asrwt>0</asrwt>
<pdfrwt beam="1">  1        1 0.54465024E-03 0.79349876E+02</pdfrwt>
<pdfrwt beam="2">  1       -2 0.68405040E-01 0.79349876E+02</pdfrwt>
<totfact> 0.56123144E+04</totfact>
</mgrwt>
</event>
<event>
 8    1  0.1372337E-024  0.8518414E+02  0.7818608E-02  0.1314952E+00
         -2   -1    0    0    0  501 -0.00000000000E+00  0.00000000000E+00  0.12144394584E+03  0.12144394586E+03  0.25500000000E-02 0.  1.
          1   -1    0    0  501    0  0.00000000000E+00 -0.00000000000E+00 -0.14937626981E+02  0.14937627831E+02  0.50400000000E-02 0. -1.
        -24    2    1    2    0    0  0.22204460493E-15  0.00000000000E+00  0.10650631886E+03  0.13638157370E+03  0.85184139882E+02 0.  0.
         66    2    3    3    0    0  0.19722299513E+01  0.25177372742E+02  0.10814606577E+03  0.11107367526E+03  0.20000013737E+01 0.  0.
         13    1    3    3    0    0 -0.19722299513E+01 -0.25177372742E+02 -0.16397469139E+01  0.25307898434E+02  0.10566000000E+00 0. -1.
         13    1    4    4    0    0  0.33945829858E+00  0.12484848901E+02  0.55480858237E+02  0.56869354478E+02  0.10566000000E+00 0. -1.
        -13    1    4    4    0    0  0.16218601650E+01  0.12187152917E+02  0.49831967592E+02  0.51326341042E+02  0.10566000000E+00 0.  1.
        -14    1    4    4    0    0  0.10911487720E-01  0.50537092372E+00  0.28332399419E+01  0.28779797427E+01  0.00000000000E+00 0.  1.
<mgrwt>
<rscale>  0 0.85184140E+02</rscale>
<asrwt>0</asrwt>
<pdfrwt beam="1">  1        1 0.22980966E-02 0.85184140E+02</pdfrwt>
<pdfrwt beam="2">  1       -2 0.18683683E-01 0.85184140E+02</pdfrwt>
<totfact> 0.85778592E+04</totfact>
</mgrwt>
</event>
<event>
 8    1  0.1372337E-024  0.7873151E+02  0.7818608E-02  0.1332690E+00
         -2   -1    0    0    0  501 -0.00000000000E+00  0.00000000000E+00  0.28705343474E+02  0.28705343587E+02  0.25500000000E-02 0.  1.
          1   -1    0    0  501    0  0.00000000000E+00 -0.00000000000E+00 -0.53985158419E+02  0.53985158655E+02  0.50400000000E-02 0. -1.
        -24    2    1    2    0    0  0.00000000000E+00 -0.44408920985E-15 -0.25279814945E+02  0.82690502242E+02  0.78731506510E+02 0.  0.
         66    2    3    3    0    0  0.13764993770E+02  0.22114869428E+01  0.25988905884E+02  0.29559921335E+02  0.19999980751E+01 0.  0.
         13    1    3    3    0    0 -0.13764993770E+02 -0.22114869428E+01 -0.51268720829E+02  0.53130580907E+02  0.10566000000E+00 0. -1.
         13    1    4    4    0    0  0.11435083819E+01 -0.56590322381E-01  0.18367952710E+01  0.21669782618E+01  0.10566000000E+00 0. -1.
        -13    1    4    4    0    0  0.87805078935E+01  0.86014848986E+00  0.15975922444E+02  0.18250436605E+02  0.10566000000E+00 0.  1.
        -14    1    4    4    0    0  0.38409774941E+01  0.14079287753E+01  0.81761881691E+01  0.91425064684E+01  0.00000000000E+00 0.  1.
<mgrwt>
<rscale>  0 0.78731507E+02</rscale>
<asrwt>0</asrwt>
<pdfrwt beam="1">  1        1 0.83054090E-02 0.78731507E+02</pdfrwt>
<pdfrwt beam="2">  1       -2 0.44162067E-02 0.78731507E+02</pdfrwt>
<totfact> 0.13918566E+05</totfact>
</mgrwt>
</event>
<event>
 8    1  0.1372337E-024  0.7940102E+02  0.7818608E-02  0.1330760E+00
         -2   -1    0    0    0  501 -0.00000000000E+00  0.00000000000E+00  0.14194951283E+02  0.14194951512E+02  0.25500000000E-02 0.  1.
          1   -1    0    0  501    0  0.00000000000E+00 -0.00000000000E+00 -0.11103458981E+03  0.11103458992E+03  0.50400000000E-02 0. -1.
        -24    2    1    2    0    0  0.00000000000E+00  0.00000000000E+00 -0.96839638526E+02  0.12522954143E+03  0.79401023029E+02 0.  0.
         66    2    3    3    0    0 -0.31305329429E+02 -0.22222522074E+02 -0.32658066519E+02  0.50442179619E+02  0.20000094958E+01 0.  0.
         13    1    3    3    0    0  0.31305329429E+02  0.22222522074E+02 -0.64181572007E+02  0.74787361815E+02  0.10566000000E+00 0. -1.
         13    1    4    4    0    0 -0.10787201556E+02 -0.86003711857E+01 -0.11112156943E+02  0.17715002057E+02  0.10566000000E+00 0. -1.
        -13    1    4    4    0    0 -0.11457845639E+02 -0.76739128559E+01 -0.12395354293E+02  0.18542576339E+02  0.10566000000E+00 0.  1.
         14    1    4    4    0    0 -0.90602822349E+01 -0.59482380319E+01 -0.91505552836E+01  0.14184601223E+02  0.00000000000E+00 0. -1.
<mgrwt>
<rscale>  0 0.79401023E+02</rscale>
<asrwt>0</asrwt>
<pdfrwt beam="1">  1        1 0.17082244E-01 0.79401023E+02</pdfrwt>
<pdfrwt beam="2">  1       -2 0.21838388E-02 0.79401023E+02</pdfrwt>
<totfact> 0.15269127E+05</totfact>
</mgrwt>
</event>
<event>
 8    1  0.1372337E-024  0.7858065E+02  0.7818608E-02  0.1333128E+00
          1   -1    0    0  501    0  0.00000000000E+00  0.00000000000E+00  0.45203423398E+01  0.45203451494E+01  0.50400000000E-02 0. -1.
         -2   -1    0    0    0  501 -0.00000000000E+00 -0.00000000000E+00 -0.34150717004E+03  0.34150717005E+03  0.25500000000E-02 0.  1.
        -24    2    1    2    0    0 -0.17763568394E-14 -0.88817841970E-15 -0.33698682770E+03  0.34602751520E+03  0.78580654307E+02 0.  0.
         66    2    3    3    0    0  0.14339651959E+02  0.66283798819E+01 -0.32689236725E+03  0.32727997312E+03  0.20000002474E+01 0.  0.
         13    1    3    3    0    0 -0.14339651959E+02 -0.66283798819E+01 -0.10094460450E+02  0.18747542078E+02  0.10566000000E+00 0. -1.
         13    1    4    4    0    0  0.60802260512E+01  0.20626639996E+01 -0.14235424190E+03  0.14249900029E+03  0.10566000000E+00 0. -1.
        -13    1    4    4    0    0  0.59376340065E+01  0.29117723273E+01 -0.12596595123E+03  0.12613947022E+03  0.10566000000E+00 0.  1.
         14    1    4    4    0    0  0.23217919015E+01  0.16539435551E+01 -0.58572174123E+02  0.58641502610E+02  0.00000000000E+00 0. -1.
<mgrwt>
<rscale>  0 0.78580654E+02</rscale>
<asrwt>0</asrwt>
<pdfrwt beam="1">  1        1 0.69543777E-03 0.78580654E+02</pdfrwt>
<pdfrwt beam="2">  1       -2 0.52539544E-01 0.78580654E+02</pdfrwt>
<totfact> 0.68358958E+04</totfact>
</mgrwt>
</event>
<event>
 8    1  0.1372337E-024  0.7129328E+02  0.7818608E-02  0.1355750E+00
          1   -1    0    0  501    0  0.00000000000E+00  0.00000000000E+00  0.58253075102E+01  0.58253096905E+01  0.50400000000E-02 0. -1.
         -2   -1    0    0    0  501 -0.00000000000E+00 -0.00000000000E+00 -0.21813146707E+03  0.21813146708E+03  0.25500000000E-02 0.  1.
        -24    2    1    2    0    0 -0.17763568394E-14  0.00000000000E+00 -0.21230615956E+03  0.22395677678E+03  0.71293284933E+02 0.  0.
         66    2    3    3    0    0 -0.94720443615E+01 -0.27125283835E+02 -0.17236729910E+03  0.17475693545E+03  0.20000104307E+01 0.  0.
         13    1    3    3    0    0  0.94720443615E+01  0.27125283835E+02 -0.39938860463E+02  0.49199841327E+02  0.10566000000E+00 0. -1.
         13    1    4    4    0    0 -0.35611452076E+00 -0.10856070930E+01 -0.53585511176E+01  0.54800177397E+01  0.10566000000E+00 0. -1.
        -13    1    4    4    0    0 -0.28114305380E+01 -0.96345146746E+01 -0.58989778220E+02  0.59837556043E+02  0.10566000000E+00 0.  1.
         14    1    4    4    0    0 -0.63044993028E+01 -0.16405162067E+02 -0.10801896976E+03  0.10943936167E+03  0.00000000000E+00 0. -1.
<mgrwt>
<rscale>  0 0.71293285E+02</rscale>
<asrwt>0</asrwt>
<pdfrwt beam="1">  1        1 0.89620149E-03 0.71293285E+02</pdfrwt>
<pdfrwt beam="2">  1       -2 0.33558681E-01 0.71293285E+02</pdfrwt>
<totfact> 0.11029715E+05</totfact>
</mgrwt>
</event>
<event>
 8    1  0.1372337E-024  0.8116619E+02  0.7818608E-02  0.1325774E+00
         -2   -1    0    0    0  501 -0.00000000000E+00  0.00000000000E+00  0.43771480306E+02  0.43771480380E+02  0.25500000000E-02 0.  1.
          1   -1    0    0  501    0  0.00000000000E+00 -0.00000000000E+00 -0.37626953337E+02  0.37626953675E+02  0.50400000000E-02 0. -1.
        -24    2    1    2    0    0 -0.35527136788E-14  0.00000000000E+00  0.61445269689E+01  0.81398434055E+02  0.81166186648E+02 0.  0.
         66    2    3    3    0    0  0.20865728526E+02 -0.30671989524E+02 -0.13368916967E+02  0.39482622879E+02  0.20000000797E+01 0.  0.
         13    1    3    3    0    0 -0.20865728526E+02  0.30671989524E+02  0.19513443936E+02  0.41915811176E+02  0.10566000000E+00 0. -1.
         13    1    4    4    0    0  0.79513696780E+01 -0.11642732101E+02 -0.52730658035E+01  0.15053035492E+02  0.10566000000E+00 0. -1.
        -13    1    4    4    0    0  0.80784796228E+01 -0.11033316541E+02 -0.54143511264E+01  0.14707898186E+02  0.10566000000E+00 0.  1.
         14    1    4    4    0    0  0.48358792247E+01 -0.79959408820E+01 -0.26815000369E+01  0.97216892006E+01  0.00000000000E+00 0. -1.
<mgrwt>
<rscale>  0 0.81166187E+02</rscale>
<asrwt>0</asrwt>
<pdfrwt beam="1">  1        1 0.57887621E-02 0.81166187E+02</pdfrwt>
<pdfrwt beam="2">  1       -2 0.67340739E-02 0.81166187E+02</pdfrwt>
<totfact> 0.12066128E+05</totfact>
</mgrwt>
</event>
<event>
 8    1  0.1372337E-024  0.8038609E+02  0.7818608E-02  0.1327959E+00
         -2   -1    0    0    0  501 -0.00000000000E+00  0.00000000000E+00  0.66261963073E+02  0.66261963122E+02  0.25500000000E-02 0.  1.
          1   -1    0    0  501    0  0.00000000000E+00 -0.00000000000E+00 -0.24380216035E+02  0.24380216555E+02  0.50400000000E-02 0. -1.
        -24    2    1    2    0    0  0.00000000000E+00  0.00000000000E+00  0.41881747038E+02  0.90642179677E+02  0.80386093335E+02 0.  0.
         66    2    3    3    0    0  0.58506829360E+01  0.36105889086E+02  0.39673425319E+02  0.53998577693E+02  0.19999997200E+01 0.  0.
         13    1    3    3    0    0 -0.58506829360E+01 -0.36105889086E+02  0.22083217194E+01  0.36643601984E+02  0.10566000000E+00 0. -1.
         13    1    4    4    0    0  0.39786797133E+01  0.20386238455E+02  0.21829905717E+02  0.30132782120E+02  0.10566000000E+00 0. -1.
        -13    1    4    4    0    0  0.18883007160E+01  0.14083305067E+02  0.16131640449E+02  0.21497584720E+02  0.10566000000E+00 0.  1.
         14    1    4    4    0    0 -0.16297493233E-01  0.16363455638E+01  0.17118791529E+01  0.23682108535E+01  0.00000000000E+00 0. -1.
<mgrwt>
<rscale>  0 0.80386093E+02</rscale>
<asrwt>0</asrwt>
<pdfrwt beam="1">  1        1 0.37508025E-02 0.80386093E+02</pdfrwt>
<pdfrwt beam="2">  1       -2 0.10194148E-01 0.80386093E+02</pdfrwt>
<totfact> 0.11475739E+05</totfact>
</mgrwt>
</event>
<event>
 8    1  0.1372337E-024  0.7984102E+02  0.7818608E-02  0.1329503E+00
         -2   -1    0    0    0  501 -0.00000000000E+00  0.00000000000E+00  0.25948786963E+03  0.25948786964E+03  0.25500000000E-02 0.  1.
          1   -1    0    0  501    0  0.00000000000E+00 -0.00000000000E+00 -0.61415077095E+01  0.61415097775E+01  0.50400000000E-02 0. -1.
        -24    2    1    2    0    0  0.35527136788E-14  0.00000000000E+00  0.25334636192E+03  0.26562937942E+03  0.79841017734E+02 0.  0.
         66    2    3    3    0    0  0.30554557064E+02 -0.25385047314E+02  0.13904898737E+03  0.14462573246E+03  0.20000040928E+01 0.  0.
         13    1    3    3    0    0 -0.30554557064E+02  0.25385047314E+02  0.11429737455E+03  0.12100364696E+03  0.10566000000E+00 0. -1.
         13    1    4    4    0    0  0.11644664368E+02 -0.10315103409E+02  0.55633711399E+02  0.57767816080E+02  0.10566000000E+00 0. -1.
        -13    1    4    4    0    0  0.65235242647E+01 -0.52247604359E+01  0.26798640843E+02  0.28071922013E+02  0.10566000000E+00 0.  1.
        -14    1    4    4    0    0  0.12386368431E+02 -0.98451834693E+01  0.56616635126E+02  0.58785994365E+02  0.00000000000E+00 0.  1.
<mgrwt>
<rscale>  0 0.79841018E+02</rscale>
<asrwt>0</asrwt>
<pdfrwt beam="1">  1        1 0.94484766E-03 0.79841018E+02</pdfrwt>
<pdfrwt beam="2">  1       -2 0.39921204E-01 0.79841018E+02</pdfrwt>
<totfact> 0.76129206E+04</totfact>
</mgrwt>
</event>
<event>
 8    1  0.1372337E-024  0.7946915E+02  0.7818608E-02  0.1330565E+00
         -2   -1    0    0    0  501 -0.00000000000E+00  0.00000000000E+00  0.28803500335E+02  0.28803500448E+02  0.25500000000E-02 0.  1.
          1   -1    0    0  501    0  0.00000000000E+00 -0.00000000000E+00 -0.54814051481E+02  0.54814051712E+02  0.50400000000E-02 0. -1.
        -24    2    1    2    0    0  0.00000000000E+00  0.00000000000E+00 -0.26010551145E+02  0.83617552161E+02  0.79469152874E+02 0.  0.
         66    2    3    3    0    0  0.24908859031E+02  0.10510501731E+02  0.17589289490E+02  0.32315708410E+02  0.20000001048E+01 0.  0.
         13    1    3    3    0    0 -0.24908859031E+02 -0.10510501731E+02 -0.43599840635E+02  0.51301843751E+02  0.10566000000E+00 0. -1.
         13    1    4    4    0    0  0.39960029361E+01  0.23016849085E+01  0.29681162903E+01  0.54851318336E+01  0.10566000000E+00 0.  1.
        -13    1    4    4    0    0  0.28096634905E+01  0.13124648172E+01  0.24338562180E+01  0.39435508050E+01  0.10566000000E+00 0.  1.
         14    1    4    4    0    0  0.18103192604E+02  0.68963520051E+01  0.12187316981E+02  0.22887025771E+02  0.00000000000E+00 0. -1.
<mgrwt>
<rscale>  0 0.79469153E+02</rscale>
<asrwt>0</asrwt>
<pdfrwt beam="1">  1        1 0.84329310E-02 0.79469153E+02</pdfrwt>
<pdfrwt beam="2">  1       -2 0.44313078E-02 0.79469153E+02</pdfrwt>
<totfact> 0.13596414E+05</totfact>
</mgrwt>
</event>
<event>
 8    1  0.1372337E-024  0.8245972E+02  0.7818608E-02  0.1322213E+00
         -2   -1    0    0    0  501 -0.00000000000E+00  0.00000000000E+00  0.32232277987E+02  0.32232278088E+02  0.25500000000E-02 0.  1.
          1   -1    0    0  501    0  0.00000000000E+00 -0.00000000000E+00 -0.52739098433E+02  0.52739098673E+02  0.50400000000E-02 0. -1.
        -24    2    1    2    0    0  0.00000000000E+00 -0.35527136788E-14 -0.20506820446E+02  0.84971376761E+02  0.82459718554E+02 0.  0.
         66    2    3    3    0    0 -0.23203103867E+02  0.29831599895E+02  0.66598214080E+01  0.38427354857E+02  0.19999996897E+01 0.  0.
         13    1    3    3    0    0  0.23203103867E+02 -0.29831599895E+02 -0.27166641854E+02  0.46544021904E+02  0.10566000000E+00 0. -1.
         13    1    4    4    0    0 -0.13145940593E+02  0.17359132736E+02  0.39266017050E+01  0.22126558892E+02  0.10566000000E+00 0. -1.
        -13    1    4    4    0    0 -0.88338876696E+01  0.10712840863E+02  0.27609480963E+01  0.14157560847E+02  0.10566000000E+00 0.  1.
         14    1    4    4    0    0 -0.12232756043E+01  0.17596262963E+01 -0.27728393259E-01  0.21432351178E+01  0.00000000000E+00 0. -1.
<mgrwt>
<rscale>  0 0.82459719E+02</rscale>
<asrwt>0</asrwt>
<pdfrwt beam="1">  1        1 0.81137075E-02 0.82459719E+02</pdfrwt>
<pdfrwt beam="2">  1       -2 0.49588120E-02 0.82459719E+02</pdfrwt>
<totfact> 0.12196081E+05</totfact>
</mgrwt>
</event>
<event>
 8    1  0.1508902E-024  0.7498882E+02  0.7818608E-02  0.1343906E+00
         -2   -1    0    0    0  501 -0.00000000000E+00  0.00000000000E+00  0.25404382802E+02  0.25404382930E+02  0.25500000000E-02 0.  1.
          1   -1    0    0  501    0  0.00000000000E+00 -0.00000000000E+00 -0.55338122531E+02  0.55338122760E+02  0.50400000000E-02 0. -1.
        -24    2    1    2    0    0  0.00000000000E+00  0.88817841970E-15 -0.29933739729E+02  0.80742505690E+02  0.74988822173E+02 0.  0.
         66    2    3    3    0    0 -0.18793179085E+02 -0.73019883467E+01  0.19026018867E+02  0.27793740456E+02  0.20000001771E+01 0.  0.
         13    1    3    3    0    0  0.18793179085E+02  0.73019883467E+01 -0.48959758596E+02  0.52948765233E+02  0.10566000000E+00 0. -1.
         13    1    4    4    0    0 -0.38243103691E+01 -0.95905150280E+00  0.35141054100E+01  0.52825401515E+01  0.10566000000E+00 0. -1.
        -13    1    4    4    0    0 -0.10184171502E+02 -0.38387560164E+01  0.97255629226E+01  0.14596271275E+02  0.10566000000E+00 0.  1.
         14    1    4    4    0    0 -0.47846972138E+01 -0.25041808275E+01  0.57863505341E+01  0.79149290299E+01  0.00000000000E+00 0. -1.
<mgrwt>
<rscale>  0 0.74988822E+02</rscale>
<asrwt>0</asrwt>
<pdfrwt beam="1">  1        1 0.85135574E-02 0.74988822E+02</pdfrwt>
<pdfrwt beam="2">  1       -2 0.39083666E-02 0.74988822E+02</pdfrwt>
<totfact> 0.15973003E+05</totfact>
</mgrwt>
</event>
<event>
 8    1  0.1372337E-024  0.8019350E+02  0.7818608E-02  0.1328503E+00
         -2   -1    0    0    0  501 -0.00000000000E+00  0.00000000000E+00  0.71314615460E+03  0.71314615461E+03  0.25500000000E-02 0.  1.
          1   -1    0    0  501    0  0.00000000000E+00 -0.00000000000E+00 -0.22544431006E+01  0.22544487343E+01  0.50400000000E-02 0. -1.
        -24    2    1    2    0    0  0.00000000000E+00  0.00000000000E+00  0.71089171150E+03  0.71540060334E+03  0.80193502100E+02 0.  0.
         66    2    3    3    0    0 -0.22205314846E+02 -0.27199463325E+01  0.65224804479E+03  0.65263464979E+03  0.20000153430E+01 0.  0.
         13    1    3    3    0    0  0.22205314846E+02  0.27199463325E+01  0.58643666710E+02  0.62765953547E+02  0.10566000000E+00 0. -1.
         13    1    4    4    0    0 -0.99466073752E+00 -0.34268562433E+00  0.36652225974E+02  0.36667473547E+02  0.10566000000E+00 0.  1.
        -13    1    4    4    0    0 -0.15687954736E+02 -0.18173108481E+01  0.43808646521E+03  0.43837104912E+03  0.10566000000E+00 0.  1.
        -14    1    4    4    0    0 -0.55226993724E+01 -0.55994986003E+00  0.17750935361E+03  0.17759612713E+03  0.00000000000E+00 0.  1.
<mgrwt>
<rscale>  0 0.80193502E+02</rscale>
<asrwt>0</asrwt>
<pdfrwt beam="1">  1        1 0.34683875E-03 0.80193502E+02</pdfrwt>
<pdfrwt beam="2">  1       -2 0.10971450E+00 0.80193502E+02</pdfrwt>
<totfact> 0.36952812E+04</totfact>
</mgrwt>
</event>
<event>
 8    1  0.1522329E-024  0.7885025E+02  0.7818608E-02  0.1332346E+00
         -2   -1    0    0    0  501 -0.00000000000E+00  0.00000000000E+00  0.19876696237E+02  0.19876696401E+02  0.25500000000E-02 0.  1.
          1   -1    0    0  501    0  0.00000000000E+00 -0.00000000000E+00 -0.78199140402E+02  0.78199140565E+02  0.50400000000E-02 0. -1.
        -24    2    1    2    0    0  0.35527136788E-14  0.00000000000E+00 -0.58322444165E+02  0.98075836965E+02  0.78850252397E+02 0.  0.
         66    2    3    3    0    0 -0.20076562767E+02  0.20564188683E+02  0.43429470322E+01  0.29134436873E+02  0.19999985717E+01 0.  0.
         13    1    3    3    0    0  0.20076562767E+02 -0.20564188683E+02 -0.62665391198E+02  0.68941400092E+02  0.10566000000E+00 0. -1.
         13    1    4    4    0    0 -0.52823490839E+01  0.50137195784E+01  0.60614574424E+00  0.73088420803E+01  0.10566000000E+00 0. -1.
        -13    1    4    4    0    0 -0.11417907243E+02  0.11333268627E+02  0.24656534207E+01  0.16275816244E+02  0.10566000000E+00 0.  1.
         14    1    4    4    0    0 -0.33763064396E+01  0.42172004772E+01  0.12711478673E+01  0.55497785487E+01  0.00000000000E+00 0. -1.
<mgrwt>
<rscale>  0 0.78850252E+02</rscale>
<asrwt>0</asrwt>
<pdfrwt beam="1">  1        1 0.12030637E-01 0.78850252E+02</pdfrwt>
<pdfrwt beam="2">  1       -2 0.30579533E-02 0.78850252E+02</pdfrwt>
<totfact> 0.14685289E+05</totfact>
</mgrwt>
</event>
<event>
 8    1  0.1372337E-024  0.7610726E+02  0.7818608E-02  0.1340476E+00
         -2   -1    0    0    0  501 -0.00000000000E+00  0.00000000000E+00  0.10197437307E+02  0.10197437625E+02  0.25500000000E-02 0.  1.
          1   -1    0    0  501    0  0.00000000000E+00 -0.00000000000E+00 -0.14200416774E+03  0.14200416783E+03  0.50400000000E-02 0. -1.
        -24    2    1    2    0    0  0.17763568394E-14  0.00000000000E+00 -0.13180673043E+03  0.15220160545E+03  0.76107256654E+02 0.  0.
         66    2    3    3    0    0  0.15021385058E+02 -0.34933836646E+02 -0.65463858171E+02  0.75733292959E+02  0.19999959634E+01 0.  0.
         13    1    3    3    0    0 -0.15021385058E+02  0.34933836646E+02 -0.66342872261E+02  0.76468312494E+02  0.10566000000E+00 0. -1.
         13    1    4    4    0    0  0.10008946769E+02 -0.22088816542E+02 -0.41442871004E+02  0.48016846552E+02  0.10566000000E+00 0. -1.
        -13    1    4    4    0    0  0.50265301095E+01 -0.12443522145E+02 -0.23436980516E+02  0.27007600191E+02  0.10566000000E+00 0.  1.
         14    1    4    4    0    0 -0.14091820317E-01 -0.40149795836E+00 -0.58400665079E+00  0.70884621614E+00  0.00000000000E+00 0. -1.
<mgrwt>
<rscale>  0 0.76107257E+02</rscale>
<asrwt>0</asrwt>
<pdfrwt beam="1">  1        1 0.21846794E-01 0.76107257E+02</pdfrwt>
<pdfrwt beam="2">  1       -2 0.15688366E-02 0.76107257E+02</pdfrwt>
<totfact> 0.17855312E+05</totfact>
</mgrwt>
</event>
<event>
 8    1  0.1372337E-024  0.7976275E+02  0.7818608E-02  0.1329726E+00
          1   -1    0    0  501    0  0.00000000000E+00  0.00000000000E+00  0.10171945258E+03  0.10171945270E+03  0.50400000000E-02 0. -1.
         -2   -1    0    0    0  501 -0.00000000000E+00 -0.00000000000E+00 -0.15636380866E+02  0.15636381074E+02  0.25500000000E-02 0.  1.
        -24    2    1    2    0    0  0.00000000000E+00  0.00000000000E+00  0.86083071711E+02  0.11735583378E+03  0.79762751244E+02 0.  0.
         66    2    3    3    0    0 -0.17342380666E+02  0.25566689241E+02  0.60187712742E+01  0.31537903631E+02  0.19999979633E+01 0.  0.
         13    1    3    3    0    0  0.17342380666E+02 -0.25566689241E+02  0.80064300437E+02  0.85817930145E+02  0.10566000000E+00 0. -1.
         13    1    4    4    0    0 -0.15659048220E+02  0.23477940261E+02  0.51839504896E+01  0.28693274069E+02  0.10566000000E+00 0. -1.
        -13    1    4    4    0    0 -0.59731554536E+00  0.81336767469E+00  0.11411253254E+00  0.10210477661E+01  0.10566000000E+00 0.  1.
         14    1    4    4    0    0 -0.10860168999E+01  0.12753813054E+01  0.72070825210E+00  0.18235817958E+01  0.00000000000E+00 0. -1.
<mgrwt>
<rscale>  0 0.79762751E+02</rscale>
<asrwt>0</asrwt>
<pdfrwt beam="1">  1        1 0.15649146E-01 0.79762751E+02</pdfrwt>
<pdfrwt beam="2">  1       -2 0.24055971E-02 0.79762751E+02</pdfrwt>
<totfact> 0.14860122E+05</totfact>
</mgrwt>
</event>
<event>
 8    1  0.1372337E-024  0.7935944E+02  0.7818608E-02  0.1330879E+00
         -2   -1    0    0    0  501 -0.00000000000E+00  0.00000000000E+00  0.44595360797E+03  0.44595360797E+03  0.25500000000E-02 0.  1.
          1   -1    0    0  501    0  0.00000000000E+00 -0.00000000000E+00 -0.35305904023E+01  0.35305939996E+01  0.50400000000E-02 0. -1.
        -24    2    1    2    0    0  0.00000000000E+00  0.00000000000E+00  0.44242301756E+03  0.44948420197E+03  0.79359444007E+02 0.  0.
         66    2    3    3    0    0 -0.32654160210E+02 -0.17129996804E+02  0.30396395080E+03  0.30619897837E+03  0.19999999795E+01 0.  0.
         13    1    3    3    0    0  0.32654160210E+02  0.17129996804E+02  0.13845906676E+03  0.14328522360E+03  0.10566000000E+00 0. -1.
         13    1    4    4    0    0 -0.13912675593E+02 -0.78429986127E+01  0.13391820042E+03  0.13486723374E+03  0.10566000000E+00 0. -1.
        -13    1    4    4    0    0 -0.75422185280E+00 -0.16712609692E+00  0.56146710865E+01  0.56685515946E+01  0.10566000000E+00 0.  1.
        -14    1    4    4    0    0 -0.17987262765E+02 -0.91198720941E+01  0.16443107930E+03  0.16566319304E+03  0.00000000000E+00 0.  1.
<mgrwt>
<rscale>  0 0.79359444E+02</rscale>
<asrwt>0</asrwt>
<pdfrwt beam="1">  1        1 0.54316832E-03 0.79359444E+02</pdfrwt>
<pdfrwt beam="2">  1       -2 0.68608211E-01 0.79359444E+02</pdfrwt>
<totfact> 0.55987351E+04</totfact>
</mgrwt>
</event>
<event>
 8    1  0.1372337E-024  0.7966351E+02  0.7818608E-02  0.1330009E+00
          1   -1    0    0  501    0  0.00000000000E+00  0.00000000000E+00  0.18249763195E+01  0.18249832789E+01  0.50400000000E-02 0. -1.
         -2   -1    0    0    0  501 -0.00000000000E+00 -0.00000000000E+00 -0.86936233625E+03  0.86936233626E+03  0.25500000000E-02 0.  1.
        -24    2    1    2    0    0  0.00000000000E+00  0.35527136788E-14 -0.86753735993E+03  0.87118731953E+03  0.79663510087E+02 0.  0.
         66    2    3    3    0    0 -0.65770618216E+00  0.23399629809E+02 -0.78613262297E+03  0.78648361468E+03  0.20000013130E+01 0.  0.
         13    1    3    3    0    0  0.65770618216E+00 -0.23399629809E+02 -0.81404736964E+02  0.84703704859E+02  0.10566000000E+00 0. -1.
         13    1    4    4    0    0 -0.25541676204E+00  0.24916520391E+01 -0.67020162044E+02  0.67067032528E+02  0.10566000000E+00 0. -1.
        -13    1    4    4    0    0 -0.37775919452E-01  0.72913564850E+01 -0.24549186283E+03  0.24560014493E+03  0.10566000000E+00 0.  1.
        -14    1    4    4    0    0 -0.36451350067E+00  0.13616621285E+02 -0.47362059809E+03  0.47381643722E+03  0.00000000000E+00 0.  1.
<mgrwt>
<rscale>  0 0.79663510E+02</rscale>
<asrwt>0</asrwt>
<pdfrwt beam="1">  1        1 0.28076682E-03 0.79663510E+02</pdfrwt>
<pdfrwt beam="2">  1       -2 0.13374772E+00 0.79663510E+02</pdfrwt>
<totfact> 0.30811248E+04</totfact>
</mgrwt>
</event>
<event>
 8    1  0.1372337E-024  0.8420795E+02  0.7818608E-02  0.1317517E+00
         -2   -1    0    0    0  501 -0.00000000000E+00  0.00000000000E+00  0.77558258693E+02  0.77558258735E+02  0.25500000000E-02 0.  1.
          1   -1    0    0  501    0  0.00000000000E+00 -0.00000000000E+00 -0.22856940478E+02  0.22856941033E+02  0.50400000000E-02 0. -1.
        -24    2    1    2    0    0  0.35527136788E-14  0.00000000000E+00  0.54701318216E+02  0.10041519977E+03  0.84207945765E+02 0.  0.
         66    2    3    3    0    0  0.18738659606E+02 -0.34889359714E+02  0.44328221862E+02  0.59476012221E+02  0.19999978053E+01 0.  0.
         13    1    3    3    0    0 -0.18738659606E+02  0.34889359714E+02  0.10373096354E+02  0.40939187548E+02  0.10566000000E+00 0. -1.
         13    1    4    4    0    0  0.65533677742E+01 -0.11023342006E+02  0.13781875999E+02  0.18825832472E+02  0.10566000000E+00 0. -1.
        -13    1    4    4    0    0  0.56756339109E+01 -0.10868721230E+02  0.14811110508E+02  0.19228158518E+02  0.10566000000E+00 0.  1.
        -14    1    4    4    0    0  0.65096579205E+01 -0.12997296478E+02  0.15735235355E+02  0.21422021231E+02  0.00000000000E+00 0.  1.
<mgrwt>
<rscale>  0 0.84207946E+02</rscale>
<asrwt>0</asrwt>
<pdfrwt beam="1">  1        1 0.35164524E-02 0.84207946E+02</pdfrwt>
<pdfrwt beam="2">  1       -2 0.11932040E-01 0.84207946E+02</pdfrwt>
<totfact> 0.98727582E+04</totfact>
</mgrwt>
</event>
<event>
 8    1  0.1372337E-024  0.8016075E+02  0.7818608E-02  0.1328596E+00
          1   -1    0    0  501    0  0.00000000000E+00  0.00000000000E+00  0.17421379272E+01  0.17421452176E+01  0.50400000000E-02 0. -1.
         -2   -1    0    0    0  501 -0.00000000000E+00 -0.00000000000E+00 -0.92210451680E+03  0.92210451681E+03  0.25500000000E-02 0.  1.
        -24    2    1    2    0    0  0.00000000000E+00  0.00000000000E+00 -0.92036237888E+03  0.92384666202E+03  0.80160754009E+02 0.  0.
         66    2    3    3    0    0  0.11197495985E+02 -0.33759521267E-01 -0.90369672981E+03  0.90376831352E+03  0.19999970106E+01 0.  0.
         13    1    3    3    0    0 -0.11197495985E+02  0.33759521267E-01 -0.16665649064E+02  0.20078348508E+02  0.10566000000E+00 0. -1.
         13    1    4    4    0    0  0.71713780860E+01 -0.17136121427E+00 -0.62592617154E+03  0.62596728462E+03  0.10566000000E+00 0. -1.
        -13    1    4    4    0    0  0.35085299581E+00 -0.16115978198E+00 -0.38161395347E+02  0.38163494719E+02  0.10566000000E+00 0.  1.
         14    1    4    4    0    0  0.36752649029E+01  0.29876147498E+00 -0.23960916292E+03  0.23963753418E+03  0.00000000000E+00 0. -1.
<mgrwt>
<rscale>  0 0.80160754E+02</rscale>
<asrwt>0</asrwt>
<pdfrwt beam="1">  1        1 0.26802252E-03 0.80160754E+02</pdfrwt>
<pdfrwt beam="2">  1       -2 0.14186184E+00 0.80160754E+02</pdfrwt>
<totfact> 0.28443042E+04</totfact>
</mgrwt>
</event>
<event>
 8    1  0.1372337E-024  0.7890854E+02  0.7818608E-02  0.1332178E+00
         -2   -1    0    0    0  501 -0.00000000000E+00  0.00000000000E+00  0.24447881495E+03  0.24447881496E+03  0.25500000000E-02 0.  1.
          1   -1    0    0  501    0  0.00000000000E+00 -0.00000000000E+00 -0.63671745690E+01  0.63671765638E+01  0.50400000000E-02 0. -1.
        -24    2    1    2    0    0  0.35527136788E-14  0.00000000000E+00  0.23811164038E+03  0.25084599152E+03  0.78908543138E+02 0.  0.
         66    2    3    3    0    0 -0.24481818170E+02  0.21469704214E+02  0.18981107329E+03  0.19259426567E+03  0.20000013890E+01 0.  0.
         13    1    3    3    0    0  0.24481818170E+02 -0.21469704214E+02  0.48300567091E+02  0.58251725857E+02  0.10566000000E+00 0. -1.
         13    1    4    4    0    0 -0.67020656519E+01  0.64189998162E+01  0.50847451623E+02  0.51687481494E+02  0.10566000000E+00 0. -1.
        -13    1    4    4    0    0 -0.10023367540E+02  0.91399224146E+01  0.79712260891E+02  0.80858282068E+02  0.10566000000E+00 0.  1.
        -14    1    4    4    0    0 -0.77563849786E+01  0.59107819832E+01  0.59251360773E+02  0.60048502105E+02  0.00000000000E+00 0.  1.
<mgrwt>
<rscale>  0 0.78908543E+02</rscale>
<asrwt>0</asrwt>
<pdfrwt beam="1">  1        1 0.97956541E-03 0.78908543E+02</pdfrwt>
<pdfrwt beam="2">  1       -2 0.37612128E-01 0.78908543E+02</pdfrwt>
<totfact> 0.80746791E+04</totfact>
</mgrwt>
</event>
<event>
 8    1  0.1372337E-024  0.7952842E+02  0.7818608E-02  0.1330395E+00
         -2   -1    0    0    0  501 -0.00000000000E+00  0.00000000000E+00  0.24665555455E+03  0.24665555457E+03  0.25500000000E-02 0.  1.
          1   -1    0    0  501    0  0.00000000000E+00 -0.00000000000E+00 -0.64105276499E+01  0.64105296311E+01  0.50400000000E-02 0. -1.
        -24    2    1    2    0    0  0.00000000000E+00  0.00000000000E+00  0.24024502690E+03  0.25306608420E+03  0.79528422713E+02 0.  0.
         66    2    3    3    0    0 -0.17745133160E+02  0.67176522584E+01  0.23130589967E+03  0.23209143849E+03  0.19999990076E+01 0.  0.
         13    1    3    3    0    0  0.17745133160E+02 -0.67176522584E+01  0.89391272308E+01  0.20974645704E+02  0.10566000000E+00 0. -1.
         13    1    4    4    0    0 -0.16496852445E+01  0.11958604493E+01  0.25660611198E+02  0.25741594254E+02  0.10566000000E+00 0.  1.
        -13    1    4    4    0    0 -0.34788113368E+01  0.14236156603E+01  0.48650195278E+02  0.48795301766E+02  0.10566000000E+00 0.  1.
         14    1    4    4    0    0 -0.12616636578E+02  0.40981761487E+01  0.15699509320E+03  0.15755454247E+03  0.00000000000E+00 0. -1.
<mgrwt>
<rscale>  0 0.79528423E+02</rscale>
<asrwt>0</asrwt>
<pdfrwt beam="1">  1        1 0.98623539E-03 0.79528423E+02</pdfrwt>
<pdfrwt beam="2">  1       -2 0.37947000E-01 0.79528423E+02</pdfrwt>
<totfact> 0.78803248E+04</totfact>
</mgrwt>
</event>
<event>
 8    1  0.1372337E-024  0.7972929E+02  0.7818608E-02  0.1329821E+00
          1   -1    0    0  501    0  0.00000000000E+00  0.00000000000E+00  0.27269370211E+02  0.27269370677E+02  0.50400000000E-02 0. -1.
         -2   -1    0    0    0  501 -0.00000000000E+00 -0.00000000000E+00 -0.58277465608E+02  0.58277465664E+02  0.25500000000E-02 0.  1.
        -24    2    1    2    0    0  0.00000000000E+00  0.00000000000E+00 -0.31008095397E+02  0.85546836341E+02  0.79729287140E+02 0.  0.
         66    2    3    3    0    0 -0.23466129395E+02  0.16339537946E+02 -0.45278586563E+02  0.53589085932E+02  0.20000001976E+01 0.  0.
         13    1    3    3    0    0  0.23466129395E+02 -0.16339537946E+02  0.14270491166E+02  0.31957750409E+02  0.10566000000E+00 0. -1.
         13    1    4    4    0    0 -0.16221544839E+01  0.12151340166E+01 -0.27464774871E+01  0.34150019723E+01  0.10566000000E+00 0. -1.
        -13    1    4    4    0    0 -0.37666735042E+01  0.30438637028E+01 -0.68513165952E+01  0.83907472046E+01  0.10566000000E+00 0.  1.
        -14    1    4    4    0    0 -0.18077301407E+02  0.12080540226E+02 -0.35680792481E+02  0.41783336755E+02  0.00000000000E+00 0.  1.
<mgrwt>
<rscale>  0 0.79729287E+02</rscale>
<asrwt>0</asrwt>
<pdfrwt beam="1">  1        1 0.41952878E-02 0.79729287E+02</pdfrwt>
<pdfrwt beam="2">  1       -2 0.89657639E-02 0.79729287E+02</pdfrwt>
<totfact> 0.12005417E+05</totfact>
</mgrwt>
</event>
<event>
 8    1  0.1372337E-024  0.7909200E+02  0.7818608E-02  0.1331648E+00
         -2   -1    0    0    0  501 -0.00000000000E+00  0.00000000000E+00  0.30611104378E+03  0.30611104379E+03  0.25500000000E-02 0.  1.
          1   -1    0    0  501    0  0.00000000000E+00 -0.00000000000E+00 -0.51088839566E+01  0.51088864426E+01  0.50400000000E-02 0. -1.
        -24    2    1    2    0    0  0.35527136788E-14  0.00000000000E+00  0.30100215982E+03  0.31121993023E+03  0.79092001846E+02 0.  0.
         66    2    3    3    0    0  0.20361350381E+02  0.12461834693E+02  0.27453106247E+03  0.27557428432E+03  0.20000013685E+01 0.  0.
         13    1    3    3    0    0 -0.20361350381E+02 -0.12461834693E+02  0.26471097351E+02  0.35645645909E+02  0.10566000000E+00 0. -1.
         13    1    4    4    0    0  0.49148714330E+01  0.37475724099E+01  0.68256500604E+02  0.68535839522E+02  0.10566000000E+00 0. -1.
        -13    1    4    4    0    0  0.78116533308E+01  0.44841913961E+01  0.98508043330E+02  0.98919035908E+02  0.10566000000E+00 0.  1.
         14    1    4    4    0    0  0.76348256171E+01  0.42300708872E+01  0.10776651854E+03  0.10811940889E+03  0.00000000000E+00 0. -1.
<mgrwt>
<rscale>  0 0.79092002E+02</rscale>
<asrwt>0</asrwt>
<pdfrwt beam="1">  1        1 0.78598243E-03 0.79092002E+02</pdfrwt>
<pdfrwt beam="2">  1       -2 0.47094001E-01 0.79092002E+02</pdfrwt>
<totfact> 0.71577181E+04</totfact>
</mgrwt>
</event>
<event>
 8    1  0.1372337E-024  0.8023761E+02  0.7818608E-02  0.1328378E+00
         -2   -1    0    0    0  501 -0.00000000000E+00  0.00000000000E+00  0.47223990234E+02  0.47223990303E+02  0.25500000000E-02 0.  1.
          1   -1    0    0  501    0  0.00000000000E+00 -0.00000000000E+00 -0.34082647890E+02  0.34082648262E+02  0.50400000000E-02 0. -1.
        -24    2    1    2    0    0 -0.71054273576E-14  0.35527136788E-14  0.13141342344E+02  0.81306638565E+02  0.80237613350E+02 0.  0.
         66    2    3    3    0    0 -0.31595255537E+02  0.18515319966E+02  0.23115096856E+02  0.43351873528E+02  0.19999974635E+01 0.  0.
         13    1    3    3    0    0  0.31595255537E+02 -0.18515319966E+02 -0.99737545123E+01  0.37954765037E+02  0.10566000000E+00 0. -1.
         13    1    4    4    0    0 -0.40918931676E+01  0.27351147595E+01  0.35205564947E+01  0.60522660641E+01  0.10566000000E+00 0. -1.
        -13    1    4    4    0    0 -0.15907299526E+02  0.94267956795E+01  0.12147805850E+02  0.22124353233E+02  0.10566000000E+00 0. -1.
        -14    1    4    4    0    0 -0.11596062843E+02  0.63534095267E+01  0.74467345122E+01  0.15175254231E+02  0.00000000000E+00 0.  1.
<mgrwt>
<rscale>  0 0.80237613E+02</rscale>
<asrwt>0</asrwt>
<pdfrwt beam="1">  1        1 0.52434843E-02 0.80237613E+02</pdfrwt>
<pdfrwt beam="2">  1       -2 0.72652293E-02 0.80237613E+02</pdfrwt>
<totfact> 0.12260927E+05</totfact>
</mgrwt>
</event>
<event>
 8    1  0.1372337E-024  0.7813785E+02  0.7818608E-02  0.1334421E+00
          1   -1    0    0  501    0  0.00000000000E+00  0.00000000000E+00  0.25240262392E+02  0.25240262895E+02  0.50400000000E-02 0. -1.
         -2   -1    0    0    0  501 -0.00000000000E+00 -0.00000000000E+00 -0.60474050973E+02  0.60474051027E+02  0.25500000000E-02 0.  1.
        -24    2    1    2    0    0  0.35527136788E-14 -0.17763568394E-14 -0.35233788581E+02  0.85714313922E+02  0.78137850964E+02 0.  0.
         66    2    3    3    0    0 -0.27754034365E+02  0.11047505504E+02 -0.45206541043E+02  0.54221445569E+02  0.20000013013E+01 0.  0.
         13    1    3    3    0    0  0.27754034365E+02 -0.11047505504E+02  0.99727524614E+01  0.31492868353E+02  0.10566000000E+00 0. -1.
         13    1    4    4    0    0 -0.10552542602E+02  0.49112702441E+01 -0.16960712026E+02  0.20570698754E+02  0.10566000000E+00 0. -1.
        -13    1    4    4    0    0 -0.10948559617E+02  0.37317613296E+01 -0.18703158848E+02  0.21991278163E+02  0.10566000000E+00 0.  1.
        -14    1    4    4    0    0 -0.62529321464E+01  0.24044739304E+01 -0.95426701686E+01  0.11659468652E+02  0.00000000000E+00 0.  1.
<mgrwt>
<rscale>  0 0.78137851E+02</rscale>
<asrwt>0</asrwt>
<pdfrwt beam="1">  1        1 0.38831174E-02 0.78137851E+02</pdfrwt>
<pdfrwt beam="2">  1       -2 0.93037001E-02 0.78137851E+02</pdfrwt>
<totfact> 0.12547159E+05</totfact>
</mgrwt>
</event>
<event>
 8    1  0.1372337E-024  0.8091734E+02  0.7818608E-02  0.1326468E+00
         -2   -1    0    0    0  501 -0.00000000000E+00  0.00000000000E+00  0.25538844085E+03  0.25538844086E+03  0.25500000000E-02 0.  1.
          1   -1    0    0  501    0  0.00000000000E+00 -0.00000000000E+00 -0.64094665479E+01  0.64094685295E+01  0.50400000000E-02 0. -1.
        -24    2    1    2    0    0  0.00000000000E+00  0.88817841970E-15  0.24897897430E+03  0.26179790939E+03  0.80917338794E+02 0.  0.
         66    2    3    3    0    0 -0.25093809585E+02 -0.64564886815E+01  0.22499301569E+03  0.22648894594E+03  0.19999992424E+01 0.  0.
         13    1    3    3    0    0  0.25093809585E+02  0.64564886815E+01  0.23985958609E+02  0.35308963451E+02  0.10566000000E+00 0. -1.
         13    1    4    4    0    0 -0.79211426255E+01 -0.26205338187E+01  0.76012955481E+02  0.76469551215E+02  0.10566000000E+00 0. -1.
        -13    1    4    4    0    0 -0.15082949829E+02 -0.36899373672E+01  0.13002498384E+03  0.13094891599E+03  0.10566000000E+00 0.  1.
         14    1    4    4    0    0 -0.20897171304E+01 -0.14601749556E+00  0.18955076373E+02  0.19070478733E+02  0.00000000000E+00 0. -1.
<mgrwt>
<rscale>  0 0.80917339E+02</rscale>
<asrwt>0</asrwt>
<pdfrwt beam="1">  1        1 0.98607204E-03 0.80917339E+02</pdfrwt>
<pdfrwt beam="2">  1       -2 0.39290525E-01 0.80917339E+02</pdfrwt>
<totfact> 0.74113408E+04</totfact>
</mgrwt>
</event>
<event>
 8    1  0.1372337E-024  0.7955165E+02  0.7818608E-02  0.1330329E+00
         -2   -1    0    0    0  501 -0.00000000000E+00  0.00000000000E+00  0.58142317740E+01  0.58142323331E+01  0.25500000000E-02 0.  1.
          1   -1    0    0  501    0  0.00000000000E+00 -0.00000000000E+00 -0.27211098547E+03  0.27211098552E+03  0.50400000000E-02 0. -1.
        -24    2    1    2    0    0  0.71054273576E-14  0.00000000000E+00 -0.26629675370E+03  0.27792521785E+03  0.79551654212E+02 0.  0.
         66    2    3    3    0    0 -0.35324827646E+02 -0.16826192493E+02 -0.10874005832E+03  0.11558271687E+03  0.19999884802E+01 0.  0.
         13    1    3    3    0    0  0.35324827646E+02  0.16826192493E+02 -0.15755669538E+03  0.16234250098E+03  0.10566000000E+00 0. -1.
         13    1    4    4    0    0 -0.54626953108E+01 -0.30280776039E+01 -0.16471484378E+02  0.17616221379E+02  0.10566000000E+00 0. -1.
        -13    1    4    4    0    0 -0.12358890715E+02 -0.59447748632E+01 -0.36621631001E+02  0.39105466997E+02  0.10566000000E+00 0.  1.
        -14    1    4    4    0    0 -0.17503241620E+02 -0.78533400262E+01 -0.55646942943E+02  0.58861028496E+02  0.00000000000E+00 0.  1.
<mgrwt>
<rscale>  0 0.79551654E+02</rscale>
<asrwt>0</asrwt>
<pdfrwt beam="1">  1        1 0.41863219E-01 0.79551654E+02</pdfrwt>
<pdfrwt beam="2">  1       -2 0.89449745E-03 0.79551654E+02</pdfrwt>
<totfact> 0.17970221E+05</totfact>
</mgrwt>
</event>
<event>
 8    1  0.1372337E-024  0.7914848E+02  0.7818608E-02  0.1331485E+00
          1   -1    0    0  501    0  0.00000000000E+00  0.00000000000E+00  0.81585233905E+02  0.81585234061E+02  0.50400000000E-02 0. -1.
         -2   -1    0    0    0  501 -0.00000000000E+00 -0.00000000000E+00 -0.19196124542E+02  0.19196124712E+02  0.25500000000E-02 0.  1.
        -24    2    1    2    0    0  0.00000000000E+00  0.00000000000E+00  0.62389109363E+02  0.10078135877E+03  0.79148476353E+02 0.  0.
         66    2    3    3    0    0  0.11908319052E+02  0.37560509598E+02  0.26893481327E+02  0.47747872016E+02  0.20000000640E+01 0.  0.
         13    1    3    3    0    0 -0.11908319052E+02 -0.37560509598E+02  0.35495628036E+02  0.53033486757E+02  0.10566000000E+00 0. -1.
         13    1    4    4    0    0  0.56059211900E+01  0.15757726319E+02  0.12312320603E+02  0.20768646894E+02  0.10566000000E+00 0. -1.
        -13    1    4    4    0    0  0.31575026617E+01  0.10938172792E+02  0.75555363072E+01  0.13664213845E+02  0.10566000000E+00 0.  1.
         14    1    4    4    0    0  0.31448952003E+01  0.10864610487E+02  0.70256244170E+01  0.13315011277E+02  0.00000000000E+00 0. -1.
<mgrwt>
<rscale>  0 0.79148476E+02</rscale>
<asrwt>0</asrwt>
<pdfrwt beam="1">  1        1 0.12551575E-01 0.79148476E+02</pdfrwt>
<pdfrwt beam="2">  1       -2 0.29532499E-02 0.79148476E+02</pdfrwt>
<totfact> 0.14634122E+05</totfact>
</mgrwt>
</event>
<event>
 8    1  0.1372337E-024  0.7477102E+02  0.7818608E-02  0.1344582E+00
          1   -1    0    0  501    0  0.00000000000E+00  0.00000000000E+00  0.81370199086E+01  0.81370214694E+01  0.50400000000E-02 0. -1.
         -2   -1    0    0    0  501 -0.00000000000E+00 -0.00000000000E+00 -0.17176757918E+03  0.17176757919E+03  0.25500000000E-02 0.  1.
        -24    2    1    2    0    0  0.00000000000E+00  0.00000000000E+00 -0.16363055927E+03  0.17990460066E+03  0.74771019881E+02 0.  0.
         66    2    3    3    0    0  0.25558453217E+01 -0.14582428822E+02 -0.16440205529E+03  0.16507942121E+03  0.19999869514E+01 0.  0.
         13    1    3    3    0    0 -0.25558453217E+01  0.14582428822E+02  0.77149602384E+00  0.14825179453E+02  0.10566000000E+00 0. -1.
         13    1    4    4    0    0  0.80391131084E-02 -0.48501746186E+01 -0.53337695228E+02  0.53557867347E+02  0.10566000000E+00 0. -1.
        -13    1    4    4    0    0  0.23844692454E+00 -0.17566001438E+01 -0.21400091146E+02  0.21473648178E+02  0.10566000000E+00 0.  1.
         14    1    4    4    0    0  0.23093592840E+01 -0.79756540599E+01 -0.89664268917E+02  0.90047905686E+02  0.00000000000E+00 0. -1.
<mgrwt>
<rscale>  0 0.74771020E+02</rscale>
<asrwt>0</asrwt>
<pdfrwt beam="1">  1        1 0.12518495E-02 0.74771020E+02</pdfrwt>
<pdfrwt beam="2">  1       -2 0.26425779E-01 0.74771020E+02</pdfrwt>
<totfact> 0.10731108E+05</totfact>
</mgrwt>
</event>
<event>
 8    1  0.1372337E-024  0.8048888E+02  0.7818608E-02  0.1327670E+00
          1   -1    0    0  501    0  0.00000000000E+00  0.00000000000E+00  0.79079907164E+02  0.79079907325E+02  0.50400000000E-02 0. -1.
         -2   -1    0    0    0  501 -0.00000000000E+00 -0.00000000000E+00 -0.20480738948E+02  0.20480739106E+02  0.25500000000E-02 0.  1.
        -24    2    1    2    0    0  0.17763568394E-14  0.00000000000E+00  0.58599168216E+02  0.99560646431E+02  0.80488879991E+02 0.  0.
         66    2    3    3    0    0 -0.15387296413E+02  0.35299557816E+02  0.43678081442E+02  0.58263217123E+02  0.19999995491E+01 0.  0.
         13    1    3    3    0    0  0.15387296413E+02 -0.35299557816E+02  0.14921086774E+02  0.41297429308E+02  0.10566000000E+00 0. -1.
         13    1    4    4    0    0 -0.29632182116E+01  0.69377424648E+01  0.78615087074E+01  0.10896211079E+02  0.10566000000E+00 0. -1.
        -13    1    4    4    0    0 -0.12008201256E+02  0.27410092655E+02  0.34183420716E+02  0.45431569340E+02  0.10566000000E+00 0.  1.
         14    1    4    4    0    0 -0.41587694465E+00  0.95172269619E+00  0.16331520184E+01  0.19354367049E+01  0.00000000000E+00 0. -1.
<mgrwt>
<rscale>  0 0.80488880E+02</rscale>
<asrwt>0</asrwt>
<pdfrwt beam="1">  1        1 0.12166140E-01 0.80488880E+02</pdfrwt>
<pdfrwt beam="2">  1       -2 0.31508830E-02 0.80488880E+02</pdfrwt>
<totfact> 0.13910073E+05</totfact>
</mgrwt>
</event>
<event>
 8    1  0.1372337E-024  0.8117999E+02  0.7818608E-02  0.1325736E+00
         -2   -1    0    0    0  501 -0.00000000000E+00  0.00000000000E+00  0.18318623918E+03  0.18318623919E+03  0.25500000000E-02 0.  1.
          1   -1    0    0  501    0  0.00000000000E+00 -0.00000000000E+00 -0.89938389483E+01  0.89938403605E+01  0.50400000000E-02 0. -1.
        -24    2    1    2    0    0  0.17763568394E-14  0.00000000000E+00  0.17419240023E+03  0.19218007956E+03  0.81179989409E+02 0.  0.
         66    2    3    3    0    0  0.15873588875E+02  0.97726192971E+01  0.17244087063E+03  0.17345699403E+03  0.20000006108E+01 0.  0.
         13    1    3    3    0    0 -0.15873588875E+02 -0.97726192971E+01  0.17515296012E+01  0.18723085528E+02  0.10566000000E+00 0. -1.
         13    1    4    4    0    0  0.54091445920E+01  0.37114119706E+01  0.60247757503E+02  0.60603934462E+02  0.10566000000E+00 0. -1.
        -13    1    4    4    0    0  0.57343344613E+01  0.41492775709E+01  0.66946350412E+02  0.67319566945E+02  0.10566000000E+00 0.  1.
         14    1    4    4    0    0  0.47301098221E+01  0.19119297556E+01  0.45246762712E+02  0.45533492621E+02  0.00000000000E+00 0. -1.
<mgrwt>
<rscale>  0 0.81179989E+02</rscale>
<asrwt>0</asrwt>
<pdfrwt beam="1">  1        1 0.13836676E-02 0.81179989E+02</pdfrwt>
<pdfrwt beam="2">  1       -2 0.28182499E-01 0.81179989E+02</pdfrwt>
<totfact> 0.84799785E+04</totfact>
</mgrwt>
</event>
<event>
 8    1  0.1372337E-024  0.7216517E+02  0.7818608E-02  0.1352881E+00
         -2   -1    0    0    0  501 -0.00000000000E+00  0.00000000000E+00  0.25940118983E+02  0.25940119108E+02  0.25500000000E-02 0.  1.
          1   -1    0    0  501    0  0.00000000000E+00 -0.00000000000E+00 -0.50190700650E+02  0.50190700904E+02  0.50400000000E-02 0. -1.
        -24    2    1    2    0    0  0.00000000000E+00  0.00000000000E+00 -0.24250581667E+02  0.76130820012E+02  0.72165165035E+02 0.  0.
         66    2    3    3    0    0  0.77587711004E+01  0.18692610084E+02  0.19343616035E+02  0.28067555057E+02  0.19999912063E+01 0.  0.
         13    1    3    3    0    0 -0.77587711004E+01 -0.18692610084E+02 -0.43594197703E+02  0.48063264955E+02  0.10566000000E+00 0. -1.
         13    1    4    4    0    0  0.34186856290E+01  0.70090427871E+01  0.63408562688E+01  0.10051453352E+02  0.10566000000E+00 0. -1.
        -13    1    4    4    0    0  0.37743533806E+01  0.97807477699E+01  0.11010471590E+02  0.15203631772E+02  0.10566000000E+00 0.  1.
        -14    1    4    4    0    0  0.56573209084E+00  0.19028195268E+01  0.19922881767E+01  0.28124699339E+01  0.00000000000E+00 0.  1.
<mgrwt>
<rscale>  0 0.72165165E+02</rscale>
<asrwt>0</asrwt>
<pdfrwt beam="1">  1        1 0.77216463E-02 0.72165165E+02</pdfrwt>
<pdfrwt beam="2">  1       -2 0.39907876E-02 0.72165165E+02</pdfrwt>
<totfact> 0.17486935E+05</totfact>
</mgrwt>
</event>
<event>
 8    1  0.1372337E-024  0.8145454E+02  0.7818608E-02  0.1324974E+00
         -2   -1    0    0    0  501 -0.00000000000E+00  0.00000000000E+00  0.10357242326E+02  0.10357242640E+02  0.25500000000E-02 0.  1.
          1   -1    0    0  501    0  0.00000000000E+00 -0.00000000000E+00 -0.16014980255E+03  0.16014980263E+03  0.50400000000E-02 0. -1.
        -24    2    1    2    0    0  0.00000000000E+00  0.10658141036E-13 -0.14979256022E+03  0.17050704527E+03  0.81454535712E+02 0.  0.
         66    2    3    3    0    0 -0.19447214830E+02  0.30146306573E+02 -0.34691994176E+02  0.49945254336E+02  0.20000015168E+01 0.  0.
         13    1    3    3    0    0  0.19447214830E+02 -0.30146306573E+02 -0.11510056605E+03  0.12056179093E+03  0.10566000000E+00 0. -1.
         13    1    4    4    0    0 -0.27358714745E+01  0.34900595607E+01 -0.44590893527E+01  0.62896860297E+01  0.10566000000E+00 0. -1.
        -13    1    4    4    0    0 -0.13439108725E+02  0.20388370805E+02 -0.23212547188E+02  0.33691672835E+02  0.10566000000E+00 0.  1.
         14    1    4    4    0    0 -0.32722346311E+01  0.62678762072E+01 -0.70203576357E+01  0.99638954713E+01  0.00000000000E+00 0. -1.
<mgrwt>
<rscale>  0 0.81454536E+02</rscale>
<asrwt>0</asrwt>
<pdfrwt beam="1">  1        1 0.24638429E-01 0.81454536E+02</pdfrwt>
<pdfrwt beam="2">  1       -2 0.15934220E-02 0.81454536E+02</pdfrwt>
<totfact> 0.15230727E+05</totfact>
</mgrwt>
</event>
<event>
 8    1  0.1372337E-024  0.6968024E+02  0.7818608E-02  0.1361184E+00
          1   -1    0    0  501    0  0.00000000000E+00  0.00000000000E+00  0.10044703035E+03  0.10044703047E+03  0.50400000000E-02 0. -1.
         -2   -1    0    0    0  501 -0.00000000000E+00 -0.00000000000E+00 -0.12084319548E+02  0.12084319817E+02  0.25500000000E-02 0.  1.
        -24    2    1    2    0    0  0.00000000000E+00  0.00000000000E+00  0.88362710800E+02  0.11253135029E+03  0.69680242095E+02 0.  0.
         66    2    3    3    0    0  0.22707417776E+02 -0.16199918745E+02  0.10582671965E+02  0.29900788181E+02  0.19999996318E+01 0.  0.
         13    1    3    3    0    0 -0.22707417776E+02  0.16199918745E+02  0.77780038834E+02  0.82630562109E+02  0.10566000000E+00 0. -1.
         13    1    4    4    0    0  0.20660572617E+01 -0.19446660330E+01  0.11443266206E+01  0.30612033645E+01  0.10566000000E+00 0. -1.
        -13    1    4    4    0    0  0.17721234327E+02 -0.11694224897E+02  0.77167711971E+01  0.22591077083E+02  0.10566000000E+00 0.  1.
        -14    1    4    4    0    0  0.29201261874E+01 -0.25610278152E+01  0.17215741476E+01  0.42485077340E+01  0.00000000000E+00 0.  1.
<mgrwt>
<rscale>  0 0.69680242E+02</rscale>
<asrwt>0</asrwt>
<pdfrwt beam="1">  1        1 0.15453390E-01 0.69680242E+02</pdfrwt>
<pdfrwt beam="2">  1       -2 0.18591261E-02 0.69680242E+02</pdfrwt>
<totfact> 0.21284301E+05</totfact>
</mgrwt>
</event>
<event>
 8    1  0.1372337E-024  0.7229745E+02  0.7818608E-02  0.1352450E+00
          1   -1    0    0  501    0  0.00000000000E+00  0.00000000000E+00  0.99594295975E+02  0.99594296102E+02  0.50400000000E-02 0. -1.
         -2   -1    0    0    0  501 -0.00000000000E+00 -0.00000000000E+00 -0.13120532373E+02  0.13120532621E+02  0.25500000000E-02 0.  1.
        -24    2    1    2    0    0  0.00000000000E+00 -0.11102230246E-15  0.86473763602E+02  0.11271482872E+03  0.72297446861E+02 0.  0.
         66    2    3    3    0    0  0.15538494291E+02 -0.96682327228E+00 -0.75450204553E+01  0.17415707679E+02  0.19999970601E+01 0.  0.
         13    1    3    3    0    0 -0.15538494291E+02  0.96682327228E+00  0.94018784057E+02  0.95299121043E+02  0.10566000000E+00 0. -1.
         13    1    4    4    0    0  0.75508686565E+01  0.10221345710E+00 -0.43161224326E+01  0.86986287395E+01  0.10566000000E+00 0. -1.
        -13    1    4    4    0    0  0.59564274670E+01 -0.11354582036E+01 -0.24395245290E+01  0.65368752064E+01  0.10566000000E+00 0.  1.
         14    1    4    4    0    0  0.20311981673E+01  0.66421474225E-01 -0.78937349375E+00  0.21802037336E+01  0.00000000000E+00 0. -1.
<mgrwt>
<rscale>  0 0.72297447E+02</rscale>
<asrwt>0</asrwt>
<pdfrwt beam="1">  1        1 0.15322200E-01 0.72297447E+02</pdfrwt>
<pdfrwt beam="2">  1       -2 0.20185434E-02 0.72297447E+02</pdfrwt>
<totfact> 0.19273104E+05</totfact>
</mgrwt>
</event>
<event>
 8    1  0.1509451E-024  0.7867613E+02  0.7818608E-02  0.1332851E+00
          1   -1    0    0  501    0  0.00000000000E+00  0.00000000000E+00  0.99592633909E+02  0.99592634037E+02  0.50400000000E-02 0. -1.
         -2   -1    0    0    0  501 -0.00000000000E+00 -0.00000000000E+00 -0.15538130265E+02  0.15538130474E+02  0.25500000000E-02 0.  1.
        -24    2    1    2    0    0 -0.11102230246E-15  0.00000000000E+00  0.84054503644E+02  0.11513076451E+03  0.78676129505E+02 0.  0.
         66    2    3    3    0    0  0.83080300807E+00 -0.33525841802E+02  0.12035804986E+02  0.35686592776E+02  0.20000000184E+01 0.  0.
         13    1    3    3    0    0 -0.83080300807E+00  0.33525841802E+02  0.72018698658E+02  0.79444171735E+02  0.10566000000E+00 0. -1.
         13    1    4    4    0    0  0.11254127547E+00 -0.86251903263E+01  0.25023104939E+01  0.89821654152E+01  0.10566000000E+00 0. -1.
        -13    1    4    4    0    0  0.36131785307E+00 -0.20242696489E+02  0.72553956805E+01  0.21506957996E+02  0.10566000000E+00 0.  1.
         14    1    4    4    0    0  0.35694387953E+00 -0.46579549871E+01  0.22780988119E+01  0.51974693642E+01  0.00000000000E+00 0. -1.
<mgrwt>
<rscale>  0 0.78676130E+02</rscale>
<asrwt>0</asrwt>
<pdfrwt beam="1">  1        1 0.15321944E-01 0.78676130E+02</pdfrwt>
<pdfrwt beam="2">  1       -2 0.23904815E-02 0.78676130E+02</pdfrwt>
<totfact> 0.15365977E+05</totfact>
</mgrwt>
</event>
<event>
 8    1  0.1372337E-024  0.8038472E+02  0.7818608E-02  0.1327963E+00
         -2   -1    0    0    0  501 -0.00000000000E+00  0.00000000000E+00  0.43763244127E+01  0.43763251557E+01  0.25500000000E-02 0.  1.
          1   -1    0    0  501    0  0.00000000000E+00 -0.00000000000E+00 -0.36912842773E+03  0.36912842777E+03  0.50400000000E-02 0. -1.
        -24    2    1    2    0    0  0.00000000000E+00  0.00000000000E+00 -0.36475210332E+03  0.37350475292E+03  0.80384722302E+02 0.  0.
         66    2    3    3    0    0 -0.17501734600E+02 -0.35940943960E+02 -0.20069824615E+03  0.20465055136E+03  0.20000000716E+01 0.  0.
         13    1    3    3    0    0  0.17501734600E+02  0.35940943960E+02 -0.16405385717E+03  0.16885420156E+03  0.10566000000E+00 0. -1.
         13    1    4    4    0    0 -0.49456432076E+01 -0.92361753276E+01 -0.49473074919E+02  0.50570373020E+02  0.10566000000E+00 0. -1.
        -13    1    4    4    0    0 -0.14948822840E+01 -0.35412421082E+01 -0.18430128462E+02  0.18826998377E+02  0.10566000000E+00 0.  1.
         14    1    4    4    0    0 -0.11061209108E+02 -0.23163526524E+02 -0.13279504276E+03  0.13525317997E+03  0.00000000000E+00 0. -1.
<mgrwt>
<rscale>  0 0.80384722E+02</rscale>
<asrwt>0</asrwt>
<pdfrwt beam="1">  1        1 0.56788964E-01 0.80384722E+02</pdfrwt>
<pdfrwt beam="2">  1       -2 0.67328103E-03 0.80384722E+02</pdfrwt>
<totfact> 0.18502620E+05</totfact>
</mgrwt>
</event>
<event>
 8    1  0.1372337E-024  0.8209296E+02  0.7818608E-02  0.1323215E+00
         -2   -1    0    0    0  501 -0.00000000000E+00  0.00000000000E+00  0.14684501023E+03  0.14684501025E+03  0.25500000000E-02 0.  1.
          1   -1    0    0  501    0  0.00000000000E+00 -0.00000000000E+00 -0.11473413628E+02  0.11473414735E+02  0.50400000000E-02 0. -1.
        -24    2    1    2    0    0  0.00000000000E+00 -0.17763568394E-14  0.13537159660E+03  0.15831842499E+03  0.82092962692E+02 0.  0.
         66    2    3    3    0    0  0.85925054015E+01 -0.13628360909E+02  0.14048128921E+03  0.14141625078E+03  0.19999992354E+01 0.  0.
         13    1    3    3    0    0 -0.85925054015E+01  0.13628360909E+02 -0.51096926105E+01  0.16902174202E+02  0.10566000000E+00 0. -1.
         13    1    4    4    0    0  0.62551957144E+01 -0.10173797546E+02  0.10318734230E+03  0.10387623600E+03  0.10566000000E+00 0. -1.
        -13    1    4    4    0    0  0.22250803743E+01 -0.26496780657E+01  0.28804455339E+02  0.29011714668E+02  0.10566000000E+00 0.  1.
         14    1    4    4    0    0  0.11222931278E+00 -0.80488529737E+00  0.84894915726E+01  0.85283001191E+01  0.00000000000E+00 0. -1.
<mgrwt>
<rscale>  0 0.82092963E+02</rscale>
<asrwt>0</asrwt>
<pdfrwt beam="1">  1        1 0.17651408E-02 0.82092963E+02</pdfrwt>
<pdfrwt beam="2">  1       -2 0.22591538E-01 0.82092963E+02</pdfrwt>
<totfact> 0.89045418E+04</totfact>
</mgrwt>
</event>
<event>
 8    1  0.1372337E-024  0.7984151E+02  0.7818608E-02  0.1329502E+00
         -2   -1    0    0    0  501 -0.00000000000E+00  0.00000000000E+00  0.12206835640E+02  0.12206835906E+02  0.25500000000E-02 0.  1.
          1   -1    0    0  501    0  0.00000000000E+00 -0.00000000000E+00 -0.13055524947E+03  0.13055524956E+03  0.50400000000E-02 0. -1.
        -24    2    1    2    0    0  0.00000000000E+00  0.00000000000E+00 -0.11834841383E+03  0.14276208547E+03  0.79841505449E+02 0.  0.
         66    2    3    3    0    0  0.20856088264E+02 -0.33801643042E+02 -0.52488940212E+02  0.65852990306E+02  0.19999994410E+01 0.  0.
         13    1    3    3    0    0 -0.20856088264E+02  0.33801643042E+02 -0.65859473616E+02  0.76909095165E+02  0.10566000000E+00 0. -1.
         13    1    4    4    0    0  0.11076685896E+02 -0.17348416891E+02 -0.26469185926E+02  0.33530426580E+02  0.10566000000E+00 0.  1.
        -13    1    4    4    0    0  0.80229760263E+00 -0.98716811954E+00 -0.14134601663E+01  0.19045251421E+01  0.10566000000E+00 0. -1.
         14    1    4    4    0    0  0.89771047655E+01 -0.15466058031E+02 -0.24606294119E+02  0.30418038584E+02  0.00000000000E+00 0. -1.
<mgrwt>
<rscale>  0 0.79841505E+02</rscale>
<asrwt>0</asrwt>
<pdfrwt beam="1">  1        1 0.20085422E-01 0.79841505E+02</pdfrwt>
<pdfrwt beam="2">  1       -2 0.18779748E-02 0.79841505E+02</pdfrwt>
<totfact> 0.15476893E+05</totfact>
</mgrwt>
</event>
<event>
 8    1  0.1372337E-024  0.7963232E+02  0.7818608E-02  0.1330098E+00
         -2   -1    0    0    0  501 -0.00000000000E+00  0.00000000000E+00  0.53495309316E+02  0.53495309377E+02  0.25500000000E-02 0.  1.
          1   -1    0    0  501    0  0.00000000000E+00 -0.00000000000E+00 -0.29634874361E+02  0.29634874790E+02  0.50400000000E-02 0. -1.
        -24    2    1    2    0    0 -0.17763568394E-14  0.00000000000E+00  0.23860434955E+02  0.83130184167E+02  0.79632324865E+02 0.  0.
         66    2    3    3    0    0  0.14616794983E+02  0.28270917753E+02  0.36870411844E+02  0.48747541033E+02  0.20000002551E+01 0.  0.
         13    1    3    3    0    0 -0.14616794983E+02 -0.28270917753E+02 -0.13009976889E+02  0.34382643134E+02  0.10566000000E+00 0. -1.
         13    1    4    4    0    0  0.10025012247E+00  0.56914686707E+00  0.63429774871E+00  0.86456689329E+00  0.10566000000E+00 0.  1.
        -13    1    4    4    0    0  0.80503719824E+01  0.14951474096E+02  0.18757381523E+02  0.25302284330E+02  0.10566000000E+00 0.  1.
         14    1    4    4    0    0  0.64661728785E+01  0.12750296790E+02  0.17478732572E+02  0.22580689809E+02  0.00000000000E+00 0. -1.
<mgrwt>
<rscale>  0 0.79632325E+02</rscale>
<asrwt>0</asrwt>
<pdfrwt beam="1">  1        1 0.45592115E-02 0.79632325E+02</pdfrwt>
<pdfrwt beam="2">  1       -2 0.82300475E-02 0.79632325E+02</pdfrwt>
<totfact> 0.12229465E+05</totfact>
</mgrwt>
</event>
<event>
 8    1  0.1372337E-024  0.7729691E+02  0.7818608E-02  0.1336902E+00
         -2   -1    0    0    0  501 -0.00000000000E+00  0.00000000000E+00  0.23520702993E+03  0.23520702994E+03  0.25500000000E-02 0.  1.
          1   -1    0    0  501    0  0.00000000000E+00 -0.00000000000E+00 -0.63505880220E+01  0.63505900219E+01  0.50400000000E-02 0. -1.
        -24    2    1    2    0    0  0.00000000000E+00  0.71054273576E-14  0.22885644191E+03  0.24155761997E+03  0.77296913009E+02 0.  0.
         66    2    3    3    0    0 -0.42261030113E+01 -0.32027073054E+02  0.18065744696E+03  0.18353393831E+03  0.20000034760E+01 0.  0.
         13    1    3    3    0    0  0.42261030113E+01  0.32027073054E+02  0.48198994949E+02  0.58023681658E+02  0.10566000000E+00 0. -1.
         13    1    4    4    0    0 -0.81398741786E+00 -0.35017332699E+01  0.22246993436E+02  0.22535851268E+02  0.10566000000E+00 0. -1.
        -13    1    4    4    0    0 -0.14903524002E+01 -0.15860823340E+02  0.89758903670E+02  0.91161717949E+02  0.10566000000E+00 0.  1.
         14    1    4    4    0    0 -0.19217631933E+01 -0.12664516444E+02  0.68651549854E+02  0.69836369091E+02  0.00000000000E+00 0. -1.
<mgrwt>
<rscale>  0 0.77296913E+02</rscale>
<asrwt>0</asrwt>
<pdfrwt beam="1">  1        1 0.97701385E-03 0.77296913E+02</pdfrwt>
<pdfrwt beam="2">  1       -2 0.36185692E-01 0.77296913E+02</pdfrwt>
<totfact> 0.86694578E+04</totfact>
</mgrwt>
</event>
<event>
 8    1  0.1372337E-024  0.7939201E+02  0.7818608E-02  0.1330786E+00
         -2   -1    0    0    0  501 -0.00000000000E+00  0.00000000000E+00  0.31254367073E+02  0.31254367177E+02  0.25500000000E-02 0.  1.
          1   -1    0    0  501    0  0.00000000000E+00 -0.00000000000E+00 -0.50417688023E+02  0.50417688275E+02  0.50400000000E-02 0. -1.
        -24    2    1    2    0    0  0.00000000000E+00  0.00000000000E+00 -0.19163320950E+02  0.81672055452E+02  0.79392013275E+02 0.  0.
         66    2    3    3    0    0  0.17803183348E+02  0.90563986018E+01  0.25671922427E+02  0.32588637624E+02  0.20000020336E+01 0.  0.
         13    1    3    3    0    0 -0.17803183348E+02 -0.90563986018E+01 -0.44835243377E+02  0.49083417828E+02  0.10566000000E+00 0. -1.
         13    1    4    4    0    0  0.11213625677E+01  0.98197405118E+00  0.18155307246E+01  0.23513916928E+01  0.10566000000E+00 0. -1.
        -13    1    4    4    0    0  0.12260883622E+02  0.59059790797E+01  0.16562775478E+02  0.21437036914E+02  0.10566000000E+00 0.  1.
        -14    1    4    4    0    0  0.44209371588E+01  0.21684454709E+01  0.72936162244E+01  0.88002090175E+01  0.00000000000E+00 0.  1.
<mgrwt>
<rscale>  0 0.79392013E+02</rscale>
<asrwt>0</asrwt>
<pdfrwt beam="1">  1        1 0.77565674E-02 0.79392013E+02</pdfrwt>
<pdfrwt beam="2">  1       -2 0.48083642E-02 0.79392013E+02</pdfrwt>
<totfact> 0.13456577E+05</totfact>
</mgrwt>
</event>
<event>
 8    1  0.1372337E-024  0.7967646E+02  0.7818608E-02  0.1329972E+00
         -2   -1    0    0    0  501 -0.00000000000E+00  0.00000000000E+00  0.97185785523E+02  0.97185785556E+02  0.25500000000E-02 0.  1.
          1   -1    0    0  501    0  0.00000000000E+00 -0.00000000000E+00 -0.16330419441E+02  0.16330420219E+02  0.50400000000E-02 0. -1.
        -24    2    1    2    0    0 -0.35527136788E-14  0.00000000000E+00  0.80855366082E+02  0.11351620578E+03  0.79676462957E+02 0.  0.
         66    2    3    3    0    0  0.29929335614E+02 -0.26041731575E+02  0.35697265439E+02  0.53406288695E+02  0.19999996733E+01 0.  0.
         13    1    3    3    0    0 -0.29929335614E+02  0.26041731575E+02  0.45158100642E+02  0.60109917080E+02  0.10566000000E+00 0. -1.
         13    1    4    4    0    0  0.54296825047E+01 -0.39042667423E+01  0.55734252701E+01  0.87062612053E+01  0.10566000000E+00 0. -1.
        -13    1    4    4    0    0  0.14619878163E+02 -0.13216445783E+02  0.17599051536E+02  0.26422586089E+02  0.10566000000E+00 0.  1.
         14    1    4    4    0    0  0.98797749459E+01 -0.89210190493E+01  0.12524788633E+02  0.18277441401E+02  0.00000000000E+00 0. -1.
<mgrwt>
<rscale>  0 0.79676463E+02</rscale>
<asrwt>0</asrwt>
<pdfrwt beam="1">  1        1 0.25123723E-02 0.79676463E+02</pdfrwt>
<pdfrwt beam="2">  1       -2 0.14951660E-01 0.79676463E+02</pdfrwt>
<totfact> 0.10798952E+05</totfact>
</mgrwt>
</event>
<event>
 8    1  0.1372337E-024  0.7923713E+02  0.7818608E-02  0.1331230E+00
          1   -1    0    0  501    0  0.00000000000E+00  0.00000000000E+00  0.11160389380E+03  0.11160389392E+03  0.50400000000E-02 0. -1.
         -2   -1    0    0    0  501 -0.00000000000E+00 -0.00000000000E+00 -0.14064300491E+02  0.14064300722E+02  0.25500000000E-02 0.  1.
        -24    2    1    2    0    0  0.00000000000E+00  0.00000000000E+00  0.97539593313E+02  0.12566819464E+03  0.79237130693E+02 0.  0.
         66    2    3    3    0    0  0.34455776845E+02  0.75010803550E+01  0.20246207205E+02  0.40710879095E+02  0.20000015044E+01 0.  0.
         13    1    3    3    0    0 -0.34455776845E+02 -0.75010803550E+01  0.77293386108E+02  0.84957315544E+02  0.10566000000E+00 0. -1.
         13    1    4    4    0    0  0.13961035792E+02  0.37776657196E+01  0.80978410153E+01  0.16576111481E+02  0.10566000000E+00 0. -1.
        -13    1    4    4    0    0  0.20387538851E+02  0.36848614466E+01  0.12155240383E+02  0.24020636484E+02  0.10566000000E+00 0.  1.
         14    1    4    4    0    0  0.10720220155E+00  0.38553188851E-01 -0.68741930282E-02  0.11413113036E+00  0.00000000000E+00 0. -1.
<mgrwt>
<rscale>  0 0.79237131E+02</rscale>
<asrwt>0</asrwt>
<pdfrwt beam="1">  1        1 0.17169829E-01 0.79237131E+02</pdfrwt>
<pdfrwt beam="2">  1       -2 0.21637386E-02 0.79237131E+02</pdfrwt>
<totfact> 0.15367736E+05</totfact>
</mgrwt>
</event>
<event>
 8    1  0.1372337E-024  0.7986124E+02  0.7818608E-02  0.1329446E+00
         -2   -1    0    0    0  501 -0.00000000000E+00  0.00000000000E+00  0.17179907644E+02  0.17179907833E+02  0.25500000000E-02 0.  1.
          1   -1    0    0  501    0  0.00000000000E+00 -0.00000000000E+00 -0.92809261023E+02  0.92809261160E+02  0.50400000000E-02 0. -1.
        -24    2    1    2    0    0  0.71054273576E-14  0.00000000000E+00 -0.75629353379E+02  0.10998916899E+03  0.79861243437E+02 0.  0.
         66    2    3    3    0    0 -0.35523025420E+02  0.32524731490E+01 -0.13201820654E+02  0.38088738377E+02  0.20000014921E+01 0.  0.
         13    1    3    3    0    0  0.35523025420E+02 -0.32524731490E+01 -0.62427532726E+02  0.71900430616E+02  0.10566000000E+00 0. -1.
         13    1    4    4    0    0 -0.31556492178E+01  0.97719168142E-01 -0.96886407615E+00  0.33041689810E+01  0.10566000000E+00 0. -1.
        -13    1    4    4    0    0 -0.30443363068E+02  0.32938346790E+01 -0.11277689303E+02  0.32631965032E+02  0.10566000000E+00 0.  1.
         14    1    4    4    0    0 -0.19240131345E+01 -0.13908069813E+00 -0.95526727421E+00  0.21526043639E+01  0.00000000000E+00 0. -1.
<mgrwt>
<rscale>  0 0.79861243E+02</rscale>
<asrwt>0</asrwt>
<pdfrwt beam="1">  1        1 0.14278348E-01 0.79861243E+02</pdfrwt>
<pdfrwt beam="2">  1       -2 0.26430628E-02 0.79861243E+02</pdfrwt>
<totfact> 0.14585636E+05</totfact>
</mgrwt>
</event>
<event>
 8    1  0.1372337E-024  0.7952705E+02  0.7818608E-02  0.1330399E+00
          1   -1    0    0  501    0  0.00000000000E+00  0.00000000000E+00  0.89974328700E+02  0.89974328841E+02  0.50400000000E-02 0. -1.
         -2   -1    0    0    0  501 -0.00000000000E+00 -0.00000000000E+00 -0.17573211238E+02  0.17573211423E+02  0.25500000000E-02 0.  1.
        -24    2    1    2    0    0 -0.35527136788E-14  0.00000000000E+00  0.72401117462E+02  0.10754754026E+03  0.79527049532E+02 0.  0.
         66    2    3    3    0    0 -0.16969254180E+02  0.31796908546E+02  0.13589015606E+02  0.38570200005E+02  0.20000006935E+01 0.  0.
         13    1    3    3    0    0  0.16969254180E+02 -0.31796908546E+02  0.58812101856E+02  0.68977340259E+02  0.10566000000E+00 0. -1.
         13    1    4    4    0    0 -0.69098010444E+01  0.12086701849E+02  0.47165798954E+01  0.14700034082E+02  0.10566000000E+00 0. -1.
        -13    1    4    4    0    0 -0.77097555871E+01  0.14030689660E+02  0.62109438763E+01  0.17172290803E+02  0.10566000000E+00 0.  1.
         14    1    4    4    0    0 -0.23496975482E+01  0.56795170369E+01  0.26614918344E+01  0.66978751202E+01  0.00000000000E+00 0. -1.
<mgrwt>
<rscale>  0 0.79527050E+02</rscale>
<asrwt>0</asrwt>
<pdfrwt beam="1">  1        1 0.13842204E-01 0.79527050E+02</pdfrwt>
<pdfrwt beam="2">  1       -2 0.27035710E-02 0.79527050E+02</pdfrwt>
<totfact> 0.14677090E+05</totfact>
</mgrwt>
</event>
<event>
 8    1  0.1372337E-024  0.7929077E+02  0.7818608E-02  0.1331076E+00
         -2   -1    0    0    0  501 -0.00000000000E+00  0.00000000000E+00  0.17754720959E+02  0.17754721142E+02  0.25500000000E-02 0.  1.
          1   -1    0    0  501    0  0.00000000000E+00 -0.00000000000E+00 -0.88526124483E+02  0.88526124627E+02  0.50400000000E-02 0. -1.
        -24    2    1    2    0    0  0.35527136788E-14  0.88817841970E-15 -0.70771403524E+02  0.10628084577E+03  0.79290772606E+02 0.  0.
         66    2    3    3    0    0  0.21173676124E+02 -0.70500617444E+01  0.84725715406E+01  0.23954381741E+02  0.20000012143E+01 0.  0.
         13    1    3    3    0    0 -0.21173676124E+02  0.70500617444E+01 -0.79243975065E+02  0.82326464028E+02  0.10566000000E+00 0. -1.
         13    1    4    4    0    0  0.47524660586E+00 -0.21053789224E+00  0.35457076855E+00  0.63802038052E+00  0.10566000000E+00 0. -1.
        -13    1    4    4    0    0  0.68608407078E+01 -0.24999598607E+01  0.34880379819E+01  0.80931148220E+01  0.10566000000E+00 0. -1.
        -14    1    4    4    0    0  0.13837588811E+02 -0.43395639915E+01  0.46299627901E+01  0.15223246538E+02  0.00000000000E+00 0.  1.
<mgrwt>
<rscale>  0 0.79290773E+02</rscale>
<asrwt>0</asrwt>
<pdfrwt beam="1">  1        1 0.13619404E-01 0.79290773E+02</pdfrwt>
<pdfrwt beam="2">  1       -2 0.27314956E-02 0.79290773E+02</pdfrwt>
<totfact> 0.14756683E+05</totfact>
</mgrwt>
</event>
<event>
 8    1  0.1372337E-024  0.8081227E+02  0.7818608E-02  0.1326762E+00
          1   -1    0    0  501    0  0.00000000000E+00  0.00000000000E+00  0.19068846186E+02  0.19068846852E+02  0.50400000000E-02 0. -1.
         -2   -1    0    0    0  501 -0.00000000000E+00 -0.00000000000E+00 -0.85619014155E+02  0.85619014193E+02  0.25500000000E-02 0.  1.
        -24    2    1    2    0    0  0.17763568394E-14 -0.35527136788E-14 -0.66550167969E+02  0.10468786104E+03  0.80812272542E+02 0.  0.
         66    2    3    3    0    0  0.10548348600E+02 -0.24662135693E+02 -0.72399019895E+02  0.77234103050E+02  0.19999992852E+01 0.  0.
         13    1    3    3    0    0 -0.10548348600E+02  0.24662135693E+02  0.58488519259E+01  0.27453757994E+02  0.10566000000E+00 0. -1.
         13    1    4    4    0    0  0.58821102985E+00 -0.17562532504E+01 -0.62447374618E+01  0.65144706383E+01  0.10566000000E+00 0. -1.
        -13    1    4    4    0    0  0.21632944232E+01 -0.60037377967E+01 -0.16580241894E+02  0.17766268477E+02  0.10566000000E+00 0.  1.
        -14    1    4    4    0    0  0.77968431472E+01 -0.16902144646E+02 -0.49574040539E+02  0.52953363935E+02  0.00000000000E+00 0.  1.
<mgrwt>
<rscale>  0 0.80812273E+02</rscale>
<asrwt>0</asrwt>
<pdfrwt beam="1">  1        1 0.29336687E-02 0.80812273E+02</pdfrwt>
<pdfrwt beam="2">  1       -2 0.13172156E-01 0.80812273E+02</pdfrwt>
<totfact> 0.10729687E+05</totfact>
</mgrwt>
</event>
<event>
 8    1  0.1372337E-024  0.7907378E+02  0.7818608E-02  0.1331701E+00
         -2   -1    0    0    0  501 -0.00000000000E+00  0.00000000000E+00  0.52314934396E+03  0.52314934397E+03  0.25500000000E-02 0.  1.
          1   -1    0    0  501    0  0.00000000000E+00 -0.00000000000E+00 -0.29879892213E+01  0.29879934720E+01  0.50400000000E-02 0. -1.
        -24    2    1    2    0    0 -0.35527136788E-14  0.71054273576E-14  0.52016135474E+03  0.52613733744E+03  0.79073781262E+02 0.  0.
         66    2    3    3    0    0  0.14882730099E+02 -0.33116156450E+02  0.36396518681E+03  0.36577702591E+03  0.20000005320E+01 0.  0.
         13    1    3    3    0    0 -0.14882730099E+02  0.33116156450E+02  0.15619616793E+03  0.16036031153E+03  0.10566000000E+00 0. -1.
         13    1    4    4    0    0  0.38091751660E+01 -0.82555444456E+01  0.95399993719E+02  0.95832321245E+02  0.10566000000E+00 0.  1.
        -13    1    4    4    0    0  0.24668313813E+01 -0.48066826682E+01  0.58466638057E+02  0.58715827381E+02  0.10566000000E+00 0. -1.
         14    1    4    4    0    0  0.86067235515E+01 -0.20053929336E+02  0.21009855503E+03  0.21122887729E+03  0.00000000000E+00 0. -1.
<mgrwt>
<rscale>  0 0.79073781E+02</rscale>
<asrwt>0</asrwt>
<pdfrwt beam="1">  1        1 0.45969111E-03 0.79073781E+02</pdfrwt>
<pdfrwt beam="2">  1       -2 0.80484492E-01 0.79073781E+02</pdfrwt>
<totfact> 0.50129349E+04</totfact>
</mgrwt>
</event>
<event>
 8    1  0.1372337E-024  0.7809051E+02  0.7818608E-02  0.1334559E+00
          1   -1    0    0  501    0  0.00000000000E+00  0.00000000000E+00  0.19340690233E+03  0.19340690240E+03  0.50400000000E-02 0. -1.
         -2   -1    0    0    0  501 -0.00000000000E+00 -0.00000000000E+00 -0.78825103103E+01  0.78825107228E+01  0.25500000000E-02 0.  1.
        -24    2    1    2    0    0  0.35527136788E-14 -0.35527136788E-14  0.18552439202E+03  0.20128941312E+03  0.78090510303E+02 0.  0.
         66    2    3    3    0    0 -0.28404891102E+02  0.26296836496E+02  0.80151572439E+02  0.89031657401E+02  0.20000017495E+01 0.  0.
         13    1    3    3    0    0  0.28404891102E+02 -0.26296836496E+02  0.10537281958E+03  0.11225775572E+03  0.10566000000E+00 0. -1.
         13    1    4    4    0    0 -0.20246177716E+01  0.20534135257E+01  0.55660036611E+01  0.62695410534E+01  0.10566000000E+00 0. -1.
        -13    1    4    4    0    0 -0.16845352470E+02  0.15978556197E+02  0.49972591763E+02  0.55103096551E+02  0.10566000000E+00 0.  1.
        -14    1    4    4    0    0 -0.95349208605E+01  0.82648667730E+01  0.24612977015E+02  0.27659019797E+02  0.00000000000E+00 0.  1.
<mgrwt>
<rscale>  0 0.78090510E+02</rscale>
<asrwt>0</asrwt>
<pdfrwt beam="1">  1        1 0.29754908E-01 0.78090510E+02</pdfrwt>
<pdfrwt beam="2">  1       -2 0.12126939E-02 0.78090510E+02</pdfrwt>
<totfact> 0.17662572E+05</totfact>
</mgrwt>
</event>
<event>
 8    1  0.1372337E-024  0.8084189E+02  0.7818608E-02  0.1326679E+00
          1   -1    0    0  501    0  0.00000000000E+00  0.00000000000E+00  0.15017146806E+02  0.15017147651E+02  0.50400000000E-02 0. -1.
         -2   -1    0    0    0  501 -0.00000000000E+00 -0.00000000000E+00 -0.10879915872E+03  0.10879915875E+03  0.25500000000E-02 0.  1.
        -24    2    1    2    0    0  0.71054273576E-14 -0.17763568394E-14 -0.93782011914E+02  0.12381630640E+03  0.80841894907E+02 0.  0.
         66    2    3    3    0    0  0.36375425624E+02 -0.11966693605E+02 -0.66621480955E+02  0.76868687173E+02  0.19999994979E+01 0.  0.
         13    1    3    3    0    0 -0.36375425624E+02  0.11966693605E+02 -0.27160530959E+02  0.46947619228E+02  0.10566000000E+00 0. -1.
         13    1    4    4    0    0  0.65430862578E+01 -0.16745107611E+01 -0.11793742729E+02  0.13591155052E+02  0.10566000000E+00 0. -1.
        -13    1    4    4    0    0  0.22083692357E+02 -0.72164955866E+01 -0.39322270144E+02  0.45672961038E+02  0.10566000000E+00 0.  1.
         14    1    4    4    0    0  0.77486470090E+01 -0.30756872571E+01 -0.15505468083E+02  0.17604571084E+02  0.00000000000E+00 0. -1.
<mgrwt>
<rscale>  0 0.80841895E+02</rscale>
<asrwt>0</asrwt>
<pdfrwt beam="1">  1        1 0.23103304E-02 0.80841895E+02</pdfrwt>
<pdfrwt beam="2">  1       -2 0.16738332E-01 0.80841895E+02</pdfrwt>
<totfact> 0.10111749E+05</totfact>
</mgrwt>
</event>
<event>
 8    1  0.1372337E-024  0.7913538E+02  0.7818608E-02  0.1331523E+00
         -2   -1    0    0    0  501 -0.00000000000E+00  0.00000000000E+00  0.16737688515E+02  0.16737688709E+02  0.25500000000E-02 0.  1.
          1   -1    0    0  501    0  0.00000000000E+00 -0.00000000000E+00 -0.93537536774E+02  0.93537536909E+02  0.50400000000E-02 0. -1.
        -24    2    1    2    0    0 -0.88817841970E-15  0.35527136788E-14 -0.76799848259E+02  0.11027522562E+03  0.79135382053E+02 0.  0.
         66    2    3    3    0    0  0.49708598739E+01  0.17686283534E+02  0.10369706007E+02  0.21190679101E+02  0.20000012401E+01 0.  0.
         13    1    3    3    0    0 -0.49708598739E+01 -0.17686283534E+02 -0.87169554266E+02  0.89084546517E+02  0.10566000000E+00 0. -1.
         13    1    4    4    0    0  0.10794069565E+01  0.59805456218E+01  0.37204873830E+01  0.71263760576E+01  0.10566000000E+00 0. -1.
        -13    1    4    4    0    0  0.95052948116E+00  0.27421410594E+01  0.21452561993E+01  0.36105584167E+01  0.10566000000E+00 0.  1.
        -14    1    4    4    0    0  0.29409234363E+01  0.89635968531E+01  0.45039624252E+01  0.10453744627E+02  0.00000000000E+00 0.  1.
<mgrwt>
<rscale>  0 0.79135382E+02</rscale>
<asrwt>0</asrwt>
<pdfrwt beam="1">  1        1 0.14390390E-01 0.79135382E+02</pdfrwt>
<pdfrwt beam="2">  1       -2 0.25750291E-02 0.79135382E+02</pdfrwt>
<totfact> 0.14969884E+05</totfact>
</mgrwt>
</event>
<event>
 8    1  0.1372337E-024  0.8056547E+02  0.7818608E-02  0.1327454E+00
         -2   -1    0    0    0  501 -0.00000000000E+00  0.00000000000E+00  0.20633922224E+02  0.20633922381E+02  0.25500000000E-02 0.  1.
          1   -1    0    0  501    0  0.00000000000E+00 -0.00000000000E+00 -0.78642284341E+02  0.78642284503E+02  0.50400000000E-02 0. -1.
        -24    2    1    2    0    0  0.35527136788E-14  0.88817841970E-15 -0.58008362118E+02  0.99276206884E+02  0.80565471374E+02 0.  0.
         66    2    3    3    0    0 -0.31603177978E+02 -0.54702778700E+01  0.95998023319E+00  0.32149748897E+02  0.19999984572E+01 0.  0.
         13    1    3    3    0    0  0.31603177978E+02  0.54702778700E+01 -0.58968342351E+02  0.67126457987E+02  0.10566000000E+00 0. -1.
         13    1    4    4    0    0 -0.54315425398E+01 -0.42794732329E+00  0.48820091403E+00  0.54712244919E+01  0.10566000000E+00 0. -1.
        -13    1    4    4    0    0 -0.11898384405E+02 -0.21448633856E+01  0.71990734057E+00  0.12112036204E+02  0.10566000000E+00 0.  1.
         14    1    4    4    0    0 -0.14273251033E+02 -0.28974671611E+01 -0.24812802140E+00  0.14566488201E+02  0.00000000000E+00 0. -1.
<mgrwt>
<rscale>  0 0.80565471E+02</rscale>
<asrwt>0</asrwt>
<pdfrwt beam="1">  1        1 0.12098813E-01 0.80565471E+02</pdfrwt>
<pdfrwt beam="2">  1       -2 0.31744496E-02 0.80565471E+02</pdfrwt>
<totfact> 0.13861605E+05</totfact>
</mgrwt>
</event>
<event>
 8    1  0.1372337E-024  0.7982409E+02  0.7818608E-02  0.1329551E+00
          1   -1    0    0  501    0  0.00000000000E+00  0.00000000000E+00  0.18698965620E+02  0.18698966299E+02  0.50400000000E-02 0. -1.
         -2   -1    0    0    0  501 -0.00000000000E+00 -0.00000000000E+00 -0.85190340340E+02  0.85190340378E+02  0.25500000000E-02 0.  1.
        -24    2    1    2    0    0 -0.17763568394E-14  0.00000000000E+00 -0.66491374720E+02  0.10388930668E+03  0.79824088656E+02 0.  0.
         66    2    3    3    0    0  0.14723997373E+02  0.36995593284E+02 -0.30215289697E+02  0.50024331696E+02  0.20000022784E+01 0.  0.
         13    1    3    3    0    0 -0.14723997373E+02 -0.36995593284E+02 -0.36276085024E+02  0.53864974981E+02  0.10566000000E+00 0. -1.
         13    1    4    4    0    0  0.76738806010E+01  0.17277146458E+02 -0.14004353833E+02  0.23527033887E+02  0.10566000000E+00 0. -1.
        -13    1    4    4    0    0  0.57723033770E+01  0.15361909790E+02 -0.12378331299E+02  0.20555826630E+02  0.10566000000E+00 0.  1.
         14    1    4    4    0    0  0.12778133955E+01  0.43565370360E+01 -0.38326045648E+01  0.59414711789E+01  0.00000000000E+00 0. -1.
<mgrwt>
<rscale>  0 0.79824089E+02</rscale>
<asrwt>0</asrwt>
<pdfrwt beam="1">  1        1 0.28767641E-02 0.79824089E+02</pdfrwt>
<pdfrwt beam="2">  1       -2 0.13106206E-01 0.79824089E+02</pdfrwt>
<totfact> 0.11084476E+05</totfact>
</mgrwt>
</event>
<event>
 8    1  0.1372337E-024  0.7699406E+02  0.7818608E-02  0.1337805E+00
         -2   -1    0    0    0  501 -0.00000000000E+00  0.00000000000E+00  0.74862434533E+02  0.74862434577E+02  0.25500000000E-02 0.  1.
          1   -1    0    0  501    0  0.00000000000E+00 -0.00000000000E+00 -0.19796597105E+02  0.19796597746E+02  0.50400000000E-02 0. -1.
        -24    2    1    2    0    0  0.00000000000E+00  0.00000000000E+00  0.55065837429E+02  0.94659032323E+02  0.76994064372E+02 0.  0.
         66    2    3    3    0    0  0.19966024437E+02  0.32812216127E+02  0.24876779368E+02  0.45805434199E+02  0.19999978612E+01 0.  0.
         13    1    3    3    0    0 -0.19966024437E+02 -0.32812216127E+02  0.30189058060E+02  0.48853598123E+02  0.10566000000E+00 0. -1.
         13    1    4    4    0    0  0.41407018919E+01  0.71084521290E+01  0.59046643434E+01  0.10126782750E+02  0.10566000000E+00 0. -1.
        -13    1    4    4    0    0  0.15445429700E+02  0.24853181935E+02  0.18131564552E+02  0.34423926971E+02  0.10566000000E+00 0.  1.
         14    1    4    4    0    0  0.37989284483E+00  0.85058206303E+00  0.84055047264E+00  0.12547244783E+01  0.00000000000E+00 0. -1.
<mgrwt>
<rscale>  0 0.76994064E+02</rscale>
<asrwt>0</asrwt>
<pdfrwt beam="1">  1        1 0.30456304E-02 0.76994064E+02</pdfrwt>
<pdfrwt beam="2">  1       -2 0.11517298E-01 0.76994064E+02</pdfrwt>
<totfact> 0.12493884E+05</totfact>
</mgrwt>
</event>
<event>
 8    1  0.1372337E-024  0.8047288E+02  0.7818608E-02  0.1327715E+00
         -2   -1    0    0    0  501 -0.00000000000E+00  0.00000000000E+00  0.30577914770E+03  0.30577914771E+03  0.25500000000E-02 0.  1.
          1   -1    0    0  501    0  0.00000000000E+00 -0.00000000000E+00 -0.52945755226E+01  0.52945779214E+01  0.50400000000E-02 0. -1.
        -24    2    1    2    0    0  0.35527136788E-14  0.00000000000E+00  0.30048457218E+03  0.31107372563E+03  0.80472881531E+02 0.  0.
         66    2    3    3    0    0  0.25472442372E+02 -0.13478659111E+01  0.27049780956E+03  0.27170522097E+03  0.20000160256E+01 0.  0.
         13    1    3    3    0    0 -0.25472442372E+02  0.13478659111E+01  0.29986762621E+02  0.39368504663E+02  0.10566000000E+00 0. -1.
         13    1    4    4    0    0  0.19794766141E+01 -0.42024018349E+00  0.20280304950E+02  0.20381287063E+02  0.10566000000E+00 0. -1.
        -13    1    4    4    0    0  0.87685692877E+01  0.79346656363E-01  0.99303430277E+02  0.99689901856E+02  0.10566000000E+00 0.  1.
        -14    1    4    4    0    0  0.14724396470E+02 -0.10069723839E+01  0.15091407433E+03  0.15163403205E+03  0.00000000000E+00 0.  1.
<mgrwt>
<rscale>  0 0.80472882E+02</rscale>
<asrwt>0</asrwt>
<pdfrwt beam="1">  1        1 0.81455016E-03 0.80472882E+02</pdfrwt>
<pdfrwt beam="2">  1       -2 0.47042952E-01 0.80472882E+02</pdfrwt>
<totfact> 0.68488268E+04</totfact>
</mgrwt>
</event>
<event>
 8    1  0.1372337E-024  0.8014295E+02  0.7818608E-02  0.1328646E+00
          1   -1    0    0  501    0  0.00000000000E+00  0.00000000000E+00  0.76160338052E+01  0.76160354728E+01  0.50400000000E-02 0. -1.
         -2   -1    0    0    0  501 -0.00000000000E+00 -0.00000000000E+00 -0.21083454708E+03  0.21083454709E+03  0.25500000000E-02 0.  1.
        -24    2    1    2    0    0 -0.22204460493E-15  0.00000000000E+00 -0.20321851327E+03  0.21845058257E+03  0.80142952820E+02 0.  0.
         66    2    3    3    0    0  0.10075472549E+01  0.39753621982E+02 -0.88785357451E+02  0.97304703860E+02  0.20000208464E+01 0.  0.
         13    1    3    3    0    0 -0.10075472549E+01 -0.39753621982E+02 -0.11443315582E+03  0.12114587871E+03  0.10566000000E+00 0. -1.
         13    1    4    4    0    0  0.84967955116E+00  0.11888803416E+02 -0.25785842246E+02  0.28407506515E+02  0.10566000000E+00 0. -1.
        -13    1    4    4    0    0  0.39034204427E+00  0.20465702766E+02 -0.47344980008E+02  0.51580574372E+02  0.10566000000E+00 0.  1.
        -14    1    4    4    0    0 -0.23247434049E+00  0.73991158008E+01 -0.15654535197E+02  0.17316622973E+02  0.00000000000E+00 0.  1.
<mgrwt>
<rscale>  0 0.80142953E+02</rscale>
<asrwt>0</asrwt>
<pdfrwt beam="1">  1        1 0.11716978E-02 0.80142953E+02</pdfrwt>
<pdfrwt beam="2">  1       -2 0.32436080E-01 0.80142953E+02</pdfrwt>
<totfact> 0.82857631E+04</totfact>
</mgrwt>
</event>
<event>
 8    1  0.1372337E-024  0.8584542E+02  0.7818608E-02  0.1313236E+00
         -2   -1    0    0    0  501 -0.00000000000E+00  0.00000000000E+00  0.26467666846E+03  0.26467666847E+03  0.25500000000E-02 0.  1.
          1   -1    0    0  501    0  0.00000000000E+00 -0.00000000000E+00 -0.69607910739E+01  0.69607928985E+01  0.50400000000E-02 0. -1.
        -24    2    1    2    0    0 -0.35527136788E-14 -0.71054273576E-14  0.25771587738E+03  0.27163746137E+03  0.85845424822E+02 0.  0.
         66    2    3    3    0    0 -0.14486472092E+02 -0.38508730245E+02  0.90488208575E+02  0.99422814610E+02  0.19999987970E+01 0.  0.
         13    1    3    3    0    0  0.14486472092E+02  0.38508730245E+02  0.16722766881E+03  0.17221464676E+03  0.10566000000E+00 0. -1.
         13    1    4    4    0    0 -0.45202192157E+00 -0.77113929747E+00  0.18729209243E+01  0.20779741236E+01  0.10566000000E+00 0. -1.
        -13    1    4    4    0    0 -0.12838945437E+02 -0.34038124042E+02  0.79027981153E+02  0.86999226303E+02  0.10566000000E+00 0.  1.
        -14    1    4    4    0    0 -0.11955047332E+01 -0.36994669050E+01  0.95873064979E+01  0.10345614183E+02  0.00000000000E+00 0.  1.
<mgrwt>
<rscale>  0 0.85845425E+02</rscale>
<asrwt>0</asrwt>
<pdfrwt beam="1">  1        1 0.10708912E-02 0.85845425E+02</pdfrwt>
<pdfrwt beam="2">  1       -2 0.40719483E-01 0.85845425E+02</pdfrwt>
<totfact> 0.62485300E+04</totfact>
</mgrwt>
</event>
<event>
 8    1  0.1372337E-024  0.7622070E+02  0.7818608E-02  0.1340132E+00
         -2   -1    0    0    0  501 -0.00000000000E+00  0.00000000000E+00  0.74805526896E+02  0.74805526940E+02  0.25500000000E-02 0.  1.
          1   -1    0    0  501    0  0.00000000000E+00 -0.00000000000E+00 -0.19415661078E+02  0.19415661733E+02  0.50400000000E-02 0. -1.
        -24    2    1    2    0    0  0.00000000000E+00  0.00000000000E+00  0.55389865818E+02  0.94221188672E+02  0.76220700335E+02 0.  0.
         66    2    3    3    0    0  0.78234572316E+01  0.34344839715E+02  0.45611407047E+02  0.57664329972E+02  0.20000000475E+01 0.  0.
         13    1    3    3    0    0 -0.78234572316E+01 -0.34344839715E+02  0.97784587704E+01  0.36556858700E+02  0.10566000000E+00 0. -1.
         13    1    4    4    0    0  0.40465657996E+01  0.17876168301E+02  0.22978385016E+02  0.29393016685E+02  0.10566000000E+00 0. -1.
        -13    1    4    4    0    0  0.37782644049E+01  0.15683994379E+02  0.21871422612E+02  0.27177808092E+02  0.10566000000E+00 0.  1.
         14    1    4    4    0    0 -0.13729729774E-02  0.78467703519E+00  0.76159941941E+00  0.10935051944E+01  0.00000000000E+00 0. -1.
<mgrwt>
<rscale>  0 0.76220700E+02</rscale>
<asrwt>0</asrwt>
<pdfrwt beam="1">  1        1 0.29870249E-02 0.76220700E+02</pdfrwt>
<pdfrwt beam="2">  1       -2 0.11508542E-01 0.76220700E+02</pdfrwt>
<totfact> 0.12820560E+05</totfact>
</mgrwt>
</event>
<event>
 8    1  0.1372337E-024  0.8181428E+02  0.7818608E-02  0.1323980E+00
         -2   -1    0    0    0  501 -0.00000000000E+00  0.00000000000E+00  0.70536898990E+02  0.70536899036E+02  0.25500000000E-02 0.  1.
          1   -1    0    0  501    0  0.00000000000E+00 -0.00000000000E+00 -0.23723671364E+02  0.23723671900E+02  0.50400000000E-02 0. -1.
        -24    2    1    2    0    0 -0.17763568394E-14 -0.71054273576E-14  0.46813227626E+02  0.94260570936E+02  0.81814283303E+02 0.  0.
         66    2    3    3    0    0  0.15639378666E+02  0.32073370613E+02  0.46408282639E+02  0.58574909782E+02  0.20000227193E+01 0.  0.
         13    1    3    3    0    0 -0.15639378666E+02 -0.32073370613E+02  0.40494498673E+00  0.35685661154E+02  0.10566000000E+00 0. -1.
         13    1    4    4    0    0  0.57032701775E+01  0.10315582457E+02  0.15778508118E+02  0.19695456700E+02  0.10566000000E+00 0. -1.
        -13    1    4    4    0    0  0.88815574967E+01  0.18688092294E+02  0.26834990100E+02  0.33885907319E+02  0.10566000000E+00 0.  1.
         14    1    4    4    0    0  0.10545509920E+01  0.30696958622E+01  0.37947844204E+01  0.49935457621E+01  0.00000000000E+00 0. -1.
<mgrwt>
<rscale>  0 0.81814283E+02</rscale>
<asrwt>0</asrwt>
<pdfrwt beam="1">  1        1 0.36497957E-02 0.81814283E+02</pdfrwt>
<pdfrwt beam="2">  1       -2 0.10851831E-01 0.81814283E+02</pdfrwt>
<totfact> 0.10837899E+05</totfact>
</mgrwt>
</event>
<event>
 8    1  0.1372337E-024  0.8120069E+02  0.7818608E-02  0.1325678E+00
         -2   -1    0    0    0  501 -0.00000000000E+00  0.00000000000E+00  0.51448420120E+02  0.51448420183E+02  0.25500000000E-02 0.  1.
          1   -1    0    0  501    0  0.00000000000E+00 -0.00000000000E+00 -0.32039622979E+02  0.32039623375E+02  0.50400000000E-02 0. -1.
        -24    2    1    2    0    0 -0.35527136788E-14  0.71054273576E-14  0.19408797141E+02  0.83488043558E+02  0.81200689718E+02 0.  0.
         66    2    3    3    0    0 -0.22843633258E+02  0.32337586745E+02  0.58142835202E+00  0.39647057296E+02  0.19999990886E+01 0.  0.
         13    1    3    3    0    0  0.22843633258E+02 -0.32337586745E+02  0.18827368789E+02  0.43840986262E+02  0.10566000000E+00 0. -1.
         13    1    4    4    0    0 -0.11200151514E+02  0.14982900330E+02 -0.40149725486E+00  0.18711041134E+02  0.10566000000E+00 0.  1.
        -13    1    4    4    0    0 -0.88040630208E+01  0.13019908617E+02  0.10631743705E+01  0.15753445650E+02  0.10566000000E+00 0. -1.
         14    1    4    4    0    0 -0.28394187225E+01  0.43347777986E+01 -0.80248763576E-01  0.51825705117E+01  0.00000000000E+00 0. -1.
<mgrwt>
<rscale>  0 0.81200690E+02</rscale>
<asrwt>0</asrwt>
<pdfrwt beam="1">  1        1 0.49291729E-02 0.81200690E+02</pdfrwt>
<pdfrwt beam="2">  1       -2 0.79151415E-02 0.81200690E+02</pdfrwt>
<totfact> 0.11723673E+05</totfact>
</mgrwt>
</event>
<event>
 8    1  0.1372337E-024  0.7964195E+02  0.7818608E-02  0.1330071E+00
          1   -1    0    0  501    0  0.00000000000E+00  0.00000000000E+00  0.29606627032E+03  0.29606627036E+03  0.50400000000E-02 0. -1.
         -2   -1    0    0    0  501 -0.00000000000E+00 -0.00000000000E+00 -0.53559285158E+01  0.53559291228E+01  0.25500000000E-02 0.  1.
        -24    2    1    2    0    0  0.35527136788E-14 -0.35527136788E-14  0.29071034180E+03  0.30142219948E+03  0.79641945674E+02 0.  0.
         66    2    3    3    0    0 -0.16249592365E+02  0.31785349789E+02  0.78879966293E+02  0.86604889041E+02  0.20000025728E+01 0.  0.
         13    1    3    3    0    0  0.16249592365E+02 -0.31785349789E+02  0.21183037551E+03  0.21481731044E+03  0.10566000000E+00 0. -1.
         13    1    4    4    0    0 -0.77083184831E+00  0.87515672406E+00  0.29409958024E+01  0.31655491428E+01  0.10566000000E+00 0.  1.
        -13    1    4    4    0    0 -0.45164086774E+01  0.96049820557E+01  0.23241402659E+02  0.25550490978E+02  0.10566000000E+00 0. -1.
        -14    1    4    4    0    0 -0.10962351839E+02  0.21305211009E+02  0.52697567831E+02  0.57888848920E+02  0.00000000000E+00 0.  1.
<mgrwt>
<rscale>  0 0.79641946E+02</rscale>
<asrwt>0</asrwt>
<pdfrwt beam="1">  1        1 0.45548651E-01 0.79641946E+02</pdfrwt>
<pdfrwt beam="2">  1       -2 0.82398916E-03 0.79641946E+02</pdfrwt>
<totfact> 0.18210327E+05</totfact>
</mgrwt>
</event>
<event>
 8    1  0.1372337E-024  0.8115195E+02  0.7818608E-02  0.1325814E+00
         -2   -1    0    0    0  501 -0.00000000000E+00  0.00000000000E+00  0.28424619376E+02  0.28424619490E+02  0.25500000000E-02 0.  1.
          1   -1    0    0  501    0  0.00000000000E+00 -0.00000000000E+00 -0.57921960953E+02  0.57921961172E+02  0.50400000000E-02 0. -1.
        -24    2    1    2    0    0  0.00000000000E+00 -0.71054273576E-14 -0.29497341577E+02  0.86346580662E+02  0.81151949033E+02 0.  0.
         66    2    3    3    0    0 -0.10321983371E+02 -0.34586689146E+02  0.49085444082E+01  0.36481176209E+02  0.20000006653E+01 0.  0.
         13    1    3    3    0    0  0.10321983371E+02  0.34586689146E+02 -0.34405885985E+02  0.49865404453E+02  0.10566000000E+00 0. -1.
         13    1    4    4    0    0 -0.37455890401E+01 -0.13815530978E+02  0.27692840010E+01  0.14580069662E+02  0.10566000000E+00 0. -1.
        -13    1    4    4    0    0 -0.26853190734E+01 -0.87945476105E+01  0.11876341126E+01  0.92723591939E+01  0.10566000000E+00 0.  1.
         14    1    4    4    0    0 -0.38910752573E+01 -0.11976610557E+02  0.95162629453E+00  0.12628747353E+02  0.00000000000E+00 0. -1.
<mgrwt>
<rscale>  0 0.81151949E+02</rscale>
<asrwt>0</asrwt>
<pdfrwt beam="1">  1        1 0.89110710E-02 0.81151949E+02</pdfrwt>
<pdfrwt beam="2">  1       -2 0.43730184E-02 0.81151949E+02</pdfrwt>
<totfact> 0.12942216E+05</totfact>
</mgrwt>
</event>
<event>
 8    1  0.1372337E-024  0.8065502E+02  0.7818608E-02  0.1327203E+00
          1   -1    0    0  501    0  0.00000000000E+00  0.00000000000E+00  0.19018828561E+02  0.19018829229E+02  0.50400000000E-02 0. -1.
         -2   -1    0    0    0  501 -0.00000000000E+00 -0.00000000000E+00 -0.85510415841E+02  0.85510415879E+02  0.25500000000E-02 0.  1.
        -24    2    1    2    0    0  0.00000000000E+00  0.00000000000E+00 -0.66491587279E+02  0.10452924511E+03  0.80655017847E+02 0.  0.
         66    2    3    3    0    0 -0.12787697011E+02  0.38217399762E+02 -0.33857489148E+02  0.52672805158E+02  0.19999980749E+01 0.  0.
         13    1    3    3    0    0  0.12787697011E+02 -0.38217399762E+02 -0.32634098131E+02  0.51856439950E+02  0.10566000000E+00 0. -1.
         13    1    4    4    0    0 -0.82965135860E-01  0.86273445899E+00 -0.71199974474E+00  0.11266328739E+01  0.10566000000E+00 0. -1.
        -13    1    4    4    0    0 -0.69283626970E+01  0.21771938016E+02 -0.19745125974E+02  0.30197692932E+02  0.10566000000E+00 0.  1.
         14    1    4    4    0    0 -0.57763691786E+01  0.15582727287E+02 -0.13400363429E+02  0.21348479352E+02  0.00000000000E+00 0. -1.
<mgrwt>
<rscale>  0 0.80655018E+02</rscale>
<asrwt>0</asrwt>
<pdfrwt beam="1">  1        1 0.29259738E-02 0.80655018E+02</pdfrwt>
<pdfrwt beam="2">  1       -2 0.13155448E-01 0.80655018E+02</pdfrwt>
<totfact> 0.10786263E+05</totfact>
</mgrwt>
</event>
<event>
 8    1  0.1372337E-024  0.8476315E+02  0.7818608E-02  0.1316053E+00
         -2   -1    0    0    0  501 -0.00000000000E+00  0.00000000000E+00  0.47749284794E+02  0.47749284862E+02  0.25500000000E-02 0.  1.
          1   -1    0    0  501    0  0.00000000000E+00 -0.00000000000E+00 -0.37617270817E+02  0.37617271155E+02  0.50400000000E-02 0. -1.
        -24    2    1    2    0    0  0.35527136788E-14  0.00000000000E+00  0.10132013977E+02  0.85366556016E+02  0.84763147528E+02 0.  0.
         66    2    3    3    0    0 -0.24276337004E+02  0.87592314162E+01  0.38895539632E+02  0.46721811930E+02  0.20000083507E+01 0.  0.
         13    1    3    3    0    0  0.24276337004E+02 -0.87592314162E+01 -0.28763525656E+02  0.38644744087E+02  0.10566000000E+00 0. -1.
         13    1    4    4    0    0 -0.35339597683E+01  0.17334304848E+01  0.66051432441E+01  0.76897811542E+01  0.10566000000E+00 0. -1.
        -13    1    4    4    0    0 -0.18426368366E+02  0.58787200577E+01  0.28635167069E+02  0.34555381025E+02  0.10566000000E+00 0.  1.
        -14    1    4    4    0    0 -0.23160088698E+01  0.11470808737E+01  0.36552293188E+01  0.44766497505E+01  0.00000000000E+00 0.  1.
<mgrwt>
<rscale>  0 0.84763148E+02</rscale>
<asrwt>0</asrwt>
<pdfrwt beam="1">  1        1 0.57872725E-02 0.84763148E+02</pdfrwt>
<pdfrwt beam="2">  1       -2 0.73460438E-02 0.84763148E+02</pdfrwt>
<totfact> 0.10663355E+05</totfact>
</mgrwt>
</event>
<event>
 8    1  0.1372337E-024  0.7889182E+02  0.7818608E-02  0.1332226E+00
         -2   -1    0    0    0  501 -0.00000000000E+00  0.00000000000E+00  0.21594688064E+02  0.21594688214E+02  0.25500000000E-02 0.  1.
          1   -1    0    0  501    0  0.00000000000E+00 -0.00000000000E+00 -0.72053818256E+02  0.72053818432E+02  0.50400000000E-02 0. -1.
        -24    2    1    2    0    0  0.00000000000E+00  0.00000000000E+00 -0.50459130192E+02  0.93648506646E+02  0.78891818190E+02 0.  0.
         66    2    3    3    0    0  0.15597839244E+02  0.34024590573E+02 -0.10562287548E+02  0.38942615101E+02  0.19999999797E+01 0.  0.
         13    1    3    3    0    0 -0.15597839244E+02 -0.34024590573E+02 -0.39896842644E+02  0.54705891545E+02  0.10566000000E+00 0. -1.
         13    1    4    4    0    0  0.10555915948E+01  0.23891389930E+01 -0.61871016351E+00  0.26863032303E+01  0.10566000000E+00 0. -1.
        -13    1    4    4    0    0  0.11473398544E+02  0.26286542368E+02 -0.77384436243E+01  0.29707168454E+02  0.10566000000E+00 0.  1.
        -14    1    4    4    0    0  0.30688491055E+01  0.53489092126E+01 -0.22051337599E+01  0.65491434170E+01  0.00000000000E+00 0.  1.
<mgrwt>
<rscale>  0 0.78891818E+02</rscale>
<asrwt>0</asrwt>
<pdfrwt beam="1">  1        1 0.11085203E-01 0.78891818E+02</pdfrwt>
<pdfrwt beam="2">  1       -2 0.33222598E-02 0.78891818E+02</pdfrwt>
<totfact> 0.14475645E+05</totfact>
</mgrwt>
</event>
<event>
 8    1  0.1372337E-024  0.7837203E+02  0.7818608E-02  0.1333736E+00
          1   -1    0    0  501    0  0.00000000000E+00  0.00000000000E+00  0.53318799274E+02  0.53318799512E+02  0.50400000000E-02 0. -1.
         -2   -1    0    0    0  501 -0.00000000000E+00 -0.00000000000E+00 -0.28799292142E+02  0.28799292255E+02  0.25500000000E-02 0.  1.
        -24    2    1    2    0    0  0.00000000000E+00  0.00000000000E+00  0.24519507132E+02  0.82118091767E+02  0.78372027953E+02 0.  0.
         66    2    3    3    0    0 -0.10707895108E+02 -0.34955996323E+02 -0.24372716495E+01  0.36694972292E+02  0.20000004640E+01 0.  0.
         13    1    3    3    0    0  0.10707895108E+02  0.34955996323E+02  0.26956778782E+02  0.45423119475E+02  0.10566000000E+00 0. -1.
         13    1    4    4    0    0 -0.35268606496E+01 -0.97174524602E+01 -0.57673505281E-01  0.10338380851E+02  0.10566000000E+00 0. -1.
        -13    1    4    4    0    0 -0.49799854878E+01 -0.17223022288E+02 -0.19256539177E+01  0.18031973248E+02  0.10566000000E+00 0.  1.
        -14    1    4    4    0    0 -0.22010489704E+01 -0.80155215747E+01 -0.45394422659E+00  0.83246181922E+01  0.00000000000E+00 0.  1.
<mgrwt>
<rscale>  0 0.78372028E+02</rscale>
<asrwt>0</asrwt>
<pdfrwt beam="1">  1        1 0.82028922E-02 0.78372028E+02</pdfrwt>
<pdfrwt beam="2">  1       -2 0.44306604E-02 0.78372028E+02</pdfrwt>
<totfact> 0.14068720E+05</totfact>
</mgrwt>
</event>
<event>
 8    1  0.1372337E-024  0.7944297E+02  0.7818608E-02  0.1330640E+00
         -2   -1    0    0    0  501 -0.00000000000E+00  0.00000000000E+00  0.11655533496E+03  0.11655533499E+03  0.25500000000E-02 0.  1.
          1   -1    0    0  501    0  0.00000000000E+00 -0.00000000000E+00 -0.13536886685E+02  0.13536887623E+02  0.50400000000E-02 0. -1.
        -24    2    1    2    0    0  0.00000000000E+00  0.44408920985E-15  0.10301844828E+03  0.13009222261E+03  0.79442971361E+02 0.  0.
         66    2    3    3    0    0  0.38596953287E+02  0.18838606655E+01  0.36666349727E+02  0.53307550444E+02  0.19999994873E+01 0.  0.
         13    1    3    3    0    0 -0.38596953287E+02 -0.18838606655E+01  0.66352098548E+02  0.76784672167E+02  0.10566000000E+00 0. -1.
         13    1    4    4    0    0  0.24125448653E+01  0.61429977115E-02  0.25033771106E+01  0.34782857066E+01  0.10566000000E+00 0. -1.
        -13    1    4    4    0    0  0.13875568520E+01 -0.17925778591E+00  0.10670610335E+01  0.17627338586E+01  0.10566000000E+00 0.  1.
        -14    1    4    4    0    0  0.34796851570E+02  0.20569754537E+01  0.33095911583E+02  0.48066530878E+02  0.00000000000E+00 0.  1.
<mgrwt>
<rscale>  0 0.79442971E+02</rscale>
<asrwt>0</asrwt>
<pdfrwt beam="1">  1        1 0.20825979E-02 0.79442971E+02</pdfrwt>
<pdfrwt beam="2">  1       -2 0.17931591E-01 0.79442971E+02</pdfrwt>
<totfact> 0.10381010E+05</totfact>
</mgrwt>
</event>
<event>
 8    1  0.1372337E-024  0.8009238E+02  0.7818608E-02  0.1328789E+00
         -2   -1    0    0    0  501 -0.00000000000E+00  0.00000000000E+00  0.12408186715E+03  0.12408186718E+03  0.25500000000E-02 0.  1.
          1   -1    0    0  501    0  0.00000000000E+00 -0.00000000000E+00 -0.12924510375E+02  0.12924511358E+02  0.50400000000E-02 0. -1.
        -24    2    1    2    0    0  0.00000000000E+00  0.00000000000E+00  0.11115735678E+03  0.13700637854E+03  0.80092382871E+02 0.  0.
         66    2    3    3    0    0  0.67275329688E+01  0.35621659776E+02  0.84619466635E+02  0.92079403096E+02  0.19999989537E+01 0.  0.
         13    1    3    3    0    0 -0.67275329688E+01 -0.35621659776E+02  0.26537890141E+02  0.44926975440E+02  0.10566000000E+00 0. -1.
         13    1    4    4    0    0  0.17944280608E+01  0.86367495442E+01  0.22336244900E+02  0.24015253798E+02  0.10566000000E+00 0. -1.
        -13    1    4    4    0    0  0.31007059587E+00  0.18740293160E+01  0.49235146081E+01  0.52782847387E+01  0.10566000000E+00 0.  1.
        -14    1    4    4    0    0  0.46230343120E+01  0.25110880915E+02  0.57359707128E+02  0.62785864559E+02  0.00000000000E+00 0.  1.
<mgrwt>
<rscale>  0 0.80092383E+02</rscale>
<asrwt>0</asrwt>
<pdfrwt beam="1">  1        1 0.19883863E-02 0.80092383E+02</pdfrwt>
<pdfrwt beam="2">  1       -2 0.19089518E-01 0.80092383E+02</pdfrwt>
<totfact> 0.99892744E+04</totfact>
</mgrwt>
</event>
<event>
 8    1  0.1372337E-024  0.8001218E+02  0.7818608E-02  0.1329017E+00
         -2   -1    0    0    0  501 -0.00000000000E+00  0.00000000000E+00  0.24991063661E+01  0.24991076670E+01  0.25500000000E-02 0.  1.
          1   -1    0    0  501    0  0.00000000000E+00 -0.00000000000E+00 -0.64042371379E+03  0.64042371381E+03  0.50400000000E-02 0. -1.
        -24    2    1    2    0    0  0.00000000000E+00 -0.35527136788E-14 -0.63792460742E+03  0.64292282148E+03  0.80012184190E+02 0.  0.
         66    2    3    3    0    0 -0.21385677563E+02 -0.31376637495E+02 -0.41972830158E+03  0.42144713515E+03  0.19999986914E+01 0.  0.
         13    1    3    3    0    0  0.21385677563E+02  0.31376637495E+02 -0.21819630584E+03  0.22147568632E+03  0.10566000000E+00 0. -1.
         13    1    4    4    0    0 -0.31442308937E+01 -0.53380965866E+01 -0.68379068751E+02  0.68659228589E+02  0.10566000000E+00 0. -1.
        -13    1    4    4    0    0 -0.14580398644E+01 -0.15220579400E+01 -0.21563251078E+02  0.21666275677E+02  0.10566000000E+00 0.  1.
        -14    1    4    4    0    0 -0.16783406805E+02 -0.24516482969E+02 -0.32978598175E+03  0.33112163089E+03  0.00000000000E+00 0.  1.
<mgrwt>
<rscale>  0 0.80012184E+02</rscale>
<asrwt>0</asrwt>
<pdfrwt beam="1">  1        1 0.98526595E-01 0.80012184E+02</pdfrwt>
<pdfrwt beam="2">  1       -2 0.38447851E-03 0.80012184E+02</pdfrwt>
<totfact> 0.19988955E+05</totfact>
</mgrwt>
</event>
<event>
 8    1  0.1372337E-024  0.7796952E+02  0.7818608E-02  0.1334914E+00
          1   -1    0    0  501    0  0.00000000000E+00  0.00000000000E+00  0.24488134216E+03  0.24488134221E+03  0.50400000000E-02 0. -1.
         -2   -1    0    0    0  501 -0.00000000000E+00 -0.00000000000E+00 -0.62063173939E+01  0.62063179177E+01  0.25500000000E-02 0.  1.
        -24    2    1    2    0    0 -0.35527136788E-14  0.00000000000E+00  0.23867502477E+03  0.25108766013E+03  0.77969517263E+02 0.  0.
         66    2    3    3    0    0 -0.25999640651E+02 -0.29004937341E+02  0.12177958189E+03  0.12787311784E+03  0.19999987088E+01 0.  0.
         13    1    3    3    0    0  0.25999640651E+02  0.29004937341E+02  0.11689544287E+03  0.12321454229E+03  0.10566000000E+00 0. -1.
         13    1    4    4    0    0 -0.25650728735E+01 -0.24233642418E+01  0.12606315202E+02  0.13091319266E+02  0.10566000000E+00 0. -1.
        -13    1    4    4    0    0 -0.14439774950E+02 -0.15987104607E+02  0.66342123437E+02  0.69752298316E+02  0.10566000000E+00 0.  1.
         14    1    4    4    0    0 -0.89947928278E+01 -0.10594468493E+02  0.42831143255E+02  0.45029500255E+02  0.00000000000E+00 0. -1.
<mgrwt>
<rscale>  0 0.77969517E+02</rscale>
<asrwt>0</asrwt>
<pdfrwt beam="1">  1        1 0.37674052E-01 0.77969517E+02</pdfrwt>
<pdfrwt beam="2">  1       -2 0.95481812E-03 0.77969517E+02</pdfrwt>
<totfact> 0.18564027E+05</totfact>
</mgrwt>
</event>
<event>
 8    1  0.1372337E-024  0.8107293E+02  0.7818608E-02  0.1326034E+00
          1   -1    0    0  501    0  0.00000000000E+00  0.00000000000E+00  0.16302031589E+02  0.16302032368E+02  0.50400000000E-02 0. -1.
         -2   -1    0    0    0  501 -0.00000000000E+00 -0.00000000000E+00 -0.10079756091E+03  0.10079756094E+03  0.25500000000E-02 0.  1.
        -24    2    1    2    0    0 -0.35527136788E-14  0.00000000000E+00 -0.84495529319E+02  0.11709959331E+03  0.81072931847E+02 0.  0.
         66    2    3    3    0    0  0.30131902695E+02 -0.16115503779E+02 -0.73705010566E+02  0.81265426917E+02  0.20000018610E+01 0.  0.
         13    1    3    3    0    0 -0.30131902695E+02  0.16115503779E+02 -0.10790518753E+02  0.35834166392E+02  0.10566000000E+00 0. -1.
         13    1    4    4    0    0  0.18273861269E+01 -0.96889817380E+00 -0.35713457007E+01  0.41284110597E+01  0.10566000000E+00 0. -1.
        -13    1    4    4    0    0  0.14143073670E+02 -0.75305374125E+01 -0.33933938918E+02  0.37526775789E+02  0.10566000000E+00 0.  1.
        -14    1    4    4    0    0  0.14161442897E+02 -0.76160681923E+01 -0.36199725947E+02  0.39610240069E+02  0.00000000000E+00 0.  1.
<mgrwt>
<rscale>  0 0.81072932E+02</rscale>
<asrwt>0</asrwt>
<pdfrwt beam="1">  1        1 0.25080050E-02 0.81072932E+02</pdfrwt>
<pdfrwt beam="2">  1       -2 0.15507317E-01 0.81072932E+02</pdfrwt>
<totfact> 0.10236593E+05</totfact>
</mgrwt>
</event>
<event>
 8    1  0.1372337E-024  0.7894160E+02  0.7818608E-02  0.1332082E+00
         -2   -1    0    0    0  501 -0.00000000000E+00  0.00000000000E+00  0.46185875833E+01  0.46185882873E+01  0.25500000000E-02 0.  1.
          1   -1    0    0  501    0  0.00000000000E+00 -0.00000000000E+00 -0.33732043106E+03  0.33732043109E+03  0.50400000000E-02 0. -1.
        -24    2    1    2    0    0  0.00000000000E+00 -0.71054273576E-14 -0.33270184347E+03  0.34193901938E+03  0.78941600725E+02 0.  0.
         66    2    3    3    0    0 -0.10768414461E+02 -0.32910659162E+02 -0.24828448525E+03  0.25069554416E+03  0.20000027684E+01 0.  0.
         13    1    3    3    0    0  0.10768414461E+02  0.32910659162E+02 -0.84417358223E+02  0.91243475218E+02  0.10566000000E+00 0. -1.
         13    1    4    4    0    0 -0.30899678274E+01 -0.10876891113E+02 -0.77616635105E+02  0.78436011312E+02  0.10566000000E+00 0. -1.
        -13    1    4    4    0    0 -0.35882875555E+01 -0.11438781298E+02 -0.90934076896E+02  0.91720984677E+02  0.10566000000E+00 0.  1.
         14    1    4    4    0    0 -0.40901590780E+01 -0.10594986751E+02 -0.79733773249E+02  0.80538548174E+02  0.00000000000E+00 0. -1.
<mgrwt>
<rscale>  0 0.78941601E+02</rscale>
<asrwt>0</asrwt>
<pdfrwt beam="1">  1        1 0.51895432E-01 0.78941601E+02</pdfrwt>
<pdfrwt beam="2">  1       -2 0.71055226E-03 0.78941601E+02</pdfrwt>
<totfact> 0.19097761E+05</totfact>
</mgrwt>
</event>
<event>
 8    1  0.1372337E-024  0.7968057E+02  0.7818608E-02  0.1329960E+00
         -2   -1    0    0    0  501 -0.00000000000E+00  0.00000000000E+00  0.27119705288E+02  0.27119705408E+02  0.25500000000E-02 0.  1.
          1   -1    0    0  501    0  0.00000000000E+00 -0.00000000000E+00 -0.58527490602E+02  0.58527490819E+02  0.50400000000E-02 0. -1.
        -24    2    1    2    0    0  0.35527136788E-14  0.00000000000E+00 -0.31407785314E+02  0.85647196227E+02  0.79680570048E+02 0.  0.
         66    2    3    3    0    0 -0.27033490192E+02 -0.27446981817E+02 -0.49061466031E+01  0.38887230217E+02  0.19999991581E+01 0.  0.
         13    1    3    3    0    0  0.27033490192E+02  0.27446981817E+02 -0.26501638711E+02  0.46759966010E+02  0.10566000000E+00 0. -1.
         13    1    4    4    0    0 -0.97299537449E-01 -0.20409092680E+00  0.14056387497E-01  0.24996384543E+00  0.10566000000E+00 0. -1.
        -13    1    4    4    0    0 -0.16969512982E+02 -0.16531646392E+02 -0.29386608368E+01  0.23872716536E+02  0.10566000000E+00 0.  1.
         14    1    4    4    0    0 -0.99666776731E+01 -0.10711244498E+02 -0.19815421539E+01  0.14764549835E+02  0.00000000000E+00 0. -1.
<mgrwt>
<rscale>  0 0.79680570E+02</rscale>
<asrwt>0</asrwt>
<pdfrwt beam="1">  1        1 0.90042294E-02 0.79680570E+02</pdfrwt>
<pdfrwt beam="2">  1       -2 0.41722624E-02 0.79680570E+02</pdfrwt>
<totfact> 0.13635595E+05</totfact>
</mgrwt>
</event>
<event>
 8    1  0.1372337E-024  0.7917067E+02  0.7818608E-02  0.1331422E+00
         -2   -1    0    0    0  501 -0.00000000000E+00  0.00000000000E+00  0.16031235698E+03  0.16031235700E+03  0.25500000000E-02 0.  1.
          1   -1    0    0  501    0  0.00000000000E+00 -0.00000000000E+00 -0.97746591516E+01  0.97746604509E+01  0.50400000000E-02 0. -1.
        -24    2    1    2    0    0  0.00000000000E+00  0.00000000000E+00  0.15053769783E+03  0.17008701745E+03  0.79170670314E+02 0.  0.
         66    2    3    3    0    0  0.76138844237E+01 -0.29931765261E+02  0.12842564231E+03  0.13210233671E+03  0.19999884994E+01 0.  0.
         13    1    3    3    0    0 -0.76138844237E+01  0.29931765261E+02  0.22112055517E+02  0.37984680740E+02  0.10566000000E+00 0. -1.
         13    1    4    4    0    0  0.41552900278E+01 -0.17475410108E+02  0.76614470199E+02  0.78692087287E+02  0.10566000000E+00 0.  1.
        -13    1    4    4    0    0  0.90917275893E+00 -0.49844037212E+01  0.21219963678E+02  0.21816711441E+02  0.10566000000E+00 0. -1.
         14    1    4    4    0    0  0.25494216369E+01 -0.74719514318E+01  0.30591208434E+02  0.31593537984E+02  0.00000000000E+00 0. -1.
<mgrwt>
<rscale>  0 0.79170670E+02</rscale>
<asrwt>0</asrwt>
<pdfrwt beam="1">  1        1 0.15037939E-02 0.79170670E+02</pdfrwt>
<pdfrwt beam="2">  1       -2 0.24663439E-01 0.79170670E+02</pdfrwt>
<totfact> 0.94932236E+04</totfact>
</mgrwt>
</event>
<event>
 8    1  0.1372337E-024  0.7889279E+02  0.7818608E-02  0.1332223E+00
          1   -1    0    0  501    0  0.00000000000E+00  0.00000000000E+00  0.21863294082E+03  0.21863294088E+03  0.50400000000E-02 0. -1.
         -2   -1    0    0    0  501 -0.00000000000E+00 -0.00000000000E+00 -0.71170337277E+01  0.71170341845E+01  0.25500000000E-02 0.  1.
        -24    2    1    2    0    0  0.00000000000E+00  0.00000000000E+00  0.21151590709E+03  0.22574997506E+03  0.78892789833E+02 0.  0.
         66    2    3    3    0    0 -0.81172659344E+01  0.38433694112E+02  0.11530507815E+03  0.12182897805E+03  0.19999993155E+01 0.  0.
         13    1    3    3    0    0  0.81172659344E+01 -0.38433694112E+02  0.96210828945E+02  0.10392099701E+03  0.10566000000E+00 0. -1.
         13    1    4    4    0    0 -0.34641678539E+01  0.16607372517E+02  0.50280697915E+02  0.53065667128E+02  0.10566000000E+00 0. -1.
        -13    1    4    4    0    0 -0.16916568813E+01  0.11417250029E+02  0.33905723668E+02  0.35816540351E+02  0.10566000000E+00 0.  1.
         14    1    4    4    0    0 -0.29614411992E+01  0.10409071566E+02  0.31118656563E+02  0.32946770572E+02  0.00000000000E+00 0. -1.
<mgrwt>
<rscale>  0 0.78892790E+02</rscale>
<asrwt>0</asrwt>
<pdfrwt beam="1">  1        1 0.33635838E-01 0.78892790E+02</pdfrwt>
<pdfrwt beam="2">  1       -2 0.10949283E-02 0.78892790E+02</pdfrwt>
<totfact> 0.17603515E+05</totfact>
</mgrwt>
</event>
<event>
 8    1  0.1372337E-024  0.7988351E+02  0.7818608E-02  0.1329382E+00
          1   -1    0    0  501    0  0.00000000000E+00  0.00000000000E+00  0.51130356932E+03  0.51130356934E+03  0.50400000000E-02 0. -1.
         -2   -1    0    0    0  501 -0.00000000000E+00 -0.00000000000E+00 -0.31201491488E+01  0.31201501908E+01  0.25500000000E-02 0.  1.
        -24    2    1    2    0    0  0.35527136788E-14  0.35527136788E-14  0.50818342017E+03  0.51442371953E+03  0.79883506958E+02 0.  0.
         66    2    3    3    0    0  0.30757273053E+02 -0.24849523557E+02  0.28942203150E+03  0.29211747805E+03  0.19999993028E+01 0.  0.
         13    1    3    3    0    0 -0.30757273053E+02  0.24849523557E+02  0.21876138867E+03  0.22230624148E+03  0.10566000000E+00 0. -1.
         13    1    4    4    0    0  0.31124775067E+01 -0.22772890892E+01  0.25186862745E+02  0.25480635408E+02  0.10566000000E+00 0. -1.
        -13    1    4    4    0    0  0.56868905332E+01 -0.49162187166E+01  0.52789729730E+02  0.53322384224E+02  0.10566000000E+00 0.  1.
        -14    1    4    4    0    0  0.21957905013E+02 -0.17656015751E+02  0.21144543902E+03  0.21331445842E+03  0.00000000000E+00 0.  1.
<mgrwt>
<rscale>  0 0.79883507E+02</rscale>
<asrwt>0</asrwt>
<pdfrwt beam="1">  1        1 0.78662065E-01 0.79883507E+02</pdfrwt>
<pdfrwt beam="2">  1       -2 0.48002317E-03 0.79883507E+02</pdfrwt>
<totfact> 0.19734161E+05</totfact>
</mgrwt>
</event>
<event>
 8    1  0.1372337E-024  0.7760847E+02  0.7818608E-02  0.1335979E+00
         -2   -1    0    0    0  501 -0.00000000000E+00  0.00000000000E+00  0.51666465833E+02  0.51666465896E+02  0.25500000000E-02 0.  1.
          1   -1    0    0  501    0  0.00000000000E+00 -0.00000000000E+00 -0.29144024812E+02  0.29144025248E+02  0.50400000000E-02 0. -1.
        -24    2    1    2    0    0  0.00000000000E+00  0.35527136788E-14  0.22522441020E+02  0.80810491144E+02  0.77608473309E+02 0.  0.
         66    2    3    3    0    0  0.23228805851E+02  0.29677182870E+02  0.20780748360E+02  0.43083083842E+02  0.20000016550E+01 0.  0.
         13    1    3    3    0    0 -0.23228805851E+02 -0.29677182870E+02  0.17416926602E+01  0.37727407302E+02  0.10566000000E+00 0. -1.
         13    1    4    4    0    0  0.44036529245E+01  0.60000902597E+01  0.38812378927E+01  0.83945466714E+01  0.10566000000E+00 0. -1.
        -13    1    4    4    0    0  0.64099033349E+01  0.92113233941E+01  0.58779049847E+01  0.12668712266E+02  0.10566000000E+00 0.  1.
         14    1    4    4    0    0  0.12415249591E+02  0.14465769216E+02  0.11021605483E+02  0.22019824905E+02  0.00000000000E+00 0. -1.
<mgrwt>
<rscale>  0 0.77608473E+02</rscale>
<asrwt>0</asrwt>
<pdfrwt beam="1">  1        1 0.44836963E-02 0.77608473E+02</pdfrwt>
<pdfrwt beam="2">  1       -2 0.79486869E-02 0.77608473E+02</pdfrwt>
<totfact> 0.13128116E+05</totfact>
</mgrwt>
</event>
<event>
 8    1  0.1372337E-024  0.8052104E+02  0.7818608E-02  0.1327579E+00
          1   -1    0    0  501    0  0.00000000000E+00  0.00000000000E+00  0.11768764753E+03  0.11768764763E+03  0.50400000000E-02 0. -1.
         -2   -1    0    0    0  501 -0.00000000000E+00 -0.00000000000E+00 -0.13772977681E+02  0.13772977917E+02  0.25500000000E-02 0.  1.
        -24    2    1    2    0    0  0.00000000000E+00  0.00000000000E+00  0.10391466985E+03  0.13146062555E+03  0.80521037384E+02 0.  0.
         66    2    3    3    0    0 -0.23191920197E+02  0.10724133335E+02  0.12455995669E+01  0.25659768494E+02  0.20000006690E+01 0.  0.
         13    1    3    3    0    0  0.23191920197E+02 -0.10724133335E+02  0.10266907028E+03  0.10580085706E+03  0.10566000000E+00 0. -1.
         13    1    4    4    0    0 -0.22283451520E+01  0.86751003403E+00  0.29645091953E+00  0.24118754029E+01  0.10566000000E+00 0. -1.
        -13    1    4    4    0    0 -0.15159628075E+02  0.77791603327E+01  0.11688327176E+01  0.17079431865E+02  0.10566000000E+00 0.  1.
         14    1    4    4    0    0 -0.58039469701E+01  0.20774629679E+01 -0.21968407020E+00  0.61684612267E+01  0.00000000000E+00 0. -1.
<mgrwt>
<rscale>  0 0.80521037E+02</rscale>
<asrwt>0</asrwt>
<pdfrwt beam="1">  1        1 0.18105792E-01 0.80521037E+02</pdfrwt>
<pdfrwt beam="2">  1       -2 0.21189196E-02 0.80521037E+02</pdfrwt>
<totfact> 0.14853182E+05</totfact>
</mgrwt>
</event>
<event>
 8    1  0.1372337E-024  0.8118346E+02  0.7818608E-02  0.1325726E+00
         -2   -1    0    0    0  501 -0.00000000000E+00  0.00000000000E+00  0.46779133498E+03  0.46779133498E+03  0.25500000000E-02 0.  1.
          1   -1    0    0  501    0  0.00000000000E+00 -0.00000000000E+00 -0.35222707916E+01  0.35222743975E+01  0.50400000000E-02 0. -1.
        -24    2    1    2    0    0  0.35527136788E-14  0.00000000000E+00  0.46426906418E+03  0.47131360938E+03  0.81183461546E+02 0.  0.
         66    2    3    3    0    0  0.19343117394E+02 -0.23829781910E+02  0.38627710988E+03  0.38749970364E+03  0.20000005035E+01 0.  0.
         13    1    3    3    0    0 -0.19343117394E+02  0.23829781910E+02  0.77991954301E+02  0.83813905744E+02  0.10566000000E+00 0. -1.
         13    1    4    4    0    0  0.13651909157E+02 -0.16275211574E+02  0.27134576730E+03  0.27217603446E+03  0.10566000000E+00 0. -1.
        -13    1    4    4    0    0  0.11313495352E+00 -0.18383967989E+00  0.19321696095E+01  0.19470593162E+01  0.10566000000E+00 0.  1.
        -14    1    4    4    0    0  0.55780732829E+01 -0.73707306554E+01  0.11299917297E+03  0.11337660986E+03  0.00000000000E+00 0.  1.
<mgrwt>
<rscale>  0 0.81183462E+02</rscale>
<asrwt>0</asrwt>
<pdfrwt beam="1">  1        1 0.54188828E-03 0.81183462E+02</pdfrwt>
<pdfrwt beam="2">  1       -2 0.71967872E-01 0.81183462E+02</pdfrwt>
<totfact> 0.50998470E+04</totfact>
</mgrwt>
</event>
<event>
 8    1  0.1372337E-024  0.7980250E+02  0.7818608E-02  0.1329613E+00
          1   -1    0    0  501    0  0.00000000000E+00  0.00000000000E+00  0.48997548868E+02  0.48997549127E+02  0.50400000000E-02 0. -1.
         -2   -1    0    0    0  501 -0.00000000000E+00 -0.00000000000E+00 -0.32493664098E+02  0.32493664198E+02  0.25500000000E-02 0.  1.
        -24    2    1    2    0    0  0.17763568394E-14  0.00000000000E+00  0.16503884770E+02  0.81491213325E+02  0.79802503949E+02 0.  0.
         66    2    3    3    0    0 -0.13172049367E+02 -0.18406485157E+02 -0.25267521933E+02  0.33981602062E+02  0.20000084281E+01 0.  0.
         13    1    3    3    0    0  0.13172049367E+02  0.18406485157E+02  0.41771406703E+02  0.47509611263E+02  0.10566000000E+00 0. -1.
         13    1    4    4    0    0 -0.23931116405E+01 -0.27249877607E+01 -0.35852091104E+01  0.51007283814E+01  0.10566000000E+00 0. -1.
        -13    1    4    4    0    0 -0.77544535366E+01 -0.11876974961E+02 -0.15385343925E+02  0.20926396145E+02  0.10566000000E+00 0.  1.
         14    1    4    4    0    0 -0.30244841901E+01 -0.38045224353E+01 -0.62969688971E+01  0.79544775358E+01  0.00000000000E+00 0. -1.
<mgrwt>
<rscale>  0 0.79802504E+02</rscale>
<asrwt>0</asrwt>
<pdfrwt beam="1">  1        1 0.75380845E-02 0.79802504E+02</pdfrwt>
<pdfrwt beam="2">  1       -2 0.49990252E-02 0.79802504E+02</pdfrwt>
<totfact> 0.13205806E+05</totfact>
</mgrwt>
</event>
<event>
 8    1  0.1372337E-024  0.8017596E+02  0.7818608E-02  0.1328553E+00
         -2   -1    0    0    0  501 -0.00000000000E+00  0.00000000000E+00  0.75690700100E+01  0.75690704396E+01  0.25500000000E-02 0.  1.
          1   -1    0    0  501    0  0.00000000000E+00 -0.00000000000E+00 -0.21231748233E+03  0.21231748239E+03  0.50400000000E-02 0. -1.
        -24    2    1    2    0    0  0.17763568394E-14 -0.35527136788E-14 -0.20474841232E+03  0.21988655283E+03  0.80175955047E+02 0.  0.
         66    2    3    3    0    0 -0.10712867629E+02  0.30889900182E+02 -0.16593765272E+03  0.16913975302E+03  0.19999988848E+01 0.  0.
         13    1    3    3    0    0  0.10712867629E+02 -0.30889900182E+02 -0.38810759599E+02  0.50746799808E+02  0.10566000000E+00 0. -1.
         13    1    4    4    0    0 -0.81667547094E+00  0.29981599501E+01 -0.16651886732E+02  0.16939669940E+02  0.10566000000E+00 0. -1.
        -13    1    4    4    0    0 -0.98114020487E+01  0.27703174618E+02 -0.14875558827E+03  0.15163101826E+03  0.10566000000E+00 0.  1.
        -14    1    4    4    0    0 -0.84790109051E-01  0.18856561384E+00 -0.53017772445E+00  0.56906482304E+00  0.00000000000E+00 0.  1.
<mgrwt>
<rscale>  0 0.80175955E+02</rscale>
<asrwt>0</asrwt>
<pdfrwt beam="1">  1        1 0.32664224E-01 0.80175955E+02</pdfrwt>
<pdfrwt beam="2">  1       -2 0.11644725E-02 0.80175955E+02</pdfrwt>
<totfact> 0.16770879E+05</totfact>
</mgrwt>
</event>
<event>
 8    1  0.1474865E-024  0.7283626E+02  0.7818608E-02  0.1350705E+00
         -2   -1    0    0    0  501 -0.00000000000E+00  0.00000000000E+00  0.26932614052E+02  0.26932614173E+02  0.25500000000E-02 0.  1.
          1   -1    0    0  501    0  0.00000000000E+00 -0.00000000000E+00 -0.49244393694E+02  0.49244393952E+02  0.50400000000E-02 0. -1.
        -24    2    1    2    0    0  0.00000000000E+00 -0.88817841970E-15 -0.22311779641E+02  0.76177008125E+02  0.72836261958E+02 0.  0.
         66    2    3    3    0    0  0.22018349966E+02  0.49157579854E+01  0.18698883996E+02  0.29370404874E+02  0.20000019881E+01 0.  0.
         13    1    3    3    0    0 -0.22018349966E+02 -0.49157579854E+01 -0.41010663638E+02  0.46806603250E+02  0.10566000000E+00 0. -1.
         13    1    4    4    0    0  0.67266327473E+01  0.10629541438E+01  0.55384808330E+01  0.87785758299E+01  0.10566000000E+00 0. -1.
        -13    1    4    4    0    0  0.14971633784E+02  0.37969087795E+01  0.12555685469E+02  0.19905344410E+02  0.10566000000E+00 0.  1.
         14    1    4    4    0    0  0.32008343457E+00  0.55895062069E-01  0.60471769395E+00  0.68648463379E+00  0.00000000000E+00 0. -1.
<mgrwt>
<rscale>  0 0.72836262E+02</rscale>
<asrwt>0</asrwt>
<pdfrwt beam="1">  1        1 0.75760606E-02 0.72836262E+02</pdfrwt>
<pdfrwt beam="2">  1       -2 0.41434791E-02 0.72836262E+02</pdfrwt>
<totfact> 0.17003897E+05</totfact>
</mgrwt>
</event>
<event>
 8    1  0.1372337E-024  0.7939528E+02  0.7818608E-02  0.1330776E+00
         -2   -1    0    0    0  501 -0.00000000000E+00  0.00000000000E+00  0.78609867774E+01  0.78609871910E+01  0.25500000000E-02 0.  1.
          1   -1    0    0  501    0  0.00000000000E+00 -0.00000000000E+00 -0.20047131774E+03  0.20047131780E+03  0.50400000000E-02 0. -1.
        -24    2    1    2    0    0 -0.35527136788E-14  0.00000000000E+00 -0.19261033096E+03  0.20833230499E+03  0.79395275116E+02 0.  0.
         66    2    3    3    0    0  0.22178881629E+02  0.32849747113E+02 -0.91906242881E+02  0.10010877153E+03  0.19999951247E+01 0.  0.
         13    1    3    3    0    0 -0.22178881629E+02 -0.32849747113E+02 -0.10070408808E+03  0.10822353347E+03  0.10566000000E+00 0. -1.
         13    1    4    4    0    0  0.82236790674E+01  0.11802651646E+02 -0.34069395772E+02  0.36981973658E+02  0.10566000000E+00 0. -1.
        -13    1    4    4    0    0  0.13459220330E+02  0.20664765347E+02 -0.56135383659E+02  0.61313747245E+02  0.10566000000E+00 0.  1.
         14    1    4    4    0    0  0.49598223201E+00  0.38233012081E+00 -0.17014634505E+01  0.18130506251E+01  0.00000000000E+00 0. -1.
<mgrwt>
<rscale>  0 0.79395275E+02</rscale>
<asrwt>0</asrwt>
<pdfrwt beam="1">  1        1 0.30841737E-01 0.79395275E+02</pdfrwt>
<pdfrwt beam="2">  1       -2 0.12093828E-02 0.79395275E+02</pdfrwt>
<totfact> 0.17020850E+05</totfact>
</mgrwt>
</event>
<event>
 8    1  0.1372337E-024  0.7954259E+02  0.7818608E-02  0.1330355E+00
         -2   -1    0    0    0  501 -0.00000000000E+00  0.00000000000E+00  0.20483757232E+02  0.20483757391E+02  0.25500000000E-02 0.  1.
          1   -1    0    0  501    0  0.00000000000E+00 -0.00000000000E+00 -0.77220012908E+02  0.77220013072E+02  0.50400000000E-02 0. -1.
        -24    2    1    2    0    0  0.00000000000E+00  0.00000000000E+00 -0.56736255675E+02  0.97703770463E+02  0.79542592708E+02 0.  0.
         66    2    3    3    0    0 -0.25682218592E+02 -0.28135009015E+02 -0.14456841306E+02  0.40794060154E+02  0.19999997899E+01 0.  0.
         13    1    3    3    0    0  0.25682218592E+02  0.28135009015E+02 -0.42279414369E+02  0.56909710309E+02  0.10566000000E+00 0. -1.
         13    1    4    4    0    0 -0.35968525496E+01 -0.30834345013E+01 -0.19295906154E+01  0.51165809449E+01  0.10566000000E+00 0. -1.
        -13    1    4    4    0    0 -0.16751005146E+02 -0.18535232467E+02 -0.92312767859E+01  0.26634163234E+02  0.10566000000E+00 0.  1.
         14    1    4    4    0    0 -0.53343608961E+01 -0.65163420466E+01 -0.32959739051E+01  0.90433159748E+01  0.00000000000E+00 0. -1.
<mgrwt>
<rscale>  0 0.79542593E+02</rscale>
<asrwt>0</asrwt>
<pdfrwt beam="1">  1        1 0.11880002E-01 0.79542593E+02</pdfrwt>
<pdfrwt beam="2">  1       -2 0.31513473E-02 0.79542593E+02</pdfrwt>
<totfact> 0.14311087E+05</totfact>
</mgrwt>
</event>
<event>
 8    1  0.1372337E-024  0.8043704E+02  0.7818608E-02  0.1327816E+00
          1   -1    0    0  501    0  0.00000000000E+00  0.00000000000E+00  0.88166926289E+03  0.88166926291E+03  0.50400000000E-02 0. -1.
         -2   -1    0    0    0  501 -0.00000000000E+00 -0.00000000000E+00 -0.18346207159E+01  0.18346224880E+01  0.25500000000E-02 0.  1.
        -24    2    1    2    0    0  0.00000000000E+00  0.00000000000E+00  0.87983464217E+03  0.88350388539E+03  0.80437043294E+02 0.  0.
         66    2    3    3    0    0  0.15546613735E+02  0.24933721778E+02  0.74142031524E+03  0.74200503471E+03  0.20000003037E+01 0.  0.
         13    1    3    3    0    0 -0.15546613735E+02 -0.24933721778E+02  0.13841432693E+03  0.14149885068E+03  0.10566000000E+00 0. -1.
         13    1    4    4    0    0  0.24634705177E+01  0.29556997076E+01  0.10361166705E+03  0.10368314020E+03  0.10566000000E+00 0. -1.
        -13    1    4    4    0    0  0.29978866016E+01  0.56286266727E+01  0.15384831334E+03  0.15398046449E+03  0.10566000000E+00 0.  1.
        -14    1    4    4    0    0  0.10085256616E+02  0.16349395398E+02  0.48396033485E+03  0.48434143003E+03  0.00000000000E+00 0.  1.
<mgrwt>
<rscale>  0 0.80437043E+02</rscale>
<asrwt>0</asrwt>
<pdfrwt beam="1">  1        1 0.13564184E+00 0.80437043E+02</pdfrwt>
<pdfrwt beam="2">  1       -2 0.28224861E-03 0.80437043E+02</pdfrwt>
<totfact> 0.19389558E+05</totfact>
</mgrwt>
</event>
<event>
 8    1  0.1372337E-024  0.7946502E+02  0.7818608E-02  0.1330577E+00
         -2   -1    0    0    0  501 -0.00000000000E+00  0.00000000000E+00  0.10246781706E+03  0.10246781710E+03  0.25500000000E-02 0.  1.
          1   -1    0    0  501    0  0.00000000000E+00 -0.00000000000E+00 -0.15406517025E+02  0.15406517850E+02  0.50400000000E-02 0. -1.
        -24    2    1    2    0    0 -0.17763568394E-14  0.00000000000E+00  0.87061300038E+02  0.11787433494E+03  0.79465016670E+02 0.  0.
         66    2    3    3    0    0  0.10801658173E+02  0.24999325836E+02  0.86422182720E+02  0.90633524632E+02  0.20000023969E+01 0.  0.
         13    1    3    3    0    0 -0.10801658173E+02 -0.24999325836E+02  0.63911731848E+00  0.27240810313E+02  0.10566000000E+00 0. -1.
         13    1    4    4    0    0  0.25754552670E+00  0.41413257520E+00  0.19384632524E+01  0.20016591380E+01  0.10566000000E+00 0.  1.
        -13    1    4    4    0    0  0.12203248996E+01  0.18539648492E+01  0.64905712119E+01  0.68603977446E+01  0.10566000000E+00 0.  1.
        -14    1    4    4    0    0  0.93237877464E+01  0.22731228412E+02  0.77993148255E+02  0.81771467749E+02  0.00000000000E+00 0.  1.
<mgrwt>
<rscale>  0 0.79465017E+02</rscale>
<asrwt>0</asrwt>
<pdfrwt beam="1">  1        1 0.23702335E-02 0.79465017E+02</pdfrwt>
<pdfrwt beam="2">  1       -2 0.15764279E-01 0.79465017E+02</pdfrwt>
<totfact> 0.10730996E+05</totfact>
</mgrwt>
</event>
<event>
 8    1  0.1372337E-024  0.8104737E+02  0.7818608E-02  0.1326105E+00
         -2   -1    0    0    0  501 -0.00000000000E+00  0.00000000000E+00  0.24827429306E+03  0.24827429308E+03  0.25500000000E-02 0.  1.
          1   -1    0    0  501    0  0.00000000000E+00 -0.00000000000E+00 -0.66143323200E+01  0.66143342402E+01  0.50400000000E-02 0. -1.
        -24    2    1    2    0    0  0.00000000000E+00  0.00000000000E+00  0.24165996074E+03  0.25488862732E+03  0.81047367069E+02 0.  0.
         66    2    3    3    0    0 -0.66584859197E+01 -0.39237553926E+02  0.14448886643E+03  0.14988313315E+03  0.20000013152E+01 0.  0.
         13    1    3    3    0    0  0.66584859197E+01  0.39237553926E+02  0.97171094308E+02  0.10500549417E+03  0.10566000000E+00 0. -1.
         13    1    4    4    0    0 -0.19150320963E+00 -0.23243456453E+01  0.79087807660E+01  0.82461647690E+01  0.10566000000E+00 0. -1.
        -13    1    4    4    0    0 -0.27922688552E+01 -0.12149056997E+02  0.46722402618E+02  0.48356906660E+02  0.10566000000E+00 0.  1.
        -14    1    4    4    0    0 -0.36747138548E+01 -0.24764151284E+02  0.89857683050E+02  0.93280061717E+02  0.00000000000E+00 0.  1.
<mgrwt>
<rscale>  0 0.81047367E+02</rscale>
<asrwt>0</asrwt>
<pdfrwt beam="1">  1        1 0.10175899E-02 0.81047367E+02</pdfrwt>
<pdfrwt beam="2">  1       -2 0.38196041E-01 0.81047367E+02</pdfrwt>
<totfact> 0.74812834E+04</totfact>
</mgrwt>
</event>
<event>
 8    1  0.1372337E-024  0.7964163E+02  0.7818608E-02  0.1330072E+00
         -2   -1    0    0    0  501 -0.00000000000E+00  0.00000000000E+00  0.10167270142E+04  0.10167270143E+04  0.25500000000E-02 0.  1.
          1   -1    0    0  501    0  0.00000000000E+00 -0.00000000000E+00 -0.15596055968E+01  0.15596137404E+01  0.50400000000E-02 0. -1.
        -24    2    1    2    0    0  0.00000000000E+00  0.00000000000E+00  0.10151674087E+04  0.10182866280E+04  0.79641629560E+02 0.  0.
         66    2    3    3    0    0  0.12702336496E+02  0.25731600073E+02  0.86043752184E+03  0.86091822699E+03  0.19999979804E+01 0.  0.
         13    1    3    3    0    0 -0.12702336496E+02 -0.25731600073E+02  0.15472988682E+03  0.15736840100E+03  0.10566000000E+00 0. -1.
         13    1    4    4    0    0  0.15832091881E+01  0.24391208054E+01  0.79123211332E+02  0.79176698575E+02  0.10566000000E+00 0.  1.
        -13    1    4    4    0    0  0.65718677255E+01  0.13685406991E+02  0.44077019778E+03  0.44103158416E+03  0.10566000000E+00 0.  1.
        -14    1    4    4    0    0  0.45472595824E+01  0.96070722763E+01  0.34054411273E+03  0.34070994426E+03  0.00000000000E+00 0.  1.
<mgrwt>
<rscale>  0 0.79641630E+02</rscale>
<asrwt>0</asrwt>
<pdfrwt beam="1">  1        1 0.23994069E-03 0.79641630E+02</pdfrwt>
<pdfrwt beam="2">  1       -2 0.15641906E+00 0.79641630E+02</pdfrwt>
<totfact> 0.25874135E+04</totfact>
</mgrwt>
</event>
<event>
 8    1  0.1372337E-024  0.7908733E+02  0.7818608E-02  0.1331662E+00
         -2   -1    0    0    0  501 -0.00000000000E+00  0.00000000000E+00  0.29030994600E+02  0.29030994712E+02  0.25500000000E-02 0.  1.
          1   -1    0    0  501    0  0.00000000000E+00 -0.00000000000E+00 -0.53863169106E+02  0.53863169342E+02  0.50400000000E-02 0. -1.
        -24    2    1    2    0    0  0.00000000000E+00  0.35527136788E-14 -0.24832174506E+02  0.82894164054E+02  0.79087328590E+02 0.  0.
         66    2    3    3    0    0 -0.20883651225E+02 -0.22061663128E+02  0.14068154622E+02  0.33537395129E+02  0.20000072736E+01 0.  0.
         13    1    3    3    0    0  0.20883651225E+02  0.22061663128E+02 -0.38900329128E+02  0.49356768926E+02  0.10566000000E+00 0. -1.
         13    1    4    4    0    0 -0.58600587199E+01 -0.71658502270E+01  0.43860411074E+01  0.10243935684E+02  0.10566000000E+00 0. -1.
        -13    1    4    4    0    0 -0.14135383858E+02 -0.13730713967E+02  0.92231647270E+01  0.21758205682E+02  0.10566000000E+00 0.  1.
         14    1    4    4    0    0 -0.88820864713E+00 -0.11650989339E+01  0.45894878735E+00  0.15352537628E+01  0.00000000000E+00 0. -1.
<mgrwt>
<rscale>  0 0.79087329E+02</rscale>
<asrwt>0</asrwt>
<pdfrwt beam="1">  1        1 0.82866414E-02 0.79087329E+02</pdfrwt>
<pdfrwt beam="2">  1       -2 0.44663069E-02 0.79087329E+02</pdfrwt>
<totfact> 0.13741314E+05</totfact>
</mgrwt>
</event>
<event>
 8    1  0.1372337E-024  0.7763673E+02  0.7818608E-02  0.1335895E+00
          1   -1    0    0  501    0  0.00000000000E+00  0.00000000000E+00  0.37538165506E+02  0.37538165845E+02  0.50400000000E-02 0. -1.
         -2   -1    0    0    0  501 -0.00000000000E+00 -0.00000000000E+00 -0.40142220405E+02  0.40142220486E+02  0.25500000000E-02 0.  1.
        -24    2    1    2    0    0  0.00000000000E+00  0.44408920985E-15 -0.26040548990E+01  0.77680386331E+02  0.77636726609E+02 0.  0.
         66    2    3    3    0    0  0.27158737122E+02 -0.39173173505E+01 -0.28739433240E+02  0.39785643393E+02  0.20000049931E+01 0.  0.
         13    1    3    3    0    0 -0.27158737122E+02  0.39173173505E+01  0.26135378341E+02  0.37894742938E+02  0.10566000000E+00 0. -1.
         13    1    4    4    0    0  0.18094270318E+02 -0.33932933016E+01 -0.19508569164E+02  0.26823730028E+02  0.10566000000E+00 0. -1.
        -13    1    4    4    0    0  0.56908562127E+01 -0.49890926988E+00 -0.54762958391E+01  0.79142741326E+01  0.10566000000E+00 0.  1.
         14    1    4    4    0    0  0.33736105912E+01 -0.25114779053E-01 -0.37545682368E+01  0.50476392321E+01  0.00000000000E+00 0. -1.
<mgrwt>
<rscale>  0 0.77636727E+02</rscale>
<asrwt>0</asrwt>
<pdfrwt beam="1">  1        1 0.57751024E-02 0.77636727E+02</pdfrwt>
<pdfrwt beam="2">  1       -2 0.61757262E-02 0.77636727E+02</pdfrwt>
<totfact> 0.13675372E+05</totfact>
</mgrwt>
</event>
<event>
 8    1  0.1372337E-024  0.8083477E+02  0.7818608E-02  0.1326699E+00
          1   -1    0    0  501    0  0.00000000000E+00  0.00000000000E+00  0.57381422850E+01  0.57381444984E+01  0.50400000000E-02 0. -1.
         -2   -1    0    0    0  501 -0.00000000000E+00 -0.00000000000E+00 -0.28468525509E+03  0.28468525511E+03  0.25500000000E-02 0.  1.
        -24    2    1    2    0    0  0.00000000000E+00  0.00000000000E+00 -0.27894711281E+03  0.29042339960E+03  0.80834765373E+02 0.  0.
         66    2    3    3    0    0 -0.13958371720E+02  0.24090309869E+02 -0.24469842669E+03  0.24628540197E+03  0.20000063757E+01 0.  0.
         13    1    3    3    0    0  0.13958371720E+02 -0.24090309869E+02 -0.34248686115E+02  0.44137997635E+02  0.10566000000E+00 0. -1.
         13    1    4    4    0    0 -0.56914810331E+01  0.88465076604E+01 -0.88878655269E+02  0.89499051284E+02  0.10566000000E+00 0. -1.
        -13    1    4    4    0    0 -0.68980914531E+01  0.12589999912E+02 -0.12471244100E+03  0.12553603414E+03  0.10566000000E+00 0.  1.
         14    1    4    4    0    0 -0.13687992335E+01  0.26538022957E+01 -0.31107330426E+02  0.31250316545E+02  0.00000000000E+00 0. -1.
<mgrwt>
<rscale>  0 0.80834765E+02</rscale>
<asrwt>0</asrwt>
<pdfrwt beam="1">  1        1 0.88279151E-03 0.80834765E+02</pdfrwt>
<pdfrwt beam="2">  1       -2 0.43797721E-01 0.80834765E+02</pdfrwt>
<totfact> 0.70350381E+04</totfact>
</mgrwt>
</event>
<event>
 8    1  0.1372337E-024  0.8500483E+02  0.7818608E-02  0.1315420E+00
          1   -1    0    0  501    0  0.00000000000E+00  0.00000000000E+00  0.13478564224E+03  0.13478564233E+03  0.50400000000E-02 0. -1.
         -2   -1    0    0    0  501 -0.00000000000E+00 -0.00000000000E+00 -0.13402430002E+02  0.13402430245E+02  0.25500000000E-02 0.  1.
        -24    2    1    2    0    0  0.00000000000E+00  0.00000000000E+00  0.12138321224E+03  0.14818807258E+03  0.85004827165E+02 0.  0.
         66    2    3    3    0    0 -0.18692177157E+02 -0.36482164453E+02  0.41304488632E+02  0.58227198037E+02  0.19999999969E+01 0.  0.
         13    1    3    3    0    0  0.18692177157E+02  0.36482164453E+02  0.80078723604E+02  0.89960874541E+02  0.10566000000E+00 0. -1.
         13    1    4    4    0    0 -0.69590511296E+00 -0.17283852369E+01  0.20307978313E+01  0.27580615150E+01  0.10566000000E+00 0. -1.
        -13    1    4    4    0    0 -0.68488256610E+01 -0.14500240128E+02  0.15304927467E+02  0.22167889965E+02  0.10566000000E+00 0.  1.
         14    1    4    4    0    0 -0.11147446383E+02 -0.20253539088E+02  0.23968763334E+02  0.33301246557E+02  0.00000000000E+00 0. -1.
<mgrwt>
<rscale>  0 0.85004827E+02</rscale>
<asrwt>0</asrwt>
<pdfrwt beam="1">  1        1 0.20736252E-01 0.85004827E+02</pdfrwt>
<pdfrwt beam="2">  1       -2 0.20619124E-02 0.85004827E+02</pdfrwt>
<totfact> 0.13152044E+05</totfact>
</mgrwt>
</event>
<event>
 8    1  0.1372337E-024  0.8182046E+02  0.7818608E-02  0.1323963E+00
          1   -1    0    0  501    0  0.00000000000E+00  0.00000000000E+00  0.64829354280E+02  0.64829354476E+02  0.50400000000E-02 0. -1.
         -2   -1    0    0    0  501 -0.00000000000E+00 -0.00000000000E+00 -0.25816190765E+02  0.25816190891E+02  0.25500000000E-02 0.  1.
        -24    2    1    2    0    0  0.00000000000E+00  0.00000000000E+00  0.39013163515E+02  0.90645545367E+02  0.81820461789E+02 0.  0.
         66    2    3    3    0    0 -0.19966113335E+02  0.45403455289E+01 -0.19687826495E+02  0.28475795395E+02  0.19999980169E+01 0.  0.
         13    1    3    3    0    0  0.19966113335E+02 -0.45403455289E+01  0.58700990011E+02  0.62169749971E+02  0.10566000000E+00 0. -1.
         13    1    4    4    0    0 -0.96067827651E+00  0.10995517702E+00 -0.65376436087E+00  0.11719917948E+01  0.10566000000E+00 0. -1.
        -13    1    4    4    0    0 -0.12564947526E+02  0.28935512220E+01 -0.13569033690E+02  0.18718450372E+02  0.10566000000E+00 0.  1.
        -14    1    4    4    0    0 -0.64404875318E+01  0.15368391298E+01 -0.54650284447E+01  0.85853532285E+01  0.00000000000E+00 0.  1.
<mgrwt>
<rscale>  0 0.81820462E+02</rscale>
<asrwt>0</asrwt>
<pdfrwt beam="1">  1        1 0.99737468E-02 0.81820462E+02</pdfrwt>
<pdfrwt beam="2">  1       -2 0.39717217E-02 0.81820462E+02</pdfrwt>
<totfact> 0.12881072E+05</totfact>
</mgrwt>
</event>
<event>
 8    1  0.1372337E-024  0.8480270E+02  0.7818608E-02  0.1315949E+00
          1   -1    0    0  501    0  0.00000000000E+00  0.00000000000E+00  0.23211372451E+02  0.23211372999E+02  0.50400000000E-02 0. -1.
         -2   -1    0    0    0  501 -0.00000000000E+00 -0.00000000000E+00 -0.77456611004E+02  0.77456611046E+02  0.25500000000E-02 0.  1.
        -24    2    1    2    0    0  0.00000000000E+00  0.00000000000E+00 -0.54245238553E+02  0.10066798404E+03  0.84802695158E+02 0.  0.
         66    2    3    3    0    0  0.35957249063E+02  0.81268385701E+01 -0.51950290228E+02  0.63732266681E+02  0.19999740607E+01 0.  0.
         13    1    3    3    0    0 -0.35957249063E+02 -0.81268385701E+01 -0.22949483243E+01  0.36935717363E+02  0.10566000000E+00 0. -1.
         13    1    4    4    0    0  0.10916191549E+02  0.30056606349E+01 -0.16861509624E+02  0.20310561406E+02  0.10566000000E+00 0. -1.
        -13    1    4    4    0    0  0.11842179672E+02  0.24299687967E+01 -0.17409427320E+02  0.21195312958E+02  0.10566000000E+00 0.  1.
        -14    1    4    4    0    0  0.13198877842E+02  0.26912091384E+01 -0.17679353285E+02  0.22226392318E+02  0.00000000000E+00 0.  1.
<mgrwt>
<rscale>  0 0.84802695E+02</rscale>
<asrwt>0</asrwt>
<pdfrwt beam="1">  1        1 0.35709805E-02 0.84802695E+02</pdfrwt>
<pdfrwt beam="2">  1       -2 0.11916402E-01 0.84802695E+02</pdfrwt>
<totfact> 0.96999036E+04</totfact>
</mgrwt>
</event>
<event>
 8    1  0.1372337E-024  0.7916981E+02  0.7818608E-02  0.1331424E+00
         -2   -1    0    0    0  501 -0.00000000000E+00  0.00000000000E+00  0.27513529007E+02  0.27513529126E+02  0.25500000000E-02 0.  1.
          1   -1    0    0  501    0  0.00000000000E+00 -0.00000000000E+00 -0.56952515783E+02  0.56952516006E+02  0.50400000000E-02 0. -1.
        -24    2    1    2    0    0 -0.44408920985E-15  0.00000000000E+00 -0.29438986775E+02  0.84466045131E+02  0.79169810141E+02 0.  0.
         66    2    3    3    0    0 -0.30977411733E+01  0.33459145651E+02  0.75447564214E+01  0.34496866101E+02  0.19999983028E+01 0.  0.
         13    1    3    3    0    0  0.30977411733E+01 -0.33459145651E+02 -0.36983743197E+02  0.49969179030E+02  0.10566000000E+00 0. -1.
         13    1    4    4    0    0 -0.70386145595E+00  0.10062816180E+02  0.14493596539E+01  0.10191540505E+02  0.10566000000E+00 0. -1.
        -13    1    4    4    0    0 -0.18335752115E+01  0.16423183354E+02  0.40027230180E+01  0.17003408633E+02  0.10566000000E+00 0.  1.
         14    1    4    4    0    0 -0.56030450587E+00  0.69731461175E+01  0.20926737495E+01  0.73019169631E+01  0.00000000000E+00 0. -1.
<mgrwt>
<rscale>  0 0.79169810E+02</rscale>
<asrwt>0</asrwt>
<pdfrwt beam="1">  1        1 0.87619256E-02 0.79169810E+02</pdfrwt>
<pdfrwt beam="2">  1       -2 0.42328506E-02 0.79169810E+02</pdfrwt>
<totfact> 0.13820871E+05</totfact>
</mgrwt>
</event>
<event>
 8    1  0.1372337E-024  0.8015245E+02  0.7818608E-02  0.1328619E+00
         -2   -1    0    0    0  501 -0.00000000000E+00  0.00000000000E+00  0.20447246562E+02  0.20447246721E+02  0.25500000000E-02 0.  1.
          1   -1    0    0  501    0  0.00000000000E+00 -0.00000000000E+00 -0.78548660035E+02  0.78548660197E+02  0.50400000000E-02 0. -1.
        -24    2    1    2    0    0 -0.71054273576E-14  0.35527136788E-14 -0.58101413474E+02  0.98995906918E+02  0.80152450611E+02 0.  0.
         66    2    3    3    0    0  0.29717817817E+02 -0.24024098645E+02 -0.14258265255E+02  0.40836309075E+02  0.19999998153E+01 0.  0.
         13    1    3    3    0    0 -0.29717817817E+02  0.24024098645E+02 -0.43843148218E+02  0.58159597843E+02  0.10566000000E+00 0. -1.
         13    1    4    4    0    0  0.32837163765E+01 -0.33936307421E+01 -0.19500170024E+01  0.51101128364E+01  0.10566000000E+00 0. -1.
        -13    1    4    4    0    0  0.21452062744E+02 -0.16653364310E+02 -0.96881274805E+01  0.28833947300E+02  0.10566000000E+00 0.  1.
         14    1    4    4    0    0  0.49820386970E+01 -0.39771035930E+01 -0.26201207725E+01  0.68922489385E+01  0.00000000000E+00 0. -1.
<mgrwt>
<rscale>  0 0.80152451E+02</rscale>
<asrwt>0</asrwt>
<pdfrwt beam="1">  1        1 0.12084409E-01 0.80152451E+02</pdfrwt>
<pdfrwt beam="2">  1       -2 0.31457303E-02 0.80152451E+02</pdfrwt>
<totfact> 0.14054589E+05</totfact>
</mgrwt>
</event>
<event>
 8    1  0.1372337E-024  0.8091242E+02  0.7818608E-02  0.1326482E+00
          1   -1    0    0  501    0  0.00000000000E+00  0.00000000000E+00  0.25114775411E+01  0.25114825982E+01  0.50400000000E-02 0. -1.
         -2   -1    0    0    0  501 -0.00000000000E+00 -0.00000000000E+00 -0.65168934775E+03  0.65168934775E+03  0.25500000000E-02 0.  1.
        -24    2    1    2    0    0  0.00000000000E+00  0.00000000000E+00 -0.64917787021E+03  0.65420083035E+03  0.80912417253E+02 0.  0.
         66    2    3    3    0    0  0.99238614895E+01 -0.35746503001E+02 -0.45475750715E+03  0.45627260033E+03  0.19999999853E+01 0.  0.
         13    1    3    3    0    0 -0.99238614895E+01  0.35746503001E+02 -0.19442036305E+03  0.19792823002E+03  0.10566000000E+00 0. -1.
         13    1    4    4    0    0  0.17082866416E+01 -0.56395172869E+01 -0.67979673661E+02  0.68234665630E+02  0.10566000000E+00 0. -1.
        -13    1    4    4    0    0  0.63721912830E+01 -0.21255739879E+02 -0.26932045337E+03  0.27023310135E+03  0.10566000000E+00 0.  1.
         14    1    4    4    0    0  0.18433835650E+01 -0.88512458347E+01 -0.11745738012E+03  0.11780483335E+03  0.00000000000E+00 0. -1.
<mgrwt>
<rscale>  0 0.80912417E+02</rscale>
<asrwt>0</asrwt>
<pdfrwt beam="1">  1        1 0.38638207E-03 0.80912417E+02</pdfrwt>
<pdfrwt beam="2">  1       -2 0.10025977E+00 0.80912417E+02</pdfrwt>
<totfact> 0.39259917E+04</totfact>
</mgrwt>
</event>
<event>
 8    1  0.1372337E-024  0.8120332E+02  0.7818608E-02  0.1325671E+00
         -2   -1    0    0    0  501 -0.00000000000E+00  0.00000000000E+00  0.70726838470E+01  0.70726843066E+01  0.25500000000E-02 0.  1.
          1   -1    0    0  501    0  0.00000000000E+00 -0.00000000000E+00 -0.23307911437E+03  0.23307911442E+03  0.50400000000E-02 0. -1.
        -24    2    1    2    0    0  0.00000000000E+00  0.00000000000E+00 -0.22600643052E+03  0.24015179873E+03  0.81203323799E+02 0.  0.
         66    2    3    3    0    0  0.16381970940E+02 -0.37045135488E+02 -0.12018101115E+03  0.12683921521E+03  0.20000095521E+01 0.  0.
         13    1    3    3    0    0 -0.16381970940E+02  0.37045135488E+02 -0.10582541937E+03  0.11331258352E+03  0.10566000000E+00 0. -1.
         13    1    4    4    0    0  0.12388993794E+02 -0.27124956689E+02 -0.86573313009E+02  0.91565277982E+02  0.10566000000E+00 0. -1.
        -13    1    4    4    0    0  0.36817730199E+01 -0.94836688802E+01 -0.32107901796E+02  0.33681210634E+02  0.10566000000E+00 0.  1.
         14    1    4    4    0    0  0.31120412598E+00 -0.43650991964E+00 -0.14997963485E+01  0.15927265945E+01  0.00000000000E+00 0. -1.
<mgrwt>
<rscale>  0 0.81203324E+02</rscale>
<asrwt>0</asrwt>
<pdfrwt beam="1">  1        1 0.35858320E-01 0.81203324E+02</pdfrwt>
<pdfrwt beam="2">  1       -2 0.10881054E-02 0.81203324E+02</pdfrwt>
<totfact> 0.16512582E+05</totfact>
</mgrwt>
</event>
<event>
 8    1  0.1372337E-024  0.7918060E+02  0.7818608E-02  0.1331393E+00
         -2   -1    0    0    0  501 -0.00000000000E+00  0.00000000000E+00  0.37192828500E+02  0.37192828588E+02  0.25500000000E-02 0.  1.
          1   -1    0    0  501    0  0.00000000000E+00 -0.00000000000E+00 -0.42142317961E+02  0.42142318262E+02  0.50400000000E-02 0. -1.
        -24    2    1    2    0    0  0.00000000000E+00  0.00000000000E+00 -0.49494894603E+01  0.79335146850E+02  0.79180604189E+02 0.  0.
         66    2    3    3    0    0 -0.17693028763E+02  0.12853069632E+02  0.30559877025E+02  0.37631778425E+02  0.19999994787E+01 0.  0.
         13    1    3    3    0    0  0.17693028763E+02 -0.12853069632E+02 -0.35509366485E+02  0.41703368425E+02  0.10566000000E+00 0. -1.
         13    1    4    4    0    0 -0.82194198871E+01  0.67180851979E+01  0.16010059783E+02  0.19210015885E+02  0.10566000000E+00 0. -1.
        -13    1    4    4    0    0 -0.50635347795E+01  0.35748232549E+01  0.79120467336E+01  0.10051387631E+02  0.10566000000E+00 0.  1.
         14    1    4    4    0    0 -0.44100740963E+01  0.25601611790E+01  0.66377705081E+01  0.83703749089E+01  0.00000000000E+00 0. -1.
<mgrwt>
<rscale>  0 0.79180604E+02</rscale>
<asrwt>0</asrwt>
<pdfrwt beam="1">  1        1 0.64834336E-02 0.79180604E+02</pdfrwt>
<pdfrwt beam="2">  1       -2 0.57219737E-02 0.79180604E+02</pdfrwt>
<totfact> 0.13180213E+05</totfact>
</mgrwt>
</event>
<event>
 8    1  0.1372337E-024  0.8032584E+02  0.7818608E-02  0.1328129E+00
         -2   -1    0    0    0  501 -0.00000000000E+00  0.00000000000E+00  0.93110739747E+01  0.93110743238E+01  0.25500000000E-02 0.  1.
          1   -1    0    0  501    0  0.00000000000E+00 -0.00000000000E+00 -0.17324102675E+03  0.17324102683E+03  0.50400000000E-02 0. -1.
        -24    2    1    2    0    0  0.17763568394E-14  0.00000000000E+00 -0.16392995278E+03  0.18255210115E+03  0.80325837788E+02 0.  0.
         66    2    3    3    0    0  0.97055528396E+01  0.32757122567E+02 -0.34137312062E+02  0.48338213705E+02  0.19999986605E+01 0.  0.
         13    1    3    3    0    0 -0.97055528396E+01 -0.32757122567E+02 -0.12979264072E+03  0.13421388744E+03  0.10566000000E+00 0. -1.
         13    1    4    4    0    0  0.57306259871E+01  0.20400226050E+02 -0.21229231762E+02  0.29995011958E+02  0.10566000000E+00 0. -1.
        -13    1    4    4    0    0  0.31369525660E+01  0.10636393386E+02 -0.11424197214E+02  0.15921582260E+02  0.10566000000E+00 0.  1.
         14    1    4    4    0    0  0.83797428648E+00  0.17205031310E+01 -0.14838830856E+01  0.24216194871E+01  0.00000000000E+00 0. -1.
<mgrwt>
<rscale>  0 0.80325838E+02</rscale>
<asrwt>0</asrwt>
<pdfrwt beam="1">  1        1 0.26652463E-01 0.80325838E+02</pdfrwt>
<pdfrwt beam="2">  1       -2 0.14324731E-02 0.80325838E+02</pdfrwt>
<totfact> 0.16045004E+05</totfact>
</mgrwt>
</event>
<event>
 8    1  0.1372337E-024  0.8018874E+02  0.7818608E-02  0.1328517E+00
          1   -1    0    0  501    0  0.00000000000E+00  0.00000000000E+00  0.18038748976E+02  0.18038749681E+02  0.50400000000E-02 0. -1.
         -2   -1    0    0    0  501 -0.00000000000E+00 -0.00000000000E+00 -0.89116954622E+02  0.89116954659E+02  0.25500000000E-02 0.  1.
        -24    2    1    2    0    0 -0.35527136788E-14  0.00000000000E+00 -0.71078205646E+02  0.10715570434E+03  0.80188737704E+02 0.  0.
         66    2    3    3    0    0 -0.24878661896E+02 -0.18949667886E+02 -0.69035658210E+02  0.75815300787E+02  0.19999995495E+01 0.  0.
         13    1    3    3    0    0  0.24878661896E+02  0.18949667886E+02 -0.20425474353E+01  0.31340403552E+02  0.10566000000E+00 0. -1.
         13    1    4    4    0    0 -0.16176126163E+01 -0.78149813860E+00 -0.44673092320E+01  0.48161629673E+01  0.10566000000E+00 0. -1.
        -13    1    4    4    0    0 -0.60526282700E+01 -0.45479038194E+01 -0.17312834579E+02  0.18896114503E+02  0.10566000000E+00 0.  1.
        -14    1    4    4    0    0 -0.17208421010E+02 -0.13620265928E+02 -0.47255514399E+02  0.52103023317E+02  0.00000000000E+00 0.  1.
<mgrwt>
<rscale>  0 0.80188738E+02</rscale>
<asrwt>0</asrwt>
<pdfrwt beam="1">  1        1 0.27751923E-02 0.80188738E+02</pdfrwt>
<pdfrwt beam="2">  1       -2 0.13710300E-01 0.80188738E+02</pdfrwt>
<totfact> 0.10844289E+05</totfact>
</mgrwt>
</event>
<event>
 8    1  0.1372337E-024  0.7906378E+02  0.7818608E-02  0.1331729E+00
         -2   -1    0    0    0  501 -0.00000000000E+00  0.00000000000E+00  0.91450611341E+01  0.91450614896E+01  0.25500000000E-02 0.  1.
          1   -1    0    0  501    0  0.00000000000E+00 -0.00000000000E+00 -0.17088680022E+03  0.17088680030E+03  0.50400000000E-02 0. -1.
        -24    2    1    2    0    0  0.00000000000E+00  0.00000000000E+00 -0.16174173909E+03  0.18003186178E+03  0.79063778653E+02 0.  0.
         66    2    3    3    0    0 -0.32569745532E+02 -0.21980100799E+02 -0.71574879852E+02  0.81675434321E+02  0.19999976416E+01 0.  0.
         13    1    3    3    0    0  0.32569745532E+02  0.21980100799E+02 -0.90166859235E+02  0.98356427464E+02  0.10566000000E+00 0. -1.
         13    1    4    4    0    0 -0.68157486702E+01 -0.39186014817E+01 -0.14985071851E+02  0.16922571020E+02  0.10566000000E+00 0. -1.
        -13    1    4    4    0    0 -0.15499360168E+02 -0.10359373952E+02 -0.34077038220E+02  0.38843306916E+02  0.10566000000E+00 0.  1.
        -14    1    4    4    0    0 -0.10254636694E+02 -0.77021253652E+01 -0.22512769782E+02  0.25909556386E+02  0.00000000000E+00 0.  1.
<mgrwt>
<rscale>  0 0.79063779E+02</rscale>
<asrwt>0</asrwt>
<pdfrwt beam="1">  1        1 0.26290275E-01 0.79063779E+02</pdfrwt>
<pdfrwt beam="2">  1       -2 0.14069326E-02 0.79063779E+02</pdfrwt>
<totfact> 0.16692761E+05</totfact>
</mgrwt>
</event>
<event>
 8    1  0.1372337E-024  0.7974420E+02  0.7818608E-02  0.1329779E+00
          1   -1    0    0  501    0  0.00000000000E+00  0.00000000000E+00  0.48748007421E+02  0.48748007681E+02  0.50400000000E-02 0. -1.
         -2   -1    0    0    0  501 -0.00000000000E+00 -0.00000000000E+00 -0.32612290470E+02  0.32612290569E+02  0.25500000000E-02 0.  1.
        -24    2    1    2    0    0  0.35527136788E-14  0.00000000000E+00  0.16135716951E+02  0.81360298250E+02  0.79744195838E+02 0.  0.
         66    2    3    3    0    0 -0.28741688093E+02 -0.19081574031E+02 -0.12270790871E+02  0.36671015950E+02  0.20000000694E+01 0.  0.
         13    1    3    3    0    0  0.28741688093E+02  0.19081574031E+02  0.28406507822E+02  0.44689282301E+02  0.10566000000E+00 0. -1.
         13    1    4    4    0    0 -0.21685075412E+02 -0.13959283429E+02 -0.95887463076E+01  0.27514710779E+02  0.10566000000E+00 0. -1.
        -13    1    4    4    0    0 -0.36145893994E+01 -0.27647252757E+01 -0.17819983847E+01  0.48883171598E+01  0.10566000000E+00 0.  1.
         14    1    4    4    0    0 -0.34420232817E+01 -0.23575653259E+01 -0.90004617841E+00  0.42679880109E+01  0.00000000000E+00 0. -1.
<mgrwt>
<rscale>  0 0.79744196E+02</rscale>
<asrwt>0</asrwt>
<pdfrwt beam="1">  1        1 0.74996935E-02 0.79744196E+02</pdfrwt>
<pdfrwt beam="2">  1       -2 0.50172755E-02 0.79744196E+02</pdfrwt>
<totfact> 0.13222090E+05</totfact>
</mgrwt>
</event>
<event>
 8    1  0.1372337E-024  0.7880109E+02  0.7818608E-02  0.1332489E+00
         -2   -1    0    0    0  501 -0.00000000000E+00  0.00000000000E+00  0.29896220245E+02  0.29896220354E+02  0.25500000000E-02 0.  1.
          1   -1    0    0  501    0  0.00000000000E+00 -0.00000000000E+00 -0.51926398908E+02  0.51926399153E+02  0.50400000000E-02 0. -1.
        -24    2    1    2    0    0  0.44408920985E-15  0.17763568394E-14 -0.22030178663E+02  0.81822619506E+02  0.78801093209E+02 0.  0.
         66    2    3    3    0    0 -0.14482891588E+01 -0.13987052071E+02  0.27166628321E+02  0.30655519250E+02  0.19999997544E+01 0.  0.
         13    1    3    3    0    0  0.14482891588E+01  0.13987052071E+02 -0.49196806985E+02  0.51167100256E+02  0.10566000000E+00 0. -1.
         13    1    4    4    0    0  0.17029754874E-01 -0.27219751877E+01  0.56601352620E+01  0.62815391549E+01  0.10566000000E+00 0. -1.
        -13    1    4    4    0    0 -0.14190216906E+01 -0.83381949944E+01  0.17191118806E+02  0.19159458451E+02  0.10566000000E+00 0.  1.
         14    1    4    4    0    0 -0.46297223089E-01 -0.29268818888E+01  0.43153742535E+01  0.52145216436E+01  0.00000000000E+00 0. -1.
<mgrwt>
<rscale>  0 0.78801093E+02</rscale>
<asrwt>0</asrwt>
<pdfrwt beam="1">  1        1 0.79886768E-02 0.78801093E+02</pdfrwt>
<pdfrwt beam="2">  1       -2 0.45994185E-02 0.78801093E+02</pdfrwt>
<totfact> 0.13801360E+05</totfact>
</mgrwt>
</event>
<event>
 8    1  0.1372337E-024  0.8015117E+02  0.7818608E-02  0.1328623E+00
         -2   -1    0    0    0  501 -0.00000000000E+00  0.00000000000E+00  0.55622023227E+01  0.55622029072E+01  0.25500000000E-02 0.  1.
          1   -1    0    0  501    0  0.00000000000E+00 -0.00000000000E+00 -0.28874394184E+03  0.28874394189E+03  0.50400000000E-02 0. -1.
        -24    2    1    2    0    0  0.00000000000E+00 -0.35527136788E-14 -0.28318173952E+03  0.29430614479E+03  0.80151165094E+02 0.  0.
         66    2    3    3    0    0 -0.22112945060E+02  0.30607214144E+02 -0.92653442473E+02  0.10007219556E+03  0.20000061003E+01 0.  0.
         13    1    3    3    0    0  0.22112945060E+02 -0.30607214144E+02 -0.19052829705E+03  0.19423394924E+03  0.10566000000E+00 0. -1.
         13    1    4    4    0    0 -0.12561944124E+01  0.15201672682E+01 -0.54967955275E+01  0.58407925860E+01  0.10566000000E+00 0. -1.
        -13    1    4    4    0    0 -0.17052619066E+02  0.22823372564E+02 -0.68753873057E+02  0.74423144093E+02  0.10566000000E+00 0.  1.
         14    1    4    4    0    0 -0.38041315808E+01  0.62636743122E+01 -0.18402773888E+02  0.19808258877E+02  0.00000000000E+00 0. -1.
<mgrwt>
<rscale>  0 0.80151165E+02</rscale>
<asrwt>0</asrwt>
<pdfrwt beam="1">  1        1 0.44422133E-01 0.80151165E+02</pdfrwt>
<pdfrwt beam="2">  1       -2 0.85572370E-03 0.80151165E+02</pdfrwt>
<totfact> 0.17821086E+05</totfact>
</mgrwt>
</event>
<event>
 8    1  0.1372337E-024  0.7899418E+02  0.7818608E-02  0.1331930E+00
         -2   -1    0    0    0  501 -0.00000000000E+00  0.00000000000E+00  0.25849949787E+02  0.25849949913E+02  0.25500000000E-02 0.  1.
          1   -1    0    0  501    0  0.00000000000E+00 -0.00000000000E+00 -0.60349063433E+02  0.60349063643E+02  0.50400000000E-02 0. -1.
        -24    2    1    2    0    0  0.35527136788E-14  0.00000000000E+00 -0.34499113645E+02  0.86199013556E+02  0.78994183936E+02 0.  0.
         66    2    3    3    0    0 -0.31307149795E+02  0.12300716986E+02  0.52767415888E+01  0.34107026742E+02  0.20000011793E+01 0.  0.
         13    1    3    3    0    0  0.31307149795E+02 -0.12300716986E+02 -0.39775855234E+02  0.52091986815E+02  0.10566000000E+00 0. -1.
         13    1    4    4    0    0 -0.18780287203E+00  0.17711701164E+00  0.81718190822E-01  0.29065830947E+00  0.10566000000E+00 0. -1.
        -13    1    4    4    0    0 -0.21770789139E+02  0.88260172975E+01  0.32790073398E+01  0.23719799625E+02  0.10566000000E+00 0.  1.
         14    1    4    4    0    0 -0.93485577836E+01  0.32975826773E+01  0.19160160582E+01  0.10096568807E+02  0.00000000000E+00 0. -1.
<mgrwt>
<rscale>  0 0.78994184E+02</rscale>
<asrwt>0</asrwt>
<pdfrwt beam="1">  1        1 0.92844713E-02 0.78994184E+02</pdfrwt>
<pdfrwt beam="2">  1       -2 0.39769154E-02 0.78994184E+02</pdfrwt>
<totfact> 0.14031065E+05</totfact>
</mgrwt>
</event>
<event>
 8    1  0.1372337E-024  0.7758806E+02  0.7818608E-02  0.1336039E+00
         -2   -1    0    0    0  501 -0.00000000000E+00  0.00000000000E+00  0.54045221094E+02  0.54045221154E+02  0.25500000000E-02 0.  1.
          1   -1    0    0  501    0  0.00000000000E+00 -0.00000000000E+00 -0.27846620032E+02  0.27846620488E+02  0.50400000000E-02 0. -1.
        -24    2    1    2    0    0  0.00000000000E+00 -0.35527136788E-14  0.26198601062E+02  0.81891841642E+02  0.77588059841E+02 0.  0.
         66    2    3    3    0    0  0.30520670767E+02  0.23733309494E+02  0.16128636901E+02  0.41939411605E+02  0.19999984633E+01 0.  0.
         13    1    3    3    0    0 -0.30520670767E+02 -0.23733309494E+02  0.10069964161E+02  0.39952430037E+02  0.10566000000E+00 0. -1.
         13    1    4    4    0    0  0.15123495202E+01  0.84705279776E+00  0.78080138568E+00  0.19040783474E+01  0.10566000000E+00 0. -1.
        -13    1    4    4    0    0  0.17666393239E+02  0.13058323086E+02  0.90612112055E+01  0.23764216049E+02  0.10566000000E+00 0.  1.
        -14    1    4    4    0    0  0.11341928008E+02  0.98279336105E+01  0.62866243101E+01  0.16271117208E+02  0.00000000000E+00 0.  1.
<mgrwt>
<rscale>  0 0.77588060E+02</rscale>
<asrwt>0</asrwt>
<pdfrwt beam="1">  1        1 0.42840955E-02 0.77588060E+02</pdfrwt>
<pdfrwt beam="2">  1       -2 0.83146494E-02 0.77588060E+02</pdfrwt>
<totfact> 0.13034354E+05</totfact>
</mgrwt>
</event>
<event>
 8    1  0.1372337E-024  0.8303221E+02  0.7818608E-02  0.1320660E+00
          1   -1    0    0  501    0  0.00000000000E+00  0.00000000000E+00  0.17399895013E+03  0.17399895021E+03  0.50400000000E-02 0. -1.
         -2   -1    0    0    0  501 -0.00000000000E+00 -0.00000000000E+00 -0.99057318726E+01  0.99057322008E+01  0.25500000000E-02 0.  1.
        -24    2    1    2    0    0  0.00000000000E+00  0.00000000000E+00  0.16409321826E+03  0.18390468241E+03  0.83032210208E+02 0.  0.
         66    2    3    3    0    0  0.35179588443E+02 -0.15016901345E+02  0.46485693693E+02  0.60233134475E+02  0.20000003683E+01 0.  0.
         13    1    3    3    0    0 -0.35179588443E+02  0.15016901345E+02  0.11760752457E+03  0.12367154793E+03  0.10566000000E+00 0. -1.
         13    1    4    4    0    0  0.55941656270E+01 -0.25032241182E+01  0.65661806127E+01  0.89825782448E+01  0.10566000000E+00 0. -1.
        -13    1    4    4    0    0  0.24802223331E+02 -0.10185078589E+02  0.33752815568E+02  0.43106262083E+02  0.10566000000E+00 0.  1.
        -14    1    4    4    0    0  0.47831994856E+01 -0.23285986374E+01  0.61666975125E+01  0.81442941464E+01  0.00000000000E+00 0.  1.
<mgrwt>
<rscale>  0 0.83032210E+02</rscale>
<asrwt>0</asrwt>
<pdfrwt beam="1">  1        1 0.26769067E-01 0.83032210E+02</pdfrwt>
<pdfrwt beam="2">  1       -2 0.15239589E-02 0.83032210E+02</pdfrwt>
<totfact> 0.14698899E+05</totfact>
</mgrwt>
</event>
<event>
 8    1  0.1372337E-024  0.7879123E+02  0.7818608E-02  0.1332517E+00
          1   -1    0    0  501    0  0.00000000000E+00  0.00000000000E+00  0.24912911486E+03  0.24912911491E+03  0.50400000000E-02 0. -1.
         -2   -1    0    0    0  501 -0.00000000000E+00 -0.00000000000E+00 -0.62297596057E+01  0.62297601276E+01  0.25500000000E-02 0.  1.
        -24    2    1    2    0    0 -0.35527136788E-14 -0.71054273576E-14  0.24289935525E+03  0.25535887503E+03  0.78791232240E+02 0.  0.
         66    2    3    3    0    0 -0.17030298153E+02 -0.32804151722E+02  0.77581239363E+02  0.85959246848E+02  0.19999980216E+01 0.  0.
         13    1    3    3    0    0  0.17030298153E+02  0.32804151722E+02  0.16531811589E+03  0.16939962819E+03  0.10566000000E+00 0. -1.
         13    1    4    4    0    0 -0.93659162224E+00 -0.11222957844E+01  0.27014845369E+01  0.30734238942E+01  0.10566000000E+00 0. -1.
        -13    1    4    4    0    0 -0.12596120894E+02 -0.24302697132E+02  0.57863286288E+02  0.64011361598E+02  0.10566000000E+00 0.  1.
         14    1    4    4    0    0 -0.34975856376E+01 -0.73791588058E+01  0.17016468538E+02  0.18874461356E+02  0.00000000000E+00 0. -1.
<mgrwt>
<rscale>  0 0.78791232E+02</rscale>
<asrwt>0</asrwt>
<pdfrwt beam="1">  1        1 0.38327553E-01 0.78791232E+02</pdfrwt>
<pdfrwt beam="2">  1       -2 0.95842469E-03 0.78791232E+02</pdfrwt>
<totfact> 0.18117802E+05</totfact>
</mgrwt>
</event>
<event>
 8    1  0.1372337E-024  0.8177124E+02  0.7818608E-02  0.1324099E+00
         -2   -1    0    0    0  501 -0.00000000000E+00  0.00000000000E+00  0.25148321623E+02  0.25148321753E+02  0.25500000000E-02 0.  1.
          1   -1    0    0  501    0  0.00000000000E+00 -0.00000000000E+00 -0.66470999934E+02  0.66471000125E+02  0.50400000000E-02 0. -1.
        -24    2    1    2    0    0  0.00000000000E+00  0.00000000000E+00 -0.41322678311E+02  0.91619321878E+02  0.81771244326E+02 0.  0.
         66    2    3    3    0    0 -0.82456785918E+01 -0.20592020371E+02  0.17775471017E+02  0.28495436253E+02  0.19999997475E+01 0.  0.
         13    1    3    3    0    0  0.82456785918E+01  0.20592020371E+02 -0.59098149327E+02  0.63123885625E+02  0.10566000000E+00 0. -1.
         13    1    4    4    0    0 -0.53510344952E+00 -0.19791283716E+01  0.10978845248E+01  0.23280462363E+01  0.10566000000E+00 0. -1.
        -13    1    4    4    0    0 -0.39851276915E+00 -0.97834524277E+00  0.10897857520E+01  0.15214364470E+01  0.10566000000E+00 0.  1.
        -14    1    4    4    0    0 -0.73120623732E+01 -0.17634546756E+02  0.15587800740E+02  0.24645953570E+02  0.00000000000E+00 0.  1.
<mgrwt>
<rscale>  0 0.81771244E+02</rscale>
<asrwt>0</asrwt>
<pdfrwt beam="1">  1        1 0.10226308E-01 0.81771244E+02</pdfrwt>
<pdfrwt beam="2">  1       -2 0.38689726E-02 0.81771244E+02</pdfrwt>
<totfact> 0.12954161E+05</totfact>
</mgrwt>
</event>
<event>
 8    1  0.1372337E-024  0.7926238E+02  0.7818608E-02  0.1331158E+00
          1   -1    0    0  501    0  0.00000000000E+00  0.00000000000E+00  0.19103624090E+03  0.19103624097E+03  0.50400000000E-02 0. -1.
         -2   -1    0    0    0  501 -0.00000000000E+00 -0.00000000000E+00 -0.82216399068E+01  0.82216403023E+01  0.25500000000E-02 0.  1.
        -24    2    1    2    0    0  0.35527136788E-14  0.00000000000E+00  0.18281460100E+03  0.19925788127E+03  0.79262380178E+02 0.  0.
         66    2    3    3    0    0  0.27916687214E+02 -0.22131790697E+02  0.47961844527E+02  0.59778726286E+02  0.20000003500E+01 0.  0.
         13    1    3    3    0    0 -0.27916687214E+02  0.22131790697E+02  0.13485275647E+03  0.13947915499E+03  0.10566000000E+00 0. -1.
         13    1    4    4    0    0  0.11324961260E+02 -0.87524962239E+01  0.20276923669E+02  0.24819865737E+02  0.10566000000E+00 0. -1.
        -13    1    4    4    0    0  0.77090180132E+01 -0.66425455215E+01  0.13994012145E+02  0.17303060703E+02  0.10566000000E+00 0.  1.
        -14    1    4    4    0    0  0.88827079404E+01 -0.67367489512E+01  0.13690908713E+02  0.17655799845E+02  0.00000000000E+00 0.  1.
<mgrwt>
<rscale>  0 0.79262380E+02</rscale>
<asrwt>0</asrwt>
<pdfrwt beam="1">  1        1 0.29390188E-01 0.79262380E+02</pdfrwt>
<pdfrwt beam="2">  1       -2 0.12648678E-02 0.79262380E+02</pdfrwt>
<totfact> 0.16938190E+05</totfact>
</mgrwt>
</event>
<event>
 8    1  0.1372337E-024  0.7896751E+02  0.7818608E-02  0.1332007E+00
         -2   -1    0    0    0  501 -0.00000000000E+00  0.00000000000E+00  0.31120923313E+03  0.31120923314E+03  0.25500000000E-02 0.  1.
          1   -1    0    0  501    0  0.00000000000E+00 -0.00000000000E+00 -0.50093841789E+01  0.50093867143E+01  0.50400000000E-02 0. -1.
        -24    2    1    2    0    0  0.00000000000E+00  0.00000000000E+00  0.30619984895E+03  0.31621861986E+03  0.78967512594E+02 0.  0.
         66    2    3    3    0    0  0.20367917326E+02  0.32678342853E+02  0.18769999600E+03  0.19161945268E+03  0.19999995718E+01 0.  0.
         13    1    3    3    0    0 -0.20367917326E+02 -0.32678342853E+02  0.11849985295E+03  0.12459916718E+03  0.10566000000E+00 0. -1.
         13    1    4    4    0    0  0.12086772620E+01  0.24169274394E+01  0.14619665541E+02  0.14867690592E+02  0.10566000000E+00 0. -1.
        -13    1    4    4    0    0  0.20239054941E+01  0.26822739397E+01  0.17329903250E+02  0.17652974186E+02  0.10566000000E+00 0.  1.
        -14    1    4    4    0    0  0.17135334569E+02  0.27579141474E+02  0.15575042721E+03  0.15909878790E+03  0.00000000000E+00 0.  1.
<mgrwt>
<rscale>  0 0.78967513E+02</rscale>
<asrwt>0</asrwt>
<pdfrwt beam="1">  1        1 0.77067457E-03 0.78967513E+02</pdfrwt>
<pdfrwt beam="2">  1       -2 0.47878351E-01 0.78967513E+02</pdfrwt>
<totfact> 0.71213160E+04</totfact>
</mgrwt>
</event>
<event>
 8    1  0.1372337E-024  0.7941199E+02  0.7818608E-02  0.1330728E+00
         -2   -1    0    0    0  501 -0.00000000000E+00  0.00000000000E+00  0.12861171106E+03  0.12861171109E+03  0.25500000000E-02 0.  1.
          1   -1    0    0  501    0  0.00000000000E+00 -0.00000000000E+00 -0.12258339800E+02  0.12258340836E+02  0.50400000000E-02 0. -1.
        -24    2    1    2    0    0  0.00000000000E+00  0.17763568394E-14  0.11635337126E+03  0.14087005192E+03  0.79411992323E+02 0.  0.
         66    2    3    3    0    0 -0.38929713170E+02  0.67160161277E+01  0.64835142927E+02  0.75948819225E+02  0.19999858096E+01 0.  0.
         13    1    3    3    0    0  0.38929713170E+02 -0.67160161277E+01  0.51518228334E+02  0.64921232697E+02  0.10566000000E+00 0. -1.
         13    1    4    4    0    0 -0.12823547771E+01  0.55355231651E-01  0.21898063697E+01  0.25404554608E+01  0.10566000000E+00 0. -1.
        -13    1    4    4    0    0 -0.28832768632E+02  0.45042284698E+01  0.48478042114E+02  0.56583993783E+02  0.10566000000E+00 0.  1.
        -14    1    4    4    0    0 -0.88145897610E+01  0.21564324262E+01  0.14167294443E+02  0.16824369982E+02  0.00000000000E+00 0.  1.
<mgrwt>
<rscale>  0 0.79411992E+02</rscale>
<asrwt>0</asrwt>
<pdfrwt beam="1">  1        1 0.18858986E-02 0.79411992E+02</pdfrwt>
<pdfrwt beam="2">  1       -2 0.19786416E-01 0.79411992E+02</pdfrwt>
<totfact> 0.10104479E+05</totfact>
</mgrwt>
</event>
<event>
 8    1  0.1372337E-024  0.8239786E+02  0.7818608E-02  0.1322381E+00
          1   -1    0    0  501    0  0.00000000000E+00  0.00000000000E+00  0.30016932052E+02  0.30016932475E+02  0.50400000000E-02 0. -1.
         -2   -1    0    0    0  501 -0.00000000000E+00 -0.00000000000E+00 -0.56546484172E+02  0.56546484229E+02  0.25500000000E-02 0.  1.
        -24    2    1    2    0    0  0.17763568394E-14  0.71054273576E-14 -0.26529552120E+02  0.86563416704E+02  0.82397863903E+02 0.  0.
         66    2    3    3    0    0  0.10802432259E+02  0.33177694171E+02 -0.36238534836E+02  0.50345638713E+02  0.19999992715E+01 0.  0.
         13    1    3    3    0    0 -0.10802432259E+02 -0.33177694171E+02  0.97089827157E+01  0.36217777992E+02  0.10566000000E+00 0. -1.
         13    1    4    4    0    0  0.37821549624E+01  0.13787984354E+02 -0.15361208294E+02  0.20985497207E+02  0.10566000000E+00 0. -1.
        -13    1    4    4    0    0  0.33220347079E+01  0.10324992675E+02 -0.11344839970E+02  0.15695793906E+02  0.10566000000E+00 0.  1.
        -14    1    4    4    0    0  0.36982425891E+01  0.90647171414E+01 -0.95324865715E+01  0.13664347600E+02  0.00000000000E+00 0.  1.
<mgrwt>
<rscale>  0 0.82397864E+02</rscale>
<asrwt>0</asrwt>
<pdfrwt beam="1">  1        1 0.46179896E-02 0.82397864E+02</pdfrwt>
<pdfrwt beam="2">  1       -2 0.86994591E-02 0.82397864E+02</pdfrwt>
<totfact> 0.11108630E+05</totfact>
</mgrwt>
</event>
<event>
 8    1  0.1372337E-024  0.8433041E+02  0.7818608E-02  0.1317193E+00
          1   -1    0    0  501    0  0.00000000000E+00  0.00000000000E+00  0.19809103694E+02  0.19809104336E+02  0.50400000000E-02 0. -1.
         -2   -1    0    0    0  501 -0.00000000000E+00 -0.00000000000E+00 -0.89751898296E+02  0.89751898332E+02  0.25500000000E-02 0.  1.
        -24    2    1    2    0    0  0.00000000000E+00 -0.11102230246E-15 -0.69942794601E+02  0.10956100267E+03  0.84330414376E+02 0.  0.
         66    2    3    3    0    0 -0.36644195264E+02 -0.90966837504E+00 -0.62002710672E+02  0.72055261241E+02  0.19999996982E+01 0.  0.
         13    1    3    3    0    0  0.36644195264E+02  0.90966837504E+00 -0.79400839293E+01  0.37505741426E+02  0.10566000000E+00 0. -1.
         13    1    4    4    0    0 -0.51699040103E+01  0.17142691494E+00 -0.79766642160E+01  0.95076616848E+01  0.10566000000E+00 0. -1.
        -13    1    4    4    0    0 -0.22107083080E+02 -0.59984925273E+00 -0.36827109044E+02  0.42957305153E+02  0.10566000000E+00 0.  1.
         14    1    4    4    0    0 -0.93672081740E+01 -0.48124603724E+00 -0.17198937412E+02  0.19590294404E+02  0.00000000000E+00 0. -1.
<mgrwt>
<rscale>  0 0.84330414E+02</rscale>
<asrwt>0</asrwt>
<pdfrwt beam="1">  1        1 0.30475545E-02 0.84330414E+02</pdfrwt>
<pdfrwt beam="2">  1       -2 0.13807984E-01 0.84330414E+02</pdfrwt>
<totfact> 0.95185233E+04</totfact>
</mgrwt>
</event>
<event>
 8    1  0.1372337E-024  0.7365399E+02  0.7818608E-02  0.1348091E+00
         -2   -1    0    0    0  501 -0.00000000000E+00  0.00000000000E+00  0.66284668485E+02  0.66284668534E+02  0.25500000000E-02 0.  1.
          1   -1    0    0  501    0  0.00000000000E+00 -0.00000000000E+00 -0.20460650242E+02  0.20460650863E+02  0.50400000000E-02 0. -1.
        -24    2    1    2    0    0  0.00000000000E+00  0.22204460493E-15  0.45824018243E+02  0.86745319397E+02  0.73653986922E+02 0.  0.
         66    2    3    3    0    0  0.16969513436E+02  0.14475146497E+01  0.61348545525E+02  0.63700107394E+02  0.19999897397E+01 0.  0.
         13    1    3    3    0    0 -0.16969513436E+02 -0.14475146497E+01 -0.15524527283E+02  0.23045212004E+02  0.10566000000E+00 0. -1.
         13    1    4    4    0    0  0.49806702354E+01  0.15296174529E+00  0.15607557198E+02  0.16384061737E+02  0.10566000000E+00 0.  1.
        -13    1    4    4    0    0  0.26570721077E+01  0.31848064603E+00  0.85418069682E+01  0.89518206207E+01  0.10566000000E+00 0. -1.
         14    1    4    4    0    0  0.93317710930E+01  0.97607225837E+00  0.37199181359E+02  0.38364225036E+02  0.00000000000E+00 0. -1.
<mgrwt>
<rscale>  0 0.73653987E+02</rscale>
<asrwt>0</asrwt>
<pdfrwt beam="1">  1        1 0.31477923E-02 0.73653987E+02</pdfrwt>
<pdfrwt beam="2">  1       -2 0.10197642E-01 0.73653987E+02</pdfrwt>
<totfact> 0.14320124E+05</totfact>
</mgrwt>
</event>
<event>
 8    1  0.1372337E-024  0.8473958E+02  0.7818608E-02  0.1316115E+00
         -2   -1    0    0    0  501 -0.00000000000E+00  0.00000000000E+00  0.12324616201E+03  0.12324616204E+03  0.25500000000E-02 0.  1.
          1   -1    0    0  501    0  0.00000000000E+00 -0.00000000000E+00 -0.14565964310E+02  0.14565965182E+02  0.50400000000E-02 0. -1.
        -24    2    1    2    0    0  0.00000000000E+00 -0.35527136788E-14  0.10868019770E+03  0.13781212722E+03  0.84739583646E+02 0.  0.
         66    2    3    3    0    0 -0.93394357550E+00  0.21509924450E+02  0.11367223544E+03  0.11571052761E+03  0.19999977096E+01 0.  0.
         13    1    3    3    0    0  0.93394357550E+00 -0.21509924450E+02 -0.49920377342E+01  0.22101599608E+02  0.10566000000E+00 0. -1.
         13    1    4    4    0    0 -0.76792676069E+00  0.71591835747E+01  0.41181957452E+02  0.41806798545E+02  0.10566000000E+00 0. -1.
        -13    1    4    4    0    0  0.10321903893E+00  0.61678939738E+01  0.33444856843E+02  0.34009163229E+02  0.10566000000E+00 0.  1.
         14    1    4    4    0    0 -0.26923585375E+00  0.81828469015E+01  0.39045421142E+02  0.39894565840E+02  0.00000000000E+00 0. -1.
<mgrwt>
<rscale>  0 0.84739584E+02</rscale>
<asrwt>0</asrwt>
<pdfrwt beam="1">  1        1 0.22409177E-02 0.84739584E+02</pdfrwt>
<pdfrwt beam="2">  1       -2 0.18960947E-01 0.84739584E+02</pdfrwt>
<totfact> 0.86575209E+04</totfact>
</mgrwt>
</event>
<event>
 8    1  0.1372337E-024  0.7916662E+02  0.7818608E-02  0.1331433E+00
         -2   -1    0    0    0  501 -0.00000000000E+00  0.00000000000E+00  0.10258708903E+02  0.10258709220E+02  0.25500000000E-02 0.  1.
          1   -1    0    0  501    0  0.00000000000E+00 -0.00000000000E+00 -0.15273252230E+03  0.15273252238E+03  0.50400000000E-02 0. -1.
        -24    2    1    2    0    0  0.35527136788E-14 -0.17763568394E-14 -0.14247381339E+03  0.16299123160E+03  0.79166622231E+02 0.  0.
         66    2    3    3    0    0  0.25006369413E+02 -0.12315810509E+02 -0.13493934029E+02  0.31033593910E+02  0.19999989095E+01 0.  0.
         13    1    3    3    0    0 -0.25006369413E+02  0.12315810509E+02 -0.12897987936E+03  0.13195763769E+03  0.10566000000E+00 0. -1.
         13    1    4    4    0    0  0.73990564347E+01 -0.36466652399E+01 -0.31290294039E+01  0.88230489368E+01  0.10566000000E+00 0. -1.
        -13    1    4    4    0    0  0.16754112088E+01 -0.58268049486E+00 -0.96158757336E+00  0.20204786499E+01  0.10566000000E+00 0.  1.
        -14    1    4    4    0    0  0.15931901770E+02 -0.80864647743E+01 -0.94033170516E+01  0.20190066323E+02  0.00000000000E+00 0.  1.
<mgrwt>
<rscale>  0 0.79166622E+02</rscale>
<asrwt>0</asrwt>
<pdfrwt beam="1">  1        1 0.23497310E-01 0.79166622E+02</pdfrwt>
<pdfrwt beam="2">  1       -2 0.15782630E-02 0.79166622E+02</pdfrwt>
<totfact> 0.16290266E+05</totfact>
</mgrwt>
</event>
<event>
 8    1  0.1372337E-024  0.8089279E+02  0.7818608E-02  0.1326537E+00
          1   -1    0    0  501    0  0.00000000000E+00  0.00000000000E+00  0.68158180378E+01  0.68158199012E+01  0.50400000000E-02 0. -1.
         -2   -1    0    0    0  501 -0.00000000000E+00 -0.00000000000E+00 -0.24001678259E+03  0.24001678260E+03  0.25500000000E-02 0.  1.
        -24    2    1    2    0    0  0.00000000000E+00  0.00000000000E+00 -0.23320096455E+03  0.24683260250E+03  0.80892791961E+02 0.  0.
         66    2    3    3    0    0 -0.18739744829E+02  0.20283339359E+02 -0.20674153831E+03  0.20858728524E+03  0.20000018901E+01 0.  0.
         13    1    3    3    0    0  0.18739744829E+02 -0.20283339359E+02 -0.26459426238E+02  0.38245317265E+02  0.10566000000E+00 0. -1.
         13    1    4    4    0    0 -0.58199232647E+01  0.67239800432E+01 -0.70047324347E+02  0.70609646839E+02  0.10566000000E+00 0. -1.
        -13    1    4    4    0    0 -0.63265667238E+01  0.75638799550E+01 -0.70694460217E+02  0.71378957655E+02  0.10566000000E+00 0.  1.
        -14    1    4    4    0    0 -0.65932548401E+01  0.59954793608E+01 -0.65999753749E+02  0.66598680746E+02  0.00000000000E+00 0.  1.
<mgrwt>
<rscale>  0 0.80892792E+02</rscale>
<asrwt>0</asrwt>
<pdfrwt beam="1">  1        1 0.10485877E-02 0.80892792E+02</pdfrwt>
<pdfrwt beam="2">  1       -2 0.36925652E-01 0.80892792E+02</pdfrwt>
<totfact> 0.76384467E+04</totfact>
</mgrwt>
</event>
<event>
 8    1  0.1372337E-024  0.8094946E+02  0.7818608E-02  0.1326378E+00
         -2   -1    0    0    0  501 -0.00000000000E+00  0.00000000000E+00  0.32140242279E+02  0.32140242380E+02  0.25500000000E-02 0.  1.
          1   -1    0    0  501    0  0.00000000000E+00 -0.00000000000E+00 -0.50970490293E+02  0.50970490542E+02  0.50400000000E-02 0. -1.
        -24    2    1    2    0    0  0.00000000000E+00  0.00000000000E+00 -0.18830248014E+02  0.83110732922E+02  0.80949463782E+02 0.  0.
         66    2    3    3    0    0  0.32452860818E+02 -0.20010268851E+02  0.44528806770E+01  0.38437314871E+02  0.19999983452E+01 0.  0.
         13    1    3    3    0    0 -0.32452860818E+02  0.20010268851E+02 -0.23283128691E+02  0.44673418052E+02  0.10566000000E+00 0. -1.
         13    1    4    4    0    0  0.94741559534E+01 -0.61037150990E+01  0.18078022617E+01  0.11414652079E+02  0.10566000000E+00 0.  1.
        -13    1    4    4    0    0  0.10332255230E+02 -0.63894596954E+01  0.18554131972E+01  0.12289605995E+02  0.10566000000E+00 0. -1.
        -14    1    4    4    0    0  0.12646449634E+02 -0.75170940570E+01  0.78966521808E+00  0.14733056797E+02  0.00000000000E+00 0.  1.
<mgrwt>
<rscale>  0 0.80949464E+02</rscale>
<asrwt>0</asrwt>
<pdfrwt beam="1">  1        1 0.78416140E-02 0.80949464E+02</pdfrwt>
<pdfrwt beam="2">  1       -2 0.49446527E-02 0.80949464E+02</pdfrwt>
<totfact> 0.12770842E+05</totfact>
</mgrwt>
</event>
<event>
 8    1  0.1372337E-024  0.7962212E+02  0.7818608E-02  0.1330127E+00
          1   -1    0    0  501    0  0.00000000000E+00  0.00000000000E+00  0.67062611833E+01  0.67062630772E+01  0.50400000000E-02 0. -1.
         -2   -1    0    0    0  501 -0.00000000000E+00 -0.00000000000E+00 -0.23633442781E+03  0.23633442782E+03  0.25500000000E-02 0.  1.
        -24    2    1    2    0    0  0.00000000000E+00  0.00000000000E+00 -0.22962816662E+03  0.24304069090E+03  0.79622123340E+02 0.  0.
         66    2    3    3    0    0 -0.15787729743E+02  0.10792625169E+02 -0.22137981938E+03  0.22221331553E+03  0.20000000832E+01 0.  0.
         13    1    3    3    0    0  0.15787729743E+02 -0.10792625169E+02 -0.82483472408E+01  0.20827375368E+02  0.10566000000E+00 0. -1.
         13    1    4    4    0    0 -0.11137535679E+01  0.66726327208E+00 -0.17798281849E+02  0.17845887147E+02  0.10566000000E+00 0. -1.
        -13    1    4    4    0    0 -0.49584281542E+01  0.38274201021E+01 -0.79832333467E+02  0.80077760865E+02  0.10566000000E+00 0.  1.
        -14    1    4    4    0    0 -0.97155480213E+01  0.62979417945E+01 -0.12374920407E+03  0.12428966752E+03  0.00000000000E+00 0.  1.
<mgrwt>
<rscale>  0 0.79622123E+02</rscale>
<asrwt>0</asrwt>
<pdfrwt beam="1">  1        1 0.10317328E-02 0.79622123E+02</pdfrwt>
<pdfrwt beam="2">  1       -2 0.36359136E-01 0.79622123E+02</pdfrwt>
<totfact> 0.80140873E+04</totfact>
</mgrwt>
</event>
<event>
 8    1  0.1372337E-024  0.7740045E+02  0.7818608E-02  0.1336595E+00
          1   -1    0    0  501    0  0.00000000000E+00  0.00000000000E+00  0.45133385715E+01  0.45133413856E+01  0.50400000000E-02 0. -1.
         -2   -1    0    0    0  501 -0.00000000000E+00 -0.00000000000E+00 -0.33184014308E+03  0.33184014309E+03  0.25500000000E-02 0.  1.
        -24    2    1    2    0    0  0.71054273576E-14  0.00000000000E+00 -0.32732680451E+03  0.33635348447E+03  0.77400449411E+02 0.  0.
         66    2    3    3    0    0 -0.36950934712E+02  0.11074318706E+02 -0.15172129514E+03  0.15656105361E+03  0.19999996328E+01 0.  0.
         13    1    3    3    0    0  0.36950934712E+02 -0.11074318706E+02 -0.17560550937E+03  0.17979243087E+03  0.10566000000E+00 0. -1.
         13    1    4    4    0    0 -0.89316825827E+01  0.33928199386E+01 -0.38619849902E+02  0.39784295285E+02  0.10566000000E+00 0.  1.
        -13    1    4    4    0    0 -0.14844424843E+01  0.57654195514E+00 -0.59735319986E+01  0.61830590074E+01  0.10566000000E+00 0.  1.
         14    1    4    4    0    0 -0.26534809645E+02  0.71049568119E+01 -0.10712791324E+03  0.11059369932E+03  0.00000000000E+00 0. -1.
<mgrwt>
<rscale>  0 0.77400449E+02</rscale>
<asrwt>0</asrwt>
<pdfrwt beam="1">  1        1 0.69436026E-03 0.77400449E+02</pdfrwt>
<pdfrwt beam="2">  1       -2 0.51052311E-01 0.77400449E+02</pdfrwt>
<totfact> 0.72293808E+04</totfact>
</mgrwt>
</event>
<event>
 8    1  0.1372337E-024  0.8343128E+02  0.7818608E-02  0.1319587E+00
          1   -1    0    0  501    0  0.00000000000E+00  0.00000000000E+00  0.23929198195E+03  0.23929198200E+03  0.50400000000E-02 0. -1.
         -2   -1    0    0    0  501 -0.00000000000E+00 -0.00000000000E+00 -0.72722646373E+01  0.72722650843E+01  0.25500000000E-02 0.  1.
        -24    2    1    2    0    0 -0.71054273576E-14  0.00000000000E+00  0.23201971731E+03  0.24656424709E+03  0.83431281423E+02 0.  0.
         66    2    3    3    0    0  0.32226615462E+02  0.18284505334E+02  0.59591347684E+02  0.70199761727E+02  0.19999870721E+01 0.  0.
         13    1    3    3    0    0 -0.32226615462E+02 -0.18284505334E+02  0.17242836963E+03  0.17636448536E+03  0.10566000000E+00 0. -1.
         13    1    4    4    0    0  0.25880623591E+01  0.16830317213E+01  0.54636120562E+01  0.62763750116E+01  0.10566000000E+00 0. -1.
        -13    1    4    4    0    0  0.12148986990E+02  0.75178200574E+01  0.23539049736E+02  0.27535677399E+02  0.10566000000E+00 0.  1.
        -14    1    4    4    0    0  0.17489566113E+02  0.90836535558E+01  0.30588685892E+02  0.36387709317E+02  0.00000000000E+00 0.  1.
<mgrwt>
<rscale>  0 0.83431281E+02</rscale>
<asrwt>0</asrwt>
<pdfrwt beam="1">  1        1 0.36814150E-01 0.83431281E+02</pdfrwt>
<pdfrwt beam="2">  1       -2 0.11188100E-02 0.83431281E+02</pdfrwt>
<totfact> 0.15447251E+05</totfact>
</mgrwt>
</event>
<event>
 8    1  0.1372337E-024  0.8018371E+02  0.7818608E-02  0.1328531E+00
         -2   -1    0    0    0  501 -0.00000000000E+00  0.00000000000E+00  0.15123417201E+02  0.15123417416E+02  0.25500000000E-02 0.  1.
          1   -1    0    0  501    0  0.00000000000E+00 -0.00000000000E+00 -0.10628264451E+03  0.10628264463E+03  0.50400000000E-02 0. -1.
        -24    2    1    2    0    0  0.00000000000E+00  0.00000000000E+00 -0.91159227309E+02  0.12140606204E+03  0.80183708929E+02 0.  0.
         66    2    3    3    0    0  0.13563794554E+02  0.30637641647E+02 -0.12342129052E+02  0.35762686644E+02  0.19999995213E+01 0.  0.
         13    1    3    3    0    0 -0.13563794554E+02 -0.30637641647E+02 -0.78817098256E+02  0.85643375400E+02  0.10566000000E+00 0. -1.
         13    1    4    4    0    0  0.24532978086E+01  0.59155150402E+01 -0.17524894287E+01  0.66403592946E+01  0.10566000000E+00 0. -1.
        -13    1    4    4    0    0  0.94073484048E+01  0.19891841340E+02 -0.84324330201E+01  0.23564817983E+02  0.10566000000E+00 0.  1.
        -14    1    4    4    0    0  0.17031483401E+01  0.48302852671E+01 -0.21572066036E+01  0.55575093667E+01  0.00000000000E+00 0.  1.
<mgrwt>
<rscale>  0 0.80183709E+02</rscale>
<asrwt>0</asrwt>
<pdfrwt beam="1">  1        1 0.16351176E-01 0.80183709E+02</pdfrwt>
<pdfrwt beam="2">  1       -2 0.23266797E-02 0.80183709E+02</pdfrwt>
<totfact> 0.14759927E+05</totfact>
</mgrwt>
</event>
<event>
 8    1  0.1372337E-024  0.8017159E+02  0.7818608E-02  0.1328565E+00
          1   -1    0    0  501    0  0.00000000000E+00  0.00000000000E+00  0.98752614337E+01  0.98752627198E+01  0.50400000000E-02 0. -1.
         -2   -1    0    0    0  501 -0.00000000000E+00 -0.00000000000E+00 -0.16271679803E+03  0.16271679805E+03  0.25500000000E-02 0.  1.
        -24    2    1    2    0    0  0.00000000000E+00  0.35527136788E-14 -0.15284153659E+03  0.17259206076E+03  0.80171591798E+02 0.  0.
         66    2    3    3    0    0  0.19495238166E+02 -0.22820729316E+02 -0.13358864083E+03  0.13693346914E+03  0.20000032398E+01 0.  0.
         13    1    3    3    0    0 -0.19495238166E+02  0.22820729316E+02 -0.19252895758E+02  0.35658591626E+02  0.10566000000E+00 0. -1.
         13    1    4    4    0    0  0.12798653950E+02 -0.14398306834E+02 -0.86892794961E+02  0.89002728962E+02  0.10566000000E+00 0. -1.
        -13    1    4    4    0    0  0.23409017722E+01 -0.22878138684E+01 -0.13172458092E+02  0.13573456804E+02  0.10566000000E+00 0.  1.
         14    1    4    4    0    0  0.43556824430E+01 -0.61346086135E+01 -0.33523387781E+02  0.34357283372E+02  0.00000000000E+00 0. -1.
<mgrwt>
<rscale>  0 0.80171592E+02</rscale>
<asrwt>0</asrwt>
<pdfrwt beam="1">  1        1 0.15192712E-02 0.80171592E+02</pdfrwt>
<pdfrwt beam="2">  1       -2 0.25033352E-01 0.80171592E+02</pdfrwt>
<totfact> 0.91437773E+04</totfact>
</mgrwt>
</event>
<event>
 8    1  0.1372337E-024  0.8052680E+02  0.7818608E-02  0.1327563E+00
         -2   -1    0    0    0  501 -0.00000000000E+00  0.00000000000E+00  0.14352337942E+03  0.14352337944E+03  0.25500000000E-02 0.  1.
          1   -1    0    0  501    0  0.00000000000E+00 -0.00000000000E+00 -0.11295312197E+02  0.11295313321E+02  0.50400000000E-02 0. -1.
        -24    2    1    2    0    0  0.00000000000E+00  0.00000000000E+00  0.13222806722E+03  0.15481869276E+03  0.80526802169E+02 0.  0.
         66    2    3    3    0    0 -0.20621298974E+02  0.34346940609E+02  0.58913412673E+02  0.71272298249E+02  0.20000010856E+01 0.  0.
         13    1    3    3    0    0  0.20621298974E+02 -0.34346940609E+02  0.73314654550E+02  0.83546394515E+02  0.10566000000E+00 0. -1.
         13    1    4    4    0    0 -0.18043402883E+02  0.29472606095E+02  0.51731957333E+02  0.62212582901E+02  0.10566000000E+00 0. -1.
        -13    1    4    4    0    0 -0.13012222202E+01  0.23024845485E+01  0.36377277378E+01  0.44987599950E+01  0.10566000000E+00 0.  1.
         14    1    4    4    0    0 -0.12766738705E+01  0.25718499652E+01  0.35437276025E+01  0.45609553534E+01  0.00000000000E+00 0. -1.
<mgrwt>
<rscale>  0 0.80526802E+02</rscale>
<asrwt>0</asrwt>
<pdfrwt beam="1">  1        1 0.17377403E-02 0.80526802E+02</pdfrwt>
<pdfrwt beam="2">  1       -2 0.22080522E-01 0.80526802E+02</pdfrwt>
<totfact> 0.94264158E+04</totfact>
</mgrwt>
</event>
<event>
 8    1  0.1372337E-024  0.7903211E+02  0.7818608E-02  0.1331821E+00
         -2   -1    0    0    0  501 -0.00000000000E+00  0.00000000000E+00  0.41510326764E+03  0.41510326765E+03  0.25500000000E-02 0.  1.
          1   -1    0    0  501    0  0.00000000000E+00 -0.00000000000E+00 -0.37617573049E+01  0.37617606812E+01  0.50400000000E-02 0. -1.
        -24    2    1    2    0    0  0.35527136788E-14  0.00000000000E+00  0.41134151034E+03  0.41886502833E+03  0.79032106339E+02 0.  0.
         66    2    3    3    0    0  0.30615212942E+02  0.22443887610E+02  0.26349455365E+03  0.26622246179E+03  0.20000009585E+01 0.  0.
         13    1    3    3    0    0 -0.30615212942E+02 -0.22443887610E+02  0.14784695669E+03  0.15264256654E+03  0.10566000000E+00 0. -1.
         13    1    4    4    0    0  0.95165165297E+01  0.64690814111E+01  0.81557095596E+02  0.82364944650E+02  0.10566000000E+00 0. -1.
        -13    1    4    4    0    0  0.12929486148E+02  0.89327839473E+01  0.10862560481E+03  0.10975654616E+03  0.10566000000E+00 0.  1.
        -14    1    4    4    0    0  0.81692102642E+01  0.70420222512E+01  0.73311853246E+02  0.74100970980E+02  0.00000000000E+00 0.  1.
<mgrwt>
<rscale>  0 0.79032106E+02</rscale>
<asrwt>0</asrwt>
<pdfrwt beam="1">  1        1 0.57873202E-03 0.79032106E+02</pdfrwt>
<pdfrwt beam="2">  1       -2 0.63862057E-01 0.79032106E+02</pdfrwt>
<totfact> 0.59482771E+04</totfact>
</mgrwt>
</event>
<event>
 8    1  0.1372337E-024  0.7939315E+02  0.7818608E-02  0.1330782E+00
          1   -1    0    0  501    0  0.00000000000E+00  0.00000000000E+00  0.93199470502E+01  0.93199484130E+01  0.50400000000E-02 0. -1.
         -2   -1    0    0    0  501 -0.00000000000E+00 -0.00000000000E+00 -0.16908013408E+03  0.16908013410E+03  0.25500000000E-02 0.  1.
        -24    2    1    2    0    0  0.00000000000E+00  0.35527136788E-14 -0.15976018703E+03  0.17840008252E+03  0.79393148827E+02 0.  0.
         66    2    3    3    0    0 -0.24842595159E+02  0.29600116074E+02 -0.10009050163E+03  0.10730997121E+03  0.19999994758E+01 0.  0.
         13    1    3    3    0    0  0.24842595159E+02 -0.29600116074E+02 -0.59669685401E+02  0.71090111307E+02  0.10566000000E+00 0. -1.
         13    1    4    4    0    0 -0.12440342924E+01  0.21667065735E+01 -0.69673304106E+01  0.74025060475E+01  0.10566000000E+00 0. -1.
        -13    1    4    4    0    0 -0.87831462240E+01  0.10218139819E+02 -0.34342223986E+02  0.36891103959E+02  0.10566000000E+00 0.  1.
         14    1    4    4    0    0 -0.14815414643E+02  0.17215269681E+02 -0.58780947236E+02  0.63016361203E+02  0.00000000000E+00 0. -1.
<mgrwt>
<rscale>  0 0.79393149E+02</rscale>
<asrwt>0</asrwt>
<pdfrwt beam="1">  1        1 0.14338382E-02 0.79393149E+02</pdfrwt>
<pdfrwt beam="2">  1       -2 0.26012326E-01 0.79393149E+02</pdfrwt>
<totfact> 0.92503534E+04</totfact>
</mgrwt>
</event>
<event>
 8    1  0.1372337E-024  0.7918734E+02  0.7818608E-02  0.1331374E+00
         -2   -1    0    0    0  501 -0.00000000000E+00  0.00000000000E+00  0.14376099960E+03  0.14376099962E+03  0.25500000000E-02 0.  1.
          1   -1    0    0  501    0  0.00000000000E+00 -0.00000000000E+00 -0.10904617038E+02  0.10904618203E+02  0.50400000000E-02 0. -1.
        -24    2    1    2    0    0 -0.35527136788E-14  0.00000000000E+00  0.13285638256E+03  0.15466561782E+03  0.79187340843E+02 0.  0.
         66    2    3    3    0    0  0.25983349625E+02  0.29381982048E+02  0.76660343582E+02  0.86135031312E+02  0.20000035204E+01 0.  0.
         13    1    3    3    0    0 -0.25983349625E+02 -0.29381982048E+02  0.56196038976E+02  0.68530586511E+02  0.10566000000E+00 0. -1.
         13    1    4    4    0    0  0.15801407115E+02  0.17440354944E+02  0.44382135821E+02  0.50235799898E+02  0.10566000000E+00 0. -1.
        -13    1    4    4    0    0  0.80632716533E+01  0.93695599753E+01  0.24701071414E+02  0.27621714228E+02  0.10566000000E+00 0.  1.
         14    1    4    4    0    0  0.21186708575E+01  0.25720671291E+01  0.75771363474E+01  0.82775171849E+01  0.00000000000E+00 0. -1.
<mgrwt>
<rscale>  0 0.79187341E+02</rscale>
<asrwt>0</asrwt>
<pdfrwt beam="1">  1        1 0.16776336E-02 0.79187341E+02</pdfrwt>
<pdfrwt beam="2">  1       -2 0.22117076E-01 0.79187341E+02</pdfrwt>
<totfact> 0.98368268E+04</totfact>
</mgrwt>
</event>
<event>
 8    1  0.1372337E-024  0.8159400E+02  0.7818608E-02  0.1324588E+00
          1   -1    0    0  501    0  0.00000000000E+00  0.00000000000E+00  0.25676621695E+02  0.25676622190E+02  0.50400000000E-02 0. -1.
         -2   -1    0    0    0  501 -0.00000000000E+00 -0.00000000000E+00 -0.64821417859E+02  0.64821417909E+02  0.25500000000E-02 0.  1.
        -24    2    1    2    0    0  0.00000000000E+00  0.00000000000E+00 -0.39144796163E+02  0.90498040099E+02  0.81593996073E+02 0.  0.
         66    2    3    3    0    0  0.23867038919E+02 -0.21756028194E+02 -0.47188441544E+02  0.57216337850E+02  0.19999980230E+01 0.  0.
         13    1    3    3    0    0 -0.23867038919E+02  0.21756028194E+02  0.80436453806E+01  0.33281702249E+02  0.10566000000E+00 0. -1.
         13    1    4    4    0    0  0.53359822157E+01 -0.47082764701E+01 -0.98621574736E+01  0.12161985348E+02  0.10566000000E+00 0. -1.
        -13    1    4    4    0    0  0.23890667746E+01 -0.19722592233E+01 -0.55300714345E+01  0.63395820528E+01  0.10566000000E+00 0.  1.
         14    1    4    4    0    0  0.16141989929E+02 -0.15075492501E+02 -0.31796212636E+02  0.38714770450E+02  0.00000000000E+00 0. -1.
<mgrwt>
<rscale>  0 0.81593996E+02</rscale>
<asrwt>0</asrwt>
<pdfrwt beam="1">  1        1 0.39502496E-02 0.81593996E+02</pdfrwt>
<pdfrwt beam="2">  1       -2 0.99725258E-02 0.81593996E+02</pdfrwt>
<totfact> 0.11097287E+05</totfact>
</mgrwt>
</event>
<event>
 8    1  0.1372337E-024  0.7621895E+02  0.7818608E-02  0.1340137E+00
          1   -1    0    0  501    0  0.00000000000E+00  0.00000000000E+00  0.11421596749E+03  0.11421596760E+03  0.50400000000E-02 0. -1.
         -2   -1    0    0    0  501 -0.00000000000E+00 -0.00000000000E+00 -0.12715666606E+02  0.12715666861E+02  0.25500000000E-02 0.  1.
        -24    2    1    2    0    0 -0.44408920985E-15  0.00000000000E+00  0.10150030088E+03  0.12693163446E+03  0.76218952680E+02 0.  0.
         66    2    3    3    0    0 -0.34901701050E+01  0.28050151551E+02  0.82830224645E+01  0.29522885115E+02  0.19999987348E+01 0.  0.
         13    1    3    3    0    0  0.34901701050E+01 -0.28050151551E+02  0.93217278417E+02  0.97408749345E+02  0.10566000000E+00 0. -1.
         13    1    4    4    0    0 -0.64045727925E-01  0.36357609148E+00  0.14227451300E+00  0.40950641290E+00  0.10566000000E+00 0.  1.
        -13    1    4    4    0    0 -0.24890120113E+01  0.23006233541E+02  0.73140329791E+01  0.24269079196E+02  0.10566000000E+00 0.  1.
        -14    1    4    4    0    0 -0.93711236577E+00  0.46803419184E+01  0.82671497241E+00  0.48442995061E+01  0.00000000000E+00 0.  1.
<mgrwt>
<rscale>  0 0.76218953E+02</rscale>
<asrwt>0</asrwt>
<pdfrwt beam="1">  1        1 0.17571688E-01 0.76218953E+02</pdfrwt>
<pdfrwt beam="2">  1       -2 0.19562564E-02 0.76218953E+02</pdfrwt>
<totfact> 0.17122560E+05</totfact>
</mgrwt>
</event>
<event>
 8    1  0.1372337E-024  0.7838220E+02  0.7818608E-02  0.1333706E+00
          1   -1    0    0  501    0  0.00000000000E+00  0.00000000000E+00  0.70869208997E+02  0.70869209177E+02  0.50400000000E-02 0. -1.
         -2   -1    0    0    0  501 -0.00000000000E+00 -0.00000000000E+00 -0.21672916990E+02  0.21672917140E+02  0.25500000000E-02 0.  1.
        -24    2    1    2    0    0  0.00000000000E+00  0.35527136788E-14  0.49196292007E+02  0.92542126317E+02  0.78382204588E+02 0.  0.
         66    2    3    3    0    0 -0.24895975665E+02 -0.30213808419E+02  0.23292135020E+02  0.45598326548E+02  0.20000016721E+01 0.  0.
         13    1    3    3    0    0  0.24895975665E+02  0.30213808419E+02  0.25904156987E+02  0.46943799769E+02  0.10566000000E+00 0. -1.
         13    1    4    4    0    0 -0.37480160954E+01 -0.54248033078E+01  0.35701986664E+01  0.74989064625E+01  0.10566000000E+00 0.  1.
        -13    1    4    4    0    0 -0.15115026033E+01 -0.19633274707E+01  0.12827064453E+01  0.27920950445E+01  0.10566000000E+00 0. -1.
        -14    1    4    4    0    0 -0.19636456966E+02 -0.22825677641E+02  0.18439229908E+02  0.35307325041E+02  0.00000000000E+00 0.  1.
<mgrwt>
<rscale>  0 0.78382205E+02</rscale>
<asrwt>0</asrwt>
<pdfrwt beam="1">  1        1 0.10902955E-01 0.78382205E+02</pdfrwt>
<pdfrwt beam="2">  1       -2 0.33342949E-02 0.78382205E+02</pdfrwt>
<totfact> 0.14695681E+05</totfact>
</mgrwt>
</event>
<event>
 8    1  0.1372337E-024  0.8058377E+02  0.7818608E-02  0.1327403E+00
          1   -1    0    0  501    0  0.00000000000E+00  0.00000000000E+00  0.28668494408E+03  0.28668494413E+03  0.50400000000E-02 0. -1.
         -2   -1    0    0    0  501 -0.00000000000E+00 -0.00000000000E+00 -0.56627867747E+01  0.56627873489E+01  0.25500000000E-02 0.  1.
        -24    2    1    2    0    0  0.00000000000E+00  0.00000000000E+00  0.28102215731E+03  0.29234773147E+03  0.80583765120E+02 0.  0.
         66    2    3    3    0    0 -0.36965067899E+02 -0.50074843724E+01  0.19560960748E+03  0.19914469517E+03  0.19999827901E+01 0.  0.
         13    1    3    3    0    0  0.36965067899E+02  0.50074843724E+01  0.85412549827E+02  0.93203036305E+02  0.10566000000E+00 0. -1.
         13    1    4    4    0    0 -0.36230287101E+01 -0.85801936646E+00  0.19862902325E+02  0.20209121383E+02  0.10566000000E+00 0. -1.
        -13    1    4    4    0    0 -0.26587499556E+02 -0.27202702237E+01  0.13937482143E+03  0.14191422415E+03  0.10566000000E+00 0.  1.
        -14    1    4    4    0    0 -0.67545396327E+01 -0.14291947822E+01  0.36371883723E+02  0.37021349637E+02  0.00000000000E+00 0.  1.
<mgrwt>
<rscale>  0 0.80583765E+02</rscale>
<asrwt>0</asrwt>
<pdfrwt beam="1">  1        1 0.44105365E-01 0.80583765E+02</pdfrwt>
<pdfrwt beam="2">  1       -2 0.87119823E-03 0.80583765E+02</pdfrwt>
<totfact> 0.17545492E+05</totfact>
</mgrwt>
</event>
<event>
 8    1  0.1372337E-024  0.8050816E+02  0.7818608E-02  0.1327616E+00
         -2   -1    0    0    0  501 -0.00000000000E+00  0.00000000000E+00  0.30736782926E+02  0.30736783032E+02  0.25500000000E-02 0.  1.
          1   -1    0    0  501    0  0.00000000000E+00 -0.00000000000E+00 -0.52718295352E+02  0.52718295593E+02  0.50400000000E-02 0. -1.
        -24    2    1    2    0    0  0.00000000000E+00 -0.88817841970E-15 -0.21981512426E+02  0.83455078625E+02  0.80508156480E+02 0.  0.
         66    2    3    3    0    0  0.38998070528E+02  0.65773222055E+01 -0.18634357686E+02  0.43764711012E+02  0.19999928255E+01 0.  0.
         13    1    3    3    0    0 -0.38998070528E+02 -0.65773222055E+01 -0.33471547404E+01  0.39690367613E+02  0.10566000000E+00 0. -1.
         13    1    4    4    0    0  0.96678097652E+00  0.26874618056E+00 -0.71366507503E+00  0.12358688608E+01  0.10566000000E+00 0. -1.
        -13    1    4    4    0    0  0.10989802910E+02  0.23266253925E+01 -0.50331111634E+01  0.12309846698E+02  0.10566000000E+00 0.  1.
        -14    1    4    4    0    0  0.27041486642E+02  0.39819506325E+01 -0.12887581448E+02  0.30218995454E+02  0.00000000000E+00 0.  1.
<mgrwt>
<rscale>  0 0.80508156E+02</rscale>
<asrwt>0</asrwt>
<pdfrwt beam="1">  1        1 0.81105070E-02 0.80508156E+02</pdfrwt>
<pdfrwt beam="2">  1       -2 0.47287358E-02 0.80508156E+02</pdfrwt>
<totfact> 0.13035806E+05</totfact>
</mgrwt>
</event>
<event>
 8    1  0.1372337E-024  0.7986242E+02  0.7818608E-02  0.1329442E+00
         -2   -1    0    0    0  501 -0.00000000000E+00  0.00000000000E+00  0.14935639780E+02  0.14935639997E+02  0.25500000000E-02 0.  1.
          1   -1    0    0  501    0  0.00000000000E+00 -0.00000000000E+00 -0.10675816801E+03  0.10675816813E+03  0.50400000000E-02 0. -1.
        -24    2    1    2    0    0  0.00000000000E+00  0.35527136788E-14 -0.91822528235E+02  0.12169380813E+03  0.79862420737E+02 0.  0.
         66    2    3    3    0    0 -0.31307612709E+02  0.16556905617E+02 -0.17917141237E+02  0.39740680500E+02  0.19999998439E+01 0.  0.
         13    1    3    3    0    0  0.31307612709E+02 -0.16556905617E+02 -0.73905386998E+02  0.81953127630E+02  0.10566000000E+00 0. -1.
         13    1    4    4    0    0 -0.24050206174E+01  0.18098589459E+01 -0.17934343940E+01  0.35053223155E+01  0.10566000000E+00 0. -1.
        -13    1    4    4    0    0 -0.17506513830E+02  0.87521058382E+01 -0.95851909333E+01  0.21793678725E+02  0.10566000000E+00 0.  1.
         14    1    4    4    0    0 -0.11396078261E+02  0.59949408327E+01 -0.65385159098E+01  0.14441679460E+02  0.00000000000E+00 0. -1.
<mgrwt>
<rscale>  0 0.79862421E+02</rscale>
<asrwt>0</asrwt>
<pdfrwt beam="1">  1        1 0.16424333E-01 0.79862421E+02</pdfrwt>
<pdfrwt beam="2">  1       -2 0.22977908E-02 0.79862421E+02</pdfrwt>
<totfact> 0.14932012E+05</totfact>
</mgrwt>
</event>
<event>
 8    1  0.1372337E-024  0.8113990E+02  0.7818608E-02  0.1325847E+00
          1   -1    0    0  501    0  0.00000000000E+00  0.00000000000E+00  0.26972920184E+02  0.26972920655E+02  0.50400000000E-02 0. -1.
         -2   -1    0    0    0  501 -0.00000000000E+00 -0.00000000000E+00 -0.61021231778E+02  0.61021231832E+02  0.25500000000E-02 0.  1.
        -24    2    1    2    0    0  0.00000000000E+00 -0.17763568394E-14 -0.34048311594E+02  0.87994152487E+02  0.81139899861E+02 0.  0.
         66    2    3    3    0    0 -0.97285837232E+01  0.81297003465E+01 -0.58799813398E+02  0.60184345321E+02  0.19999992816E+01 0.  0.
         13    1    3    3    0    0  0.97285837232E+01 -0.81297003465E+01  0.24751501804E+02  0.27809807166E+02  0.10566000000E+00 0. -1.
         13    1    4    4    0    0 -0.31653053005E+01  0.27032576386E+01 -0.17137298554E+02  0.17635898766E+02  0.10566000000E+00 0. -1.
        -13    1    4    4    0    0 -0.66294268342E+01  0.54299628958E+01 -0.41399023629E+02  0.42276756246E+02  0.10566000000E+00 0.  1.
         14    1    4    4    0    0  0.66148411493E-01 -0.35201879403E-02 -0.26349121470E+00  0.27169030953E+00  0.00000000000E+00 0. -1.
<mgrwt>
<rscale>  0 0.81139900E+02</rscale>
<asrwt>0</asrwt>
<pdfrwt beam="1">  1        1 0.41496801E-02 0.81139900E+02</pdfrwt>
<pdfrwt beam="2">  1       -2 0.93878818E-02 0.81139900E+02</pdfrwt>
<totfact> 0.11386513E+05</totfact>
</mgrwt>
</event>
<event>
 8    1  0.1372337E-024  0.8023904E+02  0.7818608E-02  0.1328374E+00
         -2   -1    0    0    0  501 -0.00000000000E+00  0.00000000000E+00  0.11307335537E+03  0.11307335540E+03  0.25500000000E-02 0.  1.
          1   -1    0    0  501    0  0.00000000000E+00 -0.00000000000E+00 -0.14234793144E+02  0.14234794036E+02  0.50400000000E-02 0. -1.
        -24    2    1    2    0    0 -0.71054273576E-14 -0.88817841970E-15  0.98838562226E+02  0.12730814943E+03  0.80239039933E+02 0.  0.
         66    2    3    3    0    0  0.23509117213E+02  0.42895672829E+01  0.10053019953E+03  0.10335085868E+03  0.19999977608E+01 0.  0.
         13    1    3    3    0    0 -0.23509117213E+02 -0.42895672829E+01 -0.16916373087E+01  0.23957290758E+02  0.10566000000E+00 0. -1.
         13    1    4    4    0    0  0.82974687808E+01  0.16563528384E+01  0.32504239963E+02  0.33587620822E+02  0.10566000000E+00 0. -1.
        -13    1    4    4    0    0  0.13081457667E+02  0.19011268413E+01  0.58195103094E+02  0.59677634053E+02  0.10566000000E+00 0.  1.
        -14    1    4    4    0    0  0.21301907655E+01  0.73208760321E+00  0.98308564783E+01  0.10085603802E+02  0.00000000000E+00 0.  1.
<mgrwt>
<rscale>  0 0.80239040E+02</rscale>
<asrwt>0</asrwt>
<pdfrwt beam="1">  1        1 0.21899682E-02 0.80239040E+02</pdfrwt>
<pdfrwt beam="2">  1       -2 0.17395901E-01 0.80239040E+02</pdfrwt>
<totfact> 0.10202641E+05</totfact>
</mgrwt>
</event>
<event>
 8    1  0.1372337E-024  0.7739414E+02  0.7818608E-02  0.1336613E+00
          1   -1    0    0  501    0  0.00000000000E+00  0.00000000000E+00  0.22350950984E+02  0.22350951552E+02  0.50400000000E-02 0. -1.
         -2   -1    0    0    0  501 -0.00000000000E+00 -0.00000000000E+00 -0.66997748315E+02  0.66997748363E+02  0.25500000000E-02 0.  1.
        -24    2    1    2    0    0  0.00000000000E+00 -0.35527136788E-14 -0.44646797331E+02  0.89348699915E+02  0.77394144899E+02 0.  0.
         66    2    3    3    0    0 -0.12493285005E+02  0.26652790178E+02 -0.51292174233E+02  0.59172126341E+02  0.20000009068E+01 0.  0.
         13    1    3    3    0    0  0.12493285005E+02 -0.26652790178E+02  0.66453769013E+01  0.30176573575E+02  0.10566000000E+00 0. -1.
         13    1    4    4    0    0 -0.29409529714E+01  0.74564918213E+01 -0.14559318074E+02  0.16620270199E+02  0.10566000000E+00 0. -1.
        -13    1    4    4    0    0 -0.77049186959E+01  0.16115575016E+02 -0.31306994163E+02  0.36044647005E+02  0.10566000000E+00 0.  1.
         14    1    4    4    0    0 -0.18474133377E+01  0.30807233416E+01 -0.54258619954E+01  0.65072091361E+01  0.00000000000E+00 0. -1.
<mgrwt>
<rscale>  0 0.77394145E+02</rscale>
<asrwt>0</asrwt>
<pdfrwt beam="1">  1        1 0.34386079E-02 0.77394145E+02</pdfrwt>
<pdfrwt beam="2">  1       -2 0.10307346E-01 0.77394145E+02</pdfrwt>
<totfact> 0.12607270E+05</totfact>
</mgrwt>
</event>
<event>
 8    1  0.1372337E-024  0.8343349E+02  0.7818608E-02  0.1319581E+00
          1   -1    0    0  501    0  0.00000000000E+00  0.00000000000E+00  0.18859161414E+02  0.18859162088E+02  0.50400000000E-02 0. -1.
         -2   -1    0    0    0  501 -0.00000000000E+00 -0.00000000000E+00 -0.92278050286E+02  0.92278050321E+02  0.25500000000E-02 0.  1.
        -24    2    1    2    0    0  0.00000000000E+00  0.00000000000E+00 -0.73418888871E+02  0.11113721241E+03  0.83433486915E+02 0.  0.
         66    2    3    3    0    0  0.16935046406E+02 -0.10845263202E+02 -0.85379626523E+02  0.87738794942E+02  0.19999954914E+01 0.  0.
         13    1    3    3    0    0 -0.16935046406E+02  0.10845263202E+02  0.11960737652E+02  0.23398417466E+02  0.10566000000E+00 0. -1.
         13    1    4    4    0    0  0.33062388461E+01 -0.28239545929E+01 -0.16959281808E+02  0.17508122068E+02  0.10566000000E+00 0. -1.
        -13    1    4    4    0    0  0.10782243505E+02 -0.67831989319E+01 -0.55068214114E+02  0.56522455117E+02  0.10566000000E+00 0.  1.
        -14    1    4    4    0    0  0.28465640554E+01 -0.12381096773E+01 -0.13352130601E+02  0.13708217757E+02  0.00000000000E+00 0.  1.
<mgrwt>
<rscale>  0 0.83433487E+02</rscale>
<asrwt>0</asrwt>
<pdfrwt beam="1">  1        1 0.29014096E-02 0.83433487E+02</pdfrwt>
<pdfrwt beam="2">  1       -2 0.14196623E-01 0.83433487E+02</pdfrwt>
<totfact> 0.97185985E+04</totfact>
</mgrwt>
</event>
<event>
 8    1  0.1372337E-024  0.8014580E+02  0.7818608E-02  0.1328638E+00
          1   -1    0    0  501    0  0.00000000000E+00  0.00000000000E+00  0.36229096125E+02  0.36229096475E+02  0.50400000000E-02 0. -1.
         -2   -1    0    0    0  501 -0.00000000000E+00 -0.00000000000E+00 -0.44324521890E+02  0.44324521963E+02  0.25500000000E-02 0.  1.
        -24    2    1    2    0    0  0.00000000000E+00  0.00000000000E+00 -0.80954257650E+01  0.80553618439E+02  0.80145801669E+02 0.  0.
         66    2    3    3    0    0 -0.39824489472E+02 -0.37420763601E+01 -0.60196174382E+01  0.40499739208E+02  0.19999961671E+01 0.  0.
         13    1    3    3    0    0  0.39824489472E+02  0.37420763601E+01 -0.20758083268E+01  0.40053879230E+02  0.10566000000E+00 0. -1.
         13    1    4    4    0    0 -0.58809454079E+00 -0.46646133070E-01  0.25599728171E-01  0.59987534732E+00  0.10566000000E+00 0. -1.
        -13    1    4    4    0    0 -0.13494483818E+02 -0.10249380439E+01 -0.27572586528E+01  0.13811778699E+02  0.10566000000E+00 0.  1.
        -14    1    4    4    0    0 -0.25741911113E+02 -0.26704921831E+01 -0.32879585136E+01  0.26088085162E+02  0.00000000000E+00 0.  1.
<mgrwt>
<rscale>  0 0.80145802E+02</rscale>
<asrwt>0</asrwt>
<pdfrwt beam="1">  1        1 0.55737071E-02 0.80145802E+02</pdfrwt>
<pdfrwt beam="2">  1       -2 0.68191572E-02 0.80145802E+02</pdfrwt>
<totfact> 0.12428100E+05</totfact>
</mgrwt>
</event>
<event>
 8    1  0.1372337E-024  0.7990609E+02  0.7818608E-02  0.1329318E+00
         -2   -1    0    0    0  501 -0.00000000000E+00  0.00000000000E+00  0.32335364036E+01  0.32335374091E+01  0.25500000000E-02 0.  1.
          1   -1    0    0  501    0  0.00000000000E+00 -0.00000000000E+00 -0.49365319841E+03  0.49365319843E+03  0.50400000000E-02 0. -1.
        -24    2    1    2    0    0 -0.17763568394E-14  0.00000000000E+00 -0.49041966200E+03  0.49688673584E+03  0.79906090982E+02 0.  0.
         66    2    3    3    0    0 -0.14375219605E+02 -0.36520008987E+02 -0.29100904227E+03  0.29365050772E+03  0.20000013972E+01 0.  0.
         13    1    3    3    0    0  0.14375219605E+02  0.36520008987E+02 -0.19941061973E+03  0.20323622812E+03  0.10566000000E+00 0. -1.
         13    1    4    4    0    0 -0.24354350054E+01 -0.45194084887E+01 -0.38627634367E+02  0.38967444073E+02  0.10566000000E+00 0.  1.
        -13    1    4    4    0    0 -0.71116148445E+01 -0.18436977010E+02 -0.14793912416E+03  0.14925311658E+03  0.10566000000E+00 0.  1.
        -14    1    4    4    0    0 -0.48281697548E+01 -0.13563623489E+02 -0.10444228374E+03  0.10542994706E+03  0.00000000000E+00 0.  1.
<mgrwt>
<rscale>  0 0.79906091E+02</rscale>
<asrwt>0</asrwt>
<pdfrwt beam="1">  1        1 0.75946586E-01 0.79906091E+02</pdfrwt>
<pdfrwt beam="2">  1       -2 0.49746761E-03 0.79906091E+02</pdfrwt>
<totfact> 0.19638898E+05</totfact>
</mgrwt>
</event>
<event>
 8    1  0.1372337E-024  0.8896091E+02  0.7818608E-02  0.1305388E+00
          1   -1    0    0  501    0  0.00000000000E+00  0.00000000000E+00  0.11156844368E+03  0.11156844380E+03  0.50400000000E-02 0. -1.
         -2   -1    0    0    0  501 -0.00000000000E+00 -0.00000000000E+00 -0.17733606022E+02  0.17733606205E+02  0.25500000000E-02 0.  1.
        -24    2    1    2    0    0  0.00000000000E+00  0.00000000000E+00  0.93834837662E+02  0.12930205000E+03  0.88960909257E+02 0.  0.
         66    2    3    3    0    0 -0.20859826198E+02  0.29693973340E+02  0.96108814359E+01  0.37592997188E+02  0.19999984571E+01 0.  0.
         13    1    3    3    0    0  0.20859826198E+02 -0.29693973340E+02  0.84223956226E+02  0.91709052815E+02  0.10566000000E+00 0. -1.
         13    1    4    4    0    0 -0.15607446587E+02  0.23183029929E+02  0.75749336888E+01  0.28955760223E+02  0.10566000000E+00 0. -1.
        -13    1    4    4    0    0 -0.30757873321E+01  0.41690959814E+01  0.15065850350E+01  0.53965536704E+01  0.10566000000E+00 0.  1.
         14    1    4    4    0    0 -0.21765922791E+01  0.23418474301E+01  0.52936271203E+00  0.32406832947E+01  0.00000000000E+00 0. -1.
<mgrwt>
<rscale>  0 0.88960909E+02</rscale>
<asrwt>0</asrwt>
<pdfrwt beam="1">  1        1 0.17164376E-01 0.88960909E+02</pdfrwt>
<pdfrwt beam="2">  1       -2 0.27282471E-02 0.88960909E+02</pdfrwt>
<totfact> 0.11228627E+05</totfact>
</mgrwt>
</event>
<event>
 8    1  0.1372337E-024  0.8064694E+02  0.7818608E-02  0.1327225E+00
          1   -1    0    0  501    0  0.00000000000E+00  0.00000000000E+00  0.88878115404E+02  0.88878115547E+02  0.50400000000E-02 0. -1.
         -2   -1    0    0    0  501 -0.00000000000E+00 -0.00000000000E+00 -0.18294518949E+02  0.18294519126E+02  0.25500000000E-02 0.  1.
        -24    2    1    2    0    0  0.35527136788E-14  0.88817841970E-15  0.70583596455E+02  0.10717263467E+03  0.80646943738E+02 0.  0.
         66    2    3    3    0    0  0.29989816028E+02 -0.69843354973E+01  0.76667106385E+00  0.30866774853E+02  0.19999993940E+01 0.  0.
         13    1    3    3    0    0 -0.29989816028E+02  0.69843354973E+01  0.69816925391E+02  0.76305859820E+02  0.10566000000E+00 0. -1.
         13    1    4    4    0    0  0.10158068494E+02 -0.17863519622E+01  0.86177589475E+00  0.10350421759E+02  0.10566000000E+00 0. -1.
        -13    1    4    4    0    0  0.18222108829E+02 -0.49265286797E+01  0.59068961377E-01  0.18876720801E+02  0.10566000000E+00 0.  1.
        -14    1    4    4    0    0  0.16096387054E+01 -0.27145485540E+00 -0.15417379228E+00  0.16396322937E+01  0.00000000000E+00 0.  1.
<mgrwt>
<rscale>  0 0.80646944E+02</rscale>
<asrwt>0</asrwt>
<pdfrwt beam="1">  1        1 0.13673557E-01 0.80646944E+02</pdfrwt>
<pdfrwt beam="2">  1       -2 0.28145413E-02 0.80646944E+02</pdfrwt>
<totfact> 0.14102239E+05</totfact>
</mgrwt>
</event>
<event>
 8    1  0.1372337E-024  0.8038708E+02  0.7818608E-02  0.1327957E+00
         -2   -1    0    0    0  501 -0.00000000000E+00  0.00000000000E+00  0.85178216780E+01  0.85178220597E+01  0.25500000000E-02 0.  1.
          1   -1    0    0  501    0  0.00000000000E+00 -0.00000000000E+00 -0.18966358513E+03  0.18966358519E+03  0.50400000000E-02 0. -1.
        -24    2    1    2    0    0  0.00000000000E+00  0.00000000000E+00 -0.18114576345E+03  0.19818140725E+03  0.80387079593E+02 0.  0.
         66    2    3    3    0    0 -0.27270611477E+02 -0.16681135501E+02 -0.30666333461E+02  0.44343776793E+02  0.20000001084E+01 0.  0.
         13    1    3    3    0    0  0.27270611477E+02  0.16681135501E+02 -0.15047942999E+03  0.15383763046E+03  0.10566000000E+00 0. -1.
         13    1    4    4    0    0 -0.41362530734E+00 -0.31640904081E+00 -0.31696603055E+00  0.61873425321E+00  0.10566000000E+00 0. -1.
        -13    1    4    4    0    0 -0.16537065907E+02 -0.10295651755E+02 -0.17958086246E+02  0.26494886667E+02  0.10566000000E+00 0.  1.
         14    1    4    4    0    0 -0.10319920263E+02 -0.60690747053E+01 -0.12391281184E+02  0.17230155873E+02  0.00000000000E+00 0. -1.
<mgrwt>
<rscale>  0 0.80387080E+02</rscale>
<asrwt>0</asrwt>
<pdfrwt beam="1">  1        1 0.29179010E-01 0.80387080E+02</pdfrwt>
<pdfrwt beam="2">  1       -2 0.13104343E-02 0.80387080E+02</pdfrwt>
<totfact> 0.16293119E+05</totfact>
</mgrwt>
</event>
<event>
 8    1  0.1372337E-024  0.7310550E+02  0.7818608E-02  0.1349840E+00
          1   -1    0    0  501    0  0.00000000000E+00  0.00000000000E+00  0.11676536386E+02  0.11676537474E+02  0.50400000000E-02 0. -1.
         -2   -1    0    0    0  501 -0.00000000000E+00 -0.00000000000E+00 -0.11442635077E+03  0.11442635080E+03  0.25500000000E-02 0.  1.
        -24    2    1    2    0    0  0.22204460493E-15  0.00000000000E+00 -0.10274981439E+03  0.12610288828E+03  0.73105499622E+02 0.  0.
         66    2    3    3    0    0  0.17616811953E+01 -0.36136738636E+02 -0.42765916014E+02  0.56052573302E+02  0.20000003430E+01 0.  0.
         13    1    3    3    0    0 -0.17616811953E+01  0.36136738636E+02 -0.59983898373E+02  0.70050314974E+02  0.10566000000E+00 0. -1.
         13    1    4    4    0    0  0.19836973244E+01 -0.28853069140E+02 -0.33703936270E+02  0.44411722979E+02  0.10566000000E+00 0. -1.
        -13    1    4    4    0    0  0.47033410848E-01 -0.35884045528E+01 -0.41331738633E+01  0.54747739310E+01  0.10566000000E+00 0.  1.
         14    1    4    4    0    0 -0.26904953990E+00 -0.36952649432E+01 -0.49288058815E+01  0.61660763921E+01  0.00000000000E+00 0. -1.
<mgrwt>
<rscale>  0 0.73105500E+02</rscale>
<asrwt>0</asrwt>
<pdfrwt beam="1">  1        1 0.17963904E-02 0.73105500E+02</pdfrwt>
<pdfrwt beam="2">  1       -2 0.17604053E-01 0.73105500E+02</pdfrwt>
<totfact> 0.12904467E+05</totfact>
</mgrwt>
</event>
<event>
 8    1  0.1372337E-024  0.7903664E+02  0.7818608E-02  0.1331808E+00
          1   -1    0    0  501    0  0.00000000000E+00  0.00000000000E+00  0.28427230423E+03  0.28427230428E+03  0.50400000000E-02 0. -1.
         -2   -1    0    0    0  501 -0.00000000000E+00 -0.00000000000E+00 -0.54936678792E+01  0.54936684710E+01  0.25500000000E-02 0.  1.
        -24    2    1    2    0    0  0.00000000000E+00  0.00000000000E+00  0.27877863636E+03  0.28976597275E+03  0.79036642614E+02 0.  0.
         66    2    3    3    0    0  0.26490910367E+00  0.37114609711E+02  0.90000832883E+02  0.97374094858E+02  0.19999997700E+01 0.  0.
         13    1    3    3    0    0 -0.26490910367E+00 -0.37114609711E+02  0.18877780347E+03  0.19239187789E+03  0.10566000000E+00 0. -1.
         13    1    4    4    0    0 -0.60090382892E+00  0.61179991964E+01  0.14752048180E+02  0.15982023937E+02  0.10566000000E+00 0. -1.
        -13    1    4    4    0    0  0.38697563211E+00  0.24499718725E+02  0.59921813871E+02  0.64738094731E+02  0.10566000000E+00 0.  1.
         14    1    4    4    0    0  0.47883730047E+00  0.64968917889E+01  0.15326970832E+02  0.16653976191E+02  0.00000000000E+00 0. -1.
<mgrwt>
<rscale>  0 0.79036643E+02</rscale>
<asrwt>0</asrwt>
<pdfrwt beam="1">  1        1 0.43734212E-01 0.79036643E+02</pdfrwt>
<pdfrwt beam="2">  1       -2 0.84517950E-03 0.79036643E+02</pdfrwt>
<totfact> 0.18435918E+05</totfact>
</mgrwt>
</event>
<event>
 8    1  0.1372337E-024  0.7655741E+02  0.7818608E-02  0.1339115E+00
         -2   -1    0    0    0  501 -0.00000000000E+00  0.00000000000E+00  0.20864782131E+02  0.20864782287E+02  0.25500000000E-02 0.  1.
          1   -1    0    0  501    0  0.00000000000E+00 -0.00000000000E+00 -0.70226430816E+02  0.70226430997E+02  0.50400000000E-02 0. -1.
        -24    2    1    2    0    0 -0.35527136788E-14  0.00000000000E+00 -0.49361648685E+02  0.91091213283E+02  0.76557408371E+02 0.  0.
         66    2    3    3    0    0 -0.19451868477E+02 -0.23698550119E+01  0.14391227983E+02  0.24394647798E+02  0.19999995725E+01 0.  0.
         13    1    3    3    0    0  0.19451868477E+02  0.23698550119E+01 -0.63752876668E+02  0.66696565485E+02  0.10566000000E+00 0. -1.
         13    1    4    4    0    0 -0.64520269440E+01 -0.13551349984E+01  0.51000768314E+01  0.83358856921E+01  0.10566000000E+00 0.  1.
        -13    1    4    4    0    0 -0.27245753033E+01 -0.54262427397E+00  0.24482933120E+01  0.37044643153E+01  0.10566000000E+00 0. -1.
        -14    1    4    4    0    0 -0.10275266230E+02 -0.47209573955E+00  0.68428578400E+01  0.12354297791E+02  0.00000000000E+00 0.  1.
<mgrwt>
<rscale>  0 0.76557408E+02</rscale>
<asrwt>0</asrwt>
<pdfrwt beam="1">  1        1 0.10804066E-01 0.76557408E+02</pdfrwt>
<pdfrwt beam="2">  1       -2 0.32099665E-02 0.76557408E+02</pdfrwt>
<totfact> 0.15647546E+05</totfact>
</mgrwt>
</event>
<event>
 8    1  0.1372337E-024  0.8050722E+02  0.7818608E-02  0.1327618E+00
         -2   -1    0    0    0  501 -0.00000000000E+00  0.00000000000E+00  0.12420810868E+04  0.12420810868E+04  0.25500000000E-02 0.  1.
          1   -1    0    0  501    0  0.00000000000E+00 -0.00000000000E+00 -0.13045421970E+01  0.13045519328E+01  0.50400000000E-02 0. -1.
        -24    2    1    2    0    0 -0.35527136788E-14  0.00000000000E+00  0.12407765446E+04  0.12433856387E+04  0.80507223131E+02 0.  0.
         66    2    3    3    0    0 -0.21049118753E+02 -0.13952115172E+02  0.11044094755E+04  0.11046999668E+04  0.20000032130E+01 0.  0.
         13    1    3    3    0    0  0.21049118753E+02  0.13952115172E+02  0.13636706904E+03  0.13868567194E+03  0.10566000000E+00 0. -1.
         13    1    4    4    0    0 -0.54102098365E+01 -0.30642935481E+01  0.30086922670E+03  0.30093348602E+03  0.10566000000E+00 0. -1.
        -13    1    4    4    0    0 -0.99873013513E+01 -0.73012261633E+01  0.52860226622E+03  0.52874702941E+03  0.10566000000E+00 0.  1.
         14    1    4    4    0    0 -0.56516075648E+01 -0.35865954607E+01  0.27493798259E+03  0.27501945133E+03  0.00000000000E+00 0. -1.
<mgrwt>
<rscale>  0 0.80507223E+02</rscale>
<asrwt>0</asrwt>
<pdfrwt beam="1">  1        1 0.20069964E-03 0.80507223E+02</pdfrwt>
<pdfrwt beam="2">  1       -2 0.19108931E+00 0.80507223E+02</pdfrwt>
<totfact> 0.19489763E+04</totfact>
</mgrwt>
</event>
<event>
 8    1  0.1372337E-024  0.7069711E+02  0.7818608E-02  0.1357738E+00
          1   -1    0    0  501    0  0.00000000000E+00  0.00000000000E+00  0.35544822855E+02  0.35544823212E+02  0.50400000000E-02 0. -1.
         -2   -1    0    0    0  501 -0.00000000000E+00 -0.00000000000E+00 -0.35153369370E+02  0.35153369463E+02  0.25500000000E-02 0.  1.
        -24    2    1    2    0    0  0.00000000000E+00  0.17763568394E-14  0.39145348440E+00  0.70698192675E+02  0.70697108934E+02 0.  0.
         66    2    3    3    0    0 -0.30838058048E+02 -0.10087297394E+02 -0.13760552751E+02  0.35300031177E+02  0.19999990442E+01 0.  0.
         13    1    3    3    0    0  0.30838058048E+02  0.10087297394E+02  0.14152006236E+02  0.35398161498E+02  0.10566000000E+00 0. -1.
         13    1    4    4    0    0 -0.10183920226E+01 -0.63101385825E+00 -0.66152799883E+00  0.13726194410E+01  0.10566000000E+00 0. -1.
        -13    1    4    4    0    0 -0.15438580927E+02 -0.47145515620E+01 -0.63022846329E+01  0.17329360436E+02  0.10566000000E+00 0.  1.
        -14    1    4    4    0    0 -0.14381085099E+02 -0.47417319733E+01 -0.67967401195E+01  0.16598051300E+02  0.00000000000E+00 0.  1.
<mgrwt>
<rscale>  0 0.70697109E+02</rscale>
<asrwt>0</asrwt>
<pdfrwt beam="1">  1        1 0.54684343E-02 0.70697109E+02</pdfrwt>
<pdfrwt beam="2">  1       -2 0.54082107E-02 0.70697109E+02</pdfrwt>
<totfact> 0.17607266E+05</totfact>
</mgrwt>
</event>
<event>
 8    1  0.1372337E-024  0.7949293E+02  0.7818608E-02  0.1330497E+00
          1   -1    0    0  501    0  0.00000000000E+00  0.00000000000E+00  0.19289875061E+03  0.19289875067E+03  0.50400000000E-02 0. -1.
         -2   -1    0    0    0  501 -0.00000000000E+00 -0.00000000000E+00 -0.81896925317E+01  0.81896929287E+01  0.25500000000E-02 0.  1.
        -24    2    1    2    0    0  0.71054273576E-14  0.00000000000E+00  0.18470905808E+03  0.20108844360E+03  0.79492930598E+02 0.  0.
         66    2    3    3    0    0  0.37592105160E+02 -0.12741419246E+02  0.88604547381E+02  0.97109607896E+02  0.19999985934E+01 0.  0.
         13    1    3    3    0    0 -0.37592105160E+02  0.12741419246E+02  0.96104510694E+02  0.10397883570E+03  0.10566000000E+00 0. -1.
         13    1    4    4    0    0  0.90521068296E+00 -0.33514322243E+00  0.29117053033E+01  0.30693515877E+01  0.10566000000E+00 0. -1.
        -13    1    4    4    0    0  0.10735899951E+02 -0.36866594468E+01  0.24413883937E+02  0.26923965134E+02  0.10566000000E+00 0.  1.
         14    1    4    4    0    0  0.25950994527E+02 -0.87196165769E+01  0.61278958141E+02  0.67116291174E+02  0.00000000000E+00 0. -1.
<mgrwt>
<rscale>  0 0.79492931E+02</rscale>
<asrwt>0</asrwt>
<pdfrwt beam="1">  1        1 0.29676731E-01 0.79492931E+02</pdfrwt>
<pdfrwt beam="2">  1       -2 0.12599527E-02 0.79492931E+02</pdfrwt>
<totfact> 0.16839558E+05</totfact>
</mgrwt>
</event>
<event>
 8    1  0.1372337E-024  0.8086341E+02  0.7818608E-02  0.1326619E+00
          1   -1    0    0  501    0  0.00000000000E+00  0.00000000000E+00  0.98147184916E+02  0.98147185046E+02  0.50400000000E-02 0. -1.
         -2   -1    0    0    0  501 -0.00000000000E+00 -0.00000000000E+00 -0.16655828378E+02  0.16655828573E+02  0.25500000000E-02 0.  1.
        -24    2    1    2    0    0 -0.35527136788E-14  0.00000000000E+00  0.81491356538E+02  0.11480301362E+03  0.80863407951E+02 0.  0.
         66    2    3    3    0    0 -0.22427425327E+02  0.33005094611E+02  0.31747572151E+02  0.51031696193E+02  0.20000004364E+01 0.  0.
         13    1    3    3    0    0  0.22427425327E+02 -0.33005094611E+02  0.49743784387E+02  0.63771317426E+02  0.10566000000E+00 0. -1.
         13    1    4    4    0    0 -0.18664839656E+01  0.32056090939E+01  0.32859227856E+01  0.49566263370E+01  0.10566000000E+00 0. -1.
        -13    1    4    4    0    0 -0.18685728987E+02  0.27749355356E+02  0.26341410879E+02  0.42580092550E+02  0.10566000000E+00 0.  1.
         14    1    4    4    0    0 -0.18752123744E+01  0.20501301606E+01  0.21202384865E+01  0.34949773052E+01  0.00000000000E+00 0. -1.
<mgrwt>
<rscale>  0 0.80863408E+02</rscale>
<asrwt>0</asrwt>
<pdfrwt beam="1">  1        1 0.15099567E-01 0.80863408E+02</pdfrwt>
<pdfrwt beam="2">  1       -2 0.25624351E-02 0.80863408E+02</pdfrwt>
<totfact> 0.14233500E+05</totfact>
</mgrwt>
</event>
<event>
 8    1  0.1372337E-024  0.7760506E+02  0.7818608E-02  0.1335989E+00
          1   -1    0    0  501    0  0.00000000000E+00  0.00000000000E+00  0.19787796012E+02  0.19787796654E+02  0.50400000000E-02 0. -1.
         -2   -1    0    0    0  501 -0.00000000000E+00 -0.00000000000E+00 -0.76089126535E+02  0.76089126577E+02  0.25500000000E-02 0.  1.
        -24    2    1    2    0    0 -0.35527136788E-14 -0.35527136788E-14 -0.56301330522E+02  0.95876923231E+02  0.77605055181E+02 0.  0.
         66    2    3    3    0    0  0.24896640457E+02  0.27279036267E+02 -0.42768649053E+02  0.56543309648E+02  0.19999996171E+01 0.  0.
         13    1    3    3    0    0 -0.24896640457E+02 -0.27279036267E+02 -0.13532681470E+02  0.39333613583E+02  0.10566000000E+00 0. -1.
         13    1    4    4    0    0  0.11013335088E+02  0.12581798504E+02 -0.18766577288E+02  0.25135448881E+02  0.10566000000E+00 0. -1.
        -13    1    4    4    0    0  0.73194012254E+01  0.70379115058E+01 -0.11428338454E+02  0.15288031807E+02  0.10566000000E+00 0.  1.
         14    1    4    4    0    0  0.65639041442E+01  0.76593262574E+01 -0.12573733311E+02  0.16119828960E+02  0.00000000000E+00 0. -1.
<mgrwt>
<rscale>  0 0.77605055E+02</rscale>
<asrwt>0</asrwt>
<pdfrwt beam="1">  1        1 0.30442764E-02 0.77605055E+02</pdfrwt>
<pdfrwt beam="2">  1       -2 0.11706019E-01 0.77605055E+02</pdfrwt>
<totfact> 0.12204170E+05</totfact>
</mgrwt>
</event>
<event>
 8    1  0.1372337E-024  0.8278239E+02  0.7818608E-02  0.1321336E+00
         -2   -1    0    0    0  501 -0.00000000000E+00  0.00000000000E+00  0.16680942370E+03  0.16680942372E+03  0.25500000000E-02 0.  1.
          1   -1    0    0  501    0  0.00000000000E+00 -0.00000000000E+00 -0.10270589235E+02  0.10270590471E+02  0.50400000000E-02 0. -1.
        -24    2    1    2    0    0 -0.35527136788E-14  0.00000000000E+00  0.15653883447E+03  0.17708001419E+03  0.82782393841E+02 0.  0.
         66    2    3    3    0    0  0.26720413458E+02  0.30375074694E+02  0.96790743001E+02  0.10492413255E+03  0.20000005354E+01 0.  0.
         13    1    3    3    0    0 -0.26720413458E+02 -0.30375074694E+02  0.59748091465E+02  0.72155881643E+02  0.10566000000E+00 0. -1.
         13    1    4    4    0    0  0.61628090535E+01  0.75663958848E+01  0.23889079919E+02  0.25805616938E+02  0.10566000000E+00 0. -1.
        -13    1    4    4    0    0  0.14922826495E+02  0.15911688801E+02  0.53084456393E+02  0.57392013954E+02  0.10566000000E+00 0.  1.
         14    1    4    4    0    0  0.56347779092E+01  0.68969900082E+01  0.19817206689E+02  0.21726501656E+02  0.00000000000E+00 0. -1.
<mgrwt>
<rscale>  0 0.82782394E+02</rscale>
<asrwt>0</asrwt>
<pdfrwt beam="1">  1        1 0.15800908E-02 0.82782394E+02</pdfrwt>
<pdfrwt beam="2">  1       -2 0.25662988E-01 0.82782394E+02</pdfrwt>
<totfact> 0.83453196E+04</totfact>
</mgrwt>
</event>
<event>
 8    1  0.1372337E-024  0.8281584E+02  0.7818608E-02  0.1321245E+00
         -2   -1    0    0    0  501 -0.00000000000E+00  0.00000000000E+00  0.46495999097E+02  0.46495999167E+02  0.25500000000E-02 0.  1.
          1   -1    0    0  501    0  0.00000000000E+00 -0.00000000000E+00 -0.36876635427E+02  0.36876635771E+02  0.50400000000E-02 0. -1.
        -24    2    1    2    0    0  0.00000000000E+00  0.00000000000E+00  0.96193636704E+01  0.83372634939E+02  0.82815844494E+02 0.  0.
         66    2    3    3    0    0 -0.21632854587E+02 -0.99724632447E+01  0.38880513812E+02  0.45641262152E+02  0.20000089564E+01 0.  0.
         13    1    3    3    0    0  0.21632854587E+02  0.99724632447E+01 -0.29261150141E+02  0.37731372787E+02  0.10566000000E+00 0. -1.
         13    1    4    4    0    0 -0.71873472952E+01 -0.39978934708E+01  0.12801921049E+02  0.15216486451E+02  0.10566000000E+00 0. -1.
        -13    1    4    4    0    0 -0.88286831984E+01 -0.39813529503E+01  0.15294078052E+02  0.18102950197E+02  0.10566000000E+00 0.  1.
        -14    1    4    4    0    0 -0.56168240932E+01 -0.19932168235E+01  0.10784514711E+02  0.12321825504E+02  0.00000000000E+00 0.  1.
<mgrwt>
<rscale>  0 0.82815844E+02</rscale>
<asrwt>0</asrwt>
<pdfrwt beam="1">  1        1 0.56733286E-02 0.82815844E+02</pdfrwt>
<pdfrwt beam="2">  1       -2 0.71532306E-02 0.82815844E+02</pdfrwt>
<totfact> 0.11356015E+05</totfact>
</mgrwt>
</event>
<event>
 8    1  0.1372337E-024  0.7506633E+02  0.7818608E-02  0.1343666E+00
         -2   -1    0    0    0  501 -0.00000000000E+00  0.00000000000E+00  0.23652033937E+02  0.23652034075E+02  0.25500000000E-02 0.  1.
          1   -1    0    0  501    0  0.00000000000E+00 -0.00000000000E+00 -0.59560989752E+02  0.59560989966E+02  0.50400000000E-02 0. -1.
        -24    2    1    2    0    0  0.35527136788E-14  0.35527136788E-14 -0.35908955815E+02  0.83213024040E+02  0.75066332415E+02 0.  0.
         66    2    3    3    0    0  0.19236079558E+02  0.18908229543E+02  0.10922337664E+02  0.29169253686E+02  0.19999998280E+01 0.  0.
         13    1    3    3    0    0 -0.19236079558E+02 -0.18908229543E+02 -0.46831293479E+02  0.54043770355E+02  0.10566000000E+00 0. -1.
         13    1    4    4    0    0  0.56028170121E+01  0.58198515384E+01  0.39209585973E+01  0.89803847778E+01  0.10566000000E+00 0. -1.
        -13    1    4    4    0    0  0.83538008088E+01  0.79505247529E+01  0.48782438237E+01  0.12522190649E+02  0.10566000000E+00 0.  1.
        -14    1    4    4    0    0  0.52794617370E+01  0.51378532519E+01  0.21231352429E+01  0.76666782592E+01  0.00000000000E+00 0.  1.
<mgrwt>
<rscale>  0 0.75066332E+02</rscale>
<asrwt>0</asrwt>
<pdfrwt beam="1">  1        1 0.91632292E-02 0.75066332E+02</pdfrwt>
<pdfrwt beam="2">  1       -2 0.36387745E-02 0.75066332E+02</pdfrwt>
<totfact> 0.16102843E+05</totfact>
</mgrwt>
</event>
<event>
 8    1  0.1372337E-024  0.8012481E+02  0.7818608E-02  0.1328698E+00
         -2   -1    0    0    0  501 -0.00000000000E+00  0.00000000000E+00  0.37921183888E+02  0.37921183974E+02  0.25500000000E-02 0.  1.
          1   -1    0    0  501    0  0.00000000000E+00 -0.00000000000E+00 -0.42324525817E+02  0.42324526117E+02  0.50400000000E-02 0. -1.
        -24    2    1    2    0    0  0.00000000000E+00 -0.17763568394E-14 -0.44033419291E+01  0.80245710091E+02  0.80124806196E+02 0.  0.
         66    2    3    3    0    0  0.30495995936E+02 -0.15661243335E+02  0.18509339737E+02  0.39011228694E+02  0.19999989608E+01 0.  0.
         13    1    3    3    0    0 -0.30495995936E+02  0.15661243335E+02 -0.22912681666E+02  0.41234481397E+02  0.10566000000E+00 0. -1.
         13    1    4    4    0    0  0.16294225988E+02 -0.77933990890E+01  0.10257506644E+02  0.20771771145E+02  0.10566000000E+00 0. -1.
        -13    1    4    4    0    0  0.70186366057E+01 -0.34381040134E+01  0.42981212436E+01  0.89200240622E+01  0.10566000000E+00 0.  1.
        -14    1    4    4    0    0  0.71831333421E+01 -0.44297402324E+01  0.39537118490E+01  0.93194334872E+01  0.00000000000E+00 0.  1.
<mgrwt>
<rscale>  0 0.80124806E+02</rscale>
<asrwt>0</asrwt>
<pdfrwt beam="1">  1        1 0.65114656E-02 0.80124806E+02</pdfrwt>
<pdfrwt beam="2">  1       -2 0.58340283E-02 0.80124806E+02</pdfrwt>
<totfact> 0.12757865E+05</totfact>
</mgrwt>
</event>
<event>
 8    1  0.1372337E-024  0.7888829E+02  0.7818608E-02  0.1332236E+00
         -2   -1    0    0    0  501 -0.00000000000E+00  0.00000000000E+00  0.43009103325E+02  0.43009103400E+02  0.25500000000E-02 0.  1.
          1   -1    0    0  501    0  0.00000000000E+00 -0.00000000000E+00 -0.36174677087E+02  0.36174677439E+02  0.50400000000E-02 0. -1.
        -24    2    1    2    0    0 -0.88817841970E-15  0.00000000000E+00  0.68344262374E+01  0.79183780839E+02  0.78888286621E+02 0.  0.
         66    2    3    3    0    0 -0.28341100362E+01 -0.14171144111E+02  0.40230770580E+02  0.42794490043E+02  0.19999928569E+01 0.  0.
         13    1    3    3    0    0  0.28341100362E+01  0.14171144111E+02 -0.33396344343E+02  0.36389290796E+02  0.10566000000E+00 0. -1.
         13    1    4    4    0    0 -0.21668300582E+01 -0.79507850728E+01  0.22816219286E+02  0.24259042898E+02  0.10566000000E+00 0.  1.
        -13    1    4    4    0    0 -0.75804397422E+00 -0.34482170408E+01  0.86820294329E+01  0.93730267543E+01  0.10566000000E+00 0.  1.
        -14    1    4    4    0    0  0.90763996134E-01 -0.27721419977E+01  0.87325218611E+01  0.91624203905E+01  0.00000000000E+00 0.  1.
<mgrwt>
<rscale>  0 0.78888287E+02</rscale>
<asrwt>0</asrwt>
<pdfrwt beam="1">  1        1 0.55653350E-02 0.78888287E+02</pdfrwt>
<pdfrwt beam="2">  1       -2 0.66167851E-02 0.78888287E+02</pdfrwt>
<totfact> 0.12994242E+05</totfact>
</mgrwt>
</event>
<event>
 8    1  0.1372337E-024  0.7902106E+02  0.7818608E-02  0.1331853E+00
          1   -1    0    0  501    0  0.00000000000E+00  0.00000000000E+00  0.36123078755E+01  0.36123113915E+01  0.50400000000E-02 0. -1.
         -2   -1    0    0    0  501 -0.00000000000E+00 -0.00000000000E+00 -0.43215613981E+03  0.43215613982E+03  0.25500000000E-02 0.  1.
        -24    2    1    2    0    0  0.00000000000E+00  0.00000000000E+00 -0.42854383194E+03  0.43576845121E+03  0.79021055296E+02 0.  0.
         66    2    3    3    0    0 -0.10391811172E+02 -0.66171664247E+01 -0.42128299422E+03  0.42146783726E+03  0.19999988621E+01 0.  0.
         13    1    3    3    0    0  0.10391811172E+02  0.66171664247E+01 -0.72608377135E+01  0.14300613947E+02  0.10566000000E+00 0. -1.
         13    1    4    4    0    0 -0.21066261976E+01 -0.18990899115E+01 -0.93806162867E+02  0.93849090418E+02  0.10566000000E+00 0. -1.
        -13    1    4    4    0    0 -0.24318152195E+01 -0.21057962571E+01 -0.11782546566E+03  0.11786941769E+03  0.10566000000E+00 0.  1.
         14    1    4    4    0    0 -0.58533697550E+01 -0.26122802562E+01 -0.20965136569E+03  0.20974932916E+03  0.00000000000E+00 0. -1.
<mgrwt>
<rscale>  0 0.79021055E+02</rscale>
<asrwt>0</asrwt>
<pdfrwt beam="1">  1        1 0.55574029E-03 0.79021055E+02</pdfrwt>
<pdfrwt beam="2">  1       -2 0.66485519E-01 0.79021055E+02</pdfrwt>
<totfact> 0.57877116E+04</totfact>
</mgrwt>
</event>
<event>
 8    1  0.1372337E-024  0.7430907E+02  0.7818608E-02  0.1346024E+00
          1   -1    0    0  501    0  0.00000000000E+00  0.00000000000E+00  0.22616690677E+02  0.22616691239E+02  0.50400000000E-02 0. -1.
         -2   -1    0    0    0  501 -0.00000000000E+00 -0.00000000000E+00 -0.61037198160E+02  0.61037198213E+02  0.25500000000E-02 0.  1.
        -24    2    1    2    0    0  0.17763568394E-14  0.00000000000E+00 -0.38420507482E+02  0.83653889452E+02  0.74309069603E+02 0.  0.
         66    2    3    3    0    0  0.14474382385E+02 -0.91800997735E+01 -0.56300197305E+02  0.58885432708E+02  0.19999978496E+01 0.  0.
         13    1    3    3    0    0 -0.14474382385E+02  0.91800997735E+01  0.17879689822E+02  0.24768456744E+02  0.10566000000E+00 0. -1.
         13    1    4    4    0    0  0.13134844706E+01 -0.80039483644E+00 -0.46023159603E+01  0.48536944262E+01  0.10566000000E+00 0. -1.
        -13    1    4    4    0    0  0.10692210793E+02 -0.59194459090E+01 -0.39929807796E+02  0.41758399469E+02  0.10566000000E+00 0.  1.
         14    1    4    4    0    0  0.24686871212E+01 -0.24602590281E+01 -0.11768073548E+02  0.12273338813E+02  0.00000000000E+00 0. -1.
<mgrwt>
<rscale>  0 0.74309070E+02</rscale>
<asrwt>0</asrwt>
<pdfrwt beam="1">  1        1 0.34794909E-02 0.74309070E+02</pdfrwt>
<pdfrwt beam="2">  1       -2 0.93903382E-02 0.74309070E+02</pdfrwt>
<totfact> 0.14220701E+05</totfact>
</mgrwt>
</event>
<event>
 8    1  0.1415907E-024  0.8122407E+02  0.7818608E-02  0.1325613E+00
          1   -1    0    0  501    0  0.00000000000E+00  0.00000000000E+00  0.53587188863E+01  0.53587212564E+01  0.50400000000E-02 0. -1.
         -2   -1    0    0    0  501 -0.00000000000E+00 -0.00000000000E+00 -0.30778571272E+03  0.30778571273E+03  0.25500000000E-02 0.  1.
        -24    2    1    2    0    0  0.17763568394E-14  0.00000000000E+00 -0.30242699383E+03  0.31314443398E+03  0.81224072403E+02 0.  0.
         66    2    3    3    0    0  0.93599153522E+01 -0.10604114968E+02 -0.29797306830E+03  0.29831527736E+03  0.20000001261E+01 0.  0.
         13    1    3    3    0    0 -0.93599153522E+01  0.10604114968E+02 -0.44539255273E+01  0.14829156628E+02  0.10566000000E+00 0. -1.
         13    1    4    4    0    0  0.22419134371E+01 -0.19779655786E+01 -0.59916538246E+02  0.59991176377E+02  0.10566000000E+00 0. -1.
        -13    1    4    4    0    0  0.63977457061E+01 -0.70253472606E+01 -0.20701122242E+03  0.20722920650E+03  0.10566000000E+00 0.  1.
         14    1    4    4    0    0  0.72025620893E+00 -0.16008021283E+01 -0.31045307638E+02  0.31094894481E+02  0.00000000000E+00 0. -1.
<mgrwt>
<rscale>  0 0.81224072E+02</rscale>
<asrwt>0</asrwt>
<pdfrwt beam="1">  1        1 0.82441872E-03 0.81224072E+02</pdfrwt>
<pdfrwt beam="2">  1       -2 0.47351634E-01 0.81224072E+02</pdfrwt>
<totfact> 0.66621242E+04</totfact>
</mgrwt>
</event>
<event>
 8    1  0.1372337E-024  0.7852279E+02  0.7818608E-02  0.1333297E+00
         -2   -1    0    0    0  501 -0.00000000000E+00  0.00000000000E+00  0.10265687419E+02  0.10265687736E+02  0.25500000000E-02 0.  1.
          1   -1    0    0  501    0  0.00000000000E+00 -0.00000000000E+00 -0.15015626256E+03  0.15015626264E+03  0.50400000000E-02 0. -1.
        -24    2    1    2    0    0 -0.71054273576E-14  0.00000000000E+00 -0.13989057514E+03  0.16042195038E+03  0.78522793828E+02 0.  0.
         66    2    3    3    0    0 -0.32329921287E+02 -0.20063018938E+02 -0.50426352928E+02  0.63202575976E+02  0.20000002710E+01 0.  0.
         13    1    3    3    0    0  0.32329921287E+02  0.20063018938E+02 -0.89464222208E+02  0.97219374399E+02  0.10566000000E+00 0. -1.
         13    1    4    4    0    0 -0.38033676572E+00 -0.11672355421E+00 -0.35586688685E+00  0.54413759310E+00  0.10566000000E+00 0.  1.
        -13    1    4    4    0    0 -0.22995580909E+02 -0.14633723384E+02 -0.36469481379E+02  0.45529955387E+02  0.10566000000E+00 0.  1.
        -14    1    4    4    0    0 -0.89540036119E+01 -0.53125719999E+01 -0.13601004662E+02  0.17128482996E+02  0.00000000000E+00 0.  1.
<mgrwt>
<rscale>  0 0.78522794E+02</rscale>
<asrwt>0</asrwt>
<pdfrwt beam="1">  1        1 0.23100962E-01 0.78522794E+02</pdfrwt>
<pdfrwt beam="2">  1       -2 0.15793367E-02 0.78522794E+02</pdfrwt>
<totfact> 0.16596898E+05</totfact>
</mgrwt>
</event>
<event>
 8    1  0.1372337E-024  0.7921883E+02  0.7818608E-02  0.1331283E+00
         -2   -1    0    0    0  501 -0.00000000000E+00  0.00000000000E+00  0.18820430178E+02  0.18820430351E+02  0.25500000000E-02 0.  1.
          1   -1    0    0  501    0  0.00000000000E+00 -0.00000000000E+00 -0.83361851877E+02  0.83361852029E+02  0.50400000000E-02 0. -1.
        -24    2    1    2    0    0  0.35527136788E-14 -0.44408920985E-15 -0.64541421699E+02  0.10218228238E+03  0.79218834361E+02 0.  0.
         66    2    3    3    0    0  0.18695887684E+02 -0.35361740618E+01  0.12481706049E+02  0.22843678187E+02  0.19999759796E+01 0.  0.
         13    1    3    3    0    0 -0.18695887684E+02  0.35361740618E+01 -0.77023127748E+02  0.79338604194E+02  0.10566000000E+00 0. -1.
         13    1    4    4    0    0  0.97495218559E+00 -0.58539931797E+00  0.75269726926E+00  0.13678235780E+01  0.10566000000E+00 0. -1.
        -13    1    4    4    0    0  0.62589853938E+01 -0.12264086948E+01  0.46549328566E+01  0.78967423905E+01  0.10566000000E+00 0.  1.
        -14    1    4    4    0    0  0.11461950105E+02 -0.17243660491E+01  0.70740759229E+01  0.13579112218E+02  0.00000000000E+00 0.  1.
<mgrwt>
<rscale>  0 0.79218834E+02</rscale>
<asrwt>0</asrwt>
<pdfrwt beam="1">  1        1 0.12824900E-01 0.79218834E+02</pdfrwt>
<pdfrwt beam="2">  1       -2 0.28954509E-02 0.79218834E+02</pdfrwt>
<totfact> 0.14649514E+05</totfact>
</mgrwt>
</event>
<event>
 8    1  0.1372337E-024  0.7649056E+02  0.7818608E-02  0.1339316E+00
         -2   -1    0    0    0  501 -0.00000000000E+00  0.00000000000E+00  0.48317805052E+02  0.48317805119E+02  0.25500000000E-02 0.  1.
          1   -1    0    0  501    0  0.00000000000E+00 -0.00000000000E+00 -0.30272517050E+02  0.30272517469E+02  0.50400000000E-02 0. -1.
        -24    2    1    2    0    0  0.00000000000E+00  0.00000000000E+00  0.18045288002E+02  0.78590322589E+02  0.76490564029E+02 0.  0.
         66    2    3    3    0    0  0.15123558323E+02  0.30527903471E+02  0.26825418491E+02  0.43408270885E+02  0.19999993196E+01 0.  0.
         13    1    3    3    0    0 -0.15123558323E+02 -0.30527903471E+02 -0.87801304892E+01  0.35182051704E+02  0.10566000000E+00 0. -1.
         13    1    4    4    0    0  0.55486781324E+00  0.84886278243E+00  0.69635810004E+00  0.12347165475E+01  0.10566000000E+00 0. -1.
        -13    1    4    4    0    0  0.12621885701E+02  0.25264215665E+02  0.21589188859E+02  0.35548513772E+02  0.10566000000E+00 0.  1.
        -14    1    4    4    0    0  0.19468048085E+01  0.44148250240E+01  0.45398715327E+01  0.66250405651E+01  0.00000000000E+00 0.  1.
<mgrwt>
<rscale>  0 0.76490564E+02</rscale>
<asrwt>0</asrwt>
<pdfrwt beam="1">  1        1 0.46573104E-02 0.76490564E+02</pdfrwt>
<pdfrwt beam="2">  1       -2 0.74335084E-02 0.76490564E+02</pdfrwt>
<totfact> 0.13771495E+05</totfact>
</mgrwt>
</event>
<event>
 8    1  0.1372337E-024  0.8555287E+02  0.7818608E-02  0.1313993E+00
         -2   -1    0    0    0  501 -0.00000000000E+00  0.00000000000E+00  0.17117666447E+03  0.17117666449E+03  0.25500000000E-02 0.  1.
          1   -1    0    0  501    0  0.00000000000E+00 -0.00000000000E+00 -0.10689677101E+02  0.10689678289E+02  0.50400000000E-02 0. -1.
        -24    2    1    2    0    0  0.71054273576E-14  0.00000000000E+00  0.16048698737E+03  0.18186634278E+03  0.85552869742E+02 0.  0.
         66    2    3    3    0    0  0.35436779201E+02  0.23479619871E+02  0.89973047824E+02  0.99529931006E+02  0.19999904761E+01 0.  0.
         13    1    3    3    0    0 -0.35436779201E+02 -0.23479619871E+02  0.70513939549E+02  0.82336411777E+02  0.10566000000E+00 0. -1.
         13    1    4    4    0    0  0.34706558255E+01  0.19645659613E+01  0.87978742685E+01  0.96601618493E+01  0.10566000000E+00 0. -1.
        -13    1    4    4    0    0  0.21873833579E+02  0.15110349420E+02  0.57478003550E+02  0.63328661056E+02  0.10566000000E+00 0.  1.
         14    1    4    4    0    0  0.10092289796E+02  0.64047044900E+01  0.23697170006E+02  0.26541108101E+02  0.00000000000E+00 0. -1.
<mgrwt>
<rscale>  0 0.85552870E+02</rscale>
<asrwt>0</asrwt>
<pdfrwt beam="1">  1        1 0.16445659E-02 0.85552870E+02</pdfrwt>
<pdfrwt beam="2">  1       -2 0.26334870E-01 0.85552870E+02</pdfrwt>
<totfact> 0.75940563E+04</totfact>
</mgrwt>
</event>
<event>
 8    1  0.1372337E-024  0.7872255E+02  0.7818608E-02  0.1332716E+00
         -2   -1    0    0    0  501 -0.00000000000E+00  0.00000000000E+00  0.46260823585E+01  0.46260830613E+01  0.25500000000E-02 0.  1.
          1   -1    0    0  501    0  0.00000000000E+00 -0.00000000000E+00 -0.33490749711E+03  0.33490749714E+03  0.50400000000E-02 0. -1.
        -24    2    1    2    0    0  0.00000000000E+00  0.00000000000E+00 -0.33028141475E+03  0.33953358020E+03  0.78722545433E+02 0.  0.
         66    2    3    3    0    0 -0.39248611989E+02  0.49371635563E+00 -0.15416029551E+03  0.15909146455E+03  0.20000200208E+01 0.  0.
         13    1    3    3    0    0  0.39248611989E+02 -0.49371635563E+00 -0.17612111923E+03  0.18044211566E+03  0.10566000000E+00 0. -1.
         13    1    4    4    0    0 -0.58316638622E+00  0.22296080902E-01 -0.17698813672E+01  0.18666076820E+01  0.10566000000E+00 0. -1.
        -13    1    4    4    0    0 -0.64292876043E+01  0.52677271253E+00 -0.25796921489E+02  0.26591456353E+02  0.10566000000E+00 0. -1.
        -14    1    4    4    0    0 -0.32236157998E+02 -0.55352437803E-01 -0.12659349266E+03  0.13063340051E+03  0.00000000000E+00 0.  1.
<mgrwt>
<rscale>  0 0.78722545E+02</rscale>
<asrwt>0</asrwt>
<pdfrwt beam="1">  1        1 0.51524211E-01 0.78722545E+02</pdfrwt>
<pdfrwt beam="2">  1       -2 0.71170530E-03 0.78722545E+02</pdfrwt>
<totfact> 0.19212668E+05</totfact>
</mgrwt>
</event>
<event>
 8    1  0.1372337E-024  0.7931648E+02  0.7818608E-02  0.1331002E+00
         -2   -1    0    0    0  501 -0.00000000000E+00  0.00000000000E+00  0.11068341463E+02  0.11068341757E+02  0.25500000000E-02 0.  1.
          1   -1    0    0  501    0  0.00000000000E+00 -0.00000000000E+00 -0.14209679933E+03  0.14209679942E+03  0.50400000000E-02 0. -1.
        -24    2    1    2    0    0  0.00000000000E+00 -0.35527136788E-14 -0.13102845787E+03  0.15316514118E+03  0.79316478114E+02 0.  0.
         66    2    3    3    0    0 -0.25892235904E+02  0.28531104136E+02 -0.47612542657E+02  0.61281204290E+02  0.19999993861E+01 0.  0.
         13    1    3    3    0    0  0.25892235904E+02 -0.28531104136E+02 -0.83415915209E+02  0.91883936885E+02  0.10566000000E+00 0. -1.
         13    1    4    4    0    0 -0.52286927934E+01  0.67289317429E+01 -0.98869894447E+01  0.13053025513E+02  0.10566000000E+00 0.  1.
        -13    1    4    4    0    0 -0.12394281105E+02  0.13355121076E+02 -0.22486605437E+02  0.28941942768E+02  0.10566000000E+00 0.  1.
        -14    1    4    4    0    0 -0.82692620055E+01  0.84470513181E+01 -0.15238947775E+02  0.19286236009E+02  0.00000000000E+00 0.  1.
<mgrwt>
<rscale>  0 0.79316478E+02</rscale>
<asrwt>0</asrwt>
<pdfrwt beam="1">  1        1 0.21861045E-01 0.79316478E+02</pdfrwt>
<pdfrwt beam="2">  1       -2 0.17028219E-02 0.79316478E+02</pdfrwt>
<totfact> 0.15995272E+05</totfact>
</mgrwt>
</event>
<event>
 8    1  0.1372337E-024  0.7955723E+02  0.7818608E-02  0.1330313E+00
          1   -1    0    0  501    0  0.00000000000E+00  0.00000000000E+00  0.12155367646E+02  0.12155368691E+02  0.50400000000E-02 0. -1.
         -2   -1    0    0    0  501 -0.00000000000E+00 -0.00000000000E+00 -0.13017607821E+03  0.13017607823E+03  0.25500000000E-02 0.  1.
        -24    2    1    2    0    0 -0.35527136788E-14  0.00000000000E+00 -0.11802071056E+03  0.14233144692E+03  0.79557228846E+02 0.  0.
         66    2    3    3    0    0  0.27881264268E+02 -0.18689745661E+02 -0.97153011131E+02  0.10280748541E+03  0.19999986298E+01 0.  0.
         13    1    3    3    0    0 -0.27881264268E+02  0.18689745661E+02 -0.20867699428E+02  0.39523961511E+02  0.10566000000E+00 0. -1.
         13    1    4    4    0    0  0.16562873266E+02 -0.10335249794E+02 -0.54761797476E+02  0.58137868777E+02  0.10566000000E+00 0. -1.
        -13    1    4    4    0    0  0.10026084662E+02 -0.71701163295E+01 -0.37476796807E+02  0.39451925235E+02  0.10566000000E+00 0.  1.
        -14    1    4    4    0    0  0.12923063403E+01 -0.11843795376E+01 -0.49144168489E+01  0.52176913985E+01  0.00000000000E+00 0.  1.
<mgrwt>
<rscale>  0 0.79557229E+02</rscale>
<asrwt>0</asrwt>
<pdfrwt beam="1">  1        1 0.18700567E-02 0.79557229E+02</pdfrwt>
<pdfrwt beam="2">  1       -2 0.20027088E-01 0.79557229E+02</pdfrwt>
<totfact> 0.10021245E+05</totfact>
</mgrwt>
</event>
<event>
 8    1  0.1372337E-024  0.8027323E+02  0.7818608E-02  0.1328278E+00
         -2   -1    0    0    0  501 -0.00000000000E+00  0.00000000000E+00  0.10349398856E+02  0.10349399170E+02  0.25500000000E-02 0.  1.
          1   -1    0    0  501    0  0.00000000000E+00 -0.00000000000E+00 -0.15565618874E+03  0.15565618882E+03  0.50400000000E-02 0. -1.
        -24    2    1    2    0    0  0.00000000000E+00  0.00000000000E+00 -0.14530678989E+03  0.16600558799E+03  0.80273233758E+02 0.  0.
         66    2    3    3    0    0 -0.89483072931E+01 -0.30911549020E+02 -0.23180638903E+02  0.39710679211E+02  0.19999893115E+01 0.  0.
         13    1    3    3    0    0  0.89483072931E+01  0.30911549020E+02 -0.12212615098E+03  0.12629490878E+03  0.10566000000E+00 0. -1.
         13    1    4    4    0    0 -0.12229356886E+01 -0.48427709967E+01 -0.41967390462E+01  0.65247057621E+01  0.10566000000E+00 0.  1.
        -13    1    4    4    0    0 -0.70107953443E+01 -0.24081083677E+02 -0.17886709637E+02  0.30805768747E+02  0.10566000000E+00 0.  1.
        -14    1    4    4    0    0 -0.71457626013E+00 -0.19876943465E+01 -0.10971902197E+01  0.23802047023E+01  0.00000000000E+00 0.  1.
<mgrwt>
<rscale>  0 0.80273234E+02</rscale>
<asrwt>0</asrwt>
<pdfrwt beam="1">  1        1 0.23947104E-01 0.80273234E+02</pdfrwt>
<pdfrwt beam="2">  1       -2 0.15922154E-02 0.80273234E+02</pdfrwt>
<totfact> 0.15752969E+05</totfact>
</mgrwt>
</event>
<event>
 8    1  0.1372337E-024  0.8119344E+02  0.7818608E-02  0.1325698E+00
          1   -1    0    0  501    0  0.00000000000E+00  0.00000000000E+00  0.12620867695E+02  0.12620868702E+02  0.50400000000E-02 0. -1.
         -2   -1    0    0    0  501 -0.00000000000E+00 -0.00000000000E+00 -0.13058480696E+03  0.13058480698E+03  0.25500000000E-02 0.  1.
        -24    2    1    2    0    0  0.00000000000E+00  0.17763568394E-14 -0.11796393926E+03  0.14320567569E+03  0.81193439279E+02 0.  0.
         66    2    3    3    0    0  0.10279092920E+02  0.10852566775E+02 -0.12554320181E+03  0.12644577289E+03  0.20000014705E+01 0.  0.
         13    1    3    3    0    0 -0.10279092920E+02 -0.10852566775E+02  0.75792625429E+01  0.16759902792E+02  0.10566000000E+00 0. -1.
         13    1    4    4    0    0  0.56174739128E+01  0.56632074060E+01 -0.71296114567E+02  0.71741027646E+02  0.10566000000E+00 0. -1.
        -13    1    4    4    0    0  0.38112028942E+01  0.45404371240E+01 -0.48261732444E+02  0.48624549554E+02  0.10566000000E+00 0.  1.
         14    1    4    4    0    0  0.85041611342E+00  0.64892224494E+00 -0.59853547953E+01  0.60801956935E+01  0.00000000000E+00 0. -1.
<mgrwt>
<rscale>  0 0.81193439E+02</rscale>
<asrwt>0</asrwt>
<pdfrwt beam="1">  1        1 0.19416721E-02 0.81193439E+02</pdfrwt>
<pdfrwt beam="2">  1       -2 0.20089969E-01 0.81193439E+02</pdfrwt>
<totfact> 0.95015380E+04</totfact>
</mgrwt>
</event>
<event>
 8    1  0.1372337E-024  0.8012176E+02  0.7818608E-02  0.1328706E+00
         -2   -1    0    0    0  501 -0.00000000000E+00  0.00000000000E+00  0.13346582512E+03  0.13346582515E+03  0.25500000000E-02 0.  1.
          1   -1    0    0  501    0  0.00000000000E+00 -0.00000000000E+00 -0.12024605583E+02  0.12024606640E+02  0.50400000000E-02 0. -1.
        -24    2    1    2    0    0  0.35527136788E-14 -0.71054273576E-14  0.12144121954E+03  0.14549043179E+03  0.80121756960E+02 0.  0.
         66    2    3    3    0    0  0.15809422660E+02 -0.36263782596E+02  0.71932818537E+02  0.82117782269E+02  0.20000023110E+01 0.  0.
         13    1    3    3    0    0 -0.15809422660E+02  0.36263782596E+02  0.49508401004E+02  0.63372649519E+02  0.10566000000E+00 0. -1.
         13    1    4    4    0    0  0.52927118671E+01 -0.12611283469E+02  0.26000971265E+02  0.29378885963E+02  0.10566000000E+00 0.  1.
        -13    1    4    4    0    0  0.22883306917E+01 -0.62835514636E+01  0.11263215019E+02  0.13099261542E+02  0.10566000000E+00 0. -1.
         14    1    4    4    0    0  0.82283801011E+01 -0.17368947663E+02  0.34668632252E+02  0.39639634764E+02  0.00000000000E+00 0. -1.
<mgrwt>
<rscale>  0 0.80121757E+02</rscale>
<asrwt>0</asrwt>
<pdfrwt beam="1">  1        1 0.18499394E-02 0.80121757E+02</pdfrwt>
<pdfrwt beam="2">  1       -2 0.20533204E-01 0.80121757E+02</pdfrwt>
<totfact> 0.97674169E+04</totfact>
</mgrwt>
</event>
<event>
 8    1  0.1372337E-024  0.7735238E+02  0.7818608E-02  0.1336737E+00
         -2   -1    0    0    0  501 -0.00000000000E+00  0.00000000000E+00  0.13756113877E+02  0.13756114113E+02  0.25500000000E-02 0.  1.
          1   -1    0    0  501    0  0.00000000000E+00 -0.00000000000E+00 -0.10874057299E+03  0.10874057311E+03  0.50400000000E-02 0. -1.
        -24    2    1    2    0    0  0.00000000000E+00 -0.35527136788E-14 -0.94984459113E+02  0.12249668722E+03  0.77352381390E+02 0.  0.
         66    2    3    3    0    0 -0.27150414376E+02  0.17016383576E+02 -0.81751329951E+02  0.87829279150E+02  0.20000041155E+01 0.  0.
         13    1    3    3    0    0  0.27150414376E+02 -0.17016383576E+02 -0.13233129162E+02  0.34667408070E+02  0.10566000000E+00 0. -1.
         13    1    4    4    0    0 -0.20098092185E+01  0.11159207165E+01 -0.61588500924E+01  0.65747403474E+01  0.10566000000E+00 0. -1.
        -13    1    4    4    0    0 -0.96264673502E+01  0.53691630916E+01 -0.26344890877E+02  0.28558032588E+02  0.10566000000E+00 0.  1.
         14    1    4    4    0    0 -0.15514137807E+02  0.10531299768E+02 -0.49247588982E+02  0.52696506215E+02  0.00000000000E+00 0. -1.
<mgrwt>
<rscale>  0 0.77352381E+02</rscale>
<asrwt>0</asrwt>
<pdfrwt beam="1">  1        1 0.16729318E-01 0.77352381E+02</pdfrwt>
<pdfrwt beam="2">  1       -2 0.21163253E-02 0.77352381E+02</pdfrwt>
<totfact> 0.16322398E+05</totfact>
</mgrwt>
</event>
<event>
 8    1  0.1372337E-024  0.7998932E+02  0.7818608E-02  0.1329082E+00
         -2   -1    0    0    0  501 -0.00000000000E+00  0.00000000000E+00  0.37452595107E+02  0.37452595194E+02  0.25500000000E-02 0.  1.
          1   -1    0    0  501    0  0.00000000000E+00 -0.00000000000E+00 -0.42709268966E+02  0.42709269263E+02  0.50400000000E-02 0. -1.
        -24    2    1    2    0    0  0.00000000000E+00  0.35527136788E-14 -0.52566738590E+01  0.80161864457E+02  0.79989323620E+02 0.  0.
         66    2    3    3    0    0  0.26965120752E+02 -0.29430242208E+02 -0.47107773266E+01  0.40242369712E+02  0.20000008720E+01 0.  0.
         13    1    3    3    0    0 -0.26965120752E+02  0.29430242208E+02 -0.54589653236E+00  0.39919494744E+02  0.10566000000E+00 0. -1.
         13    1    4    4    0    0  0.80865107766E+01 -0.92920239985E+01 -0.19064102676E+01  0.12465108530E+02  0.10566000000E+00 0. -1.
        -13    1    4    4    0    0  0.59163542865E+01 -0.69273977067E+01 -0.13800513990E+01  0.92145424699E+01  0.10566000000E+00 0.  1.
         14    1    4    4    0    0  0.12962255689E+02 -0.13210820502E+02 -0.14243156600E+01  0.18562718712E+02  0.00000000000E+00 0. -1.
<mgrwt>
<rscale>  0 0.79989324E+02</rscale>
<asrwt>0</asrwt>
<pdfrwt beam="1">  1        1 0.65706568E-02 0.79989324E+02</pdfrwt>
<pdfrwt beam="2">  1       -2 0.57619377E-02 0.79989324E+02</pdfrwt>
<totfact> 0.12837245E+05</totfact>
</mgrwt>
</event>
<event>
 8    1  0.1372337E-024  0.7953836E+02  0.7818608E-02  0.1330367E+00
         -2   -1    0    0    0  501 -0.00000000000E+00  0.00000000000E+00  0.10109351760E+02  0.10109352082E+02  0.25500000000E-02 0.  1.
          1   -1    0    0  501    0  0.00000000000E+00 -0.00000000000E+00 -0.15644798603E+03  0.15644798611E+03  0.50400000000E-02 0. -1.
        -24    2    1    2    0    0  0.00000000000E+00  0.00000000000E+00 -0.14633863427E+03  0.16655733819E+03  0.79538361978E+02 0.  0.
         66    2    3    3    0    0  0.10998459651E+02  0.32445054718E+02 -0.31024876830E+02  0.46262194861E+02  0.20000001916E+01 0.  0.
         13    1    3    3    0    0 -0.10998459651E+02 -0.32445054718E+02 -0.11531375744E+03  0.12029514333E+03  0.10566000000E+00 0. -1.
         13    1    4    4    0    0  0.22933527140E+01  0.77134625563E+01 -0.77083634543E+01  0.11143922221E+02  0.10566000000E+00 0. -1.
        -13    1    4    4    0    0  0.63501907747E+01  0.16519900602E+02 -0.15085783118E+02  0.23255624160E+02  0.10566000000E+00 0.  1.
        -14    1    4    4    0    0  0.23549161619E+01  0.82116915598E+01 -0.82307302577E+01  0.11862648481E+02  0.00000000000E+00 0.  1.
<mgrwt>
<rscale>  0 0.79538362E+02</rscale>
<asrwt>0</asrwt>
<pdfrwt beam="1">  1        1 0.24068919E-01 0.79538362E+02</pdfrwt>
<pdfrwt beam="2">  1       -2 0.15552850E-02 0.79538362E+02</pdfrwt>
<totfact> 0.16159694E+05</totfact>
</mgrwt>
</event>
<event>
 8    1  0.1372337E-024  0.8020300E+02  0.7818608E-02  0.1328476E+00
          1   -1    0    0  501    0  0.00000000000E+00  0.00000000000E+00  0.16581901695E+02  0.16581902461E+02  0.50400000000E-02 0. -1.
         -2   -1    0    0    0  501 -0.00000000000E+00 -0.00000000000E+00 -0.96981046101E+02  0.96981046134E+02  0.25500000000E-02 0.  1.
        -24    2    1    2    0    0  0.35527136788E-14  0.00000000000E+00 -0.80399144406E+02  0.11356294860E+03  0.80202997903E+02 0.  0.
         66    2    3    3    0    0 -0.22171523974E+02  0.52324495578E+01 -0.86911378667E+02  0.89869587441E+02  0.20000003419E+01 0.  0.
         13    1    3    3    0    0  0.22171523974E+02 -0.52324495578E+01  0.65122342610E+01  0.23693361155E+02  0.10566000000E+00 0. -1.
         13    1    4    4    0    0 -0.87613672029E+01  0.13800153217E+01 -0.34863821653E+02  0.35974480147E+02  0.10566000000E+00 0. -1.
        -13    1    4    4    0    0 -0.62695703668E+01  0.13313220654E+01 -0.22972243251E+02  0.23849843921E+02  0.10566000000E+00 0.  1.
        -14    1    4    4    0    0 -0.71405864043E+01  0.25211121707E+01 -0.29075313763E+02  0.30045263374E+02  0.00000000000E+00 0.  1.
<mgrwt>
<rscale>  0 0.80202998E+02</rscale>
<asrwt>0</asrwt>
<pdfrwt beam="1">  1        1 0.25510619E-02 0.80202998E+02</pdfrwt>
<pdfrwt beam="2">  1       -2 0.14920161E-01 0.80202998E+02</pdfrwt>
<totfact> 0.10623982E+05</totfact>
</mgrwt>
</event>
<event>
 8    1  0.1372337E-024  0.7990199E+02  0.7818608E-02  0.1329330E+00
          1   -1    0    0  501    0  0.00000000000E+00  0.00000000000E+00  0.15736533194E+03  0.15736533202E+03  0.50400000000E-02 0. -1.
         -2   -1    0    0    0  501 -0.00000000000E+00 -0.00000000000E+00 -0.10142525189E+02  0.10142525510E+02  0.25500000000E-02 0.  1.
        -24    2    1    2    0    0 -0.17763568394E-14  0.00000000000E+00  0.14722280675E+03  0.16750785753E+03  0.79901986877E+02 0.  0.
         66    2    3    3    0    0  0.99523149060E+01 -0.36608889991E+02  0.47572586462E+02  0.60880295587E+02  0.20000024347E+01 0.  0.
         13    1    3    3    0    0 -0.99523149060E+01  0.36608889991E+02  0.99650220292E+02  0.10662756195E+03  0.10566000000E+00 0. -1.
         13    1    4    4    0    0  0.22306268932E+01 -0.93340853199E+01  0.11052279371E+02  0.14637789738E+02  0.10566000000E+00 0. -1.
        -13    1    4    4    0    0  0.57420535986E+01 -0.19761241142E+02  0.25780470791E+02  0.32986689274E+02  0.10566000000E+00 0.  1.
         14    1    4    4    0    0  0.19796344142E+01 -0.75135635285E+01  0.10739836300E+02  0.13255816575E+02  0.00000000000E+00 0. -1.
<mgrwt>
<rscale>  0 0.79901987E+02</rscale>
<asrwt>0</asrwt>
<pdfrwt beam="1">  1        1 0.24210050E-01 0.79901987E+02</pdfrwt>
<pdfrwt beam="2">  1       -2 0.15603886E-02 0.79901987E+02</pdfrwt>
<totfact> 0.15981585E+05</totfact>
</mgrwt>
</event>
<event>
 8    1  0.1372337E-024  0.8213754E+02  0.7818608E-02  0.1323093E+00
         -2   -1    0    0    0  501 -0.00000000000E+00  0.00000000000E+00  0.10718613424E+03  0.10718613427E+03  0.25500000000E-02 0.  1.
          1   -1    0    0  501    0  0.00000000000E+00 -0.00000000000E+00 -0.15735652647E+02  0.15735653454E+02  0.50400000000E-02 0. -1.
        -24    2    1    2    0    0  0.17763568394E-14  0.35527136788E-14  0.91450481595E+02  0.12292178773E+03  0.82137539006E+02 0.  0.
         66    2    3    3    0    0 -0.12857512096E+02  0.21909664709E+02  0.93997631398E+02  0.97390470465E+02  0.20000009962E+01 0.  0.
         13    1    3    3    0    0  0.12857512096E+02 -0.21909664709E+02 -0.25471498026E+01  0.25531317262E+02  0.10566000000E+00 0. -1.
         13    1    4    4    0    0 -0.23694092765E+01  0.32449513375E+01  0.14520324324E+02  0.15066346339E+02  0.10566000000E+00 0. -1.
        -13    1    4    4    0    0 -0.10106847490E+02  0.17267310556E+02  0.74565134768E+02  0.77202842351E+02  0.10566000000E+00 0.  1.
        -14    1    4    4    0    0 -0.38125532926E+00  0.13974028159E+01  0.49121723055E+01  0.51212817747E+01  0.00000000000E+00 0.  1.
<mgrwt>
<rscale>  0 0.82137539E+02</rscale>
<asrwt>0</asrwt>
<pdfrwt beam="1">  1        1 0.24208697E-02 0.82137539E+02</pdfrwt>
<pdfrwt beam="2">  1       -2 0.16490174E-01 0.82137539E+02</pdfrwt>
<totfact> 0.97457302E+04</totfact>
</mgrwt>
</event>
<event>
 8    1  0.1372337E-024  0.8230678E+02  0.7818608E-02  0.1322630E+00
         -2   -1    0    0    0  501 -0.00000000000E+00  0.00000000000E+00  0.50084520899E+02  0.50084520964E+02  0.25500000000E-02 0.  1.
          1   -1    0    0  501    0  0.00000000000E+00 -0.00000000000E+00 -0.33814871542E+02  0.33814871918E+02  0.50400000000E-02 0. -1.
        -24    2    1    2    0    0  0.00000000000E+00  0.00000000000E+00  0.16269649357E+02  0.83899392882E+02  0.82306783655E+02 0.  0.
         66    2    3    3    0    0 -0.21212566046E+01 -0.37743975067E+02 -0.83754003225E+01  0.38771829008E+02  0.20000026590E+01 0.  0.
         13    1    3    3    0    0  0.21212566046E+01  0.37743975067E+02  0.24645049680E+02  0.45127563874E+02  0.10566000000E+00 0. -1.
         13    1    4    4    0    0  0.15293440746E+00 -0.61081064974E+01 -0.16960038644E+01  0.63419198245E+01  0.10566000000E+00 0. -1.
        -13    1    4    4    0    0 -0.15839145002E+01 -0.22903738093E+02 -0.43650714465E+01  0.23369959704E+02  0.10566000000E+00 0.  1.
        -14    1    4    4    0    0 -0.69027651190E+00 -0.87321304761E+01 -0.23143250117E+01  0.90599494796E+01  0.00000000000E+00 0.  1.
<mgrwt>
<rscale>  0 0.82306784E+02</rscale>
<asrwt>0</asrwt>
<pdfrwt beam="1">  1        1 0.52022880E-02 0.82306784E+02</pdfrwt>
<pdfrwt beam="2">  1       -2 0.77053109E-02 0.82306784E+02</pdfrwt>
<totfact> 0.11384996E+05</totfact>
</mgrwt>
</event>
<event>
 8    1  0.1372337E-024  0.7471060E+02  0.7818608E-02  0.1344770E+00
         -2   -1    0    0    0  501 -0.00000000000E+00  0.00000000000E+00  0.14939448833E+03  0.14939448836E+03  0.25500000000E-02 0.  1.
          1   -1    0    0  501    0  0.00000000000E+00 -0.00000000000E+00 -0.93404944989E+01  0.93404958587E+01  0.50400000000E-02 0. -1.
        -24    2    1    2    0    0  0.00000000000E+00 -0.35527136788E-14  0.14005399384E+03  0.15873498421E+03  0.74710601821E+02 0.  0.
         66    2    3    3    0    0 -0.23329813444E+02 -0.28241873193E+02  0.85328824417E+02  0.92881063081E+02  0.20000014786E+01 0.  0.
         13    1    3    3    0    0  0.23329813444E+02  0.28241873193E+02  0.54725169419E+02  0.65853921134E+02  0.10566000000E+00 0. -1.
         13    1    4    4    0    0 -0.21742480959E+01 -0.32734734899E+01  0.92179701265E+01  0.10021233495E+02  0.10566000000E+00 0. -1.
        -13    1    4    4    0    0 -0.11040354743E+02 -0.12345520110E+02  0.37175126892E+02  0.40697696779E+02  0.10566000000E+00 0.  1.
        -14    1    4    4    0    0 -0.10115210605E+02 -0.12622879593E+02  0.38935727398E+02  0.42162132807E+02  0.00000000000E+00 0.  1.
<mgrwt>
<rscale>  0 0.74710602E+02</rscale>
<asrwt>0</asrwt>
<pdfrwt beam="1">  1        1 0.14369993E-02 0.74710602E+02</pdfrwt>
<pdfrwt beam="2">  1       -2 0.22983766E-01 0.74710602E+02</pdfrwt>
<totfact> 0.11280826E+05</totfact>
</mgrwt>
</event>
<event>
 8    1  0.1372337E-024  0.8065443E+02  0.7818608E-02  0.1327204E+00
          1   -1    0    0  501    0  0.00000000000E+00  0.00000000000E+00  0.11029589201E+02  0.11029590353E+02  0.50400000000E-02 0. -1.
         -2   -1    0    0    0  501 -0.00000000000E+00 -0.00000000000E+00 -0.14744738994E+03  0.14744738996E+03  0.25500000000E-02 0.  1.
        -24    2    1    2    0    0 -0.35527136788E-14  0.35527136788E-14 -0.13641780074E+03  0.15847698031E+03  0.80654429086E+02 0.  0.
         66    2    3    3    0    0  0.26757950909E+02 -0.13571518740E+02 -0.12112431506E+03  0.12480093651E+03  0.19999995022E+01 0.  0.
         13    1    3    3    0    0 -0.26757950909E+02  0.13571518740E+02 -0.15293485675E+02  0.33676043798E+02  0.10566000000E+00 0. -1.
         13    1    4    4    0    0  0.42892352548E+01 -0.20097659234E+01 -0.17315066917E+02  0.17951585014E+02  0.10566000000E+00 0. -1.
        -13    1    4    4    0    0  0.18791842247E+02 -0.95696543885E+01 -0.84402428487E+02  0.86997084542E+02  0.10566000000E+00 0.  1.
        -14    1    4    4    0    0  0.36768734074E+01 -0.19920984278E+01 -0.19406819656E+02  0.19852266957E+02  0.00000000000E+00 0.  1.
<mgrwt>
<rscale>  0 0.80654429E+02</rscale>
<asrwt>0</asrwt>
<pdfrwt beam="1">  1        1 0.16968601E-02 0.80654429E+02</pdfrwt>
<pdfrwt beam="2">  1       -2 0.22684212E-01 0.80654429E+02</pdfrwt>
<totfact> 0.93069469E+04</totfact>
</mgrwt>
</event>
<event>
 8    1  0.1372337E-024  0.8093538E+02  0.7818608E-02  0.1326418E+00
         -2   -1    0    0    0  501 -0.00000000000E+00  0.00000000000E+00  0.29896102332E+02  0.29896102441E+02  0.25500000000E-02 0.  1.
          1   -1    0    0  501    0  0.00000000000E+00 -0.00000000000E+00 -0.54777505561E+02  0.54777505793E+02  0.50400000000E-02 0. -1.
        -24    2    1    2    0    0  0.00000000000E+00  0.00000000000E+00 -0.24881403229E+02  0.84673608234E+02  0.80935379808E+02 0.  0.
         66    2    3    3    0    0 -0.33311918811E+02  0.94052982004E+00  0.11524276428E+02  0.35318231561E+02  0.20000005630E+01 0.  0.
         13    1    3    3    0    0  0.33311918811E+02 -0.94052982004E+00 -0.36405679657E+02  0.49355376673E+02  0.10566000000E+00 0. -1.
         13    1    4    4    0    0 -0.87267043705E+01  0.31495962655E+00  0.35499701044E+01  0.94269836382E+01  0.10566000000E+00 0. -1.
        -13    1    4    4    0    0 -0.73558503698E+01  0.26603575952E+00  0.17322329585E+01  0.75624800658E+01  0.10566000000E+00 0.  1.
         14    1    4    4    0    0 -0.17229364070E+02  0.35953443397E+00  0.62420733652E+01  0.18328767857E+02  0.00000000000E+00 0. -1.
<mgrwt>
<rscale>  0 0.80935380E+02</rscale>
<asrwt>0</asrwt>
<pdfrwt beam="1">  1        1 0.84273086E-02 0.80935380E+02</pdfrwt>
<pdfrwt beam="2">  1       -2 0.45994004E-02 0.80935380E+02</pdfrwt>
<totfact> 0.12923688E+05</totfact>
</mgrwt>
</event>
<event>
 8    1  0.1372337E-024  0.7423725E+02  0.7818608E-02  0.1346249E+00
         -2   -1    0    0    0  501 -0.00000000000E+00  0.00000000000E+00  0.82001111628E+02  0.82001111668E+02  0.25500000000E-02 0.  1.
          1   -1    0    0  501    0  0.00000000000E+00 -0.00000000000E+00 -0.16802118578E+02  0.16802119334E+02  0.50400000000E-02 0. -1.
        -24    2    1    2    0    0  0.00000000000E+00  0.00000000000E+00  0.65198993051E+02  0.98803231002E+02  0.74237253193E+02 0.  0.
         66    2    3    3    0    0 -0.11085836861E+02  0.19059292199E+02  0.72319866262E+02  0.75632767101E+02  0.20000012929E+01 0.  0.
         13    1    3    3    0    0  0.11085836861E+02 -0.19059292199E+02 -0.71208732110E+01  0.23170463901E+02  0.10566000000E+00 0. -1.
         13    1    4    4    0    0 -0.27080309713E+01  0.47483744055E+01  0.17144555990E+02  0.17995206456E+02  0.10566000000E+00 0. -1.
        -13    1    4    4    0    0 -0.17893614927E+01  0.20181809412E+01  0.79437455276E+01  0.83898227577E+01  0.10566000000E+00 0.  1.
        -14    1    4    4    0    0 -0.65884443974E+01  0.12292736853E+02  0.47231564744E+02  0.49247737888E+02  0.00000000000E+00 0.  1.
<mgrwt>
<rscale>  0 0.74237253E+02</rscale>
<asrwt>0</asrwt>
<pdfrwt beam="1">  1        1 0.25849414E-02 0.74237253E+02</pdfrwt>
<pdfrwt beam="2">  1       -2 0.12615555E-01 0.74237253E+02</pdfrwt>
<totfact> 0.13445787E+05</totfact>
</mgrwt>
</event>
<event>
 8    1  0.1372337E-024  0.8089112E+02  0.7818608E-02  0.1326541E+00
         -2   -1    0    0    0  501 -0.00000000000E+00  0.00000000000E+00  0.53289643064E+02  0.53289643125E+02  0.25500000000E-02 0.  1.
          1   -1    0    0  501    0  0.00000000000E+00 -0.00000000000E+00 -0.30697206962E+02  0.30697207375E+02  0.50400000000E-02 0. -1.
        -24    2    1    2    0    0  0.35527136788E-14 -0.35527136788E-14  0.22592436102E+02  0.83986850500E+02  0.80891117484E+02 0.  0.
         66    2    3    3    0    0 -0.21823919303E+02 -0.29169272415E+02  0.29486427320E+02  0.46910332515E+02  0.19999983942E+01 0.  0.
         13    1    3    3    0    0  0.21823919303E+02  0.29169272415E+02 -0.68939912181E+01  0.37076517985E+02  0.10566000000E+00 0. -1.
         13    1    4    4    0    0 -0.64857194540E+01 -0.93068787641E+01  0.93915860671E+01  0.14727375939E+02  0.10566000000E+00 0. -1.
        -13    1    4    4    0    0 -0.19981685291E+01 -0.24328537459E+01  0.19455664507E+01  0.37024110616E+01  0.10566000000E+00 0.  1.
        -14    1    4    4    0    0 -0.13340031320E+02 -0.17429539905E+02  0.18149274802E+02  0.28480545514E+02  0.00000000000E+00 0.  1.
<mgrwt>
<rscale>  0 0.80891117E+02</rscale>
<asrwt>0</asrwt>
<pdfrwt beam="1">  1        1 0.47226473E-02 0.80891117E+02</pdfrwt>
<pdfrwt beam="2">  1       -2 0.81984066E-02 0.80891117E+02</pdfrwt>
<totfact> 0.11763559E+05</totfact>
</mgrwt>
</event>
<event>
 8    1  0.1372337E-024  0.7677097E+02  0.7818608E-02  0.1338473E+00
          1   -1    0    0  501    0  0.00000000000E+00  0.00000000000E+00  0.21673377064E+02  0.21673377650E+02  0.50400000000E-02 0. -1.
         -2   -1    0    0    0  501 -0.00000000000E+00 -0.00000000000E+00 -0.67984109591E+02  0.67984109639E+02  0.25500000000E-02 0.  1.
        -24    2    1    2    0    0  0.00000000000E+00  0.00000000000E+00 -0.46310732527E+02  0.89657487289E+02  0.76770965082E+02 0.  0.
         66    2    3    3    0    0 -0.10112489365E+01  0.28441867876E+02 -0.53207392546E+02  0.60373745107E+02  0.20000010050E+01 0.  0.
         13    1    3    3    0    0  0.10112489365E+01 -0.28441867876E+02  0.68966600186E+01  0.29283742182E+02  0.10566000000E+00 0. -1.
         13    1    4    4    0    0 -0.55001577423E+00  0.52736769209E+01 -0.88745914897E+01  0.10338458481E+02  0.10566000000E+00 0. -1.
        -13    1    4    4    0    0  0.33879856678E+00  0.60108243531E+01 -0.11634235814E+02  0.13100053469E+02  0.10566000000E+00 0.  1.
         14    1    4    4    0    0 -0.80003172909E+00  0.17157366602E+02 -0.32698565242E+02  0.36935233157E+02  0.00000000000E+00 0. -1.
<mgrwt>
<rscale>  0 0.76770965E+02</rscale>
<asrwt>0</asrwt>
<pdfrwt beam="1">  1        1 0.33343658E-02 0.76770965E+02</pdfrwt>
<pdfrwt beam="2">  1       -2 0.10459094E-01 0.76770965E+02</pdfrwt>
<totfact> 0.12831796E+05</totfact>
</mgrwt>
</event>
<event>
 8    1  0.1372337E-024  0.8206928E+02  0.7818608E-02  0.1323280E+00
          1   -1    0    0  501    0  0.00000000000E+00  0.00000000000E+00  0.91151427429E+01  0.91151441363E+01  0.50400000000E-02 0. -1.
         -2   -1    0    0    0  501 -0.00000000000E+00 -0.00000000000E+00 -0.18473013184E+03  0.18473013186E+03  0.25500000000E-02 0.  1.
        -24    2    1    2    0    0  0.17763568394E-14  0.00000000000E+00 -0.17561498910E+03  0.19384527600E+03  0.82069279451E+02 0.  0.
         66    2    3    3    0    0  0.13874685901E+02  0.37673641943E+02 -0.68094092414E+02  0.79073482448E+02  0.19999996688E+01 0.  0.
         13    1    3    3    0    0 -0.13874685901E+02 -0.37673641943E+02 -0.10752089669E+03  0.11477179355E+03  0.10566000000E+00 0. -1.
         13    1    4    4    0    0  0.27397336983E+01  0.72680280332E+01 -0.12038711831E+02  0.14327320713E+02  0.10566000000E+00 0. -1.
        -13    1    4    4    0    0  0.41136607446E+01  0.12488319885E+02 -0.22015359154E+02  0.25643079788E+02  0.10566000000E+00 0.  1.
         14    1    4    4    0    0  0.70212914584E+01  0.17917294025E+02 -0.34040021428E+02  0.39103081947E+02  0.00000000000E+00 0. -1.
<mgrwt>
<rscale>  0 0.82069279E+02</rscale>
<asrwt>0</asrwt>
<pdfrwt beam="1">  1        1 0.14023299E-02 0.82069279E+02</pdfrwt>
<pdfrwt beam="2">  1       -2 0.28420018E-01 0.82069279E+02</pdfrwt>
<totfact> 0.82184235E+04</totfact>
</mgrwt>
</event>
<event>
 8    1  0.1372337E-024  0.8009429E+02  0.7818608E-02  0.1328784E+00
         -2   -1    0    0    0  501 -0.00000000000E+00  0.00000000000E+00  0.21445266770E+02  0.21445266921E+02  0.25500000000E-02 0.  1.
          1   -1    0    0  501    0  0.00000000000E+00 -0.00000000000E+00 -0.74784514716E+02  0.74784514886E+02  0.50400000000E-02 0. -1.
        -24    2    1    2    0    0 -0.44408920985E-15  0.00000000000E+00 -0.53339247947E+02  0.96229781808E+02  0.80094291527E+02 0.  0.
         66    2    3    3    0    0 -0.23361832185E+01  0.18471215945E+02  0.15878680537E+02  0.24551498081E+02  0.19999979756E+01 0.  0.
         13    1    3    3    0    0  0.23361832185E+01 -0.18471215945E+02 -0.69217928483E+02  0.71678283727E+02  0.10566000000E+00 0. -1.
         13    1    4    4    0    0  0.16047747652E-01  0.88350731214E+00  0.12197647234E+01  0.15099114930E+01  0.10566000000E+00 0. -1.
        -13    1    4    4    0    0 -0.17642585206E+01  0.15201602007E+02  0.12285901694E+02  0.19625388052E+02  0.10566000000E+00 0.  1.
         14    1    4    4    0    0 -0.58797244552E+00  0.23861066253E+01  0.23730141196E+01  0.34161985358E+01  0.00000000000E+00 0. -1.
<mgrwt>
<rscale>  0 0.80094292E+02</rscale>
<asrwt>0</asrwt>
<pdfrwt beam="1">  1        1 0.11505310E-01 0.80094292E+02</pdfrwt>
<pdfrwt beam="2">  1       -2 0.32992719E-02 0.80094292E+02</pdfrwt>
<totfact> 0.13972072E+05</totfact>
</mgrwt>
</event>
<event>
 8    1  0.1372337E-024  0.8035381E+02  0.7818608E-02  0.1328050E+00
          1   -1    0    0  501    0  0.00000000000E+00  0.00000000000E+00  0.34163668507E+02  0.34163668879E+02  0.50400000000E-02 0. -1.
         -2   -1    0    0    0  501 -0.00000000000E+00 -0.00000000000E+00 -0.47248547352E+02  0.47248547421E+02  0.25500000000E-02 0.  1.
        -24    2    1    2    0    0  0.00000000000E+00  0.00000000000E+00 -0.13084878845E+02  0.81412216300E+02  0.80353810790E+02 0.  0.
         66    2    3    3    0    0  0.27142429813E+02 -0.29573941795E+00 -0.36523011363E+02  0.45549196657E+02  0.19999997641E+01 0.  0.
         13    1    3    3    0    0 -0.27142429813E+02  0.29573941795E+00  0.23438132519E+02  0.35863019644E+02  0.10566000000E+00 0. -1.
         13    1    4    4    0    0  0.52855072923E+01  0.19500425253E+00 -0.68663961910E+01  0.86679394716E+01  0.10566000000E+00 0. -1.
        -13    1    4    4    0    0  0.13521809584E+02 -0.74804952291E+00 -0.17217193338E+02  0.21905292123E+02  0.10566000000E+00 0.  1.
        -14    1    4    4    0    0  0.83351129365E+01  0.25730585243E+00 -0.12439421834E+02  0.14975965062E+02  0.00000000000E+00 0.  1.
<mgrwt>
<rscale>  0 0.80353811E+02</rscale>
<asrwt>0</asrwt>
<pdfrwt beam="1">  1        1 0.52559490E-02 0.80353811E+02</pdfrwt>
<pdfrwt beam="2">  1       -2 0.72690073E-02 0.80353811E+02</pdfrwt>
<totfact> 0.12215407E+05</totfact>
</mgrwt>
</event>
<event>
 8    1  0.1372337E-024  0.7567233E+02  0.7818608E-02  0.1341802E+00
         -2   -1    0    0    0  501 -0.00000000000E+00  0.00000000000E+00  0.65885902689E+02  0.65885902738E+02  0.25500000000E-02 0.  1.
          1   -1    0    0  501    0  0.00000000000E+00 -0.00000000000E+00 -0.21728095534E+02  0.21728096118E+02  0.50400000000E-02 0. -1.
        -24    2    1    2    0    0  0.00000000000E+00  0.00000000000E+00  0.44157807155E+02  0.87613998857E+02  0.75672325608E+02 0.  0.
         66    2    3    3    0    0  0.30725998711E+02 -0.78318232025E+01  0.45939103188E+02  0.55855399532E+02  0.20000009072E+01 0.  0.
         13    1    3    3    0    0 -0.30725998711E+02  0.78318232025E+01 -0.17812960330E+01  0.31758599325E+02  0.10566000000E+00 0. -1.
         13    1    4    4    0    0  0.13216901525E+02 -0.36390559186E+01  0.18713368616E+02  0.23197640891E+02  0.10566000000E+00 0. -1.
        -13    1    4    4    0    0  0.11234276767E+02 -0.29880489276E+01  0.16806472213E+02  0.20435412478E+02  0.10566000000E+00 0.  1.
        -14    1    4    4    0    0  0.62748204183E+01 -0.12047183563E+01  0.10419262360E+02  0.12222346163E+02  0.00000000000E+00 0.  1.
<mgrwt>
<rscale>  0 0.75672326E+02</rscale>
<asrwt>0</asrwt>
<pdfrwt beam="1">  1        1 0.33427840E-02 0.75672326E+02</pdfrwt>
<pdfrwt beam="2">  1       -2 0.10136293E-01 0.75672326E+02</pdfrwt>
<totfact> 0.13390051E+05</totfact>
</mgrwt>
</event>
<event>
 8    1  0.1372337E-024  0.8023885E+02  0.7818608E-02  0.1328375E+00
         -2   -1    0    0    0  501 -0.00000000000E+00  0.00000000000E+00  0.12226148809E+02  0.12226149075E+02  0.25500000000E-02 0.  1.
          1   -1    0    0  501    0  0.00000000000E+00 -0.00000000000E+00 -0.13164964484E+03  0.13164964494E+03  0.50400000000E-02 0. -1.
        -24    2    1    2    0    0  0.00000000000E+00 -0.35527136788E-14 -0.11942349603E+03  0.14387579401E+03  0.80238847812E+02 0.  0.
         66    2    3    3    0    0  0.25167435549E+02  0.27378088619E+02 -0.32876032458E+02  0.49676886568E+02  0.20000000807E+01 0.  0.
         13    1    3    3    0    0 -0.25167435549E+02 -0.27378088619E+02 -0.86547463576E+02  0.94198907446E+02  0.10566000000E+00 0. -1.
         13    1    4    4    0    0  0.16412425888E+02  0.18133812566E+02 -0.20720931728E+02  0.32055749210E+02  0.10566000000E+00 0.  1.
        -13    1    4    4    0    0  0.25599288634E+01  0.22513885972E+01 -0.30439715560E+01  0.45715329235E+01  0.10566000000E+00 0.  1.
        -14    1    4    4    0    0  0.61950807976E+01  0.69928874566E+01 -0.91111291738E+01  0.13049604434E+02  0.00000000000E+00 0.  1.
<mgrwt>
<rscale>  0 0.80238848E+02</rscale>
<asrwt>0</asrwt>
<pdfrwt beam="1">  1        1 0.20253791E-01 0.80238848E+02</pdfrwt>
<pdfrwt beam="2">  1       -2 0.18809461E-02 0.80238848E+02</pdfrwt>
<totfact> 0.15295124E+05</totfact>
</mgrwt>
</event>
<event>
 8    1  0.1528738E-024  0.7881904E+02  0.7818608E-02  0.1332437E+00
          1   -1    0    0  501    0  0.00000000000E+00  0.00000000000E+00  0.19664951020E+02  0.19664951666E+02  0.50400000000E-02 0. -1.
         -2   -1    0    0    0  501 -0.00000000000E+00 -0.00000000000E+00 -0.78978590919E+02  0.78978590960E+02  0.25500000000E-02 0.  1.
        -24    2    1    2    0    0  0.00000000000E+00  0.88817841970E-15 -0.59313639898E+02  0.98643542626E+02  0.78819037191E+02 0.  0.
         66    2    3    3    0    0  0.17621595945E+02 -0.63724342968E+01 -0.73029338684E+02  0.75421567694E+02  0.20000005830E+01 0.  0.
         13    1    3    3    0    0 -0.17621595945E+02  0.63724342968E+01  0.13715698786E+02  0.23221974931E+02  0.10566000000E+00 0. -1.
         13    1    4    4    0    0  0.61894557731E+01 -0.15564422835E+01 -0.24583554311E+02  0.25398704336E+02  0.10566000000E+00 0. -1.
        -13    1    4    4    0    0  0.54180311263E+01 -0.16714668681E+01 -0.22694282487E+02  0.23392103035E+02  0.10566000000E+00 0.  1.
         14    1    4    4    0    0  0.60141090451E+01 -0.31445251452E+01 -0.25751501886E+02  0.26630760323E+02  0.00000000000E+00 0. -1.
<mgrwt>
<rscale>  0 0.78819037E+02</rscale>
<asrwt>0</asrwt>
<pdfrwt beam="1">  1        1 0.30253772E-02 0.78819037E+02</pdfrwt>
<pdfrwt beam="2">  1       -2 0.12150552E-01 0.78819037E+02</pdfrwt>
<totfact> 0.11639631E+05</totfact>
</mgrwt>
</event>
<event>
 8    1  0.1372337E-024  0.7979213E+02  0.7818608E-02  0.1329642E+00
          1   -1    0    0  501    0  0.00000000000E+00  0.00000000000E+00  0.12901519606E+03  0.12901519616E+03  0.50400000000E-02 0. -1.
         -2   -1    0    0    0  501 -0.00000000000E+00 -0.00000000000E+00 -0.12337274312E+02  0.12337274575E+02  0.25500000000E-02 0.  1.
        -24    2    1    2    0    0  0.00000000000E+00  0.88817841970E-15  0.11667792175E+03  0.14135247073E+03  0.79792127174E+02 0.  0.
         66    2    3    3    0    0 -0.23987074116E+02  0.75336911378E+01  0.35572618692E+01  0.25471363204E+02  0.20000011684E+01 0.  0.
         13    1    3    3    0    0  0.23987074116E+02 -0.75336911378E+01  0.11312065988E+03  0.11588110753E+03  0.10566000000E+00 0. -1.
         13    1    4    4    0    0 -0.66094679792E+01  0.15803985151E+01  0.16448554622E+01  0.69928134511E+01  0.10566000000E+00 0. -1.
        -13    1    4    4    0    0 -0.14265763269E+02  0.47218443399E+01  0.13907591101E+01  0.15091493980E+02  0.10566000000E+00 0.  1.
        -14    1    4    4    0    0 -0.31118428680E+01  0.12314482827E+01  0.52164729685E+00  0.33870557732E+01  0.00000000000E+00 0.  1.
<mgrwt>
<rscale>  0 0.79792127E+02</rscale>
<asrwt>0</asrwt>
<pdfrwt beam="1">  1        1 0.19848490E-01 0.79792127E+02</pdfrwt>
<pdfrwt beam="2">  1       -2 0.18980424E-02 0.79792127E+02</pdfrwt>
<totfact> 0.15469747E+05</totfact>
</mgrwt>
</event>
<event>
 8    1  0.1372337E-024  0.7791240E+02  0.7818608E-02  0.1335082E+00
         -2   -1    0    0    0  501 -0.00000000000E+00  0.00000000000E+00  0.75719704642E+02  0.75719704685E+02  0.25500000000E-02 0.  1.
          1   -1    0    0  501    0  0.00000000000E+00 -0.00000000000E+00 -0.20042145998E+02  0.20042146632E+02  0.50400000000E-02 0. -1.
        -24    2    1    2    0    0  0.00000000000E+00 -0.71054273576E-14  0.55677558643E+02  0.95761851317E+02  0.77912397159E+02 0.  0.
         66    2    3    3    0    0  0.38253390036E+01  0.36356849960E+02  0.44307081953E+02  0.57476701954E+02  0.19999997245E+01 0.  0.
         13    1    3    3    0    0 -0.38253390036E+01 -0.36356849960E+02  0.11370476690E+02  0.38285149362E+02  0.10566000000E+00 0. -1.
         13    1    4    4    0    0  0.12578486697E+01  0.85788674291E+01  0.95476427281E+01  0.12897588741E+02  0.10566000000E+00 0. -1.
        -13    1    4    4    0    0  0.53272247190E+00  0.33020128539E+01  0.44526519361E+01  0.55699511146E+01  0.10566000000E+00 0.  1.
        -14    1    4    4    0    0  0.20347678620E+01  0.24475969677E+02  0.30306787289E+02  0.39009162099E+02  0.00000000000E+00 0.  1.
<mgrwt>
<rscale>  0 0.77912397E+02</rscale>
<asrwt>0</asrwt>
<pdfrwt beam="1">  1        1 0.30834071E-02 0.77912397E+02</pdfrwt>
<pdfrwt beam="2">  1       -2 0.11649185E-01 0.77912397E+02</pdfrwt>
<totfact> 0.12094349E+05</totfact>
</mgrwt>
</event>
<event>
 8    1  0.1372337E-024  0.8053977E+02  0.7818608E-02  0.1327527E+00
         -2   -1    0    0    0  501 -0.00000000000E+00  0.00000000000E+00  0.45868472993E+01  0.45868480082E+01  0.25500000000E-02 0.  1.
          1   -1    0    0  501    0  0.00000000000E+00 -0.00000000000E+00 -0.35354647281E+03  0.35354647285E+03  0.50400000000E-02 0. -1.
        -24    2    1    2    0    0  0.00000000000E+00 -0.71054273576E-14 -0.34895962551E+03  0.35813332086E+03  0.80539774456E+02 0.  0.
         66    2    3    3    0    0  0.45575721545E+01  0.39106116209E+02 -0.13749034268E+03  0.14303025594E+03  0.19999990471E+01 0.  0.
         13    1    3    3    0    0 -0.45575721545E+01 -0.39106116209E+02 -0.21146928283E+03  0.21510306491E+03  0.10566000000E+00 0. -1.
         13    1    4    4    0    0  0.39225645651E+00  0.46286735775E+01 -0.18232708703E+02  0.18815454151E+02  0.10566000000E+00 0. -1.
        -13    1    4    4    0    0  0.39791469582E+01  0.30870436222E+02 -0.10634031220E+03  0.11080203340E+03  0.10566000000E+00 0.  1.
        -14    1    4    4    0    0  0.18616873974E+00  0.36070064096E+01 -0.12917321778E+02  0.13412768393E+02  0.00000000000E+00 0.  1.
<mgrwt>
<rscale>  0 0.80539774E+02</rscale>
<asrwt>0</asrwt>
<pdfrwt beam="1">  1        1 0.54391744E-01 0.80539774E+02</pdfrwt>
<pdfrwt beam="2">  1       -2 0.70566915E-03 0.80539774E+02</pdfrwt>
<totfact> 0.18270491E+05</totfact>
</mgrwt>
</event>
<event>
 8    1  0.1372337E-024  0.8257639E+02  0.7818608E-02  0.1321895E+00
          1   -1    0    0  501    0  0.00000000000E+00  0.00000000000E+00  0.30636418519E+03  0.30636418523E+03  0.50400000000E-02 0. -1.
         -2   -1    0    0    0  501 -0.00000000000E+00 -0.00000000000E+00 -0.55643416893E+01  0.55643422736E+01  0.25500000000E-02 0.  1.
        -24    2    1    2    0    0  0.00000000000E+00  0.00000000000E+00  0.30079984350E+03  0.31192852751E+03  0.82576391429E+02 0.  0.
         66    2    3    3    0    0  0.50955681037E+01  0.36657014597E+02  0.81554945337E+02  0.89581865582E+02  0.19999996878E+01 0.  0.
         13    1    3    3    0    0 -0.50955681037E+01 -0.36657014597E+02  0.21924489816E+03  0.22234666192E+03  0.10566000000E+00 0. -1.
         13    1    4    4    0    0  0.53813994483E+00  0.23446924514E+01  0.44306569030E+01  0.50427236609E+01  0.10566000000E+00 0. -1.
        -13    1    4    4    0    0  0.44298826344E+01  0.33203615895E+02  0.74290770200E+02  0.81493764606E+02  0.10566000000E+00 0.  1.
        -14    1    4    4    0    0  0.12754552448E+00  0.11087062506E+01  0.28335182334E+01  0.30453773149E+01  0.00000000000E+00 0.  1.
<mgrwt>
<rscale>  0 0.82576391E+02</rscale>
<asrwt>0</asrwt>
<pdfrwt beam="1">  1        1 0.47132941E-01 0.82576391E+02</pdfrwt>
<pdfrwt beam="2">  1       -2 0.85605282E-03 0.82576391E+02</pdfrwt>
<totfact> 0.16659590E+05</totfact>
</mgrwt>
</event>
<event>
 8    1  0.1407560E-024  0.7870397E+02  0.7818608E-02  0.1332770E+00
          1   -1    0    0  501    0  0.00000000000E+00  0.00000000000E+00  0.18211908072E+02  0.18211908770E+02  0.50400000000E-02 0. -1.
         -2   -1    0    0    0  501 -0.00000000000E+00 -0.00000000000E+00 -0.85031100335E+02  0.85031100373E+02  0.25500000000E-02 0.  1.
        -24    2    1    2    0    0  0.00000000000E+00  0.35527136788E-14 -0.66819192263E+02  0.10324300914E+03  0.78703967386E+02 0.  0.
         66    2    3    3    0    0 -0.92141009309E+01  0.18301469317E+02 -0.77463677416E+02  0.80152758747E+02  0.19999951755E+01 0.  0.
         13    1    3    3    0    0  0.92141009309E+01 -0.18301469317E+02  0.10644485154E+02  0.23090250396E+02  0.10566000000E+00 0. -1.
         13    1    4    4    0    0 -0.73761699818E+00  0.90187393235E+00 -0.35062061504E+01  0.36962279462E+01  0.10566000000E+00 0. -1.
        -13    1    4    4    0    0 -0.55821476194E+01  0.10713925398E+02 -0.44380093300E+02  0.45995134687E+02  0.10566000000E+00 0.  1.
         14    1    4    4    0    0 -0.28943363133E+01  0.66856699875E+01 -0.29577377966E+02  0.30461396114E+02  0.00000000000E+00 0. -1.
<mgrwt>
<rscale>  0 0.78703967E+02</rscale>
<asrwt>0</asrwt>
<pdfrwt beam="1">  1        1 0.28018321E-02 0.78703967E+02</pdfrwt>
<pdfrwt beam="2">  1       -2 0.13081707E-01 0.78703967E+02</pdfrwt>
<totfact> 0.11496142E+05</totfact>
</mgrwt>
</event>
<event>
 8    1  0.1372337E-024  0.8145663E+02  0.7818608E-02  0.1324968E+00
         -2   -1    0    0    0  501 -0.00000000000E+00  0.00000000000E+00  0.12343584078E+02  0.12343584341E+02  0.25500000000E-02 0.  1.
          1   -1    0    0  501    0  0.00000000000E+00 -0.00000000000E+00 -0.13438525445E+03  0.13438525455E+03  0.50400000000E-02 0. -1.
        -24    2    1    2    0    0  0.00000000000E+00  0.00000000000E+00 -0.12204167037E+03  0.14672883889E+03  0.81456631735E+02 0.  0.
         66    2    3    3    0    0 -0.38187247545E+02 -0.11846063318E+02 -0.47316015509E+02  0.61979032102E+02  0.20000013379E+01 0.  0.
         13    1    3    3    0    0  0.38187247545E+02  0.11846063318E+02 -0.74725654863E+02  0.84749806785E+02  0.10566000000E+00 0. -1.
         13    1    4    4    0    0 -0.14980848638E+02 -0.46368164163E+01 -0.17492774908E+02  0.23493280538E+02  0.10566000000E+00 0. -1.
        -13    1    4    4    0    0 -0.11575987609E+02 -0.38091576196E+01 -0.14151770670E+02  0.18676106340E+02  0.10566000000E+00 0.  1.
        -14    1    4    4    0    0 -0.11630411298E+02 -0.34000892823E+01 -0.15671469932E+02  0.19809645224E+02  0.00000000000E+00 0.  1.
<mgrwt>
<rscale>  0 0.81456632E+02</rscale>
<asrwt>0</asrwt>
<pdfrwt beam="1">  1        1 0.20674654E-01 0.81456632E+02</pdfrwt>
<pdfrwt beam="2">  1       -2 0.18990131E-02 0.81456632E+02</pdfrwt>
<totfact> 0.14743846E+05</totfact>
</mgrwt>
</event>
<event>
 8    1  0.1372337E-024  0.8214758E+02  0.7818608E-02  0.1323065E+00
          1   -1    0    0  501    0  0.00000000000E+00  0.00000000000E+00  0.15405938074E+03  0.15405938082E+03  0.50400000000E-02 0. -1.
         -2   -1    0    0    0  501 -0.00000000000E+00 -0.00000000000E+00 -0.10950689208E+02  0.10950689505E+02  0.25500000000E-02 0.  1.
        -24    2    1    2    0    0  0.35527136788E-14  0.17763568394E-14  0.14310869153E+03  0.16501007032E+03  0.82147584974E+02 0.  0.
         66    2    3    3    0    0 -0.27143200263E+02  0.14558075830E+02  0.17088558423E+02  0.35280443775E+02  0.19999979054E+01 0.  0.
         13    1    3    3    0    0  0.27143200263E+02 -0.14558075830E+02  0.12602013311E+03  0.12972962655E+03  0.10566000000E+00 0. -1.
         13    1    4    4    0    0 -0.12428941016E+01  0.27259595994E+00  0.56252737839E+00  0.13952402633E+01  0.10566000000E+00 0. -1.
        -13    1    4    4    0    0 -0.14004393839E+02  0.75000981835E+01  0.89576247906E+01  0.18238002234E+02  0.10566000000E+00 0.  1.
         14    1    4    4    0    0 -0.11895912322E+02  0.67853816863E+01  0.75684062541E+01  0.15647201278E+02  0.00000000000E+00 0. -1.
<mgrwt>
<rscale>  0 0.82147585E+02</rscale>
<asrwt>0</asrwt>
<pdfrwt beam="1">  1        1 0.23701443E-01 0.82147585E+02</pdfrwt>
<pdfrwt beam="2">  1       -2 0.16847214E-02 0.82147585E+02</pdfrwt>
<totfact> 0.14781377E+05</totfact>
</mgrwt>
</event>
<event>
 8    1  0.1372337E-024  0.7922903E+02  0.7818608E-02  0.1331254E+00
          1   -1    0    0  501    0  0.00000000000E+00  0.00000000000E+00  0.91665561236E+02  0.91665561375E+02  0.50400000000E-02 0. -1.
         -2   -1    0    0    0  501 -0.00000000000E+00 -0.00000000000E+00 -0.17119950103E+02  0.17119950293E+02  0.25500000000E-02 0.  1.
        -24    2    1    2    0    0  0.00000000000E+00  0.00000000000E+00  0.74545611133E+02  0.10878551167E+03  0.79229031356E+02 0.  0.
         66    2    3    3    0    0 -0.17038544020E+02 -0.35730872246E+02  0.38045645224E+02  0.54940680076E+02  0.19999982239E+01 0.  0.
         13    1    3    3    0    0  0.17038544020E+02  0.35730872246E+02  0.36499965909E+02  0.53844831592E+02  0.10566000000E+00 0. -1.
         13    1    4    4    0    0 -0.52387987690E+01 -0.10296430813E+02  0.10749798451E+02  0.15780710719E+02  0.10566000000E+00 0. -1.
        -13    1    4    4    0    0 -0.11831919488E+02 -0.25333420812E+02  0.27106195416E+02  0.38942695371E+02  0.10566000000E+00 0.  1.
         14    1    4    4    0    0  0.32174237515E-01 -0.10102062108E+00  0.18965135738E+00  0.21727398555E+00  0.00000000000E+00 0. -1.
<mgrwt>
<rscale>  0 0.79229031E+02</rscale>
<asrwt>0</asrwt>
<pdfrwt beam="1">  1        1 0.14102394E-01 0.79229031E+02</pdfrwt>
<pdfrwt beam="2">  1       -2 0.26338385E-02 0.79229031E+02</pdfrwt>
<totfact> 0.14872487E+05</totfact>
</mgrwt>
</event>
<event>
 8    1  0.1372337E-024  0.7989925E+02  0.7818608E-02  0.1329338E+00
          1   -1    0    0  501    0  0.00000000000E+00  0.00000000000E+00  0.27488064697E+02  0.27488065159E+02  0.50400000000E-02 0. -1.
         -2   -1    0    0    0  501 -0.00000000000E+00 -0.00000000000E+00 -0.58060561127E+02  0.58060561183E+02  0.25500000000E-02 0.  1.
        -24    2    1    2    0    0 -0.35527136788E-14  0.00000000000E+00 -0.30572496429E+02  0.85548626342E+02  0.79899248626E+02 0.  0.
         66    2    3    3    0    0  0.28662183460E+02  0.26709955360E+02 -0.70698029933E+01  0.39861316957E+02  0.19999997960E+01 0.  0.
         13    1    3    3    0    0 -0.28662183460E+02 -0.26709955360E+02 -0.23502693436E+02  0.45687309385E+02  0.10566000000E+00 0. -1.
         13    1    4    4    0    0  0.26545394527E+00  0.35670768319E+00 -0.30483957693E-01  0.45803872716E+00  0.10566000000E+00 0.  1.
        -13    1    4    4    0    0  0.14580285780E+02  0.13133161479E+02 -0.42536396233E+01  0.20079075625E+02  0.10566000000E+00 0.  1.
        -14    1    4    4    0    0  0.13816443734E+02  0.13220086198E+02 -0.27856794123E+01  0.19324202605E+02  0.00000000000E+00 0.  1.
<mgrwt>
<rscale>  0 0.79899249E+02</rscale>
<asrwt>0</asrwt>
<pdfrwt beam="1">  1        1 0.42289331E-02 0.79899249E+02</pdfrwt>
<pdfrwt beam="2">  1       -2 0.89323940E-02 0.79899249E+02</pdfrwt>
<totfact> 0.11949182E+05</totfact>
</mgrwt>
</event>
<event>
 8    1  0.1372337E-024  0.7959683E+02  0.7818608E-02  0.1330199E+00
          1   -1    0    0  501    0  0.00000000000E+00  0.00000000000E+00  0.47352905075E+01  0.47352931896E+01  0.50400000000E-02 0. -1.
         -2   -1    0    0    0  501 -0.00000000000E+00 -0.00000000000E+00 -0.33449130406E+03  0.33449130407E+03  0.25500000000E-02 0.  1.
        -24    2    1    2    0    0  0.00000000000E+00 -0.44408920985E-15 -0.32975601355E+03  0.33922659726E+03  0.79596832940E+02 0.  0.
         66    2    3    3    0    0  0.37460640694E+02 -0.32539792019E+01 -0.10973898214E+03  0.11601953362E+03  0.19999997492E+01 0.  0.
         13    1    3    3    0    0 -0.37460640694E+02  0.32539792019E+01 -0.22001703141E+03  0.22320706363E+03  0.10566000000E+00 0. -1.
         13    1    4    4    0    0  0.65204023027E+01 -0.66737191033E+00 -0.20777823149E+02  0.21787384660E+02  0.10566000000E+00 0. -1.
        -13    1    4    4    0    0  0.10850540896E+02 -0.65312953332E+00 -0.29506147035E+02  0.31444947016E+02  0.10566000000E+00 0.  1.
        -14    1    4    4    0    0  0.20089697495E+02 -0.19334777583E+01 -0.59455011958E+02  0.62787201949E+02  0.00000000000E+00 0.  1.
<mgrwt>
<rscale>  0 0.79596833E+02</rscale>
<asrwt>0</asrwt>
<pdfrwt beam="1">  1        1 0.72850670E-03 0.79596833E+02</pdfrwt>
<pdfrwt beam="2">  1       -2 0.51460182E-01 0.79596833E+02</pdfrwt>
<totfact> 0.66945212E+04</totfact>
</mgrwt>
</event>
<event>
 8    1  0.1372337E-024  0.7651014E+02  0.7818608E-02  0.1339257E+00
          1   -1    0    0  501    0  0.00000000000E+00  0.00000000000E+00  0.39499847356E+02  0.39499847677E+02  0.50400000000E-02 0. -1.
         -2   -1    0    0    0  501 -0.00000000000E+00 -0.00000000000E+00 -0.37049519097E+02  0.37049519185E+02  0.25500000000E-02 0.  1.
        -24    2    1    2    0    0  0.00000000000E+00 -0.17763568394E-14  0.24503282584E+01  0.76549366862E+02  0.76510139579E+02 0.  0.
         66    2    3    3    0    0 -0.25330414326E+02 -0.10196653035E+02 -0.25542976852E+02  0.37443895147E+02  0.19999985591E+01 0.  0.
         13    1    3    3    0    0  0.25330414326E+02  0.10196653035E+02  0.27993305111E+02  0.39105471716E+02  0.10566000000E+00 0. -1.
         13    1    4    4    0    0 -0.80705011950E+01 -0.27406101424E+01 -0.83836782142E+01  0.11955800179E+02  0.10566000000E+00 0. -1.
        -13    1    4    4    0    0 -0.11899778068E+02 -0.50875989900E+01 -0.10984514519E+02  0.16975249772E+02  0.10566000000E+00 0.  1.
         14    1    4    4    0    0 -0.53601350629E+01 -0.23684439031E+01 -0.61747841186E+01  0.85128451957E+01  0.00000000000E+00 0. -1.
<mgrwt>
<rscale>  0 0.76510140E+02</rscale>
<asrwt>0</asrwt>
<pdfrwt beam="1">  1        1 0.60768996E-02 0.76510140E+02</pdfrwt>
<pdfrwt beam="2">  1       -2 0.56999260E-02 0.76510140E+02</pdfrwt>
<totfact> 0.14362086E+05</totfact>
</mgrwt>
</event>
<event>
 8    1  0.1372337E-024  0.7906974E+02  0.7818608E-02  0.1331712E+00
          1   -1    0    0  501    0  0.00000000000E+00  0.00000000000E+00  0.16516040712E+03  0.16516040720E+03  0.50400000000E-02 0. -1.
         -2   -1    0    0    0  501 -0.00000000000E+00 -0.00000000000E+00 -0.94635624775E+01  0.94635628210E+01  0.25500000000E-02 0.  1.
        -24    2    1    2    0    0  0.35527136788E-14  0.17763568394E-14  0.15569684464E+03  0.17462397002E+03  0.79069738037E+02 0.  0.
         66    2    3    3    0    0 -0.23683534528E+02 -0.98097788051E+01  0.11501773231E+02  0.28167931046E+02  0.19999960012E+01 0.  0.
         13    1    3    3    0    0  0.23683534528E+02  0.98097788051E+01  0.14419507141E+03  0.14645603897E+03  0.10566000000E+00 0. -1.
         13    1    4    4    0    0 -0.28932305241E+01 -0.16030068754E+01  0.95578916338E+00  0.34445770231E+01  0.10566000000E+00 0.  1.
        -13    1    4    4    0    0 -0.17065163528E+02 -0.69733919398E+01  0.88199271670E+01  0.20436493845E+02  0.10566000000E+00 0.  1.
        -14    1    4    4    0    0 -0.37251404759E+01 -0.12333799900E+01  0.17260569011E+01  0.42868601786E+01  0.00000000000E+00 0.  1.
<mgrwt>
<rscale>  0 0.79069738E+02</rscale>
<asrwt>0</asrwt>
<pdfrwt beam="1">  1        1 0.25409293E-01 0.79069738E+02</pdfrwt>
<pdfrwt beam="2">  1       -2 0.14559327E-02 0.79069738E+02</pdfrwt>
<totfact> 0.16582929E+05</totfact>
</mgrwt>
</event>
<event>
 8    1  0.1372337E-024  0.7971459E+02  0.7818608E-02  0.1329863E+00
          1   -1    0    0  501    0  0.00000000000E+00  0.00000000000E+00  0.10833974097E+02  0.10833975270E+02  0.50400000000E-02 0. -1.
         -2   -1    0    0    0  501 -0.00000000000E+00 -0.00000000000E+00 -0.14663168291E+03  0.14663168294E+03  0.25500000000E-02 0.  1.
        -24    2    1    2    0    0  0.00000000000E+00  0.00000000000E+00 -0.13579770882E+03  0.15746565821E+03  0.79714589596E+02 0.  0.
         66    2    3    3    0    0  0.99747491583E+01  0.20794096878E+02 -0.13209408857E+03  0.13410718966E+03  0.19999995483E+01 0.  0.
         13    1    3    3    0    0 -0.99747491583E+01 -0.20794096878E+02 -0.37036202461E+01  0.23358468543E+02  0.10566000000E+00 0. -1.
         13    1    4    4    0    0  0.12999428071E+01  0.34515065748E+01 -0.23546175585E+02  0.23833512072E+02  0.10566000000E+00 0. -1.
        -13    1    4    4    0    0  0.72609101679E+01  0.13867977678E+02 -0.89783832643E+02  0.91138298149E+02  0.10566000000E+00 0.  1.
        -14    1    4    4    0    0  0.14138961833E+01  0.34746126252E+01 -0.18764080343E+02  0.19135379443E+02  0.00000000000E+00 0.  1.
<mgrwt>
<rscale>  0 0.79714590E+02</rscale>
<asrwt>0</asrwt>
<pdfrwt beam="1">  1        1 0.16667655E-02 0.79714590E+02</pdfrwt>
<pdfrwt beam="2">  1       -2 0.22558719E-01 0.79714590E+02</pdfrwt>
<totfact> 0.96092051E+04</totfact>
</mgrwt>
</event>
<event>
 8    1  0.1372337E-024  0.8050406E+02  0.7818608E-02  0.1327627E+00
          1   -1    0    0  501    0  0.00000000000E+00  0.00000000000E+00  0.13803078368E+02  0.13803079288E+02  0.50400000000E-02 0. -1.
         -2   -1    0    0    0  501 -0.00000000000E+00 -0.00000000000E+00 -0.11738148834E+03  0.11738148837E+03  0.25500000000E-02 0.  1.
        -24    2    1    2    0    0  0.00000000000E+00  0.71054273576E-14 -0.10357840998E+03  0.13118456766E+03  0.80504060635E+02 0.  0.
         66    2    3    3    0    0 -0.13015342132E+01 -0.29978685354E+02 -0.95479531171E+02  0.10010372840E+03  0.20000001507E+01 0.  0.
         13    1    3    3    0    0  0.13015342132E+01  0.29978685354E+02 -0.80988788039E+01  0.31080839255E+02  0.10566000000E+00 0. -1.
         13    1    4    4    0    0 -0.43575585291E-01 -0.87659439721E+00 -0.21651428265E+01  0.23386586034E+01  0.10566000000E+00 0. -1.
        -13    1    4    4    0    0  0.19915355636E+00 -0.10016090808E+02 -0.32610066093E+02  0.34114356389E+02  0.10566000000E+00 0.  1.
         14    1    4    4    0    0 -0.14571121843E+01 -0.19086000149E+02 -0.60704322252E+02  0.63650713410E+02  0.00000000000E+00 0. -1.
<mgrwt>
<rscale>  0 0.80504061E+02</rscale>
<asrwt>0</asrwt>
<pdfrwt beam="1">  1        1 0.21235507E-02 0.80504061E+02</pdfrwt>
<pdfrwt beam="2">  1       -2 0.18058690E-01 0.80504061E+02</pdfrwt>
<totfact> 0.10014045E+05</totfact>
</mgrwt>
</event>
<event>
 8    1  0.1372337E-024  0.7971558E+02  0.7818608E-02  0.1329861E+00
         -2   -1    0    0    0  501 -0.00000000000E+00  0.00000000000E+00  0.61103504689E+02  0.61103504742E+02  0.25500000000E-02 0.  1.
          1   -1    0    0  501    0  0.00000000000E+00 -0.00000000000E+00 -0.25999217540E+02  0.25999218029E+02  0.50400000000E-02 0. -1.
        -24    2    1    2    0    0  0.00000000000E+00 -0.17763568394E-14  0.35104287149E+02  0.87102722771E+02  0.79715577761E+02 0.  0.
         66    2    3    3    0    0 -0.13219774678E+02 -0.81935198874E+01  0.57632118766E+02  0.59727358443E+02  0.20000055858E+01 0.  0.
         13    1    3    3    0    0  0.13219774678E+02  0.81935198874E+01 -0.22527831617E+02  0.27375364328E+02  0.10566000000E+00 0. -1.
         13    1    4    4    0    0 -0.27035247024E+01 -0.10666163225E+01  0.11003420891E+02  0.11381263178E+02  0.10566000000E+00 0. -1.
        -13    1    4    4    0    0 -0.33509882303E+01 -0.29452813524E+01  0.15298531812E+02  0.15936123870E+02  0.10566000000E+00 0.  1.
         14    1    4    4    0    0 -0.71652617452E+01 -0.41816222125E+01  0.31330166063E+02  0.32409971394E+02  0.00000000000E+00 0. -1.
<mgrwt>
<rscale>  0 0.79715578E+02</rscale>
<asrwt>0</asrwt>
<pdfrwt beam="1">  1        1 0.39998797E-02 0.79715578E+02</pdfrwt>
<pdfrwt beam="2">  1       -2 0.94005392E-02 0.79715578E+02</pdfrwt>
<totfact> 0.11905420E+05</totfact>
</mgrwt>
</event>
<event>
 8    1  0.1372337E-024  0.7505406E+02  0.7818608E-02  0.1343704E+00
         -2   -1    0    0    0  501 -0.00000000000E+00  0.00000000000E+00  0.12800596399E+02  0.12800596653E+02  0.25500000000E-02 0.  1.
          1   -1    0    0  501    0  0.00000000000E+00 -0.00000000000E+00 -0.11001659980E+03  0.11001659992E+03  0.50400000000E-02 0. -1.
        -24    2    1    2    0    0  0.00000000000E+00 -0.35527136788E-14 -0.97216003401E+02  0.12281719657E+03  0.75054063553E+02 0.  0.
         66    2    3    3    0    0  0.17987145242E+02  0.30690460626E+02 -0.29223065089E+02  0.46080682498E+02  0.19999997152E+01 0.  0.
         13    1    3    3    0    0 -0.17987145242E+02 -0.30690460626E+02 -0.67992938312E+02  0.76736514071E+02  0.10566000000E+00 0. -1.
         13    1    4    4    0    0  0.12218957673E+01  0.22770764557E+01 -0.26090313014E+01  0.36737330903E+01  0.10566000000E+00 0. -1.
        -13    1    4    4    0    0  0.13320514575E+02  0.21557204889E+02 -0.20625294523E+02  0.32673584581E+02  0.10566000000E+00 0.  1.
         14    1    4    4    0    0  0.34447349000E+01  0.68561792813E+01 -0.59887392651E+01  0.97333648269E+01  0.00000000000E+00 0. -1.
<mgrwt>
<rscale>  0 0.75054064E+02</rscale>
<asrwt>0</asrwt>
<pdfrwt beam="1">  1        1 0.16925630E-01 0.75054064E+02</pdfrwt>
<pdfrwt beam="2">  1       -2 0.19693226E-02 0.75054064E+02</pdfrwt>
<totfact> 0.17729939E+05</totfact>
</mgrwt>
</event>
<event>
 8    1  0.1372337E-024  0.7362251E+02  0.7818608E-02  0.1348191E+00
          1   -1    0    0  501    0  0.00000000000E+00  0.00000000000E+00  0.25055042725E+02  0.25055043232E+02  0.50400000000E-02 0. -1.
         -2   -1    0    0    0  501 -0.00000000000E+00 -0.00000000000E+00 -0.54083663410E+02  0.54083663471E+02  0.25500000000E-02 0.  1.
        -24    2    1    2    0    0 -0.44408920985E-15  0.00000000000E+00 -0.29028620685E+02  0.79138706703E+02  0.73622510686E+02 0.  0.
         66    2    3    3    0    0  0.37634755439E+01  0.32102233975E+02 -0.33400464669E+02  0.46522125671E+02  0.19999906382E+01 0.  0.
         13    1    3    3    0    0 -0.37634755439E+01 -0.32102233975E+02  0.43718439840E+01  0.32616581032E+02  0.10566000000E+00 0. -1.
         13    1    4    4    0    0  0.19535567968E+01  0.13511329281E+02 -0.14620393123E+02  0.20003486251E+02  0.10566000000E+00 0. -1.
        -13    1    4    4    0    0  0.17518388046E+01  0.18572318649E+02 -0.18669988908E+02  0.26392794643E+02  0.10566000000E+00 0.  1.
         14    1    4    4    0    0  0.58079942578E-01  0.18586044668E-01 -0.11008263853E+00  0.12584477777E+00  0.00000000000E+00 0. -1.
<mgrwt>
<rscale>  0 0.73622511E+02</rscale>
<asrwt>0</asrwt>
<pdfrwt beam="1">  1        1 0.38546220E-02 0.73622511E+02</pdfrwt>
<pdfrwt beam="2">  1       -2 0.83205636E-02 0.73622511E+02</pdfrwt>
<totfact> 0.14871878E+05</totfact>
</mgrwt>
</event>
<event>
 8    1  0.1372337E-024  0.7685143E+02  0.7818608E-02  0.1338232E+00
          1   -1    0    0  501    0  0.00000000000E+00  0.00000000000E+00  0.40288980024E+02  0.40288980339E+02  0.50400000000E-02 0. -1.
         -2   -1    0    0    0  501 -0.00000000000E+00 -0.00000000000E+00 -0.36648619432E+02  0.36648619521E+02  0.25500000000E-02 0.  1.
        -24    2    1    2    0    0  0.17763568394E-14  0.00000000000E+00  0.36403605914E+01  0.76937599860E+02  0.76851428399E+02 0.  0.
         66    2    3    3    0    0  0.14027096146E+02 -0.23234854222E+02 -0.25373598337E+02  0.37208028333E+02  0.20000007145E+01 0.  0.
         13    1    3    3    0    0 -0.14027096146E+02  0.23234854222E+02  0.29013958928E+02  0.39729571527E+02  0.10566000000E+00 0. -1.
         13    1    4    4    0    0  0.23041600155E+01 -0.48845297030E+01 -0.42956108107E+01  0.69015375149E+01  0.10566000000E+00 0. -1.
        -13    1    4    4    0    0  0.80210248788E+01 -0.12455865656E+02 -0.14407055034E+02  0.20665425912E+02  0.10566000000E+00 0.  1.
         14    1    4    4    0    0  0.37019112517E+01 -0.58944588632E+01 -0.66709324927E+01  0.96410649064E+01  0.00000000000E+00 0. -1.
<mgrwt>
<rscale>  0 0.76851428E+02</rscale>
<asrwt>0</asrwt>
<pdfrwt beam="1">  1        1 0.61983046E-02 0.76851428E+02</pdfrwt>
<pdfrwt beam="2">  1       -2 0.56382492E-02 0.76851428E+02</pdfrwt>
<totfact> 0.14228123E+05</totfact>
</mgrwt>
</event>
<event>
 8    1  0.1372337E-024  0.7765981E+02  0.7818608E-02  0.1335827E+00
          1   -1    0    0  501    0  0.00000000000E+00  0.00000000000E+00  0.42863836694E+02  0.42863836991E+02  0.50400000000E-02 0. -1.
         -2   -1    0    0    0  501 -0.00000000000E+00 -0.00000000000E+00 -0.35175605013E+02  0.35175605106E+02  0.25500000000E-02 0.  1.
        -24    2    1    2    0    0  0.00000000000E+00  0.00000000000E+00  0.76882316813E+01  0.78039442096E+02  0.77659806955E+02 0.  0.
         66    2    3    3    0    0 -0.18114656028E+02  0.24374586784E+02 -0.20427071255E+02  0.36654146795E+02  0.19999983279E+01 0.  0.
         13    1    3    3    0    0  0.18114656028E+02 -0.24374586784E+02  0.28115302936E+02  0.41385295301E+02  0.10566000000E+00 0. -1.
         13    1    4    4    0    0 -0.32341947741E+01  0.52653023905E+01 -0.42759039171E+01  0.75151808657E+01  0.10566000000E+00 0. -1.
        -13    1    4    4    0    0 -0.14345439848E+02  0.18130971252E+02 -0.15160018181E+02  0.27647080827E+02  0.10566000000E+00 0.  1.
        -14    1    4    4    0    0 -0.53502140622E+00  0.97831314202E+00 -0.99114915621E+00  0.14918851024E+01  0.00000000000E+00 0.  1.
<mgrwt>
<rscale>  0 0.77659807E+02</rscale>
<asrwt>0</asrwt>
<pdfrwt beam="1">  1        1 0.65944364E-02 0.77659807E+02</pdfrwt>
<pdfrwt beam="2">  1       -2 0.54116316E-02 0.77659807E+02</pdfrwt>
<totfact> 0.13951958E+05</totfact>
</mgrwt>
</event>
<event>
 8    1  0.1372337E-024  0.8020548E+02  0.7818608E-02  0.1328469E+00
          1   -1    0    0  501    0  0.00000000000E+00  0.00000000000E+00  0.35582540582E+03  0.35582540586E+03  0.50400000000E-02 0. -1.
         -2   -1    0    0    0  501 -0.00000000000E+00 -0.00000000000E+00 -0.45197151242E+01  0.45197158436E+01  0.25500000000E-02 0.  1.
        -24    2    1    2    0    0  0.00000000000E+00  0.00000000000E+00  0.35130569070E+03  0.36034512170E+03  0.80205476230E+02 0.  0.
         66    2    3    3    0    0  0.34581878811E+02 -0.20226341811E+02  0.17081277279E+03  0.17545943858E+03  0.19999981573E+01 0.  0.
         13    1    3    3    0    0 -0.34581878811E+02  0.20226341811E+02  0.18049291791E+03  0.18488568312E+03  0.10566000000E+00 0. -1.
         13    1    4    4    0    0  0.42801450802E+01 -0.30888797745E+01  0.23674350671E+02  0.24255862464E+02  0.10566000000E+00 0. -1.
        -13    1    4    4    0    0  0.43791983577E+01 -0.28353323960E+01  0.22484344840E+02  0.23081884996E+02  0.10566000000E+00 0.  1.
        -14    1    4    4    0    0  0.25922535373E+02 -0.14302129641E+02  0.12465407728E+03  0.12812169112E+03  0.00000000000E+00 0.  1.
<mgrwt>
<rscale>  0 0.80205476E+02</rscale>
<asrwt>0</asrwt>
<pdfrwt beam="1">  1        1 0.54742383E-01 0.80205476E+02</pdfrwt>
<pdfrwt beam="2">  1       -2 0.69534069E-03 0.80205476E+02</pdfrwt>
<totfact> 0.18492607E+05</totfact>
</mgrwt>
</event>
<event>
 8    1  0.1372337E-024  0.7933156E+02  0.7818608E-02  0.1330959E+00
          1   -1    0    0  501    0  0.00000000000E+00  0.00000000000E+00  0.68521801777E+01  0.68521820312E+01  0.50400000000E-02 0. -1.
         -2   -1    0    0    0  501 -0.00000000000E+00 -0.00000000000E+00 -0.22961652646E+03  0.22961652648E+03  0.25500000000E-02 0.  1.
        -24    2    1    2    0    0  0.00000000000E+00 -0.35527136788E-14 -0.22276434628E+03  0.23646870851E+03  0.79331558208E+02 0.  0.
         66    2    3    3    0    0  0.31066207779E+02  0.21081017321E+02 -0.14937420136E+03  0.15403301786E+03  0.20000002572E+01 0.  0.
         13    1    3    3    0    0 -0.31066207779E+02 -0.21081017321E+02 -0.73390144924E+02  0.82435690651E+02  0.10566000000E+00 0. -1.
         13    1    4    4    0    0  0.12462782299E+01  0.52993929480E+00 -0.47395764417E+01  0.49303949096E+01  0.10566000000E+00 0.  1.
        -13    1    4    4    0    0  0.37359993364E+01  0.23346054474E+01 -0.18446597300E+02  0.18965658165E+02  0.10566000000E+00 0. -1.
        -14    1    4    4    0    0  0.26083930212E+02  0.18216472579E+02 -0.12618802762E+03  0.13013696478E+03  0.00000000000E+00 0.  1.
<mgrwt>
<rscale>  0 0.79331558E+02</rscale>
<asrwt>0</asrwt>
<pdfrwt beam="1">  1        1 0.10541819E-02 0.79331558E+02</pdfrwt>
<pdfrwt beam="2">  1       -2 0.35325614E-01 0.79331558E+02</pdfrwt>
<totfact> 0.81964249E+04</totfact>
</mgrwt>
</event>
<event>
 8    1  0.1372337E-024  0.8337653E+02  0.7818608E-02  0.1319734E+00
         -2   -1    0    0    0  501 -0.00000000000E+00  0.00000000000E+00  0.66224295317E+02  0.66224295366E+02  0.25500000000E-02 0.  1.
          1   -1    0    0  501    0  0.00000000000E+00 -0.00000000000E+00 -0.26242804810E+02  0.26242805294E+02  0.50400000000E-02 0. -1.
        -24    2    1    2    0    0  0.00000000000E+00  0.88817841970E-15  0.39981490507E+02  0.92467100660E+02  0.83376526201E+02 0.  0.
         66    2    3    3    0    0  0.33093348420E+02 -0.37451872025E+01  0.47765881310E+02  0.58264702483E+02  0.20000003257E+01 0.  0.
         13    1    3    3    0    0 -0.33093348420E+02  0.37451872025E+01 -0.77843908038E+01  0.34202398176E+02  0.10566000000E+00 0. -1.
         13    1    4    4    0    0  0.24632136253E+02 -0.22665705079E+01  0.34796610190E+02  0.42693028975E+02  0.10566000000E+00 0. -1.
        -13    1    4    4    0    0  0.73971287111E+01 -0.10760094235E+01  0.11428139688E+02  0.13656092055E+02  0.10566000000E+00 0.  1.
         14    1    4    4    0    0  0.10640834554E+01 -0.40260727116E+00  0.15411314319E+01  0.19155814536E+01  0.00000000000E+00 0. -1.
<mgrwt>
<rscale>  0 0.83376526E+02</rscale>
<asrwt>0</asrwt>
<pdfrwt beam="1">  1        1 0.40373546E-02 0.83376526E+02</pdfrwt>
<pdfrwt beam="2">  1       -2 0.10188353E-01 0.83376526E+02</pdfrwt>
<totfact> 0.10461131E+05</totfact>
</mgrwt>
</event>
<event>
 8    1  0.1372337E-024  0.7866562E+02  0.7818608E-02  0.1332881E+00
         -2   -1    0    0    0  501 -0.00000000000E+00  0.00000000000E+00  0.28571975367E+03  0.28571975368E+03  0.25500000000E-02 0.  1.
          1   -1    0    0  501    0  0.00000000000E+00 -0.00000000000E+00 -0.54146401173E+01  0.54146424629E+01  0.50400000000E-02 0. -1.
        -24    2    1    2    0    0 -0.35527136788E-14 -0.17763568394E-14  0.28030511355E+03  0.29113439614E+03  0.78665621045E+02 0.  0.
         66    2    3    3    0    0  0.12939756898E+02  0.71882615750E+01  0.27500668191E+03  0.27541202498E+03  0.19999988260E+01 0.  0.
         13    1    3    3    0    0 -0.12939756898E+02 -0.71882615750E+01  0.52984316391E+01  0.15722371161E+02  0.10566000000E+00 0. -1.
         13    1    4    4    0    0  0.31642831139E+01  0.15286372048E+01  0.73365384377E+02  0.73449575957E+02  0.10566000000E+00 0. -1.
        -13    1    4    4    0    0  0.40984091363E+01  0.16368388308E+01  0.82965553344E+02  0.83082912832E+02  0.10566000000E+00 0.  1.
         14    1    4    4    0    0  0.56770646478E+01  0.40227855393E+01  0.11867574419E+03  0.11887953619E+03  0.00000000000E+00 0. -1.
<mgrwt>
<rscale>  0 0.78665621E+02</rscale>
<asrwt>0</asrwt>
<pdfrwt beam="1">  1        1 0.83302158E-03 0.78665621E+02</pdfrwt>
<pdfrwt beam="2">  1       -2 0.43956894E-01 0.78665621E+02</pdfrwt>
<totfact> 0.75326977E+04</totfact>
</mgrwt>
</event>
<event>
 8    1  0.1372337E-024  0.7920243E+02  0.7818608E-02  0.1331330E+00
          1   -1    0    0  501    0  0.00000000000E+00  0.00000000000E+00  0.16521034430E+02  0.16521035199E+02  0.50400000000E-02 0. -1.
         -2   -1    0    0    0  501 -0.00000000000E+00 -0.00000000000E+00 -0.94924827587E+02  0.94924827621E+02  0.25500000000E-02 0.  1.
        -24    2    1    2    0    0  0.00000000000E+00  0.35527136788E-14 -0.78403793157E+02  0.11144586282E+03  0.79202434042E+02 0.  0.
         66    2    3    3    0    0 -0.31418501925E+02 -0.19256363306E+02 -0.59536015092E+02  0.70046176780E+02  0.19999993920E+01 0.  0.
         13    1    3    3    0    0  0.31418501925E+02  0.19256363306E+02 -0.18867778065E+02  0.41399686039E+02  0.10566000000E+00 0. -1.
         13    1    4    4    0    0 -0.90282741518E+01 -0.46802792607E+01 -0.17356177530E+02  0.20116232515E+02  0.10566000000E+00 0. -1.
        -13    1    4    4    0    0 -0.71046795953E+01 -0.46275256698E+01 -0.13211392728E+02  0.15698488074E+02  0.10566000000E+00 0.  1.
         14    1    4    4    0    0 -0.15285548177E+02 -0.99485583760E+01 -0.28968444834E+02  0.34231456191E+02  0.00000000000E+00 0. -1.
<mgrwt>
<rscale>  0 0.79202434E+02</rscale>
<asrwt>0</asrwt>
<pdfrwt beam="1">  1        1 0.25416977E-02 0.79202434E+02</pdfrwt>
<pdfrwt beam="2">  1       -2 0.14603819E-01 0.79202434E+02</pdfrwt>
<totfact> 0.11027551E+05</totfact>
</mgrwt>
</event>
<event>
 8    1  0.1372337E-024  0.8079690E+02  0.7818608E-02  0.1326805E+00
          1   -1    0    0  501    0  0.00000000000E+00  0.00000000000E+00  0.39284874765E+03  0.39284874768E+03  0.50400000000E-02 0. -1.
         -2   -1    0    0    0  501 -0.00000000000E+00 -0.00000000000E+00 -0.41543588899E+01  0.41543596725E+01  0.25500000000E-02 0.  1.
        -24    2    1    2    0    0  0.00000000000E+00  0.00000000000E+00  0.38869438876E+03  0.39700310735E+03  0.80796902142E+02 0.  0.
         66    2    3    3    0    0 -0.39356167897E+02 -0.89194463427E+01  0.20061363324E+03  0.20464186844E+03  0.20000008931E+01 0.  0.
         13    1    3    3    0    0  0.39356167897E+02  0.89194463427E+01  0.18808075552E+03  0.19236123891E+03  0.10566000000E+00 0. -1.
         13    1    4    4    0    0 -0.83643246903E+01 -0.16570319539E+01  0.38767923033E+02  0.39694718827E+02  0.10566000000E+00 0. -1.
        -13    1    4    4    0    0 -0.15356667393E+02 -0.38024356210E+01  0.79569329316E+02  0.81126907262E+02  0.10566000000E+00 0.  1.
        -14    1    4    4    0    0 -0.15635175813E+02 -0.34599787678E+01  0.82276380890E+02  0.83820242353E+02  0.00000000000E+00 0.  1.
<mgrwt>
<rscale>  0 0.80796902E+02</rscale>
<asrwt>0</asrwt>
<pdfrwt beam="1">  1        1 0.60438267E-01 0.80796902E+02</pdfrwt>
<pdfrwt beam="2">  1       -2 0.63913222E-03 0.80796902E+02</pdfrwt>
<totfact> 0.18450153E+05</totfact>
</mgrwt>
</event>
<event>
 8    1  0.1372337E-024  0.7925963E+02  0.7818608E-02  0.1331166E+00
         -2   -1    0    0    0  501 -0.00000000000E+00  0.00000000000E+00  0.29224562274E+03  0.29224562275E+03  0.25500000000E-02 0.  1.
          1   -1    0    0  501    0  0.00000000000E+00 -0.00000000000E+00 -0.53739797170E+01  0.53739820804E+01  0.50400000000E-02 0. -1.
        -24    2    1    2    0    0  0.88817841970E-15  0.00000000000E+00  0.28687164302E+03  0.29761960483E+03  0.79259634173E+02 0.  0.
         66    2    3    3    0    0  0.28908485581E+01  0.10381602329E+02  0.28663031824E+03  0.28683980548E+03  0.20000003499E+01 0.  0.
         13    1    3    3    0    0 -0.28908485581E+01 -0.10381602329E+02  0.24132478051E+00  0.10779799349E+02  0.10566000000E+00 0. -1.
         13    1    4    4    0    0  0.21477976179E+00  0.51069472559E-01  0.68623116341E+01  0.68666748457E+01  0.10566000000E+00 0. -1.
        -13    1    4    4    0    0  0.12773723153E+00  0.10402087082E+01  0.34272538072E+02  0.34288720899E+02  0.10566000000E+00 0.  1.
        -14    1    4    4    0    0  0.25483315647E+01  0.92903241485E+01  0.24549546854E+03  0.24568440974E+03  0.00000000000E+00 0.  1.
<mgrwt>
<rscale>  0 0.79259634E+02</rscale>
<asrwt>0</asrwt>
<pdfrwt beam="1">  1        1 0.82676627E-03 0.79259634E+02</pdfrwt>
<pdfrwt beam="2">  1       -2 0.44960867E-01 0.79259634E+02</pdfrwt>
<totfact> 0.73000368E+04</totfact>
</mgrwt>
</event>
<event>
 8    1  0.1372337E-024  0.8081701E+02  0.7818608E-02  0.1326749E+00
          1   -1    0    0  501    0  0.00000000000E+00  0.00000000000E+00  0.10536970184E+03  0.10536970196E+03  0.50400000000E-02 0. -1.
         -2   -1    0    0    0  501 -0.00000000000E+00 -0.00000000000E+00 -0.15496362103E+02  0.15496362313E+02  0.25500000000E-02 0.  1.
        -24    2    1    2    0    0  0.00000000000E+00  0.55511151231E-16  0.89873339738E+02  0.12086606427E+03  0.80817005001E+02 0.  0.
         66    2    3    3    0    0 -0.38078353749E+02 -0.34133206539E+00  0.65071623221E+02  0.75421440411E+02  0.19999983250E+01 0.  0.
         13    1    3    3    0    0  0.38078353749E+02  0.34133206539E+00  0.24801716517E+02  0.45444623863E+02  0.10566000000E+00 0. -1.
         13    1    4    4    0    0 -0.88983847740E+01  0.45686753042E+00  0.15934351217E+02  0.18256634199E+02  0.10566000000E+00 0. -1.
        -13    1    4    4    0    0 -0.10786397260E+02 -0.25063642242E+00  0.19204779431E+02  0.22028252348E+02  0.10566000000E+00 0.  1.
         14    1    4    4    0    0 -0.18393571715E+02 -0.54756317338E+00  0.29932492572E+02  0.35136553864E+02  0.00000000000E+00 0. -1.
<mgrwt>
<rscale>  0 0.80817005E+02</rscale>
<asrwt>0</asrwt>
<pdfrwt beam="1">  1        1 0.16210723E-01 0.80817005E+02</pdfrwt>
<pdfrwt beam="2">  1       -2 0.23840558E-02 0.80817005E+02</pdfrwt>
<totfact> 0.14428436E+05</totfact>
</mgrwt>
</event>
<event>
 8    1  0.1372337E-024  0.7996981E+02  0.7818608E-02  0.1329137E+00
         -2   -1    0    0    0  501 -0.00000000000E+00  0.00000000000E+00  0.11232777075E+02  0.11232777365E+02  0.25500000000E-02 0.  1.
          1   -1    0    0  501    0  0.00000000000E+00 -0.00000000000E+00 -0.14233278511E+03  0.14233278520E+03  0.50400000000E-02 0. -1.
        -24    2    1    2    0    0  0.00000000000E+00 -0.35527136788E-14 -0.13110000804E+03  0.15356556257E+03  0.79969806171E+02 0.  0.
         66    2    3    3    0    0  0.26964988360E+02 -0.22198555221E+02 -0.10287136778E+03  0.10865728108E+03  0.19999928826E+01 0.  0.
         13    1    3    3    0    0 -0.26964988360E+02  0.22198555221E+02 -0.28228640252E+02  0.44908281482E+02  0.10566000000E+00 0. -1.
         13    1    4    4    0    0  0.11577115673E+02 -0.88290676323E+01 -0.41994298154E+02  0.44446757858E+02  0.10566000000E+00 0.  1.
        -13    1    4    4    0    0  0.44788593589E+01 -0.42378508062E+01 -0.19943366356E+02  0.20875070928E+02  0.10566000000E+00 0. -1.
         14    1    4    4    0    0  0.10909013328E+02 -0.91316367826E+01 -0.40933703274E+02  0.43335452297E+02  0.00000000000E+00 0. -1.
<mgrwt>
<rscale>  0 0.79969806E+02</rscale>
<asrwt>0</asrwt>
<pdfrwt beam="1">  1        1 0.21897350E-01 0.79969806E+02</pdfrwt>
<pdfrwt beam="2">  1       -2 0.17281197E-02 0.79969806E+02</pdfrwt>
<totfact> 0.15652944E+05</totfact>
</mgrwt>
</event>
<event>
 8    1  0.1419052E-024  0.8042501E+02  0.7818608E-02  0.1327850E+00
          1   -1    0    0  501    0  0.00000000000E+00  0.00000000000E+00  0.58442399743E+02  0.58442399961E+02  0.50400000000E-02 0. -1.
         -2   -1    0    0    0  501 -0.00000000000E+00 -0.00000000000E+00 -0.27669046704E+02  0.27669046821E+02  0.25500000000E-02 0.  1.
        -24    2    1    2    0    0  0.00000000000E+00 -0.17763568394E-14  0.30773353040E+02  0.86111446782E+02  0.80425008608E+02 0.  0.
         66    2    3    3    0    0 -0.21725605561E+02  0.15513521442E+02 -0.16767231915E+02  0.31588152069E+02  0.20000001160E+01 0.  0.
         13    1    3    3    0    0  0.21725605561E+02 -0.15513521442E+02  0.47540584955E+02  0.54523294713E+02  0.10566000000E+00 0. -1.
         13    1    4    4    0    0 -0.89719138097E+01  0.71224381436E+01 -0.70879533969E+01  0.13471251238E+02  0.10566000000E+00 0. -1.
        -13    1    4    4    0    0 -0.10230810693E+02  0.72841150102E+01 -0.79499198759E+01  0.14864057622E+02  0.10566000000E+00 0.  1.
         14    1    4    4    0    0 -0.25228810592E+01  0.11069682884E+01 -0.17293586422E+01  0.32528432092E+01  0.00000000000E+00 0. -1.
<mgrwt>
<rscale>  0 0.80425009E+02</rscale>
<asrwt>0</asrwt>
<pdfrwt beam="1">  1        1 0.89911384E-02 0.80425009E+02</pdfrwt>
<pdfrwt beam="2">  1       -2 0.42567764E-02 0.80425009E+02</pdfrwt>
<totfact> 0.13287032E+05</totfact>
</mgrwt>
</event>
<event>
 8    1  0.1372337E-024  0.7959238E+02  0.7818608E-02  0.1330212E+00
          1   -1    0    0  501    0  0.00000000000E+00  0.00000000000E+00  0.39074249398E+01  0.39074281902E+01  0.50400000000E-02 0. -1.
         -2   -1    0    0    0  501 -0.00000000000E+00 -0.00000000000E+00 -0.40531454320E+03  0.40531454320E+03  0.25500000000E-02 0.  1.
        -24    2    1    2    0    0  0.35527136788E-14  0.35527136788E-14 -0.40140711826E+03  0.40922197139E+03  0.79592382079E+02 0.  0.
         66    2    3    3    0    0 -0.30536339377E+02 -0.18918544293E+02 -0.28858997896E+03  0.29082392486E+03  0.19999931602E+01 0.  0.
         13    1    3    3    0    0  0.30536339377E+02  0.18918544293E+02 -0.11281713930E+03  0.11839804654E+03  0.10566000000E+00 0. -1.
         13    1    4    4    0    0 -0.55899701234E+01 -0.29856380508E+01 -0.55868230609E+02  0.56226614303E+02  0.10566000000E+00 0. -1.
        -13    1    4    4    0    0 -0.48119143884E+01 -0.31127656404E+01 -0.43541566120E+02  0.43917228672E+02  0.10566000000E+00 0.  1.
         14    1    4    4    0    0 -0.20134454866E+02 -0.12820140601E+02 -0.18918018223E+03  0.19068008188E+03  0.00000000000E+00 0. -1.
<mgrwt>
<rscale>  0 0.79592382E+02</rscale>
<asrwt>0</asrwt>
<pdfrwt beam="1">  1        1 0.60114287E-03 0.79592382E+02</pdfrwt>
<pdfrwt beam="2">  1       -2 0.62356051E-01 0.79592382E+02</pdfrwt>
<totfact> 0.59354715E+04</totfact>
</mgrwt>
</event>
<event>
 8    1  0.1372337E-024  0.7657393E+02  0.7818608E-02  0.1339065E+00
          1   -1    0    0  501    0  0.00000000000E+00  0.00000000000E+00  0.33473515067E+02  0.33473515446E+02  0.50400000000E-02 0. -1.
         -2   -1    0    0    0  501 -0.00000000000E+00 -0.00000000000E+00 -0.43792577176E+02  0.43792577250E+02  0.25500000000E-02 0.  1.
        -24    2    1    2    0    0  0.00000000000E+00  0.00000000000E+00 -0.10319062109E+02  0.77266092696E+02  0.76573925312E+02 0.  0.
         66    2    3    3    0    0 -0.23971426403E+01 -0.23741898265E+02 -0.35340948815E+02  0.42689655569E+02  0.20000008476E+01 0.  0.
         13    1    3    3    0    0  0.23971426403E+01  0.23741898265E+02  0.25021886706E+02  0.34576437127E+02  0.10566000000E+00 0. -1.
         13    1    4    4    0    0 -0.14274294230E+01 -0.15864075782E+02 -0.23012965445E+02  0.27987750852E+02  0.10566000000E+00 0. -1.
        -13    1    4    4    0    0 -0.10915364835E+01 -0.50806565880E+01 -0.76076234950E+01  0.92136649895E+01  0.10566000000E+00 0.  1.
        -14    1    4    4    0    0  0.12182326625E+00 -0.27971658955E+01 -0.47203598745E+01  0.54882397269E+01  0.00000000000E+00 0.  1.
<mgrwt>
<rscale>  0 0.76573925E+02</rscale>
<asrwt>0</asrwt>
<pdfrwt beam="1">  1        1 0.51497716E-02 0.76573925E+02</pdfrwt>
<pdfrwt beam="2">  1       -2 0.67373196E-02 0.76573925E+02</pdfrwt>
<totfact> 0.13957814E+05</totfact>
</mgrwt>
</event>
<event>
 8    1  0.1372337E-024  0.7986348E+02  0.7818608E-02  0.1329439E+00
         -2   -1    0    0    0  501 -0.00000000000E+00  0.00000000000E+00  0.20273176572E+02  0.20273176732E+02  0.25500000000E-02 0.  1.
          1   -1    0    0  501    0  0.00000000000E+00 -0.00000000000E+00 -0.78652883237E+02  0.78652883398E+02  0.50400000000E-02 0. -1.
        -24    2    1    2    0    0  0.00000000000E+00 -0.88817841970E-15 -0.58379706665E+02  0.98926060131E+02  0.79863478653E+02 0.  0.
         66    2    3    3    0    0  0.37934419777E+02  0.56696893357E+01 -0.15561522493E+02  0.41440639015E+02  0.19999996654E+01 0.  0.
         13    1    3    3    0    0 -0.37934419777E+02 -0.56696893357E+01 -0.42818184173E+02  0.57485421116E+02  0.10566000000E+00 0. -1.
         13    1    4    4    0    0  0.10433711066E+02  0.89037375192E+00 -0.42018195719E+01  0.11283684850E+02  0.10566000000E+00 0. -1.
        -13    1    4    4    0    0  0.98610616220E+01  0.15670839430E+01 -0.35118045191E+01  0.10584905451E+02  0.10566000000E+00 0.  1.
         14    1    4    4    0    0  0.17639647089E+02  0.32122316408E+01 -0.78478984017E+01  0.19572048714E+02  0.00000000000E+00 0. -1.
<mgrwt>
<rscale>  0 0.79863479E+02</rscale>
<asrwt>0</asrwt>
<pdfrwt beam="1">  1        1 0.12100443E-01 0.79863479E+02</pdfrwt>
<pdfrwt beam="2">  1       -2 0.31189503E-02 0.79863479E+02</pdfrwt>
<totfact> 0.14196659E+05</totfact>
</mgrwt>
</event>
<event>
 8    1  0.1372337E-024  0.7998552E+02  0.7818608E-02  0.1329093E+00
          1   -1    0    0  501    0  0.00000000000E+00  0.00000000000E+00  0.14195639175E+02  0.14195640070E+02  0.50400000000E-02 0. -1.
         -2   -1    0    0    0  501 -0.00000000000E+00 -0.00000000000E+00 -0.11266986306E+03  0.11266986308E+03  0.25500000000E-02 0.  1.
        -24    2    1    2    0    0  0.00000000000E+00  0.00000000000E+00 -0.98474223880E+02  0.12686550315E+03  0.79985518201E+02 0.  0.
         66    2    3    3    0    0  0.86948439331E+01  0.14135568723E+02 -0.10693756575E+03  0.10823611954E+03  0.19999974476E+01 0.  0.
         13    1    3    3    0    0 -0.86948439331E+01 -0.14135568723E+02  0.84633418732E+01  0.18629383614E+02  0.10566000000E+00 0. -1.
         13    1    4    4    0    0  0.49670128264E+01  0.70178864561E+01 -0.56044216421E+02  0.56699976234E+02  0.10566000000E+00 0. -1.
        -13    1    4    4    0    0  0.15806065930E+01  0.22690754815E+01 -0.20087746669E+02  0.20277469048E+02  0.10566000000E+00 0.  1.
        -14    1    4    4    0    0  0.21472245137E+01  0.48486067853E+01 -0.30805602664E+02  0.31258674258E+02  0.00000000000E+00 0.  1.
<mgrwt>
<rscale>  0 0.79985518E+02</rscale>
<asrwt>0</asrwt>
<pdfrwt beam="1">  1        1 0.21839446E-02 0.79985518E+02</pdfrwt>
<pdfrwt beam="2">  1       -2 0.17333824E-01 0.79985518E+02</pdfrwt>
<totfact> 0.10295677E+05</totfact>
</mgrwt>
</event>
<event>
 8    1  0.1372337E-024  0.7793003E+02  0.7818608E-02  0.1335030E+00
         -2   -1    0    0    0  501 -0.00000000000E+00  0.00000000000E+00  0.14395578613E+03  0.14395578615E+03  0.25500000000E-02 0.  1.
          1   -1    0    0  501    0  0.00000000000E+00 -0.00000000000E+00 -0.10546796426E+02  0.10546797631E+02  0.50400000000E-02 0. -1.
        -24    2    1    2    0    0  0.00000000000E+00  0.00000000000E+00  0.13340898971E+03  0.15450258379E+03  0.77930031837E+02 0.  0.
         66    2    3    3    0    0  0.15657882862E+02  0.16208918246E+02  0.12970482221E+03  0.13166335553E+03  0.19999897226E+01 0.  0.
         13    1    3    3    0    0 -0.15657882862E+02 -0.16208918246E+02  0.37041674970E+01  0.22839228255E+02  0.10566000000E+00 0. -1.
         13    1    4    4    0    0  0.12408517999E+01  0.92228607906E+00  0.84673466505E+01  0.86079874614E+01  0.10566000000E+00 0. -1.
        -13    1    4    4    0    0  0.66878475699E+01  0.65220345496E+01  0.57915638535E+02  0.58664270137E+02  0.10566000000E+00 0.  1.
        -14    1    4    4    0    0  0.77291834922E+01  0.87645976169E+01  0.63321837023E+02  0.64391097932E+02  0.00000000000E+00 0.  1.
<mgrwt>
<rscale>  0 0.77930032E+02</rscale>
<asrwt>0</asrwt>
<pdfrwt beam="1">  1        1 0.16225842E-02 0.77930032E+02</pdfrwt>
<pdfrwt beam="2">  1       -2 0.22147043E-01 0.77930032E+02</pdfrwt>
<totfact> 0.10245455E+05</totfact>
</mgrwt>
</event>
<event>
 8    1  0.1372337E-024  0.7896049E+02  0.7818608E-02  0.1332028E+00
          1   -1    0    0  501    0  0.00000000000E+00  0.00000000000E+00  0.12464453130E+02  0.12464454149E+02  0.50400000000E-02 0. -1.
         -2   -1    0    0    0  501 -0.00000000000E+00 -0.00000000000E+00 -0.12505078080E+03  0.12505078083E+03  0.25500000000E-02 0.  1.
        -24    2    1    2    0    0  0.00000000000E+00  0.00000000000E+00 -0.11258632767E+03  0.13751523498E+03  0.78960488043E+02 0.  0.
         66    2    3    3    0    0  0.32269917089E+02 -0.75254875812E+01 -0.93629051908E+02  0.99339719516E+02  0.20000000187E+01 0.  0.
         13    1    3    3    0    0 -0.32269917089E+02  0.75254875812E+01 -0.18957275765E+02  0.38175515461E+02  0.10566000000E+00 0. -1.
         13    1    4    4    0    0  0.13058785165E+02 -0.28997157077E+01 -0.39468476913E+02  0.41673877370E+02  0.10566000000E+00 0. -1.
        -13    1    4    4    0    0  0.13277203456E+02 -0.36983889777E+01 -0.38533116897E+02  0.40924008534E+02  0.10566000000E+00 0.  1.
        -14    1    4    4    0    0  0.59339284689E+01 -0.92738289580E+00 -0.15627458097E+02  0.16741833612E+02  0.00000000000E+00 0.  1.
<mgrwt>
<rscale>  0 0.78960488E+02</rscale>
<asrwt>0</asrwt>
<pdfrwt beam="1">  1        1 0.19176083E-02 0.78960488E+02</pdfrwt>
<pdfrwt beam="2">  1       -2 0.19238581E-01 0.78960488E+02</pdfrwt>
<totfact> 0.10337815E+05</totfact>
</mgrwt>
</event>
<event>
 8    1  0.1372337E-024  0.8025514E+02  0.7818608E-02  0.1328329E+00
         -2   -1    0    0    0  501 -0.00000000000E+00  0.00000000000E+00  0.36340095579E+02  0.36340095669E+02  0.25500000000E-02 0.  1.
          1   -1    0    0  501    0  0.00000000000E+00 -0.00000000000E+00 -0.44309785099E+02  0.44309785385E+02  0.50400000000E-02 0. -1.
        -24    2    1    2    0    0  0.00000000000E+00  0.00000000000E+00 -0.79696895193E+01  0.80649881054E+02  0.80255139169E+02 0.  0.
         66    2    3    3    0    0 -0.12925851102E+01 -0.40045841723E+02 -0.56917250129E+01  0.40518341065E+02  0.20000033693E+01 0.  0.
         13    1    3    3    0    0  0.12925851102E+01  0.40045841723E+02 -0.22779645065E+01  0.40131539989E+02  0.10566000000E+00 0. -1.
         13    1    4    4    0    0  0.10870601153E-01 -0.87308066274E+01 -0.16379054055E+01  0.88837492472E+01  0.10566000000E+00 0. -1.
        -13    1    4    4    0    0 -0.15900142642E+00 -0.60229226034E+01 -0.13256088767E+01  0.61700308807E+01  0.10566000000E+00 0.  1.
        -14    1    4    4    0    0 -0.11444542850E+01 -0.25292112492E+02 -0.27282107307E+01  0.25464560937E+02  0.00000000000E+00 0.  1.
<mgrwt>
<rscale>  0 0.80255139E+02</rscale>
<asrwt>0</asrwt>
<pdfrwt beam="1">  1        1 0.68168901E-02 0.80255139E+02</pdfrwt>
<pdfrwt beam="2">  1       -2 0.55907839E-02 0.80255139E+02</pdfrwt>
<totfact> 0.12793475E+05</totfact>
</mgrwt>
</event>
<event>
 8    1  0.1372337E-024  0.7857740E+02  0.7818608E-02  0.1333138E+00
         -2   -1    0    0    0  501 -0.00000000000E+00  0.00000000000E+00  0.91733773821E+02  0.91733773857E+02  0.25500000000E-02 0.  1.
          1   -1    0    0  501    0  0.00000000000E+00 -0.00000000000E+00 -0.16826973577E+02  0.16826974332E+02  0.50400000000E-02 0. -1.
        -24    2    1    2    0    0  0.00000000000E+00  0.44408920985E-15  0.74906800244E+02  0.10856074819E+03  0.78577397032E+02 0.  0.
         66    2    3    3    0    0 -0.30788121389E+02 -0.35812678867E+01  0.70775128011E+02  0.77290702173E+02  0.19999997803E+01 0.  0.
         13    1    3    3    0    0  0.30788121389E+02  0.35812678867E+01  0.41316722332E+01  0.31270046015E+02  0.10566000000E+00 0. -1.
         13    1    4    4    0    0 -0.61173061960E+01 -0.94441616880E+00  0.13850557949E+02  0.15171106635E+02  0.10566000000E+00 0. -1.
        -13    1    4    4    0    0 -0.14611431379E+02 -0.19427168612E+01  0.31954232224E+02  0.35190228712E+02  0.10566000000E+00 0.  1.
         14    1    4    4    0    0 -0.10059383814E+02 -0.69413485665E+00  0.24970337838E+02  0.26929366826E+02  0.00000000000E+00 0. -1.
<mgrwt>
<rscale>  0 0.78577397E+02</rscale>
<asrwt>0</asrwt>
<pdfrwt beam="1">  1        1 0.25887652E-02 0.78577397E+02</pdfrwt>
<pdfrwt beam="2">  1       -2 0.14112889E-01 0.78577397E+02</pdfrwt>
<totfact> 0.11344638E+05</totfact>
</mgrwt>
</event>
<event>
 8    1  0.1372337E-024  0.7811765E+02  0.7818608E-02  0.1334480E+00
          1   -1    0    0  501    0  0.00000000000E+00  0.00000000000E+00  0.76065139226E+01  0.76065155923E+01  0.50400000000E-02 0. -1.
         -2   -1    0    0    0  501 -0.00000000000E+00 -0.00000000000E+00 -0.20056383473E+03  0.20056383475E+03  0.25500000000E-02 0.  1.
        -24    2    1    2    0    0  0.00000000000E+00  0.00000000000E+00 -0.19295732081E+03  0.20817035034E+03  0.78117649138E+02 0.  0.
         66    2    3    3    0    0  0.25496158151E+02  0.13922682057E+02 -0.16601626425E+03  0.16855057183E+03  0.20000286506E+01 0.  0.
         13    1    3    3    0    0 -0.25496158151E+02 -0.13922682057E+02 -0.26941056557E+02  0.39619778503E+02  0.10566000000E+00 0. -1.
         13    1    4    4    0    0  0.14629548505E+02  0.75133075891E+01 -0.90843852441E+02  0.92320583679E+02  0.10566000000E+00 0. -1.
        -13    1    4    4    0    0  0.59319138686E+01  0.35583869200E+01 -0.44080815131E+02  0.44620389356E+02  0.10566000000E+00 0.  1.
         14    1    4    4    0    0  0.49346957779E+01  0.28509875479E+01 -0.31091596676E+02  0.31609598800E+02  0.00000000000E+00 0. -1.
<mgrwt>
<rscale>  0 0.78117649E+02</rscale>
<asrwt>0</asrwt>
<pdfrwt beam="1">  1        1 0.11702332E-02 0.78117649E+02</pdfrwt>
<pdfrwt beam="2">  1       -2 0.30855971E-01 0.78117649E+02</pdfrwt>
<totfact> 0.90357910E+04</totfact>
</mgrwt>
</event>
<event>
 8    1  0.1372337E-024  0.7919263E+02  0.7818608E-02  0.1331358E+00
         -2   -1    0    0    0  501 -0.00000000000E+00  0.00000000000E+00  0.29920354812E+03  0.29920354813E+03  0.25500000000E-02 0.  1.
          1   -1    0    0  501    0  0.00000000000E+00 -0.00000000000E+00 -0.52401371838E+01  0.52401396075E+01  0.50400000000E-02 0. -1.
        -24    2    1    2    0    0  0.00000000000E+00  0.35527136788E-14  0.29396341093E+03  0.30444368774E+03  0.79192626137E+02 0.  0.
         66    2    3    3    0    0 -0.85199092518E+01 -0.21609648631E+02  0.27023211042E+03  0.27123598447E+03  0.20000015494E+01 0.  0.
         13    1    3    3    0    0  0.85199092518E+01  0.21609648631E+02  0.23731300517E+02  0.33207703261E+02  0.10566000000E+00 0. -1.
         13    1    4    4    0    0 -0.17083307782E+01 -0.64114283550E+01  0.74104764867E+02  0.74401291303E+02  0.10566000000E+00 0. -1.
        -13    1    4    4    0    0 -0.17074800750E+01 -0.40499228172E+01  0.55470517854E+02  0.55644468531E+02  0.10566000000E+00 0.  1.
         14    1    4    4    0    0 -0.51040983986E+01 -0.11148297459E+02  0.14065682770E+03  0.14119022464E+03  0.00000000000E+00 0. -1.
<mgrwt>
<rscale>  0 0.79192626E+02</rscale>
<asrwt>0</asrwt>
<pdfrwt beam="1">  1        1 0.80617505E-03 0.79192626E+02</pdfrwt>
<pdfrwt beam="2">  1       -2 0.46031321E-01 0.79192626E+02</pdfrwt>
<totfact> 0.72239201E+04</totfact>
</mgrwt>
</event>
<event>
 8    1  0.1372337E-024  0.7974049E+02  0.7818608E-02  0.1329790E+00
          1   -1    0    0  501    0  0.00000000000E+00  0.00000000000E+00  0.82813961431E+02  0.82813961585E+02  0.50400000000E-02 0. -1.
         -2   -1    0    0    0  501 -0.00000000000E+00 -0.00000000000E+00 -0.19195270400E+02  0.19195270570E+02  0.25500000000E-02 0.  1.
        -24    2    1    2    0    0  0.00000000000E+00  0.00000000000E+00  0.63618691031E+02  0.10200923215E+03  0.79740489065E+02 0.  0.
         66    2    3    3    0    0 -0.10362948762E+02 -0.12119550676E+02 -0.14883278624E+02  0.21904022465E+02  0.20000004870E+01 0.  0.
         13    1    3    3    0    0  0.10362948762E+02  0.12119550676E+02  0.78501969655E+02  0.80105209689E+02  0.10566000000E+00 0. -1.
         13    1    4    4    0    0 -0.14363020905E+01 -0.97007490309E+00 -0.14796463460E+01  0.22813431038E+01  0.10566000000E+00 0. -1.
        -13    1    4    4    0    0 -0.89119252465E+01 -0.11156065312E+02 -0.13286433717E+02  0.19504376171E+02  0.10566000000E+00 0.  1.
        -14    1    4    4    0    0 -0.14721424695E-01  0.65895392297E-02 -0.11719856077E+00  0.11830319107E+00  0.00000000000E+00 0.  1.
<mgrwt>
<rscale>  0 0.79740489E+02</rscale>
<asrwt>0</asrwt>
<pdfrwt beam="1">  1        1 0.12740609E-01 0.79740489E+02</pdfrwt>
<pdfrwt beam="2">  1       -2 0.29531186E-02 0.79740489E+02</pdfrwt>
<totfact> 0.14375239E+05</totfact>
</mgrwt>
</event>
<event>
 8    1  0.1372337E-024  0.7961270E+02  0.7818608E-02  0.1330154E+00
         -2   -1    0    0    0  501 -0.00000000000E+00  0.00000000000E+00  0.12758822499E+03  0.12758822502E+03  0.25500000000E-02 0.  1.
          1   -1    0    0  501    0  0.00000000000E+00 -0.00000000000E+00 -0.12419214187E+02  0.12419215209E+02  0.50400000000E-02 0. -1.
        -24    2    1    2    0    0  0.00000000000E+00  0.17763568394E-14  0.11516901080E+03  0.14000744023E+03  0.79612701681E+02 0.  0.
         66    2    3    3    0    0  0.34419083264E+02 -0.13787361821E+02  0.82970071361E+02  0.90899930576E+02  0.19999995757E+01 0.  0.
         13    1    3    3    0    0 -0.34419083264E+02  0.13787361821E+02  0.32198939443E+02  0.49107509650E+02  0.10566000000E+00 0. -1.
         13    1    4    4    0    0  0.27482678785E+02 -0.10894524574E+02  0.64548121358E+02  0.70996193093E+02  0.10566000000E+00 0.  1.
        -13    1    4    4    0    0  0.14353262164E+01 -0.82589597496E+00  0.40331992577E+01  0.43612069197E+01  0.10566000000E+00 0. -1.
        -14    1    4    4    0    0  0.55010782626E+01 -0.20669412718E+01  0.14388750745E+02  0.15542530563E+02  0.00000000000E+00 0.  1.
<mgrwt>
<rscale>  0 0.79612702E+02</rscale>
<asrwt>0</asrwt>
<pdfrwt beam="1">  1        1 0.19106484E-02 0.79612702E+02</pdfrwt>
<pdfrwt beam="2">  1       -2 0.19628958E-01 0.79612702E+02</pdfrwt>
<totfact> 0.10062792E+05</totfact>
</mgrwt>
</event>
<event>
 8    1  0.1372337E-024  0.7951457E+02  0.7818608E-02  0.1330435E+00
         -2   -1    0    0    0  501 -0.00000000000E+00  0.00000000000E+00  0.22112488851E+02  0.22112488998E+02  0.25500000000E-02 0.  1.
          1   -1    0    0  501    0  0.00000000000E+00 -0.00000000000E+00 -0.71481852185E+02  0.71481852363E+02  0.50400000000E-02 0. -1.
        -24    2    1    2    0    0 -0.17763568394E-14  0.00000000000E+00 -0.49369363334E+02  0.93594341361E+02  0.79514569098E+02 0.  0.
         66    2    3    3    0    0 -0.15852497859E+02 -0.28548808652E+02  0.19416513359E+01  0.32773559104E+02  0.20000006491E+01 0.  0.
         13    1    3    3    0    0  0.15852497859E+02  0.28548808652E+02 -0.51311014669E+02  0.60820782257E+02  0.10566000000E+00 0. -1.
         13    1    4    4    0    0 -0.17231104046E+01 -0.25653089222E+01  0.40281384490E+00  0.31182274391E+01  0.10566000000E+00 0. -1.
        -13    1    4    4    0    0 -0.40533755210E+01 -0.74744344352E+01  0.11231810226E+01  0.85772794572E+01  0.10566000000E+00 0.  1.
        -14    1    4    4    0    0 -0.10076011934E+02 -0.18509065295E+02  0.41565646839E+00  0.21078052208E+02  0.00000000000E+00 0.  1.
<mgrwt>
<rscale>  0 0.79514569E+02</rscale>
<asrwt>0</asrwt>
<pdfrwt beam="1">  1        1 0.10997208E-01 0.79514569E+02</pdfrwt>
<pdfrwt beam="2">  1       -2 0.34019214E-02 0.79514569E+02</pdfrwt>
<totfact> 0.14150305E+05</totfact>
</mgrwt>
</event>
<event>
 8    1  0.1372337E-024  0.7948101E+02  0.7818608E-02  0.1330531E+00
         -2   -1    0    0    0  501 -0.00000000000E+00  0.00000000000E+00  0.39764415933E+02  0.39764416015E+02  0.25500000000E-02 0.  1.
          1   -1    0    0  501    0  0.00000000000E+00 -0.00000000000E+00 -0.39716610482E+02  0.39716610802E+02  0.50400000000E-02 0. -1.
        -24    2    1    2    0    0  0.00000000000E+00  0.35527136788E-14  0.47805450706E-01  0.79481026817E+02  0.79481012440E+02 0.  0.
         66    2    3    3    0    0  0.29899014158E+02 -0.24427013928E+02  0.93337457292E+01  0.39771205514E+02  0.19999804164E+01 0.  0.
         13    1    3    3    0    0 -0.29899014158E+02  0.24427013928E+02 -0.92859402785E+01  0.39709821303E+02  0.10566000000E+00 0. -1.
         13    1    4    4    0    0  0.11290560413E+02 -0.87419384819E+01  0.35360950094E+01  0.14710995031E+02  0.10566000000E+00 0. -1.
        -13    1    4    4    0    0  0.68795934632E+01 -0.60343344598E+01  0.28752366712E+01  0.95927133045E+01  0.10566000000E+00 0.  1.
         14    1    4    4    0    0  0.11728860282E+02 -0.96507409863E+01  0.29224140486E+01  0.15467497178E+02  0.00000000000E+00 0. -1.
<mgrwt>
<rscale>  0 0.79481012E+02</rscale>
<asrwt>0</asrwt>
<pdfrwt beam="1">  1        1 0.61102478E-02 0.79481012E+02</pdfrwt>
<pdfrwt beam="2">  1       -2 0.61176024E-02 0.79481012E+02</pdfrwt>
<totfact> 0.12917583E+05</totfact>
</mgrwt>
</event>
<event>
 8    1  0.1372337E-024  0.8101674E+02  0.7818608E-02  0.1326191E+00
          1   -1    0    0  501    0  0.00000000000E+00  0.00000000000E+00  0.21774820323E+03  0.21774820329E+03  0.50400000000E-02 0. -1.
         -2   -1    0    0    0  501 -0.00000000000E+00 -0.00000000000E+00 -0.75358966189E+01  0.75358970504E+01  0.25500000000E-02 0.  1.
        -24    2    1    2    0    0  0.17763568394E-14 -0.35527136788E-14  0.21021230662E+03  0.22528410034E+03  0.81016739102E+02 0.  0.
         66    2    3    3    0    0  0.84350587933E+01 -0.28860204953E+02  0.29789617504E+02  0.42373139608E+02  0.20000006137E+01 0.  0.
         13    1    3    3    0    0 -0.84350587933E+01  0.28860204953E+02  0.18042268911E+03  0.18291096074E+03  0.10566000000E+00 0. -1.
         13    1    4    4    0    0  0.51051434440E-01 -0.40773317506E+00  0.31510106646E+00  0.52849343296E+00  0.10566000000E+00 0. -1.
        -13    1    4    4    0    0  0.50518009626E+01 -0.17203801593E+02  0.18869858051E+02  0.26030255264E+02  0.10566000000E+00 0.  1.
        -14    1    4    4    0    0  0.33322063963E+01 -0.11248670185E+02  0.10604658387E+02  0.15814390911E+02  0.00000000000E+00 0.  1.
<mgrwt>
<rscale>  0 0.81016739E+02</rscale>
<asrwt>0</asrwt>
<pdfrwt beam="1">  1        1 0.33499727E-01 0.81016739E+02</pdfrwt>
<pdfrwt beam="2">  1       -2 0.11593686E-02 0.81016739E+02</pdfrwt>
<totfact> 0.16393700E+05</totfact>
</mgrwt>
</event>
<event>
 8    1  0.1372337E-024  0.8101573E+02  0.7818608E-02  0.1326193E+00
         -2   -1    0    0    0  501 -0.00000000000E+00  0.00000000000E+00  0.54937281854E+02  0.54937281913E+02  0.25500000000E-02 0.  1.
          1   -1    0    0  501    0  0.00000000000E+00 -0.00000000000E+00 -0.29868369436E+02  0.29868369861E+02  0.50400000000E-02 0. -1.
        -24    2    1    2    0    0  0.44408920985E-15 -0.35527136788E-14  0.25068912418E+02  0.84805651774E+02  0.81015728121E+02 0.  0.
         66    2    3    3    0    0  0.24643829504E+01 -0.24801202367E+02  0.45935987243E+02  0.52299978454E+02  0.20000000273E+01 0.  0.
         13    1    3    3    0    0 -0.24643829504E+01  0.24801202367E+02 -0.20867074825E+02  0.32505673320E+02  0.10566000000E+00 0. -1.
         13    1    4    4    0    0  0.24620852369E+01 -0.19223251803E+02  0.34555982257E+02  0.39619721697E+02  0.10566000000E+00 0. -1.
        -13    1    4    4    0    0 -0.81888442341E-01 -0.13682092189E+01  0.25181253795E+01  0.28689408579E+01  0.10566000000E+00 0.  1.
         14    1    4    4    0    0  0.84186155816E-01 -0.42097413454E+01  0.88618796072E+01  0.98113158993E+01  0.00000000000E+00 0. -1.
<mgrwt>
<rscale>  0 0.81015728E+02</rscale>
<asrwt>0</asrwt>
<pdfrwt beam="1">  1        1 0.45951338E-02 0.81015728E+02</pdfrwt>
<pdfrwt beam="2">  1       -2 0.84518895E-02 0.81015728E+02</pdfrwt>
<totfact> 0.11654268E+05</totfact>
</mgrwt>
</event>
<event>
 8    1  0.1372337E-024  0.8145851E+02  0.7818608E-02  0.1324963E+00
         -2   -1    0    0    0  501 -0.00000000000E+00  0.00000000000E+00  0.43932404446E+01  0.43932411847E+01  0.25500000000E-02 0.  1.
          1   -1    0    0  501    0  0.00000000000E+00 -0.00000000000E+00 -0.37759645753E+03  0.37759645756E+03  0.50400000000E-02 0. -1.
        -24    2    1    2    0    0 -0.71054273576E-14  0.00000000000E+00 -0.37320321708E+03  0.38198969874E+03  0.81458509113E+02 0.  0.
         66    2    3    3    0    0  0.40338850269E+02  0.45719868670E+01 -0.20057823953E+03  0.20465521269E+03  0.20000010013E+01 0.  0.
         13    1    3    3    0    0 -0.40338850269E+02 -0.45719868670E+01 -0.17262497755E+03  0.17733448605E+03  0.10566000000E+00 0. -1.
         13    1    4    4    0    0  0.64084331366E+01  0.98508753753E+00 -0.29588463650E+02  0.30290704151E+02  0.10566000000E+00 0. -1.
        -13    1    4    4    0    0  0.28363519040E+02  0.29510277380E+01 -0.14067915808E+03  0.14354035830E+03  0.10566000000E+00 0.  1.
        -14    1    4    4    0    0  0.55668980920E+01  0.63587159150E+00 -0.30310617798E+02  0.30824150246E+02  0.00000000000E+00 0.  1.
<mgrwt>
<rscale>  0 0.81458509E+02</rscale>
<asrwt>0</asrwt>
<pdfrwt beam="1">  1        1 0.58091737E-01 0.81458509E+02</pdfrwt>
<pdfrwt beam="2">  1       -2 0.67588350E-03 0.81458509E+02</pdfrwt>
<totfact> 0.17937766E+05</totfact>
</mgrwt>
</event>
<event>
 8    1  0.1372337E-024  0.8013356E+02  0.7818608E-02  0.1328673E+00
          1   -1    0    0  501    0  0.00000000000E+00  0.00000000000E+00  0.68831015605E+02  0.68831015789E+02  0.50400000000E-02 0. -1.
         -2   -1    0    0    0  501 -0.00000000000E+00 -0.00000000000E+00 -0.23323015981E+02  0.23323016121E+02  0.25500000000E-02 0.  1.
        -24    2    1    2    0    0  0.35527136788E-14 -0.35527136788E-14  0.45507999623E+02  0.92154031910E+02  0.80133560806E+02 0.  0.
         66    2    3    3    0    0 -0.26008031824E+02  0.27679267233E+02  0.81860660689E+01  0.38904642784E+02  0.19999996394E+01 0.  0.
         13    1    3    3    0    0  0.26008031824E+02 -0.27679267233E+02  0.37321933555E+02  0.53249389125E+02  0.10566000000E+00 0. -1.
         13    1    4    4    0    0 -0.19920180222E+01  0.21389235927E+01  0.11511441987E+01  0.31431555701E+01  0.10566000000E+00 0. -1.
        -13    1    4    4    0    0 -0.93781233041E+01  0.98689690600E+01  0.29881985830E+01  0.13938659972E+02  0.10566000000E+00 0.  1.
         14    1    4    4    0    0 -0.14637890498E+02  0.15671374581E+02  0.40467232871E+01  0.21822827242E+02  0.00000000000E+00 0. -1.
<mgrwt>
<rscale>  0 0.80133561E+02</rscale>
<asrwt>0</asrwt>
<pdfrwt beam="1">  1        1 0.10589387E-01 0.80133561E+02</pdfrwt>
<pdfrwt beam="2">  1       -2 0.35881563E-02 0.80133561E+02</pdfrwt>
<totfact> 0.13770654E+05</totfact>
</mgrwt>
</event>
<event>
 8    1  0.1372337E-024  0.8091005E+02  0.7818608E-02  0.1326488E+00
          1   -1    0    0  501    0  0.00000000000E+00  0.00000000000E+00  0.22739187328E+03  0.22739187333E+03  0.50400000000E-02 0. -1.
         -2   -1    0    0    0  501 -0.00000000000E+00 -0.00000000000E+00 -0.71973069939E+01  0.71973074456E+01  0.25500000000E-02 0.  1.
        -24    2    1    2    0    0  0.00000000000E+00  0.00000000000E+00  0.22019456628E+03  0.23458918078E+03  0.80910053255E+02 0.  0.
         66    2    3    3    0    0  0.28512648937E+02  0.28031800078E+02  0.92804053150E+02  0.10107099114E+03  0.20000007960E+01 0.  0.
         13    1    3    3    0    0 -0.28512648937E+02 -0.28031800078E+02  0.12739051313E+03  0.13351818964E+03  0.10566000000E+00 0. -1.
         13    1    4    4    0    0  0.59218699192E+01  0.52112411352E+01  0.16792680437E+02  0.18553459456E+02  0.10566000000E+00 0. -1.
        -13    1    4    4    0    0  0.13815765419E+02  0.13845980559E+02  0.45672357236E+02  0.49684624697E+02  0.10566000000E+00 0.  1.
         14    1    4    4    0    0  0.87750135989E+01  0.89745783837E+01  0.30339015477E+02  0.32832906983E+02  0.00000000000E+00 0. -1.
<mgrwt>
<rscale>  0 0.80910053E+02</rscale>
<asrwt>0</asrwt>
<pdfrwt beam="1">  1        1 0.34983362E-01 0.80910053E+02</pdfrwt>
<pdfrwt beam="2">  1       -2 0.11072781E-02 0.80910053E+02</pdfrwt>
<totfact> 0.16591289E+05</totfact>
</mgrwt>
</event>
<event>
 8    1  0.1372337E-024  0.7919358E+02  0.7818608E-02  0.1331356E+00
          1   -1    0    0  501    0  0.00000000000E+00  0.00000000000E+00  0.20330920938E+03  0.20330920944E+03  0.50400000000E-02 0. -1.
         -2   -1    0    0    0  501 -0.00000000000E+00 -0.00000000000E+00 -0.77119258931E+01  0.77119263147E+01  0.25500000000E-02 0.  1.
        -24    2    1    2    0    0  0.00000000000E+00  0.00000000000E+00  0.19559728349E+03  0.21102113576E+03  0.79193575679E+02 0.  0.
         66    2    3    3    0    0  0.25847561014E+02 -0.17095971182E+02  0.32290937378E+02  0.44800371457E+02  0.20000012221E+01 0.  0.
         13    1    3    3    0    0 -0.25847561014E+02  0.17095971182E+02  0.16330634611E+03  0.16622076430E+03  0.10566000000E+00 0. -1.
         13    1    4    4    0    0  0.31232595156E+01 -0.18339556510E+01  0.36886021192E+01  0.51705988977E+01  0.10566000000E+00 0. -1.
        -13    1    4    4    0    0  0.20101386644E+02 -0.13172442879E+02  0.24330473393E+02  0.34198861033E+02  0.10566000000E+00 0.  1.
         14    1    4    4    0    0  0.26229148550E+01 -0.20895726526E+01  0.42718618654E+01  0.54309115261E+01  0.00000000000E+00 0. -1.
<mgrwt>
<rscale>  0 0.79193576E+02</rscale>
<asrwt>0</asrwt>
<pdfrwt beam="1">  1        1 0.31278340E-01 0.79193576E+02</pdfrwt>
<pdfrwt beam="2">  1       -2 0.11864502E-02 0.79193576E+02</pdfrwt>
<totfact> 0.17182792E+05</totfact>
</mgrwt>
</event>
<event>
 8    1  0.1372337E-024  0.7879344E+02  0.7818608E-02  0.1332511E+00
         -2   -1    0    0    0  501 -0.00000000000E+00  0.00000000000E+00  0.26103886662E+02  0.26103886786E+02  0.25500000000E-02 0.  1.
          1   -1    0    0  501    0  0.00000000000E+00 -0.00000000000E+00 -0.59458640257E+02  0.59458640471E+02  0.50400000000E-02 0. -1.
        -24    2    1    2    0    0  0.00000000000E+00  0.17763568394E-14 -0.33354753596E+02  0.85562527257E+02  0.78793441880E+02 0.  0.
         66    2    3    3    0    0 -0.40242128856E+01  0.10893068084E+02  0.24163511871E+02  0.26883610703E+02  0.19999992135E+01 0.  0.
         13    1    3    3    0    0  0.40242128856E+01 -0.10893068084E+02 -0.57518265467E+02  0.58678916554E+02  0.10566000000E+00 0. -1.
         13    1    4    4    0    0 -0.29545062092E+01  0.83285982851E+01  0.17478078221E+02  0.19585429244E+02  0.10566000000E+00 0.  1.
        -13    1    4    4    0    0 -0.10917370402E+01  0.17202823435E+01  0.41227657124E+01  0.45999589412E+01  0.10566000000E+00 0. -1.
         14    1    4    4    0    0  0.22030363722E-01  0.84418745565E+00  0.25626679377E+01  0.26982225179E+01  0.00000000000E+00 0. -1.
<mgrwt>
<rscale>  0 0.78793442E+02</rscale>
<asrwt>0</asrwt>
<pdfrwt beam="1">  1        1 0.91474832E-02 0.78793442E+02</pdfrwt>
<pdfrwt beam="2">  1       -2 0.40159826E-02 0.78793442E+02</pdfrwt>
<totfact> 0.14097135E+05</totfact>
</mgrwt>
</event>
<event>
 8    1  0.1372337E-024  0.7925106E+02  0.7818608E-02  0.1331190E+00
         -2   -1    0    0    0  501 -0.00000000000E+00  0.00000000000E+00  0.28220878757E+03  0.28220878758E+03  0.25500000000E-02 0.  1.
          1   -1    0    0  501    0  0.00000000000E+00 -0.00000000000E+00 -0.55639035568E+01  0.55639058396E+01  0.50400000000E-02 0. -1.
        -24    2    1    2    0    0  0.00000000000E+00 -0.35527136788E-14  0.27664488401E+03  0.28777269342E+03  0.79251064524E+02 0.  0.
         66    2    3    3    0    0 -0.56499905487E+01 -0.29578176427E+02  0.23179424944E+03  0.23375064700E+03  0.19999962249E+01 0.  0.
         13    1    3    3    0    0  0.56499905487E+01  0.29578176427E+02  0.44850634569E+02  0.54022046418E+02  0.10566000000E+00 0. -1.
         13    1    4    4    0    0 -0.20590532932E+00 -0.21830791370E+01  0.15485949963E+02  0.15640781368E+02  0.10566000000E+00 0. -1.
        -13    1    4    4    0    0 -0.28898541184E+01 -0.18360943657E+02  0.14360787650E+03  0.14480576255E+03  0.10566000000E+00 0.  1.
         14    1    4    4    0    0 -0.25542311010E+01 -0.90341536331E+01  0.72700422975E+02  0.73304103085E+02  0.00000000000E+00 0. -1.
<mgrwt>
<rscale>  0 0.79251065E+02</rscale>
<asrwt>0</asrwt>
<pdfrwt beam="1">  1        1 0.85598532E-03 0.79251065E+02</pdfrwt>
<pdfrwt beam="2">  1       -2 0.43416738E-01 0.79251065E+02</pdfrwt>
<totfact> 0.74378530E+04</totfact>
</mgrwt>
</event>
<event>
 8    1  0.1372337E-024  0.8186542E+02  0.7818608E-02  0.1323839E+00
         -2   -1    0    0    0  501 -0.00000000000E+00  0.00000000000E+00  0.86685410309E+01  0.86685414060E+01  0.25500000000E-02 0.  1.
          1   -1    0    0  501    0  0.00000000000E+00 -0.00000000000E+00 -0.19328357471E+03  0.19328357478E+03  0.50400000000E-02 0. -1.
        -24    2    1    2    0    0 -0.88817841970E-15  0.00000000000E+00 -0.18461503368E+03  0.20195211618E+03  0.81865417424E+02 0.  0.
         66    2    3    3    0    0 -0.46673171606E+01  0.40640373153E+02 -0.92955916815E+02  0.10157867025E+03  0.19999999519E+01 0.  0.
         13    1    3    3    0    0  0.46673171606E+01 -0.40640373153E+02 -0.91659116864E+02  0.10037344593E+03  0.10566000000E+00 0. -1.
         13    1    4    4    0    0 -0.16659037589E+01  0.17399748827E+02 -0.40193099599E+02  0.43829475401E+02  0.10566000000E+00 0. -1.
        -13    1    4    4    0    0 -0.26044959981E+01  0.15837988565E+02 -0.36876993445E+02  0.40218765406E+02  0.10566000000E+00 0.  1.
         14    1    4    4    0    0 -0.39691740356E+00  0.74026357603E+01 -0.15885823771E+02  0.17530429445E+02  0.00000000000E+00 0. -1.
<mgrwt>
<rscale>  0 0.81865417E+02</rscale>
<asrwt>0</asrwt>
<pdfrwt beam="1">  1        1 0.29735931E-01 0.81865417E+02</pdfrwt>
<pdfrwt beam="2">  1       -2 0.13336219E-02 0.81865417E+02</pdfrwt>
<totfact> 0.15578767E+05</totfact>
</mgrwt>
</event>
<event>
 8    1  0.1372337E-024  0.8550434E+02  0.7818608E-02  0.1314119E+00
          1   -1    0    0  501    0  0.00000000000E+00  0.00000000000E+00  0.22932858946E+01  0.22932914328E+01  0.50400000000E-02 0. -1.
         -2   -1    0    0    0  501 -0.00000000000E+00 -0.00000000000E+00 -0.79699862663E+03  0.79699862664E+03  0.25500000000E-02 0.  1.
        -24    2    1    2    0    0 -0.35527136788E-14 -0.71054273576E-14 -0.79470534074E+03  0.79929191807E+03  0.85504337280E+02 0.  0.
         66    2    3    3    0    0  0.11207669709E+02  0.30041601418E+02 -0.66157855986E+03  0.66235813616E+03  0.19999999865E+01 0.  0.
         13    1    3    3    0    0 -0.11207669709E+02 -0.30041601418E+02 -0.13312678088E+03  0.13693378191E+03  0.10566000000E+00 0. -1.
         13    1    4    4    0    0  0.64424763349E+00  0.27156969755E+01 -0.60722949450E+02  0.60787151760E+02  0.10566000000E+00 0. -1.
        -13    1    4    4    0    0  0.26643081601E+01  0.72232230439E+01 -0.14615818564E+03  0.14636085502E+03  0.10566000000E+00 0.  1.
        -14    1    4    4    0    0  0.78991139149E+01  0.20102681399E+02 -0.45469742477E+03  0.45521012938E+03  0.00000000000E+00 0.  1.
<mgrwt>
<rscale>  0 0.85504337E+02</rscale>
<asrwt>0</asrwt>
<pdfrwt beam="1">  1        1 0.35281428E-03 0.85504337E+02</pdfrwt>
<pdfrwt beam="2">  1       -2 0.12261495E+00 0.85504337E+02</pdfrwt>
<totfact> 0.28077487E+04</totfact>
</mgrwt>
</event>
<event>
 8    1  0.1372337E-024  0.8697670E+02  0.7818608E-02  0.1310343E+00
         -2   -1    0    0    0  501 -0.00000000000E+00  0.00000000000E+00  0.34798687338E+02  0.34798687432E+02  0.25500000000E-02 0.  1.
          1   -1    0    0  501    0  0.00000000000E+00 -0.00000000000E+00 -0.54347930577E+02  0.54347930810E+02  0.50400000000E-02 0. -1.
        -24    2    1    2    0    0  0.00000000000E+00  0.00000000000E+00 -0.19549243238E+02  0.89146618242E+02  0.86976701667E+02 0.  0.
         66    2    3    3    0    0 -0.40569048744E+02  0.11218577706E+02  0.13316940729E+01  0.42160142435E+02  0.19999998127E+01 0.  0.
         13    1    3    3    0    0  0.40569048744E+02 -0.11218577706E+02 -0.20880937311E+02  0.46986475807E+02  0.10566000000E+00 0. -1.
         13    1    4    4    0    0 -0.71914408301E+01  0.22505117128E+01  0.24982532329E+00  0.75402387833E+01  0.10566000000E+00 0. -1.
        -13    1    4    4    0    0 -0.24776969917E+02  0.72270042046E+01  0.12961485221E+01  0.25842194045E+02  0.10566000000E+00 0.  1.
         14    1    4    4    0    0 -0.86006379971E+01  0.17410617890E+01 -0.21427977254E+00  0.87777096062E+01  0.00000000000E+00 0. -1.
<mgrwt>
<rscale>  0 0.86976702E+02</rscale>
<asrwt>0</asrwt>
<pdfrwt beam="1">  1        1 0.83612202E-02 0.86976702E+02</pdfrwt>
<pdfrwt beam="2">  1       -2 0.53536442E-02 0.86976702E+02</pdfrwt>
<totfact> 0.10557163E+05</totfact>
</mgrwt>
</event>
<event>
 8    1  0.1372337E-024  0.7975143E+02  0.7818608E-02  0.1329758E+00
         -2   -1    0    0    0  501 -0.00000000000E+00  0.00000000000E+00  0.35867335356E+02  0.35867335447E+02  0.25500000000E-02 0.  1.
          1   -1    0    0  501    0  0.00000000000E+00 -0.00000000000E+00 -0.44332050584E+02  0.44332050870E+02  0.50400000000E-02 0. -1.
        -24    2    1    2    0    0 -0.35527136788E-14  0.35527136788E-14 -0.84647152280E+01  0.80199386317E+02  0.79751427334E+02 0.  0.
         66    2    3    3    0    0  0.27201319030E+02 -0.26334700996E+02  0.82702443095E+01  0.38804963163E+02  0.19999979025E+01 0.  0.
         13    1    3    3    0    0 -0.27201319030E+02  0.26334700996E+02 -0.16734959537E+02  0.41394423154E+02  0.10566000000E+00 0. -1.
         13    1    4    4    0    0  0.19978138550E+02 -0.19934858219E+02  0.60325527081E+01  0.28860482469E+02  0.10566000000E+00 0. -1.
        -13    1    4    4    0    0  0.39081129380E+00 -0.21088982014E+00  0.22372443668E+00  0.50835483943E+00  0.10566000000E+00 0.  1.
        -14    1    4    4    0    0  0.68323691861E+01 -0.61889529566E+01  0.20139671646E+01  0.94361258541E+01  0.00000000000E+00 0.  1.
<mgrwt>
<rscale>  0 0.79751427E+02</rscale>
<asrwt>0</asrwt>
<pdfrwt beam="1">  1        1 0.68203155E-02 0.79751427E+02</pdfrwt>
<pdfrwt beam="2">  1       -2 0.55180516E-02 0.79751427E+02</pdfrwt>
<totfact> 0.13022059E+05</totfact>
</mgrwt>
</event>
<event>
 8    1  0.1372337E-024  0.8094429E+02  0.7818608E-02  0.1326393E+00
          1   -1    0    0  501    0  0.00000000000E+00  0.00000000000E+00  0.14915833589E+02  0.14915834441E+02  0.50400000000E-02 0. -1.
         -2   -1    0    0    0  501 -0.00000000000E+00 -0.00000000000E+00 -0.10981582012E+03  0.10981582015E+03  0.25500000000E-02 0.  1.
        -24    2    1    2    0    0  0.00000000000E+00  0.00000000000E+00 -0.94899986527E+02  0.12473165459E+03  0.80944290799E+02 0.  0.
         66    2    3    3    0    0  0.36082845334E+02 -0.66121056695E+01 -0.73733904167E+02  0.82379489644E+02  0.20000053702E+01 0.  0.
         13    1    3    3    0    0 -0.36082845334E+02  0.66121056695E+01 -0.21166082359E+02  0.42352164942E+02  0.10566000000E+00 0. -1.
         13    1    4    4    0    0  0.11154869006E+02 -0.25915489096E+01 -0.21538015571E+02  0.24393534125E+02  0.10566000000E+00 0. -1.
        -13    1    4    4    0    0  0.61856052216E+01 -0.82020600278E+00 -0.12480445960E+02  0.13953750222E+02  0.10566000000E+00 0.  1.
         14    1    4    4    0    0  0.18742371106E+02 -0.32003507571E+01 -0.39715442635E+02  0.44032205298E+02  0.00000000000E+00 0. -1.
<mgrwt>
<rscale>  0 0.80944291E+02</rscale>
<asrwt>0</asrwt>
<pdfrwt beam="1">  1        1 0.22947438E-02 0.80944291E+02</pdfrwt>
<pdfrwt beam="2">  1       -2 0.16894741E-01 0.80944291E+02</pdfrwt>
<totfact> 0.10054300E+05</totfact>
</mgrwt>
</event>
<event>
 8    1  0.1372337E-024  0.7931764E+02  0.7818608E-02  0.1330999E+00
          1   -1    0    0  501    0  0.00000000000E+00  0.00000000000E+00  0.56883011682E+01  0.56883034010E+01  0.50400000000E-02 0. -1.
         -2   -1    0    0    0  501 -0.00000000000E+00 -0.00000000000E+00 -0.27650114831E+03  0.27650114832E+03  0.25500000000E-02 0.  1.
        -24    2    1    2    0    0  0.44408920985E-15  0.00000000000E+00 -0.27081284714E+03  0.28218945172E+03  0.79317642971E+02 0.  0.
         66    2    3    3    0    0  0.29620467415E+01 -0.39323251551E+02 -0.12138409620E+03  0.12764478308E+03  0.20000010181E+01 0.  0.
         13    1    3    3    0    0 -0.29620467415E+01  0.39323251551E+02 -0.14942875094E+03  0.15454466864E+03  0.10566000000E+00 0. -1.
         13    1    4    4    0    0 -0.11956767407E+00 -0.26684119510E+01 -0.80485420377E+01  0.84808556017E+01  0.10566000000E+00 0. -1.
        -13    1    4    4    0    0  0.76081126953E+00 -0.13770231407E+02 -0.40693844505E+02  0.42967409177E+02  0.10566000000E+00 0.  1.
         14    1    4    4    0    0  0.23208031460E+01 -0.22884608193E+02 -0.72641709660E+02  0.76196518305E+02  0.00000000000E+00 0. -1.
<mgrwt>
<rscale>  0 0.79317643E+02</rscale>
<asrwt>0</asrwt>
<pdfrwt beam="1">  1        1 0.87512365E-03 0.79317643E+02</pdfrwt>
<pdfrwt beam="2">  1       -2 0.42538628E-01 0.79317643E+02</pdfrwt>
<totfact> 0.75005387E+04</totfact>
</mgrwt>
</event>
<event>
 8    1  0.1372337E-024  0.8891040E+02  0.7818608E-02  0.1305512E+00
         -2   -1    0    0    0  501 -0.00000000000E+00  0.00000000000E+00  0.41610625642E+02  0.41610625720E+02  0.25500000000E-02 0.  1.
          1   -1    0    0  501    0  0.00000000000E+00 -0.00000000000E+00 -0.47494232413E+02  0.47494232680E+02  0.50400000000E-02 0. -1.
        -24    2    1    2    0    0  0.00000000000E+00  0.00000000000E+00 -0.58836067709E+01  0.89104858400E+02  0.88910398502E+02 0.  0.
         66    2    3    3    0    0  0.26172617667E+02 -0.99967048323E+01  0.31618653033E+02  0.42292780071E+02  0.20000008739E+01 0.  0.
         13    1    3    3    0    0 -0.26172617667E+02  0.99967048323E+01 -0.37502259804E+02  0.46812078329E+02  0.10566000000E+00 0. -1.
         13    1    4    4    0    0  0.11648648192E+02 -0.49276863159E+01  0.13501065617E+02  0.18500352265E+02  0.10566000000E+00 0. -1.
        -13    1    4    4    0    0  0.58248769850E+01 -0.21883294865E+01  0.65503818303E+01  0.90352998838E+01  0.10566000000E+00 0.  1.
        -14    1    4    4    0    0  0.86990924899E+01 -0.28806890300E+01  0.11567205586E+02  0.14757127922E+02  0.00000000000E+00 0.  1.
<mgrwt>
<rscale>  0 0.88910399E+02</rscale>
<asrwt>0</asrwt>
<pdfrwt beam="1">  1        1 0.73068050E-02 0.88910399E+02</pdfrwt>
<pdfrwt beam="2">  1       -2 0.64016347E-02 0.88910399E+02</pdfrwt>
<totfact> 0.96937004E+04</totfact>
</mgrwt>
</event>
<event>
 8    1  0.1372337E-024  0.8133477E+02  0.7818608E-02  0.1325306E+00
          1   -1    0    0  501    0  0.00000000000E+00  0.00000000000E+00  0.13034077952E+03  0.13034077962E+03  0.50400000000E-02 0. -1.
         -2   -1    0    0    0  501 -0.00000000000E+00 -0.00000000000E+00 -0.12688554972E+02  0.12688555228E+02  0.25500000000E-02 0.  1.
        -24    2    1    2    0    0  0.00000000000E+00  0.00000000000E+00  0.11765222455E+03  0.14302933485E+03  0.81334769228E+02 0.  0.
         66    2    3    3    0    0 -0.16467552066E+02  0.15576134740E+02 -0.46190574366E+00  0.22759824233E+02  0.19999994301E+01 0.  0.
         13    1    3    3    0    0  0.16467552066E+02 -0.15576134740E+02  0.11811413029E+03  0.12026951061E+03  0.10566000000E+00 0. -1.
         13    1    4    4    0    0 -0.41224301956E+01  0.40144184705E+01  0.65222514873E+00  0.57919381950E+01  0.10566000000E+00 0.  1.
        -13    1    4    4    0    0 -0.41357097103E+01  0.34460491120E+01 -0.20032052621E+00  0.53880090608E+01  0.10566000000E+00 0.  1.
        -14    1    4    4    0    0 -0.82094121602E+01  0.81156671573E+01 -0.91381036618E+00  0.11579876977E+02  0.00000000000E+00 0.  1.
<mgrwt>
<rscale>  0 0.81334769E+02</rscale>
<asrwt>0</asrwt>
<pdfrwt beam="1">  1        1 0.20052427E-01 0.81334769E+02</pdfrwt>
<pdfrwt beam="2">  1       -2 0.19520854E-02 0.81334769E+02</pdfrwt>
<totfact> 0.14721664E+05</totfact>
</mgrwt>
</event>
<event>
 8    1  0.1372337E-024  0.7788576E+02  0.7818608E-02  0.1335161E+00
         -2   -1    0    0    0  501 -0.00000000000E+00  0.00000000000E+00  0.17682619676E+02  0.17682619860E+02  0.25500000000E-02 0.  1.
          1   -1    0    0  501    0  0.00000000000E+00 -0.00000000000E+00 -0.85764884672E+02  0.85764884820E+02  0.50400000000E-02 0. -1.
        -24    2    1    2    0    0  0.35527136788E-14  0.00000000000E+00 -0.68082264996E+02  0.10344750468E+03  0.77885758760E+02 0.  0.
         66    2    3    3    0    0 -0.25986555589E+02  0.11549240382E+02  0.12239353893E+01  0.28533910449E+02  0.20000007290E+01 0.  0.
         13    1    3    3    0    0  0.25986555589E+02 -0.11549240382E+02 -0.69306200385E+02  0.74913594231E+02  0.10566000000E+00 0. -1.
         13    1    4    4    0    0 -0.10952346037E+02  0.55135081046E+01  0.17821396301E+00  0.12263587550E+02  0.10566000000E+00 0. -1.
        -13    1    4    4    0    0 -0.13017142714E+02  0.51588968441E+01  0.53697466944E+00  0.14012841500E+02  0.10566000000E+00 0.  1.
         14    1    4    4    0    0 -0.20170668379E+01  0.87683543323E+00  0.50874675689E+00  0.22574813993E+01  0.00000000000E+00 0. -1.
<mgrwt>
<rscale>  0 0.77885759E+02</rscale>
<asrwt>0</asrwt>
<pdfrwt beam="1">  1        1 0.13194597E-01 0.77885759E+02</pdfrwt>
<pdfrwt beam="2">  1       -2 0.27204031E-02 0.77885759E+02</pdfrwt>
<totfact> 0.15409556E+05</totfact>
</mgrwt>
</event>
<event>
 8    1  0.1372337E-024  0.7891517E+02  0.7818608E-02  0.1332159E+00
          1   -1    0    0  501    0  0.00000000000E+00  0.00000000000E+00  0.13589149277E+03  0.13589149286E+03  0.50400000000E-02 0. -1.
         -2   -1    0    0    0  501 -0.00000000000E+00 -0.00000000000E+00 -0.11456942791E+02  0.11456943075E+02  0.25500000000E-02 0.  1.
        -24    2    1    2    0    0  0.00000000000E+00  0.17763568394E-14  0.12443454998E+03  0.14734843594E+03  0.78915171829E+02 0.  0.
         66    2    3    3    0    0  0.27271504675E+02  0.11301821954E+02  0.13444514396E+02  0.32499555624E+02  0.20000004137E+01 0.  0.
         13    1    3    3    0    0 -0.27271504675E+02 -0.11301821954E+02  0.11099003558E+03  0.11484888031E+03  0.10566000000E+00 0. -1.
         13    1    4    4    0    0  0.36337303578E+00  0.27065661752E+00  0.13885442757E+00  0.48553017970E+00  0.10566000000E+00 0.  1.
        -13    1    4    4    0    0  0.37989407504E+01  0.10732327580E+01  0.15921748030E+01  0.42579295458E+01  0.10566000000E+00 0.  1.
        -14    1    4    4    0    0  0.23109190889E+02  0.99579325785E+01  0.11713485166E+02  0.27756095898E+02  0.00000000000E+00 0.  1.
<mgrwt>
<rscale>  0 0.78915172E+02</rscale>
<asrwt>0</asrwt>
<pdfrwt beam="1">  1        1 0.20906384E-01 0.78915172E+02</pdfrwt>
<pdfrwt beam="2">  1       -2 0.17626066E-02 0.78915172E+02</pdfrwt>
<totfact> 0.16083271E+05</totfact>
</mgrwt>
</event>
<event>
 8    1  0.1372337E-024  0.7602941E+02  0.7818608E-02  0.1340713E+00
         -2   -1    0    0    0  501 -0.00000000000E+00  0.00000000000E+00  0.93122747376E+02  0.93122747411E+02  0.25500000000E-02 0.  1.
          1   -1    0    0  501    0  0.00000000000E+00 -0.00000000000E+00 -0.15518418984E+02  0.15518419803E+02  0.50400000000E-02 0. -1.
        -24    2    1    2    0    0  0.00000000000E+00  0.00000000000E+00  0.77604328392E+02  0.10864116721E+03  0.76029411601E+02 0.  0.
         66    2    3    3    0    0 -0.28305643921E+02  0.82663668060E+01  0.73051008524E+02  0.78803503367E+02  0.19999996491E+01 0.  0.
         13    1    3    3    0    0  0.28305643921E+02 -0.82663668060E+01  0.45533198683E+01  0.29837663847E+02  0.10566000000E+00 0. -1.
         13    1    4    4    0    0 -0.86277938150E+01  0.26343356062E+01  0.21429649009E+02  0.23251227299E+02  0.10566000000E+00 0. -1.
        -13    1    4    4    0    0 -0.18210973976E+02  0.55507256627E+01  0.47286609655E+02  0.50975334675E+02  0.10566000000E+00 0.  1.
        -14    1    4    4    0    0 -0.14668761301E+01  0.81305537005E-01  0.43347498589E+01  0.45769413926E+01  0.00000000000E+00 0.  1.
<mgrwt>
<rscale>  0 0.76029412E+02</rscale>
<asrwt>0</asrwt>
<pdfrwt beam="1">  1        1 0.23874492E-02 0.76029412E+02</pdfrwt>
<pdfrwt beam="2">  1       -2 0.14326576E-01 0.76029412E+02</pdfrwt>
<totfact> 0.12297024E+05</totfact>
</mgrwt>
</event>
<event>
 8    1  0.1372337E-024  0.7986404E+02  0.7818608E-02  0.1329438E+00
         -2   -1    0    0    0  501 -0.00000000000E+00  0.00000000000E+00  0.35574262849E+02  0.35574262940E+02  0.25500000000E-02 0.  1.
          1   -1    0    0  501    0  0.00000000000E+00 -0.00000000000E+00 -0.44823591527E+02  0.44823591810E+02  0.50400000000E-02 0. -1.
        -24    2    1    2    0    0 -0.71054273576E-14 -0.71054273576E-14 -0.92493286782E+01  0.80397854750E+02  0.79864040516E+02 0.  0.
         66    2    3    3    0    0  0.23102227255E+02  0.20659869191E+02  0.20680451845E+02  0.37312520525E+02  0.20000000830E+01 0.  0.
         13    1    3    3    0    0 -0.23102227255E+02 -0.20659869191E+02 -0.29929780523E+02  0.43085334225E+02  0.10566000000E+00 0. -1.
         13    1    4    4    0    0  0.15216019308E+01  0.19549764614E+01  0.17470959666E+01  0.30332678340E+01  0.10566000000E+00 0. -1.
        -13    1    4    4    0    0  0.14191070861E+02  0.11973606652E+02  0.11821659919E+02  0.22011736772E+02  0.10566000000E+00 0.  1.
         14    1    4    4    0    0  0.73895544629E+01  0.67312860771E+01  0.71116959594E+01  0.12267515919E+02  0.00000000000E+00 0. -1.
<mgrwt>
<rscale>  0 0.79864041E+02</rscale>
<asrwt>0</asrwt>
<pdfrwt beam="1">  1        1 0.68959372E-02 0.79864041E+02</pdfrwt>
<pdfrwt beam="2">  1       -2 0.54729635E-02 0.79864041E+02</pdfrwt>
<totfact> 0.12993480E+05</totfact>
</mgrwt>
</event>
<event>
 8    1  0.1372337E-024  0.8085760E+02  0.7818608E-02  0.1326635E+00
         -2   -1    0    0    0  501 -0.00000000000E+00  0.00000000000E+00  0.23959561585E+02  0.23959561721E+02  0.25500000000E-02 0.  1.
          1   -1    0    0  501    0  0.00000000000E+00 -0.00000000000E+00 -0.68218602752E+02  0.68218602938E+02  0.50400000000E-02 0. -1.
        -24    2    1    2    0    0  0.00000000000E+00  0.00000000000E+00 -0.44259041166E+02  0.92178164659E+02  0.80857598993E+02 0.  0.
         66    2    3    3    0    0 -0.99078024652E+01 -0.34743651893E+02 -0.15219210845E+01  0.36216048066E+02  0.19999992960E+01 0.  0.
         13    1    3    3    0    0  0.99078024652E+01  0.34743651893E+02 -0.42737120082E+02  0.55962116592E+02  0.10566000000E+00 0. -1.
         13    1    4    4    0    0 -0.47357181057E+00 -0.13209344639E+01  0.17361746759E+00  0.14179016815E+01  0.10566000000E+00 0.  1.
        -13    1    4    4    0    0 -0.59219169800E+01 -0.23342273883E+02 -0.11607095198E+01  0.24109941131E+02  0.10566000000E+00 0.  1.
        -14    1    4    4    0    0 -0.35123136746E+01 -0.10080443547E+02 -0.53482903226E+00  0.10688205253E+02  0.00000000000E+00 0.  1.
<mgrwt>
<rscale>  0 0.80857599E+02</rscale>
<asrwt>0</asrwt>
<pdfrwt beam="1">  1        1 0.10495170E-01 0.80857599E+02</pdfrwt>
<pdfrwt beam="2">  1       -2 0.36860865E-02 0.80857599E+02</pdfrwt>
<totfact> 0.13416015E+05</totfact>
</mgrwt>
</event>
<event>
 8    1  0.1372337E-024  0.8024270E+02  0.7818608E-02  0.1328364E+00
         -2   -1    0    0    0  501 -0.00000000000E+00  0.00000000000E+00  0.41602585358E+03  0.41602585358E+03  0.25500000000E-02 0.  1.
          1   -1    0    0  501    0  0.00000000000E+00 -0.00000000000E+00 -0.38692838148E+01  0.38692870973E+01  0.50400000000E-02 0. -1.
        -24    2    1    2    0    0  0.00000000000E+00  0.00000000000E+00  0.41215656976E+03  0.41989514068E+03  0.80242701664E+02 0.  0.
         66    2    3    3    0    0  0.11049600086E+02  0.35054946102E+02  0.29005759754E+03  0.29238391337E+03  0.19999999992E+01 0.  0.
         13    1    3    3    0    0 -0.11049600086E+02 -0.35054946102E+02  0.12209897222E+03  0.12751122731E+03  0.10566000000E+00 0. -1.
         13    1    4    4    0    0  0.25215150413E+00  0.59260337897E+00  0.36942857036E+01  0.37514890432E+01  0.10566000000E+00 0. -1.
        -13    1    4    4    0    0  0.62617097614E+01  0.19793101717E+02  0.16728257661E+03  0.16856585504E+03  0.10566000000E+00 0.  1.
        -14    1    4    4    0    0  0.45357388203E+01  0.14669241006E+02  0.11908073523E+03  0.12006656929E+03  0.00000000000E+00 0.  1.
<mgrwt>
<rscale>  0 0.80242702E+02</rscale>
<asrwt>0</asrwt>
<pdfrwt beam="1">  1        1 0.59527447E-03 0.80242702E+02</pdfrwt>
<pdfrwt beam="2">  1       -2 0.64004001E-01 0.80242702E+02</pdfrwt>
<totfact> 0.57106049E+04</totfact>
</mgrwt>
</event>
<event>
 8    1  0.1372337E-024  0.7919154E+02  0.7818608E-02  0.1331362E+00
         -2   -1    0    0    0  501 -0.00000000000E+00  0.00000000000E+00  0.64096391416E+02  0.64096391467E+02  0.25500000000E-02 0.  1.
          1   -1    0    0  501    0  0.00000000000E+00 -0.00000000000E+00 -0.24460423846E+02  0.24460424365E+02  0.50400000000E-02 0. -1.
        -24    2    1    2    0    0  0.00000000000E+00  0.00000000000E+00  0.39635967571E+02  0.88556815832E+02  0.79191538090E+02 0.  0.
         66    2    3    3    0    0  0.92323113660E+01  0.34314538954E+02  0.39299152275E+02  0.53020246423E+02  0.20000011200E+01 0.  0.
         13    1    3    3    0    0 -0.92323113660E+01 -0.34314538954E+02  0.33681529602E+00  0.35536569409E+02  0.10566000000E+00 0. -1.
         13    1    4    4    0    0  0.39597321386E+01  0.15972500878E+02  0.17367042557E+02  0.23925417324E+02  0.10566000000E+00 0. -1.
        -13    1    4    4    0    0  0.21371099232E+01  0.94466665351E+01  0.11152224893E+02  0.14771256939E+02  0.10566000000E+00 0.  1.
        -14    1    4    4    0    0  0.31354693041E+01  0.88953715412E+01  0.10779884824E+02  0.14323572161E+02  0.00000000000E+00 0.  1.
<mgrwt>
<rscale>  0 0.79191538E+02</rscale>
<asrwt>0</asrwt>
<pdfrwt beam="1">  1        1 0.37631423E-02 0.79191538E+02</pdfrwt>
<pdfrwt beam="2">  1       -2 0.98609830E-02 0.79191538E+02</pdfrwt>
<totfact> 0.11996619E+05</totfact>
</mgrwt>
</event>
<event>
 8    1  0.1372337E-024  0.8093774E+02  0.7818608E-02  0.1326411E+00
         -2   -1    0    0    0  501 -0.00000000000E+00  0.00000000000E+00  0.88141034954E+01  0.88141038642E+01  0.25500000000E-02 0.  1.
          1   -1    0    0  501    0  0.00000000000E+00 -0.00000000000E+00 -0.18580780506E+03  0.18580780513E+03  0.50400000000E-02 0. -1.
        -24    2    1    2    0    0 -0.71054273576E-14  0.00000000000E+00 -0.17699370157E+03  0.19462190900E+03  0.80937735739E+02 0.  0.
         66    2    3    3    0    0 -0.34480551072E+02 -0.21129981052E+02 -0.89952397922E+02  0.98644910679E+02  0.20000023759E+01 0.  0.
         13    1    3    3    0    0  0.34480551072E+02  0.21129981052E+02 -0.87041303647E+02  0.95976998317E+02  0.10566000000E+00 0. -1.
         13    1    4    4    0    0 -0.17499486273E+02 -0.11468272646E+02 -0.47873580061E+02  0.52245996298E+02  0.10566000000E+00 0. -1.
        -13    1    4    4    0    0 -0.73732336963E+01 -0.43547567549E+01 -0.17678618915E+02  0.19643655777E+02  0.10566000000E+00 0.  1.
         14    1    4    4    0    0 -0.96078311021E+01 -0.53069516511E+01 -0.24400198946E+02  0.26755258603E+02  0.00000000000E+00 0. -1.
<mgrwt>
<rscale>  0 0.80937736E+02</rscale>
<asrwt>0</asrwt>
<pdfrwt beam="1">  1        1 0.28585813E-01 0.80937736E+02</pdfrwt>
<pdfrwt beam="2">  1       -2 0.13560161E-02 0.80937736E+02</pdfrwt>
<totfact> 0.15936467E+05</totfact>
</mgrwt>
</event>
<event>
 8    1  0.1372337E-024  0.7918471E+02  0.7818608E-02  0.1331381E+00
         -2   -1    0    0    0  501 -0.00000000000E+00  0.00000000000E+00  0.81951796705E+03  0.81951796705E+03  0.25500000000E-02 0.  1.
          1   -1    0    0  501    0  0.00000000000E+00 -0.00000000000E+00 -0.19127728919E+01  0.19127795319E+01  0.50400000000E-02 0. -1.
        -24    2    1    2    0    0  0.00000000000E+00  0.88817841970E-15  0.81760519416E+03  0.82143074659E+03  0.79184707629E+02 0.  0.
         66    2    3    3    0    0  0.32986075263E+02 -0.52771068347E+01  0.62902721107E+03  0.62991678916E+03  0.19999965754E+01 0.  0.
         13    1    3    3    0    0 -0.32986075263E+02  0.52771068347E+01  0.18857798309E+03  0.19151395742E+03  0.10566000000E+00 0. -1.
         13    1    4    4    0    0  0.43188374843E+01 -0.12983896699E+01  0.86145640139E+02  0.86263669363E+02  0.10566000000E+00 0. -1.
        -13    1    4    4    0    0  0.10899476902E+02 -0.11683548383E+01  0.20205031234E+03  0.20234748214E+03  0.10566000000E+00 0.  1.
        -14    1    4    4    0    0  0.17767760877E+02 -0.28103623264E+01  0.34083125859E+03  0.34130563766E+03  0.00000000000E+00 0.  1.
<mgrwt>
<rscale>  0 0.79184708E+02</rscale>
<asrwt>0</asrwt>
<pdfrwt beam="1">  1        1 0.29427242E-03 0.79184708E+02</pdfrwt>
<pdfrwt beam="2">  1       -2 0.12608005E+00 0.79184708E+02</pdfrwt>
<totfact> 0.33284942E+04</totfact>
</mgrwt>
</event>
<event>
 8    1  0.1372337E-024  0.8028230E+02  0.7818608E-02  0.1328252E+00
         -2   -1    0    0    0  501 -0.00000000000E+00  0.00000000000E+00  0.91150879430E+02  0.91150879466E+02  0.25500000000E-02 0.  1.
          1   -1    0    0  501    0  0.00000000000E+00 -0.00000000000E+00 -0.17677412832E+02  0.17677413551E+02  0.50400000000E-02 0. -1.
        -24    2    1    2    0    0  0.00000000000E+00  0.00000000000E+00  0.73473466598E+02  0.10882829302E+03  0.80282296100E+02 0.  0.
         66    2    3    3    0    0 -0.75592931759E+00  0.10944050736E+02  0.89066973732E+02  0.89762294370E+02  0.20000012584E+01 0.  0.
         13    1    3    3    0    0  0.75592931759E+00 -0.10944050736E+02 -0.15593507134E+02  0.19065998647E+02  0.10566000000E+00 0. -1.
         13    1    4    4    0    0 -0.78621197940E+00  0.21434101494E+01  0.19344217513E+02  0.19478764118E+02  0.10566000000E+00 0. -1.
        -13    1    4    4    0    0 -0.44646554794E+00  0.61824514919E+01  0.48796631690E+02  0.49188865267E+02  0.10566000000E+00 0.  1.
         14    1    4    4    0    0  0.47674820975E+00  0.26181890944E+01  0.20926124529E+02  0.21094664984E+02  0.00000000000E+00 0. -1.
<mgrwt>
<rscale>  0 0.80282296E+02</rscale>
<asrwt>0</asrwt>
<pdfrwt beam="1">  1        1 0.27196020E-02 0.80282296E+02</pdfrwt>
<pdfrwt beam="2">  1       -2 0.14023213E-01 0.80282296E+02</pdfrwt>
<totfact> 0.10755373E+05</totfact>
</mgrwt>
</event>
<event>
 8    1  0.1372337E-024  0.8102050E+02  0.7818608E-02  0.1326180E+00
          1   -1    0    0  501    0  0.00000000000E+00  0.00000000000E+00  0.15975789875E+01  0.15975869376E+01  0.50400000000E-02 0. -1.
         -2   -1    0    0    0  501 -0.00000000000E+00 -0.00000000000E+00 -0.10272269046E+04  0.10272269046E+04  0.25500000000E-02 0.  1.
        -24    2    1    2    0    0 -0.35527136788E-14  0.71054273576E-14 -0.10256293256E+04  0.10288244915E+04  0.81020496404E+02 0.  0.
         66    2    3    3    0    0  0.13834709331E+02 -0.26454616497E+02 -0.86038058114E+03  0.86090068551E+03  0.20000002195E+01 0.  0.
         13    1    3    3    0    0 -0.13834709331E+02  0.26454616497E+02 -0.16524874444E+03  0.16792380599E+03  0.10566000000E+00 0. -1.
         13    1    4    4    0    0  0.55154278222E+00 -0.72883848245E+00 -0.31430087831E+02  0.31443552440E+02  0.10566000000E+00 0. -1.
        -13    1    4    4    0    0  0.68691455899E+00 -0.21039398323E+01 -0.62433318433E+02  0.62472624636E+02  0.10566000000E+00 0.  1.
         14    1    4    4    0    0  0.12596251990E+02 -0.23621838182E+02 -0.76651717487E+03  0.76698450843E+03  0.00000000000E+00 0. -1.
<mgrwt>
<rscale>  0 0.81020496E+02</rscale>
<asrwt>0</asrwt>
<pdfrwt beam="1">  1        1 0.24578282E-03 0.81020496E+02</pdfrwt>
<pdfrwt beam="2">  1       -2 0.15803438E+00 0.81020496E+02</pdfrwt>
<totfact> 0.24452081E+04</totfact>
</mgrwt>
</event>
<event>
 8    1  0.1372337E-024  0.7605232E+02  0.7818608E-02  0.1340643E+00
         -2   -1    0    0    0  501 -0.00000000000E+00  0.00000000000E+00  0.20201340579E+03  0.20201340581E+03  0.25500000000E-02 0.  1.
          1   -1    0    0  501    0  0.00000000000E+00 -0.00000000000E+00 -0.71578855196E+01  0.71578872940E+01  0.50400000000E-02 0. -1.
        -24    2    1    2    0    0  0.00000000000E+00 -0.17763568394E-14  0.19485552027E+03  0.20917129310E+03  0.76052324602E+02 0.  0.
         66    2    3    3    0    0  0.20834163210E+02 -0.15825284375E+02  0.17329131386E+03  0.17526660103E+03  0.19999988121E+01 0.  0.
         13    1    3    3    0    0 -0.20834163210E+02  0.15825284375E+02  0.21564206411E+02  0.33904692070E+02  0.10566000000E+00 0. -1.
         13    1    4    4    0    0  0.59730709377E+01 -0.39688366237E+01  0.49645194190E+02  0.50160599186E+02  0.10566000000E+00 0. -1.
        -13    1    4    4    0    0  0.51646290715E+01 -0.35822490784E+01  0.37980351663E+02  0.38497067140E+02  0.10566000000E+00 0.  1.
        -14    1    4    4    0    0  0.96964632008E+01 -0.82741986726E+01  0.85665768010E+02  0.86608934706E+02  0.00000000000E+00 0.  1.
<mgrwt>
<rscale>  0 0.76052325E+02</rscale>
<asrwt>0</asrwt>
<pdfrwt beam="1">  1        1 0.11012134E-02 0.76052325E+02</pdfrwt>
<pdfrwt beam="2">  1       -2 0.31078982E-01 0.76052325E+02</pdfrwt>
<totfact> 0.96525204E+04</totfact>
</mgrwt>
</event>
<event>
 8    1  0.1372337E-024  0.7908830E+02  0.7818608E-02  0.1331659E+00
         -2   -1    0    0    0  501 -0.00000000000E+00  0.00000000000E+00  0.37840241367E+01  0.37840249959E+01  0.25500000000E-02 0.  1.
          1   -1    0    0  501    0  0.00000000000E+00 -0.00000000000E+00 -0.41324778337E+03  0.41324778340E+03  0.50400000000E-02 0. -1.
        -24    2    1    2    0    0  0.35527136788E-14 -0.71054273576E-14 -0.40946375923E+03  0.41703180840E+03  0.79088299319E+02 0.  0.
         66    2    3    3    0    0 -0.16156168993E+02  0.36016894937E+02 -0.19500282301E+03  0.19896818730E+03  0.20000142113E+01 0.  0.
         13    1    3    3    0    0  0.16156168993E+02 -0.36016894937E+02 -0.21446093623E+03  0.21806362110E+03  0.10566000000E+00 0. -1.
         13    1    4    4    0    0 -0.35029177683E+01  0.95038096436E+01 -0.48573194525E+02  0.49618133993E+02  0.10566000000E+00 0. -1.
        -13    1    4    4    0    0 -0.27252543863E+01  0.55214900250E+01 -0.29044833217E+02  0.29690526506E+02  0.10566000000E+00 0.  1.
         14    1    4    4    0    0 -0.99279968382E+01  0.20991595268E+02 -0.11738479527E+03  0.11965952680E+03  0.00000000000E+00 0. -1.
<mgrwt>
<rscale>  0 0.79088299E+02</rscale>
<asrwt>0</asrwt>
<pdfrwt beam="1">  1        1 0.63576547E-01 0.79088299E+02</pdfrwt>
<pdfrwt beam="2">  1       -2 0.58215795E-03 0.79088299E+02</pdfrwt>
<totfact> 0.19676289E+05</totfact>
</mgrwt>
</event>
<event>
 8    1  0.1372337E-024  0.7738626E+02  0.7818608E-02  0.1336637E+00
          1   -1    0    0  501    0  0.00000000000E+00  0.00000000000E+00  0.50300049440E+01  0.50300074690E+01  0.50400000000E-02 0. -1.
         -2   -1    0    0    0  501 -0.00000000000E+00 -0.00000000000E+00 -0.29764544429E+03  0.29764544430E+03  0.25500000000E-02 0.  1.
        -24    2    1    2    0    0  0.00000000000E+00  0.00000000000E+00 -0.29261543935E+03  0.30267545177E+03  0.77386263383E+02 0.  0.
         66    2    3    3    0    0  0.11956341909E+01 -0.36226342771E+02 -0.19908002147E+03  0.20236262600E+03  0.20000008691E+01 0.  0.
         13    1    3    3    0    0 -0.11956341909E+01  0.36226342771E+02 -0.93535417877E+02  0.10031282577E+03  0.10566000000E+00 0. -1.
         13    1    4    4    0    0  0.90715778893E+00 -0.25413506304E+02 -0.14247691356E+03  0.14472854349E+03  0.10566000000E+00 0. -1.
        -13    1    4    4    0    0 -0.21362162530E+00 -0.60760298838E+01 -0.30608932957E+02  0.31207077949E+02  0.10566000000E+00 0.  1.
        -14    1    4    4    0    0  0.50209802732E+00 -0.47368065828E+01 -0.25994174947E+02  0.26427004564E+02  0.00000000000E+00 0.  1.
<mgrwt>
<rscale>  0 0.77386263E+02</rscale>
<asrwt>0</asrwt>
<pdfrwt beam="1">  1        1 0.77384734E-03 0.77386263E+02</pdfrwt>
<pdfrwt beam="2">  1       -2 0.45791593E-01 0.77386263E+02</pdfrwt>
<totfact> 0.76886681E+04</totfact>
</mgrwt>
</event>
<event>
 8    1  0.1372337E-024  0.7867067E+02  0.7818608E-02  0.1332867E+00
         -2   -1    0    0    0  501 -0.00000000000E+00  0.00000000000E+00  0.15781970017E+02  0.15781970223E+02  0.25500000000E-02 0.  1.
          1   -1    0    0  501    0  0.00000000000E+00 -0.00000000000E+00 -0.98040266732E+02  0.98040266862E+02  0.50400000000E-02 0. -1.
        -24    2    1    2    0    0  0.00000000000E+00 -0.35527136788E-14 -0.82258296715E+02  0.11382223708E+03  0.78670669735E+02 0.  0.
         66    2    3    3    0    0 -0.43028047344E+01  0.29393867658E+02 -0.39088400364E+01  0.30029862072E+02  0.20000002776E+01 0.  0.
         13    1    3    3    0    0  0.43028047344E+01 -0.29393867658E+02 -0.78349456678E+02  0.83792375013E+02  0.10566000000E+00 0. -1.
         13    1    4    4    0    0 -0.33273648359E+01  0.20234673403E+02 -0.21791984544E+01  0.20622158820E+02  0.10566000000E+00 0. -1.
        -13    1    4    4    0    0 -0.11296774546E+00  0.47321989584E+01 -0.99255648737E+00  0.48376441694E+01  0.10566000000E+00 0.  1.
        -14    1    4    4    0    0 -0.86247215303E+00  0.44269952972E+01 -0.73708509471E+00  0.45700590820E+01  0.00000000000E+00 0.  1.
<mgrwt>
<rscale>  0 0.78670670E+02</rscale>
<asrwt>0</asrwt>
<pdfrwt beam="1">  1        1 0.15083118E-01 0.78670670E+02</pdfrwt>
<pdfrwt beam="2">  1       -2 0.24279955E-02 0.78670670E+02</pdfrwt>
<totfact> 0.15328746E+05</totfact>
</mgrwt>
</event>
<event>
 8    1  0.1372337E-024  0.7658164E+02  0.7818608E-02  0.1339042E+00
          1   -1    0    0  501    0  0.00000000000E+00  0.00000000000E+00  0.13960717534E+03  0.13960717543E+03  0.50400000000E-02 0. -1.
         -2   -1    0    0    0  501 -0.00000000000E+00 -0.00000000000E+00 -0.10502232044E+02  0.10502232354E+02  0.25500000000E-02 0.  1.
        -24    2    1    2    0    0  0.00000000000E+00 -0.71054273576E-14  0.12910494329E+03  0.15010940778E+03  0.76581642200E+02 0.  0.
         66    2    3    3    0    0  0.19736305625E+02 -0.32510500064E+02  0.56343421471E+02  0.68007613673E+02  0.20000000695E+01 0.  0.
         13    1    3    3    0    0 -0.19736305625E+02  0.32510500064E+02  0.72761521823E+02  0.82101794110E+02  0.10566000000E+00 0. -1.
         13    1    4    4    0    0  0.55625844958E+01 -0.87616387580E+01  0.16550183184E+02  0.19535311297E+02  0.10566000000E+00 0. -1.
        -13    1    4    4    0    0  0.11557935578E+02 -0.20090985016E+02  0.33558481228E+02  0.40785001901E+02  0.10566000000E+00 0.  1.
        -14    1    4    4    0    0  0.26157855512E+01 -0.36578762892E+01  0.62347570595E+01  0.76873004747E+01  0.00000000000E+00 0.  1.
<mgrwt>
<rscale>  0 0.76581642E+02</rscale>
<asrwt>0</asrwt>
<pdfrwt beam="1">  1        1 0.21478026E-01 0.76581642E+02</pdfrwt>
<pdfrwt beam="2">  1       -2 0.16157281E-02 0.76581642E+02</pdfrwt>
<totfact> 0.17509014E+05</totfact>
</mgrwt>
</event>
<event>
 8    1  0.1372337E-024  0.7958390E+02  0.7818608E-02  0.1330236E+00
         -2   -1    0    0    0  501 -0.00000000000E+00  0.00000000000E+00  0.15242784626E+02  0.15242784839E+02  0.25500000000E-02 0.  1.
          1   -1    0    0  501    0  0.00000000000E+00 -0.00000000000E+00 -0.10387861505E+03  0.10387861517E+03  0.50400000000E-02 0. -1.
        -24    2    1    2    0    0  0.00000000000E+00  0.00000000000E+00 -0.88635830420E+02  0.11912140001E+03  0.79583902300E+02 0.  0.
         66    2    3    3    0    0  0.33610360023E+02 -0.15384475222E+02 -0.22395529819E+02  0.43265438036E+02  0.19999984618E+01 0.  0.
         13    1    3    3    0    0 -0.33610360023E+02  0.15384475222E+02 -0.66240300601E+02  0.75855961970E+02  0.10566000000E+00 0. -1.
         13    1    4    4    0    0  0.77576846207E+01 -0.38098603859E+01 -0.56139682980E+01  0.10306527588E+02  0.10566000000E+00 0. -1.
        -13    1    4    4    0    0  0.13695105752E+02 -0.54089916832E+01 -0.91534775474E+01  0.17338120655E+02  0.10566000000E+00 0.  1.
         14    1    4    4    0    0  0.12157569650E+02 -0.61656231531E+01 -0.76280839741E+01  0.15620789794E+02  0.00000000000E+00 0. -1.
<mgrwt>
<rscale>  0 0.79583902E+02</rscale>
<asrwt>0</asrwt>
<pdfrwt beam="1">  1        1 0.15981325E-01 0.79583902E+02</pdfrwt>
<pdfrwt beam="2">  1       -2 0.23450439E-02 0.79583902E+02</pdfrwt>
<totfact> 0.15003542E+05</totfact>
</mgrwt>
</event>
<event>
 8    1  0.1372337E-024  0.8311732E+02  0.7818608E-02  0.1320431E+00
         -2   -1    0    0    0  501 -0.00000000000E+00  0.00000000000E+00  0.32767010134E+02  0.32767010233E+02  0.25500000000E-02 0.  1.
          1   -1    0    0  501    0  0.00000000000E+00 -0.00000000000E+00 -0.52709182421E+02  0.52709182662E+02  0.50400000000E-02 0. -1.
        -24    2    1    2    0    0  0.00000000000E+00 -0.35527136788E-14 -0.19942172287E+02  0.85476192895E+02  0.83117322600E+02 0.  0.
         66    2    3    3    0    0 -0.17960574089E+02 -0.22971261235E+02  0.20440548996E+02  0.35666189817E+02  0.19999971235E+01 0.  0.
         13    1    3    3    0    0  0.17960574089E+02  0.22971261235E+02 -0.40382721283E+02  0.49810003078E+02  0.10566000000E+00 0. -1.
         13    1    4    4    0    0 -0.15686012577E+02 -0.20118774922E+02  0.17218179169E+02  0.30778124583E+02  0.10566000000E+00 0. -1.
        -13    1    4    4    0    0 -0.16175188809E+01 -0.21011783919E+01  0.20850018566E+01  0.33748651443E+01  0.10566000000E+00 0.  1.
         14    1    4    4    0    0 -0.65704263096E+00 -0.75130792122E+00  0.11373679710E+01  0.15132000901E+01  0.00000000000E+00 0. -1.
<mgrwt>
<rscale>  0 0.83117323E+02</rscale>
<asrwt>0</asrwt>
<pdfrwt beam="1">  1        1 0.81091050E-02 0.83117323E+02</pdfrwt>
<pdfrwt beam="2">  1       -2 0.50410785E-02 0.83117323E+02</pdfrwt>
<totfact> 0.11927653E+05</totfact>
</mgrwt>
</event>
<event>
 8    1  0.1372337E-024  0.7778201E+02  0.7818608E-02  0.1335466E+00
         -2   -1    0    0    0  501 -0.00000000000E+00  0.00000000000E+00  0.68546993009E+02  0.68546993056E+02  0.25500000000E-02 0.  1.
          1   -1    0    0  501    0  0.00000000000E+00 -0.00000000000E+00 -0.22065301216E+02  0.22065301791E+02  0.50400000000E-02 0. -1.
        -24    2    1    2    0    0  0.00000000000E+00  0.17763568394E-14  0.46481691793E+02  0.90612294847E+02  0.77782005024E+02 0.  0.
         66    2    3    3    0    0 -0.17935554590E+02 -0.15646838778E+02  0.59048782245E+02  0.63696674686E+02  0.19999998108E+01 0.  0.
         13    1    3    3    0    0  0.17935554590E+02  0.15646838778E+02 -0.12567090452E+02  0.26915620161E+02  0.10566000000E+00 0. -1.
         13    1    4    4    0    0 -0.72888570020E+00 -0.46834485515E+00  0.29847905127E+01  0.31097845114E+01  0.10566000000E+00 0. -1.
        -13    1    4    4    0    0 -0.13087489965E+02 -0.12105235698E+02  0.43147492408E+02  0.46685505138E+02  0.10566000000E+00 0.  1.
        -14    1    4    4    0    0 -0.41191789256E+01 -0.30732582254E+01  0.12916499324E+02  0.13901385037E+02  0.00000000000E+00 0.  1.
<mgrwt>
<rscale>  0 0.77782005E+02</rscale>
<asrwt>0</asrwt>
<pdfrwt beam="1">  1        1 0.33946619E-02 0.77782005E+02</pdfrwt>
<pdfrwt beam="2">  1       -2 0.10545691E-01 0.77782005E+02</pdfrwt>
<totfact> 0.12392904E+05</totfact>
</mgrwt>
</event>
<event>
 8    1  0.1372337E-024  0.8430600E+02  0.7818608E-02  0.1317257E+00
         -2   -1    0    0    0  501 -0.00000000000E+00  0.00000000000E+00  0.79681158466E+02  0.79681158507E+02  0.25500000000E-02 0.  1.
          1   -1    0    0  501    0  0.00000000000E+00 -0.00000000000E+00 -0.22299819560E+02  0.22299820130E+02  0.50400000000E-02 0. -1.
        -24    2    1    2    0    0 -0.35527136788E-14  0.00000000000E+00  0.57381338906E+02  0.10198097864E+03  0.84306001856E+02 0.  0.
         66    2    3    3    0    0 -0.23603975995E+02 -0.32301932199E+02  0.44677299654E+02  0.60005196524E+02  0.19999997417E+01 0.  0.
         13    1    3    3    0    0  0.23603975995E+02  0.32301932199E+02  0.12704039252E+02  0.41975782112E+02  0.10566000000E+00 0. -1.
         13    1    4    4    0    0 -0.97032661660E+01 -0.12053437333E+02  0.16953213243E+02  0.22953460068E+02  0.10566000000E+00 0. -1.
        -13    1    4    4    0    0 -0.20835715809E+01 -0.26817244527E+01  0.34542066140E+01  0.48451650065E+01  0.10566000000E+00 0.  1.
        -14    1    4    4    0    0 -0.11817138248E+02 -0.17566770414E+02  0.24269879797E+02  0.32206571449E+02  0.00000000000E+00 0.  1.
<mgrwt>
<rscale>  0 0.84306002E+02</rscale>
<asrwt>0</asrwt>
<pdfrwt beam="1">  1        1 0.34307416E-02 0.84306002E+02</pdfrwt>
<pdfrwt beam="2">  1       -2 0.12258640E-01 0.84306002E+02</pdfrwt>
<totfact> 0.97859569E+04</totfact>
</mgrwt>
</event>
<event>
 8    1  0.1372337E-024  0.7873364E+02  0.7818608E-02  0.1332684E+00
         -2   -1    0    0    0  501 -0.00000000000E+00  0.00000000000E+00  0.34890901369E+02  0.34890901462E+02  0.25500000000E-02 0.  1.
          1   -1    0    0  501    0  0.00000000000E+00 -0.00000000000E+00 -0.44416918346E+02  0.44416918632E+02  0.50400000000E-02 0. -1.
        -24    2    1    2    0    0  0.35527136788E-14 -0.35527136788E-14 -0.95260169772E+01  0.79307820094E+02  0.78733635307E+02 0.  0.
         66    2    3    3    0    0 -0.23159660322E+02  0.31005820024E+02 -0.11889467151E+02  0.40535048690E+02  0.20000003896E+01 0.  0.
         13    1    3    3    0    0  0.23159660322E+02 -0.31005820024E+02  0.23634501738E+01  0.38772771404E+02  0.10566000000E+00 0. -1.
         13    1    4    4    0    0 -0.20194702860E+02  0.25990784841E+02 -0.10104575763E+02  0.34430517505E+02  0.10566000000E+00 0. -1.
        -13    1    4    4    0    0 -0.18783031559E+01  0.30369408206E+01 -0.93357289685E+00  0.36923914584E+01  0.10566000000E+00 0.  1.
         14    1    4    4    0    0 -0.10866543060E+01  0.19780943624E+01 -0.85131849082E+00  0.24121397265E+01  0.00000000000E+00 0. -1.
<mgrwt>
<rscale>  0 0.78733635E+02</rscale>
<asrwt>0</asrwt>
<pdfrwt beam="1">  1        1 0.68333721E-02 0.78733635E+02</pdfrwt>
<pdfrwt beam="2">  1       -2 0.53678310E-02 0.78733635E+02</pdfrwt>
<totfact> 0.13502113E+05</totfact>
</mgrwt>
</event>
<event>
 8    1  0.1372337E-024  0.8400633E+02  0.7818608E-02  0.1318052E+00
          1   -1    0    0  501    0  0.00000000000E+00  0.00000000000E+00  0.63492822778E+02  0.63492822978E+02  0.50400000000E-02 0. -1.
         -2   -1    0    0    0  501 -0.00000000000E+00 -0.00000000000E+00 -0.27786855144E+02  0.27786855261E+02  0.25500000000E-02 0.  1.
        -24    2    1    2    0    0  0.00000000000E+00  0.00000000000E+00  0.35705967634E+02  0.91279678239E+02  0.84006330326E+02 0.  0.
         66    2    3    3    0    0  0.21412959163E+01  0.16431028966E+02 -0.24047086291E+02  0.29271594262E+02  0.20000026248E+01 0.  0.
         13    1    3    3    0    0 -0.21412959163E+01 -0.16431028966E+02  0.59753053925E+02  0.62008083977E+02  0.10566000000E+00 0. -1.
         13    1    4    4    0    0  0.17553240447E+01  0.10565541098E+02 -0.15483104481E+02  0.18826829515E+02  0.10566000000E+00 0. -1.
        -13    1    4    4    0    0 -0.11253851370E+00  0.11111423648E+01 -0.23565114298E+01  0.26099065934E+01  0.10566000000E+00 0.  1.
         14    1    4    4    0    0  0.49851038537E+00  0.47543455033E+01 -0.62074703800E+01  0.78348581537E+01  0.00000000000E+00 0. -1.
<mgrwt>
<rscale>  0 0.84006330E+02</rscale>
<asrwt>0</asrwt>
<pdfrwt beam="1">  1        1 0.97681265E-02 0.84006330E+02</pdfrwt>
<pdfrwt beam="2">  1       -2 0.42749009E-02 0.84006330E+02</pdfrwt>
<totfact> 0.11935680E+05</totfact>
</mgrwt>
</event>
<event>
 8    1  0.1372337E-024  0.8153807E+02  0.7818608E-02  0.1324742E+00
         -2   -1    0    0    0  501 -0.00000000000E+00  0.00000000000E+00  0.10263318287E+03  0.10263318290E+03  0.25500000000E-02 0.  1.
          1   -1    0    0  501    0  0.00000000000E+00 -0.00000000000E+00 -0.16194705537E+02  0.16194706321E+02  0.50400000000E-02 0. -1.
        -24    2    1    2    0    0  0.00000000000E+00  0.00000000000E+00  0.86438477334E+02  0.11882788922E+03  0.81538070209E+02 0.  0.
         66    2    3    3    0    0  0.20335278611E+02 -0.18553689073E+02  0.87022025390E+02  0.91294007790E+02  0.20000052284E+01 0.  0.
         13    1    3    3    0    0 -0.20335278611E+02  0.18553689073E+02 -0.58354805567E+00  0.27533881434E+02  0.10566000000E+00 0. -1.
         13    1    4    4    0    0  0.30100964112E+01 -0.27829057491E+01  0.11508439058E+02  0.12217224660E+02  0.10566000000E+00 0.  1.
        -13    1    4    4    0    0  0.86508981304E+01 -0.85786255237E+01  0.37677071446E+02  0.39598026859E+02  0.10566000000E+00 0.  1.
         14    1    4    4    0    0  0.86742840697E+01 -0.71921578006E+01  0.37836514886E+02  0.39478756271E+02  0.00000000000E+00 0. -1.
<mgrwt>
<rscale>  0 0.81538070E+02</rscale>
<asrwt>0</asrwt>
<pdfrwt beam="1">  1        1 0.24914931E-02 0.81538070E+02</pdfrwt>
<pdfrwt beam="2">  1       -2 0.15789721E-01 0.81538070E+02</pdfrwt>
<totfact> 0.10041927E+05</totfact>
</mgrwt>
</event>
<event>
 8    1  0.1372337E-024  0.7907607E+02  0.7818608E-02  0.1331694E+00
         -2   -1    0    0    0  501 -0.00000000000E+00  0.00000000000E+00  0.92895738784E+01  0.92895742284E+01  0.25500000000E-02 0.  1.
          1   -1    0    0  501    0  0.00000000000E+00 -0.00000000000E+00 -0.16828069829E+03  0.16828069837E+03  0.50400000000E-02 0. -1.
        -24    2    1    2    0    0  0.00000000000E+00 -0.71054273576E-14 -0.15899112441E+03  0.17757027259E+03  0.79076065073E+02 0.  0.
         66    2    3    3    0    0 -0.81005511700E+01  0.33196745085E+02 -0.12409725818E+03  0.12873139589E+03  0.19999963300E+01 0.  0.
         13    1    3    3    0    0  0.81005511700E+01 -0.33196745085E+02 -0.34893866230E+02  0.48838876707E+02  0.10566000000E+00 0. -1.
         13    1    4    4    0    0 -0.93840581896E+00  0.25148114640E+01 -0.93389562407E+01  0.97176205875E+01  0.10566000000E+00 0. -1.
        -13    1    4    4    0    0 -0.26882430908E+01  0.12078960605E+02 -0.47726487930E+02  0.49304733590E+02  0.10566000000E+00 0.  1.
         14    1    4    4    0    0 -0.44739022603E+01  0.18602973015E+02 -0.67031814012E+02  0.69709041710E+02  0.00000000000E+00 0. -1.
<mgrwt>
<rscale>  0 0.79076065E+02</rscale>
<asrwt>0</asrwt>
<pdfrwt beam="1">  1        1 0.25889336E-01 0.79076065E+02</pdfrwt>
<pdfrwt beam="2">  1       -2 0.14291654E-02 0.79076065E+02</pdfrwt>
<totfact> 0.16637695E+05</totfact>
</mgrwt>
</event>
<event>
 8    1  0.1372337E-024  0.7935951E+02  0.7818608E-02  0.1330879E+00
         -2   -1    0    0    0  501 -0.00000000000E+00  0.00000000000E+00  0.37966724810E+01  0.37966733373E+01  0.25500000000E-02 0.  1.
          1   -1    0    0  501    0  0.00000000000E+00 -0.00000000000E+00 -0.41470067371E+03  0.41470067374E+03  0.50400000000E-02 0. -1.
        -24    2    1    2    0    0  0.00000000000E+00  0.71054273576E-14 -0.41090400123E+03  0.41849734708E+03  0.79359506584E+02 0.  0.
         66    2    3    3    0    0  0.55633818528E+01 -0.37430546992E+02 -0.26808532350E+03  0.27075032363E+03  0.20000008020E+01 0.  0.
         13    1    3    3    0    0 -0.55633818528E+01  0.37430546992E+02 -0.14281867773E+03  0.14774702345E+03  0.10566000000E+00 0. -1.
         13    1    4    4    0    0  0.11157029096E+00 -0.22916279290E+01 -0.15861200387E+02  0.16026629348E+02  0.10566000000E+00 0. -1.
        -13    1    4    4    0    0  0.40625487077E+01 -0.29888383215E+02 -0.21265062520E+03  0.21477923390E+03  0.10566000000E+00 0.  1.
         14    1    4    4    0    0  0.13892628541E+01 -0.52505358488E+01 -0.39573497919E+02  0.39944460386E+02  0.00000000000E+00 0. -1.
<mgrwt>
<rscale>  0 0.79359507E+02</rscale>
<asrwt>0</asrwt>
<pdfrwt beam="1">  1        1 0.63800068E-01 0.79359507E+02</pdfrwt>
<pdfrwt beam="2">  1       -2 0.58410385E-03 0.79359507E+02</pdfrwt>
<totfact> 0.19511225E+05</totfact>
</mgrwt>
</event>
<event>
 8    1  0.1372337E-024  0.8264814E+02  0.7818608E-02  0.1321700E+00
         -2   -1    0    0    0  501 -0.00000000000E+00  0.00000000000E+00  0.12558007819E+02  0.12558008078E+02  0.25500000000E-02 0.  1.
          1   -1    0    0  501    0  0.00000000000E+00 -0.00000000000E+00 -0.13598326264E+03  0.13598326274E+03  0.50400000000E-02 0. -1.
        -24    2    1    2    0    0  0.00000000000E+00 -0.88817841970E-15 -0.12342525482E+03  0.14854127081E+03  0.82648143396E+02 0.  0.
         66    2    3    3    0    0  0.40993775529E+02  0.47818626847E+01 -0.59012286107E+02  0.72040306469E+02  0.20000004262E+01 0.  0.
         13    1    3    3    0    0 -0.40993775529E+02 -0.47818626847E+01 -0.64412968716E+02  0.76500964345E+02  0.10566000000E+00 0. -1.
         13    1    4    4    0    0  0.76024603884E+01  0.12540375055E+01 -0.11074690589E+02  0.13491847527E+02  0.10566000000E+00 0. -1.
        -13    1    4    4    0    0  0.96052180031E+01  0.14898217945E+01 -0.12962223052E+02  0.16202165668E+02  0.10566000000E+00 0.  1.
         14    1    4    4    0    0  0.23786097137E+02  0.20380033848E+01 -0.34975372467E+02  0.42346293273E+02  0.00000000000E+00 0. -1.
<mgrwt>
<rscale>  0 0.82648143E+02</rscale>
<asrwt>0</asrwt>
<pdfrwt beam="1">  1        1 0.20920501E-01 0.82648143E+02</pdfrwt>
<pdfrwt beam="2">  1       -2 0.19320013E-02 0.82648143E+02</pdfrwt>
<totfact> 0.14210160E+05</totfact>
</mgrwt>
</event>
<event>
 8    1  0.1372337E-024  0.8121768E+02  0.7818608E-02  0.1325631E+00
          1   -1    0    0  501    0  0.00000000000E+00  0.00000000000E+00  0.69506658685E+02  0.69506658867E+02  0.50400000000E-02 0. -1.
         -2   -1    0    0    0  501 -0.00000000000E+00 -0.00000000000E+00 -0.23725464918E+02  0.23725465055E+02  0.25500000000E-02 0.  1.
        -24    2    1    2    0    0  0.00000000000E+00  0.00000000000E+00  0.45781193767E+02  0.93232123922E+02  0.81217678053E+02 0.  0.
         66    2    3    3    0    0  0.11273448563E+02 -0.38977512735E+02  0.21919835541E+02  0.46160766155E+02  0.20000000915E+01 0.  0.
         13    1    3    3    0    0 -0.11273448563E+02  0.38977512735E+02  0.23861358226E+02  0.47071357767E+02  0.10566000000E+00 0. -1.
         13    1    4    4    0    0  0.12070413902E+01 -0.49250263976E+01  0.26181113109E+01  0.57077582996E+01  0.10566000000E+00 0.  1.
        -13    1    4    4    0    0  0.32441229133E+01 -0.97869627252E+01  0.48114612003E+01  0.11378501473E+02  0.10566000000E+00 0. -1.
        -14    1    4    4    0    0  0.68222842598E+01 -0.24265523613E+02  0.14490263029E+02  0.29074506382E+02  0.00000000000E+00 0.  1.
<mgrwt>
<rscale>  0 0.81217678E+02</rscale>
<asrwt>0</asrwt>
<pdfrwt beam="1">  1        1 0.10693332E-01 0.81217678E+02</pdfrwt>
<pdfrwt beam="2">  1       -2 0.36500715E-02 0.81217678E+02</pdfrwt>
<totfact> 0.13292949E+05</totfact>
</mgrwt>
</event>
<event>
 8    1  0.1372337E-024  0.7957922E+02  0.7818608E-02  0.1330250E+00
          1   -1    0    0  501    0  0.00000000000E+00  0.00000000000E+00  0.64817577849E+02  0.64817578045E+02  0.50400000000E-02 0. -1.
         -2   -1    0    0    0  501 -0.00000000000E+00 -0.00000000000E+00 -0.24425675293E+02  0.24425675426E+02  0.25500000000E-02 0.  1.
        -24    2    1    2    0    0  0.00000000000E+00  0.00000000000E+00  0.40391902556E+02  0.89243253470E+02  0.79579221521E+02 0.  0.
         66    2    3    3    0    0  0.23139241826E+02 -0.31729965478E+02  0.13205918816E+02  0.41480254220E+02  0.19999942130E+01 0.  0.
         13    1    3    3    0    0 -0.23139241826E+02  0.31729965478E+02  0.27185983740E+02  0.47762999251E+02  0.10566000000E+00 0. -1.
         13    1    4    4    0    0  0.92299788975E+00 -0.13658254735E+01  0.80682433441E+00  0.18383508563E+01  0.10566000000E+00 0. -1.
        -13    1    4    4    0    0  0.18864279205E+02 -0.26453573278E+02  0.10364520053E+02  0.34104061474E+02  0.10566000000E+00 0.  1.
         14    1    4    4    0    0  0.33519647313E+01 -0.39105667268E+01  0.20345744289E+01  0.55378418893E+01  0.00000000000E+00 0. -1.
<mgrwt>
<rscale>  0 0.79579222E+02</rscale>
<asrwt>0</asrwt>
<pdfrwt beam="1">  1        1 0.99719349E-02 0.79579222E+02</pdfrwt>
<pdfrwt beam="2">  1       -2 0.37577963E-02 0.79579222E+02</pdfrwt>
<totfact> 0.13903297E+05</totfact>
</mgrwt>
</event>
<event>
 8    1  0.1372337E-024  0.7951055E+02  0.7818608E-02  0.1330446E+00
         -2   -1    0    0    0  501 -0.00000000000E+00  0.00000000000E+00  0.93044915222E+02  0.93044915257E+02  0.25500000000E-02 0.  1.
          1   -1    0    0  501    0  0.00000000000E+00 -0.00000000000E+00 -0.16986222894E+02  0.16986223642E+02  0.50400000000E-02 0. -1.
        -24    2    1    2    0    0  0.00000000000E+00  0.00000000000E+00  0.76058692328E+02  0.11003113890E+03  0.79510545519E+02 0.  0.
         66    2    3    3    0    0  0.24984963024E+02  0.15950519045E+02  0.74661739989E+02  0.80355726939E+02  0.19999996286E+01 0.  0.
         13    1    3    3    0    0 -0.24984963024E+02 -0.15950519045E+02  0.13969523389E+01  0.29675411960E+02  0.10566000000E+00 0. -1.
         13    1    4    4    0    0  0.12732771780E+02  0.86182119495E+01  0.38485802123E+02  0.41443517992E+02  0.10566000000E+00 0. -1.
        -13    1    4    4    0    0  0.88553293373E+01  0.57196570891E+01  0.27759603282E+02  0.29694074717E+02  0.10566000000E+00 0.  1.
        -14    1    4    4    0    0  0.33968619065E+01  0.16126500060E+01  0.84163345836E+01  0.92181342297E+01  0.00000000000E+00 0.  1.
<mgrwt>
<rscale>  0 0.79510546E+02</rscale>
<asrwt>0</asrwt>
<pdfrwt beam="1">  1        1 0.26132651E-02 0.79510546E+02</pdfrwt>
<pdfrwt beam="2">  1       -2 0.14314602E-01 0.79510546E+02</pdfrwt>
<totfact> 0.10970852E+05</totfact>
</mgrwt>
</event>
<event>
 8    1  0.1372337E-024  0.7986452E+02  0.7818608E-02  0.1329436E+00
          1   -1    0    0  501    0  0.00000000000E+00  0.00000000000E+00  0.30877506127E+02  0.30877506538E+02  0.50400000000E-02 0. -1.
         -2   -1    0    0    0  501 -0.00000000000E+00 -0.00000000000E+00 -0.51642301360E+02  0.51642301423E+02  0.25500000000E-02 0.  1.
        -24    2    1    2    0    0  0.00000000000E+00  0.71054273576E-14 -0.20764795233E+02  0.82519807961E+02  0.79864522693E+02 0.  0.
         66    2    3    3    0    0 -0.95568013852E+01 -0.36254856827E+02 -0.24512042004E+02  0.44839572842E+02  0.19999983135E+01 0.  0.
         13    1    3    3    0    0  0.95568013852E+01  0.36254856827E+02  0.37472467704E+01  0.37680235119E+02  0.10566000000E+00 0. -1.
         13    1    4    4    0    0 -0.28496625121E+01 -0.12401211968E+02 -0.76390698518E+01  0.14841738003E+02  0.10566000000E+00 0. -1.
        -13    1    4    4    0    0 -0.66281063375E+00 -0.36870948885E+01 -0.24103750709E+01  0.44559015553E+01  0.10566000000E+00 0.  1.
        -14    1    4    4    0    0 -0.60443282393E+01 -0.20166549970E+02 -0.14462597081E+02  0.25541933284E+02  0.00000000000E+00 0.  1.
<mgrwt>
<rscale>  0 0.79864523E+02</rscale>
<asrwt>0</asrwt>
<pdfrwt beam="1">  1        1 0.47503856E-02 0.79864523E+02</pdfrwt>
<pdfrwt beam="2">  1       -2 0.79449695E-02 0.79864523E+02</pdfrwt>
<totfact> 0.12215605E+05</totfact>
</mgrwt>
</event>
<event>
 8    1  0.1372337E-024  0.7968236E+02  0.7818608E-02  0.1329955E+00
         -2   -1    0    0    0  501 -0.00000000000E+00  0.00000000000E+00  0.36877742837E+02  0.36877742925E+02  0.25500000000E-02 0.  1.
          1   -1    0    0  501    0  0.00000000000E+00 -0.00000000000E+00 -0.43042758884E+02  0.43042759180E+02  0.50400000000E-02 0. -1.
        -24    2    1    2    0    0  0.35527136788E-14  0.35527136788E-14 -0.61650160477E+01  0.79920502104E+02  0.79682364635E+02 0.  0.
         66    2    3    3    0    0 -0.26923547264E+02 -0.17314731811E+02  0.20664103748E+02  0.38153407784E+02  0.20000017167E+01 0.  0.
         13    1    3    3    0    0  0.26923547264E+02  0.17314731811E+02 -0.26829119796E+02  0.41767094321E+02  0.10566000000E+00 0. -1.
         13    1    4    4    0    0 -0.10765800913E+02 -0.75521766971E+01  0.79686021390E+01  0.15376853588E+02  0.10566000000E+00 0. -1.
        -13    1    4    4    0    0 -0.28042488438E+01 -0.15650652539E+01  0.17056417472E+01  0.36378040948E+01  0.10566000000E+00 0.  1.
        -14    1    4    4    0    0 -0.13353497507E+02 -0.81974898596E+01  0.10989859862E+02  0.19138750101E+02  0.00000000000E+00 0.  1.
<mgrwt>
<rscale>  0 0.79682365E+02</rscale>
<asrwt>0</asrwt>
<pdfrwt beam="1">  1        1 0.66219630E-02 0.79682365E+02</pdfrwt>
<pdfrwt beam="2">  1       -2 0.56734989E-02 0.79682365E+02</pdfrwt>
<totfact> 0.12992547E+05</totfact>
</mgrwt>
</event>
<event>
 8    1  0.1372337E-024  0.7968938E+02  0.7818608E-02  0.1329935E+00
         -2   -1    0    0    0  501 -0.00000000000E+00  0.00000000000E+00  0.26798042821E+03  0.26798042822E+03  0.25500000000E-02 0.  1.
          1   -1    0    0  501    0  0.00000000000E+00 -0.00000000000E+00 -0.59243092517E+01  0.59243113956E+01  0.50400000000E-02 0. -1.
        -24    2    1    2    0    0  0.00000000000E+00  0.00000000000E+00  0.26205611896E+03  0.27390473961E+03  0.79689377595E+02 0.  0.
         66    2    3    3    0    0  0.32338311550E+02  0.21033523222E+02  0.16503540777E+03  0.16949590352E+03  0.19999992782E+01 0.  0.
         13    1    3    3    0    0 -0.32338311550E+02 -0.21033523222E+02  0.97020711182E+02  0.10440883610E+03  0.10566000000E+00 0. -1.
         13    1    4    4    0    0  0.11280489503E+02  0.76804500705E+01  0.60102033131E+02  0.61632007165E+02  0.10566000000E+00 0.  1.
        -13    1    4    4    0    0  0.24204968291E+01  0.12025181499E+01  0.12747502246E+02  0.13031302021E+02  0.10566000000E+00 0. -1.
         14    1    4    4    0    0  0.18637325218E+02  0.12150555001E+02  0.92185872396E+02  0.94832594331E+02  0.00000000000E+00 0. -1.
<mgrwt>
<rscale>  0 0.79689378E+02</rscale>
<asrwt>0</asrwt>
<pdfrwt beam="1">  1        1 0.91143228E-03 0.79689378E+02</pdfrwt>
<pdfrwt beam="2">  1       -2 0.41227762E-01 0.79689378E+02</pdfrwt>
<totfact> 0.75291638E+04</totfact>
</mgrwt>
</event>
<event>
 8    1  0.1372337E-024  0.7342839E+02  0.7818608E-02  0.1348808E+00
         -2   -1    0    0    0  501 -0.00000000000E+00  0.00000000000E+00  0.89377715063E+01  0.89377718701E+01  0.25500000000E-02 0.  1.
          1   -1    0    0  501    0  0.00000000000E+00 -0.00000000000E+00 -0.15081299877E+03  0.15081299885E+03  0.50400000000E-02 0. -1.
        -24    2    1    2    0    0  0.35527136788E-14 -0.35527136788E-14 -0.14187522726E+03  0.15975077072E+03  0.73428391211E+02 0.  0.
         66    2    3    3    0    0  0.20780151063E+02 -0.24673490389E+02 -0.32974239141E+02  0.46172462125E+02  0.20000013933E+01 0.  0.
         13    1    3    3    0    0 -0.20780151063E+02  0.24673490389E+02 -0.10890098812E+03  0.11357830860E+03  0.10566000000E+00 0. -1.
         13    1    4    4    0    0  0.62451084969E+01 -0.71622752651E+01 -0.10878126224E+02  0.14444527036E+02  0.10566000000E+00 0.  1.
        -13    1    4    4    0    0  0.11636367228E+02 -0.13959772617E+02 -0.18030587711E+02  0.25600655285E+02  0.10566000000E+00 0. -1.
         14    1    4    4    0    0  0.28986753377E+01 -0.35514425068E+01 -0.40655252060E+01  0.61272798037E+01  0.00000000000E+00 0. -1.
<mgrwt>
<rscale>  0 0.73428391E+02</rscale>
<asrwt>0</asrwt>
<pdfrwt beam="1">  1        1 0.23201998E-01 0.73428391E+02</pdfrwt>
<pdfrwt beam="2">  1       -2 0.13750419E-02 0.73428391E+02</pdfrwt>
<totfact> 0.19846066E+05</totfact>
</mgrwt>
</event>
<event>
 8    1  0.1372337E-024  0.8214740E+02  0.7818608E-02  0.1323066E+00
          1   -1    0    0  501    0  0.00000000000E+00  0.00000000000E+00  0.54389228070E+02  0.54389228304E+02  0.50400000000E-02 0. -1.
         -2   -1    0    0    0  501 -0.00000000000E+00 -0.00000000000E+00 -0.31018068567E+02  0.31018068672E+02  0.25500000000E-02 0.  1.
        -24    2    1    2    0    0 -0.35527136788E-14  0.35527136788E-14  0.23371159503E+02  0.85407296976E+02  0.82147399717E+02 0.  0.
         66    2    3    3    0    0 -0.23552133302E+02 -0.28457696099E+02 -0.69204724008E+01  0.37635573355E+02  0.19999982909E+01 0.  0.
         13    1    3    3    0    0  0.23552133302E+02  0.28457696099E+02  0.30291631904E+02  0.47771723621E+02  0.10566000000E+00 0. -1.
         13    1    4    4    0    0 -0.83070500650E+01 -0.93305847619E+01 -0.25109875101E+01  0.12742963356E+02  0.10566000000E+00 0.  1.
        -13    1    4    4    0    0 -0.22675889651E+01 -0.21222869600E+01 -0.52308755425E+00  0.31513245279E+01  0.10566000000E+00 0.  1.
        -14    1    4    4    0    0 -0.12977494272E+02 -0.17004824377E+02 -0.38863973365E+01  0.21741285471E+02  0.00000000000E+00 0.  1.
<mgrwt>
<rscale>  0 0.82147400E+02</rscale>
<asrwt>0</asrwt>
<pdfrwt beam="1">  1        1 0.83675735E-02 0.82147400E+02</pdfrwt>
<pdfrwt beam="2">  1       -2 0.47720106E-02 0.82147400E+02</pdfrwt>
<totfact> 0.12386847E+05</totfact>
</mgrwt>
</event>
<event>
 8    1  0.1372337E-024  0.8081456E+02  0.7818608E-02  0.1326756E+00
          1   -1    0    0  501    0  0.00000000000E+00  0.00000000000E+00  0.12863227620E+03  0.12863227630E+03  0.50400000000E-02 0. -1.
         -2   -1    0    0    0  501 -0.00000000000E+00 -0.00000000000E+00 -0.12693144609E+02  0.12693144865E+02  0.25500000000E-02 0.  1.
        -24    2    1    2    0    0  0.00000000000E+00  0.00000000000E+00  0.11593913159E+03  0.14132542116E+03  0.80814555822E+02 0.  0.
         66    2    3    3    0    0  0.12453392889E+02 -0.27457156389E+02  0.11023423616E+02  0.32163617516E+02  0.19999980125E+01 0.  0.
         13    1    3    3    0    0 -0.12453392889E+02  0.27457156389E+02  0.10491570797E+03  0.10916180364E+03  0.10566000000E+00 0. -1.
         13    1    4    4    0    0  0.16938556392E+01 -0.39444915770E+01  0.94158919007E+00  0.43961249944E+01  0.10566000000E+00 0. -1.
        -13    1    4    4    0    0  0.58398930201E+01 -0.11986416981E+02  0.55092048032E+01  0.14427094099E+02  0.10566000000E+00 0.  1.
         14    1    4    4    0    0  0.49196442299E+01 -0.11526247831E+02  0.45726296224E+01  0.13340398423E+02  0.00000000000E+00 0. -1.
<mgrwt>
<rscale>  0 0.80814556E+02</rscale>
<asrwt>0</asrwt>
<pdfrwt beam="1">  1        1 0.19789581E-01 0.80814556E+02</pdfrwt>
<pdfrwt beam="2">  1       -2 0.19527915E-02 0.80814556E+02</pdfrwt>
<totfact> 0.14942152E+05</totfact>
</mgrwt>
</event>
<event>
 8    1  0.1372337E-024  0.8037602E+02  0.7818608E-02  0.1327988E+00
          1   -1    0    0  501    0  0.00000000000E+00  0.00000000000E+00  0.91167178201E+02  0.91167178340E+02  0.50400000000E-02 0. -1.
         -2   -1    0    0    0  501 -0.00000000000E+00 -0.00000000000E+00 -0.17715541904E+02  0.17715542088E+02  0.25500000000E-02 0.  1.
        -24    2    1    2    0    0  0.00000000000E+00 -0.44408920985E-15  0.73451636296E+02  0.10888272043E+03  0.80376015907E+02 0.  0.
         66    2    3    3    0    0 -0.37582938998E+02  0.28718915267E+01  0.17960776895E+02  0.41800891996E+02  0.20000000730E+01 0.  0.
         13    1    3    3    0    0  0.37582938998E+02 -0.28718915267E+01  0.55490859401E+02  0.67081828432E+02  0.10566000000E+00 0. -1.
         13    1    4    4    0    0 -0.81746863702E+00  0.18471479413E+00  0.30262653543E+00  0.89728556393E+00  0.10566000000E+00 0.  1.
        -13    1    4    4    0    0 -0.23395268697E+02  0.11520747832E+01  0.11752136090E+02  0.26206673585E+02  0.10566000000E+00 0.  1.
        -14    1    4    4    0    0 -0.13370201664E+02  0.15351019493E+01  0.59060142701E+01  0.14696932847E+02  0.00000000000E+00 0.  1.
<mgrwt>
<rscale>  0 0.80376016E+02</rscale>
<asrwt>0</asrwt>
<pdfrwt beam="1">  1        1 0.14025720E-01 0.80376016E+02</pdfrwt>
<pdfrwt beam="2">  1       -2 0.27254680E-02 0.80376016E+02</pdfrwt>
<totfact> 0.14291547E+05</totfact>
</mgrwt>
</event>
<event>
 8    1  0.1372337E-024  0.7741728E+02  0.7818608E-02  0.1336545E+00
         -2   -1    0    0    0  501 -0.00000000000E+00  0.00000000000E+00  0.46207315407E+02  0.46207315477E+02  0.25500000000E-02 0.  1.
          1   -1    0    0  501    0  0.00000000000E+00 -0.00000000000E+00 -0.32426871137E+02  0.32426871528E+02  0.50400000000E-02 0. -1.
        -24    2    1    2    0    0  0.00000000000E+00  0.00000000000E+00  0.13780444270E+02  0.78634187006E+02  0.77417276636E+02 0.  0.
         66    2    3    3    0    0 -0.73192138198E+01 -0.37924016078E+02  0.90618550600E+01  0.39723030063E+02  0.20000034631E+01 0.  0.
         13    1    3    3    0    0  0.73192138198E+01  0.37924016078E+02  0.47185892104E+01  0.38911156943E+02  0.10566000000E+00 0. -1.
         13    1    4    4    0    0 -0.47163725036E+00 -0.21139656091E+01  0.85332039544E+00  0.23303673585E+01  0.10566000000E+00 0. -1.
        -13    1    4    4    0    0 -0.48204606663E+01 -0.23681103279E+02  0.49089156325E+01  0.24660496959E+02  0.10566000000E+00 0.  1.
        -14    1    4    4    0    0 -0.20271159031E+01 -0.12128947190E+02  0.32996190320E+01  0.12732165746E+02  0.00000000000E+00 0.  1.
<mgrwt>
<rscale>  0 0.77417277E+02</rscale>
<asrwt>0</asrwt>
<pdfrwt beam="1">  1        1 0.49887494E-02 0.77417277E+02</pdfrwt>
<pdfrwt beam="2">  1       -2 0.71088178E-02 0.77417277E+02</pdfrwt>
<totfact> 0.13461259E+05</totfact>
</mgrwt>
</event>
<event>
 8    1  0.1372337E-024  0.8065563E+02  0.7818608E-02  0.1327201E+00
         -2   -1    0    0    0  501 -0.00000000000E+00  0.00000000000E+00  0.22162711425E+02  0.22162711571E+02  0.25500000000E-02 0.  1.
          1   -1    0    0  501    0  0.00000000000E+00 -0.00000000000E+00 -0.73381478402E+02  0.73381478575E+02  0.50400000000E-02 0. -1.
        -24    2    1    2    0    0  0.22204460493E-15  0.35527136788E-14 -0.51218766977E+02  0.95544190146E+02  0.80655627082E+02 0.  0.
         66    2    3    3    0    0  0.15711591061E+01  0.29353014241E+02  0.70374996384E+01  0.30291820458E+02  0.19999998788E+01 0.  0.
         13    1    3    3    0    0 -0.15711591061E+01 -0.29353014241E+02 -0.58256266615E+02  0.65252369688E+02  0.10566000000E+00 0. -1.
         13    1    4    4    0    0 -0.18799377033E-01  0.97087756392E+00 -0.22834513211E-01  0.97705788533E+00  0.10566000000E+00 0. -1.
        -13    1    4    4    0    0  0.35881994387E+00  0.30080157138E+01  0.10659303874E+01  0.32131420624E+01  0.10566000000E+00 0.  1.
        -14    1    4    4    0    0  0.12311385393E+01  0.25374120963E+02  0.59944037642E+01  0.26101620510E+02  0.00000000000E+00 0.  1.
<mgrwt>
<rscale>  0 0.80655627E+02</rscale>
<asrwt>0</asrwt>
<pdfrwt beam="1">  1        1 0.11289458E-01 0.80655627E+02</pdfrwt>
<pdfrwt beam="2">  1       -2 0.34096479E-02 0.80655627E+02</pdfrwt>
<totfact> 0.13666408E+05</totfact>
</mgrwt>
</event>
<event>
 8    1  0.1372337E-024  0.8163251E+02  0.7818608E-02  0.1324481E+00
         -2   -1    0    0    0  501 -0.00000000000E+00  0.00000000000E+00  0.17076683124E+02  0.17076683315E+02  0.25500000000E-02 0.  1.
          1   -1    0    0  501    0  0.00000000000E+00 -0.00000000000E+00 -0.97557966523E+02  0.97557966653E+02  0.50400000000E-02 0. -1.
        -24    2    1    2    0    0  0.00000000000E+00  0.00000000000E+00 -0.80481283398E+02  0.11463464997E+03  0.81632505755E+02 0.  0.
         66    2    3    3    0    0  0.20479842214E+02  0.69641222686E+00  0.92657071929E+01  0.22577915226E+02  0.19999997659E+01 0.  0.
         13    1    3    3    0    0 -0.20479842214E+02 -0.69641222686E+00 -0.89746990591E+02  0.92056734742E+02  0.10566000000E+00 0. -1.
         13    1    4    4    0    0  0.45126971893E+01 -0.27678868331E+00  0.22286424703E+01  0.50417317653E+01  0.10566000000E+00 0. -1.
        -13    1    4    4    0    0  0.99682801338E+01  0.10033239182E+01  0.37677562248E+01  0.10704224340E+02  0.10566000000E+00 0.  1.
        -14    1    4    4    0    0  0.59988648911E+01 -0.30123008023E-01  0.32693084977E+01  0.68319591209E+01  0.00000000000E+00 0.  1.
<mgrwt>
<rscale>  0 0.81632506E+02</rscale>
<asrwt>0</asrwt>
<pdfrwt beam="1">  1        1 0.15008918E-01 0.81632506E+02</pdfrwt>
<pdfrwt beam="2">  1       -2 0.26271821E-02 0.81632506E+02</pdfrwt>
<totfact> 0.13858906E+05</totfact>
</mgrwt>
</event>
<event>
 8    1  0.1372337E-024  0.7864836E+02  0.7818608E-02  0.1332932E+00
         -2   -1    0    0    0  501 -0.00000000000E+00  0.00000000000E+00  0.79953173508E+02  0.79953173548E+02  0.25500000000E-02 0.  1.
          1   -1    0    0  501    0  0.00000000000E+00 -0.00000000000E+00 -0.19341209693E+02  0.19341210350E+02  0.50400000000E-02 0. -1.
        -24    2    1    2    0    0  0.35527136788E-14  0.71054273576E-14  0.60611963814E+02  0.99294383899E+02  0.78648359909E+02 0.  0.
         66    2    3    3    0    0  0.20994892093E+02  0.29154820258E+02  0.10220380186E+02  0.37406486028E+02  0.19999968855E+01 0.  0.
         13    1    3    3    0    0 -0.20994892093E+02 -0.29154820258E+02  0.50391583628E+02  0.61887897871E+02  0.10566000000E+00 0. -1.
         13    1    4    4    0    0  0.15616016914E+01  0.21459104763E+01  0.71852697098E+00  0.27515407790E+01  0.10566000000E+00 0. -1.
        -13    1    4    4    0    0  0.31328679555E+01  0.32692184351E+01  0.12274917819E+01  0.46926059832E+01  0.10566000000E+00 0.  1.
         14    1    4    4    0    0  0.16300422446E+02  0.23739691347E+02  0.82743614333E+01  0.29962339266E+02  0.00000000000E+00 0. -1.
<mgrwt>
<rscale>  0 0.78648360E+02</rscale>
<asrwt>0</asrwt>
<pdfrwt beam="1">  1        1 0.29755708E-02 0.78648360E+02</pdfrwt>
<pdfrwt beam="2">  1       -2 0.12300488E-01 0.78648360E+02</pdfrwt>
<totfact> 0.11673349E+05</totfact>
</mgrwt>
</event>
<event>
 8    1  0.1372337E-024  0.7238428E+02  0.7818608E-02  0.1352168E+00
         -2   -1    0    0    0  501 -0.00000000000E+00  0.00000000000E+00  0.29264083235E+02  0.29264083346E+02  0.25500000000E-02 0.  1.
          1   -1    0    0  501    0  0.00000000000E+00 -0.00000000000E+00 -0.44760368939E+02  0.44760369223E+02  0.50400000000E-02 0. -1.
        -24    2    1    2    0    0  0.00000000000E+00  0.00000000000E+00 -0.15496285704E+02  0.74024452569E+02  0.72384284949E+02 0.  0.
         66    2    3    3    0    0 -0.13109944845E+02 -0.20058168012E+02  0.19945972750E+02  0.31241680263E+02  0.19999997127E+01 0.  0.
         13    1    3    3    0    0  0.13109944845E+02  0.20058168012E+02 -0.35442258455E+02  0.42782772306E+02  0.10566000000E+00 0. -1.
         13    1    4    4    0    0 -0.13553832089E+01 -0.16766329463E+01  0.13316864007E+01  0.25362796346E+01  0.10566000000E+00 0. -1.
        -13    1    4    4    0    0 -0.76345732106E+01 -0.11100214137E+02  0.10996102774E+02  0.17390425592E+02  0.10566000000E+00 0.  1.
         14    1    4    4    0    0 -0.41199884252E+01 -0.72813209285E+01  0.76181835753E+01  0.11314975036E+02  0.00000000000E+00 0. -1.
<mgrwt>
<rscale>  0 0.72384285E+02</rscale>
<asrwt>0</asrwt>
<pdfrwt beam="1">  1        1 0.68862107E-02 0.72384285E+02</pdfrwt>
<pdfrwt beam="2">  1       -2 0.45021667E-02 0.72384285E+02</pdfrwt>
<totfact> 0.17059476E+05</totfact>
</mgrwt>
</event>
<event>
 8    1  0.1372337E-024  0.8030038E+02  0.7818608E-02  0.1328201E+00
          1   -1    0    0  501    0  0.00000000000E+00  0.00000000000E+00  0.25630566999E+03  0.25630567004E+03  0.50400000000E-02 0. -1.
         -2   -1    0    0    0  501 -0.00000000000E+00 -0.00000000000E+00 -0.62895128122E+01  0.62895133291E+01  0.25500000000E-02 0.  1.
        -24    2    1    2    0    0  0.00000000000E+00  0.00000000000E+00  0.25001615718E+03  0.26259518337E+03  0.80300382804E+02 0.  0.
         66    2    3    3    0    0 -0.34385606429E+02 -0.20651139921E+02  0.12865782172E+03  0.13478009718E+03  0.19999988160E+01 0.  0.
         13    1    3    3    0    0  0.34385606429E+02  0.20651139921E+02  0.12135833545E+03  0.12781508619E+03  0.10566000000E+00 0. -1.
         13    1    4    4    0    0 -0.75912110211E+01 -0.39446570553E+01  0.28173128796E+02  0.29443558790E+02  0.10566000000E+00 0. -1.
        -13    1    4    4    0    0 -0.22747833543E+02 -0.13647958599E+02  0.84523888951E+02  0.88589105833E+02  0.10566000000E+00 0.  1.
         14    1    4    4    0    0 -0.40465618651E+01 -0.30585242665E+01  0.15960803976E+02  0.16747432555E+02  0.00000000000E+00 0. -1.
<mgrwt>
<rscale>  0 0.80300383E+02</rscale>
<asrwt>0</asrwt>
<pdfrwt beam="1">  1        1 0.39431650E-01 0.80300383E+02</pdfrwt>
<pdfrwt beam="2">  1       -2 0.96761720E-03 0.80300383E+02</pdfrwt>
<totfact> 0.17327341E+05</totfact>
</mgrwt>
</event>
<event>
 8    1  0.1372337E-024  0.7970767E+02  0.7818608E-02  0.1329883E+00
         -2   -1    0    0    0  501 -0.00000000000E+00  0.00000000000E+00  0.38683929534E+01  0.38683937939E+01  0.25500000000E-02 0.  1.
          1   -1    0    0  501    0  0.00000000000E+00 -0.00000000000E+00 -0.41059115946E+03  0.41059115949E+03  0.50400000000E-02 0. -1.
        -24    2    1    2    0    0  0.00000000000E+00  0.00000000000E+00 -0.40672276651E+03  0.41445955329E+03  0.79707669106E+02 0.  0.
         66    2    3    3    0    0 -0.25411316431E+02  0.30446834944E+02 -0.18432857981E+03  0.18855707388E+03  0.20000036289E+01 0.  0.
         13    1    3    3    0    0  0.25411316431E+02 -0.30446834944E+02 -0.22239418670E+03  0.22590247941E+03  0.10566000000E+00 0. -1.
         13    1    4    4    0    0 -0.14682951162E+01  0.17677818294E+01 -0.11517043080E+02  0.11744547181E+02  0.10566000000E+00 0. -1.
        -13    1    4    4    0    0 -0.18520127679E+02  0.23285728652E+02 -0.13741554667E+03  0.14059965831E+03  0.10566000000E+00 0.  1.
        -14    1    4    4    0    0 -0.54228936360E+01  0.53933244625E+01 -0.35395990065E+02  0.36212868387E+02  0.00000000000E+00 0.  1.
<mgrwt>
<rscale>  0 0.79707669E+02</rscale>
<asrwt>0</asrwt>
<pdfrwt beam="1">  1        1 0.63167837E-01 0.79707669E+02</pdfrwt>
<pdfrwt beam="2">  1       -2 0.59513777E-03 0.79707669E+02</pdfrwt>
<totfact> 0.19257996E+05</totfact>
</mgrwt>
</event>
<event>
 8    1  0.1372337E-024  0.7913531E+02  0.7818608E-02  0.1331523E+00
          1   -1    0    0  501    0  0.00000000000E+00  0.00000000000E+00  0.13031459729E+02  0.13031460703E+02  0.50400000000E-02 0. -1.
         -2   -1    0    0    0  501 -0.00000000000E+00 -0.00000000000E+00 -0.12013997895E+03  0.12013997897E+03  0.25500000000E-02 0.  1.
        -24    2    1    2    0    0  0.71054273576E-14  0.00000000000E+00 -0.10710851922E+03  0.13317143968E+03  0.79135311060E+02 0.  0.
         66    2    3    3    0    0  0.34858857342E+02 -0.18227385702E+02 -0.60365180984E+02  0.72078654849E+02  0.19999712068E+01 0.  0.
         13    1    3    3    0    0 -0.34858857342E+02  0.18227385702E+02 -0.46743338232E+02  0.61092784827E+02  0.10566000000E+00 0. -1.
         13    1    4    4    0    0  0.12796357310E+02 -0.65298734388E+01 -0.20666315166E+02  0.25169301820E+02  0.10566000000E+00 0. -1.
        -13    1    4    4    0    0  0.21596047080E+02 -0.11469261959E+02 -0.38593873407E+02  0.45688417000E+02  0.10566000000E+00 0.  1.
        -14    1    4    4    0    0  0.46645295269E+00 -0.22825030478E+00 -0.11049924116E+01  0.12209360296E+01  0.00000000000E+00 0.  1.
<mgrwt>
<rscale>  0 0.79135311E+02</rscale>
<asrwt>0</asrwt>
<pdfrwt beam="1">  1        1 0.20048401E-02 0.79135311E+02</pdfrwt>
<pdfrwt beam="2">  1       -2 0.18483073E-01 0.79135311E+02</pdfrwt>
<totfact> 0.10397188E+05</totfact>
</mgrwt>
</event>
<event>
 8    1  0.1372337E-024  0.7920028E+02  0.7818608E-02  0.1331336E+00
          1   -1    0    0  501    0  0.00000000000E+00  0.00000000000E+00  0.31349587097E+03  0.31349587101E+03  0.50400000000E-02 0. -1.
         -2   -1    0    0    0  501 -0.00000000000E+00 -0.00000000000E+00 -0.50022059249E+01  0.50022065748E+01  0.25500000000E-02 0.  1.
        -24    2    1    2    0    0  0.35527136788E-14  0.00000000000E+00  0.30849366504E+03  0.31849807758E+03  0.79200278109E+02 0.  0.
         66    2    3    3    0    0 -0.30330609650E+02 -0.24682101136E+02  0.12987888390E+03  0.13565277903E+03  0.19999939360E+01 0.  0.
         13    1    3    3    0    0  0.30330609650E+02  0.24682101136E+02  0.17861478114E+03  0.18284529856E+03  0.10566000000E+00 0. -1.
         13    1    4    4    0    0 -0.45140799135E+01 -0.33644620590E+01  0.17273650884E+02  0.18168288342E+02  0.10566000000E+00 0.  1.
        -13    1    4    4    0    0 -0.62074169756E+01 -0.50468257047E+01  0.28882232744E+02  0.29969935060E+02  0.10566000000E+00 0. -1.
         14    1    4    4    0    0 -0.19609112761E+02 -0.16270813372E+02  0.83723000274E+02  0.87514555624E+02  0.00000000000E+00 0. -1.
<mgrwt>
<rscale>  0 0.79200278E+02</rscale>
<asrwt>0</asrwt>
<pdfrwt beam="1">  1        1 0.48230120E-01 0.79200278E+02</pdfrwt>
<pdfrwt beam="2">  1       -2 0.76957041E-03 0.79200278E+02</pdfrwt>
<totfact> 0.18680040E+05</totfact>
</mgrwt>
</event>
<event>
 8    1  0.1372337E-024  0.8057460E+02  0.7818608E-02  0.1327429E+00
          1   -1    0    0  501    0  0.00000000000E+00  0.00000000000E+00  0.14942423192E+01  0.14942508190E+01  0.50400000000E-02 0. -1.
         -2   -1    0    0    0  501 -0.00000000000E+00 -0.00000000000E+00 -0.10862106514E+04  0.10862106514E+04  0.25500000000E-02 0.  1.
        -24    2    1    2    0    0  0.00000000000E+00  0.35527136788E-14 -0.10847164091E+04  0.10877049022E+04  0.80574600146E+02 0.  0.
         66    2    3    3    0    0 -0.13042726628E+02  0.20699715795E+02 -0.97434798992E+03  0.97465716866E+03  0.20000008192E+01 0.  0.
         13    1    3    3    0    0  0.13042726628E+02 -0.20699715795E+02 -0.11036841916E+03  0.11304773357E+03  0.10566000000E+00 0. -1.
         13    1    4    4    0    0 -0.19056802307E+01  0.28559750481E+01 -0.12105940657E+03  0.12110813059E+03  0.10566000000E+00 0. -1.
        -13    1    4    4    0    0 -0.68892208646E+01  0.11611406112E+02 -0.52166864686E+03  0.52184334277E+03  0.10566000000E+00 0.  1.
        -14    1    4    4    0    0 -0.42478255328E+01  0.62323346346E+01 -0.33161993649E+03  0.33170569530E+03  0.00000000000E+00 0.  1.
<mgrwt>
<rscale>  0 0.80574600E+02</rscale>
<asrwt>0</asrwt>
<pdfrwt beam="1">  1        1 0.22988496E-03 0.80574600E+02</pdfrwt>
<pdfrwt beam="2">  1       -2 0.16710870E+00 0.80574600E+02</pdfrwt>
<totfact> 0.23176674E+04</totfact>
</mgrwt>
</event>
<event>
 8    1  0.1372337E-024  0.7939797E+02  0.7818608E-02  0.1330769E+00
          1   -1    0    0  501    0  0.00000000000E+00  0.00000000000E+00  0.26476495545E+02  0.26476496025E+02  0.50400000000E-02 0. -1.
         -2   -1    0    0    0  501 -0.00000000000E+00 -0.00000000000E+00 -0.59524855744E+02  0.59524855799E+02  0.25500000000E-02 0.  1.
        -24    2    1    2    0    0  0.35527136788E-14  0.17763568394E-14 -0.33048360200E+02  0.86001351824E+02  0.79397974808E+02 0.  0.
         66    2    3    3    0    0 -0.26200779940E+02 -0.15655848614E+02 -0.43988581130E+02  0.53577810016E+02  0.19999977485E+01 0.  0.
         13    1    3    3    0    0  0.26200779940E+02  0.15655848614E+02  0.10940220930E+02  0.32423541808E+02  0.10566000000E+00 0. -1.
         13    1    4    4    0    0 -0.65554306652E+01 -0.31070469922E+01 -0.10331963940E+02  0.12624898222E+02  0.10566000000E+00 0. -1.
        -13    1    4    4    0    0 -0.13200540418E+02 -0.89641492114E+01 -0.22920836783E+02  0.27928232334E+02  0.10566000000E+00 0.  1.
        -14    1    4    4    0    0 -0.64448088576E+01 -0.35846524104E+01 -0.10735780406E+02  0.13024679460E+02  0.00000000000E+00 0.  1.
<mgrwt>
<rscale>  0 0.79397975E+02</rscale>
<asrwt>0</asrwt>
<pdfrwt beam="1">  1        1 0.40733071E-02 0.79397975E+02</pdfrwt>
<pdfrwt beam="2">  1       -2 0.91576701E-02 0.79397975E+02</pdfrwt>
<totfact> 0.12085108E+05</totfact>
</mgrwt>
</event>
<event>
 8    1  0.1372337E-024  0.7899798E+02  0.7818608E-02  0.1331919E+00
         -2   -1    0    0    0  501 -0.00000000000E+00  0.00000000000E+00  0.92913765358E+02  0.92913765393E+02  0.25500000000E-02 0.  1.
          1   -1    0    0  501    0  0.00000000000E+00 -0.00000000000E+00 -0.16791593048E+02  0.16791593804E+02  0.50400000000E-02 0. -1.
        -24    2    1    2    0    0 -0.35527136788E-14  0.00000000000E+00  0.76122172310E+02  0.10970535920E+03  0.78997979210E+02 0.  0.
         66    2    3    3    0    0  0.26272852114E+02  0.28500887696E+02  0.27730258941E+02  0.47702522155E+02  0.20000003343E+01 0.  0.
         13    1    3    3    0    0 -0.26272852114E+02 -0.28500887696E+02  0.48391913369E+02  0.62002837042E+02  0.10566000000E+00 0. -1.
         13    1    4    4    0    0  0.74489953230E+01  0.86470820745E+01  0.80127385144E+01  0.13945418684E+02  0.10566000000E+00 0. -1.
        -13    1    4    4    0    0  0.12068224563E+02  0.13722867653E+02  0.12945759500E+02  0.22395602108E+02  0.10566000000E+00 0.  1.
        -14    1    4    4    0    0  0.67556322281E+01  0.61309379680E+01  0.67717609268E+01  0.11361501363E+02  0.00000000000E+00 0.  1.
<mgrwt>
<rscale>  0 0.78997979E+02</rscale>
<asrwt>0</asrwt>
<pdfrwt beam="1">  1        1 0.25833221E-02 0.78997979E+02</pdfrwt>
<pdfrwt beam="2">  1       -2 0.14294425E-01 0.78997979E+02</pdfrwt>
<totfact> 0.11157380E+05</totfact>
</mgrwt>
</event>
<event>
 8    1  0.1372337E-024  0.7887452E+02  0.7818608E-02  0.1332276E+00
          1   -1    0    0  501    0  0.00000000000E+00  0.00000000000E+00  0.30379712000E+02  0.30379712419E+02  0.50400000000E-02 0. -1.
         -2   -1    0    0    0  501 -0.00000000000E+00 -0.00000000000E+00 -0.51195263136E+02  0.51195263200E+02  0.25500000000E-02 0.  1.
        -24    2    1    2    0    0 -0.35527136788E-14  0.00000000000E+00 -0.20815551136E+02  0.81574975618E+02  0.78874517292E+02 0.  0.
         66    2    3    3    0    0 -0.24326685582E+02 -0.73104802081E+01 -0.41580222274E+02  0.48766234652E+02  0.20000013714E+01 0.  0.
         13    1    3    3    0    0  0.24326685582E+02  0.73104802081E+01  0.20764671138E+02  0.32808740966E+02  0.10566000000E+00 0. -1.
         13    1    4    4    0    0 -0.10968478631E+01 -0.49648106331E-01 -0.17408582669E+01  0.20608958514E+01  0.10566000000E+00 0. -1.
        -13    1    4    4    0    0 -0.12180216978E+02 -0.36490538720E+01 -0.22077813020E+02  0.25477721083E+02  0.10566000000E+00 0.  1.
        -14    1    4    4    0    0 -0.11049620741E+02 -0.36117782298E+01 -0.17761550987E+02  0.21227617717E+02  0.00000000000E+00 0.  1.
<mgrwt>
<rscale>  0 0.78874517E+02</rscale>
<asrwt>0</asrwt>
<pdfrwt beam="1">  1        1 0.46738019E-02 0.78874517E+02</pdfrwt>
<pdfrwt beam="2">  1       -2 0.78761944E-02 0.78874517E+02</pdfrwt>
<totfact> 0.12624247E+05</totfact>
</mgrwt>
</event>
<event>
 8    1  0.1372337E-024  0.7803454E+02  0.7818608E-02  0.1334723E+00
         -2   -1    0    0    0  501 -0.00000000000E+00  0.00000000000E+00  0.32158456872E+03  0.32158456873E+03  0.25500000000E-02 0.  1.
          1   -1    0    0  501    0  0.00000000000E+00 -0.00000000000E+00 -0.47338932366E+01  0.47338959195E+01  0.50400000000E-02 0. -1.
        -24    2    1    2    0    0  0.22204460493E-15  0.00000000000E+00  0.31685067549E+03  0.32631846465E+03  0.78034542460E+02 0.  0.
         66    2    3    3    0    0  0.13948917353E+01 -0.25353721377E+02  0.28226739225E+03  0.28341425095E+03  0.19999996909E+01 0.  0.
         13    1    3    3    0    0 -0.13948917353E+01  0.25353721377E+02  0.34583283232E+02  0.42904213706E+02  0.10566000000E+00 0. -1.
         13    1    4    4    0    0  0.21035406662E+00 -0.18242134541E+01  0.19282548102E+02  0.19370075603E+02  0.10566000000E+00 0.  1.
        -13    1    4    4    0    0  0.15277302417E+01 -0.21056911363E+02  0.23170319619E+03  0.23266308208E+03  0.10566000000E+00 0.  1.
        -14    1    4    4    0    0 -0.34319257309E+00 -0.24725965598E+01  0.31281647962E+02  0.31381093258E+02  0.00000000000E+00 0.  1.
<mgrwt>
<rscale>  0 0.78034542E+02</rscale>
<asrwt>0</asrwt>
<pdfrwt beam="1">  1        1 0.72829136E-03 0.78034542E+02</pdfrwt>
<pdfrwt beam="2">  1       -2 0.49474557E-01 0.78034542E+02</pdfrwt>
<totfact> 0.72083755E+04</totfact>
</mgrwt>
</event>
<event>
 8    1  0.1693956E-024  0.7970766E+02  0.7818608E-02  0.1329883E+00
          1   -1    0    0  501    0  0.00000000000E+00  0.00000000000E+00  0.15491422490E+03  0.15491422498E+03  0.50400000000E-02 0. -1.
         -2   -1    0    0    0  501 -0.00000000000E+00 -0.00000000000E+00 -0.10252949802E+02  0.10252950119E+02  0.25500000000E-02 0.  1.
        -24    2    1    2    0    0  0.00000000000E+00  0.35527136788E-14  0.14466127510E+03  0.16516717510E+03  0.79707660974E+02 0.  0.
         66    2    3    3    0    0  0.95538902729E-01 -0.25124492146E+02  0.83374093406E+01  0.26547346894E+02  0.19999998268E+01 0.  0.
         13    1    3    3    0    0 -0.95538902729E-01  0.25124492146E+02  0.13632386576E+03  0.13861982821E+03  0.10566000000E+00 0. -1.
         13    1    4    4    0    0 -0.13358014304E+00 -0.44326589059E+01  0.20052216068E+01  0.48680988444E+01  0.10566000000E+00 0. -1.
        -13    1    4    4    0    0  0.11358564324E+00 -0.12765559518E+02  0.45600688480E+01  0.13556467219E+02  0.10566000000E+00 0.  1.
         14    1    4    4    0    0  0.11553340253E+00 -0.79262737218E+01  0.17721188858E+01  0.81227808308E+01  0.00000000000E+00 0. -1.
<mgrwt>
<rscale>  0 0.79707661E+02</rscale>
<asrwt>0</asrwt>
<pdfrwt beam="1">  1        1 0.23832959E-01 0.79707661E+02</pdfrwt>
<pdfrwt beam="2">  1       -2 0.15773769E-02 0.79707661E+02</pdfrwt>
<totfact> 0.16038922E+05</totfact>
</mgrwt>
</event>
<event>
 8    1  0.1372337E-024  0.8094597E+02  0.7818608E-02  0.1326388E+00
         -2   -1    0    0    0  501 -0.00000000000E+00  0.00000000000E+00  0.83599291659E+02  0.83599291698E+02  0.25500000000E-02 0.  1.
          1   -1    0    0  501    0  0.00000000000E+00 -0.00000000000E+00 -0.19594217006E+02  0.19594217654E+02  0.50400000000E-02 0. -1.
        -24    2    1    2    0    0 -0.35527136788E-14  0.00000000000E+00  0.64005074653E+02  0.10319350935E+03  0.80945974521E+02 0.  0.
         66    2    3    3    0    0 -0.21409325913E+02  0.33608472113E+02  0.40869943369E+02  0.57116030066E+02  0.19999964297E+01 0.  0.
         13    1    3    3    0    0  0.21409325913E+02 -0.33608472113E+02  0.23135131284E+02  0.46077479286E+02  0.10566000000E+00 0. -1.
         13    1    4    4    0    0 -0.51121004678E+01  0.70873010666E+01  0.94077295264E+01  0.12840558651E+02  0.10566000000E+00 0. -1.
        -13    1    4    4    0    0 -0.38577441255E+01  0.57344564543E+01  0.75704392823E+01  0.10251287506E+02  0.10566000000E+00 0.  1.
         14    1    4    4    0    0 -0.12439481320E+02  0.20786714592E+02  0.23891774561E+02  0.34024183909E+02  0.00000000000E+00 0. -1.
<mgrwt>
<rscale>  0 0.80945975E+02</rscale>
<asrwt>0</asrwt>
<pdfrwt beam="1">  1        1 0.30144949E-02 0.80945975E+02</pdfrwt>
<pdfrwt beam="2">  1       -2 0.12861430E-01 0.80945975E+02</pdfrwt>
<totfact> 0.10741876E+05</totfact>
</mgrwt>
</event>
<event>
 8    1  0.1372337E-024  0.8107052E+02  0.7818608E-02  0.1326041E+00
         -2   -1    0    0    0  501 -0.00000000000E+00  0.00000000000E+00  0.10129440059E+02  0.10129440380E+02  0.25500000000E-02 0.  1.
          1   -1    0    0  501    0  0.00000000000E+00 -0.00000000000E+00 -0.16221104855E+03  0.16221104863E+03  0.50400000000E-02 0. -1.
        -24    2    1    2    0    0  0.00000000000E+00  0.00000000000E+00 -0.15208160849E+03  0.17234048901E+03  0.81070515665E+02 0.  0.
         66    2    3    3    0    0  0.16332008044E+02  0.36224966767E+02 -0.92841712221E+02  0.10100775334E+03  0.20000005709E+01 0.  0.
         13    1    3    3    0    0 -0.16332008044E+02 -0.36224966767E+02 -0.59239896267E+02  0.71332735667E+02  0.10566000000E+00 0. -1.
         13    1    4    4    0    0  0.42854660676E+01  0.83795083171E+01 -0.22449717689E+02  0.24343014756E+02  0.10566000000E+00 0. -1.
        -13    1    4    4    0    0  0.73369498412E+01  0.16250948866E+02 -0.39772049665E+02  0.43586136221E+02  0.10566000000E+00 0.  1.
        -14    1    4    4    0    0  0.47095921352E+01  0.11594509583E+02 -0.30619944867E+02  0.33078602362E+02  0.00000000000E+00 0.  1.
<mgrwt>
<rscale>  0 0.81070516E+02</rscale>
<asrwt>0</asrwt>
<pdfrwt beam="1">  1        1 0.24955544E-01 0.81070516E+02</pdfrwt>
<pdfrwt beam="2">  1       -2 0.15583755E-02 0.81070516E+02</pdfrwt>
<totfact> 0.15461439E+05</totfact>
</mgrwt>
</event>
<event>
 8    1  0.1372337E-024  0.7421236E+02  0.7818608E-02  0.1346328E+00
         -2   -1    0    0    0  501 -0.00000000000E+00  0.00000000000E+00  0.47099275711E+01  0.47099282614E+01  0.25500000000E-02 0.  1.
          1   -1    0    0  501    0  0.00000000000E+00 -0.00000000000E+00 -0.29233327438E+03  0.29233327442E+03  0.50400000000E-02 0. -1.
        -24    2    1    2    0    0 -0.17763568394E-14  0.00000000000E+00 -0.28762334681E+03  0.29704320269E+03  0.74212361718E+02 0.  0.
         66    2    3    3    0    0  0.15795362541E+02  0.32722845190E+02 -0.17348797046E+03  0.17726351587E+03  0.20000222735E+01 0.  0.
         13    1    3    3    0    0 -0.15795362541E+02 -0.32722845190E+02 -0.11413537635E+03  0.11977968682E+03  0.10566000000E+00 0. -1.
         13    1    4    4    0    0  0.44549745136E+01  0.78980052356E+01 -0.40652256771E+02  0.41651439702E+02  0.10566000000E+00 0.  1.
        -13    1    4    4    0    0  0.68467635541E+01  0.15112916964E+02 -0.79208355535E+02  0.80927456286E+02  0.10566000000E+00 0. -1.
        -14    1    4    4    0    0  0.44936244737E+01  0.97119229912E+01 -0.53627358150E+02  0.54684619878E+02  0.00000000000E+00 0.  1.
<mgrwt>
<rscale>  0 0.74212362E+02</rscale>
<asrwt>0</asrwt>
<pdfrwt beam="1">  1        1 0.44974336E-01 0.74212362E+02</pdfrwt>
<pdfrwt beam="2">  1       -2 0.72460453E-03 0.74212362E+02</pdfrwt>
<totfact> 0.21866461E+05</totfact>
</mgrwt>
</event>
<event>
 8    1  0.1372337E-024  0.8245203E+02  0.7818608E-02  0.1322234E+00
          1   -1    0    0  501    0  0.00000000000E+00  0.00000000000E+00  0.30008858181E+02  0.30008858604E+02  0.50400000000E-02 0. -1.
         -2   -1    0    0    0  501 -0.00000000000E+00 -0.00000000000E+00 -0.56636085760E+02  0.56636085818E+02  0.25500000000E-02 0.  1.
        -24    2    1    2    0    0  0.35527136788E-14 -0.22204460493E-15 -0.26627227579E+02  0.86644944422E+02  0.82452029359E+02 0.  0.
         66    2    3    3    0    0 -0.24316359029E+02  0.17023226138E+01 -0.48228029060E+02  0.54075188400E+02  0.19999986952E+01 0.  0.
         13    1    3    3    0    0  0.24316359029E+02 -0.17023226138E+01  0.21600801481E+02  0.32569756022E+02  0.10566000000E+00 0. -1.
         13    1    4    4    0    0 -0.47919033471E+01  0.20810243279E+00 -0.79464899186E+01  0.92824301976E+01  0.10566000000E+00 0. -1.
        -13    1    4    4    0    0 -0.11695443300E+02  0.11785638778E+01 -0.24156523366E+02  0.26864869104E+02  0.10566000000E+00 0.  1.
         14    1    4    4    0    0 -0.78290123811E+01  0.31565630329E+00 -0.16125015776E+02  0.17927889099E+02  0.00000000000E+00 0. -1.
<mgrwt>
<rscale>  0 0.82452029E+02</rscale>
<asrwt>0</asrwt>
<pdfrwt beam="1">  1        1 0.46167475E-02 0.82452029E+02</pdfrwt>
<pdfrwt beam="2">  1       -2 0.87132439E-02 0.82452029E+02</pdfrwt>
<totfact> 0.11086982E+05</totfact>
</mgrwt>
</event>
<event>
 8    1  0.1372337E-024  0.7694692E+02  0.7818608E-02  0.1337946E+00
          1   -1    0    0  501    0  0.00000000000E+00  0.00000000000E+00  0.45880577857E+02  0.45880578134E+02  0.50400000000E-02 0. -1.
         -2   -1    0    0    0  501 -0.00000000000E+00 -0.00000000000E+00 -0.32262175921E+02  0.32262176022E+02  0.25500000000E-02 0.  1.
        -24    2    1    2    0    0  0.00000000000E+00  0.00000000000E+00  0.13618401936E+02  0.78142754156E+02  0.76946924278E+02 0.  0.
         66    2    3    3    0    0 -0.23388308445E+01  0.18165249696E+02 -0.27516242640E+02  0.33114800897E+02  0.20000007980E+01 0.  0.
         13    1    3    3    0    0  0.23388308445E+01 -0.18165249696E+02  0.41134644576E+02  0.45027953259E+02  0.10566000000E+00 0. -1.
         13    1    4    4    0    0 -0.15955124246E+01  0.92248277079E+01 -0.13440725316E+02  0.16380090574E+02  0.10566000000E+00 0. -1.
        -13    1    4    4    0    0 -0.45491176473E+00  0.39334075921E+01 -0.51559172297E+01  0.65017910236E+01  0.10566000000E+00 0.  1.
         14    1    4    4    0    0 -0.28840665523E+00  0.50070143964E+01 -0.89196000939E+01  0.10232919300E+02  0.00000000000E+00 0. -1.
<mgrwt>
<rscale>  0 0.76946924E+02</rscale>
<asrwt>0</asrwt>
<pdfrwt beam="1">  1        1 0.70585505E-02 0.76946924E+02</pdfrwt>
<pdfrwt beam="2">  1       -2 0.49634117E-02 0.76946924E+02</pdfrwt>
<totfact> 0.14465350E+05</totfact>
</mgrwt>
</event>
<event>
 8    1  0.1372337E-024  0.7971294E+02  0.7818608E-02  0.1329868E+00
         -2   -1    0    0    0  501 -0.00000000000E+00  0.00000000000E+00  0.23936567825E+03  0.23936567826E+03  0.25500000000E-02 0.  1.
          1   -1    0    0  501    0  0.00000000000E+00 -0.00000000000E+00 -0.66364480289E+01  0.66364499427E+01  0.50400000000E-02 0. -1.
        -24    2    1    2    0    0  0.00000000000E+00  0.00000000000E+00  0.23272923022E+03  0.24600212820E+03  0.79712937988E+02 0.  0.
         66    2    3    3    0    0 -0.17962804477E+02  0.19999894247E+02  0.20714355844E+03  0.20889019106E+03  0.20000000843E+01 0.  0.
         13    1    3    3    0    0  0.17962804477E+02 -0.19999894247E+02  0.25585671773E+02  0.37111937146E+02  0.10566000000E+00 0. -1.
         13    1    4    4    0    0 -0.14098767500E+02  0.14732947526E+02  0.15414318509E+03  0.15548622982E+03  0.10566000000E+00 0. -1.
        -13    1    4    4    0    0 -0.21573400904E+01  0.25604022318E+01  0.26216556045E+02  0.26429694488E+02  0.10566000000E+00 0.  1.
         14    1    4    4    0    0 -0.17066968865E+01  0.27065444892E+01  0.26783817305E+02  0.26974266751E+02  0.00000000000E+00 0. -1.
<mgrwt>
<rscale>  0 0.79712938E+02</rscale>
<asrwt>0</asrwt>
<pdfrwt beam="1">  1        1 0.10209923E-02 0.79712938E+02</pdfrwt>
<pdfrwt beam="2">  1       -2 0.36825483E-01 0.79712938E+02</pdfrwt>
<totfact> 0.79438478E+04</totfact>
</mgrwt>
</event>
<event>
 8    1  0.1372337E-024  0.8073202E+02  0.7818608E-02  0.1326987E+00
          1   -1    0    0  501    0  0.00000000000E+00  0.00000000000E+00  0.25010863014E+02  0.25010863522E+02  0.50400000000E-02 0. -1.
         -2   -1    0    0    0  501 -0.00000000000E+00 -0.00000000000E+00 -0.65148278016E+02  0.65148278066E+02  0.25500000000E-02 0.  1.
        -24    2    1    2    0    0 -0.35527136788E-14  0.00000000000E+00 -0.40137415002E+02  0.90159141588E+02  0.80732017991E+02 0.  0.
         66    2    3    3    0    0  0.25210789715E+02  0.63311685727E+01 -0.54533716327E+02  0.60444965351E+02  0.20000015495E+01 0.  0.
         13    1    3    3    0    0 -0.25210789715E+02 -0.63311685727E+01  0.14396301326E+02  0.29714176237E+02  0.10566000000E+00 0. -1.
         13    1    4    4    0    0  0.60490707224E+01  0.20788306626E+01 -0.12944739718E+02  0.14439191249E+02  0.10566000000E+00 0. -1.
        -13    1    4    4    0    0  0.11962558597E+02  0.32178237961E+01 -0.26838526142E+02  0.29559682808E+02  0.10566000000E+00 0.  1.
         14    1    4    4    0    0  0.71991603959E+01  0.10345141141E+01 -0.14750450467E+02  0.16446091294E+02  0.00000000000E+00 0. -1.
<mgrwt>
<rscale>  0 0.80732018E+02</rscale>
<asrwt>0</asrwt>
<pdfrwt beam="1">  1        1 0.38478252E-02 0.80732018E+02</pdfrwt>
<pdfrwt beam="2">  1       -2 0.10022812E-01 0.80732018E+02</pdfrwt>
<totfact> 0.11389043E+05</totfact>
</mgrwt>
</event>
<event>
 8    1  0.1372337E-024  0.7532955E+02  0.7818608E-02  0.1342854E+00
          1   -1    0    0  501    0  0.00000000000E+00  0.00000000000E+00  0.13508782195E+02  0.13508783135E+02  0.50400000000E-02 0. -1.
         -2   -1    0    0    0  501 -0.00000000000E+00 -0.00000000000E+00 -0.10501577653E+03  0.10501577656E+03  0.25500000000E-02 0.  1.
        -24    2    1    2    0    0  0.00000000000E+00  0.00000000000E+00 -0.91506994335E+02  0.11852455970E+03  0.75329550901E+02 0.  0.
         66    2    3    3    0    0 -0.29601683008E+02  0.30304310604E+01 -0.95224021893E+01  0.31306857005E+02  0.20000006976E+01 0.  0.
         13    1    3    3    0    0  0.29601683008E+02 -0.30304310604E+01 -0.81984592146E+02  0.87217702691E+02  0.10566000000E+00 0. -1.
         13    1    4    4    0    0 -0.72337837099E+00  0.69519656261E-02 -0.11710613815E+00  0.74040696960E+00  0.10566000000E+00 0. -1.
        -13    1    4    4    0    0 -0.97639364346E+01  0.14452695843E+01 -0.38905771834E+01  0.10609948809E+02  0.10566000000E+00 0.  1.
        -14    1    4    4    0    0 -0.19114368202E+02  0.15782095105E+01 -0.55147188677E+01  0.19956501227E+02  0.00000000000E+00 0.  1.
<mgrwt>
<rscale>  0 0.75329551E+02</rscale>
<asrwt>0</asrwt>
<pdfrwt beam="1">  1        1 0.20782743E-02 0.75329551E+02</pdfrwt>
<pdfrwt beam="2">  1       -2 0.16156273E-01 0.75329551E+02</pdfrwt>
<totfact> 0.12226424E+05</totfact>
</mgrwt>
</event>
<event>
 8    1  0.1372337E-024  0.8013744E+02  0.7818608E-02  0.1328662E+00
         -2   -1    0    0    0  501 -0.00000000000E+00  0.00000000000E+00  0.30759848200E+01  0.30759858770E+01  0.25500000000E-02 0.  1.
          1   -1    0    0  501    0  0.00000000000E+00 -0.00000000000E+00 -0.52194735915E+03  0.52194735918E+03  0.50400000000E-02 0. -1.
        -24    2    1    2    0    0 -0.35527136788E-14 -0.35527136788E-14 -0.51887137433E+03  0.52502334505E+03  0.80137442871E+02 0.  0.
         66    2    3    3    0    0  0.16539241779E+02  0.22180412873E+02 -0.44924996179E+03  0.45010559360E+03  0.19999979159E+01 0.  0.
         13    1    3    3    0    0 -0.16539241779E+02 -0.22180412873E+02 -0.69621412547E+02  0.74917751454E+02  0.10566000000E+00 0. -1.
         13    1    4    4    0    0  0.36805961418E+01  0.41286566689E+01 -0.93333499466E+02  0.93497304134E+02  0.10566000000E+00 0. -1.
        -13    1    4    4    0    0  0.84536666051E+01  0.12491860850E+02 -0.24984034279E+03  0.25029526387E+03  0.10566000000E+00 0.  1.
         14    1    4    4    0    0  0.44049790323E+01  0.55598953544E+01 -0.10607611953E+03  0.10631302559E+03  0.00000000000E+00 0. -1.
<mgrwt>
<rscale>  0 0.80137443E+02</rscale>
<asrwt>0</asrwt>
<pdfrwt beam="1">  1        1 0.80299524E-01 0.80137443E+02</pdfrwt>
<pdfrwt beam="2">  1       -2 0.47322893E-03 0.80137443E+02</pdfrwt>
<totfact> 0.19614816E+05</totfact>
</mgrwt>
</event>
<event>
 8    1  0.1372337E-024  0.7796824E+02  0.7818608E-02  0.1334918E+00
          1   -1    0    0  501    0  0.00000000000E+00  0.00000000000E+00  0.62953894166E+01  0.62953914341E+01  0.50400000000E-02 0. -1.
         -2   -1    0    0    0  501 -0.00000000000E+00 -0.00000000000E+00 -0.24140865577E+03  0.24140865578E+03  0.25500000000E-02 0.  1.
        -24    2    1    2    0    0  0.00000000000E+00  0.35527136788E-14 -0.23511326635E+03  0.24770404722E+03  0.77968243488E+02 0.  0.
         66    2    3    3    0    0 -0.17364639265E+02 -0.21991171999E+02 -0.20362478935E+03  0.20555339253E+03  0.19999997716E+01 0.  0.
         13    1    3    3    0    0  0.17364639265E+02  0.21991171999E+02 -0.31488477000E+02  0.42150654687E+02  0.10566000000E+00 0. -1.
         13    1    4    4    0    0 -0.23173322328E+00 -0.87706414220E-01 -0.14459856386E+01  0.14708607019E+01  0.10566000000E+00 0. -1.
        -13    1    4    4    0    0 -0.46176576398E+01 -0.60982121109E+01 -0.55632875752E+02  0.56156379705E+02  0.10566000000E+00 0.  1.
         14    1    4    4    0    0 -0.12515248402E+02 -0.15805253474E+02 -0.14654592796E+03  0.14792615212E+03  0.00000000000E+00 0. -1.
<mgrwt>
<rscale>  0 0.77968243E+02</rscale>
<asrwt>0</asrwt>
<pdfrwt beam="1">  1        1 0.96852179E-03 0.77968243E+02</pdfrwt>
<pdfrwt beam="2">  1       -2 0.37139786E-01 0.77968243E+02</pdfrwt>
<totfact> 0.83774731E+04</totfact>
</mgrwt>
</event>
<event>
 8    1  0.1372337E-024  0.7713565E+02  0.7818608E-02  0.1337382E+00
          1   -1    0    0  501    0  0.00000000000E+00  0.00000000000E+00  0.88756301820E+02  0.88756301963E+02  0.50400000000E-02 0. -1.
         -2   -1    0    0    0  501 -0.00000000000E+00 -0.00000000000E+00 -0.16759113424E+02  0.16759113618E+02  0.25500000000E-02 0.  1.
        -24    2    1    2    0    0  0.35527136788E-14 -0.44408920985E-15  0.71997188396E+02  0.10551541558E+03  0.77135645381E+02 0.  0.
         66    2    3    3    0    0 -0.29701043543E+02  0.28881998307E+01  0.26561722144E+01  0.30025804542E+02  0.20000004402E+01 0.  0.
         13    1    3    3    0    0  0.29701043543E+02 -0.28881998307E+01  0.69341016181E+02  0.75489611039E+02  0.10566000000E+00 0. -1.
         13    1    4    4    0    0 -0.61731944063E+01  0.48767474373E+00  0.53610028786E+00  0.62164880269E+01  0.10566000000E+00 0. -1.
        -13    1    4    4    0    0 -0.16100615557E+02  0.18354571304E+01  0.65874332813E+00  0.16218626051E+02  0.10566000000E+00 0.  1.
        -14    1    4    4    0    0 -0.74272335794E+01  0.56506795656E+00  0.14613285984E+01  0.75906904634E+01  0.00000000000E+00 0.  1.
<mgrwt>
<rscale>  0 0.77135645E+02</rscale>
<asrwt>0</asrwt>
<pdfrwt beam="1">  1        1 0.13654816E-01 0.77135645E+02</pdfrwt>
<pdfrwt beam="2">  1       -2 0.25783251E-02 0.77135645E+02</pdfrwt>
<totfact> 0.15905380E+05</totfact>
</mgrwt>
</event>
<event>
 8    1  0.1372337E-024  0.7902273E+02  0.7818608E-02  0.1331848E+00
          1   -1    0    0  501    0  0.00000000000E+00  0.00000000000E+00  0.75955600678E+01  0.75955617399E+01  0.50400000000E-02 0. -1.
         -2   -1    0    0    0  501 -0.00000000000E+00 -0.00000000000E+00 -0.20553424705E+03  0.20553424706E+03  0.25500000000E-02 0.  1.
        -24    2    1    2    0    0  0.13097162244E-15  0.00000000000E+00 -0.19793868698E+03  0.21312980880E+03  0.79022728359E+02 0.  0.
         66    2    3    3    0    0  0.34451821254E-02  0.36689105042E+02 -0.13839985081E+03  0.14319430553E+03  0.19999983573E+01 0.  0.
         13    1    3    3    0    0 -0.34451821254E-02 -0.36689105042E+02 -0.59538836173E+02  0.69935503269E+02  0.10566000000E+00 0. -1.
         13    1    4    4    0    0 -0.48849407768E+00  0.92936612438E+01 -0.33482010619E+02  0.34751503060E+02  0.10566000000E+00 0. -1.
        -13    1    4    4    0    0 -0.36950211270E+00  0.69518877565E+01 -0.26702980632E+02  0.27595753547E+02  0.10566000000E+00 0.  1.
         14    1    4    4    0    0  0.86144137251E+00  0.20443556041E+02 -0.78214859557E+02  0.80847048928E+02  0.00000000000E+00 0. -1.
<mgrwt>
<rscale>  0 0.79022728E+02</rscale>
<asrwt>0</asrwt>
<pdfrwt beam="1">  1        1 0.11685480E-02 0.79022728E+02</pdfrwt>
<pdfrwt beam="2">  1       -2 0.31620649E-01 0.79022728E+02</pdfrwt>
<totfact> 0.86839539E+04</totfact>
</mgrwt>
</event>
<event>
 8    1  0.1372337E-024  0.7835264E+02  0.7818608E-02  0.1333792E+00
         -2   -1    0    0    0  501 -0.00000000000E+00  0.00000000000E+00  0.21335216937E+02  0.21335217090E+02  0.25500000000E-02 0.  1.
          1   -1    0    0  501    0  0.00000000000E+00 -0.00000000000E+00 -0.71936658494E+02  0.71936658671E+02  0.50400000000E-02 0. -1.
        -24    2    1    2    0    0  0.00000000000E+00 -0.17763568394E-14 -0.50601441557E+02  0.93271875760E+02  0.78352644628E+02 0.  0.
         66    2    3    3    0    0 -0.22759585093E+02 -0.11945858348E+02  0.98368185992E+01  0.27594659772E+02  0.20000006176E+01 0.  0.
         13    1    3    3    0    0  0.22759585093E+02  0.11945858348E+02 -0.60438260156E+02  0.65677215989E+02  0.10566000000E+00 0. -1.
         13    1    4    4    0    0 -0.10172894238E+02 -0.47844485013E+01  0.35444354895E+01  0.11787828961E+02  0.10566000000E+00 0. -1.
        -13    1    4    4    0    0 -0.82627673880E+01 -0.45340187429E+01  0.37472888249E+01  0.10143174476E+02  0.10566000000E+00 0.  1.
        -14    1    4    4    0    0 -0.43239234675E+01 -0.26273911040E+01  0.25450942848E+01  0.56636563353E+01  0.00000000000E+00 0.  1.
<mgrwt>
<rscale>  0 0.78352645E+02</rscale>
<asrwt>0</asrwt>
<pdfrwt beam="1">  1        1 0.11067178E-01 0.78352645E+02</pdfrwt>
<pdfrwt beam="2">  1       -2 0.32823411E-02 0.78352645E+02</pdfrwt>
<totfact> 0.14745239E+05</totfact>
</mgrwt>
</event>
<event>
 8    1  0.1372337E-024  0.7847684E+02  0.7818608E-02  0.1333430E+00
          1   -1    0    0  501    0  0.00000000000E+00  0.00000000000E+00  0.18117038013E+03  0.18117038020E+03  0.50400000000E-02 0. -1.
         -2   -1    0    0    0  501 -0.00000000000E+00 -0.00000000000E+00 -0.84983740956E+01  0.84983744782E+01  0.25500000000E-02 0.  1.
        -24    2    1    2    0    0  0.00000000000E+00  0.00000000000E+00  0.17267200604E+03  0.18966875468E+03  0.78476842657E+02 0.  0.
         66    2    3    3    0    0  0.14177828054E+02  0.36322752679E+02  0.76340624012E+02  0.85745227521E+02  0.19999993693E+01 0.  0.
         13    1    3    3    0    0 -0.14177828054E+02 -0.36322752679E+02  0.96331382024E+02  0.10392352716E+03  0.10566000000E+00 0. -1.
         13    1    4    4    0    0  0.95888302134E+00  0.17877487217E+01  0.43766751827E+01  0.48251374935E+01  0.10566000000E+00 0. -1.
        -13    1    4    4    0    0  0.86279216287E+01  0.21188201401E+02  0.43530065876E+02  0.49175793938E+02  0.10566000000E+00 0.  1.
         14    1    4    4    0    0  0.45910234040E+01  0.13346802557E+02  0.28433882953E+02  0.31744296089E+02  0.00000000000E+00 0. -1.
<mgrwt>
<rscale>  0 0.78476843E+02</rscale>
<asrwt>0</asrwt>
<pdfrwt beam="1">  1        1 0.27872362E-01 0.78476843E+02</pdfrwt>
<pdfrwt beam="2">  1       -2 0.13074424E-02 0.78476843E+02</pdfrwt>
<totfact> 0.17216113E+05</totfact>
</mgrwt>
</event>
<event>
 8    1  0.1372337E-024  0.8500996E+02  0.7818608E-02  0.1315406E+00
          1   -1    0    0  501    0  0.00000000000E+00  0.00000000000E+00  0.36516078137E+03  0.36516078141E+03  0.50400000000E-02 0. -1.
         -2   -1    0    0    0  501 -0.00000000000E+00 -0.00000000000E+00 -0.49476103387E+01  0.49476109958E+01  0.25500000000E-02 0.  1.
        -24    2    1    2    0    0 -0.88817841970E-15 -0.71054273576E-14  0.36021317103E+03  0.37010839240E+03  0.85009961422E+02 0.  0.
         66    2    3    3    0    0 -0.59339035521E+01 -0.41958227578E+02  0.16717082293E+03  0.17246967302E+03  0.20000001422E+01 0.  0.
         13    1    3    3    0    0  0.59339035521E+01  0.41958227578E+02  0.19304234810E+03  0.19763871938E+03  0.10566000000E+00 0. -1.
         13    1    4    4    0    0 -0.42187325388E+00 -0.49578059416E+01  0.21929610652E+02  0.22487258708E+02  0.10566000000E+00 0. -1.
        -13    1    4    4    0    0 -0.45557521925E+01 -0.29125089582E+02  0.11461853451E+03  0.11834882905E+03  0.10566000000E+00 0.  1.
         14    1    4    4    0    0 -0.95627810575E+00 -0.78753320545E+01  0.30622677771E+02  0.31633585264E+02  0.00000000000E+00 0. -1.
<mgrwt>
<rscale>  0 0.85009961E+02</rscale>
<asrwt>0</asrwt>
<pdfrwt beam="1">  1        1 0.56178585E-01 0.85009961E+02</pdfrwt>
<pdfrwt beam="2">  1       -2 0.76117083E-03 0.85009961E+02</pdfrwt>
<totfact> 0.15933890E+05</totfact>
</mgrwt>
</event>
<event>
 8    1  0.1372337E-024  0.8039487E+02  0.7818608E-02  0.1327935E+00
          1   -1    0    0  501    0  0.00000000000E+00  0.00000000000E+00  0.34544228001E+01  0.34544264768E+01  0.50400000000E-02 0. -1.
         -2   -1    0    0    0  501 -0.00000000000E+00 -0.00000000000E+00 -0.46775774530E+03  0.46775774531E+03  0.25500000000E-02 0.  1.
        -24    2    1    2    0    0  0.17763568394E-14 -0.88817841970E-15 -0.46430332250E+03  0.47121217178E+03  0.80394872677E+02 0.  0.
         66    2    3    3    0    0 -0.14237379921E+02  0.71193564917E+01 -0.44848112739E+03  0.44876799111E+03  0.19999995548E+01 0.  0.
         13    1    3    3    0    0  0.14237379921E+02 -0.71193564917E+01 -0.15822195111E+02  0.22444180672E+02  0.10566000000E+00 0. -1.
         13    1    4    4    0    0 -0.54115561845E+01  0.27578283732E+01 -0.15895899790E+03  0.15907502864E+03  0.10566000000E+00 0. -1.
        -13    1    4    4    0    0 -0.21676956742E+01  0.10805190301E+01 -0.55017154444E+02  0.55070544514E+02  0.10566000000E+00 0.  1.
        -14    1    4    4    0    0 -0.66581280627E+01  0.32810090884E+01 -0.23450497504E+03  0.23462241796E+03  0.00000000000E+00 0.  1.
<mgrwt>
<rscale>  0 0.80394873E+02</rscale>
<asrwt>0</asrwt>
<pdfrwt beam="1">  1        1 0.53145032E-03 0.80394873E+02</pdfrwt>
<pdfrwt beam="2">  1       -2 0.71962680E-01 0.80394873E+02</pdfrwt>
<totfact> 0.52304790E+04</totfact>
</mgrwt>
</event>
<event>
 8    1  0.1372337E-024  0.7809008E+02  0.7818608E-02  0.1334561E+00
          1   -1    0    0  501    0  0.00000000000E+00  0.00000000000E+00  0.50220900984E+01  0.50220926274E+01  0.50400000000E-02 0. -1.
         -2   -1    0    0    0  501 -0.00000000000E+00 -0.00000000000E+00 -0.30356178346E+03  0.30356178347E+03  0.25500000000E-02 0.  1.
        -24    2    1    2    0    0  0.00000000000E+00 -0.17763568394E-14 -0.29853969336E+03  0.30858387609E+03  0.78090076676E+02 0.  0.
         66    2    3    3    0    0 -0.23282737164E+02  0.82157982287E+01 -0.26876489654E+03  0.26990397330E+03  0.20000006648E+01 0.  0.
         13    1    3    3    0    0  0.23282737164E+02 -0.82157982287E+01 -0.29774796822E+02  0.38679902795E+02  0.10566000000E+00 0. -1.
         13    1    4    4    0    0 -0.48966694034E+01  0.12216697445E+01 -0.58567940926E+02  0.58785072225E+02  0.10566000000E+00 0. -1.
        -13    1    4    4    0    0 -0.20488856212E+01  0.10457690980E+01 -0.27762905933E+02  0.27858242500E+02  0.10566000000E+00 0.  1.
        -14    1    4    4    0    0 -0.16337182139E+02  0.59483593863E+01 -0.18243404968E+03  0.18326065857E+03  0.00000000000E+00 0.  1.
<mgrwt>
<rscale>  0 0.78090077E+02</rscale>
<asrwt>0</asrwt>
<pdfrwt beam="1">  1        1 0.77262968E-03 0.78090077E+02</pdfrwt>
<pdfrwt beam="2">  1       -2 0.46701799E-01 0.78090077E+02</pdfrwt>
<totfact> 0.74312026E+04</totfact>
</mgrwt>
</event>
<event>
 8    1  0.1372337E-024  0.7879181E+02  0.7818608E-02  0.1332515E+00
         -2   -1    0    0    0  501 -0.00000000000E+00  0.00000000000E+00  0.48260950435E+02  0.48260950503E+02  0.25500000000E-02 0.  1.
          1   -1    0    0  501    0  0.00000000000E+00 -0.00000000000E+00 -0.32159274371E+02  0.32159274766E+02  0.50400000000E-02 0. -1.
        -24    2    1    2    0    0  0.71054273576E-14  0.00000000000E+00  0.16101676064E+02  0.80420225269E+02  0.78791805793E+02 0.  0.
         66    2    3    3    0    0  0.36942678355E+02  0.98656275805E+01 -0.15154399407E+01  0.38319559811E+02  0.20000035683E+01 0.  0.
         13    1    3    3    0    0 -0.36942678355E+02 -0.98656275805E+01  0.17617116005E+02  0.42100665458E+02  0.10566000000E+00 0. -1.
         13    1    4    4    0    0  0.15292686279E+01  0.40421886288E+00  0.63425330091E-01  0.15865819341E+01  0.10566000000E+00 0.  1.
        -13    1    4    4    0    0  0.34976427287E+02  0.93553057503E+01 -0.13570008994E+01  0.36231544639E+02  0.10566000000E+00 0.  1.
        -14    1    4    4    0    0  0.43698244010E+00  0.10610296732E+00 -0.22186437132E+00  0.50143323772E+00  0.00000000000E+00 0.  1.
<mgrwt>
<rscale>  0 0.78791806E+02</rscale>
<asrwt>0</asrwt>
<pdfrwt beam="1">  1        1 0.49475808E-02 0.78791806E+02</pdfrwt>
<pdfrwt beam="2">  1       -2 0.74247615E-02 0.78791806E+02</pdfrwt>
<totfact> 0.12786262E+05</totfact>
</mgrwt>
</event>
<event>
 8    1  0.1372337E-024  0.8145401E+02  0.7818608E-02  0.1324975E+00
         -2   -1    0    0    0  501 -0.00000000000E+00  0.00000000000E+00  0.34056317960E+03  0.34056317961E+03  0.25500000000E-02 0.  1.
          1   -1    0    0  501    0  0.00000000000E+00 -0.00000000000E+00 -0.48704276934E+01  0.48704303012E+01  0.50400000000E-02 0. -1.
        -24    2    1    2    0    0 -0.44408920985E-15  0.00000000000E+00  0.33569275191E+03  0.34543360991E+03  0.81454006491E+02 0.  0.
         66    2    3    3    0    0 -0.34221496954E+01  0.10312435296E+02  0.33429572381E+03  0.33447823307E+03  0.20000017667E+01 0.  0.
         13    1    3    3    0    0  0.34221496954E+01 -0.10312435296E+02  0.13970280964E+01  0.10955376845E+02  0.10566000000E+00 0. -1.
         13    1    4    4    0    0 -0.79038205474E+00  0.92645451121E+00  0.36271937080E+02  0.36292528230E+02  0.10566000000E+00 0. -1.
        -13    1    4    4    0    0 -0.19069926174E+01  0.75957835390E+01  0.22459752179E+03  0.22473404395E+03  0.10566000000E+00 0.  1.
        -14    1    4    4    0    0 -0.72477502333E+00  0.17901972456E+01  0.73426264937E+02  0.73451660891E+02  0.00000000000E+00 0.  1.
<mgrwt>
<rscale>  0 0.81454006E+02</rscale>
<asrwt>0</asrwt>
<pdfrwt beam="1">  1        1 0.74929666E-03 0.81454006E+02</pdfrwt>
<pdfrwt beam="2">  1       -2 0.52394343E-01 0.81454006E+02</pdfrwt>
<totfact> 0.62403117E+04</totfact>
</mgrwt>
</event>
<event>
 8    1  0.1372337E-024  0.8203538E+02  0.7818608E-02  0.1323373E+00
          1   -1    0    0  501    0  0.00000000000E+00  0.00000000000E+00  0.14190226378E+03  0.14190226387E+03  0.50400000000E-02 0. -1.
         -2   -1    0    0    0  501 -0.00000000000E+00 -0.00000000000E+00 -0.11856407462E+02  0.11856407737E+02  0.25500000000E-02 0.  1.
        -24    2    1    2    0    0  0.35527136788E-14  0.71054273576E-14  0.13004585632E+03  0.15375867160E+03  0.82035384735E+02 0.  0.
         66    2    3    3    0    0 -0.20239200472E+02 -0.31247227851E+02  0.97222547624E+02  0.10412606900E+03  0.19999985247E+01 0.  0.
         13    1    3    3    0    0  0.20239200472E+02  0.31247227851E+02  0.32823308692E+02  0.49632602608E+02  0.10566000000E+00 0. -1.
         13    1    4    4    0    0 -0.62237372951E+01 -0.83332305044E+01  0.26676232003E+02  0.28632327088E+02  0.10566000000E+00 0. -1.
        -13    1    4    4    0    0 -0.37895270680E+01 -0.59391453066E+01  0.17350532961E+02  0.18726615296E+02  0.10566000000E+00 0.  1.
        -14    1    4    4    0    0 -0.10225936109E+02 -0.16974852040E+02  0.53195782659E+02  0.56767126612E+02  0.00000000000E+00 0.  1.
<mgrwt>
<rscale>  0 0.82035385E+02</rscale>
<asrwt>0</asrwt>
<pdfrwt beam="1">  1        1 0.21831118E-01 0.82035385E+02</pdfrwt>
<pdfrwt beam="2">  1       -2 0.18240627E-02 0.82035385E+02</pdfrwt>
<totfact> 0.14610939E+05</totfact>
</mgrwt>
</event>
<event>
 8    1  0.1372337E-024  0.7955018E+02  0.7818608E-02  0.1330333E+00
          1   -1    0    0  501    0  0.00000000000E+00  0.00000000000E+00  0.54846868254E+01  0.54846891411E+01  0.50400000000E-02 0. -1.
         -2   -1    0    0    0  501 -0.00000000000E+00 -0.00000000000E+00 -0.28844992158E+03  0.28844992159E+03  0.25500000000E-02 0.  1.
        -24    2    1    2    0    0  0.00000000000E+00  0.00000000000E+00 -0.28296523476E+03  0.29393461073E+03  0.79550181060E+02 0.  0.
         66    2    3    3    0    0  0.27380062687E+02 -0.22654064677E+02 -0.75766424640E+02  0.83710367230E+02  0.19999999897E+01 0.  0.
         13    1    3    3    0    0 -0.27380062687E+02  0.22654064677E+02 -0.20719881012E+03  0.21022424350E+03  0.10566000000E+00 0. -1.
         13    1    4    4    0    0  0.14878701297E+02 -0.13360211982E+02 -0.42676761189E+02  0.47129482557E+02  0.10566000000E+00 0. -1.
        -13    1    4    4    0    0  0.31313704933E+01 -0.26306330100E+01 -0.91841947752E+01  0.10054168733E+02  0.10566000000E+00 0.  1.
         14    1    4    4    0    0  0.93699908968E+01 -0.66632196849E+01 -0.23905468676E+02  0.26526715940E+02  0.00000000000E+00 0. -1.
<mgrwt>
<rscale>  0 0.79550181E+02</rscale>
<asrwt>0</asrwt>
<pdfrwt beam="1">  1        1 0.84379838E-03 0.79550181E+02</pdfrwt>
<pdfrwt beam="2">  1       -2 0.44376899E-01 0.79550181E+02</pdfrwt>
<totfact> 0.72817953E+04</totfact>
</mgrwt>
</event>
<event>
 8    1  0.1372337E-024  0.8471015E+02  0.7818608E-02  0.1316192E+00
          1   -1    0    0  501    0  0.00000000000E+00  0.00000000000E+00  0.33461730350E+02  0.33461730729E+02  0.50400000000E-02 0. -1.
         -2   -1    0    0    0  501 -0.00000000000E+00 -0.00000000000E+00 -0.53612058374E+02  0.53612058435E+02  0.25500000000E-02 0.  1.
        -24    2    1    2    0    0  0.00000000000E+00  0.00000000000E+00 -0.20150328025E+02  0.87073789164E+02  0.84710147207E+02 0.  0.
         66    2    3    3    0    0 -0.33292575087E+02  0.25902706980E+02 -0.64318625851E+01  0.42716678767E+02  0.20000009386E+01 0.  0.
         13    1    3    3    0    0  0.33292575087E+02 -0.25902706980E+02 -0.13718465440E+02  0.44357110398E+02  0.10566000000E+00 0. -1.
         13    1    4    4    0    0 -0.18946701609E+02  0.15378059713E+02 -0.29367694498E+01  0.24578405181E+02  0.10566000000E+00 0. -1.
        -13    1    4    4    0    0 -0.89317719299E+01  0.66105480827E+01 -0.19721085229E+01  0.11286109685E+02  0.10566000000E+00 0.  1.
         14    1    4    4    0    0 -0.54141015473E+01  0.39140991837E+01 -0.15229846124E+01  0.68521639001E+01  0.00000000000E+00 0. -1.
<mgrwt>
<rscale>  0 0.84710147E+02</rscale>
<asrwt>0</asrwt>
<pdfrwt beam="1">  1        1 0.51479586E-02 0.84710147E+02</pdfrwt>
<pdfrwt beam="2">  1       -2 0.82480089E-02 0.84710147E+02</pdfrwt>
<totfact> 0.10460883E+05</totfact>
</mgrwt>
</event>
<event>
 8    1  0.1372337E-024  0.8000452E+02  0.7818608E-02  0.1329039E+00
         -2   -1    0    0    0  501 -0.00000000000E+00  0.00000000000E+00  0.43802542547E+01  0.43802549969E+01  0.25500000000E-02 0.  1.
          1   -1    0    0  501    0  0.00000000000E+00 -0.00000000000E+00 -0.36531680252E+03  0.36531680255E+03  0.50400000000E-02 0. -1.
        -24    2    1    2    0    0 -0.14210854715E-13  0.00000000000E+00 -0.36093654826E+03  0.36969705755E+03  0.80004515427E+02 0.  0.
         66    2    3    3    0    0 -0.39763813552E+02  0.32908904063E+01 -0.19207273549E+03  0.19618340029E+03  0.20000005338E+01 0.  0.
         13    1    3    3    0    0  0.39763813552E+02 -0.32908904063E+01 -0.16886381277E+03  0.17351365726E+03  0.10566000000E+00 0. -1.
         13    1    4    4    0    0 -0.29627358377E+01  0.31230657235E-01 -0.15665583470E+02  0.15943664839E+02  0.10566000000E+00 0. -1.
        -13    1    4    4    0    0 -0.11125800996E+02  0.14255817376E+01 -0.55795416340E+02  0.56911821089E+02  0.10566000000E+00 0.  1.
        -14    1    4    4    0    0 -0.25675276719E+02  0.18340780114E+01 -0.12061173568E+03  0.12332791436E+03  0.00000000000E+00 0.  1.
<mgrwt>
<rscale>  0 0.80004515E+02</rscale>
<asrwt>0</asrwt>
<pdfrwt beam="1">  1        1 0.56202561E-01 0.80004515E+02</pdfrwt>
<pdfrwt beam="2">  1       -2 0.67388562E-03 0.80004515E+02</pdfrwt>
<totfact> 0.18701102E+05</totfact>
</mgrwt>
</event>
<event>
 8    1  0.1372337E-024  0.7990859E+02  0.7818608E-02  0.1329311E+00
         -2   -1    0    0    0  501 -0.00000000000E+00  0.00000000000E+00  0.15240828488E+02  0.15240828701E+02  0.25500000000E-02 0.  1.
          1   -1    0    0  501    0  0.00000000000E+00 -0.00000000000E+00 -0.10474138555E+03  0.10474138567E+03  0.50400000000E-02 0. -1.
        -24    2    1    2    0    0  0.35527136788E-14  0.00000000000E+00 -0.89500557064E+02  0.11998221437E+03  0.79908585592E+02 0.  0.
         66    2    3    3    0    0  0.20923761507E+02 -0.19629756060E+02 -0.30807736170E+01  0.28924423638E+02  0.19999995309E+01 0.  0.
         13    1    3    3    0    0 -0.20923761507E+02  0.19629756060E+02 -0.86419783447E+02  0.91057790735E+02  0.10566000000E+00 0. -1.
         13    1    4    4    0    0  0.48745143743E+01 -0.52439525594E+01 -0.77919615307E+00  0.72026550321E+01  0.10566000000E+00 0. -1.
        -13    1    4    4    0    0  0.13027245920E+02 -0.11617427687E+02 -0.24171928934E+01  0.17621797520E+02  0.10566000000E+00 0.  1.
         14    1    4    4    0    0  0.30220012135E+01 -0.27683758131E+01  0.11561542946E+00  0.40999710859E+01  0.00000000000E+00 0. -1.
<mgrwt>
<rscale>  0 0.79908586E+02</rscale>
<asrwt>0</asrwt>
<pdfrwt beam="1">  1        1 0.16114059E-01 0.79908586E+02</pdfrwt>
<pdfrwt beam="2">  1       -2 0.23447429E-02 0.79908586E+02</pdfrwt>
<totfact> 0.14860454E+05</totfact>
</mgrwt>
</event>
<event>
 8    1  0.1372337E-024  0.7801877E+02  0.7818608E-02  0.1334770E+00
         -2   -1    0    0    0  501 -0.00000000000E+00  0.00000000000E+00  0.99179409669E+02  0.99179409702E+02  0.25500000000E-02 0.  1.
          1   -1    0    0  501    0  0.00000000000E+00 -0.00000000000E+00 -0.15343224977E+02  0.15343225805E+02  0.50400000000E-02 0. -1.
        -24    2    1    2    0    0  0.17763568394E-14  0.00000000000E+00  0.83836184693E+02  0.11452263551E+03  0.78018768124E+02 0.  0.
         66    2    3    3    0    0  0.15366784907E+02 -0.34497323848E+02  0.27749984476E+02  0.46906983105E+02  0.19999986316E+01 0.  0.
         13    1    3    3    0    0 -0.15366784907E+02  0.34497323848E+02  0.56086200217E+02  0.67615652402E+02  0.10566000000E+00 0. -1.
         13    1    4    4    0    0  0.71765468737E+00 -0.20436165077E+01  0.11539442659E+01  0.24564503018E+01  0.10566000000E+00 0. -1.
        -13    1    4    4    0    0  0.13899527188E+02 -0.31150529077E+02  0.25388068648E+02  0.42521965048E+02  0.10566000000E+00 0.  1.
        -14    1    4    4    0    0  0.74960303131E+00 -0.13031782626E+01  0.12079715623E+01  0.19285677546E+01  0.00000000000E+00 0.  1.
<mgrwt>
<rscale>  0 0.78018768E+02</rscale>
<asrwt>0</asrwt>
<pdfrwt beam="1">  1        1 0.23604963E-02 0.78018768E+02</pdfrwt>
<pdfrwt beam="2">  1       -2 0.15258370E-01 0.78018768E+02</pdfrwt>
<totfact> 0.11338947E+05</totfact>
</mgrwt>
</event>
<event>
 8    1  0.1372337E-024  0.8116198E+02  0.7818608E-02  0.1325786E+00
         -2   -1    0    0    0  501 -0.00000000000E+00  0.00000000000E+00  0.26601720181E+03  0.26601720182E+03  0.25500000000E-02 0.  1.
          1   -1    0    0  501    0  0.00000000000E+00 -0.00000000000E+00 -0.61906392011E+01  0.61906412527E+01  0.50400000000E-02 0. -1.
        -24    2    1    2    0    0  0.71054273576E-14  0.88817841970E-15  0.25982656261E+03  0.27220784307E+03  0.81161981212E+02 0.  0.
         66    2    3    3    0    0 -0.37340287304E+02 -0.53860522424E+01  0.17990797008E+03  0.18383194585E+03  0.20000003306E+01 0.  0.
         13    1    3    3    0    0  0.37340287304E+02  0.53860522424E+01  0.79918592525E+02  0.88375897223E+02  0.10566000000E+00 0. -1.
         13    1    4    4    0    0 -0.37276270324E+01 -0.38957946889E+00  0.16336661520E+02  0.16761403554E+02  0.10566000000E+00 0. -1.
        -13    1    4    4    0    0 -0.21159489461E+02 -0.24335651917E+01  0.10174724814E+03  0.10395268107E+03  0.10566000000E+00 0.  1.
         14    1    4    4    0    0 -0.12453170811E+02 -0.25629075819E+01  0.61824060423E+02  0.63117861226E+02  0.00000000000E+00 0. -1.
<mgrwt>
<rscale>  0 0.81161981E+02</rscale>
<asrwt>0</asrwt>
<pdfrwt beam="1">  1        1 0.95240621E-03 0.81161981E+02</pdfrwt>
<pdfrwt beam="2">  1       -2 0.40925723E-01 0.81161981E+02</pdfrwt>
<totfact> 0.72077237E+04</totfact>
</mgrwt>
</event>
<event>
 8    1  0.1372337E-024  0.7711395E+02  0.7818608E-02  0.1337447E+00
         -2   -1    0    0    0  501 -0.00000000000E+00  0.00000000000E+00  0.48884382086E+01  0.48884388737E+01  0.25500000000E-02 0.  1.
          1   -1    0    0  501    0  0.00000000000E+00 -0.00000000000E+00 -0.30411350183E+03  0.30411350187E+03  0.50400000000E-02 0. -1.
        -24    2    1    2    0    0  0.44408920985E-15  0.35527136788E-14 -0.29922506362E+03  0.30900194074E+03  0.77113946113E+02 0.  0.
         66    2    3    3    0    0 -0.31540156833E+01 -0.22695656073E+02 -0.27384158301E+03  0.27480584635E+03  0.19999966178E+01 0.  0.
         13    1    3    3    0    0  0.31540156833E+01  0.22695656073E+02 -0.25383480611E+02  0.34196094389E+02  0.10566000000E+00 0. -1.
         13    1    4    4    0    0 -0.70440714250E+00 -0.10101637067E+02 -0.12722173557E+03  0.12762413732E+03  0.10566000000E+00 0. -1.
        -13    1    4    4    0    0 -0.76676413842E+00 -0.56702326851E+01 -0.65369709947E+02  0.65619734901E+02  0.10566000000E+00 0.  1.
         14    1    4    4    0    0 -0.16828444024E+01 -0.69237863212E+01 -0.81250137487E+02  0.81561974130E+02  0.00000000000E+00 0. -1.
<mgrwt>
<rscale>  0 0.77113946E+02</rscale>
<asrwt>0</asrwt>
<pdfrwt beam="1">  1        1 0.46786678E-01 0.77113946E+02</pdfrwt>
<pdfrwt beam="2">  1       -2 0.75206771E-03 0.77113946E+02</pdfrwt>
<totfact> 0.19924072E+05</totfact>
</mgrwt>
</event>
<event>
 8    1  0.1372337E-024  0.8149289E+02  0.7818608E-02  0.1324867E+00
          1   -1    0    0  501    0  0.00000000000E+00  0.00000000000E+00  0.74667001767E+02  0.74667001937E+02  0.50400000000E-02 0. -1.
         -2   -1    0    0    0  501 -0.00000000000E+00 -0.00000000000E+00 -0.22235695977E+02  0.22235696123E+02  0.25500000000E-02 0.  1.
        -24    2    1    2    0    0 -0.17763568394E-14  0.88817841970E-15  0.52431305790E+02  0.96902698060E+02  0.81492889656E+02 0.  0.
         66    2    3    3    0    0  0.15803409348E+02 -0.72055056601E+01 -0.17565380484E+02  0.24783253302E+02  0.19999984684E+01 0.  0.
         13    1    3    3    0    0 -0.15803409348E+02  0.72055056601E+01  0.69996686274E+02  0.72119444758E+02  0.10566000000E+00 0. -1.
         13    1    4    4    0    0  0.24064103506E+01 -0.16449699004E+01 -0.23976525054E+01  0.37757963823E+01  0.10566000000E+00 0. -1.
        -13    1    4    4    0    0  0.96565471882E+01 -0.40119068110E+01 -0.10327323334E+02  0.14697247060E+02  0.10566000000E+00 0.  1.
         14    1    4    4    0    0  0.37404518089E+01 -0.15486289487E+01 -0.48404046451E+01  0.63102098605E+01  0.00000000000E+00 0. -1.
<mgrwt>
<rscale>  0 0.81492890E+02</rscale>
<asrwt>0</asrwt>
<pdfrwt beam="1">  1        1 0.11487231E-01 0.81492890E+02</pdfrwt>
<pdfrwt beam="2">  1       -2 0.34208763E-02 0.81492890E+02</pdfrwt>
<totfact> 0.13322628E+05</totfact>
</mgrwt>
</event>
<event>
 8    1  0.1372337E-024  0.7855537E+02  0.7818608E-02  0.1333202E+00
          1   -1    0    0  501    0  0.00000000000E+00  0.00000000000E+00  0.18256152951E+03  0.18256152958E+03  0.50400000000E-02 0. -1.
         -2   -1    0    0    0  501 -0.00000000000E+00 -0.00000000000E+00 -0.84505005670E+01  0.84505009517E+01  0.25500000000E-02 0.  1.
        -24    2    1    2    0    0 -0.44408920985E-15  0.00000000000E+00  0.17411102895E+03  0.19101203053E+03  0.78555365241E+02 0.  0.
         66    2    3    3    0    0  0.25458274935E+01 -0.39168900517E+02  0.87641228105E+02  0.96050345488E+02  0.19999998172E+01 0.  0.
         13    1    3    3    0    0 -0.25458274935E+01  0.39168900517E+02  0.86469800841E+02  0.94961685046E+02  0.10566000000E+00 0. -1.
         13    1    4    4    0    0  0.96120198102E+00 -0.92368379739E+01  0.22432691863E+02  0.24279207427E+02  0.10566000000E+00 0. -1.
        -13    1    4    4    0    0  0.13021210586E+00 -0.79587448124E+01  0.17136740410E+02  0.18895438870E+02  0.10566000000E+00 0.  1.
        -14    1    4    4    0    0  0.14544134066E+01 -0.21973317731E+02  0.48071795833E+02  0.52875699192E+02  0.00000000000E+00 0.  1.
<mgrwt>
<rscale>  0 0.78555365E+02</rscale>
<asrwt>0</asrwt>
<pdfrwt beam="1">  1        1 0.28086389E-01 0.78555365E+02</pdfrwt>
<pdfrwt beam="2">  1       -2 0.13000770E-02 0.78555365E+02</pdfrwt>
<totfact> 0.17195556E+05</totfact>
</mgrwt>
</event>
<event>
 8    1  0.1372337E-024  0.8037913E+02  0.7818608E-02  0.1327979E+00
         -2   -1    0    0    0  501 -0.00000000000E+00  0.00000000000E+00  0.28532755891E+01  0.28532767286E+01  0.25500000000E-02 0.  1.
          1   -1    0    0  501    0  0.00000000000E+00 -0.00000000000E+00 -0.56608654120E+03  0.56608654122E+03  0.50400000000E-02 0. -1.
        -24    2    1    2    0    0 -0.71054273576E-14  0.35527136788E-14 -0.56323326561E+03  0.56893981795E+03  0.80379132611E+02 0.  0.
         66    2    3    3    0    0  0.35629769843E+02 -0.15932309523E+02 -0.34889443757E+03  0.35107641269E+03  0.19999969673E+01 0.  0.
         13    1    3    3    0    0 -0.35629769843E+02  0.15932309523E+02 -0.21433882803E+03  0.21786340526E+03  0.10566000000E+00 0. -1.
         13    1    4    4    0    0  0.34887684889E+01 -0.14263609992E+01 -0.37319361474E+02  0.37509357714E+02  0.10566000000E+00 0. -1.
        -13    1    4    4    0    0  0.27872936288E+02 -0.13038599511E+02 -0.27309257331E+03  0.27482079692E+03  0.10566000000E+00 0.  1.
        -14    1    4    4    0    0  0.42680650663E+01 -0.14673490132E+01 -0.38482502787E+02  0.38746258056E+02  0.00000000000E+00 0.  1.
<mgrwt>
<rscale>  0 0.80379133E+02</rscale>
<asrwt>0</asrwt>
<pdfrwt beam="1">  1        1 0.87090148E-01 0.80379133E+02</pdfrwt>
<pdfrwt beam="2">  1       -2 0.43896601E-03 0.80379133E+02</pdfrwt>
<totfact> 0.19609758E+05</totfact>
</mgrwt>
</event>
<event>
 8    1  0.1372337E-024  0.8087059E+02  0.7818608E-02  0.1326599E+00
          1   -1    0    0  501    0  0.00000000000E+00  0.00000000000E+00  0.10883897214E+02  0.10883898381E+02  0.50400000000E-02 0. -1.
         -2   -1    0    0    0  501 -0.00000000000E+00 -0.00000000000E+00 -0.15022312533E+03  0.15022312535E+03  0.25500000000E-02 0.  1.
        -24    2    1    2    0    0  0.00000000000E+00  0.00000000000E+00 -0.13933922811E+03  0.16110702373E+03  0.80870591711E+02 0.  0.
         66    2    3    3    0    0 -0.79330520259E+01  0.39621411109E+02 -0.68780638282E+02  0.79797028675E+02  0.20000125395E+01 0.  0.
         13    1    3    3    0    0  0.79330520259E+01 -0.39621411109E+02 -0.70558589832E+02  0.81309995055E+02  0.10566000000E+00 0. -1.
         13    1    4    4    0    0 -0.11993298826E+00  0.82248772327E+00 -0.13710971067E+01  0.16068420234E+01  0.10566000000E+00 0.  1.
        -13    1    4    4    0    0 -0.65986503168E+01  0.31097171188E+02 -0.52844036726E+02  0.61669114016E+02  0.10566000000E+00 0.  1.
        -14    1    4    4    0    0 -0.12144687209E+01  0.77017521976E+01 -0.14565504449E+02  0.16521072636E+02  0.00000000000E+00 0.  1.
<mgrwt>
<rscale>  0 0.80870592E+02</rscale>
<asrwt>0</asrwt>
<pdfrwt beam="1">  1        1 0.16744459E-02 0.80870592E+02</pdfrwt>
<pdfrwt beam="2">  1       -2 0.23111249E-01 0.80870592E+02</pdfrwt>
<totfact> 0.91868253E+04</totfact>
</mgrwt>
</event>
<event>
 8    1  0.1372337E-024  0.7960500E+02  0.7818608E-02  0.1330176E+00
          1   -1    0    0  501    0  0.00000000000E+00  0.00000000000E+00  0.10033603812E+02  0.10033605078E+02  0.50400000000E-02 0. -1.
         -2   -1    0    0    0  501 -0.00000000000E+00 -0.00000000000E+00 -0.15789330084E+03  0.15789330086E+03  0.25500000000E-02 0.  1.
        -24    2    1    2    0    0  0.22204460493E-15  0.00000000000E+00 -0.14785969703E+03  0.16792690594E+03  0.79604998165E+02 0.  0.
         66    2    3    3    0    0 -0.14655895504E+01  0.32881701993E+02 -0.12109340972E+03  0.12550286112E+03  0.19999981772E+01 0.  0.
         13    1    3    3    0    0  0.14655895504E+01 -0.32881701993E+02 -0.26766287312E+02  0.42424044824E+02  0.10566000000E+00 0. -1.
         13    1    4    4    0    0 -0.16705566622E+01  0.27438449606E+02 -0.10293590907E+03  0.10654328612E+03  0.10566000000E+00 0. -1.
        -13    1    4    4    0    0 -0.50907311302E-01  0.14018844815E+01 -0.46949236147E+01  0.49011573569E+01  0.10566000000E+00 0.  1.
         14    1    4    4    0    0  0.25587442313E+00  0.40413679050E+01 -0.13462577030E+02  0.14058417640E+02  0.00000000000E+00 0. -1.
<mgrwt>
<rscale>  0 0.79604998E+02</rscale>
<asrwt>0</asrwt>
<pdfrwt beam="1">  1        1 0.15436316E-02 0.79604998E+02</pdfrwt>
<pdfrwt beam="2">  1       -2 0.24291275E-01 0.79604998E+02</pdfrwt>
<totfact> 0.94093466E+04</totfact>
</mgrwt>
</event>
<event>
 8    1  0.1372337E-024  0.7733266E+02  0.7818608E-02  0.1336796E+00
          1   -1    0    0  501    0  0.00000000000E+00  0.00000000000E+00  0.88180094138E+02  0.88180094282E+02  0.50400000000E-02 0. -1.
         -2   -1    0    0    0  501 -0.00000000000E+00 -0.00000000000E+00 -0.16954902898E+02  0.16954903090E+02  0.25500000000E-02 0.  1.
        -24    2    1    2    0    0  0.00000000000E+00  0.00000000000E+00  0.71225191240E+02  0.10513499737E+03  0.77332656783E+02 0.  0.
         66    2    3    3    0    0 -0.43883730414E+01  0.17652656138E+02 -0.10711109559E+02  0.21203819378E+02  0.20000003877E+01 0.  0.
         13    1    3    3    0    0  0.43883730414E+01 -0.17652656138E+02  0.81936300799E+02  0.83931177993E+02  0.10566000000E+00 0. -1.
         13    1    4    4    0    0 -0.12848378351E+01  0.33230171238E+01 -0.14175769458E+01  0.38358753239E+01  0.10566000000E+00 0. -1.
        -13    1    4    4    0    0 -0.13977258528E+00  0.11619460293E+01 -0.72846782944E+00  0.13825644161E+01  0.10566000000E+00 0.  1.
        -14    1    4    4    0    0 -0.29637626210E+01  0.13167692985E+02 -0.85650647841E+01  0.15985379638E+02  0.00000000000E+00 0.  1.
<mgrwt>
<rscale>  0 0.77332657E+02</rscale>
<asrwt>0</asrwt>
<pdfrwt beam="1">  1        1 0.13566169E-01 0.77332657E+02</pdfrwt>
<pdfrwt beam="2">  1       -2 0.26084466E-02 0.77332657E+02</pdfrwt>
<totfact> 0.15779650E+05</totfact>
</mgrwt>
</event>
<event>
 8    1  0.1372337E-024  0.8774257E+02  0.7818608E-02  0.1308412E+00
         -2   -1    0    0    0  501 -0.00000000000E+00  0.00000000000E+00  0.37106582809E+01  0.37106591571E+01  0.25500000000E-02 0.  1.
          1   -1    0    0  501    0  0.00000000000E+00 -0.00000000000E+00 -0.51869222905E+03  0.51869222907E+03  0.50400000000E-02 0. -1.
        -24    2    1    2    0    0  0.71054273576E-14  0.00000000000E+00 -0.51498157077E+03  0.52240288823E+03  0.87742574620E+02 0.  0.
         66    2    3    3    0    0 -0.34932461460E+02 -0.17808438076E+02 -0.37448701333E+03  0.37653942754E+03  0.20000025235E+01 0.  0.
         13    1    3    3    0    0  0.34932461460E+02  0.17808438076E+02 -0.14049455743E+03  0.14586346068E+03  0.10566000000E+00 0. -1.
         13    1    4    4    0    0 -0.11009145146E+02 -0.53430552271E+01 -0.12232777235E+03  0.12293837712E+03  0.10566000000E+00 0. -1.
        -13    1    4    4    0    0 -0.23504528490E+02 -0.12305846457E+02 -0.24635226112E+03  0.24777680367E+03  0.10566000000E+00 0.  1.
        -14    1    4    4    0    0 -0.41878782429E+00 -0.15953639214E+00 -0.58069798605E+01  0.58242467497E+01  0.00000000000E+00 0.  1.
<mgrwt>
<rscale>  0 0.87742575E+02</rscale>
<asrwt>0</asrwt>
<pdfrwt beam="1">  1        1 0.79798747E-01 0.87742575E+02</pdfrwt>
<pdfrwt beam="2">  1       -2 0.57087098E-03 0.87742575E+02</pdfrwt>
<totfact> 0.15440470E+05</totfact>
</mgrwt>
</event>
<event>
 8    1  0.1372337E-024  0.7767874E+02  0.7818608E-02  0.1335771E+00
         -2   -1    0    0    0  501 -0.00000000000E+00  0.00000000000E+00  0.33189448950E+02  0.33189449048E+02  0.25500000000E-02 0.  1.
          1   -1    0    0  501    0  0.00000000000E+00 -0.00000000000E+00 -0.45451085229E+02  0.45451085508E+02  0.50400000000E-02 0. -1.
        -24    2    1    2    0    0  0.35527136788E-14 -0.35527136788E-14 -0.12261636278E+02  0.78640534556E+02  0.77678735514E+02 0.  0.
         66    2    3    3    0    0  0.22350803930E+02 -0.17082271777E+02  0.20938138799E+02  0.35125035311E+02  0.20000009670E+01 0.  0.
         13    1    3    3    0    0 -0.22350803930E+02  0.17082271777E+02 -0.33199775077E+02  0.43515499245E+02  0.10566000000E+00 0. -1.
         13    1    4    4    0    0  0.47375584470E+01 -0.35206233451E+01  0.51692848136E+01  0.78467775740E+01  0.10566000000E+00 0. -1.
        -13    1    4    4    0    0  0.13491033512E+02 -0.10338354830E+02  0.12634409289E+02  0.21178503912E+02  0.10566000000E+00 0.  1.
         14    1    4    4    0    0  0.41222119715E+01 -0.32232936017E+01  0.31344446957E+01  0.60997538254E+01  0.00000000000E+00 0. -1.
<mgrwt>
<rscale>  0 0.77678736E+02</rscale>
<asrwt>0</asrwt>
<pdfrwt beam="1">  1        1 0.69924746E-02 0.77678736E+02</pdfrwt>
<pdfrwt beam="2">  1       -2 0.51060691E-02 0.77678736E+02</pdfrwt>
<totfact> 0.14069542E+05</totfact>
</mgrwt>
</event>
<event>
 8    1  0.1372337E-024  0.8011689E+02  0.7818608E-02  0.1328720E+00
          1   -1    0    0  501    0  0.00000000000E+00  0.00000000000E+00  0.17596431582E+03  0.17596431589E+03  0.50400000000E-02 0. -1.
         -2   -1    0    0    0  501 -0.00000000000E+00 -0.00000000000E+00 -0.91193440124E+01  0.91193443689E+01  0.25500000000E-02 0.  1.
        -24    2    1    2    0    0 -0.35527136788E-14  0.35527136788E-14  0.16684497180E+03  0.18508366026E+03  0.80116893836E+02 0.  0.
         66    2    3    3    0    0  0.28546022171E+02 -0.27394852250E+02  0.69361296715E+02  0.79877047421E+02  0.19999777984E+01 0.  0.
         13    1    3    3    0    0 -0.28546022171E+02  0.27394852250E+02  0.97483675088E+02  0.10520661284E+03  0.10566000000E+00 0. -1.
         13    1    4    4    0    0  0.19504465439E+01 -0.24818598809E+01  0.56432397858E+01  0.64669304547E+01  0.10566000000E+00 0. -1.
        -13    1    4    4    0    0  0.17040756822E+02 -0.15285870523E+02  0.39911104723E+02  0.46010353997E+02  0.10566000000E+00 0.  1.
        -14    1    4    4    0    0  0.95548188050E+01 -0.96271218455E+01  0.23806952206E+02  0.27399762969E+02  0.00000000000E+00 0.  1.
<mgrwt>
<rscale>  0 0.80116894E+02</rscale>
<asrwt>0</asrwt>
<pdfrwt beam="1">  1        1 0.27071431E-01 0.80116894E+02</pdfrwt>
<pdfrwt beam="2">  1       -2 0.14029761E-02 0.80116894E+02</pdfrwt>
<totfact> 0.16204626E+05</totfact>
</mgrwt>
</event>
<event>
 8    1  0.1372337E-024  0.7877430E+02  0.7818608E-02  0.1332566E+00
         -2   -1    0    0    0  501 -0.00000000000E+00  0.00000000000E+00  0.22996837654E+02  0.22996837795E+02  0.25500000000E-02 0.  1.
          1   -1    0    0  501    0  0.00000000000E+00 -0.00000000000E+00 -0.67459170235E+02  0.67459170423E+02  0.50400000000E-02 0. -1.
        -24    2    1    2    0    0  0.00000000000E+00 -0.88817841970E-15 -0.44462332582E+02  0.90456008218E+02  0.78774300404E+02 0.  0.
         66    2    3    3    0    0  0.35830151407E+02  0.45758441436E+01 -0.42863346669E+01  0.36429532561E+02  0.20000195555E+01 0.  0.
         13    1    3    3    0    0 -0.35830151407E+02 -0.45758441436E+01 -0.40175997915E+02  0.54026475658E+02  0.10566000000E+00 0. -1.
         13    1    4    4    0    0  0.32738457189E+01  0.14334762434E-01 -0.37544753887E+00  0.32970283843E+01  0.10566000000E+00 0. -1.
        -13    1    4    4    0    0  0.24791389407E+02  0.29820638759E+01 -0.32529249779E+01  0.25181310106E+02  0.10566000000E+00 0.  1.
        -14    1    4    4    0    0  0.77649162815E+01  0.15794455053E+01 -0.65796215009E+00  0.79511940710E+01  0.00000000000E+00 0.  1.
<mgrwt>
<rscale>  0 0.78774300E+02</rscale>
<asrwt>0</asrwt>
<pdfrwt beam="1">  1        1 0.10378334E-01 0.78774300E+02</pdfrwt>
<pdfrwt beam="2">  1       -2 0.35379751E-02 0.78774300E+02</pdfrwt>
<totfact> 0.14385553E+05</totfact>
</mgrwt>
</event>
<event>
 8    1  0.1372337E-024  0.7983740E+02  0.7818608E-02  0.1329514E+00
         -2   -1    0    0    0  501 -0.00000000000E+00  0.00000000000E+00  0.19232349129E+02  0.19232349298E+02  0.25500000000E-02 0.  1.
          1   -1    0    0  501    0  0.00000000000E+00 -0.00000000000E+00 -0.82855321901E+02  0.82855322054E+02  0.50400000000E-02 0. -1.
        -24    2    1    2    0    0  0.00000000000E+00 -0.17763568394E-14 -0.63622972773E+02  0.10208767135E+03  0.79837397112E+02 0.  0.
         66    2    3    3    0    0 -0.10764400145E+02 -0.14986066252E+02  0.13396155257E+02  0.22889112409E+02  0.19999997421E+01 0.  0.
         13    1    3    3    0    0  0.10764400145E+02  0.14986066252E+02 -0.77019128030E+02  0.79198558944E+02  0.10566000000E+00 0. -1.
         13    1    4    4    0    0 -0.49837164957E+01 -0.68695412531E+01  0.49581016762E+01  0.98296471659E+01  0.10566000000E+00 0. -1.
        -13    1    4    4    0    0 -0.51456836133E+01 -0.73112022072E+01  0.75204916703E+01  0.11683351256E+02  0.10566000000E+00 0.  1.
         14    1    4    4    0    0 -0.63500003591E+00 -0.80532279192E+00  0.91756191105E+00  0.13761139871E+01  0.00000000000E+00 0. -1.
<mgrwt>
<rscale>  0 0.79837397E+02</rscale>
<asrwt>0</asrwt>
<pdfrwt beam="1">  1        1 0.12746973E-01 0.79837397E+02</pdfrwt>
<pdfrwt beam="2">  1       -2 0.29588230E-02 0.79837397E+02</pdfrwt>
<totfact> 0.14328996E+05</totfact>
</mgrwt>
</event>
<event>
 8    1  0.1372337E-024  0.8065123E+02  0.7818608E-02  0.1327213E+00
          1   -1    0    0  501    0  0.00000000000E+00  0.00000000000E+00  0.55070580550E+02  0.55070580781E+02  0.50400000000E-02 0. -1.
         -2   -1    0    0    0  501 -0.00000000000E+00 -0.00000000000E+00 -0.29528565953E+02  0.29528566063E+02  0.25500000000E-02 0.  1.
        -24    2    1    2    0    0  0.00000000000E+00  0.00000000000E+00  0.25542014597E+02  0.84599146844E+02  0.80651231466E+02 0.  0.
         66    2    3    3    0    0 -0.34481884346E+02  0.42886554438E+01  0.34192781772E+02  0.48790770026E+02  0.20000001941E+01 0.  0.
         13    1    3    3    0    0  0.34481884346E+02 -0.42886554438E+01 -0.86507671753E+01  0.35808376818E+02  0.10566000000E+00 0. -1.
         13    1    4    4    0    0 -0.15676123379E+02  0.14501064931E+01  0.14352724527E+02  0.21303885055E+02  0.10566000000E+00 0. -1.
        -13    1    4    4    0    0 -0.14909200254E+02  0.23970784742E+01  0.15626226069E+02  0.21730631436E+02  0.10566000000E+00 0.  1.
        -14    1    4    4    0    0 -0.38965607138E+01  0.44147047652E+00  0.42138311760E+01  0.57562535349E+01  0.00000000000E+00 0.  1.
<mgrwt>
<rscale>  0 0.80651231E+02</rscale>
<asrwt>0</asrwt>
<pdfrwt beam="1">  1        1 0.84723969E-02 0.80651231E+02</pdfrwt>
<pdfrwt beam="2">  1       -2 0.45428564E-02 0.80651231E+02</pdfrwt>
<totfact> 0.13061347E+05</totfact>
</mgrwt>
</event>
<event>
 8    1  0.1372337E-024  0.7913454E+02  0.7818608E-02  0.1331526E+00
          1   -1    0    0  501    0  0.00000000000E+00  0.00000000000E+00  0.10634273996E+02  0.10634275190E+02  0.50400000000E-02 0. -1.
         -2   -1    0    0    0  501 -0.00000000000E+00 -0.00000000000E+00 -0.14721916185E+03  0.14721916188E+03  0.25500000000E-02 0.  1.
        -24    2    1    2    0    0  0.00000000000E+00  0.35527136788E-14 -0.13658488786E+03  0.15785343707E+03  0.79134543674E+02 0.  0.
         66    2    3    3    0    0  0.35878507646E+02  0.16296399474E+02 -0.74868279867E+02  0.84629186899E+02  0.19999995440E+01 0.  0.
         13    1    3    3    0    0 -0.35878507646E+02 -0.16296399474E+02 -0.61716607990E+02  0.73224250167E+02  0.10566000000E+00 0. -1.
         13    1    4    4    0    0  0.90141360288E+01  0.33027762099E+01 -0.18526879903E+02  0.20866706066E+02  0.10566000000E+00 0. -1.
        -13    1    4    4    0    0  0.18918540683E+02  0.89551468126E+01 -0.38744467070E+02  0.44036924604E+02  0.10566000000E+00 0.  1.
        -14    1    4    4    0    0  0.79458309344E+01  0.40384764511E+01 -0.17596932893E+02  0.19725556229E+02  0.00000000000E+00 0.  1.
<mgrwt>
<rscale>  0 0.79134544E+02</rscale>
<asrwt>0</asrwt>
<pdfrwt beam="1">  1        1 0.16360424E-02 0.79134544E+02</pdfrwt>
<pdfrwt beam="2">  1       -2 0.22649100E-01 0.79134544E+02</pdfrwt>
<totfact> 0.97787489E+04</totfact>
</mgrwt>
</event>
<event>
 8    1  0.1372337E-024  0.8124413E+02  0.7818608E-02  0.1325557E+00
          1   -1    0    0  501    0  0.00000000000E+00  0.00000000000E+00  0.17333545686E+03  0.17333545693E+03  0.50400000000E-02 0. -1.
         -2   -1    0    0    0  501 -0.00000000000E+00 -0.00000000000E+00 -0.95199919634E+01  0.95199923049E+01  0.25500000000E-02 0.  1.
        -24    2    1    2    0    0  0.00000000000E+00  0.00000000000E+00  0.16381546490E+03  0.18285544924E+03  0.81244130722E+02 0.  0.
         66    2    3    3    0    0  0.10047196241E+02 -0.36169753511E+02  0.47166028894E+02  0.60314438531E+02  0.19999980849E+01 0.  0.
         13    1    3    3    0    0 -0.10047196241E+02  0.36169753511E+02  0.11664943600E+03  0.12254101071E+03  0.10566000000E+00 0. -1.
         13    1    4    4    0    0  0.56275522566E+01 -0.22618033803E+02  0.29980384595E+02  0.37974720829E+02  0.10566000000E+00 0. -1.
        -13    1    4    4    0    0  0.14492237438E+01 -0.39832309746E+01  0.46650113414E+01  0.63039569564E+01  0.10566000000E+00 0.  1.
        -14    1    4    4    0    0  0.29704202402E+01 -0.95684887332E+01  0.12520632957E+02  0.16035760746E+02  0.00000000000E+00 0.  1.
<mgrwt>
<rscale>  0 0.81244131E+02</rscale>
<asrwt>0</asrwt>
<pdfrwt beam="1">  1        1 0.26666993E-01 0.81244131E+02</pdfrwt>
<pdfrwt beam="2">  1       -2 0.14646142E-02 0.81244131E+02</pdfrwt>
<totfact> 0.15567629E+05</totfact>
</mgrwt>
</event>
<event>
 8    1  0.1372337E-024  0.8233740E+02  0.7818608E-02  0.1322546E+00
          1   -1    0    0  501    0  0.00000000000E+00  0.00000000000E+00  0.14043160925E+02  0.14043161830E+02  0.50400000000E-02 0. -1.
         -2   -1    0    0    0  501 -0.00000000000E+00 -0.00000000000E+00 -0.12068947445E+03  0.12068947448E+03  0.25500000000E-02 0.  1.
        -24    2    1    2    0    0  0.00000000000E+00  0.00000000000E+00 -0.10664631352E+03  0.13473263631E+03  0.82337397928E+02 0.  0.
         66    2    3    3    0    0 -0.75002683787E+01  0.22644878702E+02 -0.10821032964E+03  0.11082653107E+03  0.19999979265E+01 0.  0.
         13    1    3    3    0    0  0.75002683787E+01 -0.22644878702E+02  0.15640161116E+01  0.23906105237E+02  0.10566000000E+00 0. -1.
         13    1    4    4    0    0 -0.52025950162E+01  0.13368629647E+02 -0.67078007512E+02  0.68594879615E+02  0.10566000000E+00 0. -1.
        -13    1    4    4    0    0 -0.16031934998E+01  0.57782688105E+01 -0.24880427734E+02  0.25593074612E+02  0.10566000000E+00 0.  1.
         14    1    4    4    0    0 -0.69447986269E+00  0.34979802438E+01 -0.16251894390E+02  0.16638576842E+02  0.00000000000E+00 0. -1.
<mgrwt>
<rscale>  0 0.82337398E+02</rscale>
<asrwt>0</asrwt>
<pdfrwt beam="1">  1        1 0.21604865E-02 0.82337398E+02</pdfrwt>
<pdfrwt beam="2">  1       -2 0.18567611E-01 0.82337398E+02</pdfrwt>
<totfact> 0.93781977E+04</totfact>
</mgrwt>
</event>
<event>
 8    1  0.1372337E-024  0.8529933E+02  0.7818608E-02  0.1314652E+00
          1   -1    0    0  501    0  0.00000000000E+00  0.00000000000E+00  0.35042844709E+02  0.35042845071E+02  0.50400000000E-02 0. -1.
         -2   -1    0    0    0  501 -0.00000000000E+00 -0.00000000000E+00 -0.51907712684E+02  0.51907712747E+02  0.25500000000E-02 0.  1.
        -24    2    1    2    0    0 -0.35527136788E-14  0.00000000000E+00 -0.16864867976E+02  0.86950557818E+02  0.85299330203E+02 0.  0.
         66    2    3    3    0    0  0.24385442915E+02  0.15940394677E+02 -0.40156013860E+02  0.49651299793E+02  0.20000283529E+01 0.  0.
         13    1    3    3    0    0 -0.24385442915E+02 -0.15940394677E+02  0.23291145884E+02  0.37299258025E+02  0.10566000000E+00 0. -1.
         13    1    4    4    0    0  0.61613096227E+01  0.36890955767E+01 -0.95805479350E+01  0.11973688872E+02  0.10566000000E+00 0. -1.
        -13    1    4    4    0    0  0.13754943778E+02  0.91949626591E+01 -0.21828452779E+02  0.27390478846E+02  0.10566000000E+00 0.  1.
        -14    1    4    4    0    0  0.44691895144E+01  0.30563364415E+01 -0.87470131452E+01  0.10287132075E+02  0.00000000000E+00 0.  1.
<mgrwt>
<rscale>  0 0.85299330E+02</rscale>
<asrwt>0</asrwt>
<pdfrwt beam="1">  1        1 0.53912069E-02 0.85299330E+02</pdfrwt>
<pdfrwt beam="2">  1       -2 0.79858020E-02 0.85299330E+02</pdfrwt>
<totfact> 0.10340357E+05</totfact>
</mgrwt>
</event>
<event>
 8    1  0.1372337E-024  0.8078869E+02  0.7818608E-02  0.1326828E+00
         -2   -1    0    0    0  501 -0.00000000000E+00  0.00000000000E+00  0.44408806533E+01  0.44408813854E+01  0.25500000000E-02 0.  1.
          1   -1    0    0  501    0  0.00000000000E+00 -0.00000000000E+00 -0.36742778750E+03  0.36742778754E+03  0.50400000000E-02 0. -1.
        -24    2    1    2    0    0  0.00000000000E+00  0.00000000000E+00 -0.36298690685E+03  0.37186866892E+03  0.80788689692E+02 0.  0.
         66    2    3    3    0    0  0.43783480811E+01  0.38155094670E+02 -0.23885865288E+03  0.24193477890E+03  0.20000000228E+01 0.  0.
         13    1    3    3    0    0 -0.43783480811E+01 -0.38155094670E+02 -0.12412825396E+03  0.12993389003E+03  0.10566000000E+00 0. -1.
         13    1    4    4    0    0  0.47638359348E-02  0.15381914623E+00 -0.10484343614E+01  0.10649233163E+01  0.10566000000E+00 0.  1.
        -13    1    4    4    0    0  0.35919623881E-01  0.81183067688E+00 -0.43921840401E+01  0.44679753743E+01  0.10566000000E+00 0.  1.
        -14    1    4    4    0    0  0.43376646213E+01  0.37189444847E+02 -0.23341803448E+03  0.23640188020E+03  0.00000000000E+00 0.  1.
<mgrwt>
<rscale>  0 0.80788690E+02</rscale>
<asrwt>0</asrwt>
<pdfrwt beam="1">  1        1 0.56527328E-01 0.80788690E+02</pdfrwt>
<pdfrwt beam="2">  1       -2 0.68321275E-03 0.80788690E+02</pdfrwt>
<totfact> 0.18245611E+05</totfact>
</mgrwt>
</event>
<event>
 8    1  0.1372337E-024  0.8405694E+02  0.7818608E-02  0.1317917E+00
          1   -1    0    0  501    0  0.00000000000E+00  0.00000000000E+00  0.14135703435E+03  0.14135703444E+03  0.50400000000E-02 0. -1.
         -2   -1    0    0    0  501 -0.00000000000E+00 -0.00000000000E+00 -0.12495961817E+02  0.12495962077E+02  0.25500000000E-02 0.  1.
        -24    2    1    2    0    0  0.00000000000E+00  0.00000000000E+00  0.12886107253E+03  0.15385299652E+03  0.84056936199E+02 0.  0.
         66    2    3    3    0    0 -0.17247640003E+02  0.36975499367E+02  0.82744554289E+02  0.92278545176E+02  0.19999990345E+01 0.  0.
         13    1    3    3    0    0  0.17247640003E+02 -0.36975499367E+02  0.46116518245E+02  0.61574451343E+02  0.10566000000E+00 0. -1.
         13    1    4    4    0    0 -0.10237927175E+02  0.23324120982E+02  0.53266043571E+02  0.59043308971E+02  0.10566000000E+00 0. -1.
        -13    1    4    4    0    0 -0.63456384680E+01  0.12531498026E+02  0.26920127637E+02  0.30364617672E+02  0.10566000000E+00 0.  1.
         14    1    4    4    0    0 -0.66407436084E+00  0.11198803590E+01  0.25583830807E+01  0.28706185331E+01  0.00000000000E+00 0. -1.
<mgrwt>
<rscale>  0 0.84056936E+02</rscale>
<asrwt>0</asrwt>
<pdfrwt beam="1">  1        1 0.21747237E-01 0.84056936E+02</pdfrwt>
<pdfrwt beam="2">  1       -2 0.19224556E-02 0.84056936E+02</pdfrwt>
<totfact> 0.13675773E+05</totfact>
</mgrwt>
</event>
<event>
 8    1  0.1372337E-024  0.7988752E+02  0.7818608E-02  0.1329371E+00
         -2   -1    0    0    0  501 -0.00000000000E+00  0.00000000000E+00  0.95142552089E+01  0.95142555507E+01  0.25500000000E-02 0.  1.
          1   -1    0    0  501    0  0.00000000000E+00 -0.00000000000E+00 -0.16769616196E+03  0.16769616204E+03  0.50400000000E-02 0. -1.
        -24    2    1    2    0    0  0.11102230246E-15 -0.35527136788E-14 -0.15818190675E+03  0.17721041759E+03  0.79887523918E+02 0.  0.
         66    2    3    3    0    0  0.62228476765E+00 -0.27679637167E+02 -0.14292997626E+03  0.14560057577E+03  0.19999994475E+01 0.  0.
         13    1    3    3    0    0 -0.62228476765E+00  0.27679637167E+02 -0.15251930488E+02  0.31609841817E+02  0.10566000000E+00 0. -1.
         13    1    4    4    0    0  0.21699310545E+00 -0.88646669418E+01 -0.42874537965E+02  0.43782034852E+02  0.10566000000E+00 0.  1.
        -13    1    4    4    0    0  0.59195195615E+00 -0.10753201532E+02 -0.54256609083E+02  0.55315210779E+02  0.10566000000E+00 0. -1.
         14    1    4    4    0    0 -0.18666029396E+00 -0.80617686935E+01 -0.45798829215E+02  0.46503330139E+02  0.00000000000E+00 0. -1.
<mgrwt>
<rscale>  0 0.79887524E+02</rscale>
<asrwt>0</asrwt>
<pdfrwt beam="1">  1        1 0.25799407E-01 0.79887524E+02</pdfrwt>
<pdfrwt beam="2">  1       -2 0.14637317E-02 0.79887524E+02</pdfrwt>
<totfact> 0.16180842E+05</totfact>
</mgrwt>
</event>
<event>
 8    1  0.1372337E-024  0.8447925E+02  0.7818608E-02  0.1316800E+00
         -2   -1    0    0    0  501 -0.00000000000E+00  0.00000000000E+00  0.25985426321E+03  0.25985426322E+03  0.25500000000E-02 0.  1.
          1   -1    0    0  501    0  0.00000000000E+00 -0.00000000000E+00 -0.68661019782E+01  0.68661038280E+01  0.50400000000E-02 0. -1.
        -24    2    1    2    0    0  0.00000000000E+00  0.00000000000E+00  0.25298816123E+03  0.26672036705E+03  0.84479254708E+02 0.  0.
         66    2    3    3    0    0 -0.36792936402E+02 -0.19823818510E+02  0.10775947208E+03  0.11559761143E+03  0.19999990195E+01 0.  0.
         13    1    3    3    0    0  0.36792936402E+02  0.19823818510E+02  0.14522868915E+03  0.15112275562E+03  0.10566000000E+00 0. -1.
         13    1    4    4    0    0 -0.58001264677E+01 -0.27724712131E+01  0.15116145471E+02  0.16426718528E+02  0.10566000000E+00 0. -1.
        -13    1    4    4    0    0 -0.29884184220E+02 -0.16518272593E+02  0.88991732874E+02  0.95317666148E+02  0.10566000000E+00 0.  1.
         14    1    4    4    0    0 -0.11086257139E+01 -0.53307470408E+00  0.36515937350E+01  0.38532267542E+01  0.00000000000E+00 0. -1.
<mgrwt>
<rscale>  0 0.84479255E+02</rscale>
<asrwt>0</asrwt>
<pdfrwt beam="1">  1        1 0.10563234E-02 0.84479255E+02</pdfrwt>
<pdfrwt beam="2">  1       -2 0.39977584E-01 0.84479255E+02</pdfrwt>
<totfact> 0.65735125E+04</totfact>
</mgrwt>
</event>
<event>
 8    1  0.1372337E-024  0.7842529E+02  0.7818608E-02  0.1333581E+00
          1   -1    0    0  501    0  0.00000000000E+00  0.00000000000E+00  0.73852593040E+02  0.73852593212E+02  0.50400000000E-02 0. -1.
         -2   -1    0    0    0  501 -0.00000000000E+00 -0.00000000000E+00 -0.20820275842E+02  0.20820275998E+02  0.25500000000E-02 0.  1.
        -24    2    1    2    0    0  0.00000000000E+00  0.00000000000E+00  0.53032317199E+02  0.94672869210E+02  0.78425286082E+02 0.  0.
         66    2    3    3    0    0  0.13875153867E+02 -0.36634165450E+02  0.27767075093E+02  0.48058219198E+02  0.20000000434E+01 0.  0.
         13    1    3    3    0    0 -0.13875153867E+02  0.36634165450E+02  0.25265242105E+02  0.46614650012E+02  0.10566000000E+00 0. -1.
         13    1    4    4    0    0  0.99656151400E+01 -0.24196425391E+02  0.18489152735E+02  0.32041229997E+02  0.10566000000E+00 0. -1.
        -13    1    4    4    0    0  0.11202704194E+01 -0.44629850098E+01  0.34861502964E+01  0.57738764219E+01  0.10566000000E+00 0.  1.
         14    1    4    4    0    0  0.27892683079E+01 -0.79747550492E+01  0.57917720622E+01  0.10243112779E+02  0.00000000000E+00 0. -1.
<mgrwt>
<rscale>  0 0.78425286E+02</rscale>
<asrwt>0</asrwt>
<pdfrwt beam="1">  1        1 0.11361937E-01 0.78425286E+02</pdfrwt>
<pdfrwt beam="2">  1       -2 0.32031195E-02 0.78425286E+02</pdfrwt>
<totfact> 0.14768799E+05</totfact>
</mgrwt>
</event>
<event>
 8    1  0.1372337E-024  0.7754381E+02  0.7818608E-02  0.1336170E+00
          1   -1    0    0  501    0  0.00000000000E+00  0.00000000000E+00  0.11501183375E+03  0.11501183386E+03  0.50400000000E-02 0. -1.
         -2   -1    0    0    0  501 -0.00000000000E+00 -0.00000000000E+00 -0.13070485600E+02  0.13070485848E+02  0.25500000000E-02 0.  1.
        -24    2    1    2    0    0  0.00000000000E+00 -0.71054273576E-14  0.10194134815E+03  0.12808231971E+03  0.77543808001E+02 0.  0.
         66    2    3    3    0    0  0.18998843992E+01 -0.37766539144E+02  0.37053910762E+02  0.52980310851E+02  0.19999988608E+01 0.  0.
         13    1    3    3    0    0 -0.18998843992E+01  0.37766539144E+02  0.64887437389E+02  0.75102008859E+02  0.10566000000E+00 0. -1.
         13    1    4    4    0    0 -0.15800136438E+00 -0.42635951115E+01  0.42571657107E+01  0.60280868963E+01  0.10566000000E+00 0. -1.
        -13    1    4    4    0    0  0.19846117737E+01 -0.23196193872E+02  0.22182274108E+02  0.32156905054E+02  0.10566000000E+00 0.  1.
        -14    1    4    4    0    0  0.73273989888E-01 -0.10306750161E+02  0.10614470943E+02  0.14795318900E+02  0.00000000000E+00 0.  1.
<mgrwt>
<rscale>  0 0.77543808E+02</rscale>
<asrwt>0</asrwt>
<pdfrwt beam="1">  1        1 0.17694128E-01 0.77543808E+02</pdfrwt>
<pdfrwt beam="2">  1       -2 0.20108440E-02 0.77543808E+02</pdfrwt>
<totfact> 0.16369746E+05</totfact>
</mgrwt>
</event>
<event>
 8    1  0.1372337E-024  0.7943058E+02  0.7818608E-02  0.1330675E+00
          1   -1    0    0  501    0  0.00000000000E+00  0.00000000000E+00  0.64770846262E+01  0.64770865871E+01  0.50400000000E-02 0. -1.
         -2   -1    0    0    0  501 -0.00000000000E+00 -0.00000000000E+00 -0.24352067480E+03  0.24352067481E+03  0.25500000000E-02 0.  1.
        -24    2    1    2    0    0 -0.17763568394E-14  0.71054273576E-14 -0.23704359017E+03  0.24999776140E+03  0.79430580149E+02 0.  0.
         66    2    3    3    0    0  0.15873889531E+02 -0.36366344512E+02 -0.11576769967E+03  0.12239547238E+03  0.19999974988E+01 0.  0.
         13    1    3    3    0    0 -0.15873889531E+02  0.36366344512E+02 -0.12127589050E+03  0.12760228902E+03  0.10566000000E+00 0. -1.
         13    1    4    4    0    0  0.45423836741E+00 -0.74473325800E+00 -0.20839752692E+01  0.22616536159E+01  0.10566000000E+00 0.  1.
        -13    1    4    4    0    0  0.13009123872E+02 -0.30822793575E+02 -0.98823301199E+02  0.10433282289E+03  0.10566000000E+00 0.  1.
         14    1    4    4    0    0  0.24105272913E+01 -0.47988176792E+01 -0.14860423207E+02  0.15800995881E+02  0.00000000000E+00 0. -1.
<mgrwt>
<rscale>  0 0.79430580E+02</rscale>
<asrwt>0</asrwt>
<pdfrwt beam="1">  1        1 0.99647490E-03 0.79430580E+02</pdfrwt>
<pdfrwt beam="2">  1       -2 0.37464712E-01 0.79430580E+02</pdfrwt>
<totfact> 0.79530637E+04</totfact>
</mgrwt>
</event>
<event>
 8    1  0.1372337E-024  0.8047416E+02  0.7818608E-02  0.1327711E+00
          1   -1    0    0  501    0  0.00000000000E+00  0.00000000000E+00  0.14150273133E+03  0.14150273142E+03  0.50400000000E-02 0. -1.
         -2   -1    0    0    0  501 -0.00000000000E+00 -0.00000000000E+00 -0.11441635846E+02  0.11441636130E+02  0.25500000000E-02 0.  1.
        -24    2    1    2    0    0  0.00000000000E+00  0.17763568394E-14  0.13006109548E+03  0.15294436755E+03  0.80474163596E+02 0.  0.
         66    2    3    3    0    0  0.39490011146E+02 -0.64208591112E+01  0.72750610863E+02  0.83050224564E+02  0.20000018165E+01 0.  0.
         13    1    3    3    0    0 -0.39490011146E+02  0.64208591112E+01  0.57310484617E+02  0.69894142982E+02  0.10566000000E+00 0. -1.
         13    1    4    4    0    0  0.31419352047E+02 -0.51044259003E+01  0.56776929756E+02  0.65091180381E+02  0.10566000000E+00 0. -1.
        -13    1    4    4    0    0  0.52728561203E+01 -0.11541577116E+01  0.10169152569E+02  0.11513380029E+02  0.10566000000E+00 0.  1.
         14    1    4    4    0    0  0.27978029779E+01 -0.16227549932E+00  0.58045285379E+01  0.64456641541E+01  0.00000000000E+00 0. -1.
<mgrwt>
<rscale>  0 0.80474164E+02</rscale>
<asrwt>0</asrwt>
<pdfrwt beam="1">  1        1 0.21769652E-01 0.80474164E+02</pdfrwt>
<pdfrwt beam="2">  1       -2 0.17602516E-02 0.80474164E+02</pdfrwt>
<totfact> 0.15375314E+05</totfact>
</mgrwt>
</event>
<event>
 8    1  0.1372337E-024  0.7883581E+02  0.7818608E-02  0.1332388E+00
          1   -1    0    0  501    0  0.00000000000E+00  0.00000000000E+00  0.45178667198E+03  0.45178667201E+03  0.50400000000E-02 0. -1.
         -2   -1    0    0    0  501 -0.00000000000E+00 -0.00000000000E+00 -0.34391699400E+01  0.34391708853E+01  0.25500000000E-02 0.  1.
        -24    2    1    2    0    0  0.00000000000E+00  0.00000000000E+00  0.44834750204E+03  0.45522584289E+03  0.78835813261E+02 0.  0.
         66    2    3    3    0    0  0.13001719667E+02 -0.37160327426E+02  0.23213280591E+03  0.23545609831E+03  0.20000004674E+01 0.  0.
         13    1    3    3    0    0 -0.13001719667E+02  0.37160327426E+02  0.21621469613E+03  0.21976974458E+03  0.10566000000E+00 0. -1.
         13    1    4    4    0    0  0.83337340731E+00 -0.17568167639E+01  0.11525581764E+02  0.11688931321E+02  0.10566000000E+00 0. -1.
        -13    1    4    4    0    0  0.72616782029E+01 -0.23045692782E+02  0.13941379409E+03  0.14149223679E+03  0.10566000000E+00 0.  1.
        -14    1    4    4    0    0  0.49066680570E+01 -0.12357817880E+02  0.81193430059E+02  0.82274930197E+02  0.00000000000E+00 0.  1.
<mgrwt>
<rscale>  0 0.78835813E+02</rscale>
<asrwt>0</asrwt>
<pdfrwt beam="1">  1        1 0.69505664E-01 0.78835813E+02</pdfrwt>
<pdfrwt beam="2">  1       -2 0.52910298E-03 0.78835813E+02</pdfrwt>
<totfact> 0.20109028E+05</totfact>
</mgrwt>
</event>
<event>
 8    1  0.1372337E-024  0.8046859E+02  0.7818608E-02  0.1327727E+00
          1   -1    0    0  501    0  0.00000000000E+00  0.00000000000E+00  0.71196766217E+01  0.71196784056E+01  0.50400000000E-02 0. -1.
         -2   -1    0    0    0  501 -0.00000000000E+00 -0.00000000000E+00 -0.22736964773E+03  0.22736964775E+03  0.25500000000E-02 0.  1.
        -24    2    1    2    0    0  0.00000000000E+00  0.35527136788E-14 -0.22024997111E+03  0.23448932615E+03  0.80468592041E+02 0.  0.
         66    2    3    3    0    0 -0.24659960464E+02  0.27946210119E+02 -0.15416398994E+03  0.15861790610E+03  0.20000074324E+01 0.  0.
         13    1    3    3    0    0  0.24659960464E+02 -0.27946210119E+02 -0.66085981168E+02  0.75871420054E+02  0.10566000000E+00 0. -1.
         13    1    4    4    0    0 -0.10961925154E+02  0.12212245062E+02 -0.66017686818E+02  0.68026824631E+02  0.10566000000E+00 0. -1.
        -13    1    4    4    0    0 -0.13209005099E+02  0.14934500681E+02 -0.83091530208E+02  0.85450164907E+02  0.10566000000E+00 0.  1.
         14    1    4    4    0    0 -0.48903020971E+00  0.79946437577E+00 -0.50547729164E+01  0.51409165593E+01  0.00000000000E+00 0. -1.
<mgrwt>
<rscale>  0 0.80468592E+02</rscale>
<asrwt>0</asrwt>
<pdfrwt beam="1">  1        1 0.10953352E-02 0.80468592E+02</pdfrwt>
<pdfrwt beam="2">  1       -2 0.34979940E-01 0.80468592E+02</pdfrwt>
<totfact> 0.79355864E+04</totfact>
</mgrwt>
</event>
<event>
 8    1  0.1372337E-024  0.8036072E+02  0.7818608E-02  0.1328031E+00
         -2   -1    0    0    0  501 -0.00000000000E+00  0.00000000000E+00  0.38123889241E+02  0.38123889327E+02  0.25500000000E-02 0.  1.
          1   -1    0    0  501    0  0.00000000000E+00 -0.00000000000E+00 -0.42347762956E+02  0.42347763256E+02  0.50400000000E-02 0. -1.
        -24    2    1    2    0    0  0.00000000000E+00  0.00000000000E+00 -0.42238737146E+01  0.80471652582E+02  0.80360722745E+02 0.  0.
         66    2    3    3    0    0 -0.17921604521E+02  0.25367494078E+02  0.23373076318E+02  0.38922928420E+02  0.19999989507E+01 0.  0.
         13    1    3    3    0    0  0.17921604521E+02 -0.25367494078E+02 -0.27596950032E+02  0.41548724163E+02  0.10566000000E+00 0. -1.
         13    1    4    4    0    0 -0.54971222590E+01  0.75647777615E+01  0.60932221223E+01  0.11161663656E+02  0.10566000000E+00 0. -1.
        -13    1    4    4    0    0 -0.67560448221E+01  0.10378177309E+02  0.10068918234E+02  0.15960732575E+02  0.10566000000E+00 0.  1.
        -14    1    4    4    0    0 -0.56684374402E+01  0.74245390075E+01  0.72109359617E+01  0.11800532188E+02  0.00000000000E+00 0.  1.
<mgrwt>
<rscale>  0 0.80360723E+02</rscale>
<asrwt>0</asrwt>
<pdfrwt beam="1">  1        1 0.65150405E-02 0.80360723E+02</pdfrwt>
<pdfrwt beam="2">  1       -2 0.58652137E-02 0.80360723E+02</pdfrwt>
<totfact> 0.12654052E+05</totfact>
</mgrwt>
</event>
<event>
 8    1  0.1372337E-024  0.7757223E+02  0.7818608E-02  0.1336086E+00
          1   -1    0    0  501    0  0.00000000000E+00  0.00000000000E+00  0.41708532913E+02  0.41708533217E+02  0.50400000000E-02 0. -1.
         -2   -1    0    0    0  501 -0.00000000000E+00 -0.00000000000E+00 -0.36068463702E+02  0.36068463792E+02  0.25500000000E-02 0.  1.
        -24    2    1    2    0    0  0.17763568394E-14  0.35527136788E-14  0.56400692114E+01  0.77776997009E+02  0.77572230102E+02 0.  0.
         66    2    3    3    0    0 -0.10802820339E+02 -0.14051015957E+02 -0.31739739630E+02  0.36408008022E+02  0.19999999114E+01 0.  0.
         13    1    3    3    0    0  0.10802820339E+02  0.14051015957E+02  0.37379808842E+02  0.41368988987E+02  0.10566000000E+00 0. -1.
         13    1    4    4    0    0 -0.67462703752E+01 -0.91025994171E+01 -0.19185377435E+02  0.22281367810E+02  0.10566000000E+00 0. -1.
        -13    1    4    4    0    0 -0.39522379486E+01 -0.49536798339E+01 -0.12483914921E+02  0.14000658002E+02  0.10566000000E+00 0.  1.
         14    1    4    4    0    0 -0.10431201534E+00  0.52632940036E-02 -0.70447273759E-01  0.12598220981E+00  0.00000000000E+00 0. -1.
<mgrwt>
<rscale>  0 0.77572230E+02</rscale>
<asrwt>0</asrwt>
<pdfrwt beam="1">  1        1 0.64166974E-02 0.77572230E+02</pdfrwt>
<pdfrwt beam="2">  1       -2 0.55489945E-02 0.77572230E+02</pdfrwt>
<totfact> 0.13936607E+05</totfact>
</mgrwt>
</event>
<event>
 8    1  0.1372337E-024  0.8356215E+02  0.7818608E-02  0.1319236E+00
         -2   -1    0    0    0  501 -0.00000000000E+00  0.00000000000E+00  0.21747906888E+02  0.21747907038E+02  0.25500000000E-02 0.  1.
          1   -1    0    0  501    0  0.00000000000E+00 -0.00000000000E+00 -0.80267866162E+02  0.80267866320E+02  0.50400000000E-02 0. -1.
        -24    2    1    2    0    0  0.00000000000E+00  0.00000000000E+00 -0.58519959274E+02  0.10201577336E+03  0.83562146815E+02 0.  0.
         66    2    3    3    0    0 -0.32657898617E+02  0.82674464739E+01  0.84519709357E+00  0.33758012130E+02  0.20000028934E+01 0.  0.
         13    1    3    3    0    0  0.32657898617E+02 -0.82674464739E+01 -0.59365156367E+02  0.68257761228E+02  0.10566000000E+00 0. -1.
         13    1    4    4    0    0 -0.13809070910E+01  0.64971201705E+00  0.14149427206E+00  0.15362990476E+01  0.10566000000E+00 0. -1.
        -13    1    4    4    0    0 -0.31098785002E+02  0.74767948552E+01  0.67093457530E+00  0.31992158526E+02  0.10566000000E+00 0.  1.
        -14    1    4    4    0    0 -0.17820652423E+00  0.14093960168E+00  0.32768246212E-01  0.22955455683E+00  0.00000000000E+00 0.  1.
<mgrwt>
<rscale>  0 0.83562147E+02</rscale>
<asrwt>0</asrwt>
<pdfrwt beam="1">  1        1 0.12348902E-01 0.83562147E+02</pdfrwt>
<pdfrwt beam="2">  1       -2 0.33458319E-02 0.83562147E+02</pdfrwt>
<totfact> 0.12586249E+05</totfact>
</mgrwt>
</event>
<event>
 8    1  0.1372337E-024  0.7929245E+02  0.7818608E-02  0.1331071E+00
          1   -1    0    0  501    0  0.00000000000E+00  0.00000000000E+00  0.23430415779E+03  0.23430415784E+03  0.50400000000E-02 0. -1.
         -2   -1    0    0    0  501 -0.00000000000E+00 -0.00000000000E+00 -0.67084723999E+01  0.67084728845E+01  0.25500000000E-02 0.  1.
        -24    2    1    2    0    0  0.00000000000E+00  0.00000000000E+00  0.22759568539E+03  0.24101263073E+03  0.79292447071E+02 0.  0.
         66    2    3    3    0    0 -0.11536298118E+02 -0.33936422341E+02  0.62552078922E+02  0.72121629974E+02  0.19999992822E+01 0.  0.
         13    1    3    3    0    0  0.11536298118E+02  0.33936422341E+02  0.16504360647E+03  0.16889100075E+03  0.10566000000E+00 0. -1.
         13    1    4    4    0    0 -0.34025022031E+01 -0.11474045884E+02  0.21746924641E+02  0.24822784807E+02  0.10566000000E+00 0. -1.
        -13    1    4    4    0    0 -0.49307475625E+01 -0.11895345612E+02  0.21955988055E+02  0.25453645992E+02  0.10566000000E+00 0.  1.
         14    1    4    4    0    0 -0.32030483529E+01 -0.10567030845E+02  0.18849166226E+02  0.21845199176E+02  0.00000000000E+00 0. -1.
<mgrwt>
<rscale>  0 0.79292447E+02</rscale>
<asrwt>0</asrwt>
<pdfrwt beam="1">  1        1 0.36046786E-01 0.79292447E+02</pdfrwt>
<pdfrwt beam="2">  1       -2 0.10320729E-02 0.79292447E+02</pdfrwt>
<totfact> 0.17605442E+05</totfact>
</mgrwt>
</event>
<event>
 8    1  0.1372337E-024  0.8160786E+02  0.7818608E-02  0.1324550E+00
         -2   -1    0    0    0  501 -0.00000000000E+00  0.00000000000E+00  0.89327238368E+01  0.89327242008E+01  0.25500000000E-02 0.  1.
          1   -1    0    0  501    0  0.00000000000E+00 -0.00000000000E+00 -0.18638891707E+03  0.18638891714E+03  0.50400000000E-02 0. -1.
        -24    2    1    2    0    0  0.00000000000E+00  0.00000000000E+00 -0.17745619323E+03  0.19532164134E+03  0.81607861499E+02 0.  0.
         66    2    3    3    0    0 -0.25586989130E+02  0.14904042947E+02 -0.21674536032E+02  0.36750646534E+02  0.19999998914E+01 0.  0.
         13    1    3    3    0    0  0.25586989130E+02 -0.14904042947E+02 -0.15578165720E+03  0.15857099481E+03  0.10566000000E+00 0. -1.
         13    1    4    4    0    0 -0.92056295614E+00  0.25797663115E+00 -0.46382522720E+00  0.10678417371E+01  0.10566000000E+00 0. -1.
        -13    1    4    4    0    0 -0.24722022915E+01  0.15927738005E+01 -0.20111991042E+01  0.35643791075E+01  0.10566000000E+00 0.  1.
        -14    1    4    4    0    0 -0.22194223883E+02  0.13053292515E+02 -0.19199511700E+02  0.32118425689E+02  0.00000000000E+00 0.  1.
<mgrwt>
<rscale>  0 0.81607861E+02</rscale>
<asrwt>0</asrwt>
<pdfrwt beam="1">  1        1 0.28675215E-01 0.81607861E+02</pdfrwt>
<pdfrwt beam="2">  1       -2 0.13742654E-02 0.81607861E+02</pdfrwt>
<totfact> 0.15599691E+05</totfact>
</mgrwt>
</event>
<event>
 8    1  0.1372337E-024  0.8011146E+02  0.7818608E-02  0.1328735E+00
         -2   -1    0    0    0  501 -0.00000000000E+00  0.00000000000E+00  0.11392033317E+02  0.11392033602E+02  0.25500000000E-02 0.  1.
          1   -1    0    0  501    0  0.00000000000E+00 -0.00000000000E+00 -0.14084065000E+03  0.14084065009E+03  0.50400000000E-02 0. -1.
        -24    2    1    2    0    0  0.00000000000E+00  0.88817841970E-15 -0.12944861668E+03  0.15223268369E+03  0.80111457500E+02 0.  0.
         66    2    3    3    0    0 -0.24380045388E+02 -0.42183773653E+01 -0.49659103686E+01  0.25314849421E+02  0.20000036752E+01 0.  0.
         13    1    3    3    0    0  0.24380045388E+02  0.42183773653E+01 -0.12448270631E+03  0.12691783427E+03  0.10566000000E+00 0. -1.
         13    1    4    4    0    0 -0.61257514667E+01 -0.81089872636E+00 -0.51984442846E+00  0.62019182550E+01  0.10566000000E+00 0. -1.
        -13    1    4    4    0    0 -0.14976837648E+02 -0.26275210819E+01 -0.33548562870E+01  0.15571633110E+02  0.10566000000E+00 0.  1.
        -14    1    4    4    0    0 -0.32774562731E+01 -0.77995755705E+00 -0.10912096531E+01  0.35412980558E+01  0.00000000000E+00 0.  1.
<mgrwt>
<rscale>  0 0.80111457E+02</rscale>
<asrwt>0</asrwt>
<pdfrwt beam="1">  1        1 0.21667791E-01 0.80111457E+02</pdfrwt>
<pdfrwt beam="2">  1       -2 0.17526206E-02 0.80111457E+02</pdfrwt>
<totfact> 0.15549078E+05</totfact>
</mgrwt>
</event>
<event>
 8    1  0.1372337E-024  0.7857399E+02  0.7818608E-02  0.1333148E+00
         -2   -1    0    0    0  501 -0.00000000000E+00  0.00000000000E+00  0.20134043143E+03  0.20134043145E+03  0.25500000000E-02 0.  1.
          1   -1    0    0  501    0  0.00000000000E+00 -0.00000000000E+00 -0.76659610387E+01  0.76659626954E+01  0.50400000000E-02 0. -1.
        -24    2    1    2    0    0 -0.71054273576E-14  0.00000000000E+00  0.19367447039E+03  0.20900639414E+03  0.78573992585E+02 0.  0.
         66    2    3    3    0    0 -0.27160050929E+02 -0.26494906028E+02  0.12374001926E+03  0.12944203635E+03  0.19999989478E+01 0.  0.
         13    1    3    3    0    0  0.27160050929E+02  0.26494906028E+02  0.69934451131E+02  0.79564357792E+02  0.10566000000E+00 0. -1.
         13    1    4    4    0    0 -0.12123666325E+02 -0.10490494318E+02  0.51988298724E+02  0.54404302444E+02  0.10566000000E+00 0. -1.
        -13    1    4    4    0    0 -0.12076734637E+02 -0.12939114836E+02  0.58214575191E+02  0.60845839142E+02  0.10566000000E+00 0.  1.
         14    1    4    4    0    0 -0.29596499670E+01 -0.30652968741E+01  0.13537145345E+02  0.14191894763E+02  0.00000000000E+00 0. -1.
<mgrwt>
<rscale>  0 0.78573993E+02</rscale>
<asrwt>0</asrwt>
<pdfrwt beam="1">  1        1 0.11793786E-02 0.78573993E+02</pdfrwt>
<pdfrwt beam="2">  1       -2 0.30975454E-01 0.78573993E+02</pdfrwt>
<totfact> 0.88872331E+04</totfact>
</mgrwt>
</event>
<event>
 8    1  0.1372337E-024  0.7319945E+02  0.7818608E-02  0.1349539E+00
          1   -1    0    0  501    0  0.00000000000E+00  0.00000000000E+00  0.54270433398E+02  0.54270433632E+02  0.50400000000E-02 0. -1.
         -2   -1    0    0    0  501 -0.00000000000E+00 -0.00000000000E+00 -0.24682685099E+02  0.24682685231E+02  0.25500000000E-02 0.  1.
        -24    2    1    2    0    0  0.00000000000E+00  0.00000000000E+00  0.29587748299E+02  0.78953118862E+02  0.73199454429E+02 0.  0.
         66    2    3    3    0    0 -0.10708318548E+02 -0.32222453250E+02  0.15094521989E+00  0.34014370336E+02  0.20000063389E+01 0.  0.
         13    1    3    3    0    0  0.10708318548E+02  0.32222453250E+02  0.29436803079E+02  0.44938748526E+02  0.10566000000E+00 0. -1.
         13    1    4    4    0    0 -0.13230804167E+01 -0.51483070298E+01 -0.54568252160E+00  0.53445804804E+01  0.10566000000E+00 0. -1.
        -13    1    4    4    0    0 -0.66112878687E+01 -0.19708510923E+02  0.33475939282E+00  0.20790809460E+02  0.10566000000E+00 0.  1.
         14    1    4    4    0    0 -0.27739502629E+01 -0.73656352963E+01  0.36186834866E+00  0.78789803960E+01  0.00000000000E+00 0. -1.
<mgrwt>
<rscale>  0 0.73199454E+02</rscale>
<asrwt>0</asrwt>
<pdfrwt beam="1">  1        1 0.83492975E-02 0.73199454E+02</pdfrwt>
<pdfrwt beam="2">  1       -2 0.37973362E-02 0.73199454E+02</pdfrwt>
<totfact> 0.17012185E+05</totfact>
</mgrwt>
</event>
<event>
 8    1  0.1372337E-024  0.7789530E+02  0.7818608E-02  0.1335133E+00
         -2   -1    0    0    0  501 -0.00000000000E+00  0.00000000000E+00  0.77008639670E+02  0.77008639712E+02  0.25500000000E-02 0.  1.
          1   -1    0    0  501    0  0.00000000000E+00 -0.00000000000E+00 -0.19698043288E+02  0.19698043933E+02  0.50400000000E-02 0. -1.
        -24    2    1    2    0    0  0.00000000000E+00  0.00000000000E+00  0.57310596382E+02  0.96706683646E+02  0.77895302837E+02 0.  0.
         66    2    3    3    0    0 -0.31891256626E+02 -0.18726003536E+02  0.43736664615E+02  0.57311528547E+02  0.20000037930E+01 0.  0.
         13    1    3    3    0    0  0.31891256626E+02  0.18726003536E+02  0.13573931766E+02  0.39395155098E+02  0.10566000000E+00 0. -1.
         13    1    4    4    0    0 -0.15341265285E+02 -0.81403112120E+01  0.20199441278E+02  0.26639213186E+02  0.10566000000E+00 0. -1.
        -13    1    4    4    0    0 -0.82602131103E+01 -0.47501785506E+01  0.11398584526E+02  0.14857126577E+02  0.10566000000E+00 0.  1.
         14    1    4    4    0    0 -0.82897782303E+01 -0.58355137731E+01  0.12138638812E+02  0.15815188785E+02  0.00000000000E+00 0. -1.
<mgrwt>
<rscale>  0 0.77895303E+02</rscale>
<asrwt>0</asrwt>
<pdfrwt beam="1">  1        1 0.30304683E-02 0.77895303E+02</pdfrwt>
<pdfrwt beam="2">  1       -2 0.11847483E-01 0.77895303E+02</pdfrwt>
<totfact> 0.12058510E+05</totfact>
</mgrwt>
</event>
<event>
 8    1  0.1372337E-024  0.7940943E+02  0.7818608E-02  0.1330736E+00
          1   -1    0    0  501    0  0.00000000000E+00  0.00000000000E+00  0.61168777946E+02  0.61168778154E+02  0.50400000000E-02 0. -1.
         -2   -1    0    0    0  501 -0.00000000000E+00 -0.00000000000E+00 -0.25772368299E+02  0.25772368425E+02  0.25500000000E-02 0.  1.
        -24    2    1    2    0    0  0.88817841970E-15  0.35527136788E-14  0.35396409647E+02  0.86941146579E+02  0.79409427353E+02 0.  0.
         66    2    3    3    0    0  0.79759622438E+01 -0.23691193729E+02 -0.16028414994E+02  0.29762370906E+02  0.20000001801E+01 0.  0.
         13    1    3    3    0    0 -0.79759622438E+01  0.23691193729E+02  0.51424824641E+02  0.57178775673E+02  0.10566000000E+00 0. -1.
         13    1    4    4    0    0  0.13271025511E+01 -0.43439856077E+01 -0.32282708944E+01  0.55735365025E+01  0.10566000000E+00 0.  1.
        -13    1    4    4    0    0 -0.72894411418E-02 -0.48618466654E+00 -0.51514811324E+00  0.71621943572E+00  0.10566000000E+00 0. -1.
        -14    1    4    4    0    0  0.66561491339E+01 -0.18861023455E+02 -0.12284995986E+02  0.23472614968E+02  0.00000000000E+00 0.  1.
<mgrwt>
<rscale>  0 0.79409427E+02</rscale>
<asrwt>0</asrwt>
<pdfrwt beam="1">  1        1 0.94105811E-02 0.79409427E+02</pdfrwt>
<pdfrwt beam="2">  1       -2 0.39649798E-02 0.79409427E+02</pdfrwt>
<totfact> 0.13859203E+05</totfact>
</mgrwt>
</event>
<event>
 8    1  0.1372337E-024  0.7949588E+02  0.7818608E-02  0.1330488E+00
          1   -1    0    0  501    0  0.00000000000E+00  0.00000000000E+00  0.20425051910E+03  0.20425051916E+03  0.50400000000E-02 0. -1.
         -2   -1    0    0    0  501 -0.00000000000E+00 -0.00000000000E+00 -0.77351030352E+01  0.77351034555E+01  0.25500000000E-02 0.  1.
        -24    2    1    2    0    0  0.00000000000E+00  0.35527136788E-14  0.19651541606E+03  0.21198562261E+03  0.79495883198E+02 0.  0.
         66    2    3    3    0    0 -0.17512369237E+02  0.31259237995E+02  0.52591140657E+02  0.63668289672E+02  0.19999994704E+01 0.  0.
         13    1    3    3    0    0  0.17512369237E+02 -0.31259237995E+02  0.14392427540E+03  0.14831733294E+03  0.10566000000E+00 0. -1.
         13    1    4    4    0    0 -0.13312573266E+01  0.33840384558E+01  0.56621212078E+01  0.67301369190E+01  0.10566000000E+00 0. -1.
        -13    1    4    4    0    0 -0.63182524345E+01  0.10530633307E+02  0.18548716560E+02  0.22245912023E+02  0.10566000000E+00 0.  1.
        -14    1    4    4    0    0 -0.98628594761E+01  0.17344566232E+02  0.28380302889E+02  0.34692240730E+02  0.00000000000E+00 0.  1.
<mgrwt>
<rscale>  0 0.79495883E+02</rscale>
<asrwt>0</asrwt>
<pdfrwt beam="1">  1        1 0.31423157E-01 0.79495883E+02</pdfrwt>
<pdfrwt beam="2">  1       -2 0.11900159E-02 0.79495883E+02</pdfrwt>
<totfact> 0.17025316E+05</totfact>
</mgrwt>
</event>
<event>
 8    1  0.1372337E-024  0.8260149E+02  0.7818608E-02  0.1321827E+00
          1   -1    0    0  501    0  0.00000000000E+00  0.00000000000E+00  0.65897061810E+02  0.65897062002E+02  0.50400000000E-02 0. -1.
         -2   -1    0    0    0  501 -0.00000000000E+00 -0.00000000000E+00 -0.25885091484E+02  0.25885091610E+02  0.25500000000E-02 0.  1.
        -24    2    1    2    0    0  0.00000000000E+00  0.00000000000E+00  0.40011970325E+02  0.91782153612E+02  0.82601488803E+02 0.  0.
         66    2    3    3    0    0  0.89004307216E+01 -0.12629109554E+02 -0.22512211410E+02  0.27377211715E+02  0.19999958935E+01 0.  0.
         13    1    3    3    0    0 -0.89004307216E+01  0.12629109554E+02  0.62524181735E+02  0.64404941898E+02  0.10566000000E+00 0. -1.
         13    1    4    4    0    0  0.13865542238E+01 -0.22913049976E+01 -0.29868633100E+01  0.40131194445E+01  0.10566000000E+00 0. -1.
        -13    1    4    4    0    0  0.13892377093E+01 -0.12761543319E+01 -0.26593111812E+01  0.32621543933E+01  0.10566000000E+00 0. -1.
        -14    1    4    4    0    0  0.61246387886E+01 -0.90616502245E+01 -0.16866036918E+02  0.20101937877E+02  0.00000000000E+00 0.  1.
<mgrwt>
<rscale>  0 0.82601489E+02</rscale>
<asrwt>0</asrwt>
<pdfrwt beam="1">  1        1 0.10138009E-01 0.82601489E+02</pdfrwt>
<pdfrwt beam="2">  1       -2 0.39823218E-02 0.82601489E+02</pdfrwt>
<totfact> 0.12580950E+05</totfact>
</mgrwt>
</event>
<event>
 8    1  0.1372337E-024  0.7922412E+02  0.7818608E-02  0.1331268E+00
         -2   -1    0    0    0  501 -0.00000000000E+00  0.00000000000E+00  0.11343364319E+02  0.11343364606E+02  0.25500000000E-02 0.  1.
          1   -1    0    0  501    0  0.00000000000E+00 -0.00000000000E+00 -0.13832889734E+03  0.13832889743E+03  0.50400000000E-02 0. -1.
        -24    2    1    2    0    0 -0.35527136788E-14  0.00000000000E+00 -0.12698553302E+03  0.14967226204E+03  0.79224115186E+02 0.  0.
         66    2    3    3    0    0 -0.24150697837E+02  0.22272017815E+02 -0.21806825135E+02  0.39482104854E+02  0.19999994256E+01 0.  0.
         13    1    3    3    0    0  0.24150697837E+02 -0.22272017815E+02 -0.10517870789E+03  0.11019015718E+03  0.10566000000E+00 0. -1.
         13    1    4    4    0    0 -0.70706862692E+01  0.69643012839E+01 -0.75185194878E+01  0.12451321055E+02  0.10566000000E+00 0. -1.
        -13    1    4    4    0    0 -0.13426178594E+02  0.11999350879E+02 -0.11534139119E+02  0.21384438791E+02  0.10566000000E+00 0.  1.
        -14    1    4    4    0    0 -0.36538329741E+01  0.33083656524E+01 -0.27541665276E+01  0.56463450085E+01  0.00000000000E+00 0.  1.
<mgrwt>
<rscale>  0 0.79224115E+02</rscale>
<asrwt>0</asrwt>
<pdfrwt beam="1">  1        1 0.21281368E-01 0.79224115E+02</pdfrwt>
<pdfrwt beam="2">  1       -2 0.17451331E-02 0.79224115E+02</pdfrwt>
<totfact> 0.15967180E+05</totfact>
</mgrwt>
</event>
<event>
 8    1  0.1372337E-024  0.7870759E+02  0.7818608E-02  0.1332760E+00
         -2   -1    0    0    0  501 -0.00000000000E+00  0.00000000000E+00  0.80867155523E+03  0.80867155524E+03  0.25500000000E-02 0.  1.
          1   -1    0    0  501    0  0.00000000000E+00 -0.00000000000E+00 -0.19151389451E+01  0.19151455769E+01  0.50400000000E-02 0. -1.
        -24    2    1    2    0    0  0.35527136788E-14  0.00000000000E+00  0.80675641629E+03  0.81058670081E+03  0.78707587402E+02 0.  0.
         66    2    3    3    0    0  0.22464483487E+02  0.36853575299E+01  0.73391701962E+03  0.73427271946E+03  0.19999957402E+01 0.  0.
         13    1    3    3    0    0 -0.22464483487E+02 -0.36853575299E+01  0.72839396667E+02  0.76313981349E+02  0.10566000000E+00 0. -1.
         13    1    4    4    0    0  0.51137767441E+01  0.14203825630E+01  0.16751811498E+03  0.16760220228E+03  0.10566000000E+00 0. -1.
        -13    1    4    4    0    0  0.33134615233E+01  0.77582184870E+00  0.12180019125E+03  0.12184776846E+03  0.10566000000E+00 0.  1.
        -14    1    4    4    0    0  0.14037245220E+02  0.14891531182E+01  0.44459871339E+03  0.44482274871E+03  0.00000000000E+00 0.  1.
<mgrwt>
<rscale>  0 0.78707587E+02</rscale>
<asrwt>0</asrwt>
<pdfrwt beam="1">  1        1 0.29463747E-03 0.78707587E+02</pdfrwt>
<pdfrwt beam="2">  1       -2 0.12441093E+00 0.78707587E+02</pdfrwt>
<totfact> 0.34273213E+04</totfact>
</mgrwt>
</event>
<event>
 8    1  0.1372337E-024  0.7958971E+02  0.7818608E-02  0.1330220E+00
          1   -1    0    0  501    0  0.00000000000E+00  0.00000000000E+00  0.22129721308E+02  0.22129721882E+02  0.50400000000E-02 0. -1.
         -2   -1    0    0    0  501 -0.00000000000E+00 -0.00000000000E+00 -0.71561244988E+02  0.71561245033E+02  0.25500000000E-02 0.  1.
        -24    2    1    2    0    0  0.00000000000E+00  0.00000000000E+00 -0.49431523679E+02  0.93690966915E+02  0.79589708809E+02 0.  0.
         66    2    3    3    0    0  0.17393191101E+02  0.21825295236E+02 -0.58084206988E+02  0.64472022697E+02  0.20000001001E+01 0.  0.
         13    1    3    3    0    0 -0.17393191101E+02 -0.21825295236E+02  0.86526833087E+01  0.29218944219E+02  0.10566000000E+00 0. -1.
         13    1    4    4    0    0  0.10956987197E+01  0.22563242859E+01 -0.54252227008E+01  0.59779394742E+01  0.10566000000E+00 0. -1.
        -13    1    4    4    0    0  0.10071153569E+02  0.12083329342E+02 -0.32376188857E+02  0.35995329574E+02  0.10566000000E+00 0.  1.
        -14    1    4    4    0    0  0.62263388117E+01  0.74856416076E+01 -0.20282795430E+02  0.22498753648E+02  0.00000000000E+00 0.  1.
<mgrwt>
<rscale>  0 0.79589709E+02</rscale>
<asrwt>0</asrwt>
<pdfrwt beam="1">  1        1 0.34045726E-02 0.79589709E+02</pdfrwt>
<pdfrwt beam="2">  1       -2 0.11009422E-01 0.79589709E+02</pdfrwt>
<totfact> 0.11590503E+05</totfact>
</mgrwt>
</event>
<event>
 8    1  0.1372337E-024  0.8382308E+02  0.7818608E-02  0.1318539E+00
         -2   -1    0    0    0  501 -0.00000000000E+00  0.00000000000E+00  0.14231544137E+02  0.14231544366E+02  0.25500000000E-02 0.  1.
          1   -1    0    0  501    0  0.00000000000E+00 -0.00000000000E+00 -0.12342843920E+03  0.12342843930E+03  0.50400000000E-02 0. -1.
        -24    2    1    2    0    0  0.35527136788E-14  0.00000000000E+00 -0.10919689506E+03  0.13765998367E+03  0.83823082813E+02 0.  0.
         66    2    3    3    0    0 -0.19239155445E+02  0.29778307658E+02 -0.17992519900E+02  0.39807329529E+02  0.20000006858E+01 0.  0.
         13    1    3    3    0    0  0.19239155445E+02 -0.29778307658E+02 -0.91204375159E+02  0.97852654136E+02  0.10566000000E+00 0. -1.
         13    1    4    4    0    0 -0.79393524621E+01  0.11236482779E+02 -0.68220192983E+01  0.15357179888E+02  0.10566000000E+00 0.  1.
        -13    1    4    4    0    0 -0.45176614423E+01  0.78633926665E+01 -0.52972197514E+01  0.10503042905E+02  0.10566000000E+00 0. -1.
        -14    1    4    4    0    0 -0.67821415404E+01  0.10678432212E+02 -0.58732808499E+01  0.13947106737E+02  0.00000000000E+00 0.  1.
<mgrwt>
<rscale>  0 0.83823083E+02</rscale>
<asrwt>0</asrwt>
<pdfrwt beam="1">  1        1 0.18988990E-01 0.83823083E+02</pdfrwt>
<pdfrwt beam="2">  1       -2 0.21894684E-02 0.83823083E+02</pdfrwt>
<totfact> 0.13440825E+05</totfact>
</mgrwt>
</event>
<event>
 8    1  0.1372337E-024  0.6976100E+02  0.7818608E-02  0.1360908E+00
         -2   -1    0    0    0  501 -0.00000000000E+00  0.00000000000E+00  0.42553903794E+03  0.42553903795E+03  0.25500000000E-02 0.  1.
          1   -1    0    0  501    0  0.00000000000E+00 -0.00000000000E+00 -0.28590758613E+01  0.28590803036E+01  0.50400000000E-02 0. -1.
        -24    2    1    2    0    0  0.00000000000E+00  0.00000000000E+00  0.42267996208E+03  0.42839811825E+03  0.69761001844E+02 0.  0.
         66    2    3    3    0    0  0.94171198009E+01 -0.21587093917E+02  0.36927200154E+03  0.37002769610E+03  0.19999977496E+01 0.  0.
         13    1    3    3    0    0 -0.94171198009E+01  0.21587093917E+02  0.53407960541E+02  0.58370422153E+02  0.10566000000E+00 0. -1.
         13    1    4    4    0    0  0.56722143462E+00 -0.23466030641E+01  0.40186507539E+02  0.40259096342E+02  0.10566000000E+00 0. -1.
        -13    1    4    4    0    0  0.70233272300E+01 -0.16302913635E+02  0.27303349999E+03  0.27360996948E+03  0.10566000000E+00 0.  1.
        -14    1    4    4    0    0  0.18265711363E+01 -0.29375772176E+01  0.56051994004E+02  0.56158630271E+02  0.00000000000E+00 0.  1.
<mgrwt>
<rscale>  0 0.69761002E+02</rscale>
<asrwt>0</asrwt>
<pdfrwt beam="1">  1        1 0.43985819E-03 0.69761002E+02</pdfrwt>
<pdfrwt beam="2">  1       -2 0.65467541E-01 0.69761002E+02</pdfrwt>
<totfact> 0.80552325E+04</totfact>
</mgrwt>
</event>
<event>
 8    1  0.1372337E-024  0.8302393E+02  0.7818608E-02  0.1320683E+00
         -2   -1    0    0    0  501 -0.00000000000E+00  0.00000000000E+00  0.79183300679E+02  0.79183300721E+02  0.25500000000E-02 0.  1.
          1   -1    0    0  501    0  0.00000000000E+00 -0.00000000000E+00 -0.21762710667E+02  0.21762711251E+02  0.50400000000E-02 0. -1.
        -24    2    1    2    0    0  0.71054273576E-14  0.00000000000E+00  0.57420590012E+02  0.10094601197E+03  0.83023931342E+02 0.  0.
         66    2    3    3    0    0 -0.32472908761E+02 -0.25136494577E+02  0.21543502741E+02  0.46416114500E+02  0.20000029880E+01 0.  0.
         13    1    3    3    0    0  0.32472908761E+02  0.25136494577E+02  0.35877087272E+02  0.54529897471E+02  0.10566000000E+00 0. -1.
         13    1    4    4    0    0 -0.96128378422E+01 -0.68308169876E+01  0.53416742109E+01  0.12946480584E+02  0.10566000000E+00 0. -1.
        -13    1    4    4    0    0 -0.13339225291E+02 -0.10764885470E+02  0.94848055683E+01  0.19590568936E+02  0.10566000000E+00 0.  1.
         14    1    4    4    0    0 -0.95208456276E+01 -0.75407921197E+01  0.67170229614E+01  0.13879064980E+02  0.00000000000E+00 0. -1.
<mgrwt>
<rscale>  0 0.83023931E+02</rscale>
<asrwt>0</asrwt>
<pdfrwt beam="1">  1        1 0.33481094E-02 0.83023931E+02</pdfrwt>
<pdfrwt beam="2">  1       -2 0.12182046E-01 0.83023931E+02</pdfrwt>
<totfact> 0.10189977E+05</totfact>
</mgrwt>
</event>
<event>
 8    1  0.1372337E-024  0.8068290E+02  0.7818608E-02  0.1327125E+00
         -2   -1    0    0    0  501 -0.00000000000E+00  0.00000000000E+00  0.20136454077E+02  0.20136454239E+02  0.25500000000E-02 0.  1.
          1   -1    0    0  501    0  0.00000000000E+00 -0.00000000000E+00 -0.80820217388E+02  0.80820217545E+02  0.50400000000E-02 0. -1.
        -24    2    1    2    0    0 -0.17763568394E-14  0.71054273576E-14 -0.60683763311E+02  0.10095667178E+03  0.80682900593E+02 0.  0.
         66    2    3    3    0    0  0.15519344684E+02 -0.31669892769E+02 -0.59174387398E+01  0.35816871059E+02  0.20000009604E+01 0.  0.
         13    1    3    3    0    0 -0.15519344684E+02  0.31669892769E+02 -0.54766324571E+02  0.65139800725E+02  0.10566000000E+00 0. -1.
         13    1    4    4    0    0  0.10670557514E+01 -0.16923132609E+01 -0.30031303713E+00  0.20258045575E+01  0.10566000000E+00 0. -1.
        -13    1    4    4    0    0  0.34566781185E+01 -0.86352433433E+01 -0.11866690575E+01  0.93773876267E+01  0.10566000000E+00 0.  1.
        -14    1    4    4    0    0  0.10995610814E+02 -0.21342336165E+02 -0.44304566451E+01  0.24413678875E+02  0.00000000000E+00 0.  1.
<mgrwt>
<rscale>  0 0.80682901E+02</rscale>
<asrwt>0</asrwt>
<pdfrwt beam="1">  1        1 0.12433880E-01 0.80682901E+02</pdfrwt>
<pdfrwt beam="2">  1       -2 0.30979161E-02 0.80682901E+02</pdfrwt>
<totfact> 0.13867826E+05</totfact>
</mgrwt>
</event>
<event>
 8    1  0.1372337E-024  0.7912632E+02  0.7818608E-02  0.1331549E+00
          1   -1    0    0  501    0  0.00000000000E+00  0.00000000000E+00  0.45831591590E+03  0.45831591593E+03  0.50400000000E-02 0. -1.
         -2   -1    0    0    0  501 -0.00000000000E+00 -0.00000000000E+00 -0.34152065256E+01  0.34152074776E+01  0.25500000000E-02 0.  1.
        -24    2    1    2    0    0 -0.17763568394E-14  0.00000000000E+00  0.45490070938E+03  0.46173112341E+03  0.79126322623E+02 0.  0.
         66    2    3    3    0    0  0.94638508839E+01 -0.35387622138E+02  0.31442083926E+03  0.31655380650E+03  0.19999926829E+01 0.  0.
         13    1    3    3    0    0 -0.94638508839E+01  0.35387622138E+02  0.14047987011E+03  0.14517731691E+03  0.10566000000E+00 0. -1.
         13    1    4    4    0    0  0.32627522795E+01 -0.13857129409E+02  0.11813451268E+03  0.11898924253E+03  0.10566000000E+00 0. -1.
        -13    1    4    4    0    0  0.12036397729E+01 -0.31486416405E+01  0.32269929359E+02  0.32445680726E+02  0.10566000000E+00 0.  1.
        -14    1    4    4    0    0  0.49974588315E+01 -0.18381851089E+02  0.16401639723E+03  0.16511888324E+03  0.00000000000E+00 0.  1.
<mgrwt>
<rscale>  0 0.79126323E+02</rscale>
<asrwt>0</asrwt>
<pdfrwt beam="1">  1        1 0.70510133E-01 0.79126323E+02</pdfrwt>
<pdfrwt beam="2">  1       -2 0.52541652E-03 0.79126323E+02</pdfrwt>
<totfact> 0.19956244E+05</totfact>
</mgrwt>
</event>
<event>
 8    1  0.1372337E-024  0.8426542E+02  0.7818608E-02  0.1317365E+00
         -2   -1    0    0    0  501 -0.00000000000E+00  0.00000000000E+00  0.43995179506E+02  0.43995179580E+02  0.25500000000E-02 0.  1.
          1   -1    0    0  501    0  0.00000000000E+00 -0.00000000000E+00 -0.40349088127E+02  0.40349088442E+02  0.50400000000E-02 0. -1.
        -24    2    1    2    0    0 -0.35527136788E-14  0.35527136788E-14  0.36460913782E+01  0.84344268022E+02  0.84265423311E+02 0.  0.
         66    2    3    3    0    0  0.23162671200E+02  0.28460622723E+02  0.22498758538E+02  0.43089563975E+02  0.20000012376E+01 0.  0.
         13    1    3    3    0    0 -0.23162671200E+02 -0.28460622723E+02 -0.18852667159E+02  0.41254704046E+02  0.10566000000E+00 0. -1.
         13    1    4    4    0    0  0.82320191379E+01  0.11020871450E+02  0.90775839552E+01  0.16481487830E+02  0.10566000000E+00 0. -1.
        -13    1    4    4    0    0  0.14935143840E+02  0.17442030834E+02  0.13427022268E+02  0.26600358121E+02  0.10566000000E+00 0.  1.
         14    1    4    4    0    0 -0.44917786104E-02 -0.22795605489E-02 -0.58476854131E-02  0.77180241041E-02  0.00000000000E+00 0. -1.
<mgrwt>
<rscale>  0 0.84265423E+02</rscale>
<asrwt>0</asrwt>
<pdfrwt beam="1">  1        1 0.62075521E-02 0.84265423E+02</pdfrwt>
<pdfrwt beam="2">  1       -2 0.67684892E-02 0.84265423E+02</pdfrwt>
<totfact> 0.10976971E+05</totfact>
</mgrwt>
</event>
<event>
 8    1  0.1372337E-024  0.7608214E+02  0.7818608E-02  0.1340552E+00
         -2   -1    0    0    0  501 -0.00000000000E+00  0.00000000000E+00  0.81636450328E+03  0.81636450329E+03  0.25500000000E-02 0.  1.
          1   -1    0    0  501    0  0.00000000000E+00 -0.00000000000E+00 -0.17726394522E+01  0.17726466171E+01  0.50400000000E-02 0. -1.
        -24    2    1    2    0    0  0.00000000000E+00  0.00000000000E+00  0.81459186383E+03  0.81813714990E+03  0.76082136103E+02 0.  0.
         66    2    3    3    0    0 -0.22038680640E+02  0.17942512010E+02  0.67908105628E+03  0.67967839320E+03  0.19999999706E+01 0.  0.
         13    1    3    3    0    0  0.22038680640E+02 -0.17942512010E+02  0.13551080755E+03  0.13845875670E+03  0.10566000000E+00 0. -1.
         13    1    4    4    0    0 -0.24523047780E+01  0.22044405169E+01  0.82765676156E+02  0.82831405097E+02  0.10566000000E+00 0. -1.
        -13    1    4    4    0    0 -0.66933805583E+01  0.47924511353E+01  0.17983217804E+03  0.18002053314E+03  0.10566000000E+00 0.  1.
        -14    1    4    4    0    0 -0.12892995304E+02  0.10945620358E+02  0.41648320209E+03  0.41682645496E+03  0.00000000000E+00 0.  1.
<mgrwt>
<rscale>  0 0.76082136E+02</rscale>
<asrwt>0</asrwt>
<pdfrwt beam="1">  1        1 0.27271458E-03 0.76082136E+02</pdfrwt>
<pdfrwt beam="2">  1       -2 0.12559442E+00 0.76082136E+02</pdfrwt>
<totfact> 0.37037498E+04</totfact>
</mgrwt>
</event>
<event>
 8    1  0.1372337E-024  0.7929980E+02  0.7818608E-02  0.1331050E+00
          1   -1    0    0  501    0  0.00000000000E+00  0.00000000000E+00  0.13445903623E+03  0.13445903632E+03  0.50400000000E-02 0. -1.
         -2   -1    0    0    0  501 -0.00000000000E+00 -0.00000000000E+00 -0.11692145060E+02  0.11692145338E+02  0.25500000000E-02 0.  1.
        -24    2    1    2    0    0  0.17763568394E-14  0.35527136788E-14  0.12276689117E+03  0.14615118166E+03  0.79299800338E+02 0.  0.
         66    2    3    3    0    0 -0.90734685894E+01 -0.29177544947E+02  0.14926627809E+02  0.34065542407E+02  0.20000000845E+01 0.  0.
         13    1    3    3    0    0  0.90734685894E+01  0.29177544947E+02  0.10784026336E+03  0.11208563926E+03  0.10566000000E+00 0. -1.
         13    1    4    4    0    0 -0.19818591580E+01 -0.49385728708E+01  0.29118291491E+01  0.60668921823E+01  0.10566000000E+00 0. -1.
        -13    1    4    4    0    0 -0.50704093695E+01 -0.19159147905E+02  0.92235364661E+01  0.21860164423E+02  0.10566000000E+00 0.  1.
        -14    1    4    4    0    0 -0.20212000619E+01 -0.50798241709E+01  0.27912621938E+01  0.61384858013E+01  0.00000000000E+00 0.  1.
<mgrwt>
<rscale>  0 0.79299800E+02</rscale>
<asrwt>0</asrwt>
<pdfrwt beam="1">  1        1 0.20686006E-01 0.79299800E+02</pdfrwt>
<pdfrwt beam="2">  1       -2 0.17987915E-02 0.79299800E+02</pdfrwt>
<totfact> 0.15845209E+05</totfact>
</mgrwt>
</event>
<event>
 8    1  0.1372337E-024  0.8148192E+02  0.7818608E-02  0.1324898E+00
         -2   -1    0    0    0  501 -0.00000000000E+00  0.00000000000E+00  0.20442817288E+02  0.20442817447E+02  0.25500000000E-02 0.  1.
          1   -1    0    0  501    0  0.00000000000E+00 -0.00000000000E+00 -0.81193591321E+02  0.81193591477E+02  0.50400000000E-02 0. -1.
        -24    2    1    2    0    0  0.71054273576E-14  0.00000000000E+00 -0.60750774033E+02  0.10163640892E+03  0.81481918690E+02 0.  0.
         66    2    3    3    0    0 -0.26498614558E+02  0.19736863434E+02 -0.60071648443E+02  0.68588069672E+02  0.20000007499E+01 0.  0.
         13    1    3    3    0    0  0.26498614558E+02 -0.19736863434E+02 -0.67912558912E+00  0.33048339252E+02  0.10566000000E+00 0. -1.
         13    1    4    4    0    0 -0.17524923668E+01  0.14503922678E+01 -0.52190742832E+01  0.56942749877E+01  0.10566000000E+00 0. -1.
        -13    1    4    4    0    0 -0.17893200034E+02  0.13107428964E+02 -0.39568169325E+02  0.45361023900E+02  0.10566000000E+00 0.  1.
         14    1    4    4    0    0 -0.68529221569E+01  0.51790422017E+01 -0.15284404835E+02  0.17532770784E+02  0.00000000000E+00 0. -1.
<mgrwt>
<rscale>  0 0.81481919E+02</rscale>
<asrwt>0</asrwt>
<pdfrwt beam="1">  1        1 0.12491322E-01 0.81481919E+02</pdfrwt>
<pdfrwt beam="2">  1       -2 0.31450489E-02 0.81481919E+02</pdfrwt>
<totfact> 0.13510145E+05</totfact>
</mgrwt>
</event>
<event>
 8    1  0.1372337E-024  0.7984838E+02  0.7818608E-02  0.1329482E+00
          1   -1    0    0  501    0  0.00000000000E+00  0.00000000000E+00  0.18458010468E+03  0.18458010475E+03  0.50400000000E-02 0. -1.
         -2   -1    0    0    0  501 -0.00000000000E+00 -0.00000000000E+00 -0.86354964940E+01  0.86354968705E+01  0.25500000000E-02 0.  1.
        -24    2    1    2    0    0  0.17763568394E-14  0.71054273576E-14  0.17594460819E+03  0.19321560162E+03  0.79848378566E+02 0.  0.
         66    2    3    3    0    0  0.14444483155E+02  0.34203186212E+02  0.52675764297E+02  0.64476640623E+02  0.20000002682E+01 0.  0.
         13    1    3    3    0    0 -0.14444483155E+02 -0.34203186212E+02  0.12326884389E+03  0.12873896100E+03  0.10566000000E+00 0. -1.
         13    1    4    4    0    0  0.23030154089E+00  0.59956494297E+00  0.73438828249E+00  0.98132925445E+00  0.10566000000E+00 0.  1.
        -13    1    4    4    0    0  0.12603220571E+02  0.30112812780E+02  0.47248256944E+02  0.57428491278E+02  0.10566000000E+00 0.  1.
        -14    1    4    4    0    0  0.16109610429E+01  0.34908084895E+01  0.46931190709E+01  0.60668200901E+01  0.00000000000E+00 0.  1.
<mgrwt>
<rscale>  0 0.79848379E+02</rscale>
<asrwt>0</asrwt>
<pdfrwt beam="1">  1        1 0.28396936E-01 0.79848379E+02</pdfrwt>
<pdfrwt beam="2">  1       -2 0.13285381E-02 0.79848379E+02</pdfrwt>
<totfact> 0.16500421E+05</totfact>
</mgrwt>
</event>
<event>
 8    1  0.1372337E-024  0.8078878E+02  0.7818608E-02  0.1326828E+00
          1   -1    0    0  501    0  0.00000000000E+00  0.00000000000E+00  0.62160250649E+03  0.62160250651E+03  0.50400000000E-02 0. -1.
         -2   -1    0    0    0  501 -0.00000000000E+00 -0.00000000000E+00 -0.26249998949E+01  0.26250011334E+01  0.25500000000E-02 0.  1.
        -24    2    1    2    0    0  0.17763568394E-14 -0.71054273576E-14  0.61897750659E+03  0.62422750764E+03  0.80788784052E+02 0.  0.
         66    2    3    3    0    0 -0.12792515228E+02  0.35800380779E+02  0.41459736092E+03  0.41634155136E+03  0.19999993461E+01 0.  0.
         13    1    3    3    0    0  0.12792515228E+02 -0.35800380779E+02  0.20438014567E+03  0.20788595628E+03  0.10566000000E+00 0. -1.
         13    1    4    4    0    0 -0.49941842830E+01  0.11898759120E+02  0.14293426006E+03  0.14351563054E+03  0.10566000000E+00 0. -1.
        -13    1    4    4    0    0 -0.55134519411E+01  0.18154165418E+02  0.20272477618E+03  0.20361070187E+03  0.10566000000E+00 0.  1.
        -14    1    4    4    0    0 -0.22848790039E+01  0.57474562405E+01  0.68938324675E+02  0.69215218950E+02  0.00000000000E+00 0.  1.
<mgrwt>
<rscale>  0 0.80788784E+02</rscale>
<asrwt>0</asrwt>
<pdfrwt beam="1">  1        1 0.95631095E-01 0.80788784E+02</pdfrwt>
<pdfrwt beam="2">  1       -2 0.40384649E-03 0.80788784E+02</pdfrwt>
<totfact> 0.19466847E+05</totfact>
</mgrwt>
</event>
<event>
 8    1  0.1372337E-024  0.7719352E+02  0.7818608E-02  0.1337210E+00
          1   -1    0    0  501    0  0.00000000000E+00  0.00000000000E+00  0.10422199195E+02  0.10422200414E+02  0.50400000000E-02 0. -1.
         -2   -1    0    0    0  501 -0.00000000000E+00 -0.00000000000E+00 -0.14293623941E+03  0.14293623943E+03  0.25500000000E-02 0.  1.
        -24    2    1    2    0    0  0.71054273576E-14 -0.17763568394E-14 -0.13251404021E+03  0.15335843985E+03  0.77193524457E+02 0.  0.
         66    2    3    3    0    0 -0.36146464860E+02  0.13086165076E+02 -0.72549300381E+02  0.82129261656E+02  0.19999990401E+01 0.  0.
         13    1    3    3    0    0  0.36146464860E+02 -0.13086165076E+02 -0.59964739832E+02  0.71229178189E+02  0.10566000000E+00 0. -1.
         13    1    4    4    0    0 -0.50032255408E+01  0.17896701595E+01 -0.92673925608E+01  0.10683207103E+02  0.10566000000E+00 0. -1.
        -13    1    4    4    0    0 -0.21962684046E+02  0.74209859386E+01 -0.43180613982E+02  0.49010275562E+02  0.10566000000E+00 0.  1.
         14    1    4    4    0    0 -0.91805552736E+01  0.38755089777E+01 -0.20101293838E+02  0.22435778991E+02  0.00000000000E+00 0. -1.
<mgrwt>
<rscale>  0 0.77193524E+02</rscale>
<asrwt>0</asrwt>
<pdfrwt beam="1">  1        1 0.16034155E-02 0.77193524E+02</pdfrwt>
<pdfrwt beam="2">  1       -2 0.21990189E-01 0.77193524E+02</pdfrwt>
<totfact> 0.10522094E+05</totfact>
</mgrwt>
</event>
<event>
 8    1  0.1372337E-024  0.8173983E+02  0.7818608E-02  0.1324185E+00
          1   -1    0    0  501    0  0.00000000000E+00  0.00000000000E+00  0.66932848795E+02  0.66932848984E+02  0.50400000000E-02 0. -1.
         -2   -1    0    0    0  501 -0.00000000000E+00 -0.00000000000E+00 -0.24955609009E+02  0.24955609139E+02  0.25500000000E-02 0.  1.
        -24    2    1    2    0    0  0.00000000000E+00  0.17763568394E-14  0.41977239786E+02  0.91888458124E+02  0.81739831639E+02 0.  0.
         66    2    3    3    0    0 -0.10300847987E+02  0.12915279542E+02 -0.20992317388E+02  0.26787857438E+02  0.20000004706E+01 0.  0.
         13    1    3    3    0    0  0.10300847987E+02 -0.12915279542E+02  0.62969557174E+02  0.65100600686E+02  0.10566000000E+00 0. -1.
         13    1    4    4    0    0 -0.89475362773E+00  0.80683065923E+00 -0.18286264325E+01  0.21923955921E+01  0.10566000000E+00 0. -1.
        -13    1    4    4    0    0 -0.13303706596E+01  0.26959022212E+01 -0.40375759358E+01  0.50349735204E+01  0.10566000000E+00 0.  1.
        -14    1    4    4    0    0 -0.80757236993E+01  0.94125466619E+01 -0.15126115020E+02  0.19560488325E+02  0.00000000000E+00 0.  1.
<mgrwt>
<rscale>  0 0.81739832E+02</rscale>
<asrwt>0</asrwt>
<pdfrwt beam="1">  1        1 0.10297361E-01 0.81739832E+02</pdfrwt>
<pdfrwt beam="2">  1       -2 0.38393246E-02 0.81739832E+02</pdfrwt>
<totfact> 0.12982251E+05</totfact>
</mgrwt>
</event>
<event>
 8    1  0.1372337E-024  0.8012763E+02  0.7818608E-02  0.1328690E+00
         -2   -1    0    0    0  501 -0.00000000000E+00  0.00000000000E+00  0.49222089072E+02  0.49222089138E+02  0.25500000000E-02 0.  1.
          1   -1    0    0  501    0  0.00000000000E+00 -0.00000000000E+00 -0.32609528859E+02  0.32609529248E+02  0.50400000000E-02 0. -1.
        -24    2    1    2    0    0  0.00000000000E+00  0.00000000000E+00  0.16612560213E+02  0.81831618386E+02  0.80127627014E+02 0.  0.
         66    2    3    3    0    0 -0.16542521664E+02 -0.27127774154E+02  0.33192066777E+02  0.45992221690E+02  0.20000013597E+01 0.  0.
         13    1    3    3    0    0  0.16542521664E+02  0.27127774154E+02 -0.16579506565E+02  0.35839396696E+02  0.10566000000E+00 0. -1.
         13    1    4    4    0    0 -0.10270117845E+01 -0.16298599246E+01  0.14906431445E+01  0.24381094314E+01  0.10566000000E+00 0. -1.
        -13    1    4    4    0    0 -0.38466468993E+01 -0.71720493070E+01  0.84584536906E+01  0.11738466105E+02  0.10566000000E+00 0.  1.
        -14    1    4    4    0    0 -0.11668862980E+02 -0.18325864923E+02  0.23242969942E+02  0.31815646153E+02  0.00000000000E+00 0.  1.
<mgrwt>
<rscale>  0 0.80127627E+02</rscale>
<asrwt>0</asrwt>
<pdfrwt beam="1">  1        1 0.50168507E-02 0.80127627E+02</pdfrwt>
<pdfrwt beam="2">  1       -2 0.75726291E-02 0.80127627E+02</pdfrwt>
<totfact> 0.12216287E+05</totfact>
</mgrwt>
</event>
<event>
 8    1  0.1372337E-024  0.7871278E+02  0.7818608E-02  0.1332745E+00
          1   -1    0    0  501    0  0.00000000000E+00  0.00000000000E+00  0.82247846669E+02  0.82247846823E+02  0.50400000000E-02 0. -1.
         -2   -1    0    0    0  501 -0.00000000000E+00 -0.00000000000E+00 -0.18832411617E+02  0.18832411789E+02  0.25500000000E-02 0.  1.
        -24    2    1    2    0    0  0.00000000000E+00  0.35527136788E-14  0.63415435052E+02  0.10108025861E+03  0.78712777097E+02 0.  0.
         66    2    3    3    0    0  0.28805604902E+02 -0.19358043494E+02  0.79650362391E+01  0.35664246702E+02  0.19999922236E+01 0.  0.
         13    1    3    3    0    0 -0.28805604902E+02  0.19358043494E+02  0.55450398813E+02  0.65416011910E+02  0.10566000000E+00 0. -1.
         13    1    4    4    0    0  0.23383734153E+01 -0.13860402931E+01  0.73370776554E+00  0.28175501849E+01  0.10566000000E+00 0. -1.
        -13    1    4    4    0    0  0.18457737633E+02 -0.11587461004E+02  0.46690534770E+01  0.22288305352E+02  0.10566000000E+00 0.  1.
         14    1    4    4    0    0  0.80094938534E+01 -0.63845421969E+01  0.25622749966E+01  0.10558391166E+02  0.00000000000E+00 0. -1.
<mgrwt>
<rscale>  0 0.78712777E+02</rscale>
<asrwt>0</asrwt>
<pdfrwt beam="1">  1        1 0.12653515E-01 0.78712777E+02</pdfrwt>
<pdfrwt beam="2">  1       -2 0.28972941E-02 0.78712777E+02</pdfrwt>
<totfact> 0.14874471E+05</totfact>
</mgrwt>
</event>
<event>
 8    1  0.1372337E-024  0.7945420E+02  0.7818608E-02  0.1330607E+00
         -2   -1    0    0    0  501 -0.00000000000E+00  0.00000000000E+00  0.13907079798E+03  0.13907079800E+03  0.25500000000E-02 0.  1.
          1   -1    0    0  501    0  0.00000000000E+00 -0.00000000000E+00 -0.11348482623E+02  0.11348483742E+02  0.50400000000E-02 0. -1.
        -24    2    1    2    0    0  0.35527136788E-14 -0.35527136788E-14  0.12772231535E+03  0.15041928174E+03  0.79454203667E+02 0.  0.
         66    2    3    3    0    0 -0.20146097665E+02  0.18667333347E+02  0.11817614623E+03  0.12134222731E+03  0.20000013619E+01 0.  0.
         13    1    3    3    0    0  0.20146097665E+02 -0.18667333347E+02  0.95461691226E+01  0.29077054430E+02  0.10566000000E+00 0. -1.
         13    1    4    4    0    0 -0.97762225574E+01  0.89743358139E+01  0.54672859480E+02  0.56260518648E+02  0.10566000000E+00 0. -1.
        -13    1    4    4    0    0 -0.10261210024E+02  0.96332544012E+01  0.63279042376E+02  0.64825460967E+02  0.10566000000E+00 0.  1.
         14    1    4    4    0    0 -0.10866508298E+00  0.59743131626E-01  0.22424437385E+00  0.25624769508E+00  0.00000000000E+00 0. -1.
<mgrwt>
<rscale>  0 0.79454204E+02</rscale>
<asrwt>0</asrwt>
<pdfrwt beam="1">  1        1 0.17459205E-02 0.79454204E+02</pdfrwt>
<pdfrwt beam="2">  1       -2 0.21395508E-01 0.79454204E+02</pdfrwt>
<totfact> 0.98545161E+04</totfact>
</mgrwt>
</event>
<event>
 8    1  0.1372337E-024  0.8207838E+02  0.7818608E-02  0.1323255E+00
          1   -1    0    0  501    0  0.00000000000E+00  0.00000000000E+00  0.13007636868E+03  0.13007636877E+03  0.50400000000E-02 0. -1.
         -2   -1    0    0    0  501 -0.00000000000E+00 -0.00000000000E+00 -0.12947893527E+02  0.12947893779E+02  0.25500000000E-02 0.  1.
        -24    2    1    2    0    0  0.00000000000E+00  0.00000000000E+00  0.11712847515E+03  0.14302426255E+03  0.82078377104E+02 0.  0.
         66    2    3    3    0    0  0.40517918762E+02 -0.14896051223E+01  0.47816402561E+02  0.62724229958E+02  0.20000014368E+01 0.  0.
         13    1    3    3    0    0 -0.40517918762E+02  0.14896051223E+01  0.69312072588E+02  0.80300032595E+02  0.10566000000E+00 0. -1.
         13    1    4    4    0    0  0.21705606354E+02 -0.14506240823E+00  0.26364094237E+02  0.34150124733E+02  0.10566000000E+00 0.  1.
        -13    1    4    4    0    0  0.18205792101E+01 -0.28021663169E+00  0.19021293820E+01  0.26499604227E+01  0.10566000000E+00 0. -1.
        -14    1    4    4    0    0  0.16991733197E+02 -0.10643260824E+01  0.19550178942E+02  0.25924144802E+02  0.00000000000E+00 0.  1.
<mgrwt>
<rscale>  0 0.82078377E+02</rscale>
<asrwt>0</asrwt>
<pdfrwt beam="1">  1        1 0.20011750E-01 0.82078377E+02</pdfrwt>
<pdfrwt beam="2">  1       -2 0.19919835E-02 0.82078377E+02</pdfrwt>
<totfact> 0.14360549E+05</totfact>
</mgrwt>
</event>
<event>
 8    1  0.1372337E-024  0.7839962E+02  0.7818608E-02  0.1333655E+00
          1   -1    0    0  501    0  0.00000000000E+00  0.00000000000E+00  0.12184185692E+03  0.12184185702E+03  0.50400000000E-02 0. -1.
         -2   -1    0    0    0  501 -0.00000000000E+00 -0.00000000000E+00 -0.12611635439E+02  0.12611635697E+02  0.25500000000E-02 0.  1.
        -24    2    1    2    0    0  0.00000000000E+00  0.00000000000E+00  0.10923022148E+03  0.13445349272E+03  0.78399620024E+02 0.  0.
         66    2    3    3    0    0 -0.32559008305E+02 -0.18409411927E+02  0.34678279654E+02  0.51044868086E+02  0.20000021970E+01 0.  0.
         13    1    3    3    0    0  0.32559008305E+02  0.18409411927E+02  0.74551941827E+02  0.83408624635E+02  0.10566000000E+00 0. -1.
         13    1    4    4    0    0 -0.15127119231E+01 -0.11257840285E+01  0.15065948129E+01  0.24159219787E+01  0.10566000000E+00 0. -1.
        -13    1    4    4    0    0 -0.28279314471E+02 -0.16114960106E+02  0.30616234287E+02  0.44685305550E+02  0.10566000000E+00 0.  1.
        -14    1    4    4    0    0 -0.27669819104E+01 -0.11686677925E+01  0.25554505548E+01  0.39436405566E+01  0.00000000000E+00 0.  1.
<mgrwt>
<rscale>  0 0.78399620E+02</rscale>
<asrwt>0</asrwt>
<pdfrwt beam="1">  1        1 0.18744902E-01 0.78399620E+02</pdfrwt>
<pdfrwt beam="2">  1       -2 0.19402515E-02 0.78399620E+02</pdfrwt>
<totfact> 0.16054291E+05</totfact>
</mgrwt>
</event>
<event>
 8    1  0.1372337E-024  0.7902485E+02  0.7818608E-02  0.1331842E+00
          1   -1    0    0  501    0  0.00000000000E+00  0.00000000000E+00  0.15981747757E+02  0.15981748552E+02  0.50400000000E-02 0. -1.
         -2   -1    0    0    0  501 -0.00000000000E+00 -0.00000000000E+00 -0.97688431324E+02  0.97688431357E+02  0.25500000000E-02 0.  1.
        -24    2    1    2    0    0 -0.35527136788E-14 -0.71054273576E-14 -0.81706683567E+02  0.11367017991E+03  0.79024854705E+02 0.  0.
         66    2    3    3    0    0  0.24085231291E+02 -0.20620907027E+02 -0.74732750072E+02  0.81205320670E+02  0.19999997136E+01 0.  0.
         13    1    3    3    0    0 -0.24085231291E+02  0.20620907027E+02 -0.69739334946E+01  0.32464859239E+02  0.10566000000E+00 0. -1.
         13    1    4    4    0    0  0.75691477898E+00 -0.34521641329E+00 -0.21569582579E+01  0.23142444375E+01  0.10566000000E+00 0. -1.
        -13    1    4    4    0    0  0.12781457654E+02 -0.11663527449E+02 -0.39707332041E+02  0.43313818975E+02  0.10566000000E+00 0.  1.
         14    1    4    4    0    0  0.10546858859E+02 -0.86121631651E+01 -0.32868459773E+02  0.35577257258E+02  0.00000000000E+00 0. -1.
<mgrwt>
<rscale>  0 0.79024855E+02</rscale>
<asrwt>0</asrwt>
<pdfrwt beam="1">  1        1 0.24587306E-02 0.79024855E+02</pdfrwt>
<pdfrwt beam="2">  1       -2 0.15028989E-01 0.79024855E+02</pdfrwt>
<totfact> 0.11014282E+05</totfact>
</mgrwt>
</event>
<event>
 8    1  0.1372337E-024  0.8018501E+02  0.7818608E-02  0.1328527E+00
         -2   -1    0    0    0  501 -0.00000000000E+00  0.00000000000E+00  0.77662466075E+01  0.77662470261E+01  0.25500000000E-02 0.  1.
          1   -1    0    0  501    0  0.00000000000E+00 -0.00000000000E+00 -0.20697371645E+03  0.20697371651E+03  0.50400000000E-02 0. -1.
        -24    2    1    2    0    0  0.71054273576E-14  0.00000000000E+00 -0.19920746984E+03  0.21473996354E+03  0.80185010439E+02 0.  0.
         66    2    3    3    0    0 -0.33854604189E+02  0.20097674911E+02 -0.11959020171E+03  0.12592008226E+03  0.20000022989E+01 0.  0.
         13    1    3    3    0    0  0.33854604189E+02 -0.20097674911E+02 -0.79617268132E+02  0.88819881279E+02  0.10566000000E+00 0. -1.
         13    1    4    4    0    0 -0.40552084175E+01  0.17851959498E+01 -0.13316360915E+02  0.14034538537E+02  0.10566000000E+00 0. -1.
        -13    1    4    4    0    0 -0.29098708604E+02  0.17706915581E+02 -0.10339634778E+03  0.10886269150E+03  0.10566000000E+00 0.  1.
         14    1    4    4    0    0 -0.70068716704E+00  0.60556337965E+00 -0.28774930168E+01  0.30228522251E+01  0.00000000000E+00 0. -1.
<mgrwt>
<rscale>  0 0.80185010E+02</rscale>
<asrwt>0</asrwt>
<pdfrwt beam="1">  1        1 0.31842106E-01 0.80185010E+02</pdfrwt>
<pdfrwt beam="2">  1       -2 0.11948074E-02 0.80185010E+02</pdfrwt>
<totfact> 0.16682782E+05</totfact>
</mgrwt>
</event>
<event>
 8    1  0.1372337E-024  0.7936790E+02  0.7818608E-02  0.1330855E+00
         -2   -1    0    0    0  501 -0.00000000000E+00  0.00000000000E+00  0.27337616946E+03  0.27337616947E+03  0.25500000000E-02 0.  1.
          1   -1    0    0  501    0  0.00000000000E+00 -0.00000000000E+00 -0.57606173377E+01  0.57606195425E+01  0.50400000000E-02 0. -1.
        -24    2    1    2    0    0 -0.35527136788E-14  0.00000000000E+00  0.26761555212E+03  0.27913678901E+03  0.79367898066E+02 0.  0.
         66    2    3    3    0    0  0.20843314932E+02 -0.65863095492E+01  0.25027209056E+03  0.25123284532E+03  0.20000004454E+01 0.  0.
         13    1    3    3    0    0 -0.20843314932E+02  0.65863095492E+01  0.17343461559E+02  0.27903943694E+02  0.10566000000E+00 0. -1.
         13    1    4    4    0    0  0.14712358106E+01 -0.78387200182E+00  0.18311156295E+02  0.18387185729E+02  0.10566000000E+00 0.  1.
        -13    1    4    4    0    0  0.75370181055E+01 -0.14984517944E+01  0.88238569404E+02  0.88572615939E+02  0.10566000000E+00 0.  1.
        -14    1    4    4    0    0  0.11835061016E+02 -0.43039857530E+01  0.14372236486E+03  0.14427304365E+03  0.00000000000E+00 0.  1.
<mgrwt>
<rscale>  0 0.79367898E+02</rscale>
<asrwt>0</asrwt>
<pdfrwt beam="1">  1        1 0.88624898E-03 0.79367898E+02</pdfrwt>
<pdfrwt beam="2">  1       -2 0.42057873E-01 0.79367898E+02</pdfrwt>
<totfact> 0.75319023E+04</totfact>
</mgrwt>
</event>
<event>
 8    1  0.1372337E-024  0.8377488E+02  0.7818608E-02  0.1318668E+00
         -2   -1    0    0    0  501 -0.00000000000E+00  0.00000000000E+00  0.10287434960E+02  0.10287435276E+02  0.25500000000E-02 0.  1.
          1   -1    0    0  501    0  0.00000000000E+00 -0.00000000000E+00 -0.17055347168E+03  0.17055347175E+03  0.50400000000E-02 0. -1.
        -24    2    1    2    0    0 -0.88817841970E-15 -0.35527136788E-14 -0.16026603672E+03  0.18084090703E+03  0.83774883644E+02 0.  0.
         66    2    3    3    0    0  0.69852070409E+01  0.28799332451E+02 -0.16348170110E+02  0.33903647765E+02  0.19999996877E+01 0.  0.
         13    1    3    3    0    0 -0.69852070409E+01 -0.28799332451E+02 -0.14391786661E+03  0.14693725926E+03  0.10566000000E+00 0. -1.
         13    1    4    4    0    0  0.24468272561E+01  0.77823531940E+01 -0.41025814364E+01  0.91320492407E+01  0.10566000000E+00 0. -1.
        -13    1    4    4    0    0  0.20725459894E+00  0.83230500712E+00 -0.26990098234E+00  0.90537101209E+00  0.10566000000E+00 0.  1.
        -14    1    4    4    0    0  0.43311251859E+01  0.20184674250E+02 -0.11975687692E+02  0.23866227512E+02  0.00000000000E+00 0.  1.
<mgrwt>
<rscale>  0 0.83774884E+02</rscale>
<asrwt>0</asrwt>
<pdfrwt beam="1">  1        1 0.26238994E-01 0.83774884E+02</pdfrwt>
<pdfrwt beam="2">  1       -2 0.15826824E-02 0.83774884E+02</pdfrwt>
<totfact> 0.14297780E+05</totfact>
</mgrwt>
</event>
<event>
 8    1  0.1372337E-024  0.8076795E+02  0.7818608E-02  0.1326886E+00
         -2   -1    0    0    0  501 -0.00000000000E+00  0.00000000000E+00  0.59972676084E+01  0.59972681505E+01  0.25500000000E-02 0.  1.
          1   -1    0    0  501    0  0.00000000000E+00 -0.00000000000E+00 -0.27193472639E+03  0.27193472643E+03  0.50400000000E-02 0. -1.
        -24    2    1    2    0    0  0.00000000000E+00  0.00000000000E+00 -0.26593745878E+03  0.27793199458E+03  0.80767949286E+02 0.  0.
         66    2    3    3    0    0  0.32145054832E+02  0.24045947569E+02 -0.14738272799E+03  0.15276511597E+03  0.20000010029E+01 0.  0.
         13    1    3    3    0    0 -0.32145054832E+02 -0.24045947569E+02 -0.11855473079E+03  0.12516687861E+03  0.10566000000E+00 0. -1.
         13    1    4    4    0    0  0.14257579399E+02  0.10122660063E+02 -0.66002991108E+02  0.68279959111E+02  0.10566000000E+00 0. -1.
        -13    1    4    4    0    0  0.85642458240E+01  0.72641653822E+01 -0.41380631321E+02  0.42877525789E+02  0.10566000000E+00 0.  1.
        -14    1    4    4    0    0  0.93232296095E+01  0.66591221245E+01 -0.39999105558E+02  0.41607631070E+02  0.00000000000E+00 0.  1.
<mgrwt>
<rscale>  0 0.80767949E+02</rscale>
<asrwt>0</asrwt>
<pdfrwt beam="1">  1        1 0.41836102E-01 0.80767949E+02</pdfrwt>
<pdfrwt beam="2">  1       -2 0.92265681E-03 0.80767949E+02</pdfrwt>
<totfact> 0.17262190E+05</totfact>
</mgrwt>
</event>
<event>
 8    1  0.1372337E-024  0.8057384E+02  0.7818608E-02  0.1327431E+00
          1   -1    0    0  501    0  0.00000000000E+00  0.00000000000E+00  0.25517893990E+03  0.25517893995E+03  0.50400000000E-02 0. -1.
         -2   -1    0    0    0  501 -0.00000000000E+00 -0.00000000000E+00 -0.63603835601E+01  0.63603840713E+01  0.25500000000E-02 0.  1.
        -24    2    1    2    0    0  0.00000000000E+00  0.71054273576E-14  0.24881855634E+03  0.26153932402E+03  0.80573842098E+02 0.  0.
         66    2    3    3    0    0 -0.16969435775E+01  0.35852950720E+02  0.18369375033E+03  0.18717827767E+03  0.20000069382E+01 0.  0.
         13    1    3    3    0    0  0.16969435775E+01 -0.35852950720E+02  0.65124806012E+02  0.74361046355E+02  0.10566000000E+00 0. -1.
         13    1    4    4    0    0  0.45488614468E-02  0.27365977050E+01  0.15961109644E+02  0.16194356202E+02  0.10566000000E+00 0. -1.
        -13    1    4    4    0    0 -0.10103006369E+01  0.26541140523E+02  0.13619329415E+03  0.13875906235E+03  0.10566000000E+00 0.  1.
        -14    1    4    4    0    0 -0.69119180205E+00  0.65752124927E+01  0.31539346537E+02  0.32224859121E+02  0.00000000000E+00 0.  1.
<mgrwt>
<rscale>  0 0.80573842E+02</rscale>
<asrwt>0</asrwt>
<pdfrwt beam="1">  1        1 0.39258298E-01 0.80573842E+02</pdfrwt>
<pdfrwt beam="2">  1       -2 0.97852060E-03 0.80573842E+02</pdfrwt>
<totfact> 0.17157530E+05</totfact>
</mgrwt>
</event>
<event>
 8    1  0.1842303E-024  0.7676327E+02  0.7818608E-02  0.1338496E+00
          1   -1    0    0  501    0  0.00000000000E+00  0.00000000000E+00  0.66342967892E+02  0.66342968084E+02  0.50400000000E-02 0. -1.
         -2   -1    0    0    0  501 -0.00000000000E+00 -0.00000000000E+00 -0.22205062876E+02  0.22205063023E+02  0.25500000000E-02 0.  1.
        -24    2    1    2    0    0  0.00000000000E+00  0.00000000000E+00  0.44137905016E+02  0.88548031107E+02  0.76763266955E+02 0.  0.
         66    2    3    3    0    0  0.10653064745E+02  0.18448383173E+02 -0.14708076863E+02  0.25964555832E+02  0.20000010966E+01 0.  0.
         13    1    3    3    0    0 -0.10653064745E+02 -0.18448383173E+02  0.58845981879E+02  0.62583475275E+02  0.10566000000E+00 0. -1.
         13    1    4    4    0    0  0.55811395828E+01  0.86495321182E+01 -0.70481187921E+01  0.12476003665E+02  0.10566000000E+00 0. -1.
        -13    1    4    4    0    0  0.48512091525E+01  0.85394034150E+01 -0.68609111250E+01  0.11980772364E+02  0.10566000000E+00 0.  1.
         14    1    4    4    0    0  0.22071601005E+00  0.12594476397E+01 -0.79904694577E+00  0.15077798034E+01  0.00000000000E+00 0. -1.
<mgrwt>
<rscale>  0 0.76763267E+02</rscale>
<asrwt>0</asrwt>
<pdfrwt beam="1">  1        1 0.10206610E-01 0.76763267E+02</pdfrwt>
<pdfrwt beam="2">  1       -2 0.34161636E-02 0.76763267E+02</pdfrwt>
<totfact> 0.15398775E+05</totfact>
</mgrwt>
</event>
<event>
 8    1  0.1372337E-024  0.7923409E+02  0.7818608E-02  0.1331239E+00
          1   -1    0    0  501    0  0.00000000000E+00  0.00000000000E+00  0.11448410187E+03  0.11448410198E+03  0.50400000000E-02 0. -1.
         -2   -1    0    0    0  501 -0.00000000000E+00 -0.00000000000E+00 -0.13709414821E+02  0.13709415059E+02  0.25500000000E-02 0.  1.
        -24    2    1    2    0    0  0.00000000000E+00 -0.35527136788E-14  0.10077468705E+03  0.12819351704E+03  0.79234085224E+02 0.  0.
         66    2    3    3    0    0  0.57929184220E+00 -0.25005007871E+02  0.76460551127E+00  0.25103199498E+02  0.20000014501E+01 0.  0.
         13    1    3    3    0    0 -0.57929184220E+00  0.25005007871E+02  0.10001008154E+03  0.10309031754E+03  0.10566000000E+00 0. -1.
         13    1    4    4    0    0  0.37708434563E+00 -0.82792703078E+01  0.97867746839E+00  0.83461058618E+01  0.10566000000E+00 0. -1.
        -13    1    4    4    0    0 -0.76092962515E-02 -0.30551961707E+01  0.32541032466E+00  0.30743027597E+01  0.10566000000E+00 0.  1.
         14    1    4    4    0    0  0.20981679282E+00 -0.13670541392E+02 -0.53948228178E+00  0.13682790877E+02  0.00000000000E+00 0. -1.
<mgrwt>
<rscale>  0 0.79234085E+02</rscale>
<asrwt>0</asrwt>
<pdfrwt beam="1">  1        1 0.17612939E-01 0.79234085E+02</pdfrwt>
<pdfrwt beam="2">  1       -2 0.21091408E-02 0.79234085E+02</pdfrwt>
<totfact> 0.15436865E+05</totfact>
</mgrwt>
</event>
<event>
 8    1  0.1372337E-024  0.8045091E+02  0.7818608E-02  0.1327777E+00
         -2   -1    0    0    0  501 -0.00000000000E+00  0.00000000000E+00  0.88830017758E+03  0.88830017758E+03  0.25500000000E-02 0.  1.
          1   -1    0    0  501    0  0.00000000000E+00 -0.00000000000E+00 -0.18215512668E+01  0.18215582393E+01  0.50400000000E-02 0. -1.
        -24    2    1    2    0    0  0.71054273576E-14 -0.17763568394E-14  0.88647862631E+03  0.89012173582E+03  0.80450914690E+02 0.  0.
         66    2    3    3    0    0  0.18293737159E+02 -0.12644605658E+02  0.81404381721E+03  0.81434997587E+03  0.20000004435E+01 0.  0.
         13    1    3    3    0    0 -0.18293737159E+02  0.12644605658E+02  0.72434809109E+02  0.75771759952E+02  0.10566000000E+00 0. -1.
         13    1    4    4    0    0  0.11205870276E+02 -0.81683641009E+01  0.48181666628E+03  0.48201618725E+03  0.10566000000E+00 0. -1.
        -13    1    4    4    0    0  0.21836785469E+01 -0.11777627976E+01  0.11031463800E+03  0.11034258515E+03  0.10566000000E+00 0.  1.
        -14    1    4    4    0    0  0.49041883356E+01 -0.32984787594E+01  0.22191251292E+03  0.22199120347E+03  0.00000000000E+00 0.  1.
<mgrwt>
<rscale>  0 0.80450915E+02</rscale>
<asrwt>0</asrwt>
<pdfrwt beam="1">  1        1 0.28023951E-03 0.80450915E+02</pdfrwt>
<pdfrwt beam="2">  1       -2 0.13666141E+00 0.80450915E+02</pdfrwt>
<totfact> 0.29356920E+04</totfact>
</mgrwt>
</event>
<event>
 8    1  0.1372337E-024  0.8065910E+02  0.7818608E-02  0.1327191E+00
         -2   -1    0    0    0  501 -0.00000000000E+00  0.00000000000E+00  0.37133714502E+03  0.37133714502E+03  0.25500000000E-02 0.  1.
          1   -1    0    0  501    0  0.00000000000E+00 -0.00000000000E+00 -0.43800410498E+01  0.43800439495E+01  0.50400000000E-02 0. -1.
        -24    2    1    2    0    0  0.00000000000E+00  0.88817841970E-15  0.36695710397E+03  0.37571718897E+03  0.80659097065E+02 0.  0.
         66    2    3    3    0    0 -0.34973872557E+02  0.46381223844E+01  0.27436803819E+03  0.27663424288E+03  0.20000035309E+01 0.  0.
         13    1    3    3    0    0  0.34973872557E+02 -0.46381223844E+01  0.92589065778E+02  0.99082946094E+02  0.10566000000E+00 0. -1.
         13    1    4    4    0    0 -0.23055131376E+01  0.49377320460E+00  0.21498129433E+02  0.21627296086E+02  0.10566000000E+00 0. -1.
        -13    1    4    4    0    0 -0.25513533448E+02  0.28319053534E+01  0.19720911053E+03  0.19887283504E+03  0.10566000000E+00 0.  1.
         14    1    4    4    0    0 -0.71548259708E+01  0.13124438264E+01  0.55660798227E+02  0.56134111757E+02  0.00000000000E+00 0. -1.
<mgrwt>
<rscale>  0 0.80659097E+02</rscale>
<asrwt>0</asrwt>
<pdfrwt beam="1">  1        1 0.67385251E-03 0.80659097E+02</pdfrwt>
<pdfrwt beam="2">  1       -2 0.57128807E-01 0.80659097E+02</pdfrwt>
<totfact> 0.60701774E+04</totfact>
</mgrwt>
</event>
<event>
 8    1  0.1372337E-024  0.7870981E+02  0.7818608E-02  0.1332753E+00
          1   -1    0    0  501    0  0.00000000000E+00  0.00000000000E+00  0.87718515264E+01  0.87718529743E+01  0.50400000000E-02 0. -1.
         -2   -1    0    0    0  501 -0.00000000000E+00 -0.00000000000E+00 -0.17656573196E+03  0.17656573198E+03  0.25500000000E-02 0.  1.
        -24    2    1    2    0    0 -0.35527136788E-14  0.00000000000E+00 -0.16779388044E+03  0.18533758496E+03  0.78709809333E+02 0.  0.
         66    2    3    3    0    0  0.20627166955E+02  0.11539991622E+02 -0.15797052665E+03  0.15974147457E+03  0.19999963535E+01 0.  0.
         13    1    3    3    0    0 -0.20627166955E+02 -0.11539991622E+02 -0.98233537904E+01  0.25596110387E+02  0.10566000000E+00 0. -1.
         13    1    4    4    0    0  0.30548839011E+01  0.19056998221E+01 -0.22020944483E+02  0.22313609466E+02  0.10566000000E+00 0. -1.
        -13    1    4    4    0    0  0.57549665874E+01  0.31689654886E+01 -0.49782465796E+02  0.50214211608E+02  0.10566000000E+00 0.  1.
         14    1    4    4    0    0  0.11817316466E+02  0.64653263109E+01 -0.86167116368E+02  0.87213653495E+02  0.00000000000E+00 0. -1.
<mgrwt>
<rscale>  0 0.78709809E+02</rscale>
<asrwt>0</asrwt>
<pdfrwt beam="1">  1        1 0.13495159E-02 0.78709809E+02</pdfrwt>
<pdfrwt beam="2">  1       -2 0.27163956E-01 0.78709809E+02</pdfrwt>
<totfact> 0.93107996E+04</totfact>
</mgrwt>
</event>
<event>
 8    1  0.1372337E-024  0.7928086E+02  0.7818608E-02  0.1331105E+00
          1   -1    0    0  501    0  0.00000000000E+00  0.00000000000E+00  0.97393052154E+02  0.97393052284E+02  0.50400000000E-02 0. -1.
         -2   -1    0    0    0  501 -0.00000000000E+00 -0.00000000000E+00 -0.16134248344E+02  0.16134248546E+02  0.25500000000E-02 0.  1.
        -24    2    1    2    0    0  0.71054273576E-14  0.00000000000E+00  0.81258803809E+02  0.11352730083E+03  0.79280860472E+02 0.  0.
         66    2    3    3    0    0 -0.33834329071E+02  0.96300929916E+01  0.66741232357E+02  0.75471137602E+02  0.19999999067E+01 0.  0.
         13    1    3    3    0    0  0.33834329071E+02 -0.96300929916E+01  0.14517571452E+02  0.38056163228E+02  0.10566000000E+00 0. -1.
         13    1    4    4    0    0 -0.18825941406E+02  0.58377638853E+01  0.37039175903E+02  0.41957207636E+02  0.10566000000E+00 0. -1.
        -13    1    4    4    0    0 -0.15006228274E+02  0.38280888749E+01  0.29642348073E+02  0.33444298689E+02  0.10566000000E+00 0.  1.
         14    1    4    4    0    0 -0.21593915052E-02 -0.35759768524E-01  0.59708380683E-01  0.69631277027E-01  0.00000000000E+00 0. -1.
<mgrwt>
<rscale>  0 0.79280860E+02</rscale>
<asrwt>0</asrwt>
<pdfrwt beam="1">  1        1 0.14983547E-01 0.79280860E+02</pdfrwt>
<pdfrwt beam="2">  1       -2 0.24821921E-02 0.79280860E+02</pdfrwt>
<totfact> 0.14995762E+05</totfact>
</mgrwt>
</event>
<event>
 8    1  0.1372337E-024  0.8104132E+02  0.7818608E-02  0.1326122E+00
          1   -1    0    0  501    0  0.00000000000E+00  0.00000000000E+00  0.15453394085E+03  0.15453394094E+03  0.50400000000E-02 0. -1.
         -2   -1    0    0    0  501 -0.00000000000E+00 -0.00000000000E+00 -0.10625004061E+02  0.10625004367E+02  0.25500000000E-02 0.  1.
        -24    2    1    2    0    0  0.00000000000E+00  0.00000000000E+00  0.14390893679E+03  0.16515894530E+03  0.81041317394E+02 0.  0.
         66    2    3    3    0    0  0.36681795070E+02  0.58965505106E+01  0.39162633158E+02  0.54018841441E+02  0.19999993084E+01 0.  0.
         13    1    3    3    0    0 -0.36681795070E+02 -0.58965505106E+01  0.10474630363E+03  0.11114010386E+03  0.10566000000E+00 0. -1.
         13    1    4    4    0    0  0.24721275566E+01  0.62107985508E+00  0.30807093422E+01  0.39998861145E+01  0.10566000000E+00 0. -1.
        -13    1    4    4    0    0  0.23368247385E+02  0.40345266079E+01  0.24033936636E+02  0.33763792219E+02  0.10566000000E+00 0.  1.
        -14    1    4    4    0    0  0.10841420129E+02  0.12409440476E+01  0.12047987180E+02  0.16255163107E+02  0.00000000000E+00 0.  1.
<mgrwt>
<rscale>  0 0.81041317E+02</rscale>
<asrwt>0</asrwt>
<pdfrwt beam="1">  1        1 0.23774452E-01 0.81041317E+02</pdfrwt>
<pdfrwt beam="2">  1       -2 0.16346161E-02 0.81041317E+02</pdfrwt>
<totfact> 0.15336431E+05</totfact>
</mgrwt>
</event>
<event>
 8    1  0.1372337E-024  0.7576670E+02  0.7818608E-02  0.1341513E+00
         -2   -1    0    0    0  501 -0.00000000000E+00  0.00000000000E+00  0.11742946615E+02  0.11742946892E+02  0.25500000000E-02 0.  1.
          1   -1    0    0  501    0  0.00000000000E+00 -0.00000000000E+00 -0.12221363053E+03  0.12221363063E+03  0.50400000000E-02 0. -1.
        -24    2    1    2    0    0  0.00000000000E+00  0.00000000000E+00 -0.11047068391E+03  0.13395657752E+03  0.75766698871E+02 0.  0.
         66    2    3    3    0    0  0.92109105848E+01 -0.29663928088E+02 -0.17011279670E+02  0.35470736365E+02  0.19999997070E+01 0.  0.
         13    1    3    3    0    0 -0.92109105848E+01  0.29663928088E+02 -0.93459404241E+02  0.98485841157E+02  0.10566000000E+00 0. -1.
         13    1    4    4    0    0  0.51191156690E+01 -0.16793027943E+02 -0.95923346530E+01  0.20005878657E+02  0.10566000000E+00 0. -1.
        -13    1    4    4    0    0  0.29596808972E+01 -0.86661556831E+01 -0.43585302343E+01  0.10142480721E+02  0.10566000000E+00 0.  1.
         14    1    4    4    0    0  0.11321140185E+01 -0.42047444624E+01 -0.30604147826E+01  0.53223769866E+01  0.00000000000E+00 0. -1.
<mgrwt>
<rscale>  0 0.75766699E+02</rscale>
<asrwt>0</asrwt>
<pdfrwt beam="1">  1        1 0.18802096E-01 0.75766699E+02</pdfrwt>
<pdfrwt beam="2">  1       -2 0.18066073E-02 0.75766699E+02</pdfrwt>
<totfact> 0.17599110E+05</totfact>
</mgrwt>
</event>
<event>
 8    1  0.1372337E-024  0.7952752E+02  0.7818608E-02  0.1330398E+00
          1   -1    0    0  501    0  0.00000000000E+00  0.00000000000E+00  0.73394323134E+01  0.73394340439E+01  0.50400000000E-02 0. -1.
         -2   -1    0    0    0  501 -0.00000000000E+00 -0.00000000000E+00 -0.21543306512E+03  0.21543306514E+03  0.25500000000E-02 0.  1.
        -24    2    1    2    0    0  0.00000000000E+00  0.00000000000E+00 -0.20809363281E+03  0.22277249918E+03  0.79527519614E+02 0.  0.
         66    2    3    3    0    0 -0.88283858223E+01  0.65754125933E+01 -0.21107189833E+03  0.21136821593E+03  0.19999986741E+01 0.  0.
         13    1    3    3    0    0  0.88283858223E+01 -0.65754125933E+01  0.29782655168E+01  0.11404283253E+02  0.10566000000E+00 0. -1.
         13    1    4    4    0    0 -0.69980481042E+01  0.58005355189E+01 -0.17899525605E+03  0.17922592375E+03  0.10566000000E+00 0. -1.
        -13    1    4    4    0    0 -0.26224637222E+00  0.18138841718E+00 -0.81856278003E+01  0.81925174054E+01  0.10566000000E+00 0.  1.
         14    1    4    4    0    0 -0.15680913459E+01  0.59348865727E+00 -0.23891014476E+02  0.23949774779E+02  0.00000000000E+00 0. -1.
<mgrwt>
<rscale>  0 0.79527520E+02</rscale>
<asrwt>0</asrwt>
<pdfrwt beam="1">  1        1 0.11291437E-02 0.79527520E+02</pdfrwt>
<pdfrwt beam="2">  1       -2 0.33143544E-01 0.79527520E+02</pdfrwt>
<totfact> 0.83751091E+04</totfact>
</mgrwt>
</event>
<event>
 8    1  0.1372337E-024  0.7922798E+02  0.7818608E-02  0.1331257E+00
          1   -1    0    0  501    0  0.00000000000E+00  0.00000000000E+00  0.29879842026E+01  0.29879884533E+01  0.50400000000E-02 0. -1.
         -2   -1    0    0    0  501 -0.00000000000E+00 -0.00000000000E+00 -0.52519256612E+03  0.52519256612E+03  0.25500000000E-02 0.  1.
        -24    2    1    2    0    0 -0.17763568394E-14 -0.44408920985E-15 -0.52220458192E+03  0.52818055458E+03  0.79227980287E+02 0.  0.
         66    2    3    3    0    0  0.10443893338E+02  0.27147810323E+01 -0.51519606341E+03  0.51531294253E+03  0.20000112011E+01 0.  0.
         13    1    3    3    0    0 -0.10443893338E+02 -0.27147810323E+01 -0.70085185100E+01  0.12867612049E+02  0.10566000000E+00 0. -1.
         13    1    4    4    0    0  0.31089484547E+01  0.54178123352E+00 -0.17015050697E+03  0.17017980278E+03  0.10566000000E+00 0. -1.
        -13    1    4    4    0    0  0.65100191218E+01  0.14399006775E+01 -0.29932375989E+03  0.29939802614E+03  0.10566000000E+00 0.  1.
         14    1    4    4    0    0  0.82492576120E+00  0.73309912126E+00 -0.45721796552E+02  0.45735113609E+02  0.00000000000E+00 0. -1.
<mgrwt>
<rscale>  0 0.79227980E+02</rscale>
<asrwt>0</asrwt>
<pdfrwt beam="1">  1        1 0.45969062E-03 0.79227980E+02</pdfrwt>
<pdfrwt beam="2">  1       -2 0.80798783E-01 0.79227980E+02</pdfrwt>
<totfact> 0.49724597E+04</totfact>
</mgrwt>
</event>
<event>
 8    1  0.1372337E-024  0.7878273E+02  0.7818608E-02  0.1332542E+00
          1   -1    0    0  501    0  0.00000000000E+00  0.00000000000E+00  0.53749820877E+03  0.53749820879E+03  0.50400000000E-02 0. -1.
         -2   -1    0    0    0  501 -0.00000000000E+00 -0.00000000000E+00 -0.28868551472E+01  0.28868562734E+01  0.25500000000E-02 0.  1.
        -24    2    1    2    0    0 -0.35527136788E-14  0.35527136788E-14  0.53461135362E+03  0.54038506507E+03  0.78782733674E+02 0.  0.
         66    2    3    3    0    0 -0.20919327890E+02  0.31356904563E+02  0.34532270620E+03  0.34737968444E+03  0.20000006032E+01 0.  0.
         13    1    3    3    0    0  0.20919327890E+02 -0.31356904563E+02  0.18928864742E+03  0.19300538062E+03  0.10566000000E+00 0. -1.
         13    1    4    4    0    0 -0.16151652987E+02  0.23413559844E+02  0.26007544662E+03  0.26162629795E+03  0.10566000000E+00 0. -1.
        -13    1    4    4    0    0 -0.44678977738E+01  0.73036825487E+01  0.80451622023E+02  0.80905998168E+02  0.10566000000E+00 0.  1.
         14    1    4    4    0    0 -0.29977712914E+00  0.63966217017E+00  0.47956375583E+01  0.48473883287E+01  0.00000000000E+00 0. -1.
<mgrwt>
<rscale>  0 0.78782734E+02</rscale>
<asrwt>0</asrwt>
<pdfrwt beam="1">  1        1 0.82691991E-01 0.78782734E+02</pdfrwt>
<pdfrwt beam="2">  1       -2 0.44413187E-03 0.78782734E+02</pdfrwt>
<totfact> 0.20571219E+05</totfact>
</mgrwt>
</event>
<event>
 8    1  0.1372337E-024  0.7964048E+02  0.7818608E-02  0.1330075E+00
          1   -1    0    0  501    0  0.00000000000E+00  0.00000000000E+00  0.31590296063E+02  0.31590296465E+02  0.50400000000E-02 0. -1.
         -2   -1    0    0    0  501 -0.00000000000E+00 -0.00000000000E+00 -0.50194257828E+02  0.50194257893E+02  0.25500000000E-02 0.  1.
        -24    2    1    2    0    0  0.00000000000E+00 -0.35527136788E-14 -0.18603961765E+02  0.81784554358E+02  0.79640479269E+02 0.  0.
         66    2    3    3    0    0  0.27460219436E+02 -0.25536472279E+02 -0.22988322293E+02  0.44029967230E+02  0.19999961239E+01 0.  0.
         13    1    3    3    0    0 -0.27460219436E+02  0.25536472279E+02  0.43843605278E+01  0.37754587128E+02  0.10566000000E+00 0. -1.
         13    1    4    4    0    0  0.56658435189E+01 -0.48290303098E+01 -0.49627144253E+01  0.89476821030E+01  0.10566000000E+00 0. -1.
        -13    1    4    4    0    0  0.12469364835E+02 -0.10871598658E+02 -0.99626264247E+01  0.19311701273E+02  0.10566000000E+00 0.  1.
         14    1    4    4    0    0  0.93250110820E+01 -0.98358433116E+01 -0.80629814425E+01  0.15770583853E+02  0.00000000000E+00 0. -1.
<mgrwt>
<rscale>  0 0.79640479E+02</rscale>
<asrwt>0</asrwt>
<pdfrwt beam="1">  1        1 0.48600456E-02 0.79640479E+02</pdfrwt>
<pdfrwt beam="2">  1       -2 0.77221935E-02 0.79640479E+02</pdfrwt>
<totfact> 0.12363216E+05</totfact>
</mgrwt>
</event>
<event>
 8    1  0.1372337E-024  0.7983687E+02  0.7818608E-02  0.1329515E+00
         -2   -1    0    0    0  501 -0.00000000000E+00  0.00000000000E+00  0.63609173039E+01  0.63609178150E+01  0.25500000000E-02 0.  1.
          1   -1    0    0  501    0  0.00000000000E+00 -0.00000000000E+00 -0.25051127957E+03  0.25051127962E+03  0.50400000000E-02 0. -1.
        -24    2    1    2    0    0 -0.71054273576E-14  0.00000000000E+00 -0.24415036226E+03  0.25687219743E+03  0.79836873816E+02 0.  0.
         66    2    3    3    0    0  0.39040696703E+02  0.40333777986E+01 -0.99166971111E+02  0.10667020341E+03  0.19999999549E+01 0.  0.
         13    1    3    3    0    0 -0.39040696703E+02 -0.40333777986E+01 -0.14498339115E+03  0.15020199402E+03  0.10566000000E+00 0. -1.
         13    1    4    4    0    0  0.45421952658E+01  0.66636918482E+00 -0.12994560197E+02  0.13782066045E+02  0.10566000000E+00 0. -1.
        -13    1    4    4    0    0  0.28866930918E+02  0.31116919854E+01 -0.72772791780E+02  0.78350958611E+02  0.10566000000E+00 0.  1.
         14    1    4    4    0    0  0.56315705196E+01  0.25531662841E+00 -0.13399619134E+02  0.14537178751E+02  0.00000000000E+00 0. -1.
<mgrwt>
<rscale>  0 0.79836874E+02</rscale>
<asrwt>0</asrwt>
<pdfrwt beam="1">  1        1 0.38540189E-01 0.79836874E+02</pdfrwt>
<pdfrwt beam="2">  1       -2 0.97860290E-03 0.79836874E+02</pdfrwt>
<totfact> 0.17516475E+05</totfact>
</mgrwt>
</event>
<event>
 8    1  0.1372337E-024  0.7269830E+02  0.7818608E-02  0.1351151E+00
         -2   -1    0    0    0  501 -0.00000000000E+00  0.00000000000E+00  0.10980714103E+02  0.10980714399E+02  0.25500000000E-02 0.  1.
          1   -1    0    0  501    0  0.00000000000E+00 -0.00000000000E+00 -0.12032556314E+03  0.12032556325E+03  0.50400000000E-02 0. -1.
        -24    2    1    2    0    0  0.00000000000E+00 -0.35527136788E-14 -0.10934484904E+03  0.13130627765E+03  0.72698298041E+02 0.  0.
         66    2    3    3    0    0  0.31201326108E+02 -0.18582656258E+02 -0.53546021671E+02  0.64730319793E+02  0.19999997870E+01 0.  0.
         13    1    3    3    0    0 -0.31201326108E+02  0.18582656258E+02 -0.55798827366E+02  0.66575957853E+02  0.10566000000E+00 0. -1.
         13    1    4    4    0    0  0.14851931638E+01 -0.72681514521E+00 -0.21836863596E+01  0.27411145802E+01  0.10566000000E+00 0. -1.
        -13    1    4    4    0    0  0.27017158099E+02 -0.16012476768E+02 -0.45696399951E+02  0.55448159361E+02  0.10566000000E+00 0.  1.
         14    1    4    4    0    0  0.26989748459E+01 -0.18433643440E+01 -0.56659353607E+01  0.65410458518E+01  0.00000000000E+00 0. -1.
<mgrwt>
<rscale>  0 0.72698298E+02</rscale>
<asrwt>0</asrwt>
<pdfrwt beam="1">  1        1 0.18511624E-01 0.72698298E+02</pdfrwt>
<pdfrwt beam="2">  1       -2 0.16893407E-02 0.72698298E+02</pdfrwt>
<totfact> 0.19590691E+05</totfact>
</mgrwt>
</event>
<event>
 8    1  0.1372337E-024  0.7961052E+02  0.7818608E-02  0.1330160E+00
          1   -1    0    0  501    0  0.00000000000E+00  0.00000000000E+00  0.46889719924E+02  0.46889720195E+02  0.50400000000E-02 0. -1.
         -2   -1    0    0    0  501 -0.00000000000E+00 -0.00000000000E+00 -0.33791177826E+02  0.33791177922E+02  0.25500000000E-02 0.  1.
        -24    2    1    2    0    0  0.00000000000E+00  0.00000000000E+00  0.13098542098E+02  0.80680898117E+02  0.79610523902E+02 0.  0.
         66    2    3    3    0    0  0.19397350885E+02  0.15051453374E+02 -0.25166799541E+02  0.35216065501E+02  0.20000000387E+01 0.  0.
         13    1    3    3    0    0 -0.19397350885E+02 -0.15051453374E+02  0.38265341639E+02  0.45464832616E+02  0.10566000000E+00 0. -1.
         13    1    4    4    0    0  0.29275321608E+01  0.25402627736E+01 -0.40151712286E+01  0.55817688542E+01  0.10566000000E+00 0. -1.
        -13    1    4    4    0    0  0.38556063903E+01  0.33995697912E+01 -0.61997617749E+01  0.80542526346E+01  0.10566000000E+00 0.  1.
        -14    1    4    4    0    0  0.12614212334E+02  0.91116208094E+01 -0.14951866538E+02  0.21580044012E+02  0.00000000000E+00 0.  1.
<mgrwt>
<rscale>  0 0.79610524E+02</rscale>
<asrwt>0</asrwt>
<pdfrwt beam="1">  1        1 0.72138032E-02 0.79610524E+02</pdfrwt>
<pdfrwt beam="2">  1       -2 0.51986427E-02 0.79610524E+02</pdfrwt>
<totfact> 0.13203102E+05</totfact>
</mgrwt>
</event>
<event>
 8    1  0.1372337E-024  0.8043651E+02  0.7818608E-02  0.1327817E+00
          1   -1    0    0  501    0  0.00000000000E+00  0.00000000000E+00  0.52498644764E+01  0.52498668957E+01  0.50400000000E-02 0. -1.
         -2   -1    0    0    0  501 -0.00000000000E+00 -0.00000000000E+00 -0.30810465101E+03  0.30810465102E+03  0.25500000000E-02 0.  1.
        -24    2    1    2    0    0  0.00000000000E+00  0.17763568394E-14 -0.30285478654E+03  0.31335451792E+03  0.80436510195E+02 0.  0.
         66    2    3    3    0    0  0.38992382276E+02  0.97154558071E+01 -0.14824486595E+03  0.15360773497E+03  0.20000006913E+01 0.  0.
         13    1    3    3    0    0 -0.38992382276E+02 -0.97154558071E+01 -0.15460992058E+03  0.15974678295E+03  0.10566000000E+00 0. -1.
         13    1    4    4    0    0  0.11971111440E+01  0.33671367594E+00 -0.37455688620E+01  0.39480249906E+01  0.10566000000E+00 0. -1.
        -13    1    4    4    0    0  0.14346653259E+02  0.30046189292E+01 -0.55340447583E+02  0.57248847127E+02  0.10566000000E+00 0.  1.
        -14    1    4    4    0    0  0.23448617873E+02  0.63741232019E+01 -0.89158849510E+02  0.92410862850E+02  0.00000000000E+00 0.  1.
<mgrwt>
<rscale>  0 0.80436510E+02</rscale>
<asrwt>0</asrwt>
<pdfrwt beam="1">  1        1 0.80767189E-03 0.80436510E+02</pdfrwt>
<pdfrwt beam="2">  1       -2 0.47400701E-01 0.80436510E+02</pdfrwt>
<totfact> 0.68281798E+04</totfact>
</mgrwt>
</event>
<event>
 8    1  0.1372337E-024  0.7937968E+02  0.7818608E-02  0.1330821E+00
          1   -1    0    0  501    0  0.00000000000E+00  0.00000000000E+00  0.52793164818E+03  0.52793164820E+03  0.50400000000E-02 0. -1.
         -2   -1    0    0    0  501 -0.00000000000E+00 -0.00000000000E+00 -0.29838768968E+01  0.29838779864E+01  0.25500000000E-02 0.  1.
        -24    2    1    2    0    0  0.00000000000E+00 -0.35527136788E-14  0.52494777128E+03  0.53091552619E+03  0.79379678602E+02 0.  0.
         66    2    3    3    0    0 -0.24932906265E+02  0.27938717782E+02  0.35011546135E+03  0.35211796042E+03  0.20000013512E+01 0.  0.
         13    1    3    3    0    0  0.24932906265E+02 -0.27938717782E+02  0.17483230993E+03  0.17879756577E+03  0.10566000000E+00 0. -1.
         13    1    4    4    0    0 -0.54572370233E+00  0.55318947356E+00  0.60078485375E+01  0.60588151514E+01  0.10566000000E+00 0. -1.
        -13    1    4    4    0    0 -0.20571941965E+02  0.22587456800E+02  0.28243302737E+03  0.28408066481E+03  0.10566000000E+00 0.  1.
        -14    1    4    4    0    0 -0.38152405970E+01  0.47980715083E+01  0.61674585442E+02  0.61978480463E+02  0.00000000000E+00 0.  1.
<mgrwt>
<rscale>  0 0.79379679E+02</rscale>
<asrwt>0</asrwt>
<pdfrwt beam="1">  1        1 0.81220307E-01 0.79379679E+02</pdfrwt>
<pdfrwt beam="2">  1       -2 0.45905777E-03 0.79379679E+02</pdfrwt>
<totfact> 0.20132862E+05</totfact>
</mgrwt>
</event>
<event>
 8    1  0.1372337E-024  0.7993584E+02  0.7818608E-02  0.1329234E+00
          1   -1    0    0  501    0  0.00000000000E+00  0.00000000000E+00  0.15432686966E+03  0.15432686975E+03  0.50400000000E-02 0. -1.
         -2   -1    0    0    0  501 -0.00000000000E+00 -0.00000000000E+00 -0.10350981363E+02  0.10350981677E+02  0.25500000000E-02 0.  1.
        -24    2    1    2    0    0 -0.35527136788E-14 -0.35527136788E-14  0.14397588830E+03  0.16467785142E+03  0.79935838880E+02 0.  0.
         66    2    3    3    0    0  0.24776727293E+02  0.27792522151E+02  0.42241511216E+02  0.56344084076E+02  0.20000094295E+01 0.  0.
         13    1    3    3    0    0 -0.24776727293E+02 -0.27792522151E+02  0.10173437709E+03  0.10833376735E+03  0.10566000000E+00 0. -1.
         13    1    4    4    0    0  0.22732861563E+01  0.21587684913E+01  0.31016701257E+01  0.44113073971E+01  0.10566000000E+00 0. -1.
        -13    1    4    4    0    0  0.21532067466E+02  0.24183081715E+02  0.37370267100E+02  0.49446935171E+02  0.10566000000E+00 0.  1.
        -14    1    4    4    0    0  0.97137367065E+00  0.14506719443E+01  0.17695739901E+01  0.24858415083E+01  0.00000000000E+00 0.  1.
<mgrwt>
<rscale>  0 0.79935839E+02</rscale>
<asrwt>0</asrwt>
<pdfrwt beam="1">  1        1 0.23742594E-01 0.79935839E+02</pdfrwt>
<pdfrwt beam="2">  1       -2 0.15924588E-02 0.79935839E+02</pdfrwt>
<totfact> 0.15905785E+05</totfact>
</mgrwt>
</event>
<event>
 8    1  0.1372337E-024  0.8046507E+02  0.7818608E-02  0.1327737E+00
         -2   -1    0    0    0  501 -0.00000000000E+00  0.00000000000E+00  0.14842254522E+03  0.14842254525E+03  0.25500000000E-02 0.  1.
          1   -1    0    0  501    0  0.00000000000E+00 -0.00000000000E+00 -0.10905735102E+02  0.10905736266E+02  0.50400000000E-02 0. -1.
        -24    2    1    2    0    0  0.00000000000E+00  0.35527136788E-14  0.13751681012E+03  0.15932828151E+03  0.80465074557E+02 0.  0.
         66    2    3    3    0    0 -0.18344648464E+02 -0.23589021640E+02  0.12206797456E+03  0.12568833868E+03  0.19999996821E+01 0.  0.
         13    1    3    3    0    0  0.18344648464E+02  0.23589021640E+02  0.15448835562E+02  0.33639942828E+02  0.10566000000E+00 0. -1.
         13    1    4    4    0    0 -0.26539328405E+01 -0.32087232768E+01  0.14556552410E+02  0.15140794124E+02  0.10566000000E+00 0. -1.
        -13    1    4    4    0    0 -0.14643783214E+02 -0.19079595541E+02  0.10122223814E+03  0.10404049217E+03  0.10566000000E+00 0.  1.
        -14    1    4    4    0    0 -0.10469324097E+01 -0.13007028227E+01  0.62891840056E+01  0.65070523864E+01  0.00000000000E+00 0.  1.
<mgrwt>
<rscale>  0 0.80465075E+02</rscale>
<asrwt>0</asrwt>
<pdfrwt beam="1">  1        1 0.16778055E-02 0.80465075E+02</pdfrwt>
<pdfrwt beam="2">  1       -2 0.22834238E-01 0.80465075E+02</pdfrwt>
<totfact> 0.93433558E+04</totfact>
</mgrwt>
</event>
<event>
 8    1  0.1372337E-024  0.7610236E+02  0.7818608E-02  0.1340491E+00
          1   -1    0    0  501    0  0.00000000000E+00  0.00000000000E+00  0.21875355539E+01  0.21875413599E+01  0.50400000000E-02 0. -1.
         -2   -1    0    0    0  501 -0.00000000000E+00 -0.00000000000E+00 -0.66188196641E+03  0.66188196642E+03  0.25500000000E-02 0.  1.
        -24    2    1    2    0    0  0.00000000000E+00  0.00000000000E+00 -0.65969443086E+03  0.66406950778E+03  0.76102359056E+02 0.  0.
         66    2    3    3    0    0 -0.18645335134E+02  0.97814784386E+01 -0.60636806255E+03  0.60673680712E+03  0.20000002706E+01 0.  0.
         13    1    3    3    0    0  0.18645335134E+02 -0.97814784386E+01 -0.53326368312E+02  0.57332700652E+02  0.10566000000E+00 0. -1.
         13    1    4    4    0    0 -0.64615044941E+01  0.30406979587E+01 -0.22678610407E+03  0.22689853470E+03  0.10566000000E+00 0. -1.
        -13    1    4    4    0    0 -0.19611963420E+01  0.75232255773E+00 -0.58852912395E+02  0.58890480910E+02  0.10566000000E+00 0.  1.
        -14    1    4    4    0    0 -0.10222634298E+02  0.59884579222E+01 -0.32072904608E+03  0.32094779152E+03  0.00000000000E+00 0.  1.
<mgrwt>
<rscale>  0 0.76102359E+02</rscale>
<asrwt>0</asrwt>
<pdfrwt beam="1">  1        1 0.33654491E-03 0.76102359E+02</pdfrwt>
<pdfrwt beam="2">  1       -2 0.10182784E+00 0.76102359E+02</pdfrwt>
<totfact> 0.45332802E+04</totfact>
</mgrwt>
</event>
<event>
 8    1  0.1372337E-024  0.8119973E+02  0.7818608E-02  0.1325681E+00
         -2   -1    0    0    0  501 -0.00000000000E+00  0.00000000000E+00  0.52561155012E+02  0.52561155074E+02  0.25500000000E-02 0.  1.
          1   -1    0    0  501    0  0.00000000000E+00 -0.00000000000E+00 -0.31360596991E+02  0.31360597396E+02  0.50400000000E-02 0. -1.
        -24    2    1    2    0    0  0.00000000000E+00 -0.35527136788E-14  0.21200558021E+02  0.83921752470E+02  0.81199734465E+02 0.  0.
         66    2    3    3    0    0  0.29053247360E+02 -0.18685415956E+02  0.32606603636E+02  0.47543943407E+02  0.20000006080E+01 0.  0.
         13    1    3    3    0    0 -0.29053247360E+02  0.18685415956E+02 -0.11406045615E+02  0.36377809063E+02  0.10566000000E+00 0. -1.
         13    1    4    4    0    0  0.38622092964E+01 -0.27078991360E+01  0.47613083532E+01  0.67030291398E+01  0.10566000000E+00 0. -1.
        -13    1    4    4    0    0  0.14276430281E+02 -0.85389216089E+01  0.16468716398E+02  0.23408533223E+02  0.10566000000E+00 0.  1.
         14    1    4    4    0    0  0.10914607782E+02 -0.74385952114E+01  0.11376578885E+02  0.17432381045E+02  0.00000000000E+00 0. -1.
<mgrwt>
<rscale>  0 0.81199734E+02</rscale>
<asrwt>0</asrwt>
<pdfrwt beam="1">  1        1 0.48247073E-02 0.81199734E+02</pdfrwt>
<pdfrwt beam="2">  1       -2 0.80863316E-02 0.81199734E+02</pdfrwt>
<totfact> 0.11679770E+05</totfact>
</mgrwt>
</event>
<event>
 8    1  0.1372337E-024  0.7769332E+02  0.7818608E-02  0.1335728E+00
          1   -1    0    0  501    0  0.00000000000E+00  0.00000000000E+00  0.93922364450E+01  0.93922377973E+01  0.50400000000E-02 0. -1.
         -2   -1    0    0    0  501 -0.00000000000E+00 -0.00000000000E+00 -0.16067131206E+03  0.16067131208E+03  0.25500000000E-02 0.  1.
        -24    2    1    2    0    0  0.00000000000E+00  0.00000000000E+00 -0.15127907561E+03  0.17006354987E+03  0.77693321965E+02 0.  0.
         66    2    3    3    0    0 -0.17376484143E+02  0.34675409953E+02 -0.79307452813E+02  0.88306275525E+02  0.19999922402E+01 0.  0.
         13    1    3    3    0    0  0.17376484143E+02 -0.34675409953E+02 -0.71971622798E+02  0.81757274348E+02  0.10566000000E+00 0. -1.
         13    1    4    4    0    0 -0.34808335627E+01  0.70094892154E+01 -0.14616358505E+02  0.16580055528E+02  0.10566000000E+00 0. -1.
        -13    1    4    4    0    0 -0.42553554197E+01  0.95704445680E+01 -0.21525116683E+02  0.23938322231E+02  0.10566000000E+00 0.  1.
         14    1    4    4    0    0 -0.96402951602E+01  0.18095476170E+02 -0.43165977625E+02  0.47787897766E+02  0.00000000000E+00 0. -1.
<mgrwt>
<rscale>  0 0.77693322E+02</rscale>
<asrwt>0</asrwt>
<pdfrwt beam="1">  1        1 0.14449597E-02 0.77693322E+02</pdfrwt>
<pdfrwt beam="2">  1       -2 0.24718661E-01 0.77693322E+02</pdfrwt>
<totfact> 0.99568823E+04</totfact>
</mgrwt>
</event>
<event>
 8    1  0.1372337E-024  0.7911928E+02  0.7818608E-02  0.1331570E+00
         -2   -1    0    0    0  501 -0.00000000000E+00  0.00000000000E+00  0.42023096546E+03  0.42023096547E+03  0.25500000000E-02 0.  1.
          1   -1    0    0  501    0  0.00000000000E+00 -0.00000000000E+00 -0.37240575036E+01  0.37240609140E+01  0.50400000000E-02 0. -1.
        -24    2    1    2    0    0 -0.35527136788E-14  0.17763568394E-14  0.41650690796E+03  0.42395502638E+03  0.79119277164E+02 0.  0.
         66    2    3    3    0    0 -0.18037667994E+02 -0.13851629317E+02  0.38166609554E+03  0.38234831448E+03  0.19999999886E+01 0.  0.
         13    1    3    3    0    0  0.18037667994E+02  0.13851629317E+02  0.34840812418E+02  0.41606711903E+02  0.10566000000E+00 0. -1.
         13    1    4    4    0    0 -0.60639369401E+01 -0.49828928562E+01  0.14398681912E+03  0.14420060956E+03  0.10566000000E+00 0. -1.
        -13    1    4    4    0    0 -0.44004939232E+00 -0.27938688745E+00  0.10853421326E+02  0.10866444635E+02  0.10566000000E+00 0.  1.
        -14    1    4    4    0    0 -0.11533681661E+02 -0.85893495731E+01  0.22682585509E+03  0.22728126028E+03  0.00000000000E+00 0.  1.
<mgrwt>
<rscale>  0 0.79119277E+02</rscale>
<asrwt>0</asrwt>
<pdfrwt beam="1">  1        1 0.57293223E-03 0.79119277E+02</pdfrwt>
<pdfrwt beam="2">  1       -2 0.64650913E-01 0.79119277E+02</pdfrwt>
<totfact> 0.58818979E+04</totfact>
</mgrwt>
</event>
<event>
 8    1  0.1372337E-024  0.7925729E+02  0.7818608E-02  0.1331172E+00
         -2   -1    0    0    0  501 -0.00000000000E+00  0.00000000000E+00  0.11226316641E+02  0.11226316930E+02  0.25500000000E-02 0.  1.
          1   -1    0    0  501    0  0.00000000000E+00 -0.00000000000E+00 -0.13988823680E+03  0.13988823689E+03  0.50400000000E-02 0. -1.
        -24    2    1    2    0    0  0.00000000000E+00  0.00000000000E+00 -0.12866192016E+03  0.15111455382E+03  0.79257294160E+02 0.  0.
         66    2    3    3    0    0  0.33204294990E+01  0.35338857885E+02 -0.30879885384E+02  0.47089568277E+02  0.19999976260E+01 0.  0.
         13    1    3    3    0    0 -0.33204294990E+01 -0.35338857885E+02 -0.97782034777E+02  0.10402498555E+03  0.10566000000E+00 0. -1.
         13    1    4    4    0    0  0.18199811788E+00  0.11179437163E+02 -0.10040096024E+02  0.15027562370E+02  0.10566000000E+00 0. -1.
        -13    1    4    4    0    0  0.24907575051E+01  0.17941063628E+02 -0.15475826756E+02  0.23824315623E+02  0.10566000000E+00 0.  1.
        -14    1    4    4    0    0  0.64767387602E+00  0.62183570939E+01 -0.53639626039E+01  0.82376902839E+01  0.00000000000E+00 0.  1.
<mgrwt>
<rscale>  0 0.79257294E+02</rscale>
<asrwt>0</asrwt>
<pdfrwt beam="1">  1        1 0.21521266E-01 0.79257294E+02</pdfrwt>
<pdfrwt beam="2">  1       -2 0.17271258E-02 0.79257294E+02</pdfrwt>
<totfact> 0.15981704E+05</totfact>
</mgrwt>
</event>
<event>
 8    1  0.1372337E-024  0.7912711E+02  0.7818608E-02  0.1331547E+00
          1   -1    0    0  501    0  0.00000000000E+00  0.00000000000E+00  0.63565007645E+01  0.63565027625E+01  0.50400000000E-02 0. -1.
         -2   -1    0    0    0  501 -0.00000000000E+00 -0.00000000000E+00 -0.24624783781E+03  0.24624783782E+03  0.25500000000E-02 0.  1.
        -24    2    1    2    0    0  0.35527136788E-14  0.00000000000E+00 -0.23989133704E+03  0.25260434058E+03  0.79127108459E+02 0.  0.
         66    2    3    3    0    0 -0.22699184478E+02  0.18720630706E+02 -0.20433705645E+03  0.20645422658E+03  0.20000110733E+01 0.  0.
         13    1    3    3    0    0  0.22699184478E+02 -0.18720630706E+02 -0.35554280595E+02  0.46150114004E+02  0.10566000000E+00 0. -1.
         13    1    4    4    0    0 -0.11324661485E+02  0.88512043681E+01 -0.94178074529E+02  0.95268634201E+02  0.10566000000E+00 0. -1.
        -13    1    4    4    0    0 -0.95493149746E+01  0.80062944568E+01 -0.90090475785E+02  0.90948310367E+02  0.10566000000E+00 0.  1.
         14    1    4    4    0    0 -0.18252080179E+01  0.18631318807E+01 -0.20068506132E+02  0.20237282009E+02  0.00000000000E+00 0. -1.
<mgrwt>
<rscale>  0 0.79127108E+02</rscale>
<asrwt>0</asrwt>
<pdfrwt beam="1">  1        1 0.97792354E-03 0.79127108E+02</pdfrwt>
<pdfrwt beam="2">  1       -2 0.37884275E-01 0.79127108E+02</pdfrwt>
<totfact> 0.79901230E+04</totfact>
</mgrwt>
</event>
<event>
 8    1  0.1372337E-024  0.8015655E+02  0.7818608E-02  0.1328608E+00
          1   -1    0    0  501    0  0.00000000000E+00  0.00000000000E+00  0.15919331410E+02  0.15919332208E+02  0.50400000000E-02 0. -1.
         -2   -1    0    0    0  501 -0.00000000000E+00 -0.00000000000E+00 -0.10090048605E+03  0.10090048608E+03  0.25500000000E-02 0.  1.
        -24    2    1    2    0    0 -0.35527136788E-14  0.00000000000E+00 -0.84981154641E+02  0.11681981829E+03  0.80156554950E+02 0.  0.
         66    2    3    3    0    0 -0.31910683372E+02  0.11104853989E+02 -0.73864649246E+02  0.81250205534E+02  0.19999989174E+01 0.  0.
         13    1    3    3    0    0  0.31910683372E+02 -0.11104853989E+02 -0.11116505394E+02  0.35569612756E+02  0.10566000000E+00 0. -1.
         13    1    4    4    0    0 -0.48963458077E+01  0.11634791353E+01 -0.11040136748E+02  0.12133576118E+02  0.10566000000E+00 0. -1.
        -13    1    4    4    0    0 -0.12272440377E+02  0.41622951012E+01 -0.27021324322E+02  0.29968327038E+02  0.10566000000E+00 0.  1.
         14    1    4    4    0    0 -0.14741897187E+02  0.57790797528E+01 -0.35803188177E+02  0.39148302378E+02  0.00000000000E+00 0. -1.
<mgrwt>
<rscale>  0 0.80156555E+02</rscale>
<asrwt>0</asrwt>
<pdfrwt beam="1">  1        1 0.24491280E-02 0.80156555E+02</pdfrwt>
<pdfrwt beam="2">  1       -2 0.15523151E-01 0.80156555E+02</pdfrwt>
<totfact> 0.10536249E+05</totfact>
</mgrwt>
</event>
<event>
 8    1  0.1372337E-024  0.7528701E+02  0.7818608E-02  0.1342985E+00
         -2   -1    0    0    0  501 -0.00000000000E+00  0.00000000000E+00  0.18415744492E+03  0.18415744494E+03  0.25500000000E-02 0.  1.
          1   -1    0    0  501    0  0.00000000000E+00 -0.00000000000E+00 -0.76946828680E+01  0.76946845186E+01  0.50400000000E-02 0. -1.
        -24    2    1    2    0    0 -0.35527136788E-14  0.35527136788E-14  0.17646276205E+03  0.19185212946E+03  0.75287005425E+02 0.  0.
         66    2    3    3    0    0 -0.21550028385E+02 -0.30143361869E+02  0.71778273519E+02  0.80803134451E+02  0.19999999169E+01 0.  0.
         13    1    3    3    0    0  0.21550028385E+02  0.30143361869E+02  0.10468448853E+03  0.11104899501E+03  0.10566000000E+00 0. -1.
         13    1    4    4    0    0 -0.16263958918E+01 -0.24380080995E+01  0.61228517064E+01  0.67889265826E+01  0.10566000000E+00 0. -1.
        -13    1    4    4    0    0 -0.10784095895E+01 -0.94596069823E+00  0.28484313836E+01  0.31910083466E+01  0.10566000000E+00 0.  1.
        -14    1    4    4    0    0 -0.18845222904E+02 -0.26759393071E+02  0.62806990429E+02  0.70823199522E+02  0.00000000000E+00 0.  1.
<mgrwt>
<rscale>  0 0.75287005E+02</rscale>
<asrwt>0</asrwt>
<pdfrwt beam="1">  1        1 0.11837976E-02 0.75287005E+02</pdfrwt>
<pdfrwt beam="2">  1       -2 0.28331911E-01 0.75287005E+02</pdfrwt>
<totfact> 0.10274750E+05</totfact>
</mgrwt>
</event>
<event>
 8    1  0.1372337E-024  0.8082102E+02  0.7818608E-02  0.1326738E+00
          1   -1    0    0  501    0  0.00000000000E+00  0.00000000000E+00  0.10713558350E+03  0.10713558362E+03  0.50400000000E-02 0. -1.
         -2   -1    0    0    0  501 -0.00000000000E+00 -0.00000000000E+00 -0.15242453369E+02  0.15242453582E+02  0.25500000000E-02 0.  1.
        -24    2    1    2    0    0 -0.71054273576E-14  0.17763568394E-14  0.91893130136E+02  0.12237803721E+03  0.80821015980E+02 0.  0.
         66    2    3    3    0    0 -0.33540933316E+02  0.13597746940E+02  0.18841052350E+02  0.40851905428E+02  0.19999984690E+01 0.  0.
         13    1    3    3    0    0  0.33540933316E+02 -0.13597746940E+02  0.73052077787E+02  0.81526131777E+02  0.10566000000E+00 0. -1.
         13    1    4    4    0    0 -0.99224983514E+01  0.49253131574E+01  0.60795080310E+01  0.12636703097E+02  0.10566000000E+00 0. -1.
        -13    1    4    4    0    0 -0.10967549606E+02  0.41804501926E+01  0.57834530686E+01  0.13085213090E+02  0.10566000000E+00 0.  1.
         14    1    4    4    0    0 -0.12650885359E+02  0.44919835904E+01  0.69780912499E+01  0.15129989241E+02  0.00000000000E+00 0. -1.
<mgrwt>
<rscale>  0 0.80821016E+02</rscale>
<asrwt>0</asrwt>
<pdfrwt beam="1">  1        1 0.16482398E-01 0.80821016E+02</pdfrwt>
<pdfrwt beam="2">  1       -2 0.23449928E-02 0.80821016E+02</pdfrwt>
<totfact> 0.14467629E+05</totfact>
</mgrwt>
</event>
<event>
 8    1  0.1372337E-024  0.8039610E+02  0.7818608E-02  0.1327931E+00
          1   -1    0    0  501    0  0.00000000000E+00  0.00000000000E+00  0.17159392532E+01  0.17159466549E+01  0.50400000000E-02 0. -1.
         -2   -1    0    0    0  501 -0.00000000000E+00 -0.00000000000E+00 -0.94168811513E+03  0.94168811514E+03  0.25500000000E-02 0.  1.
        -24    2    1    2    0    0 -0.35527136788E-14  0.22204460493E-15 -0.93997217588E+03  0.94340406179E+03  0.80396096773E+02 0.  0.
         66    2    3    3    0    0 -0.23268020518E+02  0.16435556461E+01 -0.85407988355E+03  0.85440069613E+03  0.20000005931E+01 0.  0.
         13    1    3    3    0    0  0.23268020518E+02 -0.16435556461E+01 -0.85892292326E+02  0.89003365661E+02  0.10566000000E+00 0. -1.
         13    1    4    4    0    0 -0.14929805792E+02  0.86669796168E+00 -0.52765249822E+03  0.52786439576E+03  0.10566000000E+00 0. -1.
        -13    1    4    4    0    0 -0.30497915788E+01  0.50778089154E+00 -0.10469668703E+03  0.10474238163E+03  0.10566000000E+00 0.  1.
         14    1    4    4    0    0 -0.52884231471E+01  0.26907679285E+00 -0.22173069830E+03  0.22179391874E+03  0.00000000000E+00 0. -1.
<mgrwt>
<rscale>  0 0.80396097E+02</rscale>
<asrwt>0</asrwt>
<pdfrwt beam="1">  1        1 0.26399198E-03 0.80396097E+02</pdfrwt>
<pdfrwt beam="2">  1       -2 0.14487468E+00 0.80396097E+02</pdfrwt>
<totfact> 0.27574883E+04</totfact>
</mgrwt>
</event>
<event>
 8    1  0.1372337E-024  0.7975435E+02  0.7818608E-02  0.1329750E+00
         -2   -1    0    0    0  501 -0.00000000000E+00  0.00000000000E+00  0.11177578734E+03  0.11177578737E+03  0.25500000000E-02 0.  1.
          1   -1    0    0  501    0  0.00000000000E+00 -0.00000000000E+00 -0.14226596832E+02  0.14226597725E+02  0.50400000000E-02 0. -1.
        -24    2    1    2    0    0  0.35527136788E-14  0.17763568394E-14  0.97549190510E+02  0.12600238510E+03  0.79754350858E+02 0.  0.
         66    2    3    3    0    0 -0.22189613890E+02 -0.15408938844E+02  0.95092454952E+02  0.98875625715E+02  0.20000026709E+01 0.  0.
         13    1    3    3    0    0  0.22189613890E+02  0.15408938844E+02  0.24567355574E+01  0.27126759381E+02  0.10566000000E+00 0. -1.
         13    1    4    4    0    0 -0.69936911517E+01 -0.44040941804E+01  0.30975658104E+02  0.32059480976E+02  0.10566000000E+00 0. -1.
        -13    1    4    4    0    0 -0.66670504316E+01 -0.41132158779E+01  0.26607547679E+02  0.27736994499E+02  0.10566000000E+00 0.  1.
        -14    1    4    4    0    0 -0.85288723070E+01 -0.68916287855E+01  0.37509249169E+02  0.39079150239E+02  0.00000000000E+00 0.  1.
<mgrwt>
<rscale>  0 0.79754351E+02</rscale>
<asrwt>0</asrwt>
<pdfrwt beam="1">  1        1 0.21887072E-02 0.79754351E+02</pdfrwt>
<pdfrwt beam="2">  1       -2 0.17196275E-01 0.79754351E+02</pdfrwt>
<totfact> 0.10394515E+05</totfact>
</mgrwt>
</event>
<event>
 8    1  0.1372337E-024  0.7601924E+02  0.7818608E-02  0.1340744E+00
         -2   -1    0    0    0  501 -0.00000000000E+00  0.00000000000E+00  0.27531639108E+01  0.27531650917E+01  0.25500000000E-02 0.  1.
          1   -1    0    0  501    0  0.00000000000E+00 -0.00000000000E+00 -0.52475288922E+03  0.52475288925E+03  0.50400000000E-02 0. -1.
        -24    2    1    2    0    0 -0.39031278209E-16  0.00000000000E+00 -0.52199972531E+03  0.52750605434E+03  0.76019235317E+02 0.  0.
         66    2    3    3    0    0  0.43980922743E-02  0.37460134638E+02 -0.30477202373E+03  0.30707205695E+03  0.20000010367E+01 0.  0.
         13    1    3    3    0    0 -0.43980922743E-02 -0.37460134638E+02 -0.21722770158E+03  0.22043399739E+03  0.10566000000E+00 0. -1.
         13    1    4    4    0    0 -0.13203770570E+00  0.10150333246E+02 -0.79162674663E+02  0.79810944881E+02  0.10566000000E+00 0. -1.
        -13    1    4    4    0    0  0.32803394179E+00  0.16484705075E+02 -0.13049310843E+03  0.13153066418E+03  0.10566000000E+00 0.  1.
        -14    1    4    4    0    0 -0.19159814381E+00  0.10825096316E+02 -0.95116240631E+02  0.95730447883E+02  0.00000000000E+00 0.  1.
<mgrwt>
<rscale>  0 0.76019235E+02</rscale>
<asrwt>0</asrwt>
<pdfrwt beam="1">  1        1 0.80731135E-01 0.76019235E+02</pdfrwt>
<pdfrwt beam="2">  1       -2 0.42356419E-03 0.76019235E+02</pdfrwt>
<totfact> 0.22526230E+05</totfact>
</mgrwt>
</event>
<event>
 8    1  0.1372337E-024  0.8019411E+02  0.7818608E-02  0.1328501E+00
         -2   -1    0    0    0  501 -0.00000000000E+00  0.00000000000E+00  0.58772387602E+02  0.58772387658E+02  0.25500000000E-02 0.  1.
          1   -1    0    0  501    0  0.00000000000E+00 -0.00000000000E+00 -0.27355936144E+02  0.27355936609E+02  0.50400000000E-02 0. -1.
        -24    2    1    2    0    0 -0.71054273576E-14  0.35527136788E-14  0.31416451458E+02  0.86128324266E+02  0.80194107132E+02 0.  0.
         66    2    3    3    0    0  0.28955461543E+02 -0.27444225269E+02  0.19760040041E+02  0.44565271624E+02  0.19999996856E+01 0.  0.
         13    1    3    3    0    0 -0.28955461543E+02  0.27444225269E+02  0.11656411417E+02  0.41563052642E+02  0.10566000000E+00 0. -1.
         13    1    4    4    0    0  0.91934528873E+01 -0.88619109368E+01  0.69309978231E+01  0.14529381828E+02  0.10566000000E+00 0.  1.
        -13    1    4    4    0    0  0.17331214887E+02 -0.16856435639E+02  0.11385760148E+02  0.26723718493E+02  0.10566000000E+00 0. -1.
         14    1    4    4    0    0  0.24307937685E+01 -0.17258786935E+01  0.14432820700E+01  0.33121713034E+01  0.00000000000E+00 0. -1.
<mgrwt>
<rscale>  0 0.80194107E+02</rscale>
<asrwt>0</asrwt>
<pdfrwt beam="1">  1        1 0.42086056E-02 0.80194107E+02</pdfrwt>
<pdfrwt beam="2">  1       -2 0.90419057E-02 0.80194107E+02</pdfrwt>
<totfact> 0.11811896E+05</totfact>
</mgrwt>
</event>
<event>
 8    1  0.1372337E-024  0.7642341E+02  0.7818608E-02  0.1339519E+00
          1   -1    0    0  501    0  0.00000000000E+00  0.00000000000E+00  0.33237329110E+02  0.33237329492E+02  0.50400000000E-02 0. -1.
         -2   -1    0    0    0  501 -0.00000000000E+00 -0.00000000000E+00 -0.43930554832E+02  0.43930554906E+02  0.25500000000E-02 0.  1.
        -24    2    1    2    0    0  0.00000000000E+00  0.00000000000E+00 -0.10693225722E+02  0.77167884398E+02  0.76423408103E+02 0.  0.
         66    2    3    3    0    0  0.15741044363E+02 -0.15020770742E+02 -0.37036289453E+02  0.43001055424E+02  0.19999999553E+01 0.  0.
         13    1    3    3    0    0 -0.15741044363E+02  0.15020770742E+02  0.26343063731E+02  0.34166828974E+02  0.10566000000E+00 0. -1.
         13    1    4    4    0    0  0.10585703127E+01 -0.16719390085E+01 -0.28930433282E+01  0.35066814639E+01  0.10566000000E+00 0.  1.
        -13    1    4    4    0    0  0.70143225503E+01 -0.66241086467E+01 -0.16251553422E+02  0.18899833038E+02  0.10566000000E+00 0.  1.
         14    1    4    4    0    0  0.76681515005E+01 -0.67247230866E+01 -0.17891692703E+02  0.20594540923E+02  0.00000000000E+00 0. -1.
<mgrwt>
<rscale>  0 0.76423408E+02</rscale>
<asrwt>0</asrwt>
<pdfrwt beam="1">  1        1 0.51134353E-02 0.76423408E+02</pdfrwt>
<pdfrwt beam="2">  1       -2 0.67585469E-02 0.76423408E+02</pdfrwt>
<totfact> 0.14019556E+05</totfact>
</mgrwt>
</event>
<event>
 8    1  0.1372337E-024  0.7913018E+02  0.7818608E-02  0.1331538E+00
          1   -1    0    0  501    0  0.00000000000E+00  0.00000000000E+00  0.79637669333E+01  0.79637685281E+01  0.50400000000E-02 0. -1.
         -2   -1    0    0    0  501 -0.00000000000E+00 -0.00000000000E+00 -0.19656477149E+03  0.19656477151E+03  0.25500000000E-02 0.  1.
        -24    2    1    2    0    0  0.00000000000E+00  0.00000000000E+00 -0.18860100456E+03  0.20452854004E+03  0.79130176096E+02 0.  0.
         66    2    3    3    0    0  0.86890263663E+00  0.39482891522E+02 -0.89363632167E+02  0.97721606938E+02  0.19999984288E+01 0.  0.
         13    1    3    3    0    0 -0.86890263663E+00 -0.39482891522E+02 -0.99237372393E+02  0.10680693310E+03  0.10566000000E+00 0. -1.
         13    1    4    4    0    0  0.62696352845E+00  0.20835467008E+02 -0.47384369445E+02  0.51766778927E+02  0.10566000000E+00 0.  1.
        -13    1    4    4    0    0  0.53863737714E+00  0.58061138929E+01 -0.14123505071E+02  0.15280237181E+02  0.10566000000E+00 0. -1.
         14    1    4    4    0    0 -0.29669826895E+00  0.12841310621E+02 -0.27855757650E+02  0.30674590830E+02  0.00000000000E+00 0. -1.
<mgrwt>
<rscale>  0 0.79130176E+02</rscale>
<asrwt>0</asrwt>
<pdfrwt beam="1">  1        1 0.12251952E-02 0.79130176E+02</pdfrwt>
<pdfrwt beam="2">  1       -2 0.30240731E-01 0.79130176E+02</pdfrwt>
<totfact> 0.88121611E+04</totfact>
</mgrwt>
</event>
<event>
 8    1  0.1372337E-024  0.8675181E+02  0.7818608E-02  0.1310914E+00
         -2   -1    0    0    0  501 -0.00000000000E+00  0.00000000000E+00  0.85656302943E+01  0.85656306739E+01  0.25500000000E-02 0.  1.
          1   -1    0    0  501    0  0.00000000000E+00 -0.00000000000E+00 -0.21965329954E+03  0.21965329960E+03  0.50400000000E-02 0. -1.
        -24    2    1    2    0    0  0.17763568394E-14  0.71054273576E-14 -0.21108766925E+03  0.22821893027E+03  0.86751807052E+02 0.  0.
         66    2    3    3    0    0 -0.11789661352E+02 -0.30743660526E+02 -0.31411151375E+02  0.45550293075E+02  0.19999977930E+01 0.  0.
         13    1    3    3    0    0  0.11789661352E+02  0.30743660526E+02 -0.17967651787E+03  0.18266863720E+03  0.10566000000E+00 0. -1.
         13    1    4    4    0    0 -0.11028342836E+01 -0.27372159248E+01 -0.24618342361E+01  0.38445268002E+01  0.10566000000E+00 0. -1.
        -13    1    4    4    0    0 -0.62814446871E+01 -0.18428181684E+02 -0.18279339294E+02  0.26705801553E+02  0.10566000000E+00 0.  1.
        -14    1    4    4    0    0 -0.44053823808E+01 -0.95782629171E+01 -0.10669977845E+02  0.14999964721E+02  0.00000000000E+00 0.  1.
<mgrwt>
<rscale>  0 0.86751807E+02</rscale>
<asrwt>0</asrwt>
<pdfrwt beam="1">  1        1 0.33792811E-01 0.86751807E+02</pdfrwt>
<pdfrwt beam="2">  1       -2 0.13177895E-02 0.86751807E+02</pdfrwt>
<totfact> 0.13686413E+05</totfact>
</mgrwt>
</event>
<event>
 8    1  0.1372337E-024  0.7912850E+02  0.7818608E-02  0.1331543E+00
         -2   -1    0    0    0  501 -0.00000000000E+00  0.00000000000E+00  0.91014517980E+02  0.91014518015E+02  0.25500000000E-02 0.  1.
          1   -1    0    0  501    0  0.00000000000E+00 -0.00000000000E+00 -0.17198682303E+02  0.17198683042E+02  0.50400000000E-02 0. -1.
        -24    2    1    2    0    0  0.35527136788E-14  0.00000000000E+00  0.73815835676E+02  0.10821320106E+03  0.79128498574E+02 0.  0.
         66    2    3    3    0    0 -0.20481007861E+02 -0.22500839560E+02  0.71462473226E+02  0.77695846277E+02  0.19999963101E+01 0.  0.
         13    1    3    3    0    0  0.20481007861E+02  0.22500839560E+02  0.23533624501E+01  0.30517354780E+02  0.10566000000E+00 0. -1.
         13    1    4    4    0    0 -0.75672228359E+01 -0.77919522403E+01  0.27335399061E+02  0.29414496205E+02  0.10566000000E+00 0. -1.
        -13    1    4    4    0    0 -0.10628149985E+02 -0.12403015545E+02  0.37427673595E+02  0.40836678140E+02  0.10566000000E+00 0.  1.
         14    1    4    4    0    0 -0.22856350404E+01 -0.23058717747E+01  0.66994005707E+01  0.74446719328E+01  0.00000000000E+00 0. -1.
<mgrwt>
<rscale>  0 0.79128499E+02</rscale>
<asrwt>0</asrwt>
<pdfrwt beam="1">  1        1 0.26459512E-02 0.79128499E+02</pdfrwt>
<pdfrwt beam="2">  1       -2 0.14002233E-01 0.79128499E+02</pdfrwt>
<totfact> 0.11164484E+05</totfact>
</mgrwt>
</event>
<event>
 8    1  0.1372337E-024  0.7871237E+02  0.7818608E-02  0.1332746E+00
         -2   -1    0    0    0  501 -0.00000000000E+00  0.00000000000E+00  0.44452892291E+03  0.44452892291E+03  0.25500000000E-02 0.  1.
          1   -1    0    0  501    0  0.00000000000E+00 -0.00000000000E+00 -0.34843817073E+01  0.34843853524E+01  0.50400000000E-02 0. -1.
        -24    2    1    2    0    0 -0.35527136788E-14  0.35527136788E-14  0.44104454120E+03  0.44801330827E+03  0.78712369181E+02 0.  0.
         66    2    3    3    0    0 -0.28891694927E+02  0.25614251604E+02  0.26328970422E+03  0.26611329959E+03  0.19999880436E+01 0.  0.
         13    1    3    3    0    0  0.28891694927E+02 -0.25614251604E+02  0.17775483698E+03  0.18190000867E+03  0.10566000000E+00 0. -1.
         13    1    4    4    0    0 -0.13112607598E+02  0.12209047084E+02  0.11926659764E+03  0.12060486634E+03  0.10566000000E+00 0. -1.
        -13    1    4    4    0    0 -0.13866929212E+02  0.11280448244E+02  0.12502447986E+03  0.12629596971E+03  0.10566000000E+00 0.  1.
        -14    1    4    4    0    0 -0.19121581169E+01  0.21247562760E+01  0.18998626723E+02  0.19212463539E+02  0.00000000000E+00 0.  1.
<mgrwt>
<rscale>  0 0.78712369E+02</rscale>
<asrwt>0</asrwt>
<pdfrwt beam="1">  1        1 0.53605922E-03 0.78712369E+02</pdfrwt>
<pdfrwt beam="2">  1       -2 0.68389038E-01 0.78712369E+02</pdfrwt>
<totfact> 0.57313555E+04</totfact>
</mgrwt>
</event>
<event>
 8    1  0.1372337E-024  0.8074571E+02  0.7818608E-02  0.1326948E+00
          1   -1    0    0  501    0  0.00000000000E+00  0.00000000000E+00  0.21060458221E+03  0.21060458227E+03  0.50400000000E-02 0. -1.
         -2   -1    0    0    0  501 -0.00000000000E+00 -0.00000000000E+00 -0.77394675597E+01  0.77394679798E+01  0.25500000000E-02 0.  1.
        -24    2    1    2    0    0  0.00000000000E+00  0.00000000000E+00  0.20286511465E+03  0.21834405025E+03  0.80745709096E+02 0.  0.
         66    2    3    3    0    0  0.43699035561E+01  0.29041475667E+02  0.26680611066E+02  0.39728558668E+02  0.20000002417E+01 0.  0.
         13    1    3    3    0    0 -0.43699035561E+01 -0.29041475667E+02  0.17618450358E+03  0.17861549158E+03  0.10566000000E+00 0. -1.
         13    1    4    4    0    0  0.53784961715E-01  0.17206928184E+01  0.16561217234E+01  0.23911461260E+01  0.10566000000E+00 0. -1.
        -13    1    4    4    0    0  0.36849532960E+00  0.45113840437E+01  0.48003421734E+01  0.65986986456E+01  0.10566000000E+00 0.  1.
        -14    1    4    4    0    0  0.39476232648E+01  0.22809398805E+02  0.20224147170E+02  0.30738713896E+02  0.00000000000E+00 0.  1.
<mgrwt>
<rscale>  0 0.80745709E+02</rscale>
<asrwt>0</asrwt>
<pdfrwt beam="1">  1        1 0.32400700E-01 0.80745709E+02</pdfrwt>
<pdfrwt beam="2">  1       -2 0.11906875E-02 0.80745709E+02</pdfrwt>
<totfact> 0.16432665E+05</totfact>
</mgrwt>
</event>
<event>
 8    1  0.1372337E-024  0.8038008E+02  0.7818608E-02  0.1327976E+00
          1   -1    0    0  501    0  0.00000000000E+00  0.00000000000E+00  0.34145056734E+03  0.34145056738E+03  0.50400000000E-02 0. -1.
         -2   -1    0    0    0  501 -0.00000000000E+00 -0.00000000000E+00 -0.47305208473E+01  0.47305215346E+01  0.25500000000E-02 0.  1.
        -24    2    1    2    0    0 -0.35527136788E-14 -0.71054273576E-14  0.33672004649E+03  0.34618108891E+03  0.80380075952E+02 0.  0.
         66    2    3    3    0    0  0.20811073873E+02  0.31982841389E+02  0.11446016028E+03  0.12066951244E+03  0.20000005941E+01 0.  0.
         13    1    3    3    0    0 -0.20811073873E+02 -0.31982841389E+02  0.22225988621E+03  0.22551157647E+03  0.10566000000E+00 0. -1.
         13    1    4    4    0    0  0.23599459204E+01  0.31155862582E+01  0.11195942071E+02  0.11859026325E+02  0.10566000000E+00 0. -1.
        -13    1    4    4    0    0  0.84682420835E+01  0.14095016715E+02  0.47539522676E+02  0.50303061542E+02  0.10566000000E+00 0.  1.
         14    1    4    4    0    0  0.99828858691E+01  0.14772238415E+02  0.55724695531E+02  0.58507424573E+02  0.00000000000E+00 0. -1.
<mgrwt>
<rscale>  0 0.80380076E+02</rscale>
<asrwt>0</asrwt>
<pdfrwt beam="1">  1        1 0.52530876E-01 0.80380076E+02</pdfrwt>
<pdfrwt beam="2">  1       -2 0.72777222E-03 0.80380076E+02</pdfrwt>
<totfact> 0.18251951E+05</totfact>
</mgrwt>
</event>
<event>
 8    1  0.1372337E-024  0.7789996E+02  0.7818608E-02  0.1335119E+00
         -2   -1    0    0    0  501 -0.00000000000E+00  0.00000000000E+00  0.50419638166E+01  0.50419644614E+01  0.25500000000E-02 0.  1.
          1   -1    0    0  501    0  0.00000000000E+00 -0.00000000000E+00 -0.30089486511E+03  0.30089486515E+03  0.50400000000E-02 0. -1.
        -24    2    1    2    0    0 -0.35527136788E-14  0.00000000000E+00 -0.29585290129E+03  0.30593682961E+03  0.77899964764E+02 0.  0.
         66    2    3    3    0    0  0.30052360278E+02  0.22214239210E+02 -0.10527566883E+03  0.11172995672E+03  0.19999997265E+01 0.  0.
         13    1    3    3    0    0 -0.30052360278E+02 -0.22214239210E+02 -0.19057723246E+03  0.19420687289E+03  0.10566000000E+00 0. -1.
         13    1    4    4    0    0  0.23921185449E+02  0.17176396038E+02 -0.82577689468E+02  0.87671760882E+02  0.10566000000E+00 0. -1.
        -13    1    4    4    0    0  0.58532641575E+01  0.45971909113E+01 -0.21492177419E+02  0.22744663546E+02  0.10566000000E+00 0.  1.
         14    1    4    4    0    0  0.27791067227E+00  0.44065226053E+00 -0.12058019448E+01  0.13135322936E+01  0.00000000000E+00 0. -1.
<mgrwt>
<rscale>  0 0.77899965E+02</rscale>
<asrwt>0</asrwt>
<pdfrwt beam="1">  1        1 0.46291504E-01 0.77899965E+02</pdfrwt>
<pdfrwt beam="2">  1       -2 0.77568703E-03 0.77899965E+02</pdfrwt>
<totfact> 0.19361310E+05</totfact>
</mgrwt>
</event>
<event>
 8    1  0.1372337E-024  0.7843189E+02  0.7818608E-02  0.1333561E+00
         -2   -1    0    0    0  501 -0.00000000000E+00  0.00000000000E+00  0.70973840631E+03  0.70973840632E+03  0.25500000000E-02 0.  1.
          1   -1    0    0  501    0  0.00000000000E+00 -0.00000000000E+00 -0.21668379815E+01  0.21668438429E+01  0.50400000000E-02 0. -1.
        -24    2    1    2    0    0  0.00000000000E+00  0.71054273576E-14  0.70757156833E+03  0.71190525016E+03  0.78431886979E+02 0.  0.
         66    2    3    3    0    0  0.73005631547E+01  0.33628219993E+02  0.52424443108E+03  0.52537641641E+03  0.20000006353E+01 0.  0.
         13    1    3    3    0    0 -0.73005631547E+01 -0.33628219993E+02  0.18332713725E+03  0.18652883375E+03  0.10566000000E+00 0. -1.
         13    1    4    4    0    0  0.67015225019E+00  0.61179318428E+01  0.93699456586E+02  0.93901424498E+02  0.10566000000E+00 0. -1.
        -13    1    4    4    0    0  0.49696076471E+01  0.19135143073E+02  0.29666443022E+03  0.29732246135E+03  0.10566000000E+00 0.  1.
        -14    1    4    4    0    0  0.16608032574E+01  0.83751450775E+01  0.13388054427E+03  0.13415253056E+03  0.00000000000E+00 0.  1.
<mgrwt>
<rscale>  0 0.78431887E+02</rscale>
<asrwt>0</asrwt>
<pdfrwt beam="1">  1        1 0.33336010E-03 0.78431887E+02</pdfrwt>
<pdfrwt beam="2">  1       -2 0.10919054E+00 0.78431887E+02</pdfrwt>
<totfact> 0.39309450E+04</totfact>
</mgrwt>
</event>
<event>
 8    1  0.1372337E-024  0.7779546E+02  0.7818608E-02  0.1335427E+00
         -2   -1    0    0    0  501 -0.00000000000E+00  0.00000000000E+00  0.48353964230E+02  0.48353964297E+02  0.25500000000E-02 0.  1.
          1   -1    0    0  501    0  0.00000000000E+00 -0.00000000000E+00 -0.31290784948E+02  0.31290785354E+02  0.50400000000E-02 0. -1.
        -24    2    1    2    0    0 -0.88817841970E-15  0.00000000000E+00  0.17063179281E+02  0.79644749651E+02  0.77795462977E+02 0.  0.
         66    2    3    3    0    0  0.54934321827E+01  0.11097413165E+02  0.46260063343E+02  0.47930406223E+02  0.20000010146E+01 0.  0.
         13    1    3    3    0    0 -0.54934321827E+01 -0.11097413165E+02 -0.29196884062E+02  0.31714343428E+02  0.10566000000E+00 0. -1.
         13    1    4    4    0    0  0.13537933300E+00  0.45020976781E+00  0.10517781161E+01  0.11569000129E+01  0.10566000000E+00 0. -1.
        -13    1    4    4    0    0  0.10045184191E+01  0.33180036102E+01  0.13742203373E+02  0.14173126782E+02  0.10566000000E+00 0.  1.
         14    1    4    4    0    0  0.43535344305E+01  0.73291997867E+01  0.31466081855E+02  0.32600379428E+02  0.00000000000E+00 0. -1.
<mgrwt>
<rscale>  0 0.77795463E+02</rscale>
<asrwt>0</asrwt>
<pdfrwt beam="1">  1        1 0.48139670E-02 0.77795463E+02</pdfrwt>
<pdfrwt beam="2">  1       -2 0.74390713E-02 0.77795463E+02</pdfrwt>
<totfact> 0.13197157E+05</totfact>
</mgrwt>
</event>
<event>
 8    1  0.1372337E-024  0.7952015E+02  0.7818608E-02  0.1330419E+00
         -2   -1    0    0    0  501 -0.00000000000E+00  0.00000000000E+00  0.15631625379E+03  0.15631625381E+03  0.25500000000E-02 0.  1.
          1   -1    0    0  501    0  0.00000000000E+00 -0.00000000000E+00 -0.10113238155E+02  0.10113239411E+02  0.50400000000E-02 0. -1.
        -24    2    1    2    0    0  0.00000000000E+00  0.71054273576E-14  0.14620301564E+03  0.16642949322E+03  0.79520151116E+02 0.  0.
         66    2    3    3    0    0  0.16397256733E+02 -0.36185753277E+02  0.71553859423E+02  0.81867170313E+02  0.20000020497E+01 0.  0.
         13    1    3    3    0    0 -0.16397256733E+02  0.36185753277E+02  0.74649156214E+02  0.84562322911E+02  0.10566000000E+00 0. -1.
         13    1    4    4    0    0  0.26741013222E+00 -0.59166031454E+00  0.13284839085E+01  0.14824316636E+01  0.10566000000E+00 0. -1.
        -13    1    4    4    0    0  0.58833603663E+01 -0.11109840713E+02  0.23019005163E+02  0.26228386389E+02  0.10566000000E+00 0.  1.
        -14    1    4    4    0    0  0.10246486235E+02 -0.24484252249E+02  0.47206370351E+02  0.54156352260E+02  0.00000000000E+00 0.  1.
<mgrwt>
<rscale>  0 0.79520151E+02</rscale>
<asrwt>0</asrwt>
<pdfrwt beam="1">  1        1 0.15558828E-02 0.79520151E+02</pdfrwt>
<pdfrwt beam="2">  1       -2 0.24048655E-01 0.79520151E+02</pdfrwt>
<totfact> 0.94674177E+04</totfact>
</mgrwt>
</event>
<event>
 8    1  0.1372337E-024  0.8134003E+02  0.7818608E-02  0.1325291E+00
          1   -1    0    0  501    0  0.00000000000E+00  0.00000000000E+00  0.89894487368E+01  0.89894501497E+01  0.50400000000E-02 0. -1.
         -2   -1    0    0    0  501 -0.00000000000E+00 -0.00000000000E+00 -0.18399905953E+03  0.18399905955E+03  0.25500000000E-02 0.  1.
        -24    2    1    2    0    0  0.17763568394E-14  0.00000000000E+00 -0.17500961080E+03  0.19298850970E+03  0.81340033227E+02 0.  0.
         66    2    3    3    0    0 -0.14882241236E+02 -0.15693958023E+02 -0.16920664991E+03  0.17059505214E+03  0.20000040953E+01 0.  0.
         13    1    3    3    0    0  0.14882241236E+02  0.15693958023E+02 -0.58029608848E+01  0.22393457565E+02  0.10566000000E+00 0. -1.
         13    1    4    4    0    0 -0.11419006227E+01 -0.15509505883E+01 -0.16389838385E+02  0.16502949769E+02  0.10566000000E+00 0. -1.
        -13    1    4    4    0    0 -0.49549153379E+01 -0.42765251446E+01 -0.54468848826E+02  0.54860792100E+02  0.10566000000E+00 0.  1.
        -14    1    4    4    0    0 -0.87854252757E+01 -0.98664822896E+01 -0.98347962700E+02  0.99231310267E+02  0.00000000000E+00 0.  1.
<mgrwt>
<rscale>  0 0.81340033E+02</rscale>
<asrwt>0</asrwt>
<pdfrwt beam="1">  1        1 0.13829924E-02 0.81340033E+02</pdfrwt>
<pdfrwt beam="2">  1       -2 0.28307545E-01 0.81340033E+02</pdfrwt>
<totfact> 0.84227542E+04</totfact>
</mgrwt>
</event>
<event>
 8    1  0.1372337E-024  0.7860341E+02  0.7818608E-02  0.1333062E+00
          1   -1    0    0  501    0  0.00000000000E+00  0.00000000000E+00  0.29625487137E+02  0.29625487565E+02  0.50400000000E-02 0. -1.
         -2   -1    0    0    0  501 -0.00000000000E+00 -0.00000000000E+00 -0.52138351238E+02  0.52138351300E+02  0.25500000000E-02 0.  1.
        -24    2    1    2    0    0  0.00000000000E+00  0.71054273576E-14 -0.22512864101E+02  0.81763838866E+02  0.78603411478E+02 0.  0.
         66    2    3    3    0    0  0.10132510316E+02 -0.35943383971E+02  0.13920164511E+01  0.37423686691E+02  0.19999997886E+01 0.  0.
         13    1    3    3    0    0 -0.10132510316E+02  0.35943383971E+02 -0.23904880552E+02  0.44340152174E+02  0.10566000000E+00 0. -1.
         13    1    4    4    0    0  0.33147967331E+01 -0.12831858900E+02  0.47537386240E+00  0.13262036969E+02  0.10566000000E+00 0.  1.
        -13    1    4    4    0    0  0.55525036164E+01 -0.17438637544E+02  0.12139360239E+01  0.18341787822E+02  0.10566000000E+00 0.  1.
        -14    1    4    4    0    0  0.12652099664E+01 -0.56728875269E+01 -0.29729343516E+00  0.58198619003E+01  0.00000000000E+00 0.  1.
<mgrwt>
<rscale>  0 0.78603411E+02</rscale>
<asrwt>0</asrwt>
<pdfrwt beam="1">  1        1 0.45577673E-02 0.78603411E+02</pdfrwt>
<pdfrwt beam="2">  1       -2 0.80212848E-02 0.78603411E+02</pdfrwt>
<totfact> 0.12693826E+05</totfact>
</mgrwt>
</event>
<event>
 8    1  0.1372337E-024  0.8006604E+02  0.7818608E-02  0.1328864E+00
         -2   -1    0    0    0  501 -0.00000000000E+00  0.00000000000E+00  0.16069801325E+02  0.16069801527E+02  0.25500000000E-02 0.  1.
          1   -1    0    0  501    0  0.00000000000E+00 -0.00000000000E+00 -0.99730082423E+02  0.99730082551E+02  0.50400000000E-02 0. -1.
        -24    2    1    2    0    0 -0.35527136788E-14  0.35527136788E-14 -0.83660281099E+02  0.11579988408E+03  0.80066038486E+02 0.  0.
         66    2    3    3    0    0  0.29787250146E+02 -0.17819722348E+02 -0.13081796570E+02  0.37147761295E+02  0.19999979713E+01 0.  0.
         13    1    3    3    0    0 -0.29787250146E+02  0.17819722348E+02 -0.70578484529E+02  0.78652122783E+02  0.10566000000E+00 0. -1.
         13    1    4    4    0    0  0.17721316444E+02 -0.98697919716E+01 -0.72674553429E+01  0.21547271782E+02  0.10566000000E+00 0.  1.
        -13    1    4    4    0    0  0.12355122623E+01 -0.58317183429E+00 -0.70344847600E+00  0.15403193606E+01  0.10566000000E+00 0. -1.
         14    1    4    4    0    0  0.10830421440E+02 -0.73667585420E+01 -0.51108927514E+01  0.14060170152E+02  0.00000000000E+00 0. -1.
<mgrwt>
<rscale>  0 0.80066038E+02</rscale>
<asrwt>0</asrwt>
<pdfrwt beam="1">  1        1 0.15343089E-01 0.80066038E+02</pdfrwt>
<pdfrwt beam="2">  1       -2 0.24722772E-02 0.80066038E+02</pdfrwt>
<totfact> 0.14659708E+05</totfact>
</mgrwt>
</event>
<event>
 8    1  0.1372337E-024  0.8099631E+02  0.7818608E-02  0.1326248E+00
          1   -1    0    0  501    0  0.00000000000E+00  0.00000000000E+00  0.40941511476E+02  0.40941511787E+02  0.50400000000E-02 0. -1.
         -2   -1    0    0    0  501 -0.00000000000E+00 -0.00000000000E+00 -0.40059601095E+02  0.40059601176E+02  0.25500000000E-02 0.  1.
        -24    2    1    2    0    0 -0.17763568394E-14  0.00000000000E+00  0.88191038168E+00  0.81001112963E+02  0.80996311862E+02 0.  0.
         66    2    3    3    0    0 -0.11250991013E+02 -0.98506786997E+01 -0.37170512825E+02  0.40115678569E+02  0.19999934276E+01 0.  0.
         13    1    3    3    0    0  0.11250991013E+02  0.98506786997E+01  0.38052423207E+02  0.40885434394E+02  0.10566000000E+00 0. -1.
         13    1    4    4    0    0 -0.38106649141E+01 -0.40350495168E+01 -0.12644647928E+02  0.13809456070E+02  0.10566000000E+00 0. -1.
        -13    1    4    4    0    0 -0.60257118435E+01 -0.45657317587E+01 -0.18298093261E+02  0.19798648709E+02  0.10566000000E+00 0.  1.
         14    1    4    4    0    0 -0.14146142555E+01 -0.12498974242E+01 -0.62277716369E+01  0.65075737894E+01  0.00000000000E+00 0. -1.
<mgrwt>
<rscale>  0 0.80996312E+02</rscale>
<asrwt>0</asrwt>
<pdfrwt beam="1">  1        1 0.62986941E-02 0.80996312E+02</pdfrwt>
<pdfrwt beam="2">  1       -2 0.61630156E-02 0.80996312E+02</pdfrwt>
<totfact> 0.12308834E+05</totfact>
</mgrwt>
</event>
<event>
 8    1  0.1372337E-024  0.8145844E+02  0.7818608E-02  0.1324963E+00
          1   -1    0    0  501    0  0.00000000000E+00  0.00000000000E+00  0.10682449222E+03  0.10682449234E+03  0.50400000000E-02 0. -1.
         -2   -1    0    0    0  501 -0.00000000000E+00 -0.00000000000E+00 -0.15528924881E+02  0.15528925090E+02  0.25500000000E-02 0.  1.
        -24    2    1    2    0    0  0.00000000000E+00  0.00000000000E+00  0.91295567340E+02  0.12235341743E+03  0.81458444257E+02 0.  0.
         66    2    3    3    0    0  0.18405817235E+02 -0.33768624409E+01 -0.86205239128E+01  0.20700017274E+02  0.19999936458E+01 0.  0.
         13    1    3    3    0    0 -0.18405817235E+02  0.33768624409E+01  0.99916091252E+02  0.10165340016E+03  0.10566000000E+00 0. -1.
         13    1    4    4    0    0  0.42876196368E+01 -0.15445468085E+00 -0.22225149123E+01  0.48330399304E+01  0.10566000000E+00 0. -1.
        -13    1    4    4    0    0  0.19677061602E+01 -0.48324689878E+00 -0.52152690743E+00  0.20948865003E+01  0.10566000000E+00 0.  1.
        -14    1    4    4    0    0  0.12150491438E+02 -0.27391608613E+01 -0.58764820931E+01  0.13772090843E+02  0.00000000000E+00 0.  1.
<mgrwt>
<rscale>  0 0.81458444E+02</rscale>
<asrwt>0</asrwt>
<pdfrwt beam="1">  1        1 0.16434537E-01 0.81458444E+02</pdfrwt>
<pdfrwt beam="2">  1       -2 0.23890655E-02 0.81458444E+02</pdfrwt>
<totfact> 0.14156694E+05</totfact>
</mgrwt>
</event>
<event>
 8    1  0.1372337E-024  0.8004454E+02  0.7818608E-02  0.1328925E+00
          1   -1    0    0  501    0  0.00000000000E+00  0.00000000000E+00  0.13194291341E+03  0.13194291351E+03  0.50400000000E-02 0. -1.
         -2   -1    0    0    0  501 -0.00000000000E+00 -0.00000000000E+00 -0.12139962310E+02  0.12139962578E+02  0.25500000000E-02 0.  1.
        -24    2    1    2    0    0  0.00000000000E+00  0.88817841970E-15  0.11980295110E+03  0.14408287609E+03  0.80044538155E+02 0.  0.
         66    2    3    3    0    0  0.33089620526E+02  0.38068523506E+01  0.20078607074E+02  0.38943106887E+02  0.20000001430E+01 0.  0.
         13    1    3    3    0    0 -0.33089620526E+02 -0.38068523506E+01  0.99724344028E+02  0.10513976920E+03  0.10566000000E+00 0. -1.
         13    1    4    4    0    0  0.99709642269E+00  0.83700326876E-01  0.37183451718E+00  0.10726751440E+01  0.10566000000E+00 0. -1.
        -13    1    4    4    0    0  0.26027722124E+02  0.35565222546E+01  0.16178572231E+02  0.30852042606E+02  0.10566000000E+00 0.  1.
         14    1    4    4    0    0  0.60648019795E+01  0.16662976911E+00  0.35282003253E+01  0.70183891361E+01  0.00000000000E+00 0. -1.
<mgrwt>
<rscale>  0 0.80044538E+02</rscale>
<asrwt>0</asrwt>
<pdfrwt beam="1">  1        1 0.20298910E-01 0.80044538E+02</pdfrwt>
<pdfrwt beam="2">  1       -2 0.18676865E-02 0.80044538E+02</pdfrwt>
<totfact> 0.15401037E+05</totfact>
</mgrwt>
</event>
<event>
 8    1  0.1372337E-024  0.7936442E+02  0.7818608E-02  0.1330865E+00
         -2   -1    0    0    0  501 -0.00000000000E+00  0.00000000000E+00  0.42871713590E+03  0.42871713591E+03  0.25500000000E-02 0.  1.
          1   -1    0    0  501    0  0.00000000000E+00 -0.00000000000E+00 -0.36729975512E+01  0.36730010090E+01  0.50400000000E-02 0. -1.
        -24    2    1    2    0    0  0.88817841970E-15  0.00000000000E+00  0.42504413835E+03  0.43239013692E+03  0.79364418716E+02 0.  0.
         66    2    3    3    0    0 -0.59557351904E+01  0.39169601399E+02  0.20330812078E+03  0.20714227098E+03  0.19999995738E+01 0.  0.
         13    1    3    3    0    0  0.59557351904E+01 -0.39169601399E+02  0.22173601757E+03  0.22524786594E+03  0.10566000000E+00 0. -1.
         13    1    4    4    0    0 -0.11665293309E+01  0.90124809078E+01  0.44060996716E+02  0.44988534077E+02  0.10566000000E+00 0. -1.
        -13    1    4    4    0    0 -0.19505838811E+01  0.15829138873E+02  0.81176699134E+02  0.82728677381E+02  0.10566000000E+00 0.  1.
         14    1    4    4    0    0 -0.28386219784E+01  0.14327981618E+02  0.78070424928E+02  0.79425059524E+02  0.00000000000E+00 0. -1.
<mgrwt>
<rscale>  0 0.79364419E+02</rscale>
<asrwt>0</asrwt>
<pdfrwt beam="1">  1        1 0.56507689E-03 0.79364419E+02</pdfrwt>
<pdfrwt beam="2">  1       -2 0.65956473E-01 0.79364419E+02</pdfrwt>
<totfact> 0.57551995E+04</totfact>
</mgrwt>
</event>
<event>
 8    1  0.1372337E-024  0.8141797E+02  0.7818608E-02  0.1325075E+00
         -2   -1    0    0    0  501 -0.00000000000E+00  0.00000000000E+00  0.20276807591E+02  0.20276807752E+02  0.25500000000E-02 0.  1.
          1   -1    0    0  501    0  0.00000000000E+00 -0.00000000000E+00 -0.81729901078E+02  0.81729901234E+02  0.50400000000E-02 0. -1.
        -24    2    1    2    0    0  0.00000000000E+00 -0.17763568394E-14 -0.61453093487E+02  0.10200670899E+03  0.81417970860E+02 0.  0.
         66    2    3    3    0    0 -0.28215625967E+02  0.13109511218E+02  0.20993622488E+01  0.31247210491E+02  0.20000021258E+01 0.  0.
         13    1    3    3    0    0  0.28215625967E+02 -0.13109511218E+02 -0.63552455736E+02  0.70759498494E+02  0.10566000000E+00 0. -1.
         13    1    4    4    0    0 -0.92692759593E+00  0.14875739221E+00 -0.44236492825E-01  0.94575072441E+00  0.10566000000E+00 0. -1.
        -13    1    4    4    0    0 -0.95987681673E+01  0.43462247691E+01  0.11574174947E+01  0.10600792393E+02  0.10566000000E+00 0.  1.
         14    1    4    4    0    0 -0.17689930204E+02  0.86145290569E+01  0.98618124699E+00  0.19700667373E+02  0.00000000000E+00 0. -1.
<mgrwt>
<rscale>  0 0.81417971E+02</rscale>
<asrwt>0</asrwt>
<pdfrwt beam="1">  1        1 0.12573831E-01 0.81417971E+02</pdfrwt>
<pdfrwt beam="2">  1       -2 0.31195089E-02 0.81417971E+02</pdfrwt>
<totfact> 0.13553697E+05</totfact>
</mgrwt>
</event>
<event>
 8    1  0.1475180E-024  0.8034647E+02  0.7818608E-02  0.1328071E+00
          1   -1    0    0  501    0  0.00000000000E+00  0.00000000000E+00  0.31456098278E+02  0.31456098682E+02  0.50400000000E-02 0. -1.
         -2   -1    0    0    0  501 -0.00000000000E+00 -0.00000000000E+00 -0.51306067079E+02  0.51306067142E+02  0.25500000000E-02 0.  1.
        -24    2    1    2    0    0  0.35527136788E-14  0.00000000000E+00 -0.19849968801E+02  0.82762165824E+02  0.80346467442E+02 0.  0.
         66    2    3    3    0    0  0.18996018342E+02 -0.96424563193E+01 -0.44984523506E+02  0.49813984069E+02  0.19999942622E+01 0.  0.
         13    1    3    3    0    0 -0.18996018342E+02  0.96424563193E+01  0.25134554705E+02  0.32948181755E+02  0.10566000000E+00 0. -1.
         13    1    4    4    0    0  0.98572840175E+01 -0.48556904192E+01 -0.22524739400E+02  0.25062298912E+02  0.10566000000E+00 0. -1.
        -13    1    4    4    0    0  0.84455852795E+01 -0.47728682351E+01 -0.21180174578E+02  0.23296333211E+02  0.10566000000E+00 0.  1.
         14    1    4    4    0    0  0.69314904479E+00 -0.13897665069E-01 -0.12796095276E+01  0.14553519460E+01  0.00000000000E+00 0. -1.
<mgrwt>
<rscale>  0 0.80346467E+02</rscale>
<asrwt>0</asrwt>
<pdfrwt beam="1">  1        1 0.48393998E-02 0.80346467E+02</pdfrwt>
<pdfrwt beam="2">  1       -2 0.78932411E-02 0.80346467E+02</pdfrwt>
<totfact> 0.12045772E+05</totfact>
</mgrwt>
</event>
<event>
 8    1  0.1372337E-024  0.8206967E+02  0.7818608E-02  0.1323279E+00
         -2   -1    0    0    0  501 -0.00000000000E+00  0.00000000000E+00  0.23648228806E+02  0.23648228944E+02  0.25500000000E-02 0.  1.
          1   -1    0    0  501    0  0.00000000000E+00 -0.00000000000E+00 -0.71204388282E+02  0.71204388460E+02  0.50400000000E-02 0. -1.
        -24    2    1    2    0    0  0.44408920985E-15  0.00000000000E+00 -0.47556159475E+02  0.94852617404E+02  0.82069669942E+02 0.  0.
         66    2    3    3    0    0  0.23876250253E+01  0.24097666587E+02  0.14460687339E+02  0.28275603795E+02  0.20000008625E+01 0.  0.
         13    1    3    3    0    0 -0.23876250253E+01 -0.24097666587E+02 -0.62016846814E+02  0.66577013609E+02  0.10566000000E+00 0. -1.
         13    1    4    4    0    0  0.15407160556E+01  0.18655714938E+02  0.11314716880E+02  0.21873351090E+02  0.10566000000E+00 0. -1.
        -13    1    4    4    0    0  0.29622782133E+00  0.10505631675E+01  0.99800295562E+00  0.14827703214E+01  0.10566000000E+00 0.  1.
         14    1    4    4    0    0  0.55068114840E+00  0.43913884816E+01  0.21479675039E+01  0.49194823835E+01  0.00000000000E+00 0. -1.
<mgrwt>
<rscale>  0 0.82069670E+02</rscale>
<asrwt>0</asrwt>
<pdfrwt beam="1">  1        1 0.10954521E-01 0.82069670E+02</pdfrwt>
<pdfrwt beam="2">  1       -2 0.36381891E-02 0.82069670E+02</pdfrwt>
<totfact> 0.12967620E+05</totfact>
</mgrwt>
</event>
<event>
 8    1  0.1372337E-024  0.8122752E+02  0.7818608E-02  0.1325604E+00
         -2   -1    0    0    0  501 -0.00000000000E+00  0.00000000000E+00  0.10343815911E+03  0.10343815914E+03  0.25500000000E-02 0.  1.
          1   -1    0    0  501    0  0.00000000000E+00 -0.00000000000E+00 -0.15946508341E+02  0.15946509138E+02  0.50400000000E-02 0. -1.
        -24    2    1    2    0    0 -0.17763568394E-14  0.00000000000E+00  0.87491650765E+02  0.11938466828E+03  0.81227520371E+02 0.  0.
         66    2    3    3    0    0  0.10137371642E+02 -0.11265089562E+02  0.99114095139E+02  0.10028595303E+03  0.19999934113E+01 0.  0.
         13    1    3    3    0    0 -0.10137371642E+02  0.11265089562E+02 -0.11622444374E+02  0.19098715243E+02  0.10566000000E+00 0. -1.
         13    1    4    4    0    0  0.51022873560E+01 -0.49402576943E+01  0.45677048054E+02  0.46226003129E+02  0.10566000000E+00 0. -1.
        -13    1    4    4    0    0  0.23711592389E+01 -0.26405453267E+01  0.19622463267E+02  0.19941090854E+02  0.10566000000E+00 0.  1.
         14    1    4    4    0    0  0.26639250475E+01 -0.36842865410E+01  0.33814583819E+02  0.34118859049E+02  0.00000000000E+00 0. -1.
<mgrwt>
<rscale>  0 0.81227520E+02</rscale>
<asrwt>0</asrwt>
<pdfrwt beam="1">  1        1 0.24533090E-02 0.81227520E+02</pdfrwt>
<pdfrwt beam="2">  1       -2 0.15913563E-01 0.81227520E+02</pdfrwt>
<totfact> 0.10120509E+05</totfact>
</mgrwt>
</event>
<event>
 8    1  0.1372337E-024  0.8048637E+02  0.7818608E-02  0.1327677E+00
         -2   -1    0    0    0  501 -0.00000000000E+00  0.00000000000E+00  0.28091389390E+02  0.28091389505E+02  0.25500000000E-02 0.  1.
          1   -1    0    0  501    0  0.00000000000E+00 -0.00000000000E+00 -0.57651610276E+02  0.57651610496E+02  0.50400000000E-02 0. -1.
        -24    2    1    2    0    0  0.00000000000E+00 -0.35527136788E-14 -0.29560220886E+02  0.85743000002E+02  0.80486367731E+02 0.  0.
         66    2    3    3    0    0  0.11084460976E+01  0.27174063225E+02  0.16774396069E+02  0.32016225882E+02  0.19999978485E+01 0.  0.
         13    1    3    3    0    0 -0.11084460976E+01 -0.27174063225E+02 -0.46334616955E+02  0.53726774120E+02  0.10566000000E+00 0. -1.
         13    1    4    4    0    0  0.72632269831E+00  0.14875486521E+02  0.88451051758E+01  0.17322086869E+02  0.10566000000E+00 0. -1.
        -13    1    4    4    0    0  0.69375897374E+00  0.88847488861E+01  0.52545745643E+01  0.10346099853E+02  0.10566000000E+00 0.  1.
         14    1    4    4    0    0 -0.31163557450E+00  0.34138278177E+01  0.26747163285E+01  0.43480391601E+01  0.00000000000E+00 0. -1.
<mgrwt>
<rscale>  0 0.80486368E+02</rscale>
<asrwt>0</asrwt>
<pdfrwt beam="1">  1        1 0.88694786E-02 0.80486368E+02</pdfrwt>
<pdfrwt beam="2">  1       -2 0.43217522E-02 0.80486368E+02</pdfrwt>
<totfact> 0.13230661E+05</totfact>
</mgrwt>
</event>
<event>
 8    1  0.1372337E-024  0.8413125E+02  0.7818608E-02  0.1317720E+00
         -2   -1    0    0    0  501 -0.00000000000E+00  0.00000000000E+00  0.15872223089E+02  0.15872223294E+02  0.25500000000E-02 0.  1.
          1   -1    0    0  501    0  0.00000000000E+00 -0.00000000000E+00 -0.11148511284E+03  0.11148511295E+03  0.50400000000E-02 0. -1.
        -24    2    1    2    0    0  0.00000000000E+00 -0.35527136788E-14 -0.95612889747E+02  0.12735733624E+03  0.84131245143E+02 0.  0.
         66    2    3    3    0    0 -0.74977897704E+01  0.25567266565E+02  0.13965580734E+01  0.26755417268E+02  0.20000019291E+01 0.  0.
         13    1    3    3    0    0  0.74977897704E+01 -0.25567266565E+02 -0.97009447820E+02  0.10060191898E+03  0.10566000000E+00 0. -1.
         13    1    4    4    0    0 -0.19100055680E+01  0.95668341286E+01  0.18257656821E+00  0.97579165170E+01  0.10566000000E+00 0. -1.
        -13    1    4    4    0    0 -0.42918044489E+01  0.12746142693E+02  0.10553767378E+01  0.13491060858E+02  0.10566000000E+00 0.  1.
         14    1    4    4    0    0 -0.12959797536E+01  0.32542897434E+01  0.15860476732E+00  0.35064398937E+01  0.00000000000E+00 0. -1.
<mgrwt>
<rscale>  0 0.84131245E+02</rscale>
<asrwt>0</asrwt>
<pdfrwt beam="1">  1        1 0.17151555E-01 0.84131245E+02</pdfrwt>
<pdfrwt beam="2">  1       -2 0.24418806E-02 0.84131245E+02</pdfrwt>
<totfact> 0.13068758E+05</totfact>
</mgrwt>
</event>
<event>
 8    1  0.1372337E-024  0.7915318E+02  0.7818608E-02  0.1331472E+00
          1   -1    0    0  501    0  0.00000000000E+00  0.00000000000E+00  0.10850790482E+03  0.10850790493E+03  0.50400000000E-02 0. -1.
         -2   -1    0    0    0  501 -0.00000000000E+00 -0.00000000000E+00 -0.14434954338E+02  0.14434954563E+02  0.25500000000E-02 0.  1.
        -24    2    1    2    0    0  0.88817841970E-15 -0.71054273576E-14  0.94072950479E+02  0.12294285950E+03  0.79153184961E+02 0.  0.
         66    2    3    3    0    0  0.73069016711E+01 -0.33294591840E+02  0.15909561586E+02  0.37670078464E+02  0.20000009476E+01 0.  0.
         13    1    3    3    0    0 -0.73069016711E+01  0.33294591840E+02  0.78163388893E+02  0.85272781033E+02  0.10566000000E+00 0. -1.
         13    1    4    4    0    0  0.20000600672E+01 -0.64589277999E+01  0.33360677980E+01  0.75404576111E+01  0.10566000000E+00 0. -1.
        -13    1    4    4    0    0  0.12634498726E+00 -0.19768288937E+01  0.10478690372E+01  0.22434368914E+01  0.10566000000E+00 0.  1.
         14    1    4    4    0    0  0.51804966167E+01 -0.24858835146E+02  0.11525624750E+02  0.27886183961E+02  0.00000000000E+00 0. -1.
<mgrwt>
<rscale>  0 0.79153185E+02</rscale>
<asrwt>0</asrwt>
<pdfrwt beam="1">  1        1 0.16693524E-01 0.79153185E+02</pdfrwt>
<pdfrwt beam="2">  1       -2 0.22207623E-02 0.79153185E+02</pdfrwt>
<totfact> 0.15337680E+05</totfact>
</mgrwt>
</event>
<event>
 8    1  0.1372337E-024  0.7941728E+02  0.7818608E-02  0.1330713E+00
         -2   -1    0    0    0  501 -0.00000000000E+00  0.00000000000E+00  0.71932381439E+01  0.71932385959E+01  0.25500000000E-02 0.  1.
          1   -1    0    0  501    0  0.00000000000E+00 -0.00000000000E+00 -0.21920254721E+03  0.21920254727E+03  0.50400000000E-02 0. -1.
        -24    2    1    2    0    0  0.71054273576E-14  0.35527136788E-14 -0.21200930907E+03  0.22639578586E+03  0.79417282289E+02 0.  0.
         66    2    3    3    0    0  0.32666040118E+02  0.21632661691E+02 -0.88103391107E+02  0.96442987132E+02  0.20000034207E+01 0.  0.
         13    1    3    3    0    0 -0.32666040118E+02 -0.21632661691E+02 -0.12390591796E+03  0.12995279873E+03  0.10566000000E+00 0. -1.
         13    1    4    4    0    0  0.21797634048E+01  0.19676130519E+01 -0.71157056165E+01  0.76985258381E+01  0.10566000000E+00 0. -1.
        -13    1    4    4    0    0  0.27986366321E+02  0.18246002382E+02 -0.74746974476E+02  0.81873528446E+02  0.10566000000E+00 0.  1.
        -14    1    4    4    0    0  0.24999103922E+01  0.14190462571E+01 -0.62407110138E+01  0.68709328484E+01  0.00000000000E+00 0.  1.
<mgrwt>
<rscale>  0 0.79417282E+02</rscale>
<asrwt>0</asrwt>
<pdfrwt beam="1">  1        1 0.33723464E-01 0.79417282E+02</pdfrwt>
<pdfrwt beam="2">  1       -2 0.11066522E-02 0.79417282E+02</pdfrwt>
<totfact> 0.17306171E+05</totfact>
</mgrwt>
</event>
<event>
 8    1  0.1372337E-024  0.7817818E+02  0.7818608E-02  0.1334302E+00
          1   -1    0    0  501    0  0.00000000000E+00  0.00000000000E+00  0.87621240622E+01  0.87621255117E+01  0.50400000000E-02 0. -1.
         -2   -1    0    0    0  501 -0.00000000000E+00 -0.00000000000E+00 -0.17438200911E+03  0.17438200912E+03  0.25500000000E-02 0.  1.
        -24    2    1    2    0    0  0.35527136788E-14  0.00000000000E+00 -0.16561988504E+03  0.18314413464E+03  0.78178179371E+02 0.  0.
         66    2    3    3    0    0  0.30049567434E+02 -0.94942813837E+01 -0.13693985289E+03  0.14053341661E+03  0.19999985459E+01 0.  0.
         13    1    3    3    0    0 -0.30049567434E+02  0.94942813837E+01 -0.28680032156E+02  0.42610718023E+02  0.10566000000E+00 0. -1.
         13    1    4    4    0    0  0.19845631574E+01 -0.79909284660E+00 -0.10550397490E+02  0.10765644037E+02  0.10566000000E+00 0. -1.
        -13    1    4    4    0    0  0.22576659207E+02 -0.74542122482E+01 -0.10378173933E+03  0.10647033109E+03  0.10566000000E+00 0.  1.
        -14    1    4    4    0    0  0.54883450693E+01 -0.12409762889E+01 -0.22607716072E+02  0.23297441485E+02  0.00000000000E+00 0.  1.
<mgrwt>
<rscale>  0 0.78178179E+02</rscale>
<asrwt>0</asrwt>
<pdfrwt beam="1">  1        1 0.13480193E-02 0.78178179E+02</pdfrwt>
<pdfrwt beam="2">  1       -2 0.26827999E-01 0.78178179E+02</pdfrwt>
<totfact> 0.95180826E+04</totfact>
</mgrwt>
</event>
<event>
 8    1  0.1372337E-024  0.8155959E+02  0.7818608E-02  0.1324683E+00
         -2   -1    0    0    0  501 -0.00000000000E+00  0.00000000000E+00  0.28575855967E+02  0.28575856081E+02  0.25500000000E-02 0.  1.
          1   -1    0    0  501    0  0.00000000000E+00 -0.00000000000E+00 -0.58195693885E+02  0.58195694103E+02  0.50400000000E-02 0. -1.
        -24    2    1    2    0    0 -0.17763568394E-14  0.00000000000E+00 -0.29619837918E+02  0.86771550183E+02  0.81559592464E+02 0.  0.
         66    2    3    3    0    0 -0.13421744826E+02 -0.36021284987E+02 -0.29223230052E+02  0.48328804858E+02  0.19999994971E+01 0.  0.
         13    1    3    3    0    0  0.13421744826E+02  0.36021284987E+02 -0.39660786552E+00  0.38442745325E+02  0.10566000000E+00 0. -1.
         13    1    4    4    0    0 -0.29825322350E+01 -0.10216845920E+02 -0.78771116542E+01  0.13241581897E+02  0.10566000000E+00 0. -1.
        -13    1    4    4    0    0 -0.70641646073E+01 -0.18350950113E+02 -0.14934951037E+02  0.24692584275E+02  0.10566000000E+00 0.  1.
         14    1    4    4    0    0 -0.33750479842E+01 -0.74534889541E+01 -0.64111673613E+01  0.10394638686E+02  0.00000000000E+00 0. -1.
<mgrwt>
<rscale>  0 0.81559592E+02</rscale>
<asrwt>0</asrwt>
<pdfrwt beam="1">  1        1 0.89531837E-02 0.81559592E+02</pdfrwt>
<pdfrwt beam="2">  1       -2 0.43962856E-02 0.81559592E+02</pdfrwt>
<totfact> 0.12773479E+05</totfact>
</mgrwt>
</event>
<event>
 8    1  0.1372337E-024  0.7578869E+02  0.7818608E-02  0.1341446E+00
          1   -1    0    0  501    0  0.00000000000E+00  0.00000000000E+00  0.63544019265E+01  0.63544039253E+01  0.50400000000E-02 0. -1.
         -2   -1    0    0    0  501 -0.00000000000E+00 -0.00000000000E+00 -0.22598212777E+03  0.22598212778E+03  0.25500000000E-02 0.  1.
        -24    2    1    2    0    0  0.00000000000E+00  0.00000000000E+00 -0.21962772584E+03  0.23233653171E+03  0.75788693138E+02 0.  0.
         66    2    3    3    0    0  0.35157205436E+02 -0.30069802572E+01 -0.67755848861E+02  0.76419408831E+02  0.19999917363E+01 0.  0.
         13    1    3    3    0    0 -0.35157205436E+02  0.30069802572E+01 -0.15187187698E+03  0.15591712287E+03  0.10566000000E+00 0. -1.
         13    1    4    4    0    0  0.97660355157E+01 -0.50571139354E+00 -0.20327280859E+02  0.22557497753E+02  0.10566000000E+00 0. -1.
        -13    1    4    4    0    0  0.18845680244E+02 -0.21484514490E+01 -0.35667458158E+02  0.40397453422E+02  0.10566000000E+00 0.  1.
         14    1    4    4    0    0  0.65454896760E+01 -0.35281741462E+00 -0.11761109843E+02  0.13464457656E+02  0.00000000000E+00 0. -1.
<mgrwt>
<rscale>  0 0.75788693E+02</rscale>
<asrwt>0</asrwt>
<pdfrwt beam="1">  1        1 0.97760063E-03 0.75788693E+02</pdfrwt>
<pdfrwt beam="2">  1       -2 0.34766475E-01 0.75788693E+02</pdfrwt>
<totfact> 0.92859038E+04</totfact>
</mgrwt>
</event>
<event>
 8    1  0.1372337E-024  0.7938321E+02  0.7818608E-02  0.1330811E+00
         -2   -1    0    0    0  501 -0.00000000000E+00  0.00000000000E+00  0.11451398537E+02  0.11451398821E+02  0.25500000000E-02 0.  1.
          1   -1    0    0  501    0  0.00000000000E+00 -0.00000000000E+00 -0.13757478019E+03  0.13757478028E+03  0.50400000000E-02 0. -1.
        -24    2    1    2    0    0  0.00000000000E+00  0.35527136788E-14 -0.12612338165E+03  0.14902617910E+03  0.79383213959E+02 0.  0.
         66    2    3    3    0    0 -0.31778533394E+02 -0.23726568948E+02 -0.61655408766E+02  0.73336312206E+02  0.19999997702E+01 0.  0.
         13    1    3    3    0    0  0.31778533394E+02  0.23726568948E+02 -0.64467972884E+02  0.75689866895E+02  0.10566000000E+00 0. -1.
         13    1    4    4    0    0 -0.10403025997E+02 -0.75080762803E+01 -0.20921378701E+02  0.24541992790E+02  0.10566000000E+00 0. -1.
        -13    1    4    4    0    0 -0.49403067758E+00 -0.34874216271E+00 -0.66789263086E+00  0.90715600004E+00  0.10566000000E+00 0.  1.
        -14    1    4    4    0    0 -0.20881476719E+02 -0.15869750505E+02 -0.40066137435E+02  0.47887163416E+02  0.00000000000E+00 0.  1.
<mgrwt>
<rscale>  0 0.79383214E+02</rscale>
<asrwt>0</asrwt>
<pdfrwt beam="1">  1        1 0.21165350E-01 0.79383214E+02</pdfrwt>
<pdfrwt beam="2">  1       -2 0.17617537E-02 0.79383214E+02</pdfrwt>
<totfact> 0.15866046E+05</totfact>
</mgrwt>
</event>
<event>
 8    1  0.1372337E-024  0.7958842E+02  0.7818608E-02  0.1330224E+00
         -2   -1    0    0    0  501 -0.00000000000E+00  0.00000000000E+00  0.24371213614E+03  0.24371213616E+03  0.25500000000E-02 0.  1.
          1   -1    0    0  501    0  0.00000000000E+00 -0.00000000000E+00 -0.64977429979E+01  0.64977449526E+01  0.50400000000E-02 0. -1.
        -24    2    1    2    0    0  0.71054273576E-14  0.00000000000E+00  0.23721439315E+03  0.25020988111E+03  0.79588418061E+02 0.  0.
         66    2    3    3    0    0 -0.36956903384E+02 -0.71657410776E+01  0.15899287043E+03  0.16340102019E+03  0.20000002581E+01 0.  0.
         13    1    3    3    0    0  0.36956903384E+02  0.71657410776E+01  0.78221522722E+02  0.86808860918E+02  0.10566000000E+00 0. -1.
         13    1    4    4    0    0 -0.10580203304E+01 -0.50616423742E+00  0.45974758081E+01  0.47458989767E+01  0.10566000000E+00 0. -1.
        -13    1    4    4    0    0 -0.10484025119E+02 -0.16560811163E+01  0.44842820931E+02  0.46081961117E+02  0.10566000000E+00 0.  1.
         14    1    4    4    0    0 -0.25414857935E+02 -0.50034957239E+01  0.10955257369E+03  0.11257316010E+03  0.00000000000E+00 0. -1.
<mgrwt>
<rscale>  0 0.79588418E+02</rscale>
<asrwt>0</asrwt>
<pdfrwt beam="1">  1        1 0.99965310E-03 0.79588418E+02</pdfrwt>
<pdfrwt beam="2">  1       -2 0.37494168E-01 0.79588418E+02</pdfrwt>
<totfact> 0.79095075E+04</totfact>
</mgrwt>
</event>
<event>
 8    1  0.1372337E-024  0.7924997E+02  0.7818608E-02  0.1331193E+00
          1   -1    0    0  501    0  0.00000000000E+00  0.00000000000E+00  0.58627579994E+03  0.58627579996E+03  0.50400000000E-02 0. -1.
         -2   -1    0    0    0  501 -0.00000000000E+00 -0.00000000000E+00 -0.26781579114E+01  0.26781591254E+01  0.25500000000E-02 0.  1.
        -24    2    1    2    0    0  0.35527136788E-14  0.35527136788E-14  0.58359764203E+03  0.58895395909E+03  0.79249972511E+02 0.  0.
         66    2    3    3    0    0 -0.30365249688E+02 -0.22664759070E+02  0.37749433133E+03  0.37939650745E+03  0.19999963961E+01 0.  0.
         13    1    3    3    0    0  0.30365249688E+02  0.22664759070E+02  0.20610331070E+03  0.20955745164E+03  0.10566000000E+00 0. -1.
         13    1    4    4    0    0 -0.59158312208E+01 -0.48189018477E+01  0.73963382332E+02  0.74355981360E+02  0.10566000000E+00 0. -1.
        -13    1    4    4    0    0 -0.22818841702E+02 -0.16731929667E+02  0.27955514774E+03  0.28098353830E+03  0.10566000000E+00 0.  1.
        -14    1    4    4    0    0 -0.16305767654E+01 -0.11139275553E+01  0.23975801258E+02  0.24056987782E+02  0.00000000000E+00 0.  1.
<mgrwt>
<rscale>  0 0.79249973E+02</rscale>
<asrwt>0</asrwt>
<pdfrwt beam="1">  1        1 0.90196334E-01 0.79249973E+02</pdfrwt>
<pdfrwt beam="2">  1       -2 0.41202413E-03 0.79249973E+02</pdfrwt>
<totfact> 0.20402669E+05</totfact>
</mgrwt>
</event>
<event>
 8    1  0.1372337E-024  0.8132887E+02  0.7818608E-02  0.1325322E+00
          1   -1    0    0  501    0  0.00000000000E+00  0.00000000000E+00  0.12906889256E+03  0.12906889266E+03  0.50400000000E-02 0. -1.
         -2   -1    0    0    0  501 -0.00000000000E+00 -0.00000000000E+00 -0.12811732307E+02  0.12811732561E+02  0.25500000000E-02 0.  1.
        -24    2    1    2    0    0  0.00000000000E+00  0.00000000000E+00  0.11625716025E+03  0.14188062522E+03  0.81328866355E+02 0.  0.
         66    2    3    3    0    0  0.12382751160E+02  0.38216306095E+02  0.47441861380E+02  0.62197659029E+02  0.19999999063E+01 0.  0.
         13    1    3    3    0    0 -0.12382751160E+02 -0.38216306095E+02  0.68815298873E+02  0.79682966191E+02  0.10566000000E+00 0. -1.
         13    1    4    4    0    0  0.66706601216E+01  0.19692378015E+02  0.25535849936E+02  0.32929899093E+02  0.10566000000E+00 0. -1.
        -13    1    4    4    0    0  0.14577728953E+01  0.39640549371E+01  0.52711340281E+01  0.67553572324E+01  0.10566000000E+00 0.  1.
         14    1    4    4    0    0  0.42543181427E+01  0.14559873144E+02  0.16634877416E+02  0.22512402703E+02  0.00000000000E+00 0. -1.
<mgrwt>
<rscale>  0 0.81328866E+02</rscale>
<asrwt>0</asrwt>
<pdfrwt beam="1">  1        1 0.19856752E-01 0.81328866E+02</pdfrwt>
<pdfrwt beam="2">  1       -2 0.19710358E-02 0.81328866E+02</pdfrwt>
<totfact> 0.14698565E+05</totfact>
</mgrwt>
</event>
<event>
 8    1  0.1372337E-024  0.7661827E+02  0.7818608E-02  0.1338932E+00
          1   -1    0    0  501    0  0.00000000000E+00  0.00000000000E+00  0.10828618057E+03  0.10828618069E+03  0.50400000000E-02 0. -1.
         -2   -1    0    0    0  501 -0.00000000000E+00 -0.00000000000E+00 -0.13552882560E+02  0.13552882800E+02  0.25500000000E-02 0.  1.
        -24    2    1    2    0    0  0.00000000000E+00  0.00000000000E+00  0.94733298013E+02  0.12183906349E+03  0.76618272233E+02 0.  0.
         66    2    3    3    0    0 -0.31874343708E+02  0.21166984260E+02  0.49391357965E+02  0.62510169175E+02  0.19999997813E+01 0.  0.
         13    1    3    3    0    0  0.31874343708E+02 -0.21166984260E+02  0.45341940048E+02  0.59328894317E+02  0.10566000000E+00 0. -1.
         13    1    4    4    0    0 -0.83014063252E+01  0.52151191359E+01  0.13105371945E+02  0.16366818641E+02  0.10566000000E+00 0. -1.
        -13    1    4    4    0    0 -0.20966076457E+02  0.13634848982E+02  0.32181579179E+02  0.40757216186E+02  0.10566000000E+00 0.  1.
         14    1    4    4    0    0 -0.26068609251E+01  0.23170161425E+01  0.41044068410E+01  0.53861343470E+01  0.00000000000E+00 0. -1.
<mgrwt>
<rscale>  0 0.76618272E+02</rscale>
<asrwt>0</asrwt>
<pdfrwt beam="1">  1        1 0.16659412E-01 0.76618272E+02</pdfrwt>
<pdfrwt beam="2">  1       -2 0.20850589E-02 0.76618272E+02</pdfrwt>
<totfact> 0.16733528E+05</totfact>
</mgrwt>
</event>
<event>
 8    1  0.1372337E-024  0.7964458E+02  0.7818608E-02  0.1330063E+00
         -2   -1    0    0    0  501 -0.00000000000E+00  0.00000000000E+00  0.20540833596E+03  0.20540833598E+03  0.25500000000E-02 0.  1.
          1   -1    0    0  501    0  0.00000000000E+00 -0.00000000000E+00 -0.77203021820E+01  0.77203038272E+01  0.50400000000E-02 0. -1.
        -24    2    1    2    0    0  0.10658141036E-13 -0.35527136788E-14  0.19768803378E+03  0.21312863981E+03  0.79644575493E+02 0.  0.
         66    2    3    3    0    0  0.31560532795E+02  0.22530408821E+02  0.12285942421E+03  0.12884923232E+03  0.20000000544E+01 0.  0.
         13    1    3    3    0    0 -0.31560532795E+02 -0.22530408821E+02  0.74828609577E+02  0.84279407492E+02  0.10566000000E+00 0. -1.
         13    1    4    4    0    0  0.19775472479E+01  0.15302852533E+01  0.79072262431E+01  0.82938445229E+01  0.10566000000E+00 0.  1.
        -13    1    4    4    0    0  0.60872662712E+01  0.48080646210E+01  0.26761182623E+02  0.27862956690E+02  0.10566000000E+00 0.  1.
         14    1    4    4    0    0  0.23495719276E+02  0.16192058947E+02  0.88191015340E+02  0.92692431104E+02  0.00000000000E+00 0. -1.
<mgrwt>
<rscale>  0 0.79644575E+02</rscale>
<asrwt>0</asrwt>
<pdfrwt beam="1">  1        1 0.11877391E-02 0.79644575E+02</pdfrwt>
<pdfrwt beam="2">  1       -2 0.31601279E-01 0.79644575E+02</pdfrwt>
<totfact> 0.85123512E+04</totfact>
</mgrwt>
</event>
<event>
 8    1  0.1372337E-024  0.7743180E+02  0.7818608E-02  0.1336502E+00
          1   -1    0    0  501    0  0.00000000000E+00  0.00000000000E+00  0.16046525433E+03  0.16046525441E+03  0.50400000000E-02 0. -1.
         -2   -1    0    0    0  501 -0.00000000000E+00 -0.00000000000E+00 -0.93410935318E+01  0.93410938798E+01  0.25500000000E-02 0.  1.
        -24    2    1    2    0    0 -0.35527136788E-14  0.00000000000E+00  0.15112416080E+03  0.16980634829E+03  0.77431801880E+02 0.  0.
         66    2    3    3    0    0  0.30241165925E+02  0.23902101423E+02  0.68313484529E+02  0.78463818014E+02  0.19999999872E+01 0.  0.
         13    1    3    3    0    0 -0.30241165925E+02 -0.23902101423E+02  0.82810676273E+02  0.91342530279E+02  0.10566000000E+00 0. -1.
         13    1    4    4    0    0  0.16494886755E+02  0.12864795627E+02  0.38155526223E+02  0.43513671426E+02  0.10566000000E+00 0. -1.
        -13    1    4    4    0    0  0.12047412544E+02  0.10056721932E+02  0.26451584613E+02  0.30756711423E+02  0.10566000000E+00 0.  1.
        -14    1    4    4    0    0  0.16988666252E+01  0.98058386335E+00  0.37063736937E+01  0.41934351647E+01  0.00000000000E+00 0.  1.
<mgrwt>
<rscale>  0 0.77431802E+02</rscale>
<asrwt>0</asrwt>
<pdfrwt beam="1">  1        1 0.24686962E-01 0.77431802E+02</pdfrwt>
<pdfrwt beam="2">  1       -2 0.14370914E-02 0.77431802E+02</pdfrwt>
<totfact> 0.17438662E+05</totfact>
</mgrwt>
</event>
<event>
 8    1  0.1372337E-024  0.7916102E+02  0.7818608E-02  0.1331449E+00
          1   -1    0    0  501    0  0.00000000000E+00  0.00000000000E+00  0.36908349165E+02  0.36908349509E+02  0.50400000000E-02 0. -1.
         -2   -1    0    0    0  501 -0.00000000000E+00 -0.00000000000E+00 -0.42446138093E+02  0.42446138170E+02  0.25500000000E-02 0.  1.
        -24    2    1    2    0    0  0.00000000000E+00  0.00000000000E+00 -0.55377889286E+01  0.79354487678E+02  0.79161023291E+02 0.  0.
         66    2    3    3    0    0 -0.24311925181E+01  0.17066838663E+02 -0.38458565987E+02  0.42192996788E+02  0.20000002905E+01 0.  0.
         13    1    3    3    0    0  0.24311925181E+01 -0.17066838663E+02  0.32920777059E+02  0.37161490890E+02  0.10566000000E+00 0. -1.
         13    1    4    4    0    0 -0.26967178444E+00  0.14661579836E+01 -0.24021611518E+01  0.28291137021E+01  0.10566000000E+00 0. -1.
        -13    1    4    4    0    0 -0.85368884940E+00  0.44196526888E+01 -0.91649677377E+01  0.10211263987E+02  0.10566000000E+00 0.  1.
         14    1    4    4    0    0 -0.13078318843E+01  0.11181027991E+02 -0.26891437098E+02  0.29152619099E+02  0.00000000000E+00 0. -1.
<mgrwt>
<rscale>  0 0.79161023E+02</rscale>
<asrwt>0</asrwt>
<pdfrwt beam="1">  1        1 0.56782076E-02 0.79161023E+02</pdfrwt>
<pdfrwt beam="2">  1       -2 0.65301751E-02 0.79161023E+02</pdfrwt>
<totfact> 0.12910474E+05</totfact>
</mgrwt>
</event>
<event>
 8    1  0.1372337E-024  0.8123694E+02  0.7818608E-02  0.1325577E+00
         -2   -1    0    0    0  501 -0.00000000000E+00  0.00000000000E+00  0.46299852900E+02  0.46299852970E+02  0.25500000000E-02 0.  1.
          1   -1    0    0  501    0  0.00000000000E+00 -0.00000000000E+00 -0.35634238268E+02  0.35634238625E+02  0.50400000000E-02 0. -1.
        -24    2    1    2    0    0 -0.35527136788E-14  0.00000000000E+00  0.10665614632E+02  0.81934091595E+02  0.81236937596E+02 0.  0.
         66    2    3    3    0    0  0.30608747406E+02 -0.55084178121E+00  0.32222939086E+02  0.44491759321E+02  0.19999999149E+01 0.  0.
         13    1    3    3    0    0 -0.30608747406E+02  0.55084178121E+00 -0.21557324455E+02  0.37442332274E+02  0.10566000000E+00 0. -1.
         13    1    4    4    0    0  0.15654275131E+02  0.92979159304E-01  0.16775603816E+02  0.22945522928E+02  0.10566000000E+00 0.  1.
        -13    1    4    4    0    0  0.10824195448E+02 -0.31389172268E+00  0.10380246297E+02  0.15000747059E+02  0.10566000000E+00 0. -1.
        -14    1    4    4    0    0  0.41302768269E+01 -0.32992921783E+00  0.50670889725E+01  0.65454893332E+01  0.00000000000E+00 0.  1.
<mgrwt>
<rscale>  0 0.81236938E+02</rscale>
<asrwt>0</asrwt>
<pdfrwt beam="1">  1        1 0.54821905E-02 0.81236938E+02</pdfrwt>
<pdfrwt beam="2">  1       -2 0.71230543E-02 0.81236938E+02</pdfrwt>
<totfact> 0.11926172E+05</totfact>
</mgrwt>
</event>
<event>
 8    1  0.1372337E-024  0.7903604E+02  0.7818608E-02  0.1331809E+00
          1   -1    0    0  501    0  0.00000000000E+00  0.00000000000E+00  0.45215123644E+02  0.45215123924E+02  0.50400000000E-02 0. -1.
         -2   -1    0    0    0  501 -0.00000000000E+00 -0.00000000000E+00 -0.34538754018E+02  0.34538754112E+02  0.25500000000E-02 0.  1.
        -24    2    1    2    0    0 -0.35527136788E-14  0.00000000000E+00  0.10676369626E+02  0.79753878037E+02  0.79036043635E+02 0.  0.
         66    2    3    3    0    0  0.17027344762E+02  0.16730333487E+02 -0.26405789183E+02  0.35652492637E+02  0.20000001615E+01 0.  0.
         13    1    3    3    0    0 -0.17027344762E+02 -0.16730333487E+02  0.37082158808E+02  0.44101385399E+02  0.10566000000E+00 0. -1.
         13    1    4    4    0    0  0.31300213594E+01  0.32532373904E+01 -0.40795773171E+01  0.60856143774E+01  0.10566000000E+00 0. -1.
        -13    1    4    4    0    0  0.46679609149E+01  0.42934408502E+01 -0.66771525988E+01  0.92097244422E+01  0.10566000000E+00 0.  1.
         14    1    4    4    0    0  0.92293624872E+01  0.91836552466E+01 -0.15649059267E+02  0.20357153818E+02  0.00000000000E+00 0. -1.
<mgrwt>
<rscale>  0 0.79036044E+02</rscale>
<asrwt>0</asrwt>
<pdfrwt beam="1">  1        1 0.69561729E-02 0.79036044E+02</pdfrwt>
<pdfrwt beam="2">  1       -2 0.53136545E-02 0.79036044E+02</pdfrwt>
<totfact> 0.13395780E+05</totfact>
</mgrwt>
</event>
<event>
 8    1  0.1372337E-024  0.7974958E+02  0.7818608E-02  0.1329764E+00
         -2   -1    0    0    0  501 -0.00000000000E+00  0.00000000000E+00  0.64265969826E+02  0.64265969877E+02  0.25500000000E-02 0.  1.
          1   -1    0    0  501    0  0.00000000000E+00 -0.00000000000E+00 -0.24740911813E+02  0.24740912326E+02  0.50400000000E-02 0. -1.
        -24    2    1    2    0    0  0.00000000000E+00  0.17763568394E-14  0.39525058013E+02  0.89006882202E+02  0.79749575976E+02 0.  0.
         66    2    3    3    0    0 -0.17767180806E+02 -0.12998757279E+02  0.56847478373E+02  0.60994066997E+02  0.20000017138E+01 0.  0.
         13    1    3    3    0    0  0.17767180806E+02  0.12998757279E+02 -0.17322420359E+02  0.28012815206E+02  0.10566000000E+00 0. -1.
         13    1    4    4    0    0 -0.42877261704E-01 -0.74316444185E-01  0.23892526822E+00  0.27497402212E+00  0.10566000000E+00 0.  1.
        -13    1    4    4    0    0 -0.66339490213E+01 -0.52826457636E+01  0.22844264308E+02  0.24367749212E+02  0.10566000000E+00 0.  1.
        -14    1    4    4    0    0 -0.11090354523E+02 -0.76417950709E+01  0.33764288797E+02  0.36351343762E+02  0.00000000000E+00 0.  1.
<mgrwt>
<rscale>  0 0.79749576E+02</rscale>
<asrwt>0</asrwt>
<pdfrwt beam="1">  1        1 0.38062942E-02 0.79749576E+02</pdfrwt>
<pdfrwt beam="2">  1       -2 0.98870722E-02 0.79749576E+02</pdfrwt>
<totfact> 0.11779080E+05</totfact>
</mgrwt>
</event>
<event>
 8    1  0.1372337E-024  0.7984429E+02  0.7818608E-02  0.1329494E+00
         -2   -1    0    0    0  501 -0.00000000000E+00  0.00000000000E+00  0.10888765613E+03  0.10888765616E+03  0.25500000000E-02 0.  1.
          1   -1    0    0  501    0  0.00000000000E+00 -0.00000000000E+00 -0.14636897946E+02  0.14636898813E+02  0.50400000000E-02 0. -1.
        -24    2    1    2    0    0  0.00000000000E+00  0.00000000000E+00  0.94250758188E+02  0.12352455498E+03  0.79844287605E+02 0.  0.
         66    2    3    3    0    0 -0.22884504003E+02  0.12990672273E+02  0.93549231506E+02  0.97200395099E+02  0.20000006203E+01 0.  0.
         13    1    3    3    0    0  0.22884504003E+02 -0.12990672273E+02  0.70152668269E+00  0.26324159878E+02  0.10566000000E+00 0. -1.
         13    1    4    4    0    0 -0.10440462086E+02  0.62889383879E+01  0.42688331449E+02  0.44394355503E+02  0.10566000000E+00 0. -1.
        -13    1    4    4    0    0 -0.76229708915E+01  0.33445257859E+01  0.29999543297E+02  0.31133250714E+02  0.10566000000E+00 0.  1.
         14    1    4    4    0    0 -0.48210710260E+01  0.33572080992E+01  0.20861356760E+02  0.21672788882E+02  0.00000000000E+00 0. -1.
<mgrwt>
<rscale>  0 0.79844288E+02</rscale>
<asrwt>0</asrwt>
<pdfrwt beam="1">  1        1 0.22518307E-02 0.79844288E+02</pdfrwt>
<pdfrwt beam="2">  1       -2 0.16751946E-01 0.79844288E+02</pdfrwt>
<totfact> 0.10436579E+05</totfact>
</mgrwt>
</event>
<event>
 8    1  0.1372337E-024  0.7934334E+02  0.7818608E-02  0.1330925E+00
          1   -1    0    0  501    0  0.00000000000E+00  0.00000000000E+00  0.36445042381E+01  0.36445077230E+01  0.50400000000E-02 0. -1.
         -2   -1    0    0    0  501 -0.00000000000E+00 -0.00000000000E+00 -0.43183946091E+03  0.43183946091E+03  0.25500000000E-02 0.  1.
        -24    2    1    2    0    0 -0.35527136788E-14 -0.88817841970E-15 -0.42819495667E+03  0.43548396864E+03  0.79343342654E+02 0.  0.
         66    2    3    3    0    0 -0.23785769393E+02 -0.41961948186E+01 -0.38679406510E+03  0.38755260246E+03  0.20000007173E+01 0.  0.
         13    1    3    3    0    0  0.23785769393E+02  0.41961948186E+01 -0.41400891567E+02  0.47931366172E+02  0.10566000000E+00 0. -1.
         13    1    4    4    0    0 -0.48311487774E+01 -0.63218476090E+00 -0.72036983350E+02  0.72201646728E+02  0.10566000000E+00 0. -1.
        -13    1    4    4    0    0 -0.42442952701E+01 -0.22600362175E+00 -0.73148809996E+02  0.73272264111E+02  0.10566000000E+00 0.  1.
        -14    1    4    4    0    0 -0.14710325345E+02 -0.33380064360E+01 -0.24160827175E+03  0.24207869163E+03  0.00000000000E+00 0.  1.
<mgrwt>
<rscale>  0 0.79343343E+02</rscale>
<asrwt>0</asrwt>
<pdfrwt beam="1">  1        1 0.56069357E-03 0.79343343E+02</pdfrwt>
<pdfrwt beam="2">  1       -2 0.66436800E-01 0.79343343E+02</pdfrwt>
<totfact> 0.57301398E+04</totfact>
</mgrwt>
</event>
<event>
 8    1  0.1372337E-024  0.8546872E+02  0.7818608E-02  0.1314211E+00
         -2   -1    0    0    0  501 -0.00000000000E+00  0.00000000000E+00  0.26945401170E+02  0.26945401291E+02  0.25500000000E-02 0.  1.
          1   -1    0    0  501    0  0.00000000000E+00 -0.00000000000E+00 -0.67775033109E+02  0.67775033296E+02  0.50400000000E-02 0. -1.
        -24    2    1    2    0    0  0.00000000000E+00  0.00000000000E+00 -0.40829631938E+02  0.94720434587E+02  0.85468718746E+02 0.  0.
         66    2    3    3    0    0 -0.31827780400E+02  0.95413209573E+01  0.93150537606E+01  0.34566090781E+02  0.19999986422E+01 0.  0.
         13    1    3    3    0    0  0.31827780400E+02 -0.95413209573E+01 -0.50144685699E+02  0.60154343805E+02  0.10566000000E+00 0. -1.
         13    1    4    4    0    0 -0.22544131731E+02  0.61298732146E+01  0.67571516020E+01  0.24320433445E+02  0.10566000000E+00 0. -1.
        -13    1    4    4    0    0 -0.75206576818E+01  0.25813553779E+01  0.23136119985E+01  0.82817662409E+01  0.10566000000E+00 0.  1.
         14    1    4    4    0    0 -0.17629909869E+01  0.83009236476E+00  0.24429016004E+00  0.19638910958E+01  0.00000000000E+00 0. -1.
<mgrwt>
<rscale>  0 0.85468719E+02</rscale>
<asrwt>0</asrwt>
<pdfrwt beam="1">  1        1 0.10426928E-01 0.85468719E+02</pdfrwt>
<pdfrwt beam="2">  1       -2 0.41454464E-02 0.85468719E+02</pdfrwt>
<totfact> 0.11501233E+05</totfact>
</mgrwt>
</event>
<event>
 8    1  0.1372337E-024  0.8052510E+02  0.7818608E-02  0.1327568E+00
         -2   -1    0    0    0  501 -0.00000000000E+00  0.00000000000E+00  0.17829913884E+02  0.17829914066E+02  0.25500000000E-02 0.  1.
          1   -1    0    0  501    0  0.00000000000E+00 -0.00000000000E+00 -0.90918723369E+02  0.90918723509E+02  0.50400000000E-02 0. -1.
        -24    2    1    2    0    0  0.00000000000E+00  0.00000000000E+00 -0.73088809485E+02  0.10874863757E+03  0.80525102312E+02 0.  0.
         66    2    3    3    0    0 -0.19428226468E+02 -0.35126530275E+02 -0.32809952013E+02  0.51882772276E+02  0.19999987610E+01 0.  0.
         13    1    3    3    0    0  0.19428226468E+02  0.35126530275E+02 -0.40278857472E+02  0.56865865299E+02  0.10566000000E+00 0. -1.
         13    1    4    4    0    0 -0.99880395781E+01 -0.19384944549E+02 -0.17036149513E+02  0.27672704314E+02  0.10566000000E+00 0. -1.
        -13    1    4    4    0    0 -0.53331834796E+01 -0.93415233998E+01 -0.89793918580E+01  0.14012406918E+02  0.10566000000E+00 0.  1.
         14    1    4    4    0    0 -0.41070034107E+01 -0.64000623271E+01 -0.67944106422E+01  0.10197661045E+02  0.00000000000E+00 0. -1.
<mgrwt>
<rscale>  0 0.80525102E+02</rscale>
<asrwt>0</asrwt>
<pdfrwt beam="1">  1        1 0.13987496E-01 0.80525102E+02</pdfrwt>
<pdfrwt beam="2">  1       -2 0.27430638E-02 0.80525102E+02</pdfrwt>
<totfact> 0.14213455E+05</totfact>
</mgrwt>
</event>
<event>
 8    1  0.1372337E-024  0.7811248E+02  0.7818608E-02  0.1334495E+00
         -2   -1    0    0    0  501 -0.00000000000E+00  0.00000000000E+00  0.53329430570E+02  0.53329430631E+02  0.25500000000E-02 0.  1.
          1   -1    0    0  501    0  0.00000000000E+00 -0.00000000000E+00 -0.28603152520E+02  0.28603152964E+02  0.50400000000E-02 0. -1.
        -24    2    1    2    0    0  0.00000000000E+00  0.35527136788E-14  0.24726278050E+02  0.81932583595E+02  0.78112479338E+02 0.  0.
         66    2    3    3    0    0 -0.73746856867E+01 -0.27936775026E+02  0.39894451858E+02  0.49299256328E+02  0.19999994090E+01 0.  0.
         13    1    3    3    0    0  0.73746856867E+01  0.27936775026E+02 -0.15168173808E+02  0.32633327267E+02  0.10566000000E+00 0. -1.
         13    1    4    4    0    0 -0.32573044894E+00 -0.32722686017E+01  0.40711070502E+01  0.52343976518E+01  0.10566000000E+00 0. -1.
        -13    1    4    4    0    0 -0.59093746081E+01 -0.20141149190E+02  0.28999213437E+02  0.35798772925E+02  0.10566000000E+00 0.  1.
         14    1    4    4    0    0 -0.11395806297E+01 -0.45233572340E+01  0.68241313708E+01  0.82660857511E+01  0.00000000000E+00 0. -1.
<mgrwt>
<rscale>  0 0.78112479E+02</rscale>
<asrwt>0</asrwt>
<pdfrwt beam="1">  1        1 0.44004851E-02 0.78112479E+02</pdfrwt>
<pdfrwt beam="2">  1       -2 0.82045278E-02 0.78112479E+02</pdfrwt>
<totfact> 0.12844960E+05</totfact>
</mgrwt>
</event>
<event>
 8    1  0.1372337E-024  0.8135049E+02  0.7818608E-02  0.1325262E+00
         -2   -1    0    0    0  501 -0.00000000000E+00  0.00000000000E+00  0.10264695719E+04  0.10264695719E+04  0.25500000000E-02 0.  1.
          1   -1    0    0  501    0  0.00000000000E+00 -0.00000000000E+00 -0.16118077432E+01  0.16118156230E+01  0.50400000000E-02 0. -1.
        -24    2    1    2    0    0  0.88817841970E-15  0.00000000000E+00  0.10248577642E+04  0.10280813875E+04  0.81350492471E+02 0.  0.
         66    2    3    3    0    0  0.68976288319E+01  0.28139226896E+02  0.87309496079E+03  0.87357781791E+03  0.20000042177E+01 0.  0.
         13    1    3    3    0    0 -0.68976288319E+01 -0.28139226896E+02  0.15176280337E+03  0.15450356962E+03  0.10566000000E+00 0. -1.
         13    1    4    4    0    0  0.54228049960E+01  0.20379625448E+02  0.65288175892E+03  0.65322227323E+03  0.10566000000E+00 0. -1.
        -13    1    4    4    0    0  0.49464390820E+00  0.19054439234E+01  0.49823918542E+02  0.49862906173E+02  0.10566000000E+00 0.  1.
        -14    1    4    4    0    0  0.98017992769E+00  0.58541575244E+01  0.17038928333E+03  0.17049263851E+03  0.00000000000E+00 0.  1.
<mgrwt>
<rscale>  0 0.81350492E+02</rscale>
<asrwt>0</asrwt>
<pdfrwt beam="1">  1        1 0.24797094E-03 0.81350492E+02</pdfrwt>
<pdfrwt beam="2">  1       -2 0.15791845E+00 0.81350492E+02</pdfrwt>
<totfact> 0.24217726E+04</totfact>
</mgrwt>
</event>
<event>
 8    1  0.1372337E-024  0.7629735E+02  0.7818608E-02  0.1339900E+00
          1   -1    0    0  501    0  0.00000000000E+00  0.00000000000E+00  0.26093613609E+01  0.26093662283E+01  0.50400000000E-02 0. -1.
         -2   -1    0    0    0  501 -0.00000000000E+00 -0.00000000000E+00 -0.55773035246E+03  0.55773035246E+03  0.25500000000E-02 0.  1.
        -24    2    1    2    0    0  0.17763568394E-14  0.00000000000E+00 -0.55512099110E+03  0.56033971869E+03  0.76297349805E+02 0.  0.
         66    2    3    3    0    0  0.14669934162E+02 -0.96476876937E+01 -0.52626459348E+03  0.52656120935E+03  0.19999977377E+01 0.  0.
         13    1    3    3    0    0 -0.14669934162E+02  0.96476876937E+01 -0.28856397615E+02  0.33778509344E+02  0.10566000000E+00 0. -1.
         13    1    4    4    0    0  0.19598431196E+01 -0.10326467587E+01 -0.79898009890E+02  0.79928783882E+02  0.10566000000E+00 0. -1.
        -13    1    4    4    0    0  0.67120988108E+01 -0.38322134927E+01 -0.23048721906E+03  0.23061679784E+03  0.10566000000E+00 0.  1.
        -14    1    4    4    0    0  0.59979922316E+01 -0.47828274423E+01 -0.21587936453E+03  0.21601562763E+03  0.00000000000E+00 0.  1.
<mgrwt>
<rscale>  0 0.76297350E+02</rscale>
<asrwt>0</asrwt>
<pdfrwt beam="1">  1        1 0.40144103E-03 0.76297350E+02</pdfrwt>
<pdfrwt beam="2">  1       -2 0.85804575E-01 0.76297350E+02</pdfrwt>
<totfact> 0.52209546E+04</totfact>
</mgrwt>
</event>
<event>
 8    1  0.1372337E-024  0.7876023E+02  0.7818608E-02  0.1332607E+00
          1   -1    0    0  501    0  0.00000000000E+00  0.00000000000E+00  0.73637983404E+02  0.73637983577E+02  0.50400000000E-02 0. -1.
         -2   -1    0    0    0  501 -0.00000000000E+00 -0.00000000000E+00 -0.21059694047E+02  0.21059694201E+02  0.25500000000E-02 0.  1.
        -24    2    1    2    0    0  0.35527136788E-14  0.00000000000E+00  0.52578289357E+02  0.94697677778E+02  0.78760228953E+02 0.  0.
         66    2    3    3    0    0  0.23417741672E+02 -0.85349655453E+01 -0.10312534259E+02  0.27047821007E+02  0.19999991294E+01 0.  0.
         13    1    3    3    0    0 -0.23417741672E+02  0.85349655453E+01  0.62890823617E+02  0.67649856771E+02  0.10566000000E+00 0. -1.
         13    1    4    4    0    0  0.34431241928E+01 -0.15482700789E+01 -0.10372803018E+01  0.39165493619E+01  0.10566000000E+00 0. -1.
        -13    1    4    4    0    0  0.47980084231E+01 -0.13803732681E+01 -0.25904353824E+01  0.56256408251E+01  0.10566000000E+00 0.  1.
         14    1    4    4    0    0  0.15176609056E+02 -0.56063221983E+01 -0.66848185750E+01  0.17505630820E+02  0.00000000000E+00 0. -1.
<mgrwt>
<rscale>  0 0.78760229E+02</rscale>
<asrwt>0</asrwt>
<pdfrwt beam="1">  1        1 0.11328920E-01 0.78760229E+02</pdfrwt>
<pdfrwt beam="2">  1       -2 0.32399530E-02 0.78760229E+02</pdfrwt>
<totfact> 0.14591576E+05</totfact>
</mgrwt>
</event>
<event>
 8    1  0.1372337E-024  0.7909830E+02  0.7818608E-02  0.1331630E+00
          1   -1    0    0  501    0  0.00000000000E+00  0.00000000000E+00  0.43848730143E+01  0.43848759109E+01  0.50400000000E-02 0. -1.
         -2   -1    0    0    0  501 -0.00000000000E+00 -0.00000000000E+00 -0.35671148718E+03  0.35671148718E+03  0.25500000000E-02 0.  1.
        -24    2    1    2    0    0  0.00000000000E+00  0.00000000000E+00 -0.35232661416E+03  0.36109636310E+03  0.79098295775E+02 0.  0.
         66    2    3    3    0    0 -0.17494097668E+02 -0.20187118950E+01 -0.33780820597E+03  0.33827282280E+03  0.19999944403E+01 0.  0.
         13    1    3    3    0    0  0.17494097668E+02  0.20187118950E+01 -0.14518408193E+02  0.22823540291E+02  0.10566000000E+00 0. -1.
         13    1    4    4    0    0 -0.15275746966E+01  0.25710530003E+00 -0.31297959449E+02  0.31336448703E+02  0.10566000000E+00 0. -1.
        -13    1    4    4    0    0 -0.15749693183E+02 -0.23764982675E+01 -0.30230431042E+03  0.30272364930E+03  0.10566000000E+00 0.  1.
        -14    1    4    4    0    0 -0.21682978800E+00  0.10068107251E+00 -0.42059360945E+01  0.42127248031E+01  0.00000000000E+00 0.  1.
<mgrwt>
<rscale>  0 0.79098296E+02</rscale>
<asrwt>0</asrwt>
<pdfrwt beam="1">  1        1 0.67459636E-03 0.79098296E+02</pdfrwt>
<pdfrwt beam="2">  1       -2 0.54878667E-01 0.79098296E+02</pdfrwt>
<totfact> 0.65462658E+04</totfact>
</mgrwt>
</event>
<event>
 8    1  0.1372337E-024  0.7843766E+02  0.7818608E-02  0.1333544E+00
          1   -1    0    0  501    0  0.00000000000E+00  0.00000000000E+00  0.22354980103E+03  0.22354980109E+03  0.50400000000E-02 0. -1.
         -2   -1    0    0    0  501 -0.00000000000E+00 -0.00000000000E+00 -0.68804210338E+01  0.68804215064E+01  0.25500000000E-02 0.  1.
        -24    2    1    2    0    0 -0.35527136788E-14  0.35527136788E-14  0.21666938000E+03  0.23043022260E+03  0.78437664782E+02 0.  0.
         66    2    3    3    0    0  0.30649916440E+02 -0.22274072094E+02  0.78945256753E+02  0.87589412765E+02  0.19999998135E+01 0.  0.
         13    1    3    3    0    0 -0.30649916440E+02  0.22274072094E+02  0.13772412325E+03  0.14284080983E+03  0.10566000000E+00 0. -1.
         13    1    4    4    0    0  0.15319217844E+02 -0.10407455869E+02  0.38258330585E+02  0.42505347855E+02  0.10566000000E+00 0. -1.
        -13    1    4    4    0    0  0.74814676606E+01 -0.57283253235E+01  0.18471357667E+02  0.20736158937E+02  0.10566000000E+00 0.  1.
         14    1    4    4    0    0  0.78492309346E+01 -0.61382909018E+01  0.22215568501E+02  0.24347905974E+02  0.00000000000E+00 0. -1.
<mgrwt>
<rscale>  0 0.78437665E+02</rscale>
<asrwt>0</asrwt>
<pdfrwt beam="1">  1        1 0.34392276E-01 0.78437665E+02</pdfrwt>
<pdfrwt beam="2">  1       -2 0.10585264E-02 0.78437665E+02</pdfrwt>
<totfact> 0.17952417E+05</totfact>
</mgrwt>
</event>
<event>
 8    1  0.1372337E-024  0.8016256E+02  0.7818608E-02  0.1328591E+00
         -2   -1    0    0    0  501 -0.00000000000E+00  0.00000000000E+00  0.57019576543E+02  0.57019576600E+02  0.25500000000E-02 0.  1.
          1   -1    0    0  501    0  0.00000000000E+00 -0.00000000000E+00 -0.28174690812E+02  0.28174691263E+02  0.50400000000E-02 0. -1.
        -24    2    1    2    0    0  0.00000000000E+00  0.17763568394E-14  0.28844885731E+02  0.85194267863E+02  0.80162558866E+02 0.  0.
         66    2    3    3    0    0 -0.25476604691E+02  0.14733407800E+02  0.43310039291E+02  0.52401242332E+02  0.20000006343E+01 0.  0.
         13    1    3    3    0    0  0.25476604691E+02 -0.14733407800E+02 -0.14465153560E+02  0.32793025532E+02  0.10566000000E+00 0. -1.
         13    1    4    4    0    0 -0.55659059941E+01  0.33573232620E+01  0.10225225258E+02  0.12116819906E+02  0.10566000000E+00 0.  1.
        -13    1    4    4    0    0 -0.55738579216E+01  0.39703923987E+01  0.95848815964E+01  0.11777649476E+02  0.10566000000E+00 0.  1.
        -14    1    4    4    0    0 -0.14336840775E+02  0.74056921397E+01  0.23499932436E+02  0.28506772949E+02  0.00000000000E+00 0.  1.
<mgrwt>
<rscale>  0 0.80162559E+02</rscale>
<asrwt>0</asrwt>
<pdfrwt beam="1">  1        1 0.43345679E-02 0.80162559E+02</pdfrwt>
<pdfrwt beam="2">  1       -2 0.87722426E-02 0.80162559E+02</pdfrwt>
<totfact> 0.11889517E+05</totfact>
</mgrwt>
</event>
<event>
 8    1  0.1372337E-024  0.7977119E+02  0.7818608E-02  0.1329702E+00
         -2   -1    0    0    0  501 -0.00000000000E+00  0.00000000000E+00  0.40312071666E+01  0.40312079732E+01  0.25500000000E-02 0.  1.
          1   -1    0    0  501    0  0.00000000000E+00 -0.00000000000E+00 -0.39463623195E+03  0.39463623198E+03  0.50400000000E-02 0. -1.
        -24    2    1    2    0    0  0.71054273576E-14 -0.71054273576E-14 -0.39060502478E+03  0.39866743996E+03  0.79771187120E+02 0.  0.
         66    2    3    3    0    0  0.20597810881E+02 -0.32775636219E+02 -0.24292706682E+03  0.24600014623E+03  0.20000015813E+01 0.  0.
         13    1    3    3    0    0 -0.20597810881E+02  0.32775636219E+02 -0.14767795796E+03  0.15266729373E+03  0.10566000000E+00 0. -1.
         13    1    4    4    0    0  0.32437310184E+00 -0.62573239649E+00 -0.38625389297E+01  0.39277385300E+01  0.10566000000E+00 0.  1.
        -13    1    4    4    0    0  0.70911782720E+00 -0.10878755722E+01 -0.66261330391E+01  0.67530085473E+01  0.10566000000E+00 0.  1.
         14    1    4    4    0    0  0.19564319952E+02 -0.31062028250E+02 -0.23243839486E+03  0.23531939915E+03  0.00000000000E+00 0. -1.
<mgrwt>
<rscale>  0 0.79771187E+02</rscale>
<asrwt>0</asrwt>
<pdfrwt beam="1">  1        1 0.60713236E-01 0.79771187E+02</pdfrwt>
<pdfrwt beam="2">  1       -2 0.62018609E-03 0.79771187E+02</pdfrwt>
<totfact> 0.19094458E+05</totfact>
</mgrwt>
</event>
<event>
 8    1  0.1372337E-024  0.7940279E+02  0.7818608E-02  0.1330755E+00
         -2   -1    0    0    0  501 -0.00000000000E+00  0.00000000000E+00  0.10720816847E+03  0.10720816850E+03  0.25500000000E-02 0.  1.
          1   -1    0    0  501    0  0.00000000000E+00 -0.00000000000E+00 -0.14702244996E+02  0.14702245860E+02  0.50400000000E-02 0. -1.
        -24    2    1    2    0    0  0.00000000000E+00 -0.35527136788E-14  0.92505923472E+02  0.12191041436E+03  0.79402791209E+02 0.  0.
         66    2    3    3    0    0 -0.21439967389E+01 -0.23850550957E+02  0.94852203314E+02  0.97848791469E+02  0.20000038482E+01 0.  0.
         13    1    3    3    0    0  0.21439967389E+01  0.23850550957E+02 -0.23462798427E+01  0.24061622890E+02  0.10566000000E+00 0. -1.
         13    1    4    4    0    0 -0.10743557761E+01 -0.81310303738E+01  0.31233085029E+02  0.32292176447E+02  0.10566000000E+00 0. -1.
        -13    1    4    4    0    0 -0.12996132085E+00 -0.11305920391E+02  0.45240743610E+02  0.46632357567E+02  0.10566000000E+00 0.  1.
         14    1    4    4    0    0 -0.93967964195E+00 -0.44136001921E+01  0.18378374675E+02  0.18924257454E+02  0.00000000000E+00 0. -1.
<mgrwt>
<rscale>  0 0.79402791E+02</rscale>
<asrwt>0</asrwt>
<pdfrwt beam="1">  1        1 0.22618839E-02 0.79402791E+02</pdfrwt>
<pdfrwt beam="2">  1       -2 0.16493565E-01 0.79402791E+02</pdfrwt>
<totfact> 0.10628936E+05</totfact>
</mgrwt>
</event>
<event>
 8    1  0.1372337E-024  0.7988494E+02  0.7818608E-02  0.1329378E+00
         -2   -1    0    0    0  501 -0.00000000000E+00  0.00000000000E+00  0.48955402724E+02  0.48955402790E+02  0.25500000000E-02 0.  1.
          1   -1    0    0  501    0  0.00000000000E+00 -0.00000000000E+00 -0.32588865587E+02  0.32588865976E+02  0.50400000000E-02 0. -1.
        -24    2    1    2    0    0  0.00000000000E+00  0.00000000000E+00  0.16366537137E+02  0.81544268767E+02  0.79884943705E+02 0.  0.
         66    2    3    3    0    0  0.35677423768E+02 -0.87667752151E+01  0.24122268543E+02  0.43995667620E+02  0.20000038357E+01 0.  0.
         13    1    3    3    0    0 -0.35677423768E+02  0.87667752151E+01 -0.77557314051E+01  0.37548601146E+02  0.10566000000E+00 0. -1.
         13    1    4    4    0    0  0.20311597058E+01 -0.64046636271E+00  0.18326194368E+01  0.28116658671E+01  0.10566000000E+00 0. -1.
        -13    1    4    4    0    0  0.28189264107E+02 -0.71528687797E+01  0.18972634348E+02  0.34724201371E+02  0.10566000000E+00 0.  1.
        -14    1    4    4    0    0  0.54569999546E+01 -0.97344007268E+00  0.33170147577E+01  0.64598003826E+01  0.00000000000E+00 0.  1.
<mgrwt>
<rscale>  0 0.79884944E+02</rscale>
<asrwt>0</asrwt>
<pdfrwt beam="1">  1        1 0.50136717E-02 0.79884944E+02</pdfrwt>
<pdfrwt beam="2">  1       -2 0.75316004E-02 0.79884944E+02</pdfrwt>
<totfact> 0.12321256E+05</totfact>
</mgrwt>
</event>
<event>
 8    1  0.1372337E-024  0.8665797E+02  0.7818608E-02  0.1311153E+00
          1   -1    0    0  501    0  0.00000000000E+00  0.00000000000E+00  0.92545971693E+02  0.92545971831E+02  0.50400000000E-02 0. -1.
         -2   -1    0    0    0  501 -0.00000000000E+00 -0.00000000000E+00 -0.20286144783E+02  0.20286144943E+02  0.25500000000E-02 0.  1.
        -24    2    1    2    0    0  0.00000000000E+00  0.00000000000E+00  0.72259826910E+02  0.11283211677E+03  0.86657971305E+02 0.  0.
         66    2    3    3    0    0  0.39302721729E+02 -0.11412064052E+02  0.17714466366E+02  0.44640132919E+02  0.20000017926E+01 0.  0.
         13    1    3    3    0    0 -0.39302721729E+02  0.11412064052E+02  0.54545360544E+02  0.68191983855E+02  0.10566000000E+00 0. -1.
         13    1    4    4    0    0  0.24342728058E+01 -0.79964100233E+00  0.89293575956E+00  0.27154388470E+01  0.10566000000E+00 0.  1.
        -13    1    4    4    0    0  0.19916885264E+02 -0.56605436697E+01  0.81716340189E+01  0.22260072773E+02  0.10566000000E+00 0.  1.
        -14    1    4    4    0    0  0.16951563658E+02 -0.49518793796E+01  0.86498965878E+01  0.19664621299E+02  0.00000000000E+00 0.  1.
<mgrwt>
<rscale>  0 0.86657971E+02</rscale>
<asrwt>0</asrwt>
<pdfrwt beam="1">  1        1 0.14237842E-01 0.86657971E+02</pdfrwt>
<pdfrwt beam="2">  1       -2 0.31209453E-02 0.86657971E+02</pdfrwt>
<totfact> 0.11670428E+05</totfact>
</mgrwt>
</event>
<event>
 8    1  0.1372337E-024  0.7799124E+02  0.7818608E-02  0.1334851E+00
         -2   -1    0    0    0  501 -0.00000000000E+00  0.00000000000E+00  0.38473649201E+02  0.38473649285E+02  0.25500000000E-02 0.  1.
          1   -1    0    0  501    0  0.00000000000E+00 -0.00000000000E+00 -0.39524674520E+02  0.39524674842E+02  0.50400000000E-02 0. -1.
        -24    2    1    2    0    0 -0.88817841970E-15 -0.71054273576E-14 -0.10510253198E+01  0.77998324127E+02  0.77991242536E+02 0.  0.
         66    2    3    3    0    0 -0.68315577326E+01  0.37640652626E+02 -0.79538221979E+01  0.39124828273E+02  0.19999971614E+01 0.  0.
         13    1    3    3    0    0  0.68315577326E+01 -0.37640652626E+02  0.69027968781E+01  0.38873495854E+02  0.10566000000E+00 0. -1.
         13    1    4    4    0    0 -0.13904547830E+01  0.57754569830E+01 -0.17552773381E+01  0.61952748474E+01  0.10566000000E+00 0. -1.
        -13    1    4    4    0    0 -0.40324892255E+00  0.36283665230E+01 -0.50119038801E+00  0.36864629606E+01  0.10566000000E+00 0.  1.
        -14    1    4    4    0    0 -0.50378540270E+01  0.28236829120E+02 -0.56973544719E+01  0.29243090465E+02  0.00000000000E+00 0.  1.
<mgrwt>
<rscale>  0 0.77991243E+02</rscale>
<asrwt>0</asrwt>
<pdfrwt beam="1">  1        1 0.60807192E-02 0.77991243E+02</pdfrwt>
<pdfrwt beam="2">  1       -2 0.59190230E-02 0.77991243E+02</pdfrwt>
<totfact> 0.13612527E+05</totfact>
</mgrwt>
</event>
<event>
 8    1  0.1372337E-024  0.8262290E+02  0.7818608E-02  0.1321769E+00
          1   -1    0    0  501    0  0.00000000000E+00  0.00000000000E+00  0.17733730503E+03  0.17733730510E+03  0.50400000000E-02 0. -1.
         -2   -1    0    0    0  501 -0.00000000000E+00 -0.00000000000E+00 -0.96236707041E+01  0.96236710420E+01  0.25500000000E-02 0.  1.
        -24    2    1    2    0    0  0.00000000000E+00  0.00000000000E+00  0.16771363432E+03  0.18696097614E+03  0.82622899136E+02 0.  0.
         66    2    3    3    0    0 -0.26833726353E+02 -0.11882061342E+02  0.18190442626E+02  0.34585032269E+02  0.20000005951E+01 0.  0.
         13    1    3    3    0    0  0.26833726353E+02  0.11882061342E+02  0.14952319170E+03  0.15237594387E+03  0.10566000000E+00 0. -1.
         13    1    4    4    0    0 -0.49499435243E+01 -0.22258799385E+01  0.24910474299E+01  0.59726848006E+01  0.10566000000E+00 0. -1.
        -13    1    4    4    0    0 -0.82998481962E+01 -0.36343993273E+01  0.60320988097E+01  0.10885482012E+02  0.10566000000E+00 0.  1.
         14    1    4    4    0    0 -0.13583934632E+02 -0.60217820765E+01  0.96672963868E+01  0.17726865456E+02  0.00000000000E+00 0. -1.
<mgrwt>
<rscale>  0 0.82622899E+02</rscale>
<asrwt>0</asrwt>
<pdfrwt beam="1">  1        1 0.27282664E-01 0.82622899E+02</pdfrwt>
<pdfrwt beam="2">  1       -2 0.14805647E-02 0.82622899E+02</pdfrwt>
<totfact> 0.14948846E+05</totfact>
</mgrwt>
</event>
<event>
 8    1  0.1372337E-024  0.8342674E+02  0.7818608E-02  0.1319599E+00
         -2   -1    0    0    0  501 -0.00000000000E+00  0.00000000000E+00  0.50682426016E+02  0.50682426081E+02  0.25500000000E-02 0.  1.
          1   -1    0    0  501    0  0.00000000000E+00 -0.00000000000E+00 -0.34331527365E+02  0.34331527735E+02  0.50400000000E-02 0. -1.
        -24    2    1    2    0    0  0.00000000000E+00  0.00000000000E+00  0.16350898651E+02  0.85013953816E+02  0.83426737061E+02 0.  0.
         66    2    3    3    0    0 -0.39977165220E+02 -0.92012751494E+01  0.15748615708E+02  0.43986997894E+02  0.19999708948E+01 0.  0.
         13    1    3    3    0    0  0.39977165220E+02  0.92012751494E+01  0.60228294346E+00  0.41026955922E+02  0.10566000000E+00 0. -1.
         13    1    4    4    0    0 -0.26010554741E+01 -0.51484749358E+00  0.84977993316E+00  0.27863681543E+01  0.10566000000E+00 0. -1.
        -13    1    4    4    0    0 -0.32913919841E+02 -0.72938733928E+01  0.13567846673E+02  0.36340395371E+02  0.10566000000E+00 0.  1.
        -14    1    4    4    0    0 -0.44621899056E+01 -0.13925542630E+01  0.13309891019E+01  0.48602343687E+01  0.00000000000E+00 0.  1.
<mgrwt>
<rscale>  0 0.83426737E+02</rscale>
<asrwt>0</asrwt>
<pdfrwt beam="1">  1        1 0.52817735E-02 0.83426737E+02</pdfrwt>
<pdfrwt beam="2">  1       -2 0.77972964E-02 0.83426737E+02</pdfrwt>
<totfact> 0.10981441E+05</totfact>
</mgrwt>
</event>
<event>
 8    1  0.1372337E-024  0.8229885E+02  0.7818608E-02  0.1322651E+00
          1   -1    0    0  501    0  0.00000000000E+00  0.00000000000E+00  0.28263884022E+02  0.28263884471E+02  0.50400000000E-02 0. -1.
         -2   -1    0    0    0  501 -0.00000000000E+00 -0.00000000000E+00 -0.59909498876E+02  0.59909498930E+02  0.25500000000E-02 0.  1.
        -24    2    1    2    0    0  0.00000000000E+00  0.00000000000E+00 -0.31645614854E+02  0.88173383401E+02  0.82298849329E+02 0.  0.
         66    2    3    3    0    0 -0.22264060058E+02  0.97981475580E+01 -0.51358982366E+02  0.56863319707E+02  0.19999981388E+01 0.  0.
         13    1    3    3    0    0  0.22264060058E+02 -0.97981475580E+01  0.19713367512E+02  0.31310063694E+02  0.10566000000E+00 0. -1.
         13    1    4    4    0    0 -0.96312362259E+01  0.36995996616E+01 -0.23307477691E+02  0.25489162977E+02  0.10566000000E+00 0. -1.
        -13    1    4    4    0    0 -0.43933584513E+01  0.23809172962E+01 -0.10672147091E+02  0.11784576921E+02  0.10566000000E+00 0.  1.
         14    1    4    4    0    0 -0.82394653808E+01  0.37176306002E+01 -0.17379357585E+02  0.19589579809E+02  0.00000000000E+00 0. -1.
<mgrwt>
<rscale>  0 0.82298849E+02</rscale>
<asrwt>0</asrwt>
<pdfrwt beam="1">  1        1 0.43482899E-02 0.82298849E+02</pdfrwt>
<pdfrwt beam="2">  1       -2 0.92168460E-02 0.82298849E+02</pdfrwt>
<totfact> 0.11023291E+05</totfact>
</mgrwt>
</event>
<event>
 8    1  0.1372337E-024  0.8051538E+02  0.7818608E-02  0.1327595E+00
         -2   -1    0    0    0  501 -0.00000000000E+00  0.00000000000E+00  0.19634970937E+02  0.19634971103E+02  0.25500000000E-02 0.  1.
          1   -1    0    0  501    0  0.00000000000E+00 -0.00000000000E+00 -0.82540561435E+02  0.82540561589E+02  0.50400000000E-02 0. -1.
        -24    2    1    2    0    0  0.35527136788E-14  0.00000000000E+00 -0.62905590498E+02  0.10217553269E+03  0.80515378438E+02 0.  0.
         66    2    3    3    0    0  0.17511394248E+02 -0.32345625284E+02 -0.52160976529E+02  0.63856525699E+02  0.19999995962E+01 0.  0.
         13    1    3    3    0    0 -0.17511394248E+02  0.32345625284E+02 -0.10744613968E+02  0.38319006992E+02  0.10566000000E+00 0. -1.
         13    1    4    4    0    0  0.90212505394E+00 -0.11722626698E+01 -0.21744268990E+01  0.26319813363E+01  0.10566000000E+00 0. -1.
        -13    1    4    4    0    0  0.57168462663E+01 -0.11849528999E+02 -0.19420934039E+02  0.23457994623E+02  0.10566000000E+00 0.  1.
        -14    1    4    4    0    0  0.10892422928E+02 -0.19323833616E+02 -0.30565615591E+02  0.37766549740E+02  0.00000000000E+00 0.  1.
<mgrwt>
<rscale>  0 0.80515378E+02</rscale>
<asrwt>0</asrwt>
<pdfrwt beam="1">  1        1 0.12698548E-01 0.80515378E+02</pdfrwt>
<pdfrwt beam="2">  1       -2 0.30207648E-02 0.80515378E+02</pdfrwt>
<totfact> 0.13994376E+05</totfact>
</mgrwt>
</event>
<event>
 8    1  0.1372337E-024  0.7825783E+02  0.7818608E-02  0.1334069E+00
         -2   -1    0    0    0  501 -0.00000000000E+00  0.00000000000E+00  0.16105881757E+03  0.16105881759E+03  0.25500000000E-02 0.  1.
          1   -1    0    0  501    0  0.00000000000E+00 -0.00000000000E+00 -0.95062898736E+01  0.95062912097E+01  0.50400000000E-02 0. -1.
        -24    2    1    2    0    0  0.17763568394E-14  0.71054273576E-14  0.15155252769E+03  0.17056510880E+03  0.78257828289E+02 0.  0.
         66    2    3    3    0    0 -0.83582438858E+01 -0.37570473037E+02  0.90873249851E+02  0.98708399934E+02  0.19999984979E+01 0.  0.
         13    1    3    3    0    0  0.83582438858E+01  0.37570473037E+02  0.60679277841E+02  0.71856708862E+02  0.10566000000E+00 0. -1.
         13    1    4    4    0    0 -0.40055504031E+01 -0.15014614329E+02  0.35675261379E+02  0.38912960771E+02  0.10566000000E+00 0. -1.
        -13    1    4    4    0    0 -0.35530222448E+01 -0.16224697174E+02  0.39522457778E+02  0.42870742917E+02  0.10566000000E+00 0.  1.
         14    1    4    4    0    0 -0.79967123789E+00 -0.63311615337E+01  0.15675530695E+02  0.16924696246E+02  0.00000000000E+00 0. -1.
<mgrwt>
<rscale>  0 0.78257828E+02</rscale>
<asrwt>0</asrwt>
<pdfrwt beam="1">  1        1 0.14625062E-02 0.78257828E+02</pdfrwt>
<pdfrwt beam="2">  1       -2 0.24778280E-01 0.78257828E+02</pdfrwt>
<totfact> 0.97651106E+04</totfact>
</mgrwt>
</event>
<event>
 8    1  0.1372337E-024  0.7844354E+02  0.7818608E-02  0.1333527E+00
          1   -1    0    0  501    0  0.00000000000E+00  0.00000000000E+00  0.28618786570E+03  0.28618786575E+03  0.50400000000E-02 0. -1.
         -2   -1    0    0    0  501 -0.00000000000E+00 -0.00000000000E+00 -0.53753046085E+01  0.53753052134E+01  0.25500000000E-02 0.  1.
        -24    2    1    2    0    0 -0.71054273576E-14  0.00000000000E+00  0.28081256109E+03  0.29156317096E+03  0.78443535057E+02 0.  0.
         66    2    3    3    0    0  0.34245370849E+02  0.19058700091E+02  0.14273556218E+03  0.14803182154E+03  0.20000008438E+01 0.  0.
         13    1    3    3    0    0 -0.34245370849E+02 -0.19058700091E+02  0.13807699891E+03  0.14353134942E+03  0.10566000000E+00 0. -1.
         13    1    4    4    0    0  0.32546374946E+01  0.22581187078E+01  0.15249174450E+02  0.15755641871E+02  0.10566000000E+00 0. -1.
        -13    1    4    4    0    0  0.37777044582E+01  0.19293503384E+01  0.16802931933E+02  0.17330410534E+02  0.10566000000E+00 0.  1.
        -14    1    4    4    0    0  0.27213028896E+02  0.14871231045E+02  0.11068345580E+03  0.11494576914E+03  0.00000000000E+00 0.  1.
<mgrwt>
<rscale>  0 0.78443535E+02</rscale>
<asrwt>0</asrwt>
<pdfrwt beam="1">  1        1 0.44028897E-01 0.78443535E+02</pdfrwt>
<pdfrwt beam="2">  1       -2 0.82697009E-03 0.78443535E+02</pdfrwt>
<totfact> 0.18829631E+05</totfact>
</mgrwt>
</event>
<event>
 8    1  0.1372337E-024  0.7959229E+02  0.7818608E-02  0.1330212E+00
         -2   -1    0    0    0  501 -0.00000000000E+00  0.00000000000E+00  0.15269786196E+03  0.15269786198E+03  0.25500000000E-02 0.  1.
          1   -1    0    0  501    0  0.00000000000E+00 -0.00000000000E+00 -0.10371677475E+02  0.10371678700E+02  0.50400000000E-02 0. -1.
        -24    2    1    2    0    0  0.11102230246E-15 -0.35527136788E-14  0.14232618448E+03  0.16306954068E+03  0.79592287993E+02 0.  0.
         66    2    3    3    0    0 -0.56026823488E+00  0.21834111579E+02  0.13930384437E+03  0.14101986874E+03  0.19999983903E+01 0.  0.
         13    1    3    3    0    0  0.56026823488E+00 -0.21834111579E+02  0.30223401126E+01  0.22049671942E+02  0.10566000000E+00 0. -1.
         13    1    4    4    0    0 -0.64274752378E-01  0.58791410100E+01  0.34845928322E+02  0.35338623557E+02  0.10566000000E+00 0. -1.
        -13    1    4    4    0    0 -0.77511750803E+00  0.72326567711E+01  0.44197808027E+02  0.44792516446E+02  0.10566000000E+00 0.  1.
        -14    1    4    4    0    0  0.27912402552E+00  0.87223137978E+01  0.60260108023E+02  0.60888728736E+02  0.00000000000E+00 0.  1.
<mgrwt>
<rscale>  0 0.79592288E+02</rscale>
<asrwt>0</asrwt>
<pdfrwt beam="1">  1        1 0.15956429E-02 0.79592288E+02</pdfrwt>
<pdfrwt beam="2">  1       -2 0.23491978E-01 0.79592288E+02</pdfrwt>
<totfact> 0.95198459E+04</totfact>
</mgrwt>
</event>
<event>
 8    1  0.1372337E-024  0.8016306E+02  0.7818608E-02  0.1328589E+00
          1   -1    0    0  501    0  0.00000000000E+00  0.00000000000E+00  0.19978480376E+03  0.19978480382E+03  0.50400000000E-02 0. -1.
         -2   -1    0    0    0  501 -0.00000000000E+00 -0.00000000000E+00 -0.80412971873E+01  0.80412975916E+01  0.25500000000E-02 0.  1.
        -24    2    1    2    0    0  0.88817841970E-15 -0.71054273576E-14  0.19174350657E+03  0.20782610141E+03  0.80163059550E+02 0.  0.
         66    2    3    3    0    0 -0.73934335602E+01  0.35798450029E+02  0.53463226420E+02  0.64795898565E+02  0.20000018132E+01 0.  0.
         13    1    3    3    0    0  0.73934335602E+01 -0.35798450029E+02  0.13828028015E+03  0.14303020285E+03  0.10566000000E+00 0. -1.
         13    1    4    4    0    0 -0.21359309742E+01  0.12587057765E+02  0.19718691861E+02  0.23491151463E+02  0.10566000000E+00 0. -1.
        -13    1    4    4    0    0 -0.19099143952E+01  0.95861675499E+01  0.13155098166E+02  0.16389330465E+02  0.10566000000E+00 0.  1.
        -14    1    4    4    0    0 -0.33475881908E+01  0.13625224714E+02  0.20589436394E+02  0.24915416637E+02  0.00000000000E+00 0.  1.
<mgrwt>
<rscale>  0 0.80163060E+02</rscale>
<asrwt>0</asrwt>
<pdfrwt beam="1">  1        1 0.30736119E-01 0.80163060E+02</pdfrwt>
<pdfrwt beam="2">  1       -2 0.12371229E-02 0.80163060E+02</pdfrwt>
<totfact> 0.16580549E+05</totfact>
</mgrwt>
</event>
<event>
 8    1  0.1372337E-024  0.7824736E+02  0.7818608E-02  0.1334100E+00
         -2   -1    0    0    0  501 -0.00000000000E+00  0.00000000000E+00  0.32034198133E+01  0.32034208283E+01  0.25500000000E-02 0.  1.
          1   -1    0    0  501    0  0.00000000000E+00 -0.00000000000E+00 -0.47782128141E+03  0.47782128143E+03  0.50400000000E-02 0. -1.
        -24    2    1    2    0    0  0.00000000000E+00  0.00000000000E+00 -0.47461786159E+03  0.48102470226E+03  0.78247361887E+02 0.  0.
         66    2    3    3    0    0 -0.94447163810E+01 -0.37931536062E+02 -0.24243246273E+03  0.24557178827E+03  0.20000288972E+01 0.  0.
         13    1    3    3    0    0  0.94447163810E+01  0.37931536062E+02 -0.23218539887E+03  0.23545291399E+03  0.10566000000E+00 0. -1.
         13    1    4    4    0    0 -0.28011442277E+01 -0.13436993602E+02 -0.80833965358E+02  0.81991099063E+02  0.10566000000E+00 0. -1.
        -13    1    4    4    0    0 -0.35388310955E+01 -0.12086856635E+02 -0.78839436137E+02  0.79839108733E+02  0.10566000000E+00 0.  1.
        -14    1    4    4    0    0 -0.31047410578E+01 -0.12407685824E+02 -0.82759061232E+02  0.83741580475E+02  0.00000000000E+00 0.  1.
<mgrwt>
<rscale>  0 0.78247362E+02</rscale>
<asrwt>0</asrwt>
<pdfrwt beam="1">  1        1 0.73510910E-01 0.78247362E+02</pdfrwt>
<pdfrwt beam="2">  1       -2 0.49283428E-03 0.78247362E+02</pdfrwt>
<totfact> 0.20663144E+05</totfact>
</mgrwt>
</event>
<event>
 8    1  0.1372337E-024  0.7939583E+02  0.7818608E-02  0.1330775E+00
          1   -1    0    0  501    0  0.00000000000E+00  0.00000000000E+00  0.17583144837E+02  0.17583145560E+02  0.50400000000E-02 0. -1.
         -2   -1    0    0    0  501 -0.00000000000E+00 -0.00000000000E+00 -0.89626993401E+02  0.89626993437E+02  0.25500000000E-02 0.  1.
        -24    2    1    2    0    0  0.00000000000E+00  0.00000000000E+00 -0.72043848564E+02  0.10721013900E+03  0.79395829789E+02 0.  0.
         66    2    3    3    0    0  0.68912489139E+01 -0.11956893235E+02 -0.86269946950E+02  0.87389703917E+02  0.19999991700E+01 0.  0.
         13    1    3    3    0    0 -0.68912489139E+01  0.11956893235E+02  0.14226098386E+02  0.19820435080E+02  0.10566000000E+00 0. -1.
         13    1    4    4    0    0  0.11206363923E+01 -0.26161996107E+01 -0.19928043815E+02  0.20130534535E+02  0.10566000000E+00 0. -1.
        -13    1    4    4    0    0  0.54231782239E+01 -0.83289529175E+01 -0.57494540917E+02  0.58347371132E+02  0.10566000000E+00 0.  1.
        -14    1    4    4    0    0  0.34743429770E+00 -0.10117407070E+01 -0.88473622177E+01  0.89117982507E+01  0.00000000000E+00 0.  1.
<mgrwt>
<rscale>  0 0.79395830E+02</rscale>
<asrwt>0</asrwt>
<pdfrwt beam="1">  1        1 0.27050993E-02 0.79395830E+02</pdfrwt>
<pdfrwt beam="2">  1       -2 0.13788768E-01 0.79395830E+02</pdfrwt>
<totfact> 0.11108342E+05</totfact>
</mgrwt>
</event>
<event>
 8    1  0.1372337E-024  0.7831523E+02  0.7818608E-02  0.1333902E+00
          1   -1    0    0  501    0  0.00000000000E+00  0.00000000000E+00  0.27980035585E+01  0.27980080977E+01  0.50400000000E-02 0. -1.
         -2   -1    0    0    0  501 -0.00000000000E+00 -0.00000000000E+00 -0.54800414370E+03  0.54800414371E+03  0.25500000000E-02 0.  1.
        -24    2    1    2    0    0  0.00000000000E+00  0.17763568394E-14 -0.54520614014E+03  0.55080215181E+03  0.78315229576E+02 0.  0.
         66    2    3    3    0    0  0.22336551849E+02  0.13159481932E+02 -0.47893906652E+03  0.47964437132E+03  0.19999962900E+01 0.  0.
         13    1    3    3    0    0 -0.22336551849E+02 -0.13159481932E+02 -0.66267073621E+02  0.71157780485E+02  0.10566000000E+00 0. -1.
         13    1    4    4    0    0  0.17102151801E+01  0.72166534907E+00 -0.33776361252E+02  0.33827494443E+02  0.10566000000E+00 0. -1.
        -13    1    4    4    0    0  0.93716517774E+01  0.51229829883E+01 -0.18485120343E+03  0.18515952955E+03  0.10566000000E+00 0.  1.
        -14    1    4    4    0    0  0.11254684891E+02  0.73148335943E+01 -0.26031150184E+03  0.26065734732E+03  0.00000000000E+00 0.  1.
<mgrwt>
<rscale>  0 0.78315230E+02</rscale>
<asrwt>0</asrwt>
<pdfrwt beam="1">  1        1 0.43046287E-03 0.78315230E+02</pdfrwt>
<pdfrwt beam="2">  1       -2 0.84308244E-01 0.78315230E+02</pdfrwt>
<totfact> 0.49519064E+04</totfact>
</mgrwt>
</event>
<event>
 8    1  0.1372337E-024  0.7914511E+02  0.7818608E-02  0.1331495E+00
          1   -1    0    0  501    0  0.00000000000E+00  0.00000000000E+00  0.19315849452E+02  0.19315850109E+02  0.50400000000E-02 0. -1.
         -2   -1    0    0    0  501 -0.00000000000E+00 -0.00000000000E+00 -0.81072650110E+02  0.81072650150E+02  0.25500000000E-02 0.  1.
        -24    2    1    2    0    0 -0.35527136788E-14  0.00000000000E+00 -0.61756800659E+02  0.10038850026E+03  0.79145110757E+02 0.  0.
         66    2    3    3    0    0  0.19183892774E+02  0.12811640344E+02 -0.71641939025E+02  0.75290950682E+02  0.19999892592E+01 0.  0.
         13    1    3    3    0    0 -0.19183892774E+02 -0.12811640344E+02  0.98851383664E+01  0.25097549578E+02  0.10566000000E+00 0. -1.
         13    1    4    4    0    0  0.10374493188E+01  0.74415025858E+00 -0.31761300313E+01  0.34247666647E+01  0.10566000000E+00 0. -1.
        -13    1    4    4    0    0  0.88969081513E+00  0.52766686163E+00 -0.24009941024E+01  0.26164706722E+01  0.10566000000E+00 0.  1.
        -14    1    4    4    0    0  0.17256752640E+02  0.11539823224E+02 -0.66064814891E+02  0.69249713345E+02  0.00000000000E+00 0.  1.
<mgrwt>
<rscale>  0 0.79145111E+02</rscale>
<asrwt>0</asrwt>
<pdfrwt beam="1">  1        1 0.29716693E-02 0.79145111E+02</pdfrwt>
<pdfrwt beam="2">  1       -2 0.12472715E-01 0.79145111E+02</pdfrwt>
<totfact> 0.11453140E+05</totfact>
</mgrwt>
</event>
<event>
 8    1  0.1372337E-024  0.8076603E+02  0.7818608E-02  0.1326892E+00
         -2   -1    0    0    0  501 -0.00000000000E+00  0.00000000000E+00  0.59062756766E+01  0.59062762270E+01  0.25500000000E-02 0.  1.
          1   -1    0    0  501    0  0.00000000000E+00 -0.00000000000E+00 -0.27611099835E+03  0.27611099840E+03  0.50400000000E-02 0. -1.
        -24    2    1    2    0    0 -0.35527136788E-14  0.00000000000E+00 -0.27020472267E+03  0.28201727462E+03  0.80766026464E+02 0.  0.
         66    2    3    3    0    0 -0.29922112617E+02 -0.19825484057E+02 -0.70761839225E+02  0.79370148900E+02  0.20000010899E+01 0.  0.
         13    1    3    3    0    0  0.29922112617E+02  0.19825484057E+02 -0.19944288345E+03  0.20264712572E+03  0.10566000000E+00 0. -1.
         13    1    4    4    0    0 -0.98857133603E+01 -0.60731280404E+01 -0.21166714512E+02  0.24138168533E+02  0.10566000000E+00 0. -1.
        -13    1    4    4    0    0 -0.75730277504E+01 -0.54813654632E+01 -0.18826746865E+02  0.21020315844E+02  0.10566000000E+00 0.  1.
         14    1    4    4    0    0 -0.12463371506E+02 -0.82709905536E+01 -0.30768377848E+02  0.34211664523E+02  0.00000000000E+00 0. -1.
<mgrwt>
<rscale>  0 0.80766026E+02</rscale>
<asrwt>0</asrwt>
<pdfrwt beam="1">  1        1 0.42478605E-01 0.80766026E+02</pdfrwt>
<pdfrwt beam="2">  1       -2 0.90865805E-03 0.80766026E+02</pdfrwt>
<totfact> 0.17314589E+05</totfact>
</mgrwt>
</event>
<event>
 8    1  0.1372337E-024  0.7693100E+02  0.7818608E-02  0.1337994E+00
          1   -1    0    0  501    0  0.00000000000E+00  0.00000000000E+00  0.62997206343E+02  0.62997206545E+02  0.50400000000E-02 0. -1.
         -2   -1    0    0    0  501 -0.00000000000E+00 -0.00000000000E+00 -0.23486670073E+02  0.23486670212E+02  0.25500000000E-02 0.  1.
        -24    2    1    2    0    0  0.35527136788E-14  0.00000000000E+00  0.39510536270E+02  0.86483876756E+02  0.76930998060E+02 0.  0.
         66    2    3    3    0    0 -0.25749145339E+02  0.15325052482E+02 -0.72984514903E+01  0.30905389745E+02  0.20000004715E+01 0.  0.
         13    1    3    3    0    0  0.25749145339E+02 -0.15325052482E+02  0.46808987760E+02  0.55578487011E+02  0.10566000000E+00 0. -1.
         13    1    4    4    0    0 -0.88290773184E+01  0.57692986953E+01 -0.20452133050E+01  0.10743904096E+02  0.10566000000E+00 0. -1.
        -13    1    4    4    0    0 -0.81097905202E+01  0.43695828719E+01 -0.19407600616E+01  0.94148643330E+01  0.10566000000E+00 0.  1.
        -14    1    4    4    0    0 -0.88102775003E+01  0.51861709150E+01 -0.33124781238E+01  0.10746621316E+02  0.00000000000E+00 0.  1.
<mgrwt>
<rscale>  0 0.76930998E+02</rscale>
<asrwt>0</asrwt>
<pdfrwt beam="1">  1        1 0.96918780E-02 0.76930998E+02</pdfrwt>
<pdfrwt beam="2">  1       -2 0.36133339E-02 0.76930998E+02</pdfrwt>
<totfact> 0.15186943E+05</totfact>
</mgrwt>
</event>
<event>
 8    1  0.1372337E-024  0.7960123E+02  0.7818608E-02  0.1330187E+00
         -2   -1    0    0    0  501 -0.00000000000E+00  0.00000000000E+00  0.53648336513E+02  0.53648336573E+02  0.25500000000E-02 0.  1.
          1   -1    0    0  501    0  0.00000000000E+00 -0.00000000000E+00 -0.29527267575E+02  0.29527268005E+02  0.50400000000E-02 0. -1.
        -24    2    1    2    0    0  0.71054273576E-14 -0.44408920985E-15  0.24121068938E+02  0.83175604578E+02  0.79601226311E+02 0.  0.
         66    2    3    3    0    0  0.36993586404E+02 -0.22257336158E+01  0.27159823256E+02  0.45990600652E+02  0.20000059775E+01 0.  0.
         13    1    3    3    0    0 -0.36993586404E+02  0.22257336158E+01 -0.30387543179E+01  0.37185003926E+02  0.10566000000E+00 0. -1.
         13    1    4    4    0    0  0.71424493758E+01 -0.16208812632E-01  0.56481378662E+01  0.91064521743E+01  0.10566000000E+00 0. -1.
        -13    1    4    4    0    0  0.11008934610E+02 -0.51599299541E+00  0.72452746560E+01  0.13189695178E+02  0.10566000000E+00 0.  1.
         14    1    4    4    0    0  0.18842202418E+02 -0.16935318078E+01  0.14266410734E+02  0.23694453300E+02  0.00000000000E+00 0. -1.
<mgrwt>
<rscale>  0 0.79601226E+02</rscale>
<asrwt>0</asrwt>
<pdfrwt beam="1">  1        1 0.45426566E-02 0.79601226E+02</pdfrwt>
<pdfrwt beam="2">  1       -2 0.82535903E-02 0.79601226E+02</pdfrwt>
<totfact> 0.12235322E+05</totfact>
</mgrwt>
</event>
<event>
 8    1  0.1372337E-024  0.7833185E+02  0.7818608E-02  0.1333853E+00
         -2   -1    0    0    0  501 -0.00000000000E+00  0.00000000000E+00  0.23833673430E+03  0.23833673432E+03  0.25500000000E-02 0.  1.
          1   -1    0    0  501    0  0.00000000000E+00 -0.00000000000E+00 -0.64361435131E+01  0.64361454865E+01  0.50400000000E-02 0. -1.
        -24    2    1    2    0    0  0.00000000000E+00  0.00000000000E+00  0.23190059079E+03  0.24477287980E+03  0.78331849706E+02 0.  0.
         66    2    3    3    0    0 -0.26458982738E+01 -0.17623058800E+02  0.22491976557E+03  0.22563349465E+03  0.19999963402E+01 0.  0.
         13    1    3    3    0    0  0.26458982738E+01  0.17623058800E+02  0.69808252175E+01  0.19139385149E+02  0.10566000000E+00 0. -1.
         13    1    4    4    0    0  0.16414957662E+00 -0.39047270568E+00  0.53766750407E+01  0.53943685957E+01  0.10566000000E+00 0. -1.
        -13    1    4    4    0    0 -0.30220182654E+00 -0.49218223174E+01  0.61908043914E+02  0.62104208603E+02  0.10566000000E+00 0.  1.
        -14    1    4    4    0    0 -0.25078460239E+01 -0.12310763777E+02  0.15763504662E+03  0.15813491745E+03  0.00000000000E+00 0.  1.
<mgrwt>
<rscale>  0 0.78331850E+02</rscale>
<asrwt>0</asrwt>
<pdfrwt beam="1">  1        1 0.99017603E-03 0.78331850E+02</pdfrwt>
<pdfrwt beam="2">  1       -2 0.36667192E-01 0.78331850E+02</pdfrwt>
<totfact> 0.83267614E+04</totfact>
</mgrwt>
</event>
<event>
 8    1  0.1372337E-024  0.7627594E+02  0.7818608E-02  0.1339965E+00
          1   -1    0    0  501    0  0.00000000000E+00  0.00000000000E+00  0.82314285206E+02  0.82314285360E+02  0.50400000000E-02 0. -1.
         -2   -1    0    0    0  501 -0.00000000000E+00 -0.00000000000E+00 -0.17670135489E+02  0.17670135673E+02  0.25500000000E-02 0.  1.
        -24    2    1    2    0    0  0.00000000000E+00  0.00000000000E+00  0.64644149717E+02  0.99984421033E+02  0.76275935633E+02 0.  0.
         66    2    3    3    0    0 -0.44711970533E+01  0.32347801003E+02  0.65863404524E+01  0.33372918922E+02  0.20000010012E+01 0.  0.
         13    1    3    3    0    0  0.44711970533E+01 -0.32347801003E+02  0.58057809264E+02  0.66611502111E+02  0.10566000000E+00 0. -1.
         13    1    4    4    0    0  0.25591094978E-01  0.17054298474E+01  0.24472435019E+00  0.17263255520E+01  0.10566000000E+00 0. -1.
        -13    1    4    4    0    0 -0.19825461331E+01  0.17939106334E+02  0.33757893270E+01  0.18361621466E+02  0.10566000000E+00 0.  1.
        -14    1    4    4    0    0 -0.25142420152E+01  0.12703264822E+02  0.29658267752E+01  0.13284971904E+02  0.00000000000E+00 0.  1.
<mgrwt>
<rscale>  0 0.76275936E+02</rscale>
<asrwt>0</asrwt>
<pdfrwt beam="1">  1        1 0.12663736E-01 0.76275936E+02</pdfrwt>
<pdfrwt beam="2">  1       -2 0.27184824E-02 0.76275936E+02</pdfrwt>
<totfact> 0.16199024E+05</totfact>
</mgrwt>
</event>
<event>
 8    1  0.1372337E-024  0.8021688E+02  0.7818608E-02  0.1328437E+00
         -2   -1    0    0    0  501 -0.00000000000E+00  0.00000000000E+00  0.27015281811E+02  0.27015281931E+02  0.25500000000E-02 0.  1.
          1   -1    0    0  501    0  0.00000000000E+00 -0.00000000000E+00 -0.59547299892E+02  0.59547300105E+02  0.50400000000E-02 0. -1.
        -24    2    1    2    0    0  0.00000000000E+00  0.00000000000E+00 -0.32532018081E+02  0.86562582036E+02  0.80216883562E+02 0.  0.
         66    2    3    3    0    0 -0.11370206783E+02 -0.57325438953E+01  0.24737609990E+02  0.27894318680E+02  0.20000011940E+01 0.  0.
         13    1    3    3    0    0  0.11370206783E+02  0.57325438953E+01 -0.57269628071E+02  0.58668263356E+02  0.10566000000E+00 0. -1.
         13    1    4    4    0    0 -0.17411649100E+01 -0.11260745651E+01  0.28294522637E+01  0.35095104100E+01  0.10566000000E+00 0. -1.
        -13    1    4    4    0    0 -0.82356451219E+01 -0.42538995225E+01  0.19023284164E+02  0.21161711087E+02  0.10566000000E+00 0.  1.
        -14    1    4    4    0    0 -0.13933967514E+01 -0.35256980765E+00  0.28848735624E+01  0.32230971823E+01  0.00000000000E+00 0.  1.
<mgrwt>
<rscale>  0 0.80216884E+02</rscale>
<asrwt>0</asrwt>
<pdfrwt beam="1">  1        1 0.91611231E-02 0.80216884E+02</pdfrwt>
<pdfrwt beam="2">  1       -2 0.41561972E-02 0.80216884E+02</pdfrwt>
<totfact> 0.13421831E+05</totfact>
</mgrwt>
</event>
<event>
 8    1  0.1372337E-024  0.8169856E+02  0.7818608E-02  0.1324299E+00
         -2   -1    0    0    0  501 -0.00000000000E+00  0.00000000000E+00  0.52220309645E+02  0.52220309707E+02  0.25500000000E-02 0.  1.
          1   -1    0    0  501    0  0.00000000000E+00 -0.00000000000E+00 -0.31954305439E+02  0.31954305836E+02  0.50400000000E-02 0. -1.
        -24    2    1    2    0    0 -0.35527136788E-14  0.17763568394E-14  0.20266004206E+02  0.84174615544E+02  0.81698561648E+02 0.  0.
         66    2    3    3    0    0  0.29836826548E+02 -0.11998139246E+02  0.36050150654E+02  0.48350852383E+02  0.20000000451E+01 0.  0.
         13    1    3    3    0    0 -0.29836826548E+02  0.11998139246E+02 -0.15784146448E+02  0.35823763160E+02  0.10566000000E+00 0. -1.
         13    1    4    4    0    0  0.11362150323E+02 -0.43921246167E+01  0.12827140356E+02  0.17689994696E+02  0.10566000000E+00 0. -1.
        -13    1    4    4    0    0  0.64803564623E+01 -0.20410667081E+01  0.80923753108E+01  0.10566866867E+02  0.10566000000E+00 0.  1.
         14    1    4    4    0    0  0.11994319763E+02 -0.55649479210E+01  0.15130634987E+02  0.20093990820E+02  0.00000000000E+00 0. -1.
<mgrwt>
<rscale>  0 0.81698562E+02</rscale>
<asrwt>0</asrwt>
<pdfrwt beam="1">  1        1 0.49160471E-02 0.81698562E+02</pdfrwt>
<pdfrwt beam="2">  1       -2 0.80338937E-02 0.81698562E+02</pdfrwt>
<totfact> 0.11514274E+05</totfact>
</mgrwt>
</event>
<event>
 8    1  0.1372337E-024  0.8040450E+02  0.7818608E-02  0.1327907E+00
         -2   -1    0    0    0  501 -0.00000000000E+00  0.00000000000E+00  0.74487330576E+01  0.74487334941E+01  0.25500000000E-02 0.  1.
          1   -1    0    0  501    0  0.00000000000E+00 -0.00000000000E+00 -0.21697932176E+03  0.21697932182E+03  0.50400000000E-02 0. -1.
        -24    2    1    2    0    0  0.17763568394E-14  0.00000000000E+00 -0.20953058871E+03  0.22442805532E+03  0.80404504908E+02 0.  0.
         66    2    3    3    0    0  0.91841501646E+01 -0.39054385259E+02 -0.98828766268E+02  0.10668045119E+03  0.20000004943E+01 0.  0.
         13    1    3    3    0    0 -0.91841501646E+01  0.39054385259E+02 -0.11070182244E+03  0.11774760413E+03  0.10566000000E+00 0. -1.
         13    1    4    4    0    0  0.51284093000E+01 -0.18728142668E+02 -0.48736778985E+02  0.52462640990E+02  0.10566000000E+00 0. -1.
        -13    1    4    4    0    0  0.97450457245E+00 -0.69014754833E+01 -0.16631206174E+02  0.18032975513E+02  0.10566000000E+00 0. -1.
        -14    1    4    4    0    0  0.30812362922E+01 -0.13424767108E+02 -0.33460781109E+02  0.36184834688E+02  0.00000000000E+00 0.  1.
<mgrwt>
<rscale>  0 0.80404505E+02</rscale>
<asrwt>0</asrwt>
<pdfrwt beam="1">  1        1 0.33381430E-01 0.80404505E+02</pdfrwt>
<pdfrwt beam="2">  1       -2 0.11459591E-02 0.80404505E+02</pdfrwt>
<totfact> 0.16715436E+05</totfact>
</mgrwt>
</event>
<event>
 8    1  0.1372337E-024  0.8322001E+02  0.7818608E-02  0.1320154E+00
         -2   -1    0    0    0  501 -0.00000000000E+00  0.00000000000E+00  0.15933019863E+03  0.15933019865E+03  0.25500000000E-02 0.  1.
          1   -1    0    0  501    0  0.00000000000E+00 -0.00000000000E+00 -0.10866692940E+02  0.10866694109E+02  0.50400000000E-02 0. -1.
        -24    2    1    2    0    0  0.17763568394E-14  0.00000000000E+00  0.14846350569E+03  0.17019689276E+03  0.83220008310E+02 0.  0.
         66    2    3    3    0    0  0.97374555415E+01  0.39633948289E+02  0.90599771056E+02  0.99388059643E+02  0.19999966995E+01 0.  0.
         13    1    3    3    0    0 -0.97374555415E+01 -0.39633948289E+02  0.57863734630E+02  0.70808833113E+02  0.10566000000E+00 0. -1.
         13    1    4    4    0    0  0.57544433767E+01  0.26235451711E+02  0.58318966398E+02  0.64206896442E+02  0.10566000000E+00 0. -1.
        -13    1    4    4    0    0  0.11169206889E+01  0.38120967917E+01  0.97396340447E+01  0.10519088798E+02  0.10566000000E+00 0.  1.
        -14    1    4    4    0    0  0.28660914758E+01  0.95863997868E+01  0.22541170613E+02  0.24662074403E+02  0.00000000000E+00 0.  1.
<mgrwt>
<rscale>  0 0.83220008E+02</rscale>
<asrwt>0</asrwt>
<pdfrwt beam="1">  1        1 0.16717991E-02 0.83220008E+02</pdfrwt>
<pdfrwt beam="2">  1       -2 0.24512338E-01 0.83220008E+02</pdfrwt>
<totfact> 0.83656528E+04</totfact>
</mgrwt>
</event>
<event>
 8    1  0.1372337E-024  0.8286514E+02  0.7818608E-02  0.1321112E+00
          1   -1    0    0  501    0  0.00000000000E+00  0.00000000000E+00  0.12071837596E+03  0.12071837606E+03  0.50400000000E-02 0. -1.
         -2   -1    0    0    0  501 -0.00000000000E+00 -0.00000000000E+00 -0.14220351358E+02  0.14220351587E+02  0.25500000000E-02 0.  1.
        -24    2    1    2    0    0  0.00000000000E+00  0.00000000000E+00  0.10649802460E+03  0.13493872765E+03  0.82865137278E+02 0.  0.
         66    2    3    3    0    0 -0.73726798524E+01  0.20685126677E+02 -0.38869301370E+01  0.22390603409E+02  0.20000053185E+01 0.  0.
         13    1    3    3    0    0  0.73726798524E+01 -0.20685126677E+02  0.11038495474E+03  0.11254812424E+03  0.10566000000E+00 0. -1.
         13    1    4    4    0    0 -0.36151640930E+01  0.10822376766E+02 -0.11464218041E+01  0.11468160152E+02  0.10566000000E+00 0. -1.
        -13    1    4    4    0    0 -0.12184852534E+01  0.39355587745E+01 -0.12097887068E+01  0.42951230403E+01  0.10566000000E+00 0.  1.
         14    1    4    4    0    0 -0.25390305061E+01  0.59271911365E+01 -0.15307196261E+01  0.66273202166E+01  0.00000000000E+00 0. -1.
<mgrwt>
<rscale>  0 0.82865137E+02</rscale>
<asrwt>0</asrwt>
<pdfrwt beam="1">  1        1 0.18572058E-01 0.82865137E+02</pdfrwt>
<pdfrwt beam="2">  1       -2 0.21877464E-02 0.82865137E+02</pdfrwt>
<totfact> 0.13809448E+05</totfact>
</mgrwt>
</event>
<event>
 8    1  0.1372337E-024  0.7080437E+02  0.7818608E-02  0.1357379E+00
          1   -1    0    0  501    0  0.00000000000E+00  0.00000000000E+00  0.72559912323E+01  0.72559929827E+01  0.50400000000E-02 0. -1.
         -2   -1    0    0    0  501 -0.00000000000E+00 -0.00000000000E+00 -0.17272822948E+03  0.17272822950E+03  0.25500000000E-02 0.  1.
        -24    2    1    2    0    0 -0.35527136788E-14  0.00000000000E+00 -0.16547223825E+03  0.17998422248E+03  0.70804369297E+02 0.  0.
         66    2    3    3    0    0 -0.20769530286E+02  0.15686258054E+02 -0.14369729347E+03  0.14604911582E+03  0.20000003374E+01 0.  0.
         13    1    3    3    0    0  0.20769530286E+02 -0.15686258054E+02 -0.21774944781E+02  0.33935106664E+02  0.10566000000E+00 0. -1.
         13    1    4    4    0    0 -0.12906184175E+01  0.13358766106E+01 -0.95325070647E+01  0.97123692883E+01  0.10566000000E+00 0. -1.
        -13    1    4    4    0    0 -0.38205824730E+01  0.31638695277E+01 -0.24720480045E+02  0.25213492787E+02  0.10566000000E+00 0.  1.
        -14    1    4    4    0    0 -0.15658329396E+02  0.11186511916E+02 -0.10944430636E+03  0.11112325374E+03  0.00000000000E+00 0.  1.
<mgrwt>
<rscale>  0 0.70804369E+02</rscale>
<asrwt>0</asrwt>
<pdfrwt beam="1">  1        1 0.11163066E-02 0.70804369E+02</pdfrwt>
<pdfrwt beam="2">  1       -2 0.26573571E-01 0.70804369E+02</pdfrwt>
<totfact> 0.12310965E+05</totfact>
</mgrwt>
</event>
<event>
 8    1  0.1372337E-024  0.7984955E+02  0.7818608E-02  0.1329479E+00
         -2   -1    0    0    0  501 -0.00000000000E+00  0.00000000000E+00  0.13400437296E+03  0.13400437298E+03  0.25500000000E-02 0.  1.
          1   -1    0    0  501    0  0.00000000000E+00 -0.00000000000E+00 -0.11895041966E+02  0.11895043034E+02  0.50400000000E-02 0. -1.
        -24    2    1    2    0    0 -0.35527136788E-14  0.00000000000E+00  0.12210933099E+03  0.14589941601E+03  0.79849551523E+02 0.  0.
         66    2    3    3    0    0  0.19058738556E+02  0.23524348501E+02  0.10857674788E+03  0.11273659862E+03  0.20000001067E+01 0.  0.
         13    1    3    3    0    0 -0.19058738556E+02 -0.23524348501E+02  0.13532583107E+02  0.33162817392E+02  0.10566000000E+00 0. -1.
         13    1    4    4    0    0  0.43807761660E+01  0.57642331988E+01  0.28636725847E+02  0.29537955506E+02  0.10566000000E+00 0. -1.
        -13    1    4    4    0    0  0.92783337444E+01  0.10633836408E+02  0.48316382671E+02  0.50335374760E+02  0.10566000000E+00 0.  1.
         14    1    4    4    0    0  0.53996286457E+01  0.71262788944E+01  0.31623639366E+02  0.32863268357E+02  0.00000000000E+00 0. -1.
<mgrwt>
<rscale>  0 0.79849552E+02</rscale>
<asrwt>0</asrwt>
<pdfrwt beam="1">  1        1 0.18300065E-02 0.79849552E+02</pdfrwt>
<pdfrwt beam="2">  1       -2 0.20616058E-01 0.79849552E+02</pdfrwt>
<totfact> 0.98412078E+04</totfact>
</mgrwt>
</event>
<event>
 8    1  0.1372337E-024  0.8025252E+02  0.7818608E-02  0.1328336E+00
          1   -1    0    0  501    0  0.00000000000E+00  0.00000000000E+00  0.84699364344E+01  0.84699379339E+01  0.50400000000E-02 0. -1.
         -2   -1    0    0    0  501 -0.00000000000E+00 -0.00000000000E+00 -0.19009782996E+03  0.19009782997E+03  0.25500000000E-02 0.  1.
        -24    2    1    2    0    0  0.00000000000E+00  0.35527136788E-14 -0.18162789352E+03  0.19856776791E+03  0.80252518630E+02 0.  0.
         66    2    3    3    0    0  0.35854786491E+02  0.14918800593E+02 -0.11561001765E+03  0.12197463882E+03  0.20000018833E+01 0.  0.
         13    1    3    3    0    0 -0.35854786491E+02 -0.14918800593E+02 -0.66017875868E+02  0.76593129089E+02  0.10566000000E+00 0. -1.
         13    1    4    4    0    0  0.13290563607E+02  0.54893744130E+01 -0.45380949551E+02  0.47604769284E+02  0.10566000000E+00 0. -1.
        -13    1    4    4    0    0  0.10361473122E+02  0.42672479599E+01 -0.33413425190E+02  0.35242554921E+02  0.10566000000E+00 0.  1.
        -14    1    4    4    0    0  0.12202749762E+02  0.51621782197E+01 -0.36815642912E+02  0.39127314612E+02  0.00000000000E+00 0.  1.
<mgrwt>
<rscale>  0 0.80252519E+02</rscale>
<asrwt>0</asrwt>
<pdfrwt beam="1">  1        1 0.13030674E-02 0.80252519E+02</pdfrwt>
<pdfrwt beam="2">  1       -2 0.29245817E-01 0.80252519E+02</pdfrwt>
<totfact> 0.86111433E+04</totfact>
</mgrwt>
</event>
<event>
 8    1  0.1372337E-024  0.8077836E+02  0.7818608E-02  0.1326857E+00
          1   -1    0    0  501    0  0.00000000000E+00  0.00000000000E+00  0.46809673580E+02  0.46809673851E+02  0.50400000000E-02 0. -1.
         -2   -1    0    0    0  501 -0.00000000000E+00 -0.00000000000E+00 -0.34849331795E+02  0.34849331888E+02  0.25500000000E-02 0.  1.
        -24    2    1    2    0    0 -0.71054273576E-14 -0.17763568394E-14  0.11960341785E+02  0.81659005739E+02  0.80778359990E+02 0.  0.
         66    2    3    3    0    0  0.34666592293E+02  0.10672858245E+02 -0.11917942638E+02  0.38232445256E+02  0.19999973029E+01 0.  0.
         13    1    3    3    0    0 -0.34666592293E+02 -0.10672858245E+02  0.23878284423E+02  0.43426560483E+02  0.10566000000E+00 0. -1.
         13    1    4    4    0    0  0.87350106336E+01  0.22852952931E+01 -0.24530003117E+01  0.93568883669E+01  0.10566000000E+00 0. -1.
        -13    1    4    4    0    0  0.22551898330E+02  0.69366330149E+01 -0.84173221432E+01  0.25051296812E+02  0.10566000000E+00 0.  1.
        -14    1    4    4    0    0  0.33796833295E+01  0.14509299372E+01 -0.10476201830E+01  0.38242600773E+01  0.00000000000E+00 0.  1.
<mgrwt>
<rscale>  0 0.80778360E+02</rscale>
<asrwt>0</asrwt>
<pdfrwt beam="1">  1        1 0.72014883E-02 0.80778360E+02</pdfrwt>
<pdfrwt beam="2">  1       -2 0.53614357E-02 0.80778360E+02</pdfrwt>
<totfact> 0.12673510E+05</totfact>
</mgrwt>
</event>
<event>
 8    1  0.1372337E-024  0.7880953E+02  0.7818608E-02  0.1332464E+00
         -2   -1    0    0    0  501 -0.00000000000E+00  0.00000000000E+00  0.20464725678E+02  0.20464725837E+02  0.25500000000E-02 0.  1.
          1   -1    0    0  501    0  0.00000000000E+00 -0.00000000000E+00 -0.75873748329E+02  0.75873748496E+02  0.50400000000E-02 0. -1.
        -24    2    1    2    0    0  0.00000000000E+00 -0.88817841970E-15 -0.55409022651E+02  0.96338474333E+02  0.78809528901E+02 0.  0.
         66    2    3    3    0    0  0.38171399958E+02 -0.74315286660E+01 -0.35302020991E+02  0.52559643000E+02  0.19999982950E+01 0.  0.
         13    1    3    3    0    0 -0.38171399958E+02  0.74315286660E+01 -0.20107001661E+02  0.43778831333E+02  0.10566000000E+00 0. -1.
         13    1    4    4    0    0  0.99633420747E+01 -0.19918239365E+01 -0.10195027456E+02  0.14393932637E+02  0.10566000000E+00 0. -1.
        -13    1    4    4    0    0  0.15134759851E+02 -0.34084462676E+01 -0.13449448698E+02  0.20532347553E+02  0.10566000000E+00 0.  1.
        -14    1    4    4    0    0  0.13073298032E+02 -0.20312584618E+01 -0.11657544837E+02  0.17633362810E+02  0.00000000000E+00 0.  1.
<mgrwt>
<rscale>  0 0.78809529E+02</rscale>
<asrwt>0</asrwt>
<pdfrwt beam="1">  1        1 0.11672884E-01 0.78809529E+02</pdfrwt>
<pdfrwt beam="2">  1       -2 0.31484194E-02 0.78809529E+02</pdfrwt>
<totfact> 0.14635679E+05</totfact>
</mgrwt>
</event>
<event>
 8    1  0.1372337E-024  0.7711998E+02  0.7818608E-02  0.1337429E+00
          1   -1    0    0  501    0  0.00000000000E+00  0.00000000000E+00  0.18073276192E+03  0.18073276199E+03  0.50400000000E-02 0. -1.
         -2   -1    0    0    0  501 -0.00000000000E+00 -0.00000000000E+00 -0.82269144312E+01  0.82269148264E+01  0.25500000000E-02 0.  1.
        -24    2    1    2    0    0 -0.35527136788E-14 -0.17763568394E-14  0.17250584748E+03  0.18895967681E+03  0.77119984730E+02 0.  0.
         66    2    3    3    0    0 -0.31399799360E+02 -0.10212121185E+02  0.37636544888E+02  0.50107328018E+02  0.19999977477E+01 0.  0.
         13    1    3    3    0    0  0.31399799360E+02  0.10212121185E+02  0.13486930260E+03  0.13885234880E+03  0.10566000000E+00 0. -1.
         13    1    4    4    0    0 -0.13179535820E+02 -0.41165446152E+01  0.16647017099E+02  0.21628232621E+02  0.10566000000E+00 0. -1.
        -13    1    4    4    0    0 -0.17639747477E+02 -0.59412125109E+01  0.20596637355E+02  0.27761327986E+02  0.10566000000E+00 0.  1.
         14    1    4    4    0    0 -0.58051606364E+00 -0.15436405880E+00  0.39289043405E+00  0.71776741077E+00  0.00000000000E+00 0. -1.
<mgrwt>
<rscale>  0 0.77119985E+02</rscale>
<asrwt>0</asrwt>
<pdfrwt beam="1">  1        1 0.27805039E-01 0.77119985E+02</pdfrwt>
<pdfrwt beam="2">  1       -2 0.12656792E-02 0.77119985E+02</pdfrwt>
<totfact> 0.18022854E+05</totfact>
</mgrwt>
</event>
<event>
 8    1  0.1372337E-024  0.8247586E+02  0.7818608E-02  0.1322169E+00
          1   -1    0    0  501    0  0.00000000000E+00  0.00000000000E+00  0.52497435906E+02  0.52497436148E+02  0.50400000000E-02 0. -1.
         -2   -1    0    0    0  501 -0.00000000000E+00 -0.00000000000E+00 -0.32393331894E+02  0.32393331994E+02  0.25500000000E-02 0.  1.
        -24    2    1    2    0    0  0.00000000000E+00  0.00000000000E+00  0.20104104012E+02  0.84890768142E+02  0.82475860211E+02 0.  0.
         66    2    3    3    0    0 -0.29528726707E+01 -0.40263816671E+02  0.15287288191E+01  0.40450357281E+02  0.20000006174E+01 0.  0.
         13    1    3    3    0    0  0.29528726707E+01  0.40263816671E+02  0.18575375192E+02  0.44440410861E+02  0.10566000000E+00 0. -1.
         13    1    4    4    0    0 -0.19213148284E+01 -0.15837047906E+02  0.12033654273E+01  0.15998837127E+02  0.10566000000E+00 0. -1.
        -13    1    4    4    0    0 -0.57902583724E+00 -0.13552500764E+02  0.11106449212E+00  0.13565730619E+02  0.10566000000E+00 0.  1.
         14    1    4    4    0    0 -0.45253200509E+00 -0.10874268001E+02  0.21429889974E+00  0.10885789535E+02  0.00000000000E+00 0. -1.
<mgrwt>
<rscale>  0 0.82475860E+02</rscale>
<asrwt>0</asrwt>
<pdfrwt beam="1">  1        1 0.80765286E-02 0.82475860E+02</pdfrwt>
<pdfrwt beam="2">  1       -2 0.49835895E-02 0.82475860E+02</pdfrwt>
<totfact> 0.12180407E+05</totfact>
</mgrwt>
</event>
<event>
 8    1  0.1372337E-024  0.7908790E+02  0.7818608E-02  0.1331660E+00
          1   -1    0    0  501    0  0.00000000000E+00  0.00000000000E+00  0.42350774757E+02  0.42350775057E+02  0.50400000000E-02 0. -1.
         -2   -1    0    0    0  501 -0.00000000000E+00 -0.00000000000E+00 -0.36923152278E+02  0.36923152366E+02  0.25500000000E-02 0.  1.
        -24    2    1    2    0    0  0.00000000000E+00  0.00000000000E+00  0.54276224782E+01  0.79273927423E+02  0.79087903521E+02 0.  0.
         66    2    3    3    0    0  0.15968839303E+02  0.99659278426E+01 -0.32113787399E+02  0.37277592273E+02  0.19999995359E+01 0.  0.
         13    1    3    3    0    0 -0.15968839303E+02 -0.99659278426E+01  0.37541409877E+02  0.41996335150E+02  0.10566000000E+00 0. -1.
         13    1    4    4    0    0  0.23795866511E+01  0.20186392429E+01 -0.55847922557E+01  0.63983127149E+01  0.10566000000E+00 0. -1.
        -13    1    4    4    0    0  0.78525457735E+01  0.53696966546E+01 -0.16094117090E+02  0.18695664905E+02  0.10566000000E+00 0.  1.
        -14    1    4    4    0    0  0.57367068780E+01  0.25775919452E+01 -0.10434878053E+02  0.12183614653E+02  0.00000000000E+00 0.  1.
<mgrwt>
<rscale>  0 0.79087904E+02</rscale>
<asrwt>0</asrwt>
<pdfrwt beam="1">  1        1 0.65155039E-02 0.79087904E+02</pdfrwt>
<pdfrwt beam="2">  1       -2 0.56804850E-02 0.79087904E+02</pdfrwt>
<totfact> 0.13233911E+05</totfact>
</mgrwt>
</event>
<event>
 8    1  0.1372337E-024  0.8041013E+02  0.7818608E-02  0.1327892E+00
          1   -1    0    0  501    0  0.00000000000E+00  0.00000000000E+00  0.32730755228E+02  0.32730755616E+02  0.50400000000E-02 0. -1.
         -2   -1    0    0    0  501 -0.00000000000E+00 -0.00000000000E+00 -0.49386182819E+02  0.49386182884E+02  0.25500000000E-02 0.  1.
        -24    2    1    2    0    0  0.00000000000E+00  0.35527136788E-14 -0.16655427590E+02  0.82116938501E+02  0.80410125734E+02 0.  0.
         66    2    3    3    0    0 -0.26399426812E+02  0.22514105802E+02 -0.29026924473E+02  0.45281089180E+02  0.19999992254E+01 0.  0.
         13    1    3    3    0    0  0.26399426812E+02 -0.22514105802E+02  0.12371496882E+02  0.36835849321E+02  0.10566000000E+00 0. -1.
         13    1    4    4    0    0 -0.81195949706E+01  0.57949671152E+01 -0.80885282338E+01  0.12843088389E+02  0.10566000000E+00 0. -1.
        -13    1    4    4    0    0 -0.66939400816E+01  0.61406219158E+01 -0.78724742586E+01  0.12020943653E+02  0.10566000000E+00 0.  1.
         14    1    4    4    0    0 -0.11585891760E+02  0.10578516771E+02 -0.13065921980E+02  0.20417057137E+02  0.00000000000E+00 0. -1.
<mgrwt>
<rscale>  0 0.80410126E+02</rscale>
<asrwt>0</asrwt>
<pdfrwt beam="1">  1        1 0.50355008E-02 0.80410126E+02</pdfrwt>
<pdfrwt beam="2">  1       -2 0.75978743E-02 0.80410126E+02</pdfrwt>
<totfact> 0.12101765E+05</totfact>
</mgrwt>
</event>
<event>
 8    1  0.1372337E-024  0.7963348E+02  0.7818608E-02  0.1330095E+00
         -2   -1    0    0    0  501 -0.00000000000E+00  0.00000000000E+00  0.56807668339E+02  0.56807668397E+02  0.25500000000E-02 0.  1.
          1   -1    0    0  501    0  0.00000000000E+00 -0.00000000000E+00 -0.27907727772E+02  0.27907728227E+02  0.50400000000E-02 0. -1.
        -24    2    1    2    0    0  0.00000000000E+00  0.00000000000E+00  0.28899940568E+02  0.84715396623E+02  0.79633484542E+02 0.  0.
         66    2    3    3    0    0  0.27914141934E+02  0.28286936131E+02  0.12326660067E+02  0.41656891468E+02  0.19999956864E+01 0.  0.
         13    1    3    3    0    0 -0.27914141934E+02 -0.28286936131E+02  0.16573280501E+02  0.43058505155E+02  0.10566000000E+00 0. -1.
         13    1    4    4    0    0  0.18202318607E+02  0.17935013309E+02  0.77679703548E+01  0.26708456199E+02  0.10566000000E+00 0. -1.
        -13    1    4    4    0    0  0.68702316733E+01  0.69338711400E+01  0.26808171058E+01  0.10123072489E+02  0.10566000000E+00 0.  1.
         14    1    4    4    0    0  0.28415916542E+01  0.34180516828E+01  0.18778726066E+01  0.48253627804E+01  0.00000000000E+00 0. -1.
<mgrwt>
<rscale>  0 0.79633485E+02</rscale>
<asrwt>0</asrwt>
<pdfrwt beam="1">  1        1 0.42934967E-02 0.79633485E+02</pdfrwt>
<pdfrwt beam="2">  1       -2 0.87396412E-02 0.79633485E+02</pdfrwt>
<totfact> 0.12098184E+05</totfact>
</mgrwt>
</event>
<event>
 8    1  0.1372337E-024  0.8204742E+02  0.7818608E-02  0.1323340E+00
         -2   -1    0    0    0  501 -0.00000000000E+00  0.00000000000E+00  0.12691626435E+02  0.12691626691E+02  0.25500000000E-02 0.  1.
          1   -1    0    0  501    0  0.00000000000E+00 -0.00000000000E+00 -0.13260276975E+03  0.13260276984E+03  0.50400000000E-02 0. -1.
        -24    2    1    2    0    0  0.17763568394E-14 -0.17763568394E-14 -0.11991114331E+03  0.14529439653E+03  0.82047421494E+02 0.  0.
         66    2    3    3    0    0 -0.15312632949E+02  0.15338041277E+02  0.16390518850E+01  0.21827018841E+02  0.20000055878E+01 0.  0.
         13    1    3    3    0    0  0.15312632949E+02 -0.15338041277E+02 -0.12155019520E+03  0.12346737769E+03  0.10566000000E+00 0. -1.
         13    1    4    4    0    0 -0.62635668531E+01  0.62657204693E+01  0.60528672691E+00  0.88808253434E+01  0.10566000000E+00 0.  1.
        -13    1    4    4    0    0 -0.31228535756E+01  0.32494602557E+01 -0.35812295555E+00  0.45222364483E+01  0.10566000000E+00 0. -1.
         14    1    4    4    0    0 -0.59262125202E+01  0.58228605517E+01  0.13918881137E+01  0.84239570488E+01  0.00000000000E+00 0. -1.
<mgrwt>
<rscale>  0 0.82047421E+02</rscale>
<asrwt>0</asrwt>
<pdfrwt beam="1">  1        1 0.20400425E-01 0.82047421E+02</pdfrwt>
<pdfrwt beam="2">  1       -2 0.19525580E-02 0.82047421E+02</pdfrwt>
<totfact> 0.14425309E+05</totfact>
</mgrwt>
</event>
<event>
 8    1  0.1372337E-024  0.7998632E+02  0.7818608E-02  0.1329090E+00
          1   -1    0    0  501    0  0.00000000000E+00  0.00000000000E+00  0.25151759004E+02  0.25151759509E+02  0.50400000000E-02 0. -1.
         -2   -1    0    0    0  501 -0.00000000000E+00 -0.00000000000E+00 -0.63592089733E+02  0.63592089785E+02  0.25500000000E-02 0.  1.
        -24    2    1    2    0    0  0.00000000000E+00 -0.88817841970E-15 -0.38440330730E+02  0.88743849293E+02  0.79986322336E+02 0.  0.
         66    2    3    3    0    0 -0.10480515679E+02  0.79195897043E+01 -0.61112732222E+02  0.62540604009E+02  0.20000000302E+01 0.  0.
         13    1    3    3    0    0  0.10480515679E+02 -0.79195897043E+01  0.22672401492E+02  0.26203245285E+02  0.10566000000E+00 0. -1.
         13    1    4    4    0    0 -0.39864428672E+01  0.25813422908E+01 -0.19637340888E+02  0.20203746581E+02  0.10566000000E+00 0. -1.
        -13    1    4    4    0    0 -0.19781077785E+01  0.16604608918E+01 -0.15727242202E+02  0.15938235539E+02  0.10566000000E+00 0.  1.
         14    1    4    4    0    0 -0.45159650330E+01  0.36777865217E+01 -0.25748149132E+02  0.26398621889E+02  0.00000000000E+00 0. -1.
<mgrwt>
<rscale>  0 0.79986322E+02</rscale>
<asrwt>0</asrwt>
<pdfrwt beam="1">  1        1 0.38695015E-02 0.79986322E+02</pdfrwt>
<pdfrwt beam="2">  1       -2 0.97833984E-02 0.79986322E+02</pdfrwt>
<totfact> 0.11714620E+05</totfact>
</mgrwt>
</event>
<event>
 8    1  0.1372337E-024  0.8726139E+02  0.7818608E-02  0.1309622E+00
          1   -1    0    0  501    0  0.00000000000E+00  0.00000000000E+00  0.11974153441E+02  0.11974154502E+02  0.50400000000E-02 0. -1.
         -2   -1    0    0    0  501 -0.00000000000E+00 -0.00000000000E+00 -0.15897888005E+03  0.15897888007E+03  0.25500000000E-02 0.  1.
        -24    2    1    2    0    0  0.00000000000E+00  0.00000000000E+00 -0.14700472661E+03  0.17095303457E+03  0.87261391142E+02 0.  0.
         66    2    3    3    0    0 -0.30403745674E+02 -0.26593781094E+02 -0.10573295203E+03  0.11320368406E+03  0.19999987958E+01 0.  0.
         13    1    3    3    0    0  0.30403745674E+02  0.26593781094E+02 -0.41271774574E+02  0.57749350511E+02  0.10566000000E+00 0. -1.
         13    1    4    4    0    0 -0.90481786706E+01 -0.78271069887E+01 -0.32631868449E+02  0.34756051899E+02  0.10566000000E+00 0. -1.
        -13    1    4    4    0    0 -0.18954326331E+02 -0.16151942633E+02 -0.64710412971E+02  0.69336862118E+02  0.10566000000E+00 0.  1.
         14    1    4    4    0    0 -0.24012406723E+01 -0.26147314727E+01 -0.83906706142E+01  0.91107700441E+01  0.00000000000E+00 0. -1.
<mgrwt>
<rscale>  0 0.87261391E+02</rscale>
<asrwt>0</asrwt>
<pdfrwt beam="1">  1        1 0.18421777E-02 0.87261391E+02</pdfrwt>
<pdfrwt beam="2">  1       -2 0.24458288E-01 0.87261391E+02</pdfrwt>
<totfact> 0.74066289E+04</totfact>
</mgrwt>
</event>
<event>
 8    1  0.1372337E-024  0.8026525E+02  0.7818608E-02  0.1328300E+00
         -2   -1    0    0    0  501 -0.00000000000E+00  0.00000000000E+00  0.18326867181E+03  0.18326867183E+03  0.25500000000E-02 0.  1.
          1   -1    0    0  501    0  0.00000000000E+00 -0.00000000000E+00 -0.87883407647E+01  0.87883422099E+01  0.50400000000E-02 0. -1.
        -24    2    1    2    0    0  0.00000000000E+00  0.00000000000E+00  0.17448033104E+03  0.19205701404E+03  0.80265252253E+02 0.  0.
         66    2    3    3    0    0  0.51401966375E+01  0.33100030200E+02  0.14007592944E+03  0.14403922947E+03  0.19999994943E+01 0.  0.
         13    1    3    3    0    0 -0.51401966375E+01 -0.33100030200E+02  0.34404401607E+02  0.48017784567E+02  0.10566000000E+00 0. -1.
         13    1    4    4    0    0  0.69534494193E+00  0.19518762798E+01  0.82739227219E+01  0.85300812917E+01  0.10566000000E+00 0. -1.
        -13    1    4    4    0    0  0.33484363973E+01  0.21117248871E+02  0.88147669266E+02  0.90703765011E+02  0.10566000000E+00 0.  1.
        -14    1    4    4    0    0  0.10964152983E+01  0.10030905049E+02  0.43654337449E+02  0.44805383167E+02  0.00000000000E+00 0.  1.
<mgrwt>
<rscale>  0 0.80265252E+02</rscale>
<asrwt>0</asrwt>
<pdfrwt beam="1">  1        1 0.13520526E-02 0.80265252E+02</pdfrwt>
<pdfrwt beam="2">  1       -2 0.28195179E-01 0.80265252E+02</pdfrwt>
<totfact> 0.87299986E+04</totfact>
</mgrwt>
</event>
<event>
 8    1  0.1372337E-024  0.7608781E+02  0.7818608E-02  0.1340535E+00
         -2   -1    0    0    0  501 -0.00000000000E+00  0.00000000000E+00  0.16197238552E+03  0.16197238554E+03  0.25500000000E-02 0.  1.
          1   -1    0    0  501    0  0.00000000000E+00 -0.00000000000E+00 -0.89357117158E+01  0.89357131372E+01  0.50400000000E-02 0. -1.
        -24    2    1    2    0    0  0.00000000000E+00  0.71054273576E-14  0.15303667380E+03  0.17090809868E+03  0.76087808908E+02 0.  0.
         66    2    3    3    0    0  0.63350606906E+01  0.27343417633E+02  0.13416914849E+03  0.13708813184E+03  0.20000002868E+01 0.  0.
         13    1    3    3    0    0 -0.63350606906E+01 -0.27343417633E+02  0.18867525313E+02  0.33819966843E+02  0.10566000000E+00 0. -1.
         13    1    4    4    0    0  0.42748167111E+01  0.20793445671E+02  0.98832959895E+02  0.10108712364E+03  0.10566000000E+00 0. -1.
        -13    1    4    4    0    0  0.19383278284E+01  0.55580704631E+01  0.30221810478E+02  0.30789905077E+02  0.10566000000E+00 0.  1.
        -14    1    4    4    0    0  0.12191615107E+00  0.99190149870E+00  0.51143781193E+01  0.52111031153E+01  0.00000000000E+00 0.  1.
<mgrwt>
<rscale>  0 0.76087809E+02</rscale>
<asrwt>0</asrwt>
<pdfrwt beam="1">  1        1 0.13747252E-02 0.76087809E+02</pdfrwt>
<pdfrwt beam="2">  1       -2 0.24918825E-01 0.76087809E+02</pdfrwt>
<totfact> 0.10476496E+05</totfact>
</mgrwt>
</event>
<event>
 8    1  0.1372337E-024  0.7950295E+02  0.7818608E-02  0.1330468E+00
          1   -1    0    0  501    0  0.00000000000E+00  0.00000000000E+00  0.21050792570E+03  0.21050792576E+03  0.50400000000E-02 0. -1.
         -2   -1    0    0    0  501 -0.00000000000E+00 -0.00000000000E+00 -0.75065094191E+01  0.75065098522E+01  0.25500000000E-02 0.  1.
        -24    2    1    2    0    0  0.35527136788E-14  0.00000000000E+00  0.20300141628E+03  0.21801443561E+03  0.79502950406E+02 0.  0.
         66    2    3    3    0    0  0.25798371358E+02 -0.29361080683E+02  0.12106071993E+03  0.12722942635E+03  0.19999991597E+01 0.  0.
         13    1    3    3    0    0 -0.25798371358E+02  0.29361080683E+02  0.81940696350E+02  0.90785009258E+02  0.10566000000E+00 0. -1.
         13    1    4    4    0    0  0.21793353688E+01 -0.29508678448E+01  0.10529851458E+02  0.11151056427E+02  0.10566000000E+00 0. -1.
        -13    1    4    4    0    0  0.12562495205E+02 -0.14329031378E+02  0.57378703472E+02  0.60460435015E+02  0.10566000000E+00 0.  1.
        -14    1    4    4    0    0  0.11056540784E+02 -0.12081181460E+02  0.53152164998E+02  0.55617934909E+02  0.00000000000E+00 0.  1.
<mgrwt>
<rscale>  0 0.79502950E+02</rscale>
<asrwt>0</asrwt>
<pdfrwt beam="1">  1        1 0.32385834E-01 0.79502950E+02</pdfrwt>
<pdfrwt beam="2">  1       -2 0.11548477E-02 0.79502950E+02</pdfrwt>
<totfact> 0.17121392E+05</totfact>
</mgrwt>
</event>
<event>
 8    1  0.1372337E-024  0.7909830E+02  0.7818608E-02  0.1331630E+00
         -2   -1    0    0    0  501 -0.00000000000E+00  0.00000000000E+00  0.62968476427E+03  0.62968476427E+03  0.25500000000E-02 0.  1.
          1   -1    0    0  501    0  0.00000000000E+00 -0.00000000000E+00 -0.24839948812E+01  0.24839999942E+01  0.50400000000E-02 0. -1.
        -24    2    1    2    0    0  0.00000000000E+00  0.71054273576E-14  0.62720076939E+03  0.63216876427E+03  0.79098302105E+02 0.  0.
         66    2    3    3    0    0 -0.15662515699E+02 -0.32127190372E+02  0.44864344869E+03  0.45006934445E+03  0.20000005805E+01 0.  0.
         13    1    3    3    0    0  0.15662515699E+02  0.32127190372E+02  0.17855732070E+03  0.18209941982E+03  0.10566000000E+00 0. -1.
         13    1    4    4    0    0 -0.94860778141E+01 -0.19616729675E+02  0.26727736448E+03  0.26816413347E+03  0.10566000000E+00 0. -1.
        -13    1    4    4    0    0 -0.46564799031E+01 -0.83310220611E+01  0.12202912697E+03  0.12240182893E+03  0.10566000000E+00 0.  1.
         14    1    4    4    0    0 -0.15199579822E+01 -0.41794386354E+01  0.59336957245E+02  0.59503382044E+02  0.00000000000E+00 0. -1.
<mgrwt>
<rscale>  0 0.79098302E+02</rscale>
<asrwt>0</asrwt>
<pdfrwt beam="1">  1        1 0.38215333E-03 0.79098302E+02</pdfrwt>
<pdfrwt beam="2">  1       -2 0.96874611E-01 0.79098302E+02</pdfrwt>
<totfact> 0.42920037E+04</totfact>
</mgrwt>
</event>
<event>
 8    1  0.1372337E-024  0.7323780E+02  0.7818608E-02  0.1349416E+00
         -2   -1    0    0    0  501 -0.00000000000E+00  0.00000000000E+00  0.22533627202E+02  0.22533627346E+02  0.25500000000E-02 0.  1.
          1   -1    0    0  501    0  0.00000000000E+00 -0.00000000000E+00 -0.59508562170E+02  0.59508562384E+02  0.50400000000E-02 0. -1.
        -24    2    1    2    0    0  0.00000000000E+00 -0.17763568394E-14 -0.36974934968E+02  0.82042189730E+02  0.73237798163E+02 0.  0.
         66    2    3    3    0    0  0.22738937245E+02  0.15136127561E+02  0.87727157484E+01  0.28759731691E+02  0.20000001848E+01 0.  0.
         13    1    3    3    0    0 -0.22738937245E+02 -0.15136127561E+02 -0.45747650717E+02  0.53282458039E+02  0.10566000000E+00 0. -1.
         13    1    4    4    0    0  0.10363249291E+02  0.70279615591E+01  0.44230257128E+01  0.13280192018E+02  0.10566000000E+00 0. -1.
        -13    1    4    4    0    0  0.76996481753E+01  0.57459120609E+01  0.30732823936E+01  0.10087433576E+02  0.10566000000E+00 0.  1.
         14    1    4    4    0    0  0.46760397781E+01  0.23622539410E+01  0.12764076421E+01  0.53921060966E+01  0.00000000000E+00 0. -1.
<mgrwt>
<rscale>  0 0.73237798E+02</rscale>
<asrwt>0</asrwt>
<pdfrwt beam="1">  1        1 0.91551634E-02 0.73237798E+02</pdfrwt>
<pdfrwt beam="2">  1       -2 0.34667119E-02 0.73237798E+02</pdfrwt>
<totfact> 0.17217287E+05</totfact>
</mgrwt>
</event>
<event>
 8    1  0.1372337E-024  0.7644678E+02  0.7818608E-02  0.1339448E+00
         -2   -1    0    0    0  501 -0.00000000000E+00  0.00000000000E+00  0.15502844347E+04  0.15502844347E+04  0.25500000000E-02 0.  1.
          1   -1    0    0  501    0  0.00000000000E+00 -0.00000000000E+00 -0.94241883877E+00  0.94243231548E+00  0.50400000000E-02 0. -1.
        -24    2    1    2    0    0  0.00000000000E+00  0.55511151231E-16  0.15493420159E+04  0.15512268670E+04  0.76446784395E+02 0.  0.
         66    2    3    3    0    0  0.10962012248E+02 -0.20536313159E+00  0.15176654052E+04  0.15177063253E+04  0.19999972281E+01 0.  0.
         13    1    3    3    0    0 -0.10962012248E+02  0.20536313159E+00  0.31676610682E+02  0.33520541686E+02  0.10566000000E+00 0. -1.
         13    1    4    4    0    0  0.44155478795E+01  0.60312484223E+00  0.54288034780E+03  0.54289864986E+03  0.10566000000E+00 0. -1.
        -13    1    4    4    0    0  0.43649936197E+01 -0.89227098775E+00  0.66176804508E+03  0.66178305053E+03  0.10566000000E+00 0.  1.
        -14    1    4    4    0    0  0.21814707493E+01  0.83783013923E-01  0.31301701231E+03  0.31302462496E+03  0.00000000000E+00 0.  1.
<mgrwt>
<rscale>  0 0.76446784E+02</rscale>
<asrwt>0</asrwt>
<pdfrwt beam="1">  1        1 0.14498991E-03 0.76446784E+02</pdfrwt>
<pdfrwt beam="2">  1       -2 0.23850306E+00 0.76446784E+02</pdfrwt>
<totfact> 0.15777031E+04</totfact>
</mgrwt>
</event>
<event>
 8    1  0.1372337E-024  0.8022445E+02  0.7818608E-02  0.1328416E+00
         -2   -1    0    0    0  501 -0.00000000000E+00  0.00000000000E+00  0.16907837969E+03  0.16907837971E+03  0.25500000000E-02 0.  1.
          1   -1    0    0  501    0  0.00000000000E+00 -0.00000000000E+00 -0.95162403651E+01  0.95162416998E+01  0.50400000000E-02 0. -1.
        -24    2    1    2    0    0  0.00000000000E+00  0.00000000000E+00  0.15956213933E+03  0.17859462141E+03  0.80224450702E+02 0.  0.
         66    2    3    3    0    0 -0.11105432421E+02  0.36452553458E+02  0.10753436995E+03  0.11410416294E+03  0.19999994648E+01 0.  0.
         13    1    3    3    0    0  0.11105432421E+02 -0.36452553458E+02  0.52027769380E+02  0.64490458469E+02  0.10566000000E+00 0. -1.
         13    1    4    4    0    0 -0.59405535671E+01  0.17352992178E+02  0.52026090197E+02  0.55164678368E+02  0.10566000000E+00 0. -1.
        -13    1    4    4    0    0 -0.42431831416E+01  0.14487745700E+02  0.41266487434E+02  0.43941250867E+02  0.10566000000E+00 0.  1.
         14    1    4    4    0    0 -0.92169571241E+00  0.46118155806E+01  0.14241792319E+02  0.14998233709E+02  0.00000000000E+00 0. -1.
<mgrwt>
<rscale>  0 0.80224451E+02</rscale>
<asrwt>0</asrwt>
<pdfrwt beam="1">  1        1 0.14640372E-02 0.80224451E+02</pdfrwt>
<pdfrwt beam="2">  1       -2 0.26012056E-01 0.80224451E+02</pdfrwt>
<totfact> 0.90054615E+04</totfact>
</mgrwt>
</event>
<event>
 8    1  0.1372337E-024  0.7516817E+02  0.7818608E-02  0.1343351E+00
         -2   -1    0    0    0  501 -0.00000000000E+00  0.00000000000E+00  0.14948752487E+03  0.14948752489E+03  0.25500000000E-02 0.  1.
          1   -1    0    0  501    0  0.00000000000E+00 -0.00000000000E+00 -0.94493727832E+01  0.94493741273E+01  0.50400000000E-02 0. -1.
        -24    2    1    2    0    0  0.00000000000E+00  0.00000000000E+00  0.14003815209E+03  0.15893689902E+03  0.75168170325E+02 0.  0.
         66    2    3    3    0    0  0.33852891811E+02  0.16162524591E+02  0.66219858852E+02  0.76133535167E+02  0.19999963755E+01 0.  0.
         13    1    3    3    0    0 -0.33852891811E+02 -0.16162524591E+02  0.73818293236E+02  0.82803363854E+02  0.10566000000E+00 0. -1.
         13    1    4    4    0    0  0.14114552971E+02  0.69021179733E+01  0.29399524416E+02  0.33334712208E+02  0.10566000000E+00 0. -1.
        -13    1    4    4    0    0  0.11297983822E+02  0.56545504004E+01  0.20888116649E+02  0.24411942975E+02  0.10566000000E+00 0.  1.
         14    1    4    4    0    0  0.84403550182E+01  0.36058562174E+01  0.15932217787E+02  0.18386879983E+02  0.00000000000E+00 0. -1.
<mgrwt>
<rscale>  0 0.75168170E+02</rscale>
<asrwt>0</asrwt>
<pdfrwt beam="1">  1        1 0.14537498E-02 0.75168170E+02</pdfrwt>
<pdfrwt beam="2">  1       -2 0.22998080E-01 0.75168170E+02</pdfrwt>
<totfact> 0.11103699E+05</totfact>
</mgrwt>
</event>
<event>
 8    1  0.1372337E-024  0.7728333E+02  0.7818608E-02  0.1336943E+00
         -2   -1    0    0    0  501 -0.00000000000E+00  0.00000000000E+00  0.21884382140E+02  0.21884382288E+02  0.25500000000E-02 0.  1.
          1   -1    0    0  501    0  0.00000000000E+00 -0.00000000000E+00 -0.68230321410E+02  0.68230321596E+02  0.50400000000E-02 0. -1.
        -24    2    1    2    0    0  0.00000000000E+00  0.00000000000E+00 -0.46345939270E+02  0.90114703884E+02  0.77283334357E+02 0.  0.
         66    2    3    3    0    0  0.37103078640E+01  0.20644411754E+02  0.14617113755E+02  0.25644066232E+02  0.19999993114E+01 0.  0.
         13    1    3    3    0    0 -0.37103078640E+01 -0.20644411754E+02 -0.60963053025E+02  0.64470637653E+02  0.10566000000E+00 0. -1.
         13    1    4    4    0    0  0.12338252436E+01  0.60025516383E+01  0.37124904247E+01  0.71656611762E+01  0.10566000000E+00 0. -1.
        -13    1    4    4    0    0  0.12397299775E+01  0.42279309269E+01  0.27605112720E+01  0.52003766073E+01  0.10566000000E+00 0.  1.
         14    1    4    4    0    0  0.12367526430E+01  0.10413929189E+02  0.81441120583E+01  0.13278028448E+02  0.00000000000E+00 0. -1.
<mgrwt>
<rscale>  0 0.77283334E+02</rscale>
<asrwt>0</asrwt>
<pdfrwt beam="1">  1        1 0.10496972E-01 0.77283334E+02</pdfrwt>
<pdfrwt beam="2">  1       -2 0.33668281E-02 0.77283334E+02</pdfrwt>
<totfact> 0.15183022E+05</totfact>
</mgrwt>
</event>
<event>
 8    1  0.1372337E-024  0.7403041E+02  0.7818608E-02  0.1346900E+00
          1   -1    0    0  501    0  0.00000000000E+00  0.00000000000E+00  0.40474781428E+02  0.40474781742E+02  0.50400000000E-02 0. -1.
         -2   -1    0    0    0  501 -0.00000000000E+00 -0.00000000000E+00 -0.33851337830E+02  0.33851337926E+02  0.25500000000E-02 0.  1.
        -24    2    1    2    0    0  0.00000000000E+00 -0.17763568394E-14  0.66234435982E+01  0.74326119668E+02  0.74030413073E+02 0.  0.
         66    2    3    3    0    0 -0.17986637852E+02  0.15086792854E+02 -0.25383080151E+02  0.34632805541E+02  0.20000004600E+01 0.  0.
         13    1    3    3    0    0  0.17986637852E+02 -0.15086792854E+02  0.32006523749E+02  0.39693314127E+02  0.10566000000E+00 0. -1.
         13    1    4    4    0    0 -0.10805905424E+02  0.83277447218E+01 -0.15481390600E+02  0.20635007709E+02  0.10566000000E+00 0. -1.
        -13    1    4    4    0    0 -0.21741083589E+01  0.18627995488E+01 -0.24216504993E+01  0.37513097035E+01  0.10566000000E+00 0.  1.
         14    1    4    4    0    0 -0.50066240688E+01  0.48962485834E+01 -0.74800390513E+01  0.10246488128E+02  0.00000000000E+00 0. -1.
<mgrwt>
<rscale>  0 0.74030413E+02</rscale>
<asrwt>0</asrwt>
<pdfrwt beam="1">  1        1 0.62268895E-02 0.74030413E+02</pdfrwt>
<pdfrwt beam="2">  1       -2 0.52078981E-02 0.74030413E+02</pdfrwt>
<totfact> 0.15799200E+05</totfact>
</mgrwt>
</event>
<event>
 8    1  0.1372337E-024  0.7953075E+02  0.7818608E-02  0.1330388E+00
         -2   -1    0    0    0  501 -0.00000000000E+00  0.00000000000E+00  0.86853015078E+02  0.86853015116E+02  0.25500000000E-02 0.  1.
          1   -1    0    0  501    0  0.00000000000E+00 -0.00000000000E+00 -0.18206451503E+02  0.18206452200E+02  0.50400000000E-02 0. -1.
        -24    2    1    2    0    0  0.00000000000E+00  0.00000000000E+00  0.68646563575E+02  0.10505946732E+03  0.79530754945E+02 0.  0.
         66    2    3    3    0    0 -0.33071299049E+02 -0.14413847984E+02  0.56362750555E+02  0.66949454710E+02  0.20000003288E+01 0.  0.
         13    1    3    3    0    0  0.33071299049E+02  0.14413847984E+02  0.12283813020E+02  0.38110012606E+02  0.10566000000E+00 0. -1.
         13    1    4    4    0    0 -0.77205856061E+01 -0.42076046508E+01  0.13387954180E+02  0.16017486075E+02  0.10566000000E+00 0. -1.
        -13    1    4    4    0    0 -0.16902457793E+02 -0.64895978640E+01  0.28392524970E+02  0.33674242354E+02  0.10566000000E+00 0.  1.
        -14    1    4    4    0    0 -0.84482556497E+01 -0.37166454695E+01  0.14582271405E+02  0.17257726281E+02  0.00000000000E+00 0.  1.
<mgrwt>
<rscale>  0 0.79530755E+02</rscale>
<asrwt>0</asrwt>
<pdfrwt beam="1">  1        1 0.28009926E-02 0.79530755E+02</pdfrwt>
<pdfrwt beam="2">  1       -2 0.13362003E-01 0.79530755E+02</pdfrwt>
<totfact> 0.11140331E+05</totfact>
</mgrwt>
</event>
<event>
 8    1  0.1372337E-024  0.7881238E+02  0.7818608E-02  0.1332456E+00
         -2   -1    0    0    0  501 -0.00000000000E+00  0.00000000000E+00  0.67033233936E+01  0.67033238786E+01  0.25500000000E-02 0.  1.
          1   -1    0    0  501    0  0.00000000000E+00 -0.00000000000E+00 -0.23165341694E+03  0.23165341700E+03  0.50400000000E-02 0. -1.
        -24    2    1    2    0    0  0.00000000000E+00  0.35527136788E-14 -0.22495009355E+03  0.23835674088E+03  0.78812380584E+02 0.  0.
         66    2    3    3    0    0 -0.22876669638E+02  0.31794263594E+02 -0.10021558349E+03  0.10761682205E+03  0.20000006144E+01 0.  0.
         13    1    3    3    0    0  0.22876669638E+02 -0.31794263594E+02 -0.12473451006E+03  0.13073991883E+03  0.10566000000E+00 0. -1.
         13    1    4    4    0    0 -0.92761890030E+01  0.14282600639E+02 -0.42149684097E+02  0.45460393717E+02  0.10566000000E+00 0. -1.
        -13    1    4    4    0    0 -0.37168082871E+01  0.48815083146E+01 -0.15707940577E+02  0.16863995626E+02  0.10566000000E+00 0.  1.
         14    1    4    4    0    0 -0.98836723483E+01  0.12630154640E+02 -0.42357958814E+02  0.45292432704E+02  0.00000000000E+00 0. -1.
<mgrwt>
<rscale>  0 0.78812381E+02</rscale>
<asrwt>0</asrwt>
<pdfrwt beam="1">  1        1 0.35638981E-01 0.78812381E+02</pdfrwt>
<pdfrwt beam="2">  1       -2 0.10312807E-02 0.78812381E+02</pdfrwt>
<totfact> 0.17850820E+05</totfact>
</mgrwt>
</event>
<event>
 8    1  0.1372337E-024  0.8085661E+02  0.7818608E-02  0.1326638E+00
          1   -1    0    0  501    0  0.00000000000E+00  0.00000000000E+00  0.13045393052E+03  0.13045393062E+03  0.50400000000E-02 0. -1.
         -2   -1    0    0    0  501 -0.00000000000E+00 -0.00000000000E+00 -0.12528926391E+02  0.12528926650E+02  0.25500000000E-02 0.  1.
        -24    2    1    2    0    0  0.00000000000E+00  0.71054273576E-14  0.11792500413E+03  0.14298285727E+03  0.80856606864E+02 0.  0.
         66    2    3    3    0    0 -0.12889428364E+02  0.37657925096E+02  0.71273692732E+02  0.81659022545E+02  0.20000002866E+01 0.  0.
         13    1    3    3    0    0  0.12889428364E+02 -0.37657925096E+02  0.46651311401E+02  0.61323834726E+02  0.10566000000E+00 0. -1.
         13    1    4    4    0    0 -0.59535685286E+00  0.16609848655E+01  0.38697676175E+01  0.42543608162E+01  0.10566000000E+00 0. -1.
        -13    1    4    4    0    0 -0.52591496543E+01  0.15294461844E+02  0.29782537960E+02  0.33890853480E+02  0.10566000000E+00 0.  1.
         14    1    4    4    0    0 -0.70349218573E+01  0.20702478387E+02  0.37621387155E+02  0.43513808249E+02  0.00000000000E+00 0. -1.
<mgrwt>
<rscale>  0 0.80856607E+02</rscale>
<asrwt>0</asrwt>
<pdfrwt beam="1">  1        1 0.20069838E-01 0.80856607E+02</pdfrwt>
<pdfrwt beam="2">  1       -2 0.19275269E-02 0.80856607E+02</pdfrwt>
<totfact> 0.14959010E+05</totfact>
</mgrwt>
</event>
<event>
 8    1  0.1372337E-024  0.7968121E+02  0.7818608E-02  0.1329959E+00
         -2   -1    0    0    0  501 -0.00000000000E+00  0.00000000000E+00  0.16732770561E+02  0.16732770756E+02  0.25500000000E-02 0.  1.
          1   -1    0    0  501    0  0.00000000000E+00 -0.00000000000E+00 -0.94860185922E+02  0.94860186056E+02  0.50400000000E-02 0. -1.
        -24    2    1    2    0    0  0.00000000000E+00  0.00000000000E+00 -0.78127415360E+02  0.11159295681E+03  0.79681208444E+02 0.  0.
         66    2    3    3    0    0 -0.22700564831E+02 -0.32237191728E+02 -0.46850140895E+02  0.61265715320E+02  0.19999993974E+01 0.  0.
         13    1    3    3    0    0  0.22700564831E+02  0.32237191728E+02 -0.31277274466E+02  0.50327241492E+02  0.10566000000E+00 0. -1.
         13    1    4    4    0    0 -0.64605357234E+01 -0.78894058870E+01 -0.12608587125E+02  0.16216315253E+02  0.10566000000E+00 0. -1.
        -13    1    4    4    0    0 -0.11880167625E+02 -0.17488510279E+02 -0.24396640633E+02  0.32283023600E+02  0.10566000000E+00 0.  1.
        -14    1    4    4    0    0 -0.43598614829E+01 -0.68592755618E+01 -0.98449131373E+01  0.12766376466E+02  0.00000000000E+00 0.  1.
<mgrwt>
<rscale>  0 0.79681208E+02</rscale>
<asrwt>0</asrwt>
<pdfrwt beam="1">  1        1 0.14593875E-01 0.79681208E+02</pdfrwt>
<pdfrwt beam="2">  1       -2 0.25742725E-02 0.79681208E+02</pdfrwt>
<totfact> 0.14728272E+05</totfact>
</mgrwt>
</event>
<event>
 8    1  0.1372337E-024  0.8085927E+02  0.7818608E-02  0.1326630E+00
          1   -1    0    0  501    0  0.00000000000E+00  0.00000000000E+00  0.15492828377E+03  0.15492828385E+03  0.50400000000E-02 0. -1.
         -2   -1    0    0    0  501 -0.00000000000E+00 -0.00000000000E+00 -0.10550400539E+02  0.10550400847E+02  0.25500000000E-02 0.  1.
        -24    2    1    2    0    0  0.35527136788E-14 -0.17763568394E-14  0.14437788323E+03  0.16547868470E+03  0.80859272341E+02 0.  0.
         66    2    3    3    0    0  0.28045490449E+02 -0.92602554648E+01  0.15805580212E+02  0.33557685107E+02  0.19999995275E+01 0.  0.
         13    1    3    3    0    0 -0.28045490449E+02  0.92602554648E+01  0.12857230302E+03  0.13192099959E+03  0.10566000000E+00 0. -1.
         13    1    4    4    0    0  0.16751159202E+02 -0.59602122740E+01  0.93305362840E+01  0.20079729489E+02  0.10566000000E+00 0. -1.
        -13    1    4    4    0    0  0.19148487026E+01 -0.72262294264E+00  0.70009900725E+00  0.21656712878E+01  0.10566000000E+00 0.  1.
         14    1    4    4    0    0  0.93794825437E+01 -0.25774202481E+01  0.57749449205E+01  0.11312284330E+02  0.00000000000E+00 0. -1.
<mgrwt>
<rscale>  0 0.80859272E+02</rscale>
<asrwt>0</asrwt>
<pdfrwt beam="1">  1        1 0.23835120E-01 0.80859272E+02</pdfrwt>
<pdfrwt beam="2">  1       -2 0.16231386E-02 0.80859272E+02</pdfrwt>
<totfact> 0.15436258E+05</totfact>
</mgrwt>
</event>
<event>
 8    1  0.1372337E-024  0.8186406E+02  0.7818608E-02  0.1323843E+00
          1   -1    0    0  501    0  0.00000000000E+00  0.00000000000E+00  0.22796409794E+03  0.22796409799E+03  0.50400000000E-02 0. -1.
         -2   -1    0    0    0  501 -0.00000000000E+00 -0.00000000000E+00 -0.73495390227E+01  0.73495394651E+01  0.25500000000E-02 0.  1.
        -24    2    1    2    0    0 -0.35527136788E-14 -0.35527136788E-14  0.22061455891E+03  0.23531363746E+03  0.81864060299E+02 0.  0.
         66    2    3    3    0    0 -0.25925886301E+02  0.25531413691E+02  0.56641480256E+02  0.67351777637E+02  0.19999999485E+01 0.  0.
         13    1    3    3    0    0  0.25925886301E+02 -0.25531413691E+02  0.16397307866E+03  0.16796185982E+03  0.10566000000E+00 0. -1.
         13    1    4    4    0    0 -0.49548385963E+01  0.42044457500E+01  0.96486895978E+01  0.11633407264E+02  0.10566000000E+00 0. -1.
        -13    1    4    4    0    0 -0.24032298868E+01  0.29144842825E+01  0.63870258761E+01  0.74212530006E+01  0.10566000000E+00 0.  1.
        -14    1    4    4    0    0 -0.18567817818E+02  0.18412483658E+02  0.40605764782E+02  0.48297117373E+02  0.00000000000E+00 0.  1.
<mgrwt>
<rscale>  0 0.81864060E+02</rscale>
<asrwt>0</asrwt>
<pdfrwt beam="1">  1        1 0.35071399E-01 0.81864060E+02</pdfrwt>
<pdfrwt beam="2">  1       -2 0.11306984E-02 0.81864060E+02</pdfrwt>
<totfact> 0.16091106E+05</totfact>
</mgrwt>
</event>
<event>
 8    1  0.1372337E-024  0.7971757E+02  0.7818608E-02  0.1329855E+00
          1   -1    0    0  501    0  0.00000000000E+00  0.00000000000E+00  0.47070905091E+01  0.47070932073E+01  0.50400000000E-02 0. -1.
         -2   -1    0    0    0  501 -0.00000000000E+00 -0.00000000000E+00 -0.33751684437E+03  0.33751684438E+03  0.25500000000E-02 0.  1.
        -24    2    1    2    0    0  0.35527136788E-14  0.35527136788E-14 -0.33280975387E+03  0.34222393759E+03  0.79717571417E+02 0.  0.
         66    2    3    3    0    0 -0.19393066936E+02 -0.19466889198E+02 -0.29031229635E+03  0.29161666657E+03  0.19999983235E+01 0.  0.
         13    1    3    3    0    0  0.19393066936E+02  0.19466889198E+02 -0.42497457518E+02  0.50607271017E+02  0.10566000000E+00 0. -1.
         13    1    4    4    0    0 -0.28018660061E+01 -0.29547209782E+01 -0.47306079375E+02  0.47481124029E+02  0.10566000000E+00 0. -1.
        -13    1    4    4    0    0 -0.14702199975E+02 -0.15085466629E+02 -0.22151661006E+03  0.22251594478E+03  0.10566000000E+00 0.  1.
        -14    1    4    4    0    0 -0.18890009554E+01 -0.14267015909E+01 -0.21489606918E+02  0.21619597765E+02  0.00000000000E+00 0.  1.
<mgrwt>
<rscale>  0 0.79717571E+02</rscale>
<asrwt>0</asrwt>
<pdfrwt beam="1">  1        1 0.72416824E-03 0.79717571E+02</pdfrwt>
<pdfrwt beam="2">  1       -2 0.51925650E-01 0.79717571E+02</pdfrwt>
<totfact> 0.66330862E+04</totfact>
</mgrwt>
</event>
<event>
 8    1  0.1372337E-024  0.8170932E+02  0.7818608E-02  0.1324269E+00
          1   -1    0    0  501    0  0.00000000000E+00  0.00000000000E+00  0.40673737702E+02  0.40673738015E+02  0.50400000000E-02 0. -1.
         -2   -1    0    0    0  501 -0.00000000000E+00 -0.00000000000E+00 -0.41036384855E+02  0.41036384935E+02  0.25500000000E-02 0.  1.
        -24    2    1    2    0    0  0.00000000000E+00  0.00000000000E+00 -0.36264715315E+00  0.81710122949E+02  0.81709318192E+02 0.  0.
         66    2    3    3    0    0 -0.39071336100E+02 -0.67223307801E+01 -0.99457047429E+01  0.40922806384E+02  0.20000009466E+01 0.  0.
         13    1    3    3    0    0  0.39071336100E+02  0.67223307801E+01  0.95830575898E+01  0.40787316565E+02  0.10566000000E+00 0. -1.
         13    1    4    4    0    0 -0.35726774656E+00  0.39361280229E-01 -0.18246567722E+00  0.41671010556E+00  0.10566000000E+00 0. -1.
        -13    1    4    4    0    0 -0.35535225334E+02 -0.59387892952E+01 -0.89362150614E+01  0.37119921356E+02  0.10566000000E+00 0.  1.
         14    1    4    4    0    0 -0.31788430191E+01 -0.82290276513E+00 -0.82702400430E+00  0.33861749224E+01  0.00000000000E+00 0. -1.
<mgrwt>
<rscale>  0 0.81709318E+02</rscale>
<asrwt>0</asrwt>
<pdfrwt beam="1">  1        1 0.62574982E-02 0.81709318E+02</pdfrwt>
<pdfrwt beam="2">  1       -2 0.63132900E-02 0.81709318E+02</pdfrwt>
<totfact> 0.11995019E+05</totfact>
</mgrwt>
</event>
<event>
 8    1  0.1372337E-024  0.8138040E+02  0.7818608E-02  0.1325179E+00
         -2   -1    0    0    0  501 -0.00000000000E+00  0.00000000000E+00  0.27029903649E+02  0.27029903769E+02  0.25500000000E-02 0.  1.
          1   -1    0    0  501    0  0.00000000000E+00 -0.00000000000E+00 -0.61254101334E+02  0.61254101541E+02  0.50400000000E-02 0. -1.
        -24    2    1    2    0    0 -0.71054273576E-14  0.00000000000E+00 -0.34224197685E+02  0.88284005310E+02  0.81380402348E+02 0.  0.
         66    2    3    3    0    0  0.35409643825E+02 -0.15303114593E+02 -0.31596828868E+01  0.38755796825E+02  0.19999998831E+01 0.  0.
         13    1    3    3    0    0 -0.35409643825E+02  0.15303114593E+02 -0.31064514798E+02  0.49528208485E+02  0.10566000000E+00 0. -1.
         13    1    4    4    0    0  0.79925004761E+00 -0.15615354841E+00  0.15190730837E-01  0.82132780495E+00  0.10566000000E+00 0. -1.
        -13    1    4    4    0    0  0.24406145027E+02 -0.10679776633E+02 -0.28202383097E+01  0.26789595969E+02  0.10566000000E+00 0.  1.
         14    1    4    4    0    0  0.10204248750E+02 -0.44671844118E+01 -0.35463530790E+00  0.11144873051E+02  0.00000000000E+00 0. -1.
<mgrwt>
<rscale>  0 0.81380402E+02</rscale>
<asrwt>0</asrwt>
<pdfrwt beam="1">  1        1 0.94237079E-02 0.81380402E+02</pdfrwt>
<pdfrwt beam="2">  1       -2 0.41584467E-02 0.81380402E+02</pdfrwt>
<totfact> 0.12956514E+05</totfact>
</mgrwt>
</event>
<event>
 8    1  0.1372337E-024  0.7862764E+02  0.7818608E-02  0.1332992E+00
         -2   -1    0    0    0  501 -0.00000000000E+00  0.00000000000E+00  0.19359366932E+03  0.19359366933E+03  0.25500000000E-02 0.  1.
          1   -1    0    0  501    0  0.00000000000E+00 -0.00000000000E+00 -0.79836089653E+01  0.79836105562E+01  0.50400000000E-02 0. -1.
        -24    2    1    2    0    0  0.00000000000E+00  0.00000000000E+00  0.18561006035E+03  0.20157727989E+03  0.78627636770E+02 0.  0.
         66    2    3    3    0    0  0.91486780621E+01 -0.62685714737E+01  0.18949200076E+03  0.18982679377E+03  0.19999953863E+01 0.  0.
         13    1    3    3    0    0 -0.91486780621E+01  0.62685714737E+01 -0.38819404126E+01  0.11750486118E+02  0.10566000000E+00 0. -1.
         13    1    4    4    0    0  0.33476688472E+01 -0.28739076257E+01  0.78504483679E+02  0.78628438580E+02  0.10566000000E+00 0. -1.
        -13    1    4    4    0    0  0.18448782460E+01 -0.16856825472E+01  0.46214024124E+02  0.46281662580E+02  0.10566000000E+00 0.  1.
         14    1    4    4    0    0  0.39561309689E+01 -0.17089813008E+01  0.64773492960E+02  0.64916692611E+02  0.00000000000E+00 0. -1.
<mgrwt>
<rscale>  0 0.78627637E+02</rscale>
<asrwt>0</asrwt>
<pdfrwt beam="1">  1        1 0.12282477E-02 0.78627637E+02</pdfrwt>
<pdfrwt beam="2">  1       -2 0.29783639E-01 0.78627637E+02</pdfrwt>
<totfact> 0.90125100E+04</totfact>
</mgrwt>
</event>
<event>
 8    1  0.1372337E-024  0.7950297E+02  0.7818608E-02  0.1330468E+00
         -2   -1    0    0    0  501 -0.00000000000E+00  0.00000000000E+00  0.30863152770E+02  0.30863152875E+02  0.25500000000E-02 0.  1.
          1   -1    0    0  501    0  0.00000000000E+00 -0.00000000000E+00 -0.51199585101E+02  0.51199585349E+02  0.50400000000E-02 0. -1.
        -24    2    1    2    0    0 -0.35527136788E-14 -0.35527136788E-14 -0.20336432331E+02  0.82062738224E+02  0.79502971799E+02 0.  0.
         66    2    3    3    0    0 -0.21332650487E+02 -0.28642880451E+02  0.77831969563E+01  0.36607031294E+02  0.20000019928E+01 0.  0.
         13    1    3    3    0    0  0.21332650487E+02  0.28642880451E+02 -0.28119629287E+02  0.45455706931E+02  0.10566000000E+00 0. -1.
         13    1    4    4    0    0 -0.11382275339E+02 -0.14898680557E+02  0.42316958095E+01  0.19220959593E+02  0.10566000000E+00 0. -1.
        -13    1    4    4    0    0 -0.91430614061E+01 -0.12694660015E+02  0.36271105636E+01  0.16059796383E+02  0.10566000000E+00 0.  1.
         14    1    4    4    0    0 -0.80731374123E+00 -0.10495398789E+01 -0.75609416800E-01  0.13262753176E+01  0.00000000000E+00 0. -1.
<mgrwt>
<rscale>  0 0.79502972E+02</rscale>
<asrwt>0</asrwt>
<pdfrwt beam="1">  1        1 0.78768593E-02 0.79502972E+02</pdfrwt>
<pdfrwt beam="2">  1       -2 0.47481774E-02 0.79502972E+02</pdfrwt>
<totfact> 0.13436746E+05</totfact>
</mgrwt>
</event>
<event>
 8    1  0.1372337E-024  0.7468452E+02  0.7818608E-02  0.1344851E+00
          1   -1    0    0  501    0  0.00000000000E+00  0.00000000000E+00  0.27708456746E+02  0.27708457204E+02  0.50400000000E-02 0. -1.
         -2   -1    0    0    0  501 -0.00000000000E+00 -0.00000000000E+00 -0.50325590641E+02  0.50325590705E+02  0.25500000000E-02 0.  1.
        -24    2    1    2    0    0  0.00000000000E+00  0.00000000000E+00 -0.22617133895E+02  0.78034047909E+02  0.74684522409E+02 0.  0.
         66    2    3    3    0    0 -0.25829764588E+01 -0.21178559427E+02 -0.43303993163E+02  0.48316032209E+02  0.19999994439E+01 0.  0.
         13    1    3    3    0    0  0.25829764588E+01  0.21178559427E+02  0.20686859268E+02  0.29718015701E+02  0.10566000000E+00 0. -1.
         13    1    4    4    0    0 -0.11042450720E+01 -0.11704519903E+02 -0.21736608192E+02  0.24712475454E+02  0.10566000000E+00 0. -1.
        -13    1    4    4    0    0 -0.11876130364E+01 -0.72660202546E+01 -0.16518462821E+02  0.18085249599E+02  0.10566000000E+00 0.  1.
         14    1    4    4    0    0 -0.29111835034E+00 -0.22080192694E+01 -0.50489221506E+01  0.55183071562E+01  0.00000000000E+00 0. -1.
<mgrwt>
<rscale>  0 0.74684522E+02</rscale>
<asrwt>0</asrwt>
<pdfrwt beam="1">  1        1 0.42628396E-02 0.74684522E+02</pdfrwt>
<pdfrwt beam="2">  1       -2 0.77423986E-02 0.74684522E+02</pdfrwt>
<totfact> 0.14523263E+05</totfact>
</mgrwt>
</event>
<event>
 8    1  0.1372337E-024  0.8037373E+02  0.7818608E-02  0.1327994E+00
          1   -1    0    0  501    0  0.00000000000E+00  0.00000000000E+00  0.50447686884E+02  0.50447687136E+02  0.50400000000E-02 0. -1.
         -2   -1    0    0    0  501 -0.00000000000E+00 -0.00000000000E+00 -0.32013043323E+02  0.32013043424E+02  0.25500000000E-02 0.  1.
        -24    2    1    2    0    0  0.00000000000E+00  0.00000000000E+00  0.18434643561E+02  0.82460730560E+02  0.80373727059E+02 0.  0.
         66    2    3    3    0    0 -0.17417839735E+02 -0.36045374284E+02  0.12520323514E+02  0.41992959507E+02  0.19999997384E+01 0.  0.
         13    1    3    3    0    0  0.17417839735E+02  0.36045374284E+02  0.59143200468E+01  0.40467771053E+02  0.10566000000E+00 0. -1.
         13    1    4    4    0    0 -0.27133333199E+01 -0.46565836751E+01  0.22430710148E+01  0.58385341346E+01  0.10566000000E+00 0. -1.
        -13    1    4    4    0    0 -0.80330609540E+01 -0.17135635509E+02  0.56870758562E+01  0.19761428805E+02  0.10566000000E+00 0.  1.
         14    1    4    4    0    0 -0.66714454615E+01 -0.14253155100E+02  0.45901766431E+01  0.16392996567E+02  0.00000000000E+00 0. -1.
<mgrwt>
<rscale>  0 0.80373727E+02</rscale>
<asrwt>0</asrwt>
<pdfrwt beam="1">  1        1 0.77611827E-02 0.80373727E+02</pdfrwt>
<pdfrwt beam="2">  1       -2 0.49250836E-02 0.80373727E+02</pdfrwt>
<totfact> 0.13005864E+05</totfact>
</mgrwt>
</event>
<event>
 8    1  0.1372337E-024  0.8038665E+02  0.7818608E-02  0.1327958E+00
          1   -1    0    0  501    0  0.00000000000E+00  0.00000000000E+00  0.32515037612E+01  0.32515076674E+01  0.50400000000E-02 0. -1.
         -2   -1    0    0    0  501 -0.00000000000E+00 -0.00000000000E+00 -0.49684780978E+03  0.49684780979E+03  0.25500000000E-02 0.  1.
        -24    2    1    2    0    0  0.00000000000E+00  0.00000000000E+00 -0.49359630602E+03  0.50009931746E+03  0.80386653137E+02 0.  0.
         66    2    3    3    0    0 -0.81210085750E+01  0.22643640962E+02 -0.44707640108E+03  0.44772758867E+03  0.19999993790E+01 0.  0.
         13    1    3    3    0    0  0.81210085750E+01 -0.22643640962E+02 -0.46519904944E+02  0.52371728789E+02  0.10566000000E+00 0. -1.
         13    1    4    4    0    0 -0.67317039127E+01  0.19188413018E+02 -0.37475396139E+03  0.37530528077E+03  0.10566000000E+00 0.  1.
        -13    1    4    4    0    0 -0.11007629903E+01  0.21575408070E+01 -0.51949613664E+02  0.52006155264E+02  0.10566000000E+00 0. -1.
         14    1    4    4    0    0 -0.28854167204E+00  0.12976871376E+01 -0.20372826029E+02  0.20416152640E+02  0.00000000000E+00 0. -1.
<mgrwt>
<rscale>  0 0.80386653E+02</rscale>
<asrwt>0</asrwt>
<pdfrwt beam="1">  1        1 0.50023204E-03 0.80386653E+02</pdfrwt>
<pdfrwt beam="2">  1       -2 0.76438064E-01 0.80386653E+02</pdfrwt>
<totfact> 0.50005600E+04</totfact>
</mgrwt>
</event>
<event>
 8    1  0.1372337E-024  0.8274939E+02  0.7818608E-02  0.1321425E+00
          1   -1    0    0  501    0  0.00000000000E+00  0.00000000000E+00  0.13543928504E+03  0.13543928513E+03  0.50400000000E-02 0. -1.
         -2   -1    0    0    0  501 -0.00000000000E+00 -0.00000000000E+00 -0.12639357646E+02  0.12639357903E+02  0.25500000000E-02 0.  1.
        -24    2    1    2    0    0  0.00000000000E+00  0.00000000000E+00  0.12279992739E+03  0.14807864304E+03  0.82749394897E+02 0.  0.
         66    2    3    3    0    0 -0.34094326727E+02  0.22118926635E+02  0.47785064456E+02  0.62762109727E+02  0.20000004476E+01 0.  0.
         13    1    3    3    0    0  0.34094326727E+02 -0.22118926635E+02  0.75014862938E+02  0.85316533311E+02  0.10566000000E+00 0. -1.
         13    1    4    4    0    0 -0.65658822387E+01  0.39213748736E+01  0.95751773128E+01  0.12254924524E+02  0.10566000000E+00 0. -1.
        -13    1    4    4    0    0 -0.28876679956E+01  0.14950532366E+01  0.34326575655E+01  0.47294939085E+01  0.10566000000E+00 0.  1.
         14    1    4    4    0    0 -0.24640776493E+02  0.16702498525E+02  0.34777229578E+02  0.45777691295E+02  0.00000000000E+00 0. -1.
<mgrwt>
<rscale>  0 0.82749395E+02</rscale>
<asrwt>0</asrwt>
<pdfrwt beam="1">  1        1 0.20836814E-01 0.82749395E+02</pdfrwt>
<pdfrwt beam="2">  1       -2 0.19445165E-02 0.82749395E+02</pdfrwt>
<totfact> 0.14153059E+05</totfact>
</mgrwt>
</event>
<event>
 8    1  0.1372337E-024  0.8100949E+02  0.7818608E-02  0.1326211E+00
         -2   -1    0    0    0  501 -0.00000000000E+00  0.00000000000E+00  0.11194245548E+02  0.11194245838E+02  0.25500000000E-02 0.  1.
          1   -1    0    0  501    0  0.00000000000E+00 -0.00000000000E+00 -0.14656052045E+03  0.14656052054E+03  0.50400000000E-02 0. -1.
        -24    2    1    2    0    0  0.00000000000E+00  0.00000000000E+00 -0.13536627490E+03  0.15775476638E+03  0.81009492859E+02 0.  0.
         66    2    3    3    0    0 -0.31465776001E+02  0.15417129935E+02 -0.28252524270E+02  0.45055388856E+02  0.19999956294E+01 0.  0.
         13    1    3    3    0    0  0.31465776001E+02 -0.15417129935E+02 -0.10711375063E+03  0.11269937752E+03  0.10566000000E+00 0. -1.
         13    1    4    4    0    0 -0.71891824138E+00  0.54500995692E+00 -0.88989612946E+00  0.12715968102E+01  0.10566000000E+00 0.  1.
        -13    1    4    4    0    0 -0.15864000547E+02  0.84009328459E+01 -0.14452070563E+02  0.23045947444E+02  0.10566000000E+00 0.  1.
         14    1    4    4    0    0 -0.14882857212E+02  0.64711871326E+01 -0.12910557578E+02  0.20737844601E+02  0.00000000000E+00 0. -1.
<mgrwt>
<rscale>  0 0.81009493E+02</rscale>
<asrwt>0</asrwt>
<pdfrwt beam="1">  1        1 0.22547771E-01 0.81009493E+02</pdfrwt>
<pdfrwt beam="2">  1       -2 0.17221918E-02 0.81009493E+02</pdfrwt>
<totfact> 0.15202461E+05</totfact>
</mgrwt>
</event>
<event>
 8    1  0.1372337E-024  0.7986262E+02  0.7818608E-02  0.1329442E+00
         -2   -1    0    0    0  501 -0.00000000000E+00  0.00000000000E+00  0.16142158089E+02  0.16142158290E+02  0.25500000000E-02 0.  1.
          1   -1    0    0  501    0  0.00000000000E+00 -0.00000000000E+00 -0.98779213515E+02  0.98779213644E+02  0.50400000000E-02 0. -1.
        -24    2    1    2    0    0 -0.35527136788E-14  0.17763568394E-14 -0.82637055427E+02  0.11492137193E+03  0.79862624535E+02 0.  0.
         66    2    3    3    0    0  0.22170883424E+02 -0.15646498963E+02  0.76033056494E+00  0.27220196595E+02  0.19999996190E+01 0.  0.
         13    1    3    3    0    0 -0.22170883424E+02  0.15646498963E+02 -0.83397385992E+02  0.87701175339E+02  0.10566000000E+00 0. -1.
         13    1    4    4    0    0  0.60354129796E+01 -0.36370698414E+01 -0.44481072180E+00  0.70614097374E+01  0.10566000000E+00 0. -1.
        -13    1    4    4    0    0  0.92485806838E+01 -0.65559884197E+01  0.78311842009E+00  0.11364051536E+02  0.10566000000E+00 0.  1.
         14    1    4    4    0    0  0.68868897609E+01 -0.54534407016E+01  0.42202286665E+00  0.87947353210E+01  0.00000000000E+00 0. -1.
<mgrwt>
<rscale>  0 0.79862625E+02</rscale>
<asrwt>0</asrwt>
<pdfrwt beam="1">  1        1 0.15196802E-01 0.79862625E+02</pdfrwt>
<pdfrwt beam="2">  1       -2 0.24834090E-02 0.79862625E+02</pdfrwt>
<totfact> 0.14737137E+05</totfact>
</mgrwt>
</event>
<event>
 8    1  0.1372337E-024  0.7757106E+02  0.7818608E-02  0.1336089E+00
          1   -1    0    0  501    0  0.00000000000E+00  0.00000000000E+00  0.11228826346E+02  0.11228827477E+02  0.50400000000E-02 0. -1.
         -2   -1    0    0    0  501 -0.00000000000E+00 -0.00000000000E+00 -0.13396923193E+03  0.13396923196E+03  0.25500000000E-02 0.  1.
        -24    2    1    2    0    0  0.44408920985E-15 -0.35527136788E-14 -0.12274040559E+03  0.14519805943E+03  0.77571059681E+02 0.  0.
         66    2    3    3    0    0  0.25220516744E+01 -0.30263795313E+02 -0.10649208127E+03  0.11075568352E+03  0.20000021005E+01 0.  0.
         13    1    3    3    0    0 -0.25220516744E+01  0.30263795313E+02 -0.16248324322E+02  0.34442375915E+02  0.10566000000E+00 0. -1.
         13    1    4    4    0    0  0.11608489141E+01 -0.82766741209E+01 -0.27882200426E+02  0.29108060213E+02  0.10566000000E+00 0. -1.
        -13    1    4    4    0    0  0.41859461161E+00 -0.51578100467E+01 -0.20407828139E+02  0.21053950682E+02  0.10566000000E+00 0. -1.
        -14    1    4    4    0    0  0.94260814871E+00 -0.16829311145E+02 -0.58202052700E+02  0.60593672625E+02  0.00000000000E+00 0.  1.
<mgrwt>
<rscale>  0 0.77571060E+02</rscale>
<asrwt>0</asrwt>
<pdfrwt beam="1">  1        1 0.17275119E-02 0.77571060E+02</pdfrwt>
<pdfrwt beam="2">  1       -2 0.20610650E-01 0.77571060E+02</pdfrwt>
<totfact> 0.10601611E+05</totfact>
</mgrwt>
</event>
<event>
 8    1  0.1372337E-024  0.8125943E+02  0.7818608E-02  0.1325515E+00
          1   -1    0    0  501    0  0.00000000000E+00  0.00000000000E+00  0.98369590064E+02  0.98369590194E+02  0.50400000000E-02 0. -1.
         -2   -1    0    0    0  501 -0.00000000000E+00 -0.00000000000E+00 -0.16781341033E+02  0.16781341226E+02  0.25500000000E-02 0.  1.
        -24    2    1    2    0    0 -0.71054273576E-14  0.17763568394E-14  0.81588249032E+02  0.11515093142E+03  0.81259427926E+02 0.  0.
         66    2    3    3    0    0 -0.37770314523E+02  0.14228276061E+02  0.47112919023E+02  0.62069860951E+02  0.20000002171E+01 0.  0.
         13    1    3    3    0    0  0.37770314523E+02 -0.14228276061E+02  0.34475330009E+02  0.53081070468E+02  0.10566000000E+00 0. -1.
         13    1    4    4    0    0 -0.14887836373E+02  0.52852122861E+01  0.19000456292E+02  0.24710516873E+02  0.10566000000E+00 0. -1.
        -13    1    4    4    0    0 -0.13286694754E+02  0.56990178909E+01  0.17231028023E+02  0.22492988979E+02  0.10566000000E+00 0.  1.
        -14    1    4    4    0    0 -0.95957833955E+01  0.32440458845E+01  0.10881434707E+02  0.14866355100E+02  0.00000000000E+00 0.  1.
<mgrwt>
<rscale>  0 0.81259428E+02</rscale>
<asrwt>0</asrwt>
<pdfrwt beam="1">  1        1 0.15133783E-01 0.81259428E+02</pdfrwt>
<pdfrwt beam="2">  1       -2 0.25817448E-02 0.81259428E+02</pdfrwt>
<totfact> 0.14051738E+05</totfact>
</mgrwt>
</event>
<event>
 8    1  0.1372337E-024  0.8021953E+02  0.7818608E-02  0.1328430E+00
         -2   -1    0    0    0  501 -0.00000000000E+00  0.00000000000E+00  0.12778656516E+02  0.12778656771E+02  0.25500000000E-02 0.  1.
          1   -1    0    0  501    0  0.00000000000E+00 -0.00000000000E+00 -0.12589688768E+03  0.12589688778E+03  0.50400000000E-02 0. -1.
        -24    2    1    2    0    0  0.35527136788E-14  0.00000000000E+00 -0.11311823116E+03  0.13867554455E+03  0.80219526519E+02 0.  0.
         66    2    3    3    0    0  0.23491856224E+02  0.57405384959E+00 -0.45553488542E+00  0.23588224905E+02  0.19999988703E+01 0.  0.
         13    1    3    3    0    0 -0.23491856224E+02 -0.57405384959E+00 -0.11266269627E+03  0.11508731964E+03  0.10566000000E+00 0. -1.
         13    1    4    4    0    0  0.44198376736E+00 -0.12333273356E+00  0.50226555025E-01  0.47354762823E+00  0.10566000000E+00 0.  1.
        -13    1    4    4    0    0  0.63540728668E+01 -0.46358725055E+00 -0.24427049565E+00  0.63765184267E+01  0.10566000000E+00 0.  1.
        -14    1    4    4    0    0  0.16695799590E+02  0.11609738337E+01 -0.26149094479E+00  0.16738158850E+02  0.00000000000E+00 0.  1.
<mgrwt>
<rscale>  0 0.80219527E+02</rscale>
<asrwt>0</asrwt>
<pdfrwt beam="1">  1        1 0.19368751E-01 0.80219527E+02</pdfrwt>
<pdfrwt beam="2">  1       -2 0.19659473E-02 0.80219527E+02</pdfrwt>
<totfact> 0.15183273E+05</totfact>
</mgrwt>
</event>
<event>
 8    1  0.1372337E-024  0.8088966E+02  0.7818608E-02  0.1326545E+00
         -2   -1    0    0    0  501 -0.00000000000E+00  0.00000000000E+00  0.15787867539E+03  0.15787867541E+03  0.25500000000E-02 0.  1.
          1   -1    0    0  501    0  0.00000000000E+00 -0.00000000000E+00 -0.10361021291E+02  0.10361022517E+02  0.50400000000E-02 0. -1.
        -24    2    1    2    0    0  0.00000000000E+00 -0.35527136788E-14  0.14751765410E+03  0.16823969793E+03  0.80889663665E+02 0.  0.
         66    2    3    3    0    0  0.29994099273E+02  0.22360036969E+02  0.10563065601E+03  0.11207788690E+03  0.19999998774E+01 0.  0.
         13    1    3    3    0    0 -0.29994099273E+02 -0.22360036969E+02  0.41886998093E+02  0.56161811026E+02  0.10566000000E+00 0. -1.
         13    1    4    4    0    0  0.61849569823E+01  0.40720475486E+01  0.20854984207E+02  0.22130901347E+02  0.10566000000E+00 0. -1.
        -13    1    4    4    0    0  0.11721263518E+02  0.94911511876E+01  0.44466239346E+02  0.46954526672E+02  0.10566000000E+00 0.  1.
         14    1    4    4    0    0  0.12087878773E+02  0.87968382329E+01  0.40309432454E+02  0.42992458884E+02  0.00000000000E+00 0. -1.
<mgrwt>
<rscale>  0 0.80889664E+02</rscale>
<asrwt>0</asrwt>
<pdfrwt beam="1">  1        1 0.15940034E-02 0.80889664E+02</pdfrwt>
<pdfrwt beam="2">  1       -2 0.24289027E-01 0.80889664E+02</pdfrwt>
<totfact> 0.90295777E+04</totfact>
</mgrwt>
</event>
<event>
 8    1  0.1372337E-024  0.7969543E+02  0.7818608E-02  0.1329918E+00
          1   -1    0    0  501    0  0.00000000000E+00  0.00000000000E+00  0.28618355433E+01  0.28618399813E+01  0.50400000000E-02 0. -1.
         -2   -1    0    0    0  501 -0.00000000000E+00 -0.00000000000E+00 -0.55483244349E+03  0.55483244350E+03  0.25500000000E-02 0.  1.
        -24    2    1    2    0    0 -0.35527136788E-14 -0.88817841970E-15 -0.55197060795E+03  0.55769428348E+03  0.79695431401E+02 0.  0.
         66    2    3    3    0    0  0.25031634344E+02  0.45524618934E+01 -0.49053966035E+03  0.49120308019E+03  0.19999974874E+01 0.  0.
         13    1    3    3    0    0 -0.25031634344E+02 -0.45524618934E+01 -0.61430947601E+02  0.66491203286E+02  0.10566000000E+00 0. -1.
         13    1    4    4    0    0  0.60912472794E+01  0.76237879838E+00 -0.11724675597E+03  0.11740739953E+03  0.10566000000E+00 0. -1.
        -13    1    4    4    0    0  0.57285688202E+01  0.97527784873E+00 -0.12631028637E+03  0.12644392937E+03  0.10566000000E+00 0.  1.
        -14    1    4    4    0    0  0.13211818245E+02  0.28148052463E+01 -0.24698261800E+03  0.24735175129E+03  0.00000000000E+00 0.  1.
<mgrwt>
<rscale>  0 0.79695431E+02</rscale>
<asrwt>0</asrwt>
<pdfrwt beam="1">  1        1 0.44028317E-03 0.79695431E+02</pdfrwt>
<pdfrwt beam="2">  1       -2 0.85358752E-01 0.79695431E+02</pdfrwt>
<totfact> 0.46862873E+04</totfact>
</mgrwt>
</event>
<event>
 8    1  0.1372337E-024  0.8008646E+02  0.7818608E-02  0.1328806E+00
         -2   -1    0    0    0  501 -0.00000000000E+00  0.00000000000E+00  0.11827862968E+03  0.11827862970E+03  0.25500000000E-02 0.  1.
          1   -1    0    0  501    0  0.00000000000E+00 -0.00000000000E+00 -0.13556635207E+02  0.13556636144E+02  0.50400000000E-02 0. -1.
        -24    2    1    2    0    0 -0.35527136788E-14  0.27755575616E-16  0.10472199447E+03  0.13183526585E+03  0.80086460750E+02 0.  0.
         66    2    3    3    0    0 -0.28952109542E+02  0.18689068173E+00  0.97870421346E+02  0.10208270641E+03  0.19999993919E+01 0.  0.
         13    1    3    3    0    0  0.28952109542E+02 -0.18689068173E+00  0.68515731228E+01  0.29752559442E+02  0.10566000000E+00 0. -1.
         13    1    4    4    0    0 -0.90905419423E+01 -0.34569076262E+00  0.31484872366E+02  0.32772943213E+02  0.10566000000E+00 0. -1.
        -13    1    4    4    0    0 -0.14806843887E+02  0.28619217907E+00  0.51520302102E+02  0.53606690111E+02  0.10566000000E+00 0.  1.
        -14    1    4    4    0    0 -0.50547237119E+01  0.24638926528E+00  0.14865246878E+02  0.15703073082E+02  0.00000000000E+00 0.  1.
<mgrwt>
<rscale>  0 0.80086461E+02</rscale>
<asrwt>0</asrwt>
<pdfrwt beam="1">  1        1 0.20856362E-02 0.80086461E+02</pdfrwt>
<pdfrwt beam="2">  1       -2 0.18196713E-01 0.80086461E+02</pdfrwt>
<totfact> 0.10127247E+05</totfact>
</mgrwt>
</event>
<event>
 8    1  0.1372337E-024  0.7964704E+02  0.7818608E-02  0.1330056E+00
         -2   -1    0    0    0  501 -0.00000000000E+00  0.00000000000E+00  0.70747784267E+01  0.70747788862E+01  0.25500000000E-02 0.  1.
          1   -1    0    0  501    0  0.00000000000E+00 -0.00000000000E+00 -0.22416430124E+03  0.22416430129E+03  0.50400000000E-02 0. -1.
        -24    2    1    2    0    0  0.00000000000E+00  0.00000000000E+00 -0.21708952281E+03  0.23123908018E+03  0.79647041931E+02 0.  0.
         66    2    3    3    0    0 -0.26769238523E+02  0.24226797594E+02 -0.15722726008E+03  0.16133177358E+03  0.20000004085E+01 0.  0.
         13    1    3    3    0    0  0.26769238523E+02 -0.24226797594E+02 -0.59862262733E+02  0.69907306602E+02  0.10566000000E+00 0. -1.
         13    1    4    4    0    0 -0.40922038651E+01  0.36282385930E+01 -0.21106538676E+02  0.21803838806E+02  0.10566000000E+00 0. -1.
        -13    1    4    4    0    0 -0.11830136468E+02  0.10230739157E+02 -0.69936628396E+02  0.71664240092E+02  0.10566000000E+00 0.  1.
        -14    1    4    4    0    0 -0.10846898190E+02  0.10367819844E+02 -0.66184093005E+02  0.67863694680E+02  0.00000000000E+00 0.  1.
<mgrwt>
<rscale>  0 0.79647042E+02</rscale>
<asrwt>0</asrwt>
<pdfrwt beam="1">  1        1 0.34486810E-01 0.79647042E+02</pdfrwt>
<pdfrwt beam="2">  1       -2 0.10884277E-02 0.79647042E+02</pdfrwt>
<totfact> 0.17249373E+05</totfact>
</mgrwt>
</event>
<event>
 8    1  0.1372337E-024  0.7960535E+02  0.7818608E-02  0.1330175E+00
         -2   -1    0    0    0  501 -0.00000000000E+00  0.00000000000E+00  0.85425103117E+01  0.85425106923E+01  0.25500000000E-02 0.  1.
          1   -1    0    0  501    0  0.00000000000E+00 -0.00000000000E+00 -0.18545520249E+03  0.18545520256E+03  0.50400000000E-02 0. -1.
        -24    2    1    2    0    0 -0.71054273576E-14  0.00000000000E+00 -0.17691269217E+03  0.19399771325E+03  0.79605352161E+02 0.  0.
         66    2    3    3    0    0  0.38636232923E+02 -0.71615439857E+01 -0.73449540774E+02  0.83323953627E+02  0.20000003362E+01 0.  0.
         13    1    3    3    0    0 -0.38636232923E+02  0.71615439857E+01 -0.10346315140E+03  0.11067375962E+03  0.10566000000E+00 0. -1.
         13    1    4    4    0    0  0.15666073940E+02 -0.32143098912E+01 -0.31382005989E+02  0.35222139695E+02  0.10566000000E+00 0. -1.
        -13    1    4    4    0    0  0.21421712110E+02 -0.37666887005E+01 -0.39681871936E+02  0.45251959271E+02  0.10566000000E+00 0.  1.
         14    1    4    4    0    0  0.15484468729E+01 -0.18054539406E+00 -0.23856628499E+01  0.28498546614E+01  0.00000000000E+00 0. -1.
<mgrwt>
<rscale>  0 0.79605352E+02</rscale>
<asrwt>0</asrwt>
<pdfrwt beam="1">  1        1 0.28531567E-01 0.79605352E+02</pdfrwt>
<pdfrwt beam="2">  1       -2 0.13142325E-02 0.79605352E+02</pdfrwt>
<totfact> 0.16649791E+05</totfact>
</mgrwt>
</event>
<event>
 8    1  0.1372337E-024  0.8165361E+02  0.7818608E-02  0.1324423E+00
         -2   -1    0    0    0  501 -0.00000000000E+00  0.00000000000E+00  0.24897170314E+03  0.24897170315E+03  0.25500000000E-02 0.  1.
          1   -1    0    0  501    0  0.00000000000E+00 -0.00000000000E+00 -0.66948476553E+01  0.66948495524E+01  0.50400000000E-02 0. -1.
        -24    2    1    2    0    0 -0.35527136788E-14  0.35527136788E-14  0.24227685549E+03  0.25566655271E+03  0.81653606587E+02 0.  0.
         66    2    3    3    0    0 -0.22537529143E+02  0.25204962380E+02  0.19272048083E+03  0.19567425502E+03  0.19999995735E+01 0.  0.
         13    1    3    3    0    0  0.22537529143E+02 -0.25204962380E+02  0.49556374654E+02  0.59992297683E+02  0.10566000000E+00 0. -1.
         13    1    4    4    0    0 -0.33106445911E+01  0.41477732990E+01  0.34024708298E+02  0.34436264748E+02  0.10566000000E+00 0.  1.
        -13    1    4    4    0    0 -0.29500882596E+01  0.30082326170E+01  0.23270335680E+02  0.23648935937E+02  0.10566000000E+00 0. -1.
         14    1    4    4    0    0 -0.16276796293E+02  0.18048956464E+02  0.13542543685E+03  0.13758905434E+03  0.00000000000E+00 0. -1.
<mgrwt>
<rscale>  0 0.81653607E+02</rscale>
<asrwt>0</asrwt>
<pdfrwt beam="1">  1        1 0.10299767E-02 0.81653607E+02</pdfrwt>
<pdfrwt beam="2">  1       -2 0.38303339E-01 0.81653607E+02</pdfrwt>
<totfact> 0.73287523E+04</totfact>
</mgrwt>
</event>
<event>
 8    1  0.1372337E-024  0.7037631E+02  0.7818608E-02  0.1358818E+00
         -2   -1    0    0    0  501 -0.00000000000E+00  0.00000000000E+00  0.11174289066E+03  0.11174289068E+03  0.25500000000E-02 0.  1.
          1   -1    0    0  501    0  0.00000000000E+00 -0.00000000000E+00 -0.11080849059E+02  0.11080850205E+02  0.50400000000E-02 0. -1.
        -24    2    1    2    0    0  0.00000000000E+00  0.00000000000E+00  0.10066204160E+03  0.12282374089E+03  0.70376307859E+02 0.  0.
         66    2    3    3    0    0 -0.19268444447E+02 -0.10370788094E+02  0.98401422558E+02  0.10082492820E+03  0.19999972252E+01 0.  0.
         13    1    3    3    0    0  0.19268444447E+02  0.10370788094E+02  0.22606190381E+01  0.21998812685E+02  0.10566000000E+00 0. -1.
         13    1    4    4    0    0 -0.67805782480E+01 -0.37691318196E+01  0.35029406483E+02  0.35878309306E+02  0.10566000000E+00 0.  1.
        -13    1    4    4    0    0 -0.88018907408E+01 -0.51705850304E+01  0.43094771356E+02  0.44287455475E+02  0.10566000000E+00 0. -1.
         14    1    4    4    0    0 -0.36859754580E+01 -0.14310712442E+01  0.20277244719E+02  0.20659163424E+02  0.00000000000E+00 0. -1.
<mgrwt>
<rscale>  0 0.70376308E+02</rscale>
<asrwt>0</asrwt>
<pdfrwt beam="1">  1        1 0.17047462E-02 0.70376308E+02</pdfrwt>
<pdfrwt beam="2">  1       -2 0.17191213E-01 0.70376308E+02</pdfrwt>
<totfact> 0.14306320E+05</totfact>
</mgrwt>
</event>
<event>
 8    1  0.1372337E-024  0.8024500E+02  0.7818608E-02  0.1328358E+00
          1   -1    0    0  501    0  0.00000000000E+00  0.00000000000E+00  0.13020529081E+03  0.13020529091E+03  0.50400000000E-02 0. -1.
         -2   -1    0    0    0  501 -0.00000000000E+00 -0.00000000000E+00 -0.12363666609E+02  0.12363666871E+02  0.25500000000E-02 0.  1.
        -24    2    1    2    0    0  0.35527136788E-14  0.00000000000E+00  0.11784162421E+03  0.14256895778E+03  0.80244995657E+02 0.  0.
         66    2    3    3    0    0  0.24734046515E+02  0.19430405488E+02  0.14772243876E+02  0.34807081222E+02  0.19999999119E+01 0.  0.
         13    1    3    3    0    0 -0.24734046515E+02 -0.19430405488E+02  0.10306938033E+03  0.10776187656E+03  0.10566000000E+00 0. -1.
         13    1    4    4    0    0  0.61308547271E+01  0.45667566103E+01  0.43175153406E+01  0.87803615173E+01  0.10566000000E+00 0. -1.
        -13    1    4    4    0    0  0.39498466374E+01  0.36925042621E+01  0.24514687073E+01  0.59377385462E+01  0.10566000000E+00 0.  1.
         14    1    4    4    0    0  0.14653345150E+02  0.11171144616E+02  0.80032598285E+01  0.20088981159E+02  0.00000000000E+00 0. -1.
<mgrwt>
<rscale>  0 0.80244996E+02</rscale>
<asrwt>0</asrwt>
<pdfrwt beam="1">  1        1 0.20031584E-01 0.80244996E+02</pdfrwt>
<pdfrwt beam="2">  1       -2 0.19021025E-02 0.80244996E+02</pdfrwt>
<totfact> 0.15261742E+05</totfact>
</mgrwt>
</event>
<event>
 8    1  0.1372337E-024  0.7940720E+02  0.7818608E-02  0.1330742E+00
         -2   -1    0    0    0  501 -0.00000000000E+00  0.00000000000E+00  0.17509486421E+02  0.17509486607E+02  0.25500000000E-02 0.  1.
          1   -1    0    0  501    0  0.00000000000E+00 -0.00000000000E+00 -0.90029821521E+02  0.90029821662E+02  0.50400000000E-02 0. -1.
        -24    2    1    2    0    0  0.17763568394E-14  0.71054273576E-14 -0.72520335100E+02  0.10753930827E+03  0.79407202570E+02 0.  0.
         66    2    3    3    0    0  0.11344527403E+02  0.38020531164E+02 -0.35830054168E+02  0.53498148299E+02  0.19999994350E+01 0.  0.
         13    1    3    3    0    0 -0.11344527403E+02 -0.38020531164E+02 -0.36690280932E+02  0.54041159970E+02  0.10566000000E+00 0. -1.
         13    1    4    4    0    0  0.30923379187E+01  0.12930735730E+02 -0.11621757697E+02  0.17659074050E+02  0.10566000000E+00 0.  1.
        -13    1    4    4    0    0  0.29626239187E+01  0.92762374986E+01 -0.83657840394E+01  0.12838349942E+02  0.10566000000E+00 0.  1.
         14    1    4    4    0    0  0.52895655652E+01  0.15813557936E+02 -0.15842512432E+02  0.23000724306E+02  0.00000000000E+00 0. -1.
<mgrwt>
<rscale>  0 0.79407203E+02</rscale>
<asrwt>0</asrwt>
<pdfrwt beam="1">  1        1 0.13850742E-01 0.79407203E+02</pdfrwt>
<pdfrwt beam="2">  1       -2 0.26937672E-02 0.79407203E+02</pdfrwt>
<totfact> 0.14738678E+05</totfact>
</mgrwt>
</event>
<event>
 8    1  0.1372337E-024  0.7954292E+02  0.7818608E-02  0.1330354E+00
         -2   -1    0    0    0  501 -0.00000000000E+00  0.00000000000E+00  0.37042063120E+01  0.37042071897E+01  0.25500000000E-02 0.  1.
          1   -1    0    0  501    0  0.00000000000E+00 -0.00000000000E+00 -0.42701959173E+03  0.42701959176E+03  0.50400000000E-02 0. -1.
        -24    2    1    2    0    0  0.00000000000E+00  0.00000000000E+00 -0.42331538542E+03  0.43072379895E+03  0.79542915775E+02 0.  0.
         66    2    3    3    0    0  0.13003139182E+02  0.37432050228E+02 -0.22850221637E+03  0.23192132911E+03  0.20000001541E+01 0.  0.
         13    1    3    3    0    0 -0.13003139182E+02 -0.37432050228E+02 -0.19481316906E+03  0.19880246984E+03  0.10566000000E+00 0. -1.
         13    1    4    4    0    0  0.51972406034E+01  0.13456789275E+02 -0.85889013514E+02  0.87092079398E+02  0.10566000000E+00 0. -1.
        -13    1    4    4    0    0  0.60905905328E+01  0.18333753305E+02 -0.10658793528E+03  0.10832460900E+03  0.10566000000E+00 0.  1.
         14    1    4    4    0    0  0.17153080458E+01  0.56415076486E+01 -0.36025267570E+02  0.36504640715E+02  0.00000000000E+00 0. -1.
<mgrwt>
<rscale>  0 0.79542916E+02</rscale>
<asrwt>0</asrwt>
<pdfrwt beam="1">  1        1 0.65695283E-01 0.79542916E+02</pdfrwt>
<pdfrwt beam="2">  1       -2 0.56987830E-03 0.79542916E+02</pdfrwt>
<totfact> 0.19481673E+05</totfact>
</mgrwt>
</event>
<event>
 8    1  0.1372337E-024  0.7952589E+02  0.7818608E-02  0.1330402E+00
         -2   -1    0    0    0  501 -0.00000000000E+00  0.00000000000E+00  0.65480508227E+02  0.65480508277E+02  0.25500000000E-02 0.  1.
          1   -1    0    0  501    0  0.00000000000E+00 -0.00000000000E+00 -0.24145991038E+02  0.24145991564E+02  0.50400000000E-02 0. -1.
        -24    2    1    2    0    0 -0.11102230246E-15 -0.71054273576E-14  0.41334517189E+02  0.89626499841E+02  0.79525889889E+02 0.  0.
         66    2    3    3    0    0  0.74072300424E+00  0.34008505938E+02 -0.24703666870E+01  0.34164745793E+02  0.19999992137E+01 0.  0.
         13    1    3    3    0    0 -0.74072300424E+00 -0.34008505938E+02  0.43804883876E+02  0.55461754048E+02  0.10566000000E+00 0. -1.
         13    1    4    4    0    0  0.17869418889E+00  0.44557443419E+01 -0.27670981284E+00  0.44691522250E+01  0.10566000000E+00 0.  1.
        -13    1    4    4    0    0 -0.13631842775E+00  0.21017269417E+02 -0.21882118731E+01  0.21131579015E+02  0.10566000000E+00 0.  1.
        -14    1    4    4    0    0  0.69834724310E+00  0.85354921794E+01 -0.54450010494E-02  0.85640145530E+01  0.00000000000E+00 0.  1.
<mgrwt>
<rscale>  0 0.79525890E+02</rscale>
<asrwt>0</asrwt>
<pdfrwt beam="1">  1        1 0.37147679E-02 0.79525890E+02</pdfrwt>
<pdfrwt beam="2">  1       -2 0.10073924E-01 0.79525890E+02</pdfrwt>
<totfact> 0.11820432E+05</totfact>
</mgrwt>
</event>
<event>
 8    1  0.1372337E-024  0.7993829E+02  0.7818608E-02  0.1329227E+00
         -2   -1    0    0    0  501 -0.00000000000E+00  0.00000000000E+00  0.80059555388E+02  0.80059555428E+02  0.25500000000E-02 0.  1.
          1   -1    0    0  501    0  0.00000000000E+00 -0.00000000000E+00 -0.19954300429E+02  0.19954301066E+02  0.50400000000E-02 0. -1.
        -24    2    1    2    0    0 -0.88817841970E-15 -0.17763568394E-14  0.60105254959E+02  0.10001385649E+03  0.79938287555E+02 0.  0.
         66    2    3    3    0    0 -0.69969590295E+01 -0.77017274996E+01  0.78321443374E+02  0.79034945022E+02  0.20000000709E+01 0.  0.
         13    1    3    3    0    0  0.69969590295E+01  0.77017274996E+01 -0.18216188416E+02  0.20978911472E+02  0.10566000000E+00 0. -1.
         13    1    4    4    0    0 -0.56507390334E+00 -0.94905818809E+00  0.59603774302E+01  0.60627784972E+01  0.10566000000E+00 0. -1.
        -13    1    4    4    0    0 -0.49229596347E+01 -0.52404117414E+01  0.50981539384E+02  0.51486172598E+02  0.10566000000E+00 0.  1.
         14    1    4    4    0    0 -0.15089254914E+01 -0.15122575702E+01  0.21379526560E+02  0.21485993927E+02  0.00000000000E+00 0. -1.
<mgrwt>
<rscale>  0 0.79938288E+02</rscale>
<asrwt>0</asrwt>
<pdfrwt beam="1">  1        1 0.30698924E-02 0.79938288E+02</pdfrwt>
<pdfrwt beam="2">  1       -2 0.12316855E-01 0.79938288E+02</pdfrwt>
<totfact> 0.11196214E+05</totfact>
</mgrwt>
</event>
<event>
 8    1  0.1372337E-024  0.8014468E+02  0.7818608E-02  0.1328641E+00
          1   -1    0    0  501    0  0.00000000000E+00  0.00000000000E+00  0.47472962335E+02  0.47472962602E+02  0.50400000000E-02 0. -1.
         -2   -1    0    0    0  501 -0.00000000000E+00 -0.00000000000E+00 -0.33825413346E+02  0.33825413442E+02  0.25500000000E-02 0.  1.
        -24    2    1    2    0    0  0.00000000000E+00  0.00000000000E+00  0.13647548989E+02  0.81298376044E+02  0.80144683879E+02 0.  0.
         66    2    3    3    0    0  0.24653094321E+02 -0.10083234888E+02 -0.23508015180E+02  0.35581926071E+02  0.19999999445E+01 0.  0.
         13    1    3    3    0    0 -0.24653094321E+02  0.10083234888E+02  0.37155564169E+02  0.45716449974E+02  0.10566000000E+00 0. -1.
         13    1    4    4    0    0  0.16270074145E+01 -0.10523943758E+01 -0.15124727472E+01  0.24603708858E+01  0.10566000000E+00 0. -1.
        -13    1    4    4    0    0  0.89847671807E+01 -0.30331912863E+01 -0.89184199386E+01  0.13018282103E+02  0.10566000000E+00 0.  1.
        -14    1    4    4    0    0  0.14041319726E+02 -0.59976492258E+01 -0.13077122494E+02  0.20103273082E+02  0.00000000000E+00 0.  1.
<mgrwt>
<rscale>  0 0.80144684E+02</rscale>
<asrwt>0</asrwt>
<pdfrwt beam="1">  1        1 0.73035328E-02 0.80144684E+02</pdfrwt>
<pdfrwt beam="2">  1       -2 0.52039097E-02 0.80144684E+02</pdfrwt>
<totfact> 0.12984401E+05</totfact>
</mgrwt>
</event>
<event>
 8    1  0.1372337E-024  0.8081180E+02  0.7818608E-02  0.1326763E+00
         -2   -1    0    0    0  501 -0.00000000000E+00  0.00000000000E+00  0.14057116229E+02  0.14057116460E+02  0.25500000000E-02 0.  1.
          1   -1    0    0  501    0  0.00000000000E+00 -0.00000000000E+00 -0.11614308181E+03  0.11614308192E+03  0.50400000000E-02 0. -1.
        -24    2    1    2    0    0  0.00000000000E+00  0.00000000000E+00 -0.10208596558E+03  0.13020019838E+03  0.80811801671E+02 0.  0.
         66    2    3    3    0    0 -0.24488750171E+02  0.25303983136E+02 -0.19230278636E+02  0.40172055720E+02  0.19999992089E+01 0.  0.
         13    1    3    3    0    0  0.24488750171E+02 -0.25303983136E+02 -0.82855686947E+02  0.90028142661E+02  0.10566000000E+00 0. -1.
         13    1    4    4    0    0 -0.10458384089E+02  0.10571647030E+02 -0.78226403676E+01  0.16803046897E+02  0.10566000000E+00 0. -1.
        -13    1    4    4    0    0 -0.12276825613E+02  0.12443555173E+02 -0.10233410405E+02  0.20255773622E+02  0.10566000000E+00 0.  1.
        -14    1    4    4    0    0 -0.17535404691E+01  0.22887809340E+01 -0.11742278637E+01  0.31132352010E+01  0.00000000000E+00 0.  1.
<mgrwt>
<rscale>  0 0.80811802E+02</rscale>
<asrwt>0</asrwt>
<pdfrwt beam="1">  1        1 0.17868166E-01 0.80811802E+02</pdfrwt>
<pdfrwt beam="2">  1       -2 0.21626334E-02 0.80811802E+02</pdfrwt>
<totfact> 0.14675777E+05</totfact>
</mgrwt>
</event>
<event>
 8    1  0.1372337E-024  0.8017043E+02  0.7818608E-02  0.1328568E+00
         -2   -1    0    0    0  501 -0.00000000000E+00  0.00000000000E+00  0.22597632338E+03  0.22597632339E+03  0.25500000000E-02 0.  1.
          1   -1    0    0  501    0  0.00000000000E+00 -0.00000000000E+00 -0.71105861946E+01  0.71105879808E+01  0.50400000000E-02 0. -1.
        -24    2    1    2    0    0  0.00000000000E+00  0.00000000000E+00  0.21886573718E+03  0.23308691137E+03  0.80170426846E+02 0.  0.
         66    2    3    3    0    0  0.26728738389E+01  0.25093776664E+02  0.19995656296E+03  0.20155264563E+03  0.20000025125E+01 0.  0.
         13    1    3    3    0    0 -0.26728738389E+01 -0.25093776664E+02  0.18909174225E+02  0.31534265739E+02  0.10566000000E+00 0. -1.
         13    1    4    4    0    0  0.10331658825E+01  0.35293615165E+01  0.29215484076E+02  0.29446213650E+02  0.10566000000E+00 0. -1.
        -13    1    4    4    0    0  0.30405319838E+00  0.72731918362E+01  0.56361344330E+02  0.56829605547E+02  0.10566000000E+00 0.  1.
         14    1    4    4    0    0  0.13356547580E+01  0.14291223311E+02  0.11437973455E+03  0.11527682644E+03  0.00000000000E+00 0. -1.
<mgrwt>
<rscale>  0 0.80170427E+02</rscale>
<asrwt>0</asrwt>
<pdfrwt beam="1">  1        1 0.10939366E-02 0.80170427E+02</pdfrwt>
<pdfrwt beam="2">  1       -2 0.34765583E-01 0.80170427E+02</pdfrwt>
<totfact> 0.80339239E+04</totfact>
</mgrwt>
</event>
<event>
 8    1  0.1372337E-024  0.7931081E+02  0.7818608E-02  0.1331019E+00
          1   -1    0    0  501    0  0.00000000000E+00  0.00000000000E+00  0.21785762393E+01  0.21785820692E+01  0.50400000000E-02 0. -1.
         -2   -1    0    0    0  501 -0.00000000000E+00 -0.00000000000E+00 -0.72182415592E+03  0.72182415593E+03  0.25500000000E-02 0.  1.
        -24    2    1    2    0    0  0.00000000000E+00  0.00000000000E+00 -0.71964557968E+03  0.72400273800E+03  0.79310808018E+02 0.  0.
         66    2    3    3    0    0  0.11331414573E+02  0.10556615974E+02 -0.69305416479E+03  0.69323006169E+03  0.20000001121E+01 0.  0.
         13    1    3    3    0    0 -0.11331414573E+02 -0.10556615974E+02 -0.26591414897E+02  0.30772676310E+02  0.10566000000E+00 0. -1.
         13    1    4    4    0    0  0.16268470517E+01  0.19453100557E+01 -0.12062975043E+03  0.12065644912E+03  0.10566000000E+00 0. -1.
        -13    1    4    4    0    0  0.65960654296E+01  0.64759662603E+01 -0.38180496816E+03  0.38191686411E+03  0.10566000000E+00 0.  1.
        -14    1    4    4    0    0  0.31085020917E+01  0.21353396577E+01 -0.19061944620E+03  0.19065674845E+03  0.00000000000E+00 0.  1.
<mgrwt>
<rscale>  0 0.79310808E+02</rscale>
<asrwt>0</asrwt>
<pdfrwt beam="1">  1        1 0.33516660E-03 0.79310808E+02</pdfrwt>
<pdfrwt beam="2">  1       -2 0.11104968E+00 0.79310808E+02</pdfrwt>
<totfact> 0.37588769E+04</totfact>
</mgrwt>
</event>
<event>
 8    1  0.1372337E-024  0.8296760E+02  0.7818608E-02  0.1320835E+00
          1   -1    0    0  501    0  0.00000000000E+00  0.00000000000E+00  0.10286272456E+02  0.10286273690E+02  0.50400000000E-02 0. -1.
         -2   -1    0    0    0  501 -0.00000000000E+00 -0.00000000000E+00 -0.16730118619E+03  0.16730118621E+03  0.25500000000E-02 0.  1.
        -24    2    1    2    0    0  0.35527136788E-14  0.00000000000E+00 -0.15701491373E+03  0.17758745990E+03  0.82967600776E+02 0.  0.
         66    2    3    3    0    0  0.26828966215E+02 -0.31443290653E+02 -0.71641359839E+02  0.82734263727E+02  0.19999999267E+01 0.  0.
         13    1    3    3    0    0 -0.26828966215E+02  0.31443290653E+02 -0.85373553895E+02  0.94853196172E+02  0.10566000000E+00 0. -1.
         13    1    4    4    0    0  0.14947564402E+02 -0.17773857781E+02 -0.38994119418E+02  0.45386035465E+02  0.10566000000E+00 0. -1.
        -13    1    4    4    0    0  0.20347216360E+01 -0.29374391833E+01 -0.64505838722E+01  0.73749466046E+01  0.10566000000E+00 0.  1.
        -14    1    4    4    0    0  0.98466801775E+01 -0.10731993689E+02 -0.26196656548E+02  0.29973281658E+02  0.00000000000E+00 0.  1.
<mgrwt>
<rscale>  0 0.82967601E+02</rscale>
<asrwt>0</asrwt>
<pdfrwt beam="1">  1        1 0.15825037E-02 0.82967601E+02</pdfrwt>
<pdfrwt beam="2">  1       -2 0.25738642E-01 0.82967601E+02</pdfrwt>
<totfact> 0.82886318E+04</totfact>
</mgrwt>
</event>
<event>
 8    1  0.1372337E-024  0.8610667E+02  0.7818608E-02  0.1312564E+00
          1   -1    0    0  501    0  0.00000000000E+00  0.00000000000E+00  0.94836190196E+02  0.94836190330E+02  0.50400000000E-02 0. -1.
         -2   -1    0    0    0  501 -0.00000000000E+00 -0.00000000000E+00 -0.19545170920E+02  0.19545171086E+02  0.25500000000E-02 0.  1.
        -24    2    1    2    0    0  0.00000000000E+00  0.00000000000E+00  0.75291019276E+02  0.11438136142E+03  0.86106667893E+02 0.  0.
         66    2    3    3    0    0 -0.40110813978E+02 -0.10145644615E+02  0.53370479623E+02  0.67559008577E+02  0.20000105189E+01 0.  0.
         13    1    3    3    0    0  0.40110813978E+02  0.10145644615E+02  0.21920539654E+02  0.46822352839E+02  0.10566000000E+00 0. -1.
         13    1    4    4    0    0 -0.14208593017E+02 -0.29395157290E+01  0.19182960776E+02  0.24052484620E+02  0.10566000000E+00 0. -1.
        -13    1    4    4    0    0 -0.15208510471E+02 -0.43833486695E+01  0.20943476971E+02  0.26251722382E+02  0.10566000000E+00 0.  1.
        -14    1    4    4    0    0 -0.10693710490E+02 -0.28227802164E+01  0.13244041876E+02  0.17254801575E+02  0.00000000000E+00 0.  1.
<mgrwt>
<rscale>  0 0.86106668E+02</rscale>
<asrwt>0</asrwt>
<pdfrwt beam="1">  1        1 0.14590183E-01 0.86106668E+02</pdfrwt>
<pdfrwt beam="2">  1       -2 0.30069495E-02 0.86106668E+02</pdfrwt>
<totfact> 0.11926575E+05</totfact>
</mgrwt>
</event>
<event>
 8    1  0.1372337E-024  0.7996531E+02  0.7818608E-02  0.1329150E+00
          1   -1    0    0  501    0  0.00000000000E+00  0.00000000000E+00  0.15085502206E+02  0.15085503048E+02  0.50400000000E-02 0. -1.
         -2   -1    0    0    0  501 -0.00000000000E+00 -0.00000000000E+00 -0.10597011916E+03  0.10597011919E+03  0.25500000000E-02 0.  1.
        -24    2    1    2    0    0  0.00000000000E+00  0.00000000000E+00 -0.90884616954E+02  0.12105562224E+03  0.79965305455E+02 0.  0.
         66    2    3    3    0    0 -0.17307601630E+02  0.31747539906E+02 -0.19728576959E+02  0.41239254518E+02  0.20000000103E+01 0.  0.
         13    1    3    3    0    0  0.17307601630E+02 -0.31747539906E+02 -0.71156039995E+02  0.79816367720E+02  0.10566000000E+00 0. -1.
         13    1    4    4    0    0 -0.88978263699E+00  0.10917162215E+01 -0.67790283829E+00  0.15666121866E+01  0.10566000000E+00 0. -1.
        -13    1    4    4    0    0 -0.15324296771E+02  0.28359209713E+02 -0.18004481973E+02  0.36922234253E+02  0.10566000000E+00 0.  1.
        -14    1    4    4    0    0 -0.10935222220E+01  0.22966139721E+01 -0.10461921479E+01  0.27504080782E+01  0.00000000000E+00 0.  1.
<mgrwt>
<rscale>  0 0.79965305E+02</rscale>
<asrwt>0</asrwt>
<pdfrwt beam="1">  1        1 0.23208466E-02 0.79965305E+02</pdfrwt>
<pdfrwt beam="2">  1       -2 0.16303095E-01 0.79965305E+02</pdfrwt>
<totfact> 0.10469843E+05</totfact>
</mgrwt>
</event>
<event>
 8    1  0.1372337E-024  0.8054515E+02  0.7818608E-02  0.1327511E+00
         -2   -1    0    0    0  501 -0.00000000000E+00  0.00000000000E+00  0.91371728824E+02  0.91371728860E+02  0.25500000000E-02 0.  1.
          1   -1    0    0  501    0  0.00000000000E+00 -0.00000000000E+00 -0.17750350277E+02  0.17750350992E+02  0.50400000000E-02 0. -1.
        -24    2    1    2    0    0 -0.71054273576E-14 -0.22204460493E-15  0.73621378547E+02  0.10912207985E+03  0.80545148408E+02 0.  0.
         66    2    3    3    0    0 -0.23985369071E+02 -0.18402119292E+01  0.80549123554E+02  0.84088320160E+02  0.19999931448E+01 0.  0.
         13    1    3    3    0    0  0.23985369071E+02  0.18402119292E+01 -0.69277450070E+01  0.25033759692E+02  0.10566000000E+00 0. -1.
         13    1    4    4    0    0 -0.38959605455E+01 -0.73357819148E-01  0.14818474858E+02  0.15322605885E+02  0.10566000000E+00 0.  1.
        -13    1    4    4    0    0 -0.23599604800E+01 -0.26915346498E+00  0.65455549397E+01  0.69640010453E+01  0.10566000000E+00 0. -1.
        -14    1    4    4    0    0 -0.17729448045E+02 -0.14977006450E+01  0.59185093757E+02  0.61801713230E+02  0.00000000000E+00 0.  1.
<mgrwt>
<rscale>  0 0.80545148E+02</rscale>
<asrwt>0</asrwt>
<pdfrwt beam="1">  1        1 0.27308232E-02 0.80545148E+02</pdfrwt>
<pdfrwt beam="2">  1       -2 0.14057189E-01 0.80545148E+02</pdfrwt>
<totfact> 0.10659845E+05</totfact>
</mgrwt>
</event>
<event>
 8    1  0.1372337E-024  0.8343588E+02  0.7818608E-02  0.1319574E+00
          1   -1    0    0  501    0  0.00000000000E+00  0.00000000000E+00  0.18844691338E+02  0.18844692012E+02  0.50400000000E-02 0. -1.
         -2   -1    0    0    0  501 -0.00000000000E+00 -0.00000000000E+00 -0.92354201451E+02  0.92354201486E+02  0.25500000000E-02 0.  1.
        -24    2    1    2    0    0 -0.44408920985E-15  0.35527136788E-14 -0.73509510114E+02  0.11119889350E+03  0.83435878602E+02 0.  0.
         66    2    3    3    0    0  0.39715526505E+01 -0.16140799201E+02 -0.87736306461E+02  0.89319416181E+02  0.20000015267E+01 0.  0.
         13    1    3    3    0    0 -0.39715526505E+01  0.16140799201E+02  0.14226796348E+02  0.21879477317E+02  0.10566000000E+00 0. -1.
         13    1    4    4    0    0  0.19099264134E-01 -0.36859025967E+00 -0.14417856542E+01  0.14920232805E+01  0.10566000000E+00 0.  1.
        -13    1    4    4    0    0  0.84889131149E-01 -0.18251394115E+01 -0.80388614038E+01  0.82445616464E+01  0.10566000000E+00 0.  1.
        -14    1    4    4    0    0  0.38675642552E+01 -0.13947069530E+02 -0.78255659403E+02  0.79582831254E+02  0.00000000000E+00 0.  1.
<mgrwt>
<rscale>  0 0.83435879E+02</rscale>
<asrwt>0</asrwt>
<pdfrwt beam="1">  1        1 0.28991834E-02 0.83435879E+02</pdfrwt>
<pdfrwt beam="2">  1       -2 0.14208338E-01 0.83435879E+02</pdfrwt>
<totfact> 0.97159754E+04</totfact>
</mgrwt>
</event>
<event>
 8    1  0.1372337E-024  0.8032158E+02  0.7818608E-02  0.1328141E+00
          1   -1    0    0  501    0  0.00000000000E+00  0.00000000000E+00  0.74262318886E+01  0.74262335989E+01  0.50400000000E-02 0. -1.
         -2   -1    0    0    0  501 -0.00000000000E+00 -0.00000000000E+00 -0.21718806067E+03  0.21718806069E+03  0.25500000000E-02 0.  1.
        -24    2    1    2    0    0  0.22204460493E-15 -0.71054273576E-14 -0.20976182878E+03  0.22461429429E+03  0.80321581054E+02 0.  0.
         66    2    3    3    0    0  0.11918414312E+01 -0.36479195998E+02 -0.15163302988E+03  0.15597669050E+03  0.20000010531E+01 0.  0.
         13    1    3    3    0    0 -0.11918414312E+01  0.36479195998E+02 -0.58128798909E+02  0.68637603784E+02  0.10566000000E+00 0. -1.
         13    1    4    4    0    0 -0.30480236192E+00 -0.13475652931E+01 -0.57302474163E+01  0.58953995782E+01  0.10566000000E+00 0. -1.
        -13    1    4    4    0    0  0.38159741196E+00 -0.13190370593E+02 -0.55504945831E+02  0.57052096093E+02  0.10566000000E+00 0.  1.
        -14    1    4    4    0    0  0.11150463812E+01 -0.21941260112E+02 -0.90397836628E+02  0.93029194830E+02  0.00000000000E+00 0.  1.
<mgrwt>
<rscale>  0 0.80321581E+02</rscale>
<asrwt>0</asrwt>
<pdfrwt beam="1">  1        1 0.11424975E-02 0.80321581E+02</pdfrwt>
<pdfrwt beam="2">  1       -2 0.33413543E-01 0.80321581E+02</pdfrwt>
<totfact> 0.81347243E+04</totfact>
</mgrwt>
</event>
<event>
 8    1  0.1372337E-024  0.8113080E+02  0.7818608E-02  0.1325873E+00
          1   -1    0    0  501    0  0.00000000000E+00  0.00000000000E+00  0.19579277961E+02  0.19579278609E+02  0.50400000000E-02 0. -1.
         -2   -1    0    0    0  501 -0.00000000000E+00 -0.00000000000E+00 -0.84045571422E+02  0.84045571460E+02  0.25500000000E-02 0.  1.
        -24    2    1    2    0    0  0.35527136788E-14  0.44408920985E-15 -0.64466293461E+02  0.10362485007E+03  0.81130799080E+02 0.  0.
         66    2    3    3    0    0 -0.20657637814E+02  0.36340725064E+01 -0.76564505874E+02  0.79410755194E+02  0.19999994255E+01 0.  0.
         13    1    3    3    0    0  0.20657637814E+02 -0.36340725064E+01  0.12098212413E+02  0.24214094876E+02  0.10566000000E+00 0. -1.
         13    1    4    4    0    0 -0.21633728116E+01  0.65550378342E+00 -0.66055101371E+01  0.69823918064E+01  0.10566000000E+00 0. -1.
        -13    1    4    4    0    0 -0.15345912281E+02  0.27402285608E+01 -0.57549901221E+02  0.59623889263E+02  0.10566000000E+00 0.  1.
         14    1    4    4    0    0 -0.31483527220E+01  0.23834016216E+00 -0.12409094516E+02  0.12804474124E+02  0.00000000000E+00 0. -1.
<mgrwt>
<rscale>  0 0.81130799E+02</rscale>
<asrwt>0</asrwt>
<pdfrwt beam="1">  1        1 0.30121967E-02 0.81130799E+02</pdfrwt>
<pdfrwt beam="2">  1       -2 0.12930088E-01 0.81130799E+02</pdfrwt>
<totfact> 0.10666875E+05</totfact>
</mgrwt>
</event>
<event>
 8    1  0.1372337E-024  0.7877136E+02  0.7818608E-02  0.1332575E+00
          1   -1    0    0  501    0  0.00000000000E+00  0.00000000000E+00  0.30320090635E+01  0.30320132524E+01  0.50400000000E-02 0. -1.
         -2   -1    0    0    0  501 -0.00000000000E+00 -0.00000000000E+00 -0.51161809616E+03  0.51161809617E+03  0.25500000000E-02 0.  1.
        -24    2    1    2    0    0 -0.35527136788E-14 -0.22204460493E-15 -0.50858608710E+03  0.51465010942E+03  0.78771359875E+02 0.  0.
         66    2    3    3    0    0 -0.28379710686E+02 -0.17299451606E+01 -0.43228522643E+03  0.43322386554E+03  0.19999998374E+01 0.  0.
         13    1    3    3    0    0  0.28379710686E+02  0.17299451606E+01 -0.76300860670E+02  0.81426243877E+02  0.10566000000E+00 0. -1.
         13    1    4    4    0    0 -0.83107563527E+01 -0.67390891649E+00 -0.13471324038E+03  0.13497107513E+03  0.10566000000E+00 0. -1.
        -13    1    4    4    0    0 -0.16321333791E+02 -0.12176627062E+01 -0.24735878652E+03  0.24789967542E+03  0.10566000000E+00 0.  1.
        -14    1    4    4    0    0 -0.37476205427E+01  0.16162646207E+00 -0.50213199527E+02  0.50353114994E+02  0.00000000000E+00 0.  1.
<mgrwt>
<rscale>  0 0.78771360E+02</rscale>
<asrwt>0</asrwt>
<pdfrwt beam="1">  1        1 0.46646366E-03 0.78771360E+02</pdfrwt>
<pdfrwt beam="2">  1       -2 0.78710408E-01 0.78771360E+02</pdfrwt>
<totfact> 0.51519545E+04</totfact>
</mgrwt>
</event>
<event>
 8    1  0.1372337E-024  0.8121408E+02  0.7818608E-02  0.1325641E+00
         -2   -1    0    0    0  501 -0.00000000000E+00  0.00000000000E+00  0.24435112001E+02  0.24435112134E+02  0.25500000000E-02 0.  1.
          1   -1    0    0  501    0  0.00000000000E+00 -0.00000000000E+00 -0.67482061502E+02  0.67482061690E+02  0.50400000000E-02 0. -1.
        -24    2    1    2    0    0  0.00000000000E+00  0.00000000000E+00 -0.43046949501E+02  0.91917173824E+02  0.81214081183E+02 0.  0.
         66    2    3    3    0    0  0.14434879770E+02  0.22642952646E+01  0.21313839082E+02  0.25918574914E+02  0.20000005395E+01 0.  0.
         13    1    3    3    0    0 -0.14434879770E+02 -0.22642952646E+01 -0.64360788583E+02  0.65998598910E+02  0.10566000000E+00 0. -1.
         13    1    4    4    0    0  0.13555221457E+00 -0.23014247261E-01  0.39701960359E+00  0.43323510902E+00  0.10566000000E+00 0.  1.
        -13    1    4    4    0    0  0.10125146606E+02  0.91988481981E+00  0.14602985092E+02  0.17793906808E+02  0.10566000000E+00 0.  1.
         14    1    4    4    0    0  0.41741809500E+01  0.13674246920E+01  0.63138343857E+01  0.76914329967E+01  0.00000000000E+00 0. -1.
<mgrwt>
<rscale>  0 0.81214081E+02</rscale>
<asrwt>0</asrwt>
<pdfrwt beam="1">  1        1 0.10381856E-01 0.81214081E+02</pdfrwt>
<pdfrwt beam="2">  1       -2 0.37592480E-02 0.81214081E+02</pdfrwt>
<totfact> 0.13231975E+05</totfact>
</mgrwt>
</event>
<event>
 8    1  0.1372337E-024  0.7977174E+02  0.7818608E-02  0.1329700E+00
         -2   -1    0    0    0  501 -0.00000000000E+00  0.00000000000E+00  0.14196282213E+04  0.14196282213E+04  0.25500000000E-02 0.  1.
          1   -1    0    0  501    0  0.00000000000E+00 -0.00000000000E+00 -0.11206276232E+01  0.11206389568E+01  0.50400000000E-02 0. -1.
        -24    2    1    2    0    0 -0.44408920985E-15  0.00000000000E+00  0.14185075937E+04  0.14207488603E+04  0.79771740665E+02 0.  0.
         66    2    3    3    0    0 -0.22348762562E+01  0.15967571448E+02  0.13589568332E+04  0.13590539476E+04  0.19999983415E+01 0.  0.
         13    1    3    3    0    0  0.22348762562E+01 -0.15967571448E+02  0.59550760477E+02  0.61694912653E+02  0.10566000000E+00 0. -1.
         13    1    4    4    0    0 -0.26341718661E+00  0.46110532298E+00  0.39157256847E+02  0.39161000173E+02  0.10566000000E+00 0.  1.
        -13    1    4    4    0    0 -0.13494818718E+01  0.94368807276E+01  0.74522899570E+03  0.74528997244E+03  0.10566000000E+00 0.  1.
        -14    1    4    4    0    0 -0.62197719786E+00  0.60695853977E+01  0.57457058067E+03  0.57460297501E+03  0.00000000000E+00 0.  1.
<mgrwt>
<rscale>  0 0.79771741E+02</rscale>
<asrwt>0</asrwt>
<pdfrwt beam="1">  1        1 0.17240444E-03 0.79771741E+02</pdfrwt>
<pdfrwt beam="2">  1       -2 0.21840520E+00 0.79771741E+02</pdfrwt>
<totfact> 0.16375392E+04</totfact>
</mgrwt>
</event>
<event>
 8    1  0.1372337E-024  0.8403913E+02  0.7818608E-02  0.1317965E+00
         -2   -1    0    0    0  501 -0.00000000000E+00  0.00000000000E+00  0.10106197358E+02  0.10106197680E+02  0.25500000000E-02 0.  1.
          1   -1    0    0  501    0  0.00000000000E+00 -0.00000000000E+00 -0.17470901879E+03  0.17470901886E+03  0.50400000000E-02 0. -1.
        -24    2    1    2    0    0  0.35527136788E-14  0.35527136788E-14 -0.16460282143E+03  0.18481521654E+03  0.84039130422E+02 0.  0.
         66    2    3    3    0    0 -0.24826408920E+02 -0.23844956463E+02 -0.29444286227E+02  0.45342017212E+02  0.20000012174E+01 0.  0.
         13    1    3    3    0    0  0.24826408920E+02  0.23844956463E+02 -0.13515853520E+03  0.13947319933E+03  0.10566000000E+00 0. -1.
         13    1    4    4    0    0 -0.20644199082E+01 -0.15070364982E+01 -0.22411468075E+01  0.34010133214E+01  0.10566000000E+00 0. -1.
        -13    1    4    4    0    0 -0.16595564938E+00 -0.29769212639E+00 -0.32871615153E+00  0.48515999789E+00  0.10566000000E+00 0.  1.
        -14    1    4    4    0    0 -0.22596033362E+02 -0.22040227838E+02 -0.26874423268E+02  0.41455843893E+02  0.00000000000E+00 0.  1.
<mgrwt>
<rscale>  0 0.84039130E+02</rscale>
<asrwt>0</asrwt>
<pdfrwt beam="1">  1        1 0.26878308E-01 0.84039130E+02</pdfrwt>
<pdfrwt beam="2">  1       -2 0.15547997E-02 0.84039130E+02</pdfrwt>
<totfact> 0.14243459E+05</totfact>
</mgrwt>
</event>
<event>
 8    1  0.1372337E-024  0.7974047E+02  0.7818608E-02  0.1329790E+00
          1   -1    0    0  501    0  0.00000000000E+00  0.00000000000E+00  0.98189232340E+02  0.98189232470E+02  0.50400000000E-02 0. -1.
         -2   -1    0    0    0  501 -0.00000000000E+00 -0.00000000000E+00 -0.16189509607E+02  0.16189509807E+02  0.25500000000E-02 0.  1.
        -24    2    1    2    0    0  0.00000000000E+00  0.00000000000E+00  0.81999722734E+02  0.11437874228E+03  0.79740467496E+02 0.  0.
         66    2    3    3    0    0  0.25942485329E+01  0.28400082367E+02  0.11110346210E+01  0.28609949394E+02  0.20000006252E+01 0.  0.
         13    1    3    3    0    0 -0.25942485329E+01 -0.28400082367E+02  0.80888688113E+02  0.85768792883E+02  0.10566000000E+00 0. -1.
         13    1    4    4    0    0 -0.36509783840E-01  0.34009605027E+00 -0.13330275114E+00  0.38201040141E+00  0.10566000000E+00 0. -1.
        -13    1    4    4    0    0  0.19233032431E+01  0.21141785031E+02  0.13578763614E+01  0.21272732827E+02  0.10566000000E+00 0.  1.
        -14    1    4    4    0    0  0.70745507364E+00  0.69182012857E+01 -0.11353898926E+00  0.69552061661E+01  0.00000000000E+00 0.  1.
<mgrwt>
<rscale>  0 0.79740467E+02</rscale>
<asrwt>0</asrwt>
<pdfrwt beam="1">  1        1 0.15106036E-01 0.79740467E+02</pdfrwt>
<pdfrwt beam="2">  1       -2 0.24906937E-02 0.79740467E+02</pdfrwt>
<totfact> 0.14783406E+05</totfact>
</mgrwt>
</event>
<event>
 8    1  0.1372337E-024  0.7521721E+02  0.7818608E-02  0.1343200E+00
          1   -1    0    0  501    0  0.00000000000E+00  0.00000000000E+00  0.18107827505E+03  0.18107827512E+03  0.50400000000E-02 0. -1.
         -2   -1    0    0    0  501 -0.00000000000E+00 -0.00000000000E+00 -0.78110261038E+01  0.78110265201E+01  0.25500000000E-02 0.  1.
        -24    2    1    2    0    0  0.35527136788E-14 -0.17763568394E-14  0.17326724894E+03  0.18888930164E+03  0.75217210242E+02 0.  0.
         66    2    3    3    0    0 -0.27378535114E+02  0.86244315073E+01  0.25777461879E+02  0.38632143884E+02  0.19999990750E+01 0.  0.
         13    1    3    3    0    0  0.27378535114E+02 -0.86244315073E+01  0.14748978706E+03  0.15025715775E+03  0.10566000000E+00 0. -1.
         13    1    4    4    0    0 -0.43384190071E+01  0.19139317236E+01  0.37936494588E+01  0.60735454535E+01  0.10566000000E+00 0. -1.
        -13    1    4    4    0    0 -0.12995536428E+02  0.33137180207E+01  0.12132378678E+02  0.18085089731E+02  0.10566000000E+00 0.  1.
        -14    1    4    4    0    0 -0.10044579679E+02  0.33967817630E+01  0.98514337419E+01  0.14473508699E+02  0.00000000000E+00 0.  1.
<mgrwt>
<rscale>  0 0.75217210E+02</rscale>
<asrwt>0</asrwt>
<pdfrwt beam="1">  1        1 0.27858196E-01 0.75217210E+02</pdfrwt>
<pdfrwt beam="2">  1       -2 0.12016964E-02 0.75217210E+02</pdfrwt>
<totfact> 0.19261063E+05</totfact>
</mgrwt>
</event>
<event>
 8    1  0.1372337E-024  0.8131345E+02  0.7818608E-02  0.1325365E+00
         -2   -1    0    0    0  501 -0.00000000000E+00  0.00000000000E+00  0.74995780623E+02  0.74995780667E+02  0.25500000000E-02 0.  1.
          1   -1    0    0  501    0  0.00000000000E+00 -0.00000000000E+00 -0.22040828568E+02  0.22040829144E+02  0.50400000000E-02 0. -1.
        -24    2    1    2    0    0  0.00000000000E+00  0.35527136788E-14  0.52954952055E+02  0.97036609811E+02  0.81313447206E+02 0.  0.
         66    2    3    3    0    0 -0.27877158759E+02 -0.20348859260E+02  0.52081377186E+02  0.62511454478E+02  0.20000094416E+01 0.  0.
         13    1    3    3    0    0  0.27877158759E+02  0.20348859260E+02  0.87357486961E+00  0.34525155333E+02  0.10566000000E+00 0. -1.
         13    1    4    4    0    0 -0.15795050293E+01 -0.16222266907E+01  0.29195199589E+01  0.36961082776E+01  0.10566000000E+00 0. -1.
        -13    1    4    4    0    0 -0.21612569199E+02 -0.15495496028E+02  0.40357251204E+02  0.48331484907E+02  0.10566000000E+00 0.  1.
         14    1    4    4    0    0 -0.46850845303E+01 -0.32311365419E+01  0.88046060229E+01  0.10483861294E+02  0.00000000000E+00 0. -1.
<mgrwt>
<rscale>  0 0.81313447E+02</rscale>
<asrwt>0</asrwt>
<pdfrwt beam="1">  1        1 0.33908967E-02 0.81313447E+02</pdfrwt>
<pdfrwt beam="2">  1       -2 0.11537812E-01 0.81313447E+02</pdfrwt>
<totfact> 0.10870227E+05</totfact>
</mgrwt>
</event>
<event>
 8    1  0.1372337E-024  0.8020107E+02  0.7818608E-02  0.1328482E+00
          1   -1    0    0  501    0  0.00000000000E+00  0.00000000000E+00  0.24773994056E+03  0.24773994061E+03  0.50400000000E-02 0. -1.
         -2   -1    0    0    0  501 -0.00000000000E+00 -0.00000000000E+00 -0.64908898969E+01  0.64908903978E+01  0.25500000000E-02 0.  1.
        -24    2    1    2    0    0  0.17763568394E-14  0.00000000000E+00  0.24124905066E+03  0.25423083101E+03  0.80201066014E+02 0.  0.
         66    2    3    3    0    0 -0.12478795935E+02 -0.37680127998E+02  0.10318273067E+03  0.11057209555E+03  0.20000028454E+01 0.  0.
         13    1    3    3    0    0  0.12478795935E+02  0.37680127998E+02  0.13806632000E+03  0.14365873546E+03  0.10566000000E+00 0. -1.
         13    1    4    4    0    0 -0.28347423448E+01 -0.76258885700E+01  0.22187957515E+02  0.23632743458E+02  0.10566000000E+00 0. -1.
        -13    1    4    4    0    0 -0.54292897194E+01 -0.14741409851E+02  0.39604551549E+02  0.42606549011E+02  0.10566000000E+00 0.  1.
         14    1    4    4    0    0 -0.42147638704E+01 -0.15312829577E+02  0.41390221606E+02  0.44332803077E+02  0.00000000000E+00 0. -1.
<mgrwt>
<rscale>  0 0.80201066E+02</rscale>
<asrwt>0</asrwt>
<pdfrwt beam="1">  1        1 0.38113836E-01 0.80201066E+02</pdfrwt>
<pdfrwt beam="2">  1       -2 0.99859851E-03 0.80201066E+02</pdfrwt>
<totfact> 0.17269464E+05</totfact>
</mgrwt>
</event>
<event>
 8    1  0.1372337E-024  0.7932039E+02  0.7818608E-02  0.1330991E+00
          1   -1    0    0  501    0  0.00000000000E+00  0.00000000000E+00  0.35088484288E+02  0.35088484650E+02  0.50400000000E-02 0. -1.
         -2   -1    0    0    0  501 -0.00000000000E+00 -0.00000000000E+00 -0.44827557533E+02  0.44827557606E+02  0.25500000000E-02 0.  1.
        -24    2    1    2    0    0 -0.35527136788E-14  0.00000000000E+00 -0.97390732456E+01  0.79916042256E+02  0.79320389952E+02 0.  0.
         66    2    3    3    0    0  0.28396819424E+02 -0.43186589204E+01 -0.32388810733E+02  0.43336649962E+02  0.20000002453E+01 0.  0.
         13    1    3    3    0    0 -0.28396819424E+02  0.43186589204E+01  0.22649737488E+02  0.36579392293E+02  0.10566000000E+00 0. -1.
         13    1    4    4    0    0  0.84303222104E+01 -0.20688012114E+01 -0.93568870289E+01  0.12763728685E+02  0.10566000000E+00 0. -1.
        -13    1    4    4    0    0  0.46896846034E+01 -0.24766562203E+00 -0.54900565103E+01  0.72253971837E+01  0.10566000000E+00 0. -1.
        -14    1    4    4    0    0  0.15276812610E+02 -0.20021920870E+01 -0.17541867194E+02  0.23347524094E+02  0.00000000000E+00 0.  1.
<mgrwt>
<rscale>  0 0.79320390E+02</rscale>
<asrwt>0</asrwt>
<pdfrwt beam="1">  1        1 0.53982284E-02 0.79320390E+02</pdfrwt>
<pdfrwt beam="2">  1       -2 0.68965473E-02 0.79320390E+02</pdfrwt>
<totfact> 0.12730463E+05</totfact>
</mgrwt>
</event>
<event>
 8    1  0.1372337E-024  0.7959730E+02  0.7818608E-02  0.1330198E+00
         -2   -1    0    0    0  501 -0.00000000000E+00  0.00000000000E+00  0.27273045464E+02  0.27273045584E+02  0.25500000000E-02 0.  1.
          1   -1    0    0  501    0  0.00000000000E+00 -0.00000000000E+00 -0.58076850775E+02  0.58076850994E+02  0.50400000000E-02 0. -1.
        -24    2    1    2    0    0 -0.35527136788E-14 -0.35527136788E-14 -0.30803805311E+02  0.85349896577E+02  0.79597301613E+02 0.  0.
         66    2    3    3    0    0  0.11966904264E+02  0.21106621786E+02  0.18381643457E+02  0.30505427254E+02  0.19999987325E+01 0.  0.
         13    1    3    3    0    0 -0.11966904264E+02 -0.21106621786E+02 -0.49185448767E+02  0.54844469323E+02  0.10566000000E+00 0. -1.
         13    1    4    4    0    0  0.80841554280E+01  0.15942226015E+02  0.13641985354E+02  0.22486063856E+02  0.10566000000E+00 0.  1.
        -13    1    4    4    0    0  0.27010611023E+01  0.33820996014E+01  0.32310167032E+01  0.54023107801E+01  0.10566000000E+00 0. -1.
        -14    1    4    4    0    0  0.11816877333E+01  0.17822961697E+01  0.15086413990E+01  0.26170526182E+01  0.00000000000E+00 0.  1.
<mgrwt>
<rscale>  0 0.79597302E+02</rscale>
<asrwt>0</asrwt>
<pdfrwt beam="1">  1        1 0.89349002E-02 0.79597302E+02</pdfrwt>
<pdfrwt beam="2">  1       -2 0.41958532E-02 0.79597302E+02</pdfrwt>
<totfact> 0.13658510E+05</totfact>
</mgrwt>
</event>
<event>
 8    1  0.1372337E-024  0.8002075E+02  0.7818608E-02  0.1328993E+00
          1   -1    0    0  501    0  0.00000000000E+00  0.00000000000E+00  0.41969279330E+03  0.41969279333E+03  0.50400000000E-02 0. -1.
         -2   -1    0    0    0  501 -0.00000000000E+00 -0.00000000000E+00 -0.38142897610E+01  0.38142906134E+01  0.25500000000E-02 0.  1.
        -24    2    1    2    0    0  0.71054273576E-14 -0.17763568394E-14  0.41587850354E+03  0.42350708394E+03  0.80020750088E+02 0.  0.
         66    2    3    3    0    0 -0.36092595817E+02 -0.12455131337E+02  0.27091765294E+03  0.27360223032E+03  0.19999981058E+01 0.  0.
         13    1    3    3    0    0  0.36092595817E+02  0.12455131337E+02  0.14496085060E+03  0.14990485362E+03  0.10566000000E+00 0. -1.
         13    1    4    4    0    0 -0.13087730229E+02 -0.39590455318E+01  0.10247482393E+03  0.10338309062E+03  0.10566000000E+00 0. -1.
        -13    1    4    4    0    0 -0.15935422213E+02 -0.57667356162E+01  0.11733981590E+03  0.11855731306E+03  0.10566000000E+00 0.  1.
         14    1    4    4    0    0 -0.70694433745E+01 -0.27293501887E+01  0.51103013116E+02  0.51661826638E+02  0.00000000000E+00 0. -1.
<mgrwt>
<rscale>  0 0.80020750E+02</rscale>
<asrwt>0</asrwt>
<pdfrwt beam="1">  1        1 0.64568068E-01 0.80020750E+02</pdfrwt>
<pdfrwt beam="2">  1       -2 0.58681437E-03 0.80020750E+02</pdfrwt>
<totfact> 0.19126810E+05</totfact>
</mgrwt>
</event>
<event>
 8    1  0.1372337E-024  0.8027077E+02  0.7818608E-02  0.1328285E+00
         -2   -1    0    0    0  501 -0.00000000000E+00  0.00000000000E+00  0.25352418458E+02  0.25352418586E+02  0.25500000000E-02 0.  1.
          1   -1    0    0  501    0  0.00000000000E+00 -0.00000000000E+00 -0.63538288776E+02  0.63538288976E+02  0.50400000000E-02 0. -1.
        -24    2    1    2    0    0  0.35527136788E-14  0.00000000000E+00 -0.38185870319E+02  0.88890707562E+02  0.80270774251E+02 0.  0.
         66    2    3    3    0    0  0.29406613390E+02 -0.19135899538E+02  0.24227996652E+01  0.35225012709E+02  0.19999999877E+01 0.  0.
         13    1    3    3    0    0 -0.29406613390E+02  0.19135899538E+02 -0.40608669984E+02  0.53665694853E+02  0.10566000000E+00 0. -1.
         13    1    4    4    0    0  0.18745024479E+02 -0.11215208692E+02  0.13103818558E+01  0.21883443819E+02  0.10566000000E+00 0. -1.
        -13    1    4    4    0    0  0.24640795217E+01 -0.21270194382E+01  0.25736967201E+00  0.32670021064E+01  0.10566000000E+00 0.  1.
         14    1    4    4    0    0  0.81975093886E+01 -0.57936714080E+01  0.85504813732E+00  0.10074566784E+02  0.00000000000E+00 0. -1.
<mgrwt>
<rscale>  0 0.80270774E+02</rscale>
<asrwt>0</asrwt>
<pdfrwt beam="1">  1        1 0.97751214E-02 0.80270774E+02</pdfrwt>
<pdfrwt beam="2">  1       -2 0.39003721E-02 0.80270774E+02</pdfrwt>
<totfact> 0.13534236E+05</totfact>
</mgrwt>
</event>
<event>
 8    1  0.1372337E-024  0.7996870E+02  0.7818608E-02  0.1329140E+00
         -2   -1    0    0    0  501 -0.00000000000E+00  0.00000000000E+00  0.34038975879E+03  0.34038975880E+03  0.25500000000E-02 0.  1.
          1   -1    0    0  501    0  0.00000000000E+00 -0.00000000000E+00 -0.46968154075E+01  0.46968181117E+01  0.50400000000E-02 0. -1.
        -24    2    1    2    0    0  0.00000000000E+00 -0.88817841970E-15  0.33569294338E+03  0.34508657691E+03  0.79968702174E+02 0.  0.
         66    2    3    3    0    0 -0.17670170254E+02  0.44875322475E+01  0.32139349943E+03  0.32191637786E+03  0.19999997822E+01 0.  0.
         13    1    3    3    0    0  0.17670170254E+02 -0.44875322475E+01  0.14299443953E+02  0.23170199048E+02  0.10566000000E+00 0. -1.
         13    1    4    4    0    0 -0.15541040778E+01 -0.10433950899E-01  0.30711325757E+02  0.30750805553E+02  0.10566000000E+00 0. -1.
        -13    1    4    4    0    0 -0.11078171970E+02  0.29427421249E+01  0.20768685338E+03  0.20800294675E+03  0.10566000000E+00 0.  1.
         14    1    4    4    0    0 -0.50378942062E+01  0.15552240735E+01  0.82995320284E+02  0.83162625554E+02  0.00000000000E+00 0. -1.
<mgrwt>
<rscale>  0 0.79968702E+02</rscale>
<asrwt>0</asrwt>
<pdfrwt beam="1">  1        1 0.72258731E-03 0.79968702E+02</pdfrwt>
<pdfrwt beam="2">  1       -2 0.52367647E-01 0.79968702E+02</pdfrwt>
<totfact> 0.65464339E+04</totfact>
</mgrwt>
</event>
<event>
 8    1  0.1372337E-024  0.8062398E+02  0.7818608E-02  0.1327290E+00
         -2   -1    0    0    0  501 -0.00000000000E+00  0.00000000000E+00  0.31551613270E+03  0.31551613271E+03  0.25500000000E-02 0.  1.
          1   -1    0    0  501    0  0.00000000000E+00 -0.00000000000E+00 -0.51504691695E+01  0.51504716354E+01  0.50400000000E-02 0. -1.
        -24    2    1    2    0    0  0.00000000000E+00 -0.71054273576E-14  0.31036566353E+03  0.32066660435E+03  0.80623979336E+02 0.  0.
         66    2    3    3    0    0 -0.46473083638E+01 -0.32846202716E+02  0.24619950324E+03  0.24843241716E+03  0.19999982322E+01 0.  0.
         13    1    3    3    0    0  0.46473083638E+01  0.32846202716E+02  0.64166160299E+02  0.72234187193E+02  0.10566000000E+00 0. -1.
         13    1    4    4    0    0 -0.53748479547E-01 -0.24712157073E+00  0.13016341837E+01  0.13301780157E+01  0.10566000000E+00 0. -1.
        -13    1    4    4    0    0 -0.32150045786E+01 -0.19827183728E+02  0.14941469409E+03  0.15075879890E+03  0.10566000000E+00 0.  1.
         14    1    4    4    0    0 -0.13785553056E+01 -0.12771897418E+02  0.95483174958E+02  0.96343440246E+02  0.00000000000E+00 0. -1.
<mgrwt>
<rscale>  0 0.80623979E+02</rscale>
<asrwt>0</asrwt>
<pdfrwt beam="1">  1        1 0.79237966E-03 0.80623979E+02</pdfrwt>
<pdfrwt beam="2">  1       -2 0.48540968E-01 0.80623979E+02</pdfrwt>
<totfact> 0.66976307E+04</totfact>
</mgrwt>
</event>
<event>
 8    1  0.1372337E-024  0.8014171E+02  0.7818608E-02  0.1328650E+00
         -2   -1    0    0    0  501 -0.00000000000E+00  0.00000000000E+00  0.19174934057E+02  0.19174934227E+02  0.25500000000E-02 0.  1.
          1   -1    0    0  501    0  0.00000000000E+00 -0.00000000000E+00 -0.83738139296E+02  0.83738139447E+02  0.50400000000E-02 0. -1.
        -24    2    1    2    0    0  0.00000000000E+00  0.35527136788E-14 -0.64563205238E+02  0.10291307367E+03  0.80141707384E+02 0.  0.
         66    2    3    3    0    0  0.17943975993E+02 -0.19933822382E+02  0.58855528867E+01  0.27531496120E+02  0.19999991570E+01 0.  0.
         13    1    3    3    0    0 -0.17943975993E+02  0.19933822382E+02 -0.70448758125E+02  0.75381577554E+02  0.10566000000E+00 0. -1.
         13    1    4    4    0    0  0.87652905142E+01 -0.99804091614E+01  0.28639319095E+01  0.13588677450E+02  0.10566000000E+00 0.  1.
        -13    1    4    4    0    0  0.43617488926E+01 -0.37208456012E+01  0.12308879756E+01  0.58647928041E+01  0.10566000000E+00 0. -1.
         14    1    4    4    0    0  0.48169365866E+01 -0.62325676189E+01  0.17907330015E+01  0.80780258657E+01  0.00000000000E+00 0. -1.
<mgrwt>
<rscale>  0 0.80141707E+02</rscale>
<asrwt>0</asrwt>
<pdfrwt beam="1">  1        1 0.12882790E-01 0.80141707E+02</pdfrwt>
<pdfrwt beam="2">  1       -2 0.29499899E-02 0.80141707E+02</pdfrwt>
<totfact> 0.14205898E+05</totfact>
</mgrwt>
</event>
<event>
 8    1  0.1372337E-024  0.7735537E+02  0.7818608E-02  0.1336729E+00
          1   -1    0    0  501    0  0.00000000000E+00  0.00000000000E+00  0.87940660476E+02  0.87940660621E+02  0.50400000000E-02 0. -1.
         -2   -1    0    0    0  501 -0.00000000000E+00 -0.00000000000E+00 -0.17011055331E+02  0.17011055522E+02  0.25500000000E-02 0.  1.
        -24    2    1    2    0    0  0.35527136788E-14  0.00000000000E+00  0.70929605146E+02  0.10495171614E+03  0.77355373667E+02 0.  0.
         66    2    3    3    0    0  0.16100016278E+02 -0.33899661921E+02  0.22938642551E+02  0.44029296154E+02  0.19999988104E+01 0.  0.
         13    1    3    3    0    0 -0.16100016278E+02  0.33899661921E+02  0.47990962595E+02  0.60922419989E+02  0.10566000000E+00 0. -1.
         13    1    4    4    0    0  0.44311420242E+00 -0.84370815732E+00  0.87667313943E+00  0.12991972445E+01  0.10566000000E+00 0. -1.
        -13    1    4    4    0    0  0.72759290508E+01 -0.14554256402E+02  0.10328668821E+02  0.19273247952E+02  0.10566000000E+00 0.  1.
         14    1    4    4    0    0  0.83809730243E+01 -0.18501697361E+02  0.11733300590E+02  0.23456850957E+02  0.00000000000E+00 0. -1.
<mgrwt>
<rscale>  0 0.77355374E+02</rscale>
<asrwt>0</asrwt>
<pdfrwt beam="1">  1        1 0.13529332E-01 0.77355374E+02</pdfrwt>
<pdfrwt beam="2">  1       -2 0.26170855E-02 0.77355374E+02</pdfrwt>
<totfact> 0.15760242E+05</totfact>
</mgrwt>
</event>
<event>
 8    1  0.1372337E-024  0.8088208E+02  0.7818608E-02  0.1326567E+00
         -2   -1    0    0    0  501 -0.00000000000E+00  0.00000000000E+00  0.72655986803E+01  0.72655991277E+01  0.25500000000E-02 0.  1.
          1   -1    0    0  501    0  0.00000000000E+00 -0.00000000000E+00 -0.22509881910E+03  0.22509881916E+03  0.50400000000E-02 0. -1.
        -24    2    1    2    0    0  0.00000000000E+00  0.71054273576E-14 -0.21783322042E+03  0.23236441828E+03  0.80882080624E+02 0.  0.
         66    2    3    3    0    0 -0.71550685390E+01 -0.36090761249E+02 -0.60933341295E+02  0.71208216769E+02  0.20000001816E+01 0.  0.
         13    1    3    3    0    0  0.71550685390E+01  0.36090761249E+02 -0.15689987912E+03  0.16115620152E+03  0.10566000000E+00 0. -1.
         13    1    4    4    0    0 -0.13205510512E+01 -0.77299090564E+01 -0.13549827566E+02  0.15655808513E+02  0.10566000000E+00 0.  1.
        -13    1    4    4    0    0 -0.26593632361E+01 -0.95619753097E+01 -0.16814128027E+02  0.19525103072E+02  0.10566000000E+00 0.  1.
        -14    1    4    4    0    0 -0.31751542518E+01 -0.18798876883E+02 -0.30569385702E+02  0.36027305184E+02  0.00000000000E+00 0.  1.
<mgrwt>
<rscale>  0 0.80882081E+02</rscale>
<asrwt>0</asrwt>
<pdfrwt beam="1">  1        1 0.34630582E-01 0.80882081E+02</pdfrwt>
<pdfrwt beam="2">  1       -2 0.11177846E-02 0.80882081E+02</pdfrwt>
<totfact> 0.16573588E+05</totfact>
</mgrwt>
</event>
<event>
 8    1  0.1372337E-024  0.8168317E+02  0.7818608E-02  0.1324342E+00
         -2   -1    0    0    0  501 -0.00000000000E+00  0.00000000000E+00  0.11709902879E+03  0.11709902882E+03  0.25500000000E-02 0.  1.
          1   -1    0    0  501    0  0.00000000000E+00 -0.00000000000E+00 -0.14244652470E+02  0.14244653362E+02  0.50400000000E-02 0. -1.
        -24    2    1    2    0    0  0.00000000000E+00  0.00000000000E+00  0.10285437632E+03  0.13134368218E+03  0.81683169138E+02 0.  0.
         66    2    3    3    0    0 -0.13559293530E+02 -0.36866145001E+02  0.33620174664E+02  0.51742470310E+02  0.20000002479E+01 0.  0.
         13    1    3    3    0    0  0.13559293530E+02  0.36866145001E+02  0.69234201654E+02  0.79601211869E+02  0.10566000000E+00 0. -1.
         13    1    4    4    0    0 -0.26107625889E+01 -0.55514976248E+01  0.49166347972E+01  0.78625485015E+01  0.10566000000E+00 0. -1.
        -13    1    4    4    0    0 -0.60560561399E+01 -0.16891542677E+02  0.14874374299E+02  0.23307900052E+02  0.10566000000E+00 0.  1.
         14    1    4    4    0    0 -0.48924748013E+01 -0.14423104699E+02  0.13829165568E+02  0.20572021757E+02  0.00000000000E+00 0. -1.
<mgrwt>
<rscale>  0 0.81683169E+02</rscale>
<asrwt>0</asrwt>
<pdfrwt beam="1">  1        1 0.21914850E-02 0.81683169E+02</pdfrwt>
<pdfrwt beam="2">  1       -2 0.18015236E-01 0.81683169E+02</pdfrwt>
<totfact> 0.96535002E+04</totfact>
</mgrwt>
</event>
<event>
 8    1  0.1372337E-024  0.7743554E+02  0.7818608E-02  0.1336491E+00
         -2   -1    0    0    0  501 -0.00000000000E+00  0.00000000000E+00  0.13036034384E+02  0.13036034633E+02  0.25500000000E-02 0.  1.
          1   -1    0    0  501    0  0.00000000000E+00 -0.00000000000E+00 -0.11499398937E+03  0.11499398948E+03  0.50400000000E-02 0. -1.
        -24    2    1    2    0    0 -0.35527136788E-14  0.35527136788E-14 -0.10195795499E+03  0.12803002412E+03  0.77435537641E+02 0.  0.
         66    2    3    3    0    0  0.16035137935E+02 -0.17897865676E+02 -0.87438981268E+00  0.24129314027E+02  0.19999983763E+01 0.  0.
         13    1    3    3    0    0 -0.16035137935E+02  0.17897865676E+02 -0.10108356518E+03  0.10390071009E+03  0.10566000000E+00 0. -1.
         13    1    4    4    0    0  0.31655920732E+01 -0.37124647010E+01  0.36819310964E+00  0.48938836860E+01  0.10566000000E+00 0. -1.
        -13    1    4    4    0    0  0.15893058149E+01 -0.17622970269E+01  0.25179360841E+00  0.23887544539E+01  0.10566000000E+00 0.  1.
        -14    1    4    4    0    0  0.11280240047E+02 -0.12423103949E+02 -0.14943765307E+01  0.16846675887E+02  0.00000000000E+00 0.  1.
<mgrwt>
<rscale>  0 0.77435538E+02</rscale>
<asrwt>0</asrwt>
<pdfrwt beam="1">  1        1 0.17691382E-01 0.77435538E+02</pdfrwt>
<pdfrwt beam="2">  1       -2 0.20055438E-02 0.77435538E+02</pdfrwt>
<totfact> 0.16430726E+05</totfact>
</mgrwt>
</event>
<event>
 8    1  0.1372337E-024  0.7799586E+02  0.7818608E-02  0.1334837E+00
          1   -1    0    0  501    0  0.00000000000E+00  0.00000000000E+00  0.88752546170E+01  0.88752560480E+01  0.50400000000E-02 0. -1.
         -2   -1    0    0    0  501 -0.00000000000E+00 -0.00000000000E+00 -0.17135713748E+03  0.17135713750E+03  0.25500000000E-02 0.  1.
        -24    2    1    2    0    0  0.71054273576E-14 -0.17763568394E-14 -0.16248188287E+03  0.18023239355E+03  0.77995855179E+02 0.  0.
         66    2    3    3    0    0  0.37889038239E+02 -0.87827869875E+01 -0.87009337920E+02  0.95327548160E+02  0.19999967828E+01 0.  0.
         13    1    3    3    0    0 -0.37889038239E+02  0.87827869875E+01 -0.75472544947E+02  0.84904845390E+02  0.10566000000E+00 0. -1.
         13    1    4    4    0    0  0.36648027385E+01 -0.34227974486E+00 -0.85081387444E+01  0.92707887187E+01  0.10566000000E+00 0. -1.
        -13    1    4    4    0    0  0.11336007656E+02 -0.31975037798E+01 -0.26528346137E+02  0.29025737076E+02  0.10566000000E+00 0.  1.
         14    1    4    4    0    0  0.22888227844E+02 -0.52430034628E+01 -0.51972853038E+02  0.57031022365E+02  0.00000000000E+00 0. -1.
<mgrwt>
<rscale>  0 0.77995855E+02</rscale>
<asrwt>0</asrwt>
<pdfrwt beam="1">  1        1 0.13654240E-02 0.77995855E+02</pdfrwt>
<pdfrwt beam="2">  1       -2 0.26362634E-01 0.77995855E+02</pdfrwt>
<totfact> 0.96365262E+04</totfact>
</mgrwt>
</event>
<event>
 8    1  0.1372337E-024  0.8189801E+02  0.7818608E-02  0.1323750E+00
         -2   -1    0    0    0  501 -0.00000000000E+00  0.00000000000E+00  0.37811233584E+02  0.37811233670E+02  0.25500000000E-02 0.  1.
          1   -1    0    0  501    0  0.00000000000E+00 -0.00000000000E+00 -0.44347168126E+02  0.44347168412E+02  0.50400000000E-02 0. -1.
        -24    2    1    2    0    0  0.00000000000E+00  0.71054273576E-14 -0.65359345425E+01  0.82158402082E+02  0.81898013360E+02 0.  0.
         66    2    3    3    0    0 -0.16327318909E+02 -0.36956649617E+02  0.32654676029E+01  0.40583722989E+02  0.19999998352E+01 0.  0.
         13    1    3    3    0    0  0.16327318909E+02  0.36956649617E+02 -0.98014021455E+01  0.41574679093E+02  0.10566000000E+00 0. -1.
         13    1    4    4    0    0 -0.20877541901E+01 -0.63964082192E+01  0.47662005430E+00  0.67461905085E+01  0.10566000000E+00 0. -1.
        -13    1    4    4    0    0 -0.42929804128E+01 -0.92462143398E+01  0.11593153470E+01  0.10260474480E+02  0.10566000000E+00 0.  1.
         14    1    4    4    0    0 -0.99465843059E+01 -0.21314027058E+02  0.16295322016E+01  0.23577058001E+02  0.00000000000E+00 0. -1.
<mgrwt>
<rscale>  0 0.81898013E+02</rscale>
<asrwt>0</asrwt>
<pdfrwt beam="1">  1        1 0.68226413E-02 0.81898013E+02</pdfrwt>
<pdfrwt beam="2">  1       -2 0.58171129E-02 0.81898013E+02</pdfrwt>
<totfact> 0.12087780E+05</totfact>
</mgrwt>
</event>
<event>
 8    1  0.1372337E-024  0.7942308E+02  0.7818608E-02  0.1330697E+00
         -2   -1    0    0    0  501 -0.00000000000E+00  0.00000000000E+00  0.12940770159E+03  0.12940770161E+03  0.25500000000E-02 0.  1.
          1   -1    0    0  501    0  0.00000000000E+00 -0.00000000000E+00 -0.12186341899E+02  0.12186342941E+02  0.50400000000E-02 0. -1.
        -24    2    1    2    0    0  0.00000000000E+00  0.00000000000E+00  0.11722135969E+03  0.14159404455E+03  0.79423084087E+02 0.  0.
         66    2    3    3    0    0 -0.37113474693E+02 -0.12560410012E+02  0.69898738555E+02  0.80156144700E+02  0.19999945278E+01 0.  0.
         13    1    3    3    0    0  0.37113474693E+02  0.12560410012E+02  0.47322621133E+02  0.61437899853E+02  0.10566000000E+00 0. -1.
         13    1    4    4    0    0 -0.69407141800E+01 -0.16915999939E+01  0.12245414573E+02  0.14177318716E+02  0.10566000000E+00 0. -1.
        -13    1    4    4    0    0 -0.25498161885E+02 -0.95104141798E+01  0.48774818999E+02  0.55853364893E+02  0.10566000000E+00 0.  1.
        -14    1    4    4    0    0 -0.46745986285E+01 -0.13583958378E+01  0.88785049824E+01  0.10125461091E+02  0.00000000000E+00 0.  1.
<mgrwt>
<rscale>  0 0.79423084E+02</rscale>
<asrwt>0</asrwt>
<pdfrwt beam="1">  1        1 0.18748220E-02 0.79423084E+02</pdfrwt>
<pdfrwt beam="2">  1       -2 0.19908877E-01 0.79423084E+02</pdfrwt>
<totfact> 0.10082465E+05</totfact>
</mgrwt>
</event>
<event>
 8    1  0.1372337E-024  0.7913935E+02  0.7818608E-02  0.1331512E+00
         -2   -1    0    0    0  501 -0.00000000000E+00  0.00000000000E+00  0.25886593002E+03  0.25886593003E+03  0.25500000000E-02 0.  1.
          1   -1    0    0  501    0  0.00000000000E+00 -0.00000000000E+00 -0.60485324786E+01  0.60485345785E+01  0.50400000000E-02 0. -1.
        -24    2    1    2    0    0 -0.88817841970E-15  0.71054273576E-14  0.25281739754E+03  0.26491446461E+03  0.79139352161E+02 0.  0.
         66    2    3    3    0    0  0.70886431628E+01  0.38680080657E+02  0.11254325360E+03  0.11923246804E+03  0.20000008102E+01 0.  0.
         13    1    3    3    0    0 -0.70886431628E+01 -0.38680080657E+02  0.14027414394E+03  0.14568199657E+03  0.10566000000E+00 0. -1.
         13    1    4    4    0    0  0.11353879303E+01  0.54598705348E+01  0.17405442395E+02  0.18277305080E+02  0.10566000000E+00 0. -1.
        -13    1    4    4    0    0  0.30619965175E+01  0.16770160616E+02  0.49994331974E+02  0.52821004376E+02  0.10566000000E+00 0.  1.
         14    1    4    4    0    0  0.28912587151E+01  0.16450049506E+02  0.45143479231E+02  0.48134158586E+02  0.00000000000E+00 0. -1.
<mgrwt>
<rscale>  0 0.79139352E+02</rscale>
<asrwt>0</asrwt>
<pdfrwt beam="1">  1        1 0.93054355E-03 0.79139352E+02</pdfrwt>
<pdfrwt beam="2">  1       -2 0.39825531E-01 0.79139352E+02</pdfrwt>
<totfact> 0.77975458E+04</totfact>
</mgrwt>
</event>
<event>
 8    1  0.1372337E-024  0.7819981E+02  0.7818608E-02  0.1334239E+00
          1   -1    0    0  501    0  0.00000000000E+00  0.00000000000E+00  0.27981890165E+01  0.27981935555E+01  0.50400000000E-02 0. -1.
         -2   -1    0    0    0  501 -0.00000000000E+00 -0.00000000000E+00 -0.54635391001E+03  0.54635391001E+03  0.25500000000E-02 0.  1.
        -24    2    1    2    0    0  0.00000000000E+00  0.00000000000E+00 -0.54355572099E+03  0.54915210357E+03  0.78199814783E+02 0.  0.
         66    2    3    3    0    0  0.13485009071E+02 -0.17965612296E+02 -0.49647385482E+03  0.49698581196E+03  0.20000167651E+01 0.  0.
         13    1    3    3    0    0 -0.13485009071E+02  0.17965612296E+02 -0.47081866167E+02  0.52166291613E+02  0.10566000000E+00 0. -1.
         13    1    4    4    0    0  0.22769870127E+01 -0.28770927581E+01 -0.93987090461E+02  0.94058740529E+02  0.10566000000E+00 0. -1.
        -13    1    4    4    0    0  0.17539905693E+00 -0.12304016789E+00 -0.52757250559E+01  0.52811308082E+01  0.10566000000E+00 0. -1.
        -14    1    4    4    0    0  0.11032623001E+02 -0.14965479370E+02 -0.39721103931E+03  0.39764594062E+03  0.00000000000E+00 0.  1.
<mgrwt>
<rscale>  0 0.78199815E+02</rscale>
<asrwt>0</asrwt>
<pdfrwt beam="1">  1        1 0.43049140E-03 0.78199815E+02</pdfrwt>
<pdfrwt beam="2">  1       -2 0.84054363E-01 0.78199815E+02</pdfrwt>
<totfact> 0.49829047E+04</totfact>
</mgrwt>
</event>
<event>
 8    1  0.1372337E-024  0.7843106E+02  0.7818608E-02  0.1333564E+00
         -2   -1    0    0    0  501 -0.00000000000E+00  0.00000000000E+00  0.32985545676E+02  0.32985545775E+02  0.25500000000E-02 0.  1.
          1   -1    0    0  501    0  0.00000000000E+00 -0.00000000000E+00 -0.46622168624E+02  0.46622168896E+02  0.50400000000E-02 0. -1.
        -24    2    1    2    0    0  0.00000000000E+00  0.00000000000E+00 -0.13636622948E+02  0.79607714671E+02  0.78431057303E+02 0.  0.
         66    2    3    3    0    0 -0.13922030793E+01  0.12952567687E+02  0.30693184393E+02  0.33403275253E+02  0.19999975881E+01 0.  0.
         13    1    3    3    0    0  0.13922030793E+01 -0.12952567687E+02 -0.44329807340E+02  0.46204439418E+02  0.10566000000E+00 0. -1.
         13    1    4    4    0    0  0.21139254122E-01  0.38001113150E-01  0.25548391901E+00  0.27986965026E+00  0.10566000000E+00 0. -1.
        -13    1    4    4    0    0 -0.13567580891E+01  0.81673416168E+01  0.20536068199E+02  0.22142437145E+02  0.10566000000E+00 0.  1.
        -14    1    4    4    0    0 -0.56584244342E-01  0.47472249568E+01  0.99016322742E+01  0.10980968457E+02  0.00000000000E+00 0.  1.
<mgrwt>
<rscale>  0 0.78431057E+02</rscale>
<asrwt>0</asrwt>
<pdfrwt beam="1">  1        1 0.71726414E-02 0.78431057E+02</pdfrwt>
<pdfrwt beam="2">  1       -2 0.50746993E-02 0.78431057E+02</pdfrwt>
<totfact> 0.13751332E+05</totfact>
</mgrwt>
</event>
<event>
 8    1  0.1372337E-024  0.8034247E+02  0.7818608E-02  0.1328082E+00
          1   -1    0    0  501    0  0.00000000000E+00  0.00000000000E+00  0.19591133190E+01  0.19591198020E+01  0.50400000000E-02 0. -1.
         -2   -1    0    0    0  501 -0.00000000000E+00 -0.00000000000E+00 -0.82370187012E+03  0.82370187012E+03  0.25500000000E-02 0.  1.
        -24    2    1    2    0    0  0.17763568394E-14  0.35527136788E-14 -0.82174275680E+03  0.82566098992E+03  0.80342466545E+02 0.  0.
         66    2    3    3    0    0  0.93934719663E+01  0.27332674751E+02 -0.69747866925E+03  0.69808008601E+03  0.20000006907E+01 0.  0.
         13    1    3    3    0    0 -0.93934719663E+01 -0.27332674751E+02 -0.12426408755E+03  0.12758090391E+03  0.10566000000E+00 0. -1.
         13    1    4    4    0    0  0.42473715257E+01  0.10268680169E+02 -0.25431231363E+03  0.25455500385E+03  0.10566000000E+00 0. -1.
        -13    1    4    4    0    0  0.44855580060E+01  0.14119334593E+02 -0.36573760118E+03  0.36603753895E+03  0.10566000000E+00 0.  1.
        -14    1    4    4    0    0  0.66054243467E+00  0.29446599889E+01 -0.77428754440E+02  0.77487543211E+02  0.00000000000E+00 0.  1.
<mgrwt>
<rscale>  0 0.80342467E+02</rscale>
<asrwt>0</asrwt>
<pdfrwt beam="1">  1        1 0.30140321E-03 0.80342467E+02</pdfrwt>
<pdfrwt beam="2">  1       -2 0.12672309E+00 0.80342467E+02</pdfrwt>
<totfact> 0.31893866E+04</totfact>
</mgrwt>
</event>
<event>
 8    1  0.1372337E-024  0.8033321E+02  0.7818608E-02  0.1328108E+00
         -2   -1    0    0    0  501 -0.00000000000E+00  0.00000000000E+00  0.19685117366E+02  0.19685117531E+02  0.25500000000E-02 0.  1.
          1   -1    0    0  501    0  0.00000000000E+00 -0.00000000000E+00 -0.81958166484E+02  0.81958166639E+02  0.50400000000E-02 0. -1.
        -24    2    1    2    0    0  0.00000000000E+00  0.00000000000E+00 -0.62273049119E+02  0.10164328417E+03  0.80333209635E+02 0.  0.
         66    2    3    3    0    0  0.10716153125E+02 -0.38684264554E+02 -0.31417887577E+02  0.51013644435E+02  0.19999992032E+01 0.  0.
         13    1    3    3    0    0 -0.10716153125E+02  0.38684264554E+02 -0.30855161541E+02  0.50629639735E+02  0.10566000000E+00 0. -1.
         13    1    4    4    0    0  0.51462021121E+00 -0.25641623109E+01 -0.20777565092E+01  0.33418555423E+01  0.10566000000E+00 0.  1.
        -13    1    4    4    0    0  0.43174446989E+01 -0.17020839491E+02 -0.14642858274E+02  0.22864246504E+02  0.10566000000E+00 0.  1.
        -14    1    4    4    0    0  0.58840882153E+01 -0.19099262752E+02 -0.14697272795E+02  0.24807542389E+02  0.00000000000E+00 0.  1.
<mgrwt>
<rscale>  0 0.80333210E+02</rscale>
<asrwt>0</asrwt>
<pdfrwt beam="1">  1        1 0.12608949E-01 0.80333210E+02</pdfrwt>
<pdfrwt beam="2">  1       -2 0.30284797E-02 0.80333210E+02</pdfrwt>
<totfact> 0.14064779E+05</totfact>
</mgrwt>
</event>
<event>
 8    1  0.1372337E-024  0.7773620E+02  0.7818608E-02  0.1335601E+00
          1   -1    0    0  501    0  0.00000000000E+00  0.00000000000E+00  0.38856482880E+02  0.38856483206E+02  0.50400000000E-02 0. -1.
         -2   -1    0    0    0  501 -0.00000000000E+00 -0.00000000000E+00 -0.38879724617E+02  0.38879724700E+02  0.25500000000E-02 0.  1.
        -24    2    1    2    0    0 -0.35527136788E-14 -0.11102230246E-15 -0.23241737182E-01  0.77736207907E+02  0.77736204432E+02 0.  0.
         66    2    3    3    0    0 -0.18869169434E+02 -0.97201737147E+00 -0.33948837739E+02  0.38903906906E+02  0.20000039583E+01 0.  0.
         13    1    3    3    0    0  0.18869169434E+02  0.97201737147E+00  0.33925596002E+02  0.38832301001E+02  0.10566000000E+00 0. -1.
         13    1    4    4    0    0 -0.10968495125E+02 -0.13561240333E+01 -0.19777985066E+02  0.22656716775E+02  0.10566000000E+00 0. -1.
        -13    1    4    4    0    0 -0.25780801950E+01 -0.11355011122E+00 -0.41061419093E+01  0.48508717294E+01  0.10566000000E+00 0.  1.
         14    1    4    4    0    0 -0.53225941144E+01  0.49765677303E+00 -0.10064710764E+02  0.11396318402E+02  0.00000000000E+00 0. -1.
<mgrwt>
<rscale>  0 0.77736204E+02</rscale>
<asrwt>0</asrwt>
<pdfrwt beam="1">  1        1 0.59779205E-02 0.77736204E+02</pdfrwt>
<pdfrwt beam="2">  1       -2 0.59814961E-02 0.77736204E+02</pdfrwt>
<totfact> 0.13701191E+05</totfact>
</mgrwt>
</event>
<event>
 8    1  0.1372337E-024  0.7958687E+02  0.7818608E-02  0.1330228E+00
         -2   -1    0    0    0  501 -0.00000000000E+00  0.00000000000E+00  0.31211759029E+02  0.31211759134E+02  0.25500000000E-02 0.  1.
          1   -1    0    0  501    0  0.00000000000E+00 -0.00000000000E+00 -0.50734645375E+02  0.50734645626E+02  0.50400000000E-02 0. -1.
        -24    2    1    2    0    0  0.00000000000E+00  0.00000000000E+00 -0.19522886346E+02  0.81946404759E+02  0.79586871793E+02 0.  0.
         66    2    3    3    0    0  0.32611536876E+02 -0.18996825501E+02  0.31388180631E+01  0.37924186196E+02  0.20000008162E+01 0.  0.
         13    1    3    3    0    0 -0.32611536876E+02  0.18996825501E+02 -0.22661704409E+02  0.44022218564E+02  0.10566000000E+00 0. -1.
         13    1    4    4    0    0  0.16214329545E+02 -0.94902229785E+01  0.58311825892E+00  0.18796808391E+02  0.10566000000E+00 0. -1.
        -13    1    4    4    0    0  0.62065663536E+01 -0.34798608808E+01  0.92005261361E+00  0.71755528358E+01  0.10566000000E+00 0.  1.
         14    1    4    4    0    0  0.10190640977E+02 -0.60267416417E+01  0.16356471905E+01  0.11951824968E+02  0.00000000000E+00 0. -1.
<mgrwt>
<rscale>  0 0.79586872E+02</rscale>
<asrwt>0</asrwt>
<pdfrwt beam="1">  1        1 0.78053301E-02 0.79586872E+02</pdfrwt>
<pdfrwt beam="2">  1       -2 0.48018091E-02 0.79586872E+02</pdfrwt>
<totfact> 0.13378376E+05</totfact>
</mgrwt>
</event>
<event>
 8    1  0.1372337E-024  0.7892036E+02  0.7818608E-02  0.1332144E+00
         -2   -1    0    0    0  501 -0.00000000000E+00  0.00000000000E+00  0.14035403982E+03  0.14035403985E+03  0.25500000000E-02 0.  1.
          1   -1    0    0  501    0  0.00000000000E+00 -0.00000000000E+00 -0.11094127494E+02  0.11094128639E+02  0.50400000000E-02 0. -1.
        -24    2    1    2    0    0  0.71054273576E-14  0.00000000000E+00  0.12925991233E+03  0.15144816849E+03  0.78920357339E+02 0.  0.
         66    2    3    3    0    0 -0.34322788167E+02  0.10469526038E+02  0.96053657076E+02  0.10255715382E+03  0.19999998138E+01 0.  0.
         13    1    3    3    0    0  0.34322788167E+02 -0.10469526038E+02  0.33206255254E+02  0.48891014665E+02  0.10566000000E+00 0. -1.
         13    1    4    4    0    0 -0.11730182522E+02  0.38209099853E+01  0.35340129226E+02  0.37431703579E+02  0.10566000000E+00 0.  1.
        -13    1    4    4    0    0 -0.55771351383E+01  0.19009561238E+01  0.14675881226E+02  0.15814889324E+02  0.10566000000E+00 0. -1.
        -14    1    4    4    0    0 -0.17015470506E+02  0.47476599291E+01  0.46037646624E+02  0.49310560918E+02  0.00000000000E+00 0.  1.
<mgrwt>
<rscale>  0 0.78920357E+02</rscale>
<asrwt>0</asrwt>
<pdfrwt beam="1">  1        1 0.17067889E-02 0.78920357E+02</pdfrwt>
<pdfrwt beam="2">  1       -2 0.21592930E-01 0.78920357E+02</pdfrwt>
<totfact> 0.99980449E+04</totfact>
</mgrwt>
</event>
<event>
 8    1  0.1372337E-024  0.8066705E+02  0.7818608E-02  0.1327169E+00
          1   -1    0    0  501    0  0.00000000000E+00  0.00000000000E+00  0.76685686257E+01  0.76685702819E+01  0.50400000000E-02 0. -1.
         -2   -1    0    0    0  501 -0.00000000000E+00 -0.00000000000E+00 -0.21213778906E+03  0.21213778907E+03  0.25500000000E-02 0.  1.
        -24    2    1    2    0    0  0.35527136788E-14  0.17763568394E-14 -0.20446922043E+03  0.21980635935E+03  0.80667053428E+02 0.  0.
         66    2    3    3    0    0 -0.31594450400E+02  0.13602218776E+02 -0.15955556031E+03  0.16323359487E+03  0.20000042621E+01 0.  0.
         13    1    3    3    0    0  0.31594450400E+02 -0.13602218776E+02 -0.44913660119E+02  0.56572764481E+02  0.10566000000E+00 0. -1.
         13    1    4    4    0    0 -0.89592396057E+01  0.40759825214E+01 -0.47486004619E+02  0.48495498827E+02  0.10566000000E+00 0.  1.
        -13    1    4    4    0    0 -0.83597981142E+01  0.37976843188E+01 -0.44989008873E+02  0.45916562525E+02  0.10566000000E+00 0. -1.
         14    1    4    4    0    0 -0.14275412680E+02  0.57285519357E+01 -0.67080546820E+02  0.68821533520E+02  0.00000000000E+00 0. -1.
<mgrwt>
<rscale>  0 0.80667053E+02</rscale>
<asrwt>0</asrwt>
<pdfrwt beam="1">  1        1 0.11797801E-02 0.80667053E+02</pdfrwt>
<pdfrwt beam="2">  1       -2 0.32636579E-01 0.80667053E+02</pdfrwt>
<totfact> 0.81263349E+04</totfact>
</mgrwt>
</event>
<event>
 8    1  0.1372337E-024  0.8402163E+02  0.7818608E-02  0.1318011E+00
          1   -1    0    0  501    0  0.00000000000E+00  0.00000000000E+00  0.46941769360E+03  0.46941769362E+03  0.50400000000E-02 0. -1.
         -2   -1    0    0    0  501 -0.00000000000E+00 -0.00000000000E+00 -0.37597820573E+01  0.37597829221E+01  0.25500000000E-02 0.  1.
        -24    2    1    2    0    0  0.35527136788E-14  0.00000000000E+00  0.46565791154E+03  0.47317747655E+03  0.84021626568E+02 0.  0.
         66    2    3    3    0    0 -0.22748321295E+02  0.35241580538E+02  0.22250283579E+03  0.22643093219E+03  0.20000002992E+01 0.  0.
         13    1    3    3    0    0  0.22748321295E+02 -0.35241580538E+02  0.24315507575E+03  0.24674654435E+03  0.10566000000E+00 0. -1.
         13    1    4    4    0    0 -0.27545558395E+01  0.35880040900E+01  0.26465657770E+02  0.26849647232E+02  0.10566000000E+00 0. -1.
        -13    1    4    4    0    0 -0.17244691797E+02  0.27496977491E+02  0.17093185606E+03  0.17398613090E+03  0.10566000000E+00 0.  1.
        -14    1    4    4    0    0 -0.27490736580E+01  0.41565989573E+01  0.25105321953E+02  0.25595154058E+02  0.00000000000E+00 0.  1.
<mgrwt>
<rscale>  0 0.84021627E+02</rscale>
<asrwt>0</asrwt>
<pdfrwt beam="1">  1        1 0.72218096E-01 0.84021627E+02</pdfrwt>
<pdfrwt beam="2">  1       -2 0.57842816E-03 0.84021627E+02</pdfrwt>
<totfact> 0.17100387E+05</totfact>
</mgrwt>
</event>
<event>
 8    1  0.1372337E-024  0.7836339E+02  0.7818608E-02  0.1333761E+00
         -2   -1    0    0    0  501 -0.00000000000E+00  0.00000000000E+00  0.13114009670E+03  0.13114009672E+03  0.25500000000E-02 0.  1.
          1   -1    0    0  501    0  0.00000000000E+00 -0.00000000000E+00 -0.11706604074E+02  0.11706605159E+02  0.50400000000E-02 0. -1.
        -24    2    1    2    0    0  0.88817841970E-15  0.00000000000E+00  0.11943349263E+03  0.14284670188E+03  0.78363391187E+02 0.  0.
         66    2    3    3    0    0 -0.57664283949E+01  0.23537519151E+02  0.11581996122E+03  0.11834496159E+03  0.20000028472E+01 0.  0.
         13    1    3    3    0    0  0.57664283949E+01 -0.23537519151E+02  0.36135314015E+01  0.24501740295E+02  0.10566000000E+00 0. -1.
         13    1    4    4    0    0 -0.68341570138E+00  0.15583492767E+01  0.74820090990E+01  0.76737952593E+01  0.10566000000E+00 0. -1.
        -13    1    4    4    0    0 -0.51333611521E+01  0.21935469111E+02  0.10778319181E+03  0.11011241438E+03  0.10566000000E+00 0.  1.
         14    1    4    4    0    0  0.50348458573E-01  0.43700763727E-01  0.55476031917E+00  0.55875194475E+00  0.00000000000E+00 0. -1.
<mgrwt>
<rscale>  0 0.78363391E+02</rscale>
<asrwt>0</asrwt>
<pdfrwt beam="1">  1        1 0.18010161E-02 0.78363391E+02</pdfrwt>
<pdfrwt beam="2">  1       -2 0.20175399E-01 0.78363391E+02</pdfrwt>
<totfact> 0.10395105E+05</totfact>
</mgrwt>
</event>
<event>
 8    1  0.1691066E-024  0.8007912E+02  0.7818608E-02  0.1328827E+00
         -2   -1    0    0    0  501 -0.00000000000E+00  0.00000000000E+00  0.60148164581E+01  0.60148169986E+01  0.25500000000E-02 0.  1.
          1   -1    0    0  501    0  0.00000000000E+00 -0.00000000000E+00 -0.26653619423E+03  0.26653619428E+03  0.50400000000E-02 0. -1.
        -24    2    1    2    0    0  0.00000000000E+00  0.00000000000E+00 -0.26052137777E+03  0.27255101127E+03  0.80079120072E+02 0.  0.
         66    2    3    3    0    0  0.74349228968E+01  0.35520494970E+02 -0.72966601261E+02  0.81517535159E+02  0.19999993538E+01 0.  0.
         13    1    3    3    0    0 -0.74349228968E+01 -0.35520494970E+02 -0.18755477651E+03  0.19103347612E+03  0.10566000000E+00 0. -1.
         13    1    4    4    0    0  0.27284469493E+01  0.12251872753E+02 -0.26715711196E+02  0.29517676017E+02  0.10566000000E+00 0. -1.
        -13    1    4    4    0    0  0.31440103078E+01  0.16068650358E+02 -0.32985696453E+02  0.36825991632E+02  0.10566000000E+00 0.  1.
         14    1    4    4    0    0  0.15624656398E+01  0.71999718590E+01 -0.13265193612E+02  0.15173867510E+02  0.00000000000E+00 0. -1.
<mgrwt>
<rscale>  0 0.80079120E+02</rscale>
<asrwt>0</asrwt>
<pdfrwt beam="1">  1        1 0.41005559E-01 0.80079120E+02</pdfrwt>
<pdfrwt beam="2">  1       -2 0.92535663E-03 0.80079120E+02</pdfrwt>
<totfact> 0.17588359E+05</totfact>
</mgrwt>
</event>
<event>
 8    1  0.1372337E-024  0.7880854E+02  0.7818608E-02  0.1332467E+00
         -2   -1    0    0    0  501 -0.00000000000E+00  0.00000000000E+00  0.33154290915E+02  0.33154291013E+02  0.25500000000E-02 0.  1.
          1   -1    0    0  501    0  0.00000000000E+00 -0.00000000000E+00 -0.46832449011E+02  0.46832449283E+02  0.50400000000E-02 0. -1.
        -24    2    1    2    0    0  0.00000000000E+00  0.35527136788E-14 -0.13678158096E+02  0.79986740296E+02  0.78808544043E+02 0.  0.
         66    2    3    3    0    0  0.21931763132E+02 -0.31952719065E+02  0.24035861167E+00  0.38807682984E+02  0.19999991521E+01 0.  0.
         13    1    3    3    0    0 -0.21931763132E+02  0.31952719065E+02 -0.13918516708E+02  0.41179057312E+02  0.10566000000E+00 0. -1.
         13    1    4    4    0    0  0.68915249667E+00 -0.14733816016E+01 -0.18585743134E+00  0.16405765840E+01  0.10566000000E+00 0. -1.
        -13    1    4    4    0    0  0.14874072405E+02 -0.20545195671E+02  0.28460569854E+00  0.25366025694E+02  0.10566000000E+00 0.  1.
         14    1    4    4    0    0  0.63685382305E+01 -0.99341417922E+01  0.14161034448E+00  0.11801080706E+02  0.00000000000E+00 0. -1.
<mgrwt>
<rscale>  0 0.78808544E+02</rscale>
<asrwt>0</asrwt>
<pdfrwt beam="1">  1        1 0.72049922E-02 0.78808544E+02</pdfrwt>
<pdfrwt beam="2">  1       -2 0.51006601E-02 0.78808544E+02</pdfrwt>
<totfact> 0.13578294E+05</totfact>
</mgrwt>
</event>
<event>
 8    1  0.1372337E-024  0.7965117E+02  0.7818608E-02  0.1330044E+00
          1   -1    0    0  501    0  0.00000000000E+00  0.00000000000E+00  0.14556385584E+03  0.14556385593E+03  0.50400000000E-02 0. -1.
         -2   -1    0    0    0  501 -0.00000000000E+00 -0.00000000000E+00 -0.10896092604E+02  0.10896092902E+02  0.25500000000E-02 0.  1.
        -24    2    1    2    0    0 -0.35527136788E-14  0.00000000000E+00  0.13466776324E+03  0.15645994883E+03  0.79651171573E+02 0.  0.
         66    2    3    3    0    0  0.24476285295E+02  0.24121842072E+02  0.27936982376E+02  0.44333134223E+02  0.19999997480E+01 0.  0.
         13    1    3    3    0    0 -0.24476285295E+02 -0.24121842072E+02  0.10673078086E+03  0.11212681461E+03  0.10566000000E+00 0. -1.
         13    1    4    4    0    0  0.12750319909E+02  0.12074680167E+02  0.14168425908E+02  0.22563776626E+02  0.10566000000E+00 0. -1.
        -13    1    4    4    0    0  0.33411994323E+01  0.38252252283E+01  0.34923142340E+01  0.61646885110E+01  0.10566000000E+00 0.  1.
        -14    1    4    4    0    0  0.83847659536E+01  0.82219366774E+01  0.10276242235E+02  0.15604669086E+02  0.00000000000E+00 0.  1.
<mgrwt>
<rscale>  0 0.79651172E+02</rscale>
<asrwt>0</asrwt>
<pdfrwt beam="1">  1        1 0.22394441E-01 0.79651172E+02</pdfrwt>
<pdfrwt beam="2">  1       -2 0.16763218E-02 0.79651172E+02</pdfrwt>
<totfact> 0.15885997E+05</totfact>
</mgrwt>
</event>
<event>
 8    1  0.1372337E-024  0.8171936E+02  0.7818608E-02  0.1324242E+00
          1   -1    0    0  501    0  0.00000000000E+00  0.00000000000E+00  0.40836186062E+02  0.40836186373E+02  0.50400000000E-02 0. -1.
         -2   -1    0    0    0  501 -0.00000000000E+00 -0.00000000000E+00 -0.40883185675E+02  0.40883185754E+02  0.25500000000E-02 0.  1.
        -24    2    1    2    0    0  0.00000000000E+00  0.00000000000E+00 -0.46999612291E-01  0.81719372127E+02  0.81719358612E+02 0.  0.
         66    2    3    3    0    0  0.63994072234E+01  0.40174017865E+02 -0.35737655771E+01  0.40886133627E+02  0.19999995998E+01 0.  0.
         13    1    3    3    0    0 -0.63994072234E+01 -0.40174017865E+02  0.35267659649E+01  0.40833238500E+02  0.10566000000E+00 0. -1.
         13    1    4    4    0    0  0.26891178428E+01  0.16423180909E+02 -0.19698589069E+01  0.16758392944E+02  0.10566000000E+00 0. -1.
        -13    1    4    4    0    0  0.19847717330E+01  0.15280438401E+02 -0.15087753831E+01  0.15482851279E+02  0.10566000000E+00 0.  1.
         14    1    4    4    0    0  0.17255176476E+01  0.84703985553E+01 -0.95131287161E-01  0.86448894036E+01  0.00000000000E+00 0. -1.
<mgrwt>
<rscale>  0 0.81719359E+02</rscale>
<asrwt>0</asrwt>
<pdfrwt beam="1">  1        1 0.62824902E-02 0.81719359E+02</pdfrwt>
<pdfrwt beam="2">  1       -2 0.62897209E-02 0.81719359E+02</pdfrwt>
<totfact> 0.11998774E+05</totfact>
</mgrwt>
</event>
<event>
 8    1  0.1372337E-024  0.8001644E+02  0.7818608E-02  0.1329005E+00
         -2   -1    0    0    0  501 -0.00000000000E+00  0.00000000000E+00  0.17128484234E+03  0.17128484236E+03  0.25500000000E-02 0.  1.
          1   -1    0    0  501    0  0.00000000000E+00 -0.00000000000E+00 -0.93450049955E+01  0.93450063546E+01  0.50400000000E-02 0. -1.
        -24    2    1    2    0    0  0.00000000000E+00  0.00000000000E+00  0.16193983734E+03  0.18062984871E+03  0.80016444104E+02 0.  0.
         66    2    3    3    0    0  0.35323247965E+02  0.18725142881E+02  0.79804609846E+02  0.89281233054E+02  0.20000000380E+01 0.  0.
         13    1    3    3    0    0 -0.35323247965E+02 -0.18725142881E+02  0.82135227494E+02  0.91348615656E+02  0.10566000000E+00 0. -1.
         13    1    4    4    0    0  0.11644325494E+02  0.65128625964E+01  0.26382889654E+02  0.29564771705E+02  0.10566000000E+00 0. -1.
        -13    1    4    4    0    0  0.15259023142E+01  0.12166027485E+01  0.40020762053E+01  0.44537936760E+01  0.10566000000E+00 0.  1.
        -14    1    4    4    0    0  0.22153020157E+02  0.10995677536E+02  0.49419643987E+02  0.55262667673E+02  0.00000000000E+00 0.  1.
<mgrwt>
<rscale>  0 0.80016444E+02</rscale>
<asrwt>0</asrwt>
<pdfrwt beam="1">  1        1 0.14376933E-02 0.80016444E+02</pdfrwt>
<pdfrwt beam="2">  1       -2 0.26351512E-01 0.80016444E+02</pdfrwt>
<totfact> 0.90237262E+04</totfact>
</mgrwt>
</event>
<event>
 8    1  0.2351761E-024  0.8173765E+02  0.7818608E-02  0.1324191E+00
          1   -1    0    0  501    0  0.00000000000E+00  0.00000000000E+00  0.11150654991E+03  0.11150655002E+03  0.50400000000E-02 0. -1.
         -2   -1    0    0    0  501 -0.00000000000E+00 -0.00000000000E+00 -0.14979038773E+02  0.14979038990E+02  0.25500000000E-02 0.  1.
        -24    2    1    2    0    0  0.35527136788E-14  0.00000000000E+00  0.96527511138E+02  0.12648558901E+03  0.81737652412E+02 0.  0.
         66    2    3    3    0    0  0.21147273478E+02  0.43900883123E+01 -0.53526004294E+01  0.22341225999E+02  0.19999992073E+01 0.  0.
         13    1    3    3    0    0 -0.21147273478E+02 -0.43900883123E+01  0.10188011157E+03  0.10414436302E+03  0.10566000000E+00 0. -1.
         13    1    4    4    0    0  0.47471238915E+01  0.50268422188E+00 -0.14804533443E+01  0.49990781959E+01  0.10566000000E+00 0. -1.
        -13    1    4    4    0    0  0.97556437214E+01  0.19262527614E+01 -0.28047940751E+01  0.10332524762E+02  0.10566000000E+00 0.  1.
         14    1    4    4    0    0  0.66445058653E+01  0.19611513291E+01 -0.10673530100E+01  0.70096230410E+01  0.00000000000E+00 0. -1.
<mgrwt>
<rscale>  0 0.81737652E+02</rscale>
<asrwt>0</asrwt>
<pdfrwt beam="1">  1        1 0.17154854E-01 0.81737652E+02</pdfrwt>
<pdfrwt beam="2">  1       -2 0.23044676E-02 0.81737652E+02</pdfrwt>
<totfact> 0.14130929E+05</totfact>
</mgrwt>
</event>
<event>
 8    1  0.1372337E-024  0.8005849E+02  0.7818608E-02  0.1328886E+00
         -2   -1    0    0    0  501 -0.00000000000E+00  0.00000000000E+00  0.10949811048E+02  0.10949811344E+02  0.25500000000E-02 0.  1.
          1   -1    0    0  501    0  0.00000000000E+00 -0.00000000000E+00 -0.14633498755E+03  0.14633498763E+03  0.50400000000E-02 0. -1.
        -24    2    1    2    0    0  0.00000000000E+00  0.00000000000E+00 -0.13538517650E+03  0.15728479898E+03  0.80058490954E+02 0.  0.
         66    2    3    3    0    0  0.33566559253E+02 -0.48231273533E+01 -0.26042132544E+02  0.42803844741E+02  0.19999999124E+01 0.  0.
         13    1    3    3    0    0 -0.33566559253E+02  0.48231273533E+01 -0.10934304396E+03  0.11448095424E+03  0.10566000000E+00 0. -1.
         13    1    4    4    0    0  0.47431568923E+01 -0.12382669050E+01 -0.38439744941E+01  0.62304210275E+01  0.10566000000E+00 0. -1.
        -13    1    4    4    0    0  0.19192209217E+02 -0.24819739031E+01 -0.15423821258E+02  0.24746848594E+02  0.10566000000E+00 0.  1.
        -14    1    4    4    0    0  0.96311931433E+01 -0.11028865452E+01 -0.67743367920E+01  0.11826575120E+02  0.00000000000E+00 0.  1.
<mgrwt>
<rscale>  0 0.80058491E+02</rscale>
<asrwt>0</asrwt>
<pdfrwt beam="1">  1        1 0.22513074E-01 0.80058491E+02</pdfrwt>
<pdfrwt beam="2">  1       -2 0.16845864E-02 0.80058491E+02</pdfrwt>
<totfact> 0.15686041E+05</totfact>
</mgrwt>
</event>
<event>
 8    1  0.1372337E-024  0.7599129E+02  0.7818608E-02  0.1340829E+00
         -2   -1    0    0    0  501 -0.00000000000E+00  0.00000000000E+00  0.61419079053E+02  0.61419079106E+02  0.25500000000E-02 0.  1.
          1   -1    0    0  501    0  0.00000000000E+00 -0.00000000000E+00 -0.23505219119E+02  0.23505219660E+02  0.50400000000E-02 0. -1.
        -24    2    1    2    0    0  0.00000000000E+00  0.00000000000E+00  0.37913859933E+02  0.84924298765E+02  0.75991287301E+02 0.  0.
         66    2    3    3    0    0 -0.25041952847E+02  0.10881461761E+02  0.48456455533E+02  0.55655491163E+02  0.20000003456E+01 0.  0.
         13    1    3    3    0    0  0.25041952847E+02 -0.10881461761E+02 -0.10542595600E+02  0.29268807602E+02  0.10566000000E+00 0. -1.
         13    1    4    4    0    0 -0.20532995502E+01  0.13996579574E+01  0.42749388750E+01  0.49458414715E+01  0.10566000000E+00 0. -1.
        -13    1    4    4    0    0 -0.94745581605E+01  0.41309789815E+01  0.17426561876E+02  0.20261501981E+02  0.10566000000E+00 0.  1.
        -14    1    4    4    0    0 -0.13514095136E+02  0.53508248223E+01  0.26754954782E+02  0.30448147711E+02  0.00000000000E+00 0.  1.
<mgrwt>
<rscale>  0 0.75991287E+02</rscale>
<asrwt>0</asrwt>
<pdfrwt beam="1">  1        1 0.36161876E-02 0.75991287E+02</pdfrwt>
<pdfrwt beam="2">  1       -2 0.94490891E-02 0.75991287E+02</pdfrwt>
<totfact> 0.13424250E+05</totfact>
</mgrwt>
</event>
<event>
 8    1  0.1372337E-024  0.8106439E+02  0.7818608E-02  0.1326058E+00
         -2   -1    0    0    0  501 -0.00000000000E+00  0.00000000000E+00  0.77613011477E+01  0.77613015666E+01  0.25500000000E-02 0.  1.
          1   -1    0    0  501    0  0.00000000000E+00 -0.00000000000E+00 -0.21167312755E+03  0.21167312761E+03  0.50400000000E-02 0. -1.
        -24    2    1    2    0    0  0.00000000000E+00  0.00000000000E+00 -0.20391182640E+03  0.21943442917E+03  0.81064392684E+02 0.  0.
         66    2    3    3    0    0  0.11882689856E+02  0.34737111572E+02 -0.55683768427E+02  0.66727410432E+02  0.19999995435E+01 0.  0.
         13    1    3    3    0    0 -0.11882689856E+02 -0.34737111572E+02 -0.14822805797E+03  0.15270701874E+03  0.10566000000E+00 0. -1.
         13    1    4    4    0    0  0.61829367472E+01  0.15790649161E+02 -0.25988895535E+02  0.31032356709E+02  0.10566000000E+00 0. -1.
        -13    1    4    4    0    0  0.12656425824E+01  0.31314597869E+01 -0.53338477706E+01  0.63141893873E+01  0.10566000000E+00 0.  1.
        -14    1    4    4    0    0  0.44341105262E+01  0.15815002624E+02 -0.24361025121E+02  0.29380864336E+02  0.00000000000E+00 0.  1.
<mgrwt>
<rscale>  0 0.81064393E+02</rscale>
<asrwt>0</asrwt>
<pdfrwt beam="1">  1        1 0.32565092E-01 0.81064393E+02</pdfrwt>
<pdfrwt beam="2">  1       -2 0.11940465E-02 0.81064393E+02</pdfrwt>
<totfact> 0.16277764E+05</totfact>
</mgrwt>
</event>
<event>
 8    1  0.1372337E-024  0.7030246E+02  0.7818608E-02  0.1359068E+00
         -2   -1    0    0    0  501 -0.00000000000E+00  0.00000000000E+00  0.12254863486E+03  0.12254863489E+03  0.25500000000E-02 0.  1.
          1   -1    0    0  501    0  0.00000000000E+00 -0.00000000000E+00 -0.10082599791E+02  0.10082601050E+02  0.50400000000E-02 0. -1.
        -24    2    1    2    0    0  0.00000000000E+00  0.17763568394E-14  0.11246603507E+03  0.13263123594E+03  0.70302458719E+02 0.  0.
         66    2    3    3    0    0 -0.19747436766E+02  0.10089468692E+02  0.10766288956E+03  0.10994114982E+03  0.19999993022E+01 0.  0.
         13    1    3    3    0    0  0.19747436766E+02 -0.10089468692E+02  0.48031455084E+01  0.22690086120E+02  0.10566000000E+00 0. -1.
         13    1    4    4    0    0 -0.15901533893E+02  0.77280620133E+01  0.83039006926E+02  0.84900350753E+02  0.10566000000E+00 0. -1.
        -13    1    4    4    0    0 -0.20102939882E+01  0.90494053904E+00  0.11992564814E+02  0.12193972861E+02  0.10566000000E+00 0.  1.
         14    1    4    4    0    0 -0.18356088851E+01  0.14564661393E+01  0.12631317821E+02  0.12846826203E+02  0.00000000000E+00 0. -1.
<mgrwt>
<rscale>  0 0.70302459E+02</rscale>
<asrwt>0</asrwt>
<pdfrwt beam="1">  1        1 0.15511693E-02 0.70302459E+02</pdfrwt>
<pdfrwt beam="2">  1       -2 0.18853636E-01 0.70302459E+02</pdfrwt>
<totfact> 0.13989488E+05</totfact>
</mgrwt>
</event>
<event>
 8    1  0.1372337E-024  0.8126807E+02  0.7818608E-02  0.1325491E+00
          1   -1    0    0  501    0  0.00000000000E+00  0.00000000000E+00  0.17359763681E+03  0.17359763688E+03  0.50400000000E-02 0. -1.
         -2   -1    0    0    0  501 -0.00000000000E+00 -0.00000000000E+00 -0.95112157891E+01  0.95112161309E+01  0.25500000000E-02 0.  1.
        -24    2    1    2    0    0 -0.35527136788E-14 -0.88817841970E-15  0.16408642102E+03  0.18310885301E+03  0.81268065614E+02 0.  0.
         66    2    3    3    0    0 -0.30236390736E+02 -0.59364885853E+01  0.22495507765E+02  0.38203783738E+02  0.20000002010E+01 0.  0.
         13    1    3    3    0    0  0.30236390736E+02  0.59364885853E+01  0.14159091325E+03  0.14490506927E+03  0.10566000000E+00 0. -1.
         13    1    4    4    0    0 -0.25156501440E+01 -0.74616634291E+00  0.14442521783E+01  0.29970465877E+01  0.10566000000E+00 0. -1.
        -13    1    4    4    0    0 -0.88123902396E+01 -0.12583950480E+01  0.69381219422E+01  0.11286739120E+02  0.10566000000E+00 0.  1.
        -14    1    4    4    0    0 -0.18908350352E+02 -0.39319271944E+01  0.14113133645E+02  0.23919998031E+02  0.00000000000E+00 0.  1.
<mgrwt>
<rscale>  0 0.81268066E+02</rscale>
<asrwt>0</asrwt>
<pdfrwt beam="1">  1        1 0.26707328E-01 0.81268066E+02</pdfrwt>
<pdfrwt beam="2">  1       -2 0.14632640E-02 0.81268066E+02</pdfrwt>
<totfact> 0.15559877E+05</totfact>
</mgrwt>
</event>
<event>
 8    1  0.1372337E-024  0.7982575E+02  0.7818608E-02  0.1329547E+00
          1   -1    0    0  501    0  0.00000000000E+00  0.00000000000E+00  0.91529656300E+02  0.91529656438E+02  0.50400000000E-02 0. -1.
         -2   -1    0    0    0  501 -0.00000000000E+00 -0.00000000000E+00 -0.17404605933E+02  0.17404606120E+02  0.25500000000E-02 0.  1.
        -24    2    1    2    0    0  0.00000000000E+00  0.00000000000E+00  0.74125050367E+02  0.10893426256E+03  0.79825750652E+02 0.  0.
         66    2    3    3    0    0 -0.18815364773E+02 -0.23239758657E+01 -0.10805810647E+02  0.21913109199E+02  0.19999989218E+01 0.  0.
         13    1    3    3    0    0  0.18815364773E+02  0.23239758657E+01  0.84930861013E+02  0.87021153359E+02  0.10566000000E+00 0. -1.
         13    1    4    4    0    0 -0.14063449712E+01  0.17461704526E+00 -0.43061870081E+00  0.14848884778E+01  0.10566000000E+00 0. -1.
        -13    1    4    4    0    0 -0.11389869398E+02 -0.17052903559E+01 -0.71005647877E+01  0.13530200458E+02  0.10566000000E+00 0.  1.
         14    1    4    4    0    0 -0.60191504041E+01 -0.79330255506E+00 -0.32746271582E+01  0.68980202635E+01  0.00000000000E+00 0. -1.
<mgrwt>
<rscale>  0 0.79825751E+02</rscale>
<asrwt>0</asrwt>
<pdfrwt beam="1">  1        1 0.14081486E-01 0.79825751E+02</pdfrwt>
<pdfrwt beam="2">  1       -2 0.26776317E-02 0.79825751E+02</pdfrwt>
<totfact> 0.14569760E+05</totfact>
</mgrwt>
</event>
<event>
 8    1  0.1372337E-024  0.7717638E+02  0.7818608E-02  0.1337261E+00
          1   -1    0    0  501    0  0.00000000000E+00  0.00000000000E+00  0.99906145676E+02  0.99906145803E+02  0.50400000000E-02 0. -1.
         -2   -1    0    0    0  501 -0.00000000000E+00 -0.00000000000E+00 -0.14904473402E+02  0.14904473620E+02  0.25500000000E-02 0.  1.
        -24    2    1    2    0    0  0.00000000000E+00  0.00000000000E+00  0.85001672274E+02  0.11481061942E+03  0.77176382675E+02 0.  0.
         66    2    3    3    0    0 -0.18758007124E+02  0.17559084823E+02 -0.24800961642E+00  0.25772966053E+02  0.19999948259E+01 0.  0.
         13    1    3    3    0    0  0.18758007124E+02 -0.17559084823E+02  0.85249681891E+02  0.89037653370E+02  0.10566000000E+00 0. -1.
         13    1    4    4    0    0 -0.33420515241E+01  0.27275116032E+01 -0.52406981487E+00  0.43467736474E+01  0.10566000000E+00 0. -1.
        -13    1    4    4    0    0 -0.14143519918E+01  0.17701430786E+01 -0.15279760185E+00  0.22733915672E+01  0.10566000000E+00 0.  1.
        -14    1    4    4    0    0 -0.14001603608E+02  0.13061430141E+02  0.42885780031E+00  0.19152800838E+02  0.00000000000E+00 0.  1.
<mgrwt>
<rscale>  0 0.77176383E+02</rscale>
<asrwt>0</asrwt>
<pdfrwt beam="1">  1        1 0.15370176E-01 0.77176383E+02</pdfrwt>
<pdfrwt beam="2">  1       -2 0.22929959E-02 0.77176383E+02</pdfrwt>
<totfact> 0.16191999E+05</totfact>
</mgrwt>
</event>
<event>
 8    1  0.1372337E-024  0.8150580E+02  0.7818608E-02  0.1324832E+00
         -2   -1    0    0    0  501 -0.00000000000E+00  0.00000000000E+00  0.71332594544E+02  0.71332594589E+02  0.25500000000E-02 0.  1.
          1   -1    0    0  501    0  0.00000000000E+00 -0.00000000000E+00 -0.23282468775E+02  0.23282469320E+02  0.50400000000E-02 0. -1.
        -24    2    1    2    0    0  0.00000000000E+00  0.71054273576E-14  0.48050125769E+02  0.94615063910E+02  0.81505801832E+02 0.  0.
         66    2    3    3    0    0 -0.26422616449E+02 -0.25107479410E+02  0.45135271675E+02  0.58049400771E+02  0.19999995929E+01 0.  0.
         13    1    3    3    0    0  0.26422616449E+02  0.25107479410E+02  0.29148540942E+01  0.36565663139E+02  0.10566000000E+00 0. -1.
         13    1    4    4    0    0 -0.12246963555E+02 -0.12031471904E+02  0.20225645944E+02  0.26529838868E+02  0.10566000000E+00 0. -1.
        -13    1    4    4    0    0 -0.68500993727E+01 -0.68959337954E+01  0.12081120878E+02  0.15506205533E+02  0.10566000000E+00 0.  1.
        -14    1    4    4    0    0 -0.73255535216E+01 -0.61800737108E+01  0.12828504852E+02  0.16013356369E+02  0.00000000000E+00 0.  1.
<mgrwt>
<rscale>  0 0.81505802E+02</rscale>
<asrwt>0</asrwt>
<pdfrwt beam="1">  1        1 0.35819183E-02 0.81505802E+02</pdfrwt>
<pdfrwt beam="2">  1       -2 0.10974245E-01 0.81505802E+02</pdfrwt>
<totfact> 0.10917512E+05</totfact>
</mgrwt>
</event>
<event>
 8    1  0.1372337E-024  0.7964638E+02  0.7818608E-02  0.1330058E+00
          1   -1    0    0  501    0  0.00000000000E+00  0.00000000000E+00  0.10090482942E+01  0.10090608810E+01  0.50400000000E-02 0. -1.
         -2   -1    0    0    0  501 -0.00000000000E+00 -0.00000000000E+00 -0.15716559420E+04  0.15716559420E+04  0.25500000000E-02 0.  1.
        -24    2    1    2    0    0  0.00000000000E+00  0.00000000000E+00 -0.15706468937E+04  0.15726650029E+04  0.79646384634E+02 0.  0.
         66    2    3    3    0    0 -0.15338914469E+02 -0.60744817994E+01 -0.15009512586E+04  0.15010432580E+04  0.20000009147E+01 0.  0.
         13    1    3    3    0    0  0.15338914469E+02  0.60744817994E+01 -0.69695635075E+02  0.71621744874E+02  0.10566000000E+00 0. -1.
         13    1    4    4    0    0 -0.87874490175E+00 -0.24144672732E+00 -0.68553701034E+02  0.68559839401E+02  0.10566000000E+00 0.  1.
        -13    1    4    4    0    0 -0.73950411679E+01 -0.38549901597E+01 -0.74094211774E+03  0.74098905565E+03  0.10566000000E+00 0.  1.
        -14    1    4    4    0    0 -0.70651283992E+01 -0.19780449124E+01 -0.69145543983E+03  0.69149436294E+03  0.00000000000E+00 0.  1.
<mgrwt>
<rscale>  0 0.79646385E+02</rscale>
<asrwt>0</asrwt>
<pdfrwt beam="1">  1        1 0.15524043E-03 0.79646385E+02</pdfrwt>
<pdfrwt beam="2">  1       -2 0.24179126E+00 0.79646385E+02</pdfrwt>
<totfact> 0.13847739E+04</totfact>
</mgrwt>
</event>
<event>
 8    1  0.1372337E-024  0.8268741E+02  0.7818608E-02  0.1321593E+00
          1   -1    0    0  501    0  0.00000000000E+00  0.00000000000E+00  0.13141697798E+03  0.13141697807E+03  0.50400000000E-02 0. -1.
         -2   -1    0    0    0  501 -0.00000000000E+00 -0.00000000000E+00 -0.13006706386E+02  0.13006706636E+02  0.25500000000E-02 0.  1.
        -24    2    1    2    0    0  0.00000000000E+00  0.00000000000E+00  0.11841027159E+03  0.14442368471E+03  0.82687413109E+02 0.  0.
         66    2    3    3    0    0 -0.40323237074E+02  0.13892851271E+01  0.74803591936E+02  0.85014533597E+02  0.19999987091E+01 0.  0.
         13    1    3    3    0    0  0.40323237074E+02 -0.13892851271E+01  0.43606679654E+02  0.59409151112E+02  0.10566000000E+00 0. -1.
         13    1    4    4    0    0 -0.21592779032E+02  0.79200907127E+00  0.40618476472E+02  0.46008120801E+02  0.10566000000E+00 0. -1.
        -13    1    4    4    0    0 -0.13059783906E+02  0.98403930105E+00  0.24205055398E+02  0.27521303745E+02  0.10566000000E+00 0.  1.
         14    1    4    4    0    0 -0.56706741364E+01 -0.38676324525E+00  0.99800600663E+01  0.11485109050E+02  0.00000000000E+00 0. -1.
<mgrwt>
<rscale>  0 0.82687413E+02</rscale>
<asrwt>0</asrwt>
<pdfrwt beam="1">  1        1 0.20217997E-01 0.82687413E+02</pdfrwt>
<pdfrwt beam="2">  1       -2 0.20010317E-02 0.82687413E+02</pdfrwt>
<totfact> 0.14103872E+05</totfact>
</mgrwt>
</event>
<event>
 8    1  0.1372337E-024  0.7840837E+02  0.7818608E-02  0.1333630E+00
          1   -1    0    0  501    0  0.00000000000E+00  0.00000000000E+00  0.70265729179E+01  0.70265747255E+01  0.50400000000E-02 0. -1.
         -2   -1    0    0    0  501 -0.00000000000E+00 -0.00000000000E+00 -0.21873649729E+03  0.21873649730E+03  0.25500000000E-02 0.  1.
        -24    2    1    2    0    0  0.00000000000E+00  0.00000000000E+00 -0.21170992437E+03  0.22576307203E+03  0.78408370822E+02 0.  0.
         66    2    3    3    0    0 -0.46587152094E+01  0.11400277958E+02 -0.21301331872E+03  0.21337840547E+03  0.20000012426E+01 0.  0.
         13    1    3    3    0    0  0.46587152094E+01 -0.11400277958E+02  0.13033943463E+01  0.12384666559E+02  0.10566000000E+00 0. -1.
         13    1    4    4    0    0 -0.21809212333E+00  0.54268922540E+00 -0.57289239619E+01  0.57596709599E+01  0.10566000000E+00 0. -1.
        -13    1    4    4    0    0 -0.87493403872E+00  0.19607379898E+01 -0.31550374343E+02  0.31623524286E+02  0.10566000000E+00 0.  1.
        -14    1    4    4    0    0 -0.35656890474E+01  0.88968507431E+01 -0.17573402041E+03  0.17599521022E+03  0.00000000000E+00 0.  1.
<mgrwt>
<rscale>  0 0.78408371E+02</rscale>
<asrwt>0</asrwt>
<pdfrwt beam="1">  1        1 0.10810115E-02 0.78408371E+02</pdfrwt>
<pdfrwt beam="2">  1       -2 0.33651764E-01 0.78408371E+02</pdfrwt>
<totfact> 0.86301448E+04</totfact>
</mgrwt>
</event>
<event>
 8    1  0.1372337E-024  0.7961857E+02  0.7818608E-02  0.1330137E+00
         -2   -1    0    0    0  501 -0.00000000000E+00  0.00000000000E+00  0.34343229894E+02  0.34343229988E+02  0.25500000000E-02 0.  1.
          1   -1    0    0  501    0  0.00000000000E+00 -0.00000000000E+00 -0.46145318977E+02  0.46145319253E+02  0.50400000000E-02 0. -1.
        -24    2    1    2    0    0 -0.35527136788E-14  0.35527136788E-14 -0.11802089084E+02  0.80488549241E+02  0.79618573538E+02 0.  0.
         66    2    3    3    0    0  0.30688084860E+02 -0.20625753867E+02  0.89388039629E+01  0.38093076802E+02  0.20000022496E+01 0.  0.
         13    1    3    3    0    0 -0.30688084860E+02  0.20625753867E+02 -0.20740893046E+02  0.42395472439E+02  0.10566000000E+00 0. -1.
         13    1    4    4    0    0  0.18182441595E+02 -0.12955322299E+02  0.59889448464E+01  0.23115366807E+02  0.10566000000E+00 0. -1.
        -13    1    4    4    0    0  0.41177526085E+01 -0.22033861768E+01  0.10063435330E+01  0.47785655306E+01  0.10566000000E+00 0.  1.
        -14    1    4    4    0    0  0.83878906564E+01 -0.54670453912E+01  0.19435155835E+01  0.10199144464E+02  0.00000000000E+00 0.  1.
<mgrwt>
<rscale>  0 0.79618574E+02</rscale>
<asrwt>0</asrwt>
<pdfrwt beam="1">  1        1 0.70992799E-02 0.79618574E+02</pdfrwt>
<pdfrwt beam="2">  1       -2 0.52835738E-02 0.79618574E+02</pdfrwt>
<totfact> 0.13166136E+05</totfact>
</mgrwt>
</event>
<event>
 8    1  0.1372337E-024  0.8033213E+02  0.7818608E-02  0.1328112E+00
          1   -1    0    0  501    0  0.00000000000E+00  0.00000000000E+00  0.41750753167E+01  0.41750783588E+01  0.50400000000E-02 0. -1.
         -2   -1    0    0    0  501 -0.00000000000E+00 -0.00000000000E+00 -0.38641509694E+03  0.38641509695E+03  0.25500000000E-02 0.  1.
        -24    2    1    2    0    0 -0.71054273576E-14  0.35527136788E-14 -0.38224002163E+03  0.39059017531E+03  0.80332128791E+02 0.  0.
         66    2    3    3    0    0 -0.34977673642E+02  0.12255330733E+02 -0.26619745753E+03  0.26877261241E+03  0.20000004600E+01 0.  0.
         13    1    3    3    0    0  0.34977673642E+02 -0.12255330733E+02 -0.11604256410E+03  0.12181756290E+03  0.10566000000E+00 0. -1.
         13    1    4    4    0    0 -0.39388412573E+01  0.20166462323E+01 -0.31690998106E+02  0.31998622743E+02  0.10566000000E+00 0. -1.
        -13    1    4    4    0    0 -0.69163905264E+01  0.25428097067E+01 -0.52942569931E+02  0.53453056171E+02  0.10566000000E+00 0.  1.
         14    1    4    4    0    0 -0.24122441858E+02  0.76958747941E+01 -0.18156388949E+03  0.18332093349E+03  0.00000000000E+00 0. -1.
<mgrwt>
<rscale>  0 0.80332129E+02</rscale>
<asrwt>0</asrwt>
<pdfrwt beam="1">  1        1 0.64231982E-03 0.80332129E+02</pdfrwt>
<pdfrwt beam="2">  1       -2 0.59448448E-01 0.80332129E+02</pdfrwt>
<totfact> 0.59802589E+04</totfact>
</mgrwt>
</event>
<event>
 8    1  0.1372337E-024  0.8032182E+02  0.7818608E-02  0.1328141E+00
         -2   -1    0    0    0  501 -0.00000000000E+00  0.00000000000E+00  0.35509398353E+01  0.35509407509E+01  0.25500000000E-02 0.  1.
          1   -1    0    0  501    0  0.00000000000E+00 -0.00000000000E+00 -0.45421740274E+03  0.45421740277E+03  0.50400000000E-02 0. -1.
        -24    2    1    2    0    0  0.00000000000E+00 -0.17763568394E-14 -0.45066646290E+03  0.45776834352E+03  0.80321824811E+02 0.  0.
         66    2    3    3    0    0 -0.36665168826E+02 -0.10964136917E+02 -0.29441776144E+03  0.29690127175E+03  0.20000042439E+01 0.  0.
         13    1    3    3    0    0  0.36665168826E+02  0.10964136917E+02 -0.15624870147E+03  0.16086707176E+03  0.10566000000E+00 0. -1.
         13    1    4    4    0    0 -0.14969366376E+02 -0.42668004419E+01 -0.11528191660E+03  0.11632806615E+03  0.10566000000E+00 0. -1.
        -13    1    4    4    0    0 -0.12918754028E+02 -0.37412235512E+01 -0.10173551195E+03  0.10262074116E+03  0.10566000000E+00 0.  1.
         14    1    4    4    0    0 -0.87770484220E+01 -0.29561129238E+01 -0.77400332885E+02  0.77952464447E+02  0.00000000000E+00 0. -1.
<mgrwt>
<rscale>  0 0.80321825E+02</rscale>
<asrwt>0</asrwt>
<pdfrwt beam="1">  1        1 0.69879555E-01 0.80321825E+02</pdfrwt>
<pdfrwt beam="2">  1       -2 0.54629887E-03 0.80321825E+02</pdfrwt>
<totfact> 0.19162864E+05</totfact>
</mgrwt>
</event>
<event>
 8    1  0.1372337E-024  0.7502381E+02  0.7818608E-02  0.1343797E+00
         -2   -1    0    0    0  501 -0.00000000000E+00  0.00000000000E+00  0.86252942153E+02  0.86252942191E+02  0.25500000000E-02 0.  1.
          1   -1    0    0  501    0  0.00000000000E+00 -0.00000000000E+00 -0.16314143268E+02  0.16314144046E+02  0.50400000000E-02 0. -1.
        -24    2    1    2    0    0  0.17763568394E-14  0.00000000000E+00  0.69938798885E+02  0.10256708624E+03  0.75023806819E+02 0.  0.
         66    2    3    3    0    0 -0.12969833357E+02 -0.46599326714E+01  0.82651977867E+02  0.83816949339E+02  0.20000003382E+01 0.  0.
         13    1    3    3    0    0  0.12969833357E+02  0.46599326714E+01 -0.12713178982E+02  0.18750136898E+02  0.10566000000E+00 0. -1.
         13    1    4    4    0    0 -0.11002098571E+01 -0.84093251188E+00  0.63461578027E+01  0.64963460585E+01  0.10566000000E+00 0. -1.
        -13    1    4    4    0    0 -0.80750446146E+01 -0.27470688451E+01  0.50537985431E+02  0.51252823027E+02  0.10566000000E+00 0.  1.
        -14    1    4    4    0    0 -0.37945788854E+01 -0.10719313144E+01  0.25767834634E+02  0.26067780254E+02  0.00000000000E+00 0.  1.
<mgrwt>
<rscale>  0 0.75023807E+02</rscale>
<asrwt>0</asrwt>
<pdfrwt beam="1">  1        1 0.25098683E-02 0.75023807E+02</pdfrwt>
<pdfrwt beam="2">  1       -2 0.13269683E-01 0.75023807E+02</pdfrwt>
<totfact> 0.12946444E+05</totfact>
</mgrwt>
</event>
<event>
 8    1  0.1372337E-024  0.8013317E+02  0.7818608E-02  0.1328674E+00
          1   -1    0    0  501    0  0.00000000000E+00  0.00000000000E+00  0.13244466516E+03  0.13244466525E+03  0.50400000000E-02 0. -1.
         -2   -1    0    0    0  501 -0.00000000000E+00 -0.00000000000E+00 -0.12120768003E+02  0.12120768271E+02  0.25500000000E-02 0.  1.
        -24    2    1    2    0    0  0.00000000000E+00  0.00000000000E+00  0.12032389716E+03  0.14456543353E+03  0.80133166315E+02 0.  0.
         66    2    3    3    0    0 -0.30920675399E+02  0.22735780218E+01  0.14485981696E+02  0.34279746163E+02  0.20000017900E+01 0.  0.
         13    1    3    3    0    0  0.30920675399E+02 -0.22735780218E+01  0.10583791546E+03  0.11028568736E+03  0.10566000000E+00 0. -1.
         13    1    4    4    0    0 -0.24768863387E+01  0.65628146355E+00  0.14258685014E+01  0.29342692980E+01  0.10566000000E+00 0. -1.
        -13    1    4    4    0    0 -0.10988113202E+02  0.60172000892E+00  0.47636935308E+01  0.11991857187E+02  0.10566000000E+00 0.  1.
        -14    1    4    4    0    0 -0.17455675858E+02  0.10155765493E+01  0.82964196636E+01  0.19353619678E+02  0.00000000000E+00 0.  1.
<mgrwt>
<rscale>  0 0.80133166E+02</rscale>
<asrwt>0</asrwt>
<pdfrwt beam="1">  1        1 0.20376102E-01 0.80133166E+02</pdfrwt>
<pdfrwt beam="2">  1       -2 0.18647336E-02 0.80133166E+02</pdfrwt>
<totfact> 0.15365889E+05</totfact>
</mgrwt>
</event>
<event>
 8    1  0.1372337E-024  0.7645829E+02  0.7818608E-02  0.1339414E+00
          1   -1    0    0  501    0  0.00000000000E+00  0.00000000000E+00  0.12980588664E+02  0.12980589642E+02  0.50400000000E-02 0. -1.
         -2   -1    0    0    0  501 -0.00000000000E+00 -0.00000000000E+00 -0.11258867978E+03  0.11258867981E+03  0.25500000000E-02 0.  1.
        -24    2    1    2    0    0  0.00000000000E+00 -0.35527136788E-14 -0.99608091117E+02  0.12556926945E+03  0.76458286762E+02 0.  0.
         66    2    3    3    0    0 -0.25981536303E+02  0.21088860890E+02 -0.80106829195E+02  0.86838265555E+02  0.19999996425E+01 0.  0.
         13    1    3    3    0    0  0.25981536303E+02 -0.21088860890E+02 -0.19501261922E+02  0.38731003897E+02  0.10566000000E+00 0. -1.
         13    1    4    4    0    0 -0.84596117003E+01  0.63067151492E+01 -0.23920919178E+02  0.26145003814E+02  0.10566000000E+00 0. -1.
        -13    1    4    4    0    0 -0.62530945383E+01  0.45828739521E+01 -0.18967236996E+02  0.20490758118E+02  0.10566000000E+00 0.  1.
         14    1    4    4    0    0 -0.11268830064E+02  0.10199271788E+02 -0.37218673022E+02  0.40202503623E+02  0.00000000000E+00 0. -1.
<mgrwt>
<rscale>  0 0.76458287E+02</rscale>
<asrwt>0</asrwt>
<pdfrwt beam="1">  1        1 0.19970138E-02 0.76458287E+02</pdfrwt>
<pdfrwt beam="2">  1       -2 0.17321335E-01 0.76458287E+02</pdfrwt>
<totfact> 0.11558913E+05</totfact>
</mgrwt>
</event>
<event>
 8    1  0.1372337E-024  0.7839844E+02  0.7818608E-02  0.1333659E+00
          1   -1    0    0  501    0  0.00000000000E+00  0.00000000000E+00  0.21362268986E+03  0.21362268992E+03  0.50400000000E-02 0. -1.
         -2   -1    0    0    0  501 -0.00000000000E+00 -0.00000000000E+00 -0.71929574884E+01  0.71929579404E+01  0.25500000000E-02 0.  1.
        -24    2    1    2    0    0  0.00000000000E+00 -0.88817841970E-15  0.20642973238E+03  0.22081564786E+03  0.78398443434E+02 0.  0.
         66    2    3    3    0    0  0.33904248684E+02  0.63333726843E+01  0.15559483778E+03  0.15938432555E+03  0.19999999205E+01 0.  0.
         13    1    3    3    0    0 -0.33904248684E+02 -0.63333726843E+01  0.50834894597E+02  0.61431322312E+02  0.10566000000E+00 0. -1.
         13    1    4    4    0    0  0.80449947501E+01  0.15284588708E+01  0.40103222087E+02  0.40930889470E+02  0.10566000000E+00 0. -1.
        -13    1    4    4    0    0  0.11126015204E+02  0.25686976074E+01  0.49400767208E+02  0.50703386342E+02  0.10566000000E+00 0.  1.
         14    1    4    4    0    0  0.14733238729E+02  0.22362162062E+01  0.66090848484E+02  0.67750049740E+02  0.00000000000E+00 0. -1.
<mgrwt>
<rscale>  0 0.78398443E+02</rscale>
<asrwt>0</asrwt>
<pdfrwt beam="1">  1        1 0.32865028E-01 0.78398443E+02</pdfrwt>
<pdfrwt beam="2">  1       -2 0.11066089E-02 0.78398443E+02</pdfrwt>
<totfact> 0.17818356E+05</totfact>
</mgrwt>
</event>
<event>
 8    1  0.1372337E-024  0.7797440E+02  0.7818608E-02  0.1334900E+00
         -2   -1    0    0    0  501 -0.00000000000E+00  0.00000000000E+00  0.17499905490E+03  0.17499905492E+03  0.25500000000E-02 0.  1.
          1   -1    0    0  501    0  0.00000000000E+00 -0.00000000000E+00 -0.86857703396E+01  0.86857718018E+01  0.50400000000E-02 0. -1.
        -24    2    1    2    0    0 -0.71054273576E-14 -0.17763568394E-14  0.16631328456E+03  0.18368482672E+03  0.77974399300E+02 0.  0.
         66    2    3    3    0    0  0.36068579623E+02  0.13976948071E+02  0.72237726071E+02  0.81966984714E+02  0.20000004410E+01 0.  0.
         13    1    3    3    0    0 -0.36068579623E+02 -0.13976948071E+02  0.94075558493E+02  0.10171784201E+03  0.10566000000E+00 0. -1.
         13    1    4    4    0    0  0.23733744131E+01  0.49678442518E+00  0.50389626566E+01  0.55930322330E+01  0.10566000000E+00 0.  1.
        -13    1    4    4    0    0  0.15044677040E+02  0.58754227644E+01  0.29531494862E+02  0.33659816588E+02  0.10566000000E+00 0.  1.
         14    1    4    4    0    0  0.18650528170E+02  0.76047408817E+01  0.37667268553E+02  0.42714135893E+02  0.00000000000E+00 0. -1.
<mgrwt>
<rscale>  0 0.77974399E+02</rscale>
<asrwt>0</asrwt>
<pdfrwt beam="1">  1        1 0.13362725E-02 0.77974399E+02</pdfrwt>
<pdfrwt beam="2">  1       -2 0.26922931E-01 0.77974399E+02</pdfrwt>
<totfact> 0.95698356E+04</totfact>
</mgrwt>
</event>
<event>
 8    1  0.1372337E-024  0.7917149E+02  0.7818608E-02  0.1331419E+00
          1   -1    0    0  501    0  0.00000000000E+00  0.00000000000E+00  0.15988855052E+02  0.15988855846E+02  0.50400000000E-02 0. -1.
         -2   -1    0    0    0  501 -0.00000000000E+00 -0.00000000000E+00 -0.98007705133E+02  0.98007705166E+02  0.25500000000E-02 0.  1.
        -24    2    1    2    0    0 -0.35527136788E-14  0.71054273576E-14 -0.82018850082E+02  0.11399656101E+03  0.79171485738E+02 0.  0.
         66    2    3    3    0    0 -0.22189905790E+02  0.32513269456E+02 -0.46708218823E+02  0.61115974276E+02  0.19999990807E+01 0.  0.
         13    1    3    3    0    0  0.22189905790E+02 -0.32513269456E+02 -0.35310631258E+02  0.52880586736E+02  0.10566000000E+00 0. -1.
         13    1    4    4    0    0 -0.72487324793E+00  0.12686058874E+01 -0.16444645210E+01  0.22023237091E+01  0.10566000000E+00 0.  1.
        -13    1    4    4    0    0 -0.84957221725E+01  0.11203435848E+02 -0.17534040753E+02  0.22475498197E+02  0.10566000000E+00 0.  1.
        -14    1    4    4    0    0 -0.12969310370E+02  0.20041227720E+02 -0.27529713549E+02  0.36438152370E+02  0.00000000000E+00 0.  1.
<mgrwt>
<rscale>  0 0.79171486E+02</rscale>
<asrwt>0</asrwt>
<pdfrwt beam="1">  1        1 0.24598240E-02 0.79171486E+02</pdfrwt>
<pdfrwt beam="2">  1       -2 0.15078108E-01 0.79171486E+02</pdfrwt>
<totfact> 0.10953451E+05</totfact>
</mgrwt>
</event>
<event>
 8    1  0.1372337E-024  0.7994534E+02  0.7818608E-02  0.1329207E+00
         -2   -1    0    0    0  501 -0.00000000000E+00  0.00000000000E+00  0.30049621287E+02  0.30049621395E+02  0.25500000000E-02 0.  1.
          1   -1    0    0  501    0  0.00000000000E+00 -0.00000000000E+00 -0.53172528662E+02  0.53172528900E+02  0.50400000000E-02 0. -1.
        -24    2    1    2    0    0  0.00000000000E+00 -0.35527136788E-14 -0.23122907374E+02  0.83222150296E+02  0.79945340417E+02 0.  0.
         66    2    3    3    0    0 -0.31120885352E+02 -0.23186099573E+02 -0.17092044636E+01  0.38897636143E+02  0.19999997723E+01 0.  0.
         13    1    3    3    0    0  0.31120885352E+02  0.23186099573E+02 -0.21413702911E+02  0.44324514153E+02  0.10566000000E+00 0. -1.
         13    1    4    4    0    0 -0.85257713535E+01 -0.60516618459E+01  0.16173984177E+00  0.10456993453E+02  0.10566000000E+00 0. -1.
        -13    1    4    4    0    0 -0.18386642705E+02 -0.14358076765E+02 -0.12728586464E+01  0.23363525665E+02  0.10566000000E+00 0.  1.
         14    1    4    4    0    0 -0.42084712936E+01 -0.27763609625E+01 -0.59808565893E+00  0.50771170243E+01  0.00000000000E+00 0. -1.
<mgrwt>
<rscale>  0 0.79945340E+02</rscale>
<asrwt>0</asrwt>
<pdfrwt beam="1">  1        1 0.81803891E-02 0.79945340E+02</pdfrwt>
<pdfrwt beam="2">  1       -2 0.46230187E-02 0.79945340E+02</pdfrwt>
<totfact> 0.13309984E+05</totfact>
</mgrwt>
</event>
<event>
 8    1  0.1372337E-024  0.7957574E+02  0.7818608E-02  0.1330260E+00
          1   -1    0    0  501    0  0.00000000000E+00  0.00000000000E+00  0.15196786653E+03  0.15196786662E+03  0.50400000000E-02 0. -1.
         -2   -1    0    0    0  501 -0.00000000000E+00 -0.00000000000E+00 -0.10417165488E+02  0.10417165801E+02  0.25500000000E-02 0.  1.
        -24    2    1    2    0    0  0.00000000000E+00  0.00000000000E+00  0.14155070104E+03  0.16238503242E+03  0.79575736169E+02 0.  0.
         66    2    3    3    0    0 -0.11344749317E+01  0.35288347319E+02  0.33497230318E+02  0.48709537301E+02  0.20000237888E+01 0.  0.
         13    1    3    3    0    0  0.11344749317E+01 -0.35288347319E+02  0.10805347073E+03  0.11367549512E+03  0.10566000000E+00 0. -1.
         13    1    4    4    0    0  0.17676205136E-01  0.48701783136E+01  0.46582397011E+01  0.67401268833E+01  0.10566000000E+00 0. -1.
        -13    1    4    4    0    0 -0.32915517394E+00  0.24570484482E+02  0.23736690058E+02  0.34165167492E+02  0.10566000000E+00 0.  1.
        -14    1    4    4    0    0 -0.82299596288E+00  0.58476845234E+01  0.51023005595E+01  0.78042429255E+01  0.00000000000E+00 0.  1.
<mgrwt>
<rscale>  0 0.79575736E+02</rscale>
<asrwt>0</asrwt>
<pdfrwt beam="1">  1        1 0.23379670E-01 0.79575736E+02</pdfrwt>
<pdfrwt beam="2">  1       -2 0.16026410E-02 0.79575736E+02</pdfrwt>
<totfact> 0.16052845E+05</totfact>
</mgrwt>
</event>
<event>
 8    1  0.1372337E-024  0.8033133E+02  0.7818608E-02  0.1328114E+00
         -2   -1    0    0    0  501 -0.00000000000E+00  0.00000000000E+00  0.37920669000E+01  0.37920677574E+01  0.25500000000E-02 0.  1.
          1   -1    0    0  501    0  0.00000000000E+00 -0.00000000000E+00 -0.42543566214E+03  0.42543566217E+03  0.50400000000E-02 0. -1.
        -24    2    1    2    0    0  0.00000000000E+00  0.35527136788E-14 -0.42164359524E+03  0.42922772993E+03  0.80331330947E+02 0.  0.
         66    2    3    3    0    0  0.34249947957E+02  0.20826165690E+02 -0.19963305859E+03  0.20362746916E+03  0.20000001302E+01 0.  0.
         13    1    3    3    0    0 -0.34249947957E+02 -0.20826165690E+02 -0.22201053665E+03  0.22560026078E+03  0.10566000000E+00 0. -1.
         13    1    4    4    0    0  0.17949064688E+02  0.11451536902E+02 -0.10831393242E+03  0.11038670999E+03  0.10566000000E+00 0. -1.
        -13    1    4    4    0    0  0.52882920418E+00  0.29972867784E+00 -0.38286538958E+01  0.38780474851E+01  0.10566000000E+00 0.  1.
         14    1    4    4    0    0  0.15772054065E+02  0.90749001099E+01 -0.87490472273E+02  0.89362711686E+02  0.00000000000E+00 0. -1.
<mgrwt>
<rscale>  0 0.80331331E+02</rscale>
<asrwt>0</asrwt>
<pdfrwt beam="1">  1        1 0.65451603E-01 0.80331331E+02</pdfrwt>
<pdfrwt beam="2">  1       -2 0.58339531E-03 0.80331331E+02</pdfrwt>
<totfact> 0.18973111E+05</totfact>
</mgrwt>
</event>
<event>
 8    1  0.1372337E-024  0.8032273E+02  0.7818608E-02  0.1328138E+00
          1   -1    0    0  501    0  0.00000000000E+00  0.00000000000E+00  0.19992626228E+03  0.19992626234E+03  0.50400000000E-02 0. -1.
         -2   -1    0    0    0  501 -0.00000000000E+00 -0.00000000000E+00 -0.80676509417E+01  0.80676513447E+01  0.25500000000E-02 0.  1.
        -24    2    1    2    0    0 -0.35527136788E-14 -0.35527136788E-14  0.19185861134E+03  0.20799391369E+03  0.80322732689E+02 0.  0.
         66    2    3    3    0    0  0.30662552887E+02  0.19298822590E+02  0.51265279510E+02  0.62807368783E+02  0.19999968122E+01 0.  0.
         13    1    3    3    0    0 -0.30662552887E+02 -0.19298822590E+02  0.14059333183E+03  0.14518654490E+03  0.10566000000E+00 0. -1.
         13    1    4    4    0    0  0.68157524743E+00  0.44460024899E+00  0.12794230082E+01  0.15199675881E+01  0.10566000000E+00 0.  1.
        -13    1    4    4    0    0  0.22903956048E+02  0.14019368776E+02  0.36665014840E+02  0.45447424358E+02  0.10566000000E+00 0.  1.
        -14    1    4    4    0    0  0.70770215919E+01  0.48348535650E+01  0.13320841662E+02  0.15839976837E+02  0.00000000000E+00 0.  1.
<mgrwt>
<rscale>  0 0.80322733E+02</rscale>
<asrwt>0</asrwt>
<pdfrwt beam="1">  1        1 0.30757889E-01 0.80322733E+02</pdfrwt>
<pdfrwt beam="2">  1       -2 0.12411770E-02 0.80322733E+02</pdfrwt>
<totfact> 0.16495420E+05</totfact>
</mgrwt>
</event>
<event>
 8    1  0.1372337E-024  0.7817121E+02  0.7818608E-02  0.1334323E+00
         -2   -1    0    0    0  501 -0.00000000000E+00  0.00000000000E+00  0.14395361115E+02  0.14395361340E+02  0.25500000000E-02 0.  1.
          1   -1    0    0  501    0  0.00000000000E+00 -0.00000000000E+00 -0.10612338551E+03  0.10612338563E+03  0.50400000000E-02 0. -1.
        -24    2    1    2    0    0  0.00000000000E+00  0.00000000000E+00 -0.91728024400E+02  0.12051874697E+03  0.78171208971E+02 0.  0.
         66    2    3    3    0    0 -0.69275745646E+01  0.34242460922E+02 -0.18962554481E+02  0.39800953423E+02  0.20000004058E+01 0.  0.
         13    1    3    3    0    0  0.69275745646E+01 -0.34242460922E+02 -0.72765469918E+02  0.80717793551E+02  0.10566000000E+00 0. -1.
         13    1    4    4    0    0 -0.19522441817E+01  0.84341681737E+01 -0.52022009855E+01  0.10100520247E+02  0.10566000000E+00 0. -1.
        -13    1    4    4    0    0 -0.32567536885E+00  0.43891810005E+01 -0.22957617690E+01  0.49651445535E+01  0.10566000000E+00 0.  1.
        -14    1    4    4    0    0 -0.46496550141E+01  0.21419111747E+02 -0.11464591727E+02  0.24735288623E+02  0.00000000000E+00 0.  1.
<mgrwt>
<rscale>  0 0.78171209E+02</rscale>
<asrwt>0</asrwt>
<pdfrwt beam="1">  1        1 0.16326674E-01 0.78171209E+02</pdfrwt>
<pdfrwt beam="2">  1       -2 0.22146710E-02 0.78171209E+02</pdfrwt>
<totfact> 0.15802036E+05</totfact>
</mgrwt>
</event>
<event>
 8    1  0.1372337E-024  0.7915880E+02  0.7818608E-02  0.1331456E+00
         -2   -1    0    0    0  501 -0.00000000000E+00  0.00000000000E+00  0.60374091211E+01  0.60374096596E+01  0.25500000000E-02 0.  1.
          1   -1    0    0  501    0  0.00000000000E+00 -0.00000000000E+00 -0.25947037521E+03  0.25947037526E+03  0.50400000000E-02 0. -1.
        -24    2    1    2    0    0  0.71054273576E-14  0.35527136788E-14 -0.25343296609E+03  0.26550778492E+03  0.79158799586E+02 0.  0.
         66    2    3    3    0    0 -0.31317483775E+02 -0.22714001858E+02 -0.99176401094E+02  0.10647379585E+03  0.19999996880E+01 0.  0.
         13    1    3    3    0    0  0.31317483775E+02  0.22714001858E+02 -0.15425656500E+03  0.15903398907E+03  0.10566000000E+00 0. -1.
         13    1    4    4    0    0 -0.42610502504E+00 -0.10785785921E+00 -0.12350909739E+01  0.13152233877E+01  0.10566000000E+00 0. -1.
        -13    1    4    4    0    0 -0.64632587536E+01 -0.48669323371E+01 -0.20014489977E+02  0.21588230987E+02  0.10566000000E+00 0.  1.
         14    1    4    4    0    0 -0.24428119996E+02 -0.17739211662E+02 -0.77926820143E+02  0.83570341477E+02  0.00000000000E+00 0. -1.
<mgrwt>
<rscale>  0 0.79158800E+02</rscale>
<asrwt>0</asrwt>
<pdfrwt beam="1">  1        1 0.39918511E-01 0.79158800E+02</pdfrwt>
<pdfrwt beam="2">  1       -2 0.92883242E-03 0.79158800E+02</pdfrwt>
<totfact> 0.18038565E+05</totfact>
</mgrwt>
</event>
<event>
 8    1  0.1372337E-024  0.8018849E+02  0.7818608E-02  0.1328517E+00
          1   -1    0    0  501    0  0.00000000000E+00  0.00000000000E+00  0.49567861276E+02  0.49567861532E+02  0.50400000000E-02 0. -1.
         -2   -1    0    0    0  501 -0.00000000000E+00 -0.00000000000E+00 -0.32431261918E+02  0.32431262019E+02  0.25500000000E-02 0.  1.
        -24    2    1    2    0    0  0.00000000000E+00  0.00000000000E+00  0.17136599357E+02  0.81999123550E+02  0.80188485617E+02 0.  0.
         66    2    3    3    0    0 -0.29646735044E+02 -0.10041949779E+01 -0.18971693731E+02  0.35268434489E+02  0.20000004909E+01 0.  0.
         13    1    3    3    0    0  0.29646735044E+02  0.10041949779E+01  0.36108293088E+02  0.46730689061E+02  0.10566000000E+00 0. -1.
         13    1    4    4    0    0 -0.98382393278E+00  0.18568108641E+00 -0.49031787502E+00  0.11198047378E+01  0.10566000000E+00 0. -1.
        -13    1    4    4    0    0 -0.12642719934E+02 -0.18712593240E+00 -0.87648588888E+01  0.15385294889E+02  0.10566000000E+00 0.  1.
         14    1    4    4    0    0 -0.16020191178E+02 -0.10027501319E+01 -0.97165169671E+01  0.18763334863E+02  0.00000000000E+00 0. -1.
<mgrwt>
<rscale>  0 0.80188486E+02</rscale>
<asrwt>0</asrwt>
<pdfrwt beam="1">  1        1 0.76258249E-02 0.80188486E+02</pdfrwt>
<pdfrwt beam="2">  1       -2 0.49894249E-02 0.80188486E+02</pdfrwt>
<totfact> 0.13053375E+05</totfact>
</mgrwt>
</event>
<event>
 8    1  0.1372337E-024  0.8105732E+02  0.7818608E-02  0.1326077E+00
          1   -1    0    0  501    0  0.00000000000E+00  0.00000000000E+00  0.19356289625E+02  0.19356290281E+02  0.50400000000E-02 0. -1.
         -2   -1    0    0    0  501 -0.00000000000E+00 -0.00000000000E+00 -0.84859863524E+02  0.84859863562E+02  0.25500000000E-02 0.  1.
        -24    2    1    2    0    0 -0.35527136788E-14 -0.35527136788E-14 -0.65503573899E+02  0.10421615384E+03  0.81057316316E+02 0.  0.
         66    2    3    3    0    0 -0.19099217194E+02 -0.20487770483E+02 -0.70389126761E+02  0.75783626211E+02  0.19999996781E+01 0.  0.
         13    1    3    3    0    0  0.19099217194E+02  0.20487770483E+02  0.48855528619E+01  0.28432527633E+02  0.10566000000E+00 0. -1.
         13    1    4    4    0    0 -0.31771189561E+01 -0.32324694567E+01 -0.10161708589E+02  0.11127193228E+02  0.10566000000E+00 0. -1.
        -13    1    4    4    0    0 -0.99713320370E+01 -0.10222944063E+02 -0.38054437376E+02  0.40645878216E+02  0.10566000000E+00 0.  1.
        -14    1    4    4    0    0 -0.59507662011E+01 -0.70323569633E+01 -0.22172980796E+02  0.24010554767E+02  0.00000000000E+00 0.  1.
<mgrwt>
<rscale>  0 0.81057316E+02</rscale>
<asrwt>0</asrwt>
<pdfrwt beam="1">  1        1 0.29778908E-02 0.81057316E+02</pdfrwt>
<pdfrwt beam="2">  1       -2 0.13055363E-01 0.81057316E+02</pdfrwt>
<totfact> 0.10668475E+05</totfact>
</mgrwt>
</event>
<event>
 8    1  0.1372337E-024  0.7845501E+02  0.7818608E-02  0.1333494E+00
         -2   -1    0    0    0  501 -0.00000000000E+00  0.00000000000E+00  0.67569067251E+01  0.67569072063E+01  0.25500000000E-02 0.  1.
          1   -1    0    0  501    0  0.00000000000E+00 -0.00000000000E+00 -0.22773689145E+03  0.22773689151E+03  0.50400000000E-02 0. -1.
        -24    2    1    2    0    0  0.00000000000E+00  0.44408920985E-15 -0.22097998473E+03  0.23449379871E+03  0.78455006121E+02 0.  0.
         66    2    3    3    0    0  0.38924275980E+02 -0.29032865348E+01 -0.99676217063E+02  0.10706482420E+03  0.19999997094E+01 0.  0.
         13    1    3    3    0    0 -0.38924275980E+02  0.29032865348E+01 -0.12130376766E+03  0.12742897452E+03  0.10566000000E+00 0. -1.
         13    1    4    4    0    0  0.11290873055E+02 -0.33254370416E+00 -0.27303916072E+02  0.29548424604E+02  0.10566000000E+00 0. -1.
        -13    1    4    4    0    0  0.12900983456E+02 -0.11050767305E+01 -0.32547047125E+02  0.35028245878E+02  0.10566000000E+00 0.  1.
         14    1    4    4    0    0  0.14732419468E+02 -0.14656661001E+01 -0.39825253866E+02  0.42488153714E+02  0.00000000000E+00 0. -1.
<mgrwt>
<rscale>  0 0.78455006E+02</rscale>
<asrwt>0</asrwt>
<pdfrwt beam="1">  1        1 0.35036439E-01 0.78455006E+02</pdfrwt>
<pdfrwt beam="2">  1       -2 0.10395243E-02 0.78455006E+02</pdfrwt>
<totfact> 0.18006744E+05</totfact>
</mgrwt>
</event>
<event>
 8    1  0.1372337E-024  0.7961096E+02  0.7818608E-02  0.1330159E+00
          1   -1    0    0  501    0  0.00000000000E+00  0.00000000000E+00  0.55198839412E+03  0.55198839415E+03  0.50400000000E-02 0. -1.
         -2   -1    0    0    0  501 -0.00000000000E+00 -0.00000000000E+00 -0.28704875842E+01  0.28704887169E+01  0.25500000000E-02 0.  1.
        -24    2    1    2    0    0  0.00000000000E+00  0.00000000000E+00  0.54911790654E+03  0.55485888286E+03  0.79610957854E+02 0.  0.
         66    2    3    3    0    0  0.20457298726E+02 -0.33523635824E+02  0.31888641225E+03  0.32130185052E+03  0.20000000747E+01 0.  0.
         13    1    3    3    0    0 -0.20457298726E+02  0.33523635824E+02  0.23023149429E+03  0.23355703234E+03  0.10566000000E+00 0. -1.
         13    1    4    4    0    0  0.11715575911E+02 -0.20010035235E+02  0.18266711236E+03  0.18413294472E+03  0.10566000000E+00 0. -1.
        -13    1    4    4    0    0  0.79870905170E+01 -0.12176609252E+02  0.12142303328E+03  0.12229320342E+03  0.10566000000E+00 0.  1.
         14    1    4    4    0    0  0.75463229855E+00 -0.13369913369E+01  0.14796266614E+02  0.14875702385E+02  0.00000000000E+00 0. -1.
<mgrwt>
<rscale>  0 0.79610958E+02</rscale>
<asrwt>0</asrwt>
<pdfrwt beam="1">  1        1 0.84921260E-01 0.79610958E+02</pdfrwt>
<pdfrwt beam="2">  1       -2 0.44161373E-03 0.79610958E+02</pdfrwt>
<totfact> 0.20065847E+05</totfact>
</mgrwt>
</event>
<event>
 8    1  0.1372337E-024  0.8661095E+02  0.7818608E-02  0.1311273E+00
         -2   -1    0    0    0  501 -0.00000000000E+00  0.00000000000E+00  0.33267582701E+03  0.33267582702E+03  0.25500000000E-02 0.  1.
          1   -1    0    0  501    0  0.00000000000E+00 -0.00000000000E+00 -0.56372103889E+01  0.56372126420E+01  0.50400000000E-02 0. -1.
        -24    2    1    2    0    0  0.00000000000E+00  0.71054273576E-14  0.32703861663E+03  0.33831303967E+03  0.86610946444E+02 0.  0.
         66    2    3    3    0    0 -0.22831951221E+02  0.34638329367E+02  0.21180330976E+03  0.21583733199E+03  0.19999995543E+01 0.  0.
         13    1    3    3    0    0  0.22831951221E+02 -0.34638329367E+02  0.11523530686E+03  0.12247570767E+03  0.10566000000E+00 0. -1.
         13    1    4    4    0    0 -0.28446318065E-01  0.19444748043E+00  0.10603973113E+01  0.10836168645E+01  0.10566000000E+00 0. -1.
        -13    1    4    4    0    0 -0.14712144975E+02  0.22557845417E+02  0.13784471465E+03  0.14045098832E+03  0.10566000000E+00 0.  1.
         14    1    4    4    0    0 -0.80913599280E+01  0.11886036469E+02  0.72898197806E+02  0.74302726813E+02  0.00000000000E+00 0. -1.
<mgrwt>
<rscale>  0 0.86610946E+02</rscale>
<asrwt>0</asrwt>
<pdfrwt beam="1">  1        1 0.86726321E-03 0.86610946E+02</pdfrwt>
<pdfrwt beam="2">  1       -2 0.51180903E-01 0.86610946E+02</pdfrwt>
<totfact> 0.53960429E+04</totfact>
</mgrwt>
</event>
<event>
 8    1  0.1372337E-024  0.8312368E+02  0.7818608E-02  0.1320414E+00
         -2   -1    0    0    0  501 -0.00000000000E+00  0.00000000000E+00  0.40808371828E+03  0.40808371829E+03  0.25500000000E-02 0.  1.
          1   -1    0    0  501    0  0.00000000000E+00 -0.00000000000E+00 -0.42329202625E+01  0.42329232630E+01  0.50400000000E-02 0. -1.
        -24    2    1    2    0    0  0.00000000000E+00 -0.88817841970E-15  0.40385079802E+03  0.41231664155E+03  0.83123677978E+02 0.  0.
         66    2    3    3    0    0  0.32745004604E+02  0.40219380688E+01  0.32723081919E+03  0.32889575908E+03  0.20000005827E+01 0.  0.
         13    1    3    3    0    0 -0.32745004604E+02 -0.40219380688E+01  0.76619978833E+02  0.83420882474E+02  0.10566000000E+00 0. -1.
         13    1    4    4    0    0  0.12312213383E+02  0.16113149168E+01  0.11567544174E+03  0.11634004435E+03  0.10566000000E+00 0. -1.
        -13    1    4    4    0    0  0.17364950795E+02  0.23135571705E+01  0.18222941771E+03  0.18306956575E+03  0.10566000000E+00 0.  1.
        -14    1    4    4    0    0  0.30678404251E+01  0.97065981513E-01  0.29325959741E+02  0.29486148976E+02  0.00000000000E+00 0.  1.
<mgrwt>
<rscale>  0 0.83123678E+02</rscale>
<asrwt>0</asrwt>
<pdfrwt beam="1">  1        1 0.65121871E-03 0.83123678E+02</pdfrwt>
<pdfrwt beam="2">  1       -2 0.62782113E-01 0.83123678E+02</pdfrwt>
<totfact> 0.52807276E+04</totfact>
</mgrwt>
</event>
<event>
 8    1  0.1372337E-024  0.8032984E+02  0.7818608E-02  0.1328118E+00
          1   -1    0    0  501    0  0.00000000000E+00  0.00000000000E+00  0.17224236300E+03  0.17224236308E+03  0.50400000000E-02 0. -1.
         -2   -1    0    0    0  501 -0.00000000000E+00 -0.00000000000E+00 -0.93659929755E+01  0.93659933226E+01  0.25500000000E-02 0.  1.
        -24    2    1    2    0    0  0.35527136788E-14  0.71054273576E-14  0.16287637003E+03  0.18160835640E+03  0.80329840040E+02 0.  0.
         66    2    3    3    0    0 -0.21980875905E+02 -0.29839917343E+02  0.46637521732E+02  0.59604009797E+02  0.19999945107E+01 0.  0.
         13    1    3    3    0    0  0.21980875905E+02  0.29839917343E+02  0.11623884830E+03  0.12200434660E+03  0.10566000000E+00 0. -1.
         13    1    4    4    0    0 -0.79792413800E+01 -0.10319578111E+02  0.17615583699E+02  0.21919898232E+02  0.10566000000E+00 0. -1.
        -13    1    4    4    0    0 -0.63397007892E+00 -0.68153270855E+00  0.10536350156E+01  0.14098637081E+01  0.10566000000E+00 0.  1.
        -14    1    4    4    0    0 -0.13367664446E+02 -0.18838806524E+02  0.27968303017E+02  0.36274247858E+02  0.00000000000E+00 0.  1.
<mgrwt>
<rscale>  0 0.80329840E+02</rscale>
<asrwt>0</asrwt>
<pdfrwt beam="1">  1        1 0.26498825E-01 0.80329840E+02</pdfrwt>
<pdfrwt beam="2">  1       -2 0.14409220E-02 0.80329840E+02</pdfrwt>
<totfact> 0.16025297E+05</totfact>
</mgrwt>
</event>
<event>
 8    1  0.1372337E-024  0.8032061E+02  0.7818608E-02  0.1328144E+00
          1   -1    0    0  501    0  0.00000000000E+00  0.00000000000E+00  0.47257095552E+01  0.47257122428E+01  0.50400000000E-02 0. -1.
         -2   -1    0    0    0  501 -0.00000000000E+00 -0.00000000000E+00 -0.34129256122E+03  0.34129256123E+03  0.25500000000E-02 0.  1.
        -24    2    1    2    0    0  0.00000000000E+00 -0.17763568394E-14 -0.33656685166E+03  0.34601827347E+03  0.80320607176E+02 0.  0.
         66    2    3    3    0    0 -0.23246906732E+02  0.14898912590E+02 -0.29387046434E+03  0.29517155358E+03  0.19999907764E+01 0.  0.
         13    1    3    3    0    0  0.23246906732E+02 -0.14898912590E+02 -0.42696387320E+02  0.50846719887E+02  0.10566000000E+00 0. -1.
         13    1    4    4    0    0 -0.40052206162E+01  0.31733637140E+01 -0.49075610927E+02  0.49341045605E+02  0.10566000000E+00 0. -1.
        -13    1    4    4    0    0 -0.46137936993E+01  0.31040491031E+01 -0.60024094725E+02  0.60281218673E+02  0.10566000000E+00 0.  1.
         14    1    4    4    0    0 -0.14627892417E+02  0.86214997727E+01 -0.18477075869E+03  0.18554928931E+03  0.00000000000E+00 0. -1.
<mgrwt>
<rscale>  0 0.80320607E+02</rscale>
<asrwt>0</asrwt>
<pdfrwt beam="1">  1        1 0.72703272E-03 0.80320607E+02</pdfrwt>
<pdfrwt beam="2">  1       -2 0.52506529E-01 0.80320607E+02</pdfrwt>
<totfact> 0.64623731E+04</totfact>
</mgrwt>
</event>
<event>
 8    1  0.1372337E-024  0.8060190E+02  0.7818608E-02  0.1327352E+00
          1   -1    0    0  501    0  0.00000000000E+00  0.00000000000E+00  0.40766437834E+02  0.40766438146E+02  0.50400000000E-02 0. -1.
         -2   -1    0    0    0  501 -0.00000000000E+00 -0.00000000000E+00 -0.39840779762E+02  0.39840779843E+02  0.25500000000E-02 0.  1.
        -24    2    1    2    0    0  0.00000000000E+00  0.88817841970E-15  0.92565807233E+00  0.80607217989E+02  0.80601902887E+02 0.  0.
         66    2    3    3    0    0  0.30266667652E+02 -0.49724651667E+01 -0.25641580067E+02  0.40028579681E+02  0.19999955901E+01 0.  0.
         13    1    3    3    0    0 -0.30266667652E+02  0.49724651667E+01  0.26567238139E+02  0.40578638308E+02  0.10566000000E+00 0. -1.
         13    1    4    4    0    0  0.98662215824E+01 -0.12663838994E+01 -0.81130654128E+01  0.12836629266E+02  0.10566000000E+00 0.  1.
        -13    1    4    4    0    0  0.14145960124E+02 -0.30822202711E+01 -0.12821114479E+02  0.19339090210E+02  0.10566000000E+00 0. -1.
        -14    1    4    4    0    0  0.62544859451E+01 -0.62386099613E+00 -0.47074001748E+01  0.78528602042E+01  0.00000000000E+00 0.  1.
<mgrwt>
<rscale>  0 0.80601903E+02</rscale>
<asrwt>0</asrwt>
<pdfrwt beam="1">  1        1 0.62717597E-02 0.80601903E+02</pdfrwt>
<pdfrwt beam="2">  1       -2 0.61293508E-02 0.80601903E+02</pdfrwt>
<totfact> 0.12470658E+05</totfact>
</mgrwt>
</event>
<event>
 8    1  0.1372337E-024  0.8094651E+02  0.7818608E-02  0.1326387E+00
          1   -1    0    0  501    0  0.00000000000E+00  0.00000000000E+00  0.23641747666E+02  0.23641748204E+02  0.50400000000E-02 0. -1.
         -2   -1    0    0    0  501 -0.00000000000E+00 -0.00000000000E+00 -0.69287777775E+02  0.69287777822E+02  0.25500000000E-02 0.  1.
        -24    2    1    2    0    0  0.00000000000E+00  0.71054273576E-14 -0.45646030108E+02  0.92929526025E+02  0.80946505438E+02 0.  0.
         66    2    3    3    0    0  0.23037712180E+02  0.32061249433E+02 -0.12735539206E+02  0.41531359977E+02  0.20000012434E+01 0.  0.
         13    1    3    3    0    0 -0.23037712180E+02 -0.32061249433E+02 -0.32910490902E+02  0.51398166048E+02  0.10566000000E+00 0. -1.
         13    1    4    4    0    0  0.12029331489E+02  0.15416169202E+02 -0.66355112640E+01  0.20649558414E+02  0.10566000000E+00 0.  1.
        -13    1    4    4    0    0  0.20764315742E+00  0.30400022695E+00 -0.11230235003E+00  0.39913365209E+00  0.10566000000E+00 0.  1.
        -14    1    4    4    0    0  0.10800737534E+02  0.16341080004E+02 -0.59877255919E+01  0.20482667911E+02  0.00000000000E+00 0.  1.
<mgrwt>
<rscale>  0 0.80946505E+02</rscale>
<asrwt>0</asrwt>
<pdfrwt beam="1">  1        1 0.36371920E-02 0.80946505E+02</pdfrwt>
<pdfrwt beam="2">  1       -2 0.10659658E-01 0.80946505E+02</pdfrwt>
<totfact> 0.11175811E+05</totfact>
</mgrwt>
</event>
<event>
 8    1  0.1372337E-024  0.8245821E+02  0.7818608E-02  0.1322217E+00
          1   -1    0    0  501    0  0.00000000000E+00  0.00000000000E+00  0.15400251721E+02  0.15400252546E+02  0.50400000000E-02 0. -1.
         -2   -1    0    0    0  501 -0.00000000000E+00 -0.00000000000E+00 -0.11037736500E+03  0.11037736503E+03  0.25500000000E-02 0.  1.
        -24    2    1    2    0    0  0.00000000000E+00  0.11102230246E-15 -0.94977113279E+02  0.12577761758E+03  0.82458213880E+02 0.  0.
         66    2    3    3    0    0 -0.38411063532E+02  0.64657685048E+00 -0.70243943009E+02  0.80087698131E+02  0.19999997618E+01 0.  0.
         13    1    3    3    0    0  0.38411063532E+02 -0.64657685048E+00 -0.24733170270E+02  0.45689919446E+02  0.10566000000E+00 0. -1.
         13    1    4    4    0    0 -0.10305655243E+02 -0.45336315975E+00 -0.17854113888E+02  0.20620199196E+02  0.10566000000E+00 0. -1.
        -13    1    4    4    0    0 -0.10418433141E+02  0.52044978060E+00 -0.18725875178E+02  0.21435582154E+02  0.10566000000E+00 0.  1.
         14    1    4    4    0    0 -0.17686975149E+02  0.57949022963E+00 -0.33663953944E+02  0.38031916780E+02  0.00000000000E+00 0. -1.
<mgrwt>
<rscale>  0 0.82458214E+02</rscale>
<asrwt>0</asrwt>
<pdfrwt beam="1">  1        1 0.23692696E-02 0.82458214E+02</pdfrwt>
<pdfrwt beam="2">  1       -2 0.16981133E-01 0.82458214E+02</pdfrwt>
<totfact> 0.95744774E+04</totfact>
</mgrwt>
</event>
<event>
 8    1  0.1372337E-024  0.8172687E+02  0.7818608E-02  0.1324221E+00
          1   -1    0    0  501    0  0.00000000000E+00  0.00000000000E+00  0.25979270798E+03  0.25979270802E+03  0.50400000000E-02 0. -1.
         -2   -1    0    0    0  501 -0.00000000000E+00 -0.00000000000E+00 -0.64275095737E+01  0.64275100795E+01  0.25500000000E-02 0.  1.
        -24    2    1    2    0    0  0.00000000000E+00  0.00000000000E+00  0.25336519840E+03  0.26622021810E+03  0.81726866856E+02 0.  0.
         66    2    3    3    0    0  0.16354007958E+02  0.35670881446E+02  0.89911768880E+02  0.98122329521E+02  0.20000020442E+01 0.  0.
         13    1    3    3    0    0 -0.16354007958E+02 -0.35670881446E+02  0.16345342952E+03  0.16809788858E+03  0.10566000000E+00 0. -1.
         13    1    4    4    0    0  0.42055029881E+01  0.82706067437E+01  0.19549492940E+02  0.21639848187E+02  0.10566000000E+00 0. -1.
        -13    1    4    4    0    0  0.59349782123E+01  0.13600440241E+02  0.35540931194E+02  0.38514476438E+02  0.10566000000E+00 0.  1.
         14    1    4    4    0    0  0.62135267575E+01  0.13799834461E+02  0.34821344746E+02  0.37968004897E+02  0.00000000000E+00 0. -1.
<mgrwt>
<rscale>  0 0.81726867E+02</rscale>
<asrwt>0</asrwt>
<pdfrwt beam="1">  1        1 0.39968103E-01 0.81726867E+02</pdfrwt>
<pdfrwt beam="2">  1       -2 0.98884781E-03 0.81726867E+02</pdfrwt>
<totfact> 0.16582421E+05</totfact>
</mgrwt>
</event>
<event>
 8    1  0.1372337E-024  0.8131861E+02  0.7818608E-02  0.1325351E+00
         -2   -1    0    0    0  501 -0.00000000000E+00  0.00000000000E+00  0.21280371376E+03  0.21280371377E+03  0.25500000000E-02 0.  1.
          1   -1    0    0  501    0  0.00000000000E+00 -0.00000000000E+00 -0.77685630971E+01  0.77685647320E+01  0.50400000000E-02 0. -1.
        -24    2    1    2    0    0  0.00000000000E+00 -0.17763568394E-14  0.20503515066E+03  0.22057227850E+03  0.81318614341E+02 0.  0.
         66    2    3    3    0    0  0.69144226728E+01  0.12441276014E+02  0.20581564916E+03  0.20631693103E+03  0.20000003094E+01 0.  0.
         13    1    3    3    0    0 -0.69144226728E+01 -0.12441276014E+02 -0.78049849597E+00  0.14255347477E+02  0.10566000000E+00 0. -1.
         13    1    4    4    0    0  0.88957334698E+00  0.16063263222E+01  0.27544356979E+02  0.27605694891E+02  0.10566000000E+00 0.  1.
        -13    1    4    4    0    0  0.45942710578E+01  0.84638093350E+01  0.14824463668E+03  0.14855715016E+03  0.10566000000E+00 0.  1.
        -14    1    4    4    0    0  0.14305782680E+01  0.23711403569E+01  0.30026655496E+02  0.30154085976E+02  0.00000000000E+00 0.  1.
<mgrwt>
<rscale>  0 0.81318614E+02</rscale>
<asrwt>0</asrwt>
<pdfrwt beam="1">  1        1 0.11951635E-02 0.81318614E+02</pdfrwt>
<pdfrwt beam="2">  1       -2 0.32739037E-01 0.81318614E+02</pdfrwt>
<totfact> 0.79486777E+04</totfact>
</mgrwt>
</event>
<event>
 8    1  0.1372337E-024  0.8022962E+02  0.7818608E-02  0.1328401E+00
          1   -1    0    0  501    0  0.00000000000E+00  0.00000000000E+00  0.64635184752E+02  0.64635184948E+02  0.50400000000E-02 0. -1.
         -2   -1    0    0    0  501 -0.00000000000E+00 -0.00000000000E+00 -0.24896626243E+02  0.24896626374E+02  0.25500000000E-02 0.  1.
        -24    2    1    2    0    0 -0.88817841970E-15  0.00000000000E+00  0.39738558509E+02  0.89531811322E+02  0.80229621751E+02 0.  0.
         66    2    3    3    0    0 -0.61407249520E+01 -0.92463204999E+01 -0.23107485652E+02  0.25713010202E+02  0.20000136885E+01 0.  0.
         13    1    3    3    0    0  0.61407249520E+01  0.92463204999E+01  0.62846044161E+02  0.63818801120E+02  0.10566000000E+00 0. -1.
         13    1    4    4    0    0 -0.99709753393E+00 -0.10090504125E+01 -0.40066878979E+01  0.42517170854E+01  0.10566000000E+00 0.  1.
        -13    1    4    4    0    0 -0.48297836503E+00 -0.12398815058E+01 -0.19850291339E+01  0.23920867350E+01  0.10566000000E+00 0. -1.
        -14    1    4    4    0    0 -0.46606490531E+01 -0.69973885816E+01 -0.17115768620E+02  0.19069206381E+02  0.00000000000E+00 0.  1.
<mgrwt>
<rscale>  0 0.80229622E+02</rscale>
<asrwt>0</asrwt>
<pdfrwt beam="1">  1        1 0.99438745E-02 0.80229622E+02</pdfrwt>
<pdfrwt beam="2">  1       -2 0.38302502E-02 0.80229622E+02</pdfrwt>
<totfact> 0.13589900E+05</totfact>
</mgrwt>
</event>
<event>
 8    1  0.1372337E-024  0.8953400E+02  0.7818608E-02  0.1303984E+00
          1   -1    0    0  501    0  0.00000000000E+00  0.00000000000E+00  0.19006608188E+02  0.19006608856E+02  0.50400000000E-02 0. -1.
         -2   -1    0    0    0  501 -0.00000000000E+00 -0.00000000000E+00 -0.10544144837E+03  0.10544144840E+03  0.25500000000E-02 0.  1.
        -24    2    1    2    0    0 -0.44408920985E-15  0.35527136788E-14 -0.86434840185E+02  0.12444805726E+03  0.89534001129E+02 0.  0.
         66    2    3    3    0    0 -0.29508496789E+01  0.28549340483E+02 -0.90951113150E+02  0.95393277252E+02  0.20000014338E+01 0.  0.
         13    1    3    3    0    0  0.29508496789E+01 -0.28549340483E+02  0.45162729649E+01  0.29054780009E+02  0.10566000000E+00 0. -1.
         13    1    4    4    0    0 -0.13599237158E+01  0.83203108215E+01 -0.24924668168E+02  0.26312111508E+02  0.10566000000E+00 0. -1.
        -13    1    4    4    0    0 -0.72139827356E+00  0.92415344382E+01 -0.31818280225E+02  0.33141220478E+02  0.10566000000E+00 0.  1.
         14    1    4    4    0    0 -0.86952768954E+00  0.10987495223E+02 -0.34208164758E+02  0.35939945267E+02  0.00000000000E+00 0. -1.
<mgrwt>
<rscale>  0 0.89534001E+02</rscale>
<asrwt>0</asrwt>
<pdfrwt beam="1">  1        1 0.29240937E-02 0.89534001E+02</pdfrwt>
<pdfrwt beam="2">  1       -2 0.16221761E-01 0.89534001E+02</pdfrwt>
<totfact> 0.78430853E+04</totfact>
</mgrwt>
</event>
<event>
 8    1  0.1372337E-024  0.7831084E+02  0.7818608E-02  0.1333915E+00
          1   -1    0    0  501    0  0.00000000000E+00  0.00000000000E+00  0.33801312966E+02  0.33801313342E+02  0.50400000000E-02 0. -1.
         -2   -1    0    0    0  501 -0.00000000000E+00 -0.00000000000E+00 -0.45357616660E+02  0.45357616732E+02  0.25500000000E-02 0.  1.
        -24    2    1    2    0    0  0.00000000000E+00  0.00000000000E+00 -0.11556303694E+02  0.79158930074E+02  0.78310842515E+02 0.  0.
         66    2    3    3    0    0  0.31345376847E+02  0.23293055752E+02 -0.82667810561E+01  0.39967971689E+02  0.19999989895E+01 0.  0.
         13    1    3    3    0    0 -0.31345376847E+02 -0.23293055752E+02 -0.32895226379E+01  0.39190958385E+02  0.10566000000E+00 0. -1.
         13    1    4    4    0    0  0.37423164203E+01  0.30711262610E+01 -0.70290504386E+00  0.48930551026E+01  0.10566000000E+00 0. -1.
        -13    1    4    4    0    0  0.21549898025E+02  0.16021074178E+02 -0.53425336056E+01  0.27379312483E+02  0.10566000000E+00 0.  1.
        -14    1    4    4    0    0  0.60531624014E+01  0.42008553133E+01 -0.22213424066E+01  0.76956041028E+01  0.00000000000E+00 0.  1.
<mgrwt>
<rscale>  0 0.78310843E+02</rscale>
<asrwt>0</asrwt>
<pdfrwt beam="1">  1        1 0.52002021E-02 0.78310843E+02</pdfrwt>
<pdfrwt beam="2">  1       -2 0.69780948E-02 0.78310843E+02</pdfrwt>
<totfact> 0.13119896E+05</totfact>
</mgrwt>
</event>
<event>
 8    1  0.1372337E-024  0.7710923E+02  0.7818608E-02  0.1337461E+00
         -2   -1    0    0    0  501 -0.00000000000E+00  0.00000000000E+00  0.40444098473E+01  0.40444106512E+01  0.25500000000E-02 0.  1.
          1   -1    0    0  501    0  0.00000000000E+00 -0.00000000000E+00 -0.36753399858E+03  0.36753399861E+03  0.50400000000E-02 0. -1.
        -24    2    1    2    0    0  0.00000000000E+00  0.17763568394E-14 -0.36348958873E+03  0.37157840926E+03  0.77109228471E+02 0.  0.
         66    2    3    3    0    0  0.31567408076E+02  0.15703211440E+02 -0.25673155983E+03  0.25914896472E+03  0.19999998437E+01 0.  0.
         13    1    3    3    0    0 -0.31567408076E+02 -0.15703211440E+02 -0.10675802890E+03  0.11242944454E+03  0.10566000000E+00 0. -1.
         13    1    4    4    0    0  0.12718512051E+02  0.62679021127E+01 -0.10919821867E+03  0.11011498204E+03  0.10566000000E+00 0. -1.
        -13    1    4    4    0    0  0.15144739127E+01  0.65423184211E+00 -0.10325426211E+02  0.10456923113E+02  0.10566000000E+00 0.  1.
         14    1    4    4    0    0  0.17334422112E+02  0.87810774848E+01 -0.13720791495E+03  0.13857705956E+03  0.00000000000E+00 0. -1.
<mgrwt>
<rscale>  0 0.77109228E+02</rscale>
<asrwt>0</asrwt>
<pdfrwt beam="1">  1        1 0.56543666E-01 0.77109228E+02</pdfrwt>
<pdfrwt beam="2">  1       -2 0.62221725E-03 0.77109228E+02</pdfrwt>
<totfact> 0.20621865E+05</totfact>
</mgrwt>
</event>
<event>
 8    1  0.1372337E-024  0.8055912E+02  0.7818608E-02  0.1327472E+00
          1   -1    0    0  501    0  0.00000000000E+00  0.00000000000E+00  0.28407890745E+02  0.28407891192E+02  0.50400000000E-02 0. -1.
         -2   -1    0    0    0  501 -0.00000000000E+00 -0.00000000000E+00 -0.57112404982E+02  0.57112405039E+02  0.25500000000E-02 0.  1.
        -24    2    1    2    0    0 -0.35527136788E-14  0.35527136788E-14 -0.28704514237E+02  0.85520296231E+02  0.80559120712E+02 0.  0.
         66    2    3    3    0    0 -0.23891297178E+02 -0.21676344506E+02 -0.39922564773E+02  0.51366031287E+02  0.20000000326E+01 0.  0.
         13    1    3    3    0    0  0.23891297178E+02  0.21676344506E+02  0.11218050536E+02  0.34154264944E+02  0.10566000000E+00 0. -1.
         13    1    4    4    0    0 -0.91421799611E+01 -0.80920793440E+01 -0.15761688424E+02  0.19937482002E+02  0.10566000000E+00 0. -1.
        -13    1    4    4    0    0 -0.11514493523E+01 -0.14928887540E+01 -0.26472250950E+01  0.32516945093E+01  0.10566000000E+00 0.  1.
        -14    1    4    4    0    0 -0.13597667865E+02 -0.12091376408E+02 -0.21513651253E+02  0.28176854776E+02  0.00000000000E+00 0.  1.
<mgrwt>
<rscale>  0 0.80559121E+02</rscale>
<asrwt>0</asrwt>
<pdfrwt beam="1">  1        1 0.43704448E-02 0.80559121E+02</pdfrwt>
<pdfrwt beam="2">  1       -2 0.87865238E-02 0.80559121E+02</pdfrwt>
<totfact> 0.11738771E+05</totfact>
</mgrwt>
</event>
<event>
 8    1  0.1372337E-024  0.7965750E+02  0.7818608E-02  0.1330026E+00
         -2   -1    0    0    0  501 -0.00000000000E+00  0.00000000000E+00  0.35435407405E+02  0.35435407497E+02  0.25500000000E-02 0.  1.
          1   -1    0    0  501    0  0.00000000000E+00 -0.00000000000E+00 -0.44766786375E+02  0.44766786659E+02  0.50400000000E-02 0. -1.
        -24    2    1    2    0    0  0.35527136788E-14  0.00000000000E+00 -0.93313789704E+01  0.80202194156E+02  0.79657500048E+02 0.  0.
         66    2    3    3    0    0 -0.21962239843E+02  0.30667996503E+02  0.81248918791E+01  0.38637803815E+02  0.20000067854E+01 0.  0.
         13    1    3    3    0    0  0.21962239843E+02 -0.30667996503E+02 -0.17456270849E+02  0.41564390341E+02  0.10566000000E+00 0. -1.
         13    1    4    4    0    0 -0.21012710345E+01  0.34933168341E+01  0.79764375321E+00  0.41552379062E+01  0.10566000000E+00 0. -1.
        -13    1    4    4    0    0 -0.10236616720E+02  0.15162592362E+02  0.43539822513E+01  0.18805872873E+02  0.10566000000E+00 0.  1.
        -14    1    4    4    0    0 -0.96243520879E+01  0.12012087307E+02  0.29732658746E+01  0.15676693036E+02  0.00000000000E+00 0.  1.
<mgrwt>
<rscale>  0 0.79657500E+02</rscale>
<asrwt>0</asrwt>
<pdfrwt beam="1">  1        1 0.68871980E-02 0.79657500E+02</pdfrwt>
<pdfrwt beam="2">  1       -2 0.54516011E-02 0.79657500E+02</pdfrwt>
<totfact> 0.13085293E+05</totfact>
</mgrwt>
</event>
<event>
 8    1  0.1372337E-024  0.7924987E+02  0.7818608E-02  0.1331194E+00
         -2   -1    0    0    0  501 -0.00000000000E+00  0.00000000000E+00  0.12296695184E+03  0.12296695187E+03  0.25500000000E-02 0.  1.
          1   -1    0    0  501    0  0.00000000000E+00 -0.00000000000E+00 -0.12768759039E+02  0.12768760033E+02  0.50400000000E-02 0. -1.
        -24    2    1    2    0    0 -0.35527136788E-14  0.00000000000E+00  0.11019819280E+03  0.13573571190E+03  0.79249869327E+02 0.  0.
         66    2    3    3    0    0 -0.16713037517E+02  0.35413010009E+02  0.65226802988E+02  0.76104814149E+02  0.20000019021E+01 0.  0.
         13    1    3    3    0    0  0.16713037517E+02 -0.35413010009E+02  0.44971389814E+02  0.59630897753E+02  0.10566000000E+00 0. -1.
         13    1    4    4    0    0 -0.54636791808E+01  0.10291989043E+02  0.18332594555E+02  0.21722615308E+02  0.10566000000E+00 0. -1.
        -13    1    4    4    0    0 -0.54261760758E+01  0.12551268521E+02  0.24056413810E+02  0.27671283630E+02  0.10566000000E+00 0.  1.
        -14    1    4    4    0    0 -0.58231822604E+01  0.12569752444E+02  0.22837794623E+02  0.26710915210E+02  0.00000000000E+00 0.  1.
<mgrwt>
<rscale>  0 0.79249869E+02</rscale>
<asrwt>0</asrwt>
<pdfrwt beam="1">  1        1 0.19644246E-02 0.79249869E+02</pdfrwt>
<pdfrwt beam="2">  1       -2 0.18917992E-01 0.79249869E+02</pdfrwt>
<totfact> 0.10290762E+05</totfact>
</mgrwt>
</event>
<event>
 8    1  0.1372337E-024  0.7875737E+02  0.7818608E-02  0.1332615E+00
          1   -1    0    0  501    0  0.00000000000E+00  0.00000000000E+00  0.32086086841E+02  0.32086087236E+02  0.50400000000E-02 0. -1.
         -2   -1    0    0    0  501 -0.00000000000E+00 -0.00000000000E+00 -0.48328763588E+02  0.48328763655E+02  0.25500000000E-02 0.  1.
        -24    2    1    2    0    0  0.00000000000E+00  0.35527136788E-14 -0.16242676747E+02  0.80414850891E+02  0.78757372328E+02 0.  0.
         66    2    3    3    0    0  0.25153671278E+01  0.23537934737E+02 -0.40225644815E+02  0.46716848505E+02  0.19999974901E+01 0.  0.
         13    1    3    3    0    0 -0.25153671278E+01 -0.23537934737E+02  0.23982968068E+02  0.33698002387E+02  0.10566000000E+00 0. -1.
         13    1    4    4    0    0  0.56118998232E+00  0.74853408444E+01 -0.12278994636E+02  0.14392016365E+02  0.10566000000E+00 0.  1.
        -13    1    4    4    0    0  0.57735863587E-01  0.21425175905E+00 -0.81672590610E+00  0.85290239037E+00  0.10566000000E+00 0. -1.
        -14    1    4    4    0    0  0.18964412819E+01  0.15838342133E+02 -0.27129924273E+02  0.31471929749E+02  0.00000000000E+00 0.  1.
<mgrwt>
<rscale>  0 0.78757372E+02</rscale>
<asrwt>0</asrwt>
<pdfrwt beam="1">  1        1 0.49363211E-02 0.78757372E+02</pdfrwt>
<pdfrwt beam="2">  1       -2 0.74351944E-02 0.78757372E+02</pdfrwt>
<totfact> 0.12797256E+05</totfact>
</mgrwt>
</event>
<event>
 8    1  0.1372337E-024  0.7787408E+02  0.7818608E-02  0.1335195E+00
          1   -1    0    0  501    0  0.00000000000E+00  0.00000000000E+00  0.26214873329E+02  0.26214873813E+02  0.50400000000E-02 0. -1.
         -2   -1    0    0    0  501 -0.00000000000E+00 -0.00000000000E+00 -0.57833314783E+02  0.57833314839E+02  0.25500000000E-02 0.  1.
        -24    2    1    2    0    0 -0.35527136788E-14  0.00000000000E+00 -0.31618441454E+02  0.84048188652E+02  0.77874078972E+02 0.  0.
         66    2    3    3    0    0 -0.30509217242E+02  0.22496376367E+02 -0.25301896873E+02  0.45618913537E+02  0.20000001338E+01 0.  0.
         13    1    3    3    0    0  0.30509217242E+02 -0.22496376367E+02 -0.63165445811E+01  0.38429275115E+02  0.10566000000E+00 0. -1.
         13    1    4    4    0    0 -0.18920265547E+02  0.13780858802E+02 -0.16243302382E+02  0.28491131147E+02  0.10566000000E+00 0. -1.
        -13    1    4    4    0    0 -0.10397482212E+02  0.80959562230E+01 -0.84404000222E+01  0.15649398074E+02  0.10566000000E+00 0.  1.
         14    1    4    4    0    0 -0.11914694826E+01  0.61956134254E+00 -0.61819446866E+00  0.14783843161E+01  0.00000000000E+00 0. -1.
<mgrwt>
<rscale>  0 0.77874079E+02</rscale>
<asrwt>0</asrwt>
<pdfrwt beam="1">  1        1 0.40330575E-02 0.77874079E+02</pdfrwt>
<pdfrwt beam="2">  1       -2 0.88974330E-02 0.77874079E+02</pdfrwt>
<totfact> 0.12758906E+05</totfact>
</mgrwt>
</event>
<event>
 8    1  0.1372337E-024  0.8134003E+02  0.7818608E-02  0.1325291E+00
          1   -1    0    0  501    0  0.00000000000E+00  0.00000000000E+00  0.77535388846E+02  0.77535389010E+02  0.50400000000E-02 0. -1.
         -2   -1    0    0    0  501 -0.00000000000E+00 -0.00000000000E+00 -0.21332840626E+02  0.21332840779E+02  0.25500000000E-02 0.  1.
        -24    2    1    2    0    0  0.00000000000E+00  0.00000000000E+00  0.56202548220E+02  0.98868229789E+02  0.81340029721E+02 0.  0.
         66    2    3    3    0    0 -0.18366682897E+02  0.22906240905E+02 -0.60458759222E+01  0.30043028116E+02  0.20000024114E+01 0.  0.
         13    1    3    3    0    0  0.18366682897E+02 -0.22906240905E+02  0.62248424142E+02  0.68825201673E+02  0.10566000000E+00 0. -1.
         13    1    4    4    0    0 -0.55468051173E+01  0.72262809366E+01 -0.10268873345E+01  0.91679793203E+01  0.10566000000E+00 0. -1.
        -13    1    4    4    0    0 -0.82003757654E+01  0.10325913347E+02 -0.34836692527E+01  0.13638832965E+02  0.10566000000E+00 0.  1.
        -14    1    4    4    0    0 -0.46195020143E+01  0.53540466217E+01 -0.15353193350E+01  0.72362158306E+01  0.00000000000E+00 0.  1.
<mgrwt>
<rscale>  0 0.81340030E+02</rscale>
<asrwt>0</asrwt>
<pdfrwt beam="1">  1        1 0.11928521E-01 0.81340030E+02</pdfrwt>
<pdfrwt beam="2">  1       -2 0.32819755E-02 0.81340030E+02</pdfrwt>
<totfact> 0.13473161E+05</totfact>
</mgrwt>
</event>
<event>
 8    1  0.1372337E-024  0.7876887E+02  0.7818608E-02  0.1332582E+00
         -2   -1    0    0    0  501 -0.00000000000E+00  0.00000000000E+00  0.95492908315E+01  0.95492911719E+01  0.25500000000E-02 0.  1.
          1   -1    0    0  501    0  0.00000000000E+00 -0.00000000000E+00 -0.16243444531E+03  0.16243444539E+03  0.50400000000E-02 0. -1.
        -24    2    1    2    0    0 -0.71054273576E-14 -0.22204460493E-15 -0.15288515448E+03  0.17198373656E+03  0.78768871906E+02 0.  0.
         66    2    3    3    0    0  0.39300755410E+02  0.14662985791E+01 -0.79894918834E+02  0.89072428099E+02  0.19999961749E+01 0.  0.
         13    1    3    3    0    0 -0.39300755410E+02 -0.14662985791E+01 -0.72990235649E+02  0.82911308465E+02  0.10566000000E+00 0. -1.
         13    1    4    4    0    0  0.12947054002E+02  0.42903689595E+00 -0.24467344040E+02  0.27685237373E+02  0.10566000000E+00 0.  1.
        -13    1    4    4    0    0  0.80020926358E+01  0.60660245635E+00 -0.16463669562E+02  0.18315704534E+02  0.10566000000E+00 0. -1.
        -14    1    4    4    0    0  0.18351608772E+02  0.43065922677E+00 -0.38963905232E+02  0.43071486192E+02  0.00000000000E+00 0.  1.
<mgrwt>
<rscale>  0 0.78768872E+02</rscale>
<asrwt>0</asrwt>
<pdfrwt beam="1">  1        1 0.24989913E-01 0.78768872E+02</pdfrwt>
<pdfrwt beam="2">  1       -2 0.14691218E-02 0.78768872E+02</pdfrwt>
<totfact> 0.16700093E+05</totfact>
</mgrwt>
</event>
<event>
 8    1  0.1372337E-024  0.7788843E+02  0.7818608E-02  0.1335153E+00
         -2   -1    0    0    0  501 -0.00000000000E+00  0.00000000000E+00  0.58446944804E+02  0.58446944859E+02  0.25500000000E-02 0.  1.
          1   -1    0    0  501    0  0.00000000000E+00 -0.00000000000E+00 -0.25949207332E+02  0.25949207821E+02  0.50400000000E-02 0. -1.
        -24    2    1    2    0    0  0.35527136788E-14  0.71054273576E-14  0.32497737472E+02  0.84396152680E+02  0.77888430761E+02 0.  0.
         66    2    3    3    0    0  0.19642937941E+02  0.33596324275E+02  0.16582752091E+02  0.42350273697E+02  0.19999998994E+01 0.  0.
         13    1    3    3    0    0 -0.19642937941E+02 -0.33596324275E+02  0.15914985381E+02  0.42045878983E+02  0.10566000000E+00 0. -1.
         13    1    4    4    0    0  0.13371026019E+02  0.21545747536E+02  0.11053414406E+02  0.27662116835E+02  0.10566000000E+00 0. -1.
        -13    1    4    4    0    0  0.56586774067E+01  0.10946649328E+02  0.52494804080E+01  0.13394699328E+02  0.10566000000E+00 0.  1.
         14    1    4    4    0    0  0.61323451470E+00  0.11039274103E+01  0.27985727677E+00  0.12934575341E+01  0.00000000000E+00 0. -1.
<mgrwt>
<rscale>  0 0.77888431E+02</rscale>
<asrwt>0</asrwt>
<pdfrwt beam="1">  1        1 0.39921858E-02 0.77888431E+02</pdfrwt>
<pdfrwt beam="2">  1       -2 0.89918376E-02 0.77888431E+02</pdfrwt>
<totfact> 0.12728511E+05</totfact>
</mgrwt>
</event>
<event>
 8    1  0.1372337E-024  0.7717370E+02  0.7818608E-02  0.1337269E+00
         -2   -1    0    0    0  501 -0.00000000000E+00  0.00000000000E+00  0.26919386742E+01  0.26919398819E+01  0.25500000000E-02 0.  1.
          1   -1    0    0  501    0  0.00000000000E+00 -0.00000000000E+00 -0.55311242072E+03  0.55311242074E+03  0.50400000000E-02 0. -1.
        -24    2    1    2    0    0 -0.35527136788E-14  0.00000000000E+00 -0.55042048204E+03  0.55580436062E+03  0.77173701700E+02 0.  0.
         66    2    3    3    0    0 -0.16188230252E+02 -0.28164251324E+02 -0.42502558757E+03  0.42626990739E+03  0.20000004823E+01 0.  0.
         13    1    3    3    0    0  0.16188230252E+02  0.28164251324E+02 -0.12539489447E+03  0.12953445323E+03  0.10566000000E+00 0. -1.
         13    1    4    4    0    0 -0.55783918643E+00 -0.16301065174E+01 -0.26090660055E+02  0.26147698521E+02  0.10566000000E+00 0. -1.
        -13    1    4    4    0    0 -0.14668802257E+02 -0.25154824377E+02 -0.37733751303E+03  0.37845944149E+03  0.10566000000E+00 0.  1.
         14    1    4    4    0    0 -0.96158880891E+00 -0.13793204293E+01 -0.21597414481E+02  0.21662767371E+02  0.00000000000E+00 0. -1.
<mgrwt>
<rscale>  0 0.77173702E+02</rscale>
<asrwt>0</asrwt>
<pdfrwt beam="1">  1        1 0.85094129E-01 0.77173702E+02</pdfrwt>
<pdfrwt beam="2">  1       -2 0.41414494E-03 0.77173702E+02</pdfrwt>
<totfact> 0.21767802E+05</totfact>
</mgrwt>
</event>
<event>
 8    1  0.1372337E-024  0.8095463E+02  0.7818608E-02  0.1326364E+00
         -2   -1    0    0    0  501 -0.00000000000E+00  0.00000000000E+00  0.15839023134E+02  0.15839023339E+02  0.25500000000E-02 0.  1.
          1   -1    0    0  501    0  0.00000000000E+00 -0.00000000000E+00 -0.10344154637E+03  0.10344154650E+03  0.50400000000E-02 0. -1.
        -24    2    1    2    0    0 -0.35527136788E-14  0.00000000000E+00 -0.87602523240E+02  0.11928056983E+03  0.80954630888E+02 0.  0.
         66    2    3    3    0    0  0.20223775199E+02  0.24276833600E+02 -0.66099439291E+01  0.32342805886E+02  0.20000002329E+01 0.  0.
         13    1    3    3    0    0 -0.20223775199E+02 -0.24276833600E+02 -0.80992579311E+02  0.86937763948E+02  0.10566000000E+00 0. -1.
         13    1    4    4    0    0  0.28399234998E+01  0.28360765856E+01 -0.12077002908E+01  0.41926363916E+01  0.10566000000E+00 0. -1.
        -13    1    4    4    0    0  0.95441098239E+01  0.11353913318E+02 -0.23829129075E+01  0.15023009616E+02  0.10566000000E+00 0.  1.
         14    1    4    4    0    0  0.78397418754E+01  0.10086843696E+02 -0.30193307308E+01  0.13127159878E+02  0.00000000000E+00 0. -1.
<mgrwt>
<rscale>  0 0.80954631E+02</rscale>
<asrwt>0</asrwt>
<pdfrwt beam="1">  1        1 0.15914084E-01 0.80954631E+02</pdfrwt>
<pdfrwt beam="2">  1       -2 0.24367729E-02 0.80954631E+02</pdfrwt>
<totfact> 0.14317026E+05</totfact>
</mgrwt>
</event>
<event>
 8    1  0.1372337E-024  0.7955984E+02  0.7818608E-02  0.1330305E+00
          1   -1    0    0  501    0  0.00000000000E+00  0.00000000000E+00  0.15091344488E+02  0.15091345329E+02  0.50400000000E-02 0. -1.
         -2   -1    0    0    0  501 -0.00000000000E+00 -0.00000000000E+00 -0.10485757948E+03  0.10485757951E+03  0.25500000000E-02 0.  1.
        -24    2    1    2    0    0  0.00000000000E+00  0.00000000000E+00 -0.89766234990E+02  0.11994892484E+03  0.79559836761E+02 0.  0.
         66    2    3    3    0    0  0.47666804800E+01  0.98997904794E+01 -0.10251316067E+03  0.10311971295E+03  0.19999985841E+01 0.  0.
         13    1    3    3    0    0 -0.47666804800E+01 -0.98997904794E+01  0.12746925681E+02  0.16829211885E+02  0.10566000000E+00 0. -1.
         13    1    4    4    0    0  0.78626192185E+00  0.17372144989E+01 -0.14641714991E+02  0.14765740887E+02  0.10566000000E+00 0.  1.
        -13    1    4    4    0    0  0.38553094039E+01  0.81015740040E+01 -0.83577162868E+02  0.84057434109E+02  0.10566000000E+00 0.  1.
        -14    1    4    4    0    0  0.12510915421E+00  0.61001976559E-01 -0.42942828120E+01  0.42965379564E+01  0.00000000000E+00 0.  1.
<mgrwt>
<rscale>  0 0.79559837E+02</rscale>
<asrwt>0</asrwt>
<pdfrwt beam="1">  1        1 0.23217454E-02 0.79559837E+02</pdfrwt>
<pdfrwt beam="2">  1       -2 0.16131935E-01 0.79559837E+02</pdfrwt>
<totfact> 0.10635850E+05</totfact>
</mgrwt>
</event>
<event>
 8    1  0.1372337E-024  0.7926984E+02  0.7818608E-02  0.1331136E+00
         -2   -1    0    0    0  501 -0.00000000000E+00  0.00000000000E+00  0.25310485882E+02  0.25310486010E+02  0.25500000000E-02 0.  1.
          1   -1    0    0  501    0  0.00000000000E+00 -0.00000000000E+00 -0.62066242762E+02  0.62066242966E+02  0.50400000000E-02 0. -1.
        -24    2    1    2    0    0  0.00000000000E+00  0.00000000000E+00 -0.36755756880E+02  0.87376728976E+02  0.79269837283E+02 0.  0.
         66    2    3    3    0    0 -0.17738711034E+02  0.27794860053E+02  0.58028421237E+01  0.33539366228E+02  0.19999989392E+01 0.  0.
         13    1    3    3    0    0  0.17738711034E+02 -0.27794860053E+02 -0.42558599003E+02  0.53837362748E+02  0.10566000000E+00 0. -1.
         13    1    4    4    0    0 -0.17150866349E+01  0.37649086707E+01  0.51630750244E+00  0.41705871213E+01  0.10566000000E+00 0. -1.
        -13    1    4    4    0    0 -0.23385729110E+01  0.31736868358E+01  0.68599856356E+00  0.40028701524E+01  0.10566000000E+00 0.  1.
        -14    1    4    4    0    0 -0.13685051488E+02  0.20856264546E+02  0.46005360577E+01  0.25365908955E+02  0.00000000000E+00 0.  1.
<mgrwt>
<rscale>  0 0.79269837E+02</rscale>
<asrwt>0</asrwt>
<pdfrwt beam="1">  1        1 0.95486527E-02 0.79269837E+02</pdfrwt>
<pdfrwt beam="2">  1       -2 0.38939210E-02 0.79269837E+02</pdfrwt>
<totfact> 0.13958024E+05</totfact>
</mgrwt>
</event>
<event>
 8    1  0.1372337E-024  0.8081566E+02  0.7818608E-02  0.1326753E+00
          1   -1    0    0  501    0  0.00000000000E+00  0.00000000000E+00  0.54132921107E+03  0.54132921109E+03  0.50400000000E-02 0. -1.
         -2   -1    0    0    0  501 -0.00000000000E+00 -0.00000000000E+00 -0.30162650931E+01  0.30162661710E+01  0.25500000000E-02 0.  1.
        -24    2    1    2    0    0  0.88817841970E-15  0.00000000000E+00  0.53831294597E+03  0.54434547726E+03  0.80815659447E+02 0.  0.
         66    2    3    3    0    0  0.69283916718E+01 -0.39534581227E+02  0.29929409808E+03  0.30198003719E+03  0.19999993685E+01 0.  0.
         13    1    3    3    0    0 -0.69283916718E+01  0.39534581227E+02  0.23901884790E+03  0.24236544007E+03  0.10566000000E+00 0. -1.
         13    1    4    4    0    0  0.26561599728E+01 -0.18414566540E+02  0.13741106917E+03  0.13866493624E+03  0.10566000000E+00 0.  1.
        -13    1    4    4    0    0  0.41959028904E+01 -0.19419757225E+02  0.15039565463E+03  0.15170232914E+03  0.10566000000E+00 0. -1.
         14    1    4    4    0    0  0.76328808592E-01 -0.17002574606E+01  0.11487374274E+02  0.11612771815E+02  0.00000000000E+00 0. -1.
<mgrwt>
<rscale>  0 0.80815659E+02</rscale>
<asrwt>0</asrwt>
<pdfrwt beam="1">  1        1 0.83281403E-01 0.80815659E+02</pdfrwt>
<pdfrwt beam="2">  1       -2 0.46404095E-03 0.80815659E+02</pdfrwt>
<totfact> 0.19257146E+05</totfact>
</mgrwt>
</event>
<event>
 8    1  0.1372337E-024  0.7993039E+02  0.7818608E-02  0.1329249E+00
         -2   -1    0    0    0  501 -0.00000000000E+00  0.00000000000E+00  0.37763174312E+02  0.37763174398E+02  0.25500000000E-02 0.  1.
          1   -1    0    0  501    0  0.00000000000E+00 -0.00000000000E+00 -0.42295622549E+02  0.42295622850E+02  0.50400000000E-02 0. -1.
        -24    2    1    2    0    0 -0.17763568394E-14  0.35527136788E-14 -0.45324482371E+01  0.80058797248E+02  0.79930394280E+02 0.  0.
         66    2    3    3    0    0  0.15547881727E+02 -0.23116025054E+02  0.26398693834E+02  0.38431475038E+02  0.19999992333E+01 0.  0.
         13    1    3    3    0    0 -0.15547881727E+02  0.23116025054E+02 -0.30931142071E+02  0.41627322210E+02  0.10566000000E+00 0. -1.
         13    1    4    4    0    0  0.73997790727E+00 -0.80926550341E+00  0.10966661517E+01  0.15544512351E+01  0.10566000000E+00 0. -1.
        -13    1    4    4    0    0  0.59511169390E+01 -0.79166433004E+01  0.85760770027E+01  0.13101499714E+02  0.10566000000E+00 0.  1.
        -14    1    4    4    0    0  0.88567868809E+01 -0.14390116251E+02  0.16725950680E+02  0.23775524089E+02  0.00000000000E+00 0.  1.
<mgrwt>
<rscale>  0 0.79930394E+02</rscale>
<asrwt>0</asrwt>
<pdfrwt beam="1">  1        1 0.65070189E-02 0.79930394E+02</pdfrwt>
<pdfrwt beam="2">  1       -2 0.58097191E-02 0.79930394E+02</pdfrwt>
<totfact> 0.12843774E+05</totfact>
</mgrwt>
</event>
<event>
 8    1  0.1372337E-024  0.7908521E+02  0.7818608E-02  0.1331668E+00
          1   -1    0    0  501    0  0.00000000000E+00  0.00000000000E+00  0.84274054576E+02  0.84274054726E+02  0.50400000000E-02 0. -1.
         -2   -1    0    0    0  501 -0.00000000000E+00 -0.00000000000E+00 -0.18553962206E+02  0.18553962381E+02  0.25500000000E-02 0.  1.
        -24    2    1    2    0    0  0.00000000000E+00  0.00000000000E+00  0.65720092370E+02  0.10282801711E+03  0.79085210761E+02 0.  0.
         66    2    3    3    0    0 -0.53718418973E+00 -0.20374754948E+02 -0.11138501755E+02  0.23312774160E+02  0.20000029102E+01 0.  0.
         13    1    3    3    0    0  0.53718418973E+00  0.20374754948E+02  0.76858594125E+02  0.79515242947E+02  0.10566000000E+00 0. -1.
         13    1    4    4    0    0  0.25490431246E+00 -0.44225386217E+01 -0.28708719545E+01  0.52798573734E+01  0.10566000000E+00 0. -1.
        -13    1    4    4    0    0 -0.49966712724E-01 -0.10522914426E+02 -0.58877473761E+01  0.12058646603E+02  0.10566000000E+00 0.  1.
        -14    1    4    4    0    0 -0.74212178947E+00 -0.54293019004E+01 -0.23798824248E+01  0.59742701840E+01  0.00000000000E+00 0.  1.
<mgrwt>
<rscale>  0 0.79085211E+02</rscale>
<asrwt>0</asrwt>
<pdfrwt beam="1">  1        1 0.12965239E-01 0.79085211E+02</pdfrwt>
<pdfrwt beam="2">  1       -2 0.28544557E-02 0.79085211E+02</pdfrwt>
<totfact> 0.14742654E+05</totfact>
</mgrwt>
</event>
<event>
 8    1  0.1372337E-024  0.8828900E+02  0.7818608E-02  0.1307049E+00
          1   -1    0    0  501    0  0.00000000000E+00  0.00000000000E+00  0.46067844341E+02  0.46067844617E+02  0.50400000000E-02 0. -1.
         -2   -1    0    0    0  501 -0.00000000000E+00 -0.00000000000E+00 -0.42301456975E+02  0.42301457052E+02  0.25500000000E-02 0.  1.
        -24    2    1    2    0    0  0.00000000000E+00 -0.35527136788E-14  0.37663873663E+01  0.88369301669E+02  0.88289001601E+02 0.  0.
         66    2    3    3    0    0 -0.82839873963E+01  0.19497470207E+02 -0.36854481594E+02  0.42556181814E+02  0.20000013363E+01 0.  0.
         13    1    3    3    0    0  0.82839873963E+01 -0.19497470207E+02  0.40620868960E+02  0.45813119855E+02  0.10566000000E+00 0. -1.
         13    1    4    4    0    0 -0.18949218042E+01  0.33078040311E+01 -0.57769672951E+01  0.69221970007E+01  0.10566000000E+00 0. -1.
        -13    1    4    4    0    0 -0.46177599753E-01  0.39790144601E+00 -0.65174659236E+00  0.77226652634E+00  0.10566000000E+00 0.  1.
        -14    1    4    4    0    0 -0.63428879923E+01  0.15791764730E+02 -0.30425767707E+02  0.34861718287E+02  0.00000000000E+00 0.  1.
<mgrwt>
<rscale>  0 0.88289002E+02</rscale>
<asrwt>0</asrwt>
<pdfrwt beam="1">  1        1 0.70873607E-02 0.88289002E+02</pdfrwt>
<pdfrwt beam="2">  1       -2 0.65079165E-02 0.88289002E+02</pdfrwt>
<totfact> 0.98362683E+04</totfact>
</mgrwt>
</event>
<event>
 8    1  0.1372337E-024  0.7938945E+02  0.7818608E-02  0.1330793E+00
          1   -1    0    0  501    0  0.00000000000E+00  0.00000000000E+00  0.17054274331E+03  0.17054274339E+03  0.50400000000E-02 0. -1.
         -2   -1    0    0    0  501 -0.00000000000E+00 -0.00000000000E+00 -0.92391568174E+01  0.92391571693E+01  0.25500000000E-02 0.  1.
        -24    2    1    2    0    0  0.00000000000E+00 -0.71054273576E-14  0.16130358650E+03  0.17978190056E+03  0.79389449875E+02 0.  0.
         66    2    3    3    0    0 -0.12756726123E+02 -0.36287489638E+02  0.58729602262E+02  0.70233055875E+02  0.19999975164E+01 0.  0.
         13    1    3    3    0    0  0.12756726123E+02  0.36287489638E+02  0.10257398423E+03  0.10954884468E+03  0.10566000000E+00 0. -1.
         13    1    4    4    0    0 -0.58729532870E+01 -0.17033904459E+02  0.28769191752E+02  0.33945883985E+02  0.10566000000E+00 0. -1.
        -13    1    4    4    0    0 -0.72395383539E+00 -0.30836710787E+01  0.46326814751E+01  0.56130239767E+01  0.10566000000E+00 0.  1.
        -14    1    4    4    0    0 -0.61598190002E+01 -0.16169914101E+02  0.25327729036E+02  0.30674147914E+02  0.00000000000E+00 0.  1.
<mgrwt>
<rscale>  0 0.79389450E+02</rscale>
<asrwt>0</asrwt>
<pdfrwt beam="1">  1        1 0.26237343E-01 0.79389450E+02</pdfrwt>
<pdfrwt beam="2">  1       -2 0.14214089E-02 0.79389450E+02</pdfrwt>
<totfact> 0.16504886E+05</totfact>
</mgrwt>
</event>
<event>
 8    1  0.1372337E-024  0.7911044E+02  0.7818608E-02  0.1331595E+00
         -2   -1    0    0    0  501 -0.00000000000E+00  0.00000000000E+00  0.84575919774E+02  0.84575919813E+02  0.25500000000E-02 0.  1.
          1   -1    0    0  501    0  0.00000000000E+00 -0.00000000000E+00 -0.18499539468E+02  0.18499540155E+02  0.50400000000E-02 0. -1.
        -24    2    1    2    0    0  0.17763568394E-14  0.00000000000E+00  0.66076380306E+02  0.10307545997E+03  0.79110444400E+02 0.  0.
         66    2    3    3    0    0  0.10120260904E+02  0.36012006086E+02  0.16407890100E+02  0.40896248438E+02  0.20000039207E+01 0.  0.
         13    1    3    3    0    0 -0.10120260904E+02 -0.36012006086E+02  0.49668490206E+02  0.62179211529E+02  0.10566000000E+00 0. -1.
         13    1    4    4    0    0  0.12172678780E+01  0.47896568300E+01  0.21101161259E+01  0.53745983791E+01  0.10566000000E+00 0. -1.
        -13    1    4    4    0    0  0.58760456734E+01  0.23383428970E+02  0.10377161041E+02  0.26248986618E+02  0.10566000000E+00 0.  1.
         14    1    4    4    0    0  0.30269473530E+01  0.78389202855E+01  0.39206129329E+01  0.92726634410E+01  0.00000000000E+00 0. -1.
<mgrwt>
<rscale>  0 0.79110444E+02</rscale>
<asrwt>0</asrwt>
<pdfrwt beam="1">  1        1 0.28460831E-02 0.79110444E+02</pdfrwt>
<pdfrwt beam="2">  1       -2 0.13011680E-01 0.79110444E+02</pdfrwt>
<totfact> 0.11359729E+05</totfact>
</mgrwt>
</event>
<event>
 8    1  0.1372337E-024  0.8013284E+02  0.7818608E-02  0.1328675E+00
         -2   -1    0    0    0  501 -0.00000000000E+00  0.00000000000E+00  0.69114848539E+02  0.69114848586E+02  0.25500000000E-02 0.  1.
          1   -1    0    0  501    0  0.00000000000E+00 -0.00000000000E+00 -0.23226816222E+02  0.23226816768E+02  0.50400000000E-02 0. -1.
        -24    2    1    2    0    0  0.00000000000E+00  0.00000000000E+00  0.45888032317E+02  0.92341665354E+02  0.80132837529E+02 0.  0.
         66    2    3    3    0    0  0.22251614931E+02 -0.17194198160E+02  0.55806278201E+02  0.62522919861E+02  0.20000009734E+01 0.  0.
         13    1    3    3    0    0 -0.22251614931E+02  0.17194198160E+02 -0.99182458834E+01  0.29818745494E+02  0.10566000000E+00 0. -1.
         13    1    4    4    0    0  0.25338856193E+01 -0.22119969918E+01  0.74189847867E+01  0.81465333931E+01  0.10566000000E+00 0. -1.
        -13    1    4    4    0    0  0.39026410664E+01 -0.35532671276E+01  0.11147322504E+02  0.12334110329E+02  0.10566000000E+00 0.  1.
        -14    1    4    4    0    0  0.15815088245E+02 -0.11428934040E+02  0.37239970910E+02  0.42042276138E+02  0.00000000000E+00 0.  1.
<mgrwt>
<rscale>  0 0.80132838E+02</rscale>
<asrwt>0</asrwt>
<pdfrwt beam="1">  1        1 0.35733565E-02 0.80132838E+02</pdfrwt>
<pdfrwt beam="2">  1       -2 0.10633053E-01 0.80132838E+02</pdfrwt>
<totfact> 0.11472010E+05</totfact>
</mgrwt>
</event>
<event>
 8    1  0.1372337E-024  0.7828386E+02  0.7818608E-02  0.1333993E+00
          1   -1    0    0  501    0  0.00000000000E+00  0.00000000000E+00  0.98751624468E+01  0.98751637329E+01  0.50400000000E-02 0. -1.
         -2   -1    0    0    0  501 -0.00000000000E+00 -0.00000000000E+00 -0.15514584857E+03  0.15514584859E+03  0.25500000000E-02 0.  1.
        -24    2    1    2    0    0  0.00000000000E+00  0.00000000000E+00 -0.14527068612E+03  0.16502101232E+03  0.78283856967E+02 0.  0.
         66    2    3    3    0    0 -0.16148145064E+02 -0.13982213225E+01 -0.14772703988E+03  0.14862703630E+03  0.19999991390E+01 0.  0.
         13    1    3    3    0    0  0.16148145064E+02  0.13982213225E+01  0.24563537589E+01  0.16393976019E+02  0.10566000000E+00 0. -1.
         13    1    4    4    0    0 -0.93082295209E+00 -0.30453128720E+00 -0.74553440017E+01  0.75201388878E+01  0.10566000000E+00 0.  1.
        -13    1    4    4    0    0 -0.52468964453E+01  0.21267230688E+00 -0.44599023556E+02  0.44907229017E+02  0.10566000000E+00 0.  1.
        -14    1    4    4    0    0 -0.99704256670E+01 -0.13063623422E+01 -0.95672672323E+02  0.96199668399E+02  0.00000000000E+00 0.  1.
<mgrwt>
<rscale>  0 0.78283857E+02</rscale>
<asrwt>0</asrwt>
<pdfrwt beam="1">  1        1 0.15192560E-02 0.78283857E+02</pdfrwt>
<pdfrwt beam="2">  1       -2 0.23868590E-01 0.78283857E+02</pdfrwt>
<totfact> 0.98818567E+04</totfact>
</mgrwt>
</event>
<event>
 8    1  0.1372337E-024  0.8048728E+02  0.7818608E-02  0.1327674E+00
          1   -1    0    0  501    0  0.00000000000E+00  0.00000000000E+00  0.17778334708E+03  0.17778334715E+03  0.50400000000E-02 0. -1.
         -2   -1    0    0    0  501 -0.00000000000E+00 -0.00000000000E+00 -0.91096870903E+01  0.91096874472E+01  0.25500000000E-02 0.  1.
        -24    2    1    2    0    0  0.00000000000E+00  0.35527136788E-14  0.16867365999E+03  0.18689303460E+03  0.80487283512E+02 0.  0.
         66    2    3    3    0    0  0.18088416628E+02 -0.31047780041E+02  0.42438515470E+02  0.55643355218E+02  0.19999807646E+01 0.  0.
         13    1    3    3    0    0 -0.18088416628E+02  0.31047780041E+02  0.12623514452E+03  0.13124967938E+03  0.10566000000E+00 0. -1.
         13    1    4    4    0    0  0.69440129779E+01 -0.11963151951E+02  0.16398067306E+02  0.21453300358E+02  0.10566000000E+00 0. -1.
        -13    1    4    4    0    0  0.11062436032E+02 -0.18547965583E+02  0.25183999143E+02  0.33176037966E+02  0.10566000000E+00 0.  1.
         14    1    4    4    0    0  0.81967617843E-01 -0.53666250716E+00  0.85644902084E+00  0.10140168945E+01  0.00000000000E+00 0. -1.
<mgrwt>
<rscale>  0 0.80487284E+02</rscale>
<asrwt>0</asrwt>
<pdfrwt beam="1">  1        1 0.27351285E-01 0.80487284E+02</pdfrwt>
<pdfrwt beam="2">  1       -2 0.14014903E-02 0.80487284E+02</pdfrwt>
<totfact> 0.16038260E+05</totfact>
</mgrwt>
</event>
<event>
 8    1  0.1372337E-024  0.7889570E+02  0.7818608E-02  0.1332215E+00
          1   -1    0    0  501    0  0.00000000000E+00  0.00000000000E+00  0.88647253572E+02  0.88647253716E+02  0.50400000000E-02 0. -1.
         -2   -1    0    0    0  501 -0.00000000000E+00 -0.00000000000E+00 -0.17554214252E+02  0.17554214438E+02  0.25500000000E-02 0.  1.
        -24    2    1    2    0    0  0.00000000000E+00  0.00000000000E+00  0.71093039320E+02  0.10620146815E+03  0.78895700758E+02 0.  0.
         66    2    3    3    0    0  0.34966160800E+02  0.57754824684E+00  0.11073169676E+02  0.36736643391E+02  0.19999794664E+01 0.  0.
         13    1    3    3    0    0 -0.34966160800E+02 -0.57754824684E+00  0.60019869644E+02  0.69464824762E+02  0.10566000000E+00 0. -1.
         13    1    4    4    0    0  0.81137622995E+01  0.62188911897E+00  0.21228766992E+01  0.84105680096E+01  0.10566000000E+00 0. -1.
        -13    1    4    4    0    0  0.17955016879E+02  0.25131093574E+00  0.64348097080E+01  0.19075212406E+02  0.10566000000E+00 0.  1.
         14    1    4    4    0    0  0.88973816216E+01 -0.29565180787E+00  0.25154832686E+01  0.92508629753E+01  0.00000000000E+00 0. -1.
<mgrwt>
<rscale>  0 0.78895701E+02</rscale>
<asrwt>0</asrwt>
<pdfrwt beam="1">  1        1 0.13638039E-01 0.78895701E+02</pdfrwt>
<pdfrwt beam="2">  1       -2 0.27006484E-02 0.78895701E+02</pdfrwt>
<totfact> 0.14961074E+05</totfact>
</mgrwt>
</event>
<event>
 8    1  0.1372337E-024  0.8192563E+02  0.7818608E-02  0.1323674E+00
         -2   -1    0    0    0  501 -0.00000000000E+00  0.00000000000E+00  0.36742558921E+02  0.36742559009E+02  0.25500000000E-02 0.  1.
          1   -1    0    0  501    0  0.00000000000E+00 -0.00000000000E+00 -0.45667807487E+02  0.45667807766E+02  0.50400000000E-02 0. -1.
        -24    2    1    2    0    0  0.00000000000E+00  0.35527136788E-14 -0.89252485668E+01  0.82410366775E+02  0.81925627797E+02 0.  0.
         66    2    3    3    0    0 -0.28268002250E+02 -0.28626566219E+02  0.31549597522E+01  0.40404380990E+02  0.19999968528E+01 0.  0.
         13    1    3    3    0    0  0.28268002250E+02  0.28626566219E+02 -0.12080208319E+02  0.42005985785E+02  0.10566000000E+00 0. -1.
         13    1    4    4    0    0 -0.11123553517E+02 -0.12020927888E+02  0.17281952204E+01  0.16469182520E+02  0.10566000000E+00 0. -1.
        -13    1    4    4    0    0 -0.55482371072E+01 -0.58231929636E+01  0.90664165211E-01  0.80443704114E+01  0.10566000000E+00 0.  1.
        -14    1    4    4    0    0 -0.11596211626E+02 -0.10782445367E+02  0.13361003666E+01  0.15890828058E+02  0.00000000000E+00 0.  1.
<mgrwt>
<rscale>  0 0.81925628E+02</rscale>
<asrwt>0</asrwt>
<pdfrwt beam="1">  1        1 0.70258166E-02 0.81925628E+02</pdfrwt>
<pdfrwt beam="2">  1       -2 0.56527013E-02 0.81925628E+02</pdfrwt>
<totfact> 0.12134158E+05</totfact>
</mgrwt>
</event>
<event>
 8    1  0.1372337E-024  0.7955627E+02  0.7818608E-02  0.1330315E+00
         -2   -1    0    0    0  501 -0.00000000000E+00  0.00000000000E+00  0.13310642513E+02  0.13310642758E+02  0.25500000000E-02 0.  1.
          1   -1    0    0  501    0  0.00000000000E+00 -0.00000000000E+00 -0.11887481501E+03  0.11887481511E+03  0.50400000000E-02 0. -1.
        -24    2    1    2    0    0 -0.35527136788E-14 -0.35527136788E-14 -0.10556417249E+03  0.13218545787E+03  0.79556274162E+02 0.  0.
         66    2    3    3    0    0  0.28243639820E+02  0.23623035627E+02 -0.27917595097E+02  0.46250871424E+02  0.19999972422E+01 0.  0.
         13    1    3    3    0    0 -0.28243639820E+02 -0.23623035627E+02 -0.77646577397E+02  0.85934586448E+02  0.10566000000E+00 0. -1.
         13    1    4    4    0    0  0.14992810072E+02  0.12414164201E+02 -0.13766476349E+02  0.23841620368E+02  0.10566000000E+00 0. -1.
        -13    1    4    4    0    0  0.31466570935E+01  0.22763814781E+01 -0.29599841102E+01  0.48842638612E+01  0.10566000000E+00 0.  1.
         14    1    4    4    0    0  0.10104172654E+02  0.89324899472E+01 -0.11191134637E+02  0.17524987194E+02  0.00000000000E+00 0. -1.
<mgrwt>
<rscale>  0 0.79556274E+02</rscale>
<asrwt>0</asrwt>
<pdfrwt beam="1">  1        1 0.18288432E-01 0.79556274E+02</pdfrwt>
<pdfrwt beam="2">  1       -2 0.20477913E-02 0.79556274E+02</pdfrwt>
<totfact> 0.15369463E+05</totfact>
</mgrwt>
</event>
<event>
 8    1  0.1372337E-024  0.8005785E+02  0.7818608E-02  0.1328887E+00
         -2   -1    0    0    0  501 -0.00000000000E+00  0.00000000000E+00  0.25406928161E+02  0.25406928289E+02  0.25500000000E-02 0.  1.
          1   -1    0    0  501    0  0.00000000000E+00 -0.00000000000E+00 -0.63066058659E+02  0.63066058860E+02  0.50400000000E-02 0. -1.
        -24    2    1    2    0    0  0.00000000000E+00 -0.17763568394E-14 -0.37659130498E+02  0.88472987148E+02  0.80057849991E+02 0.  0.
         66    2    3    3    0    0  0.96132147208E+00  0.12607982933E+02  0.23100994808E+02  0.26411007130E+02  0.19999909740E+01 0.  0.
         13    1    3    3    0    0 -0.96132147208E+00 -0.12607982933E+02 -0.60760125306E+02  0.62061980019E+02  0.10566000000E+00 0. -1.
         13    1    4    4    0    0 -0.53550542676E+00  0.39226076194E+01  0.77398454836E+01  0.86942503267E+01  0.10566000000E+00 0. -1.
        -13    1    4    4    0    0  0.91938263213E+00  0.64685025514E+01  0.11534845938E+02  0.13257097138E+02  0.10566000000E+00 0.  1.
        -14    1    4    4    0    0  0.57744426670E+00  0.22168727623E+01  0.38263033860E+01  0.44596596650E+01  0.00000000000E+00 0.  1.
<mgrwt>
<rscale>  0 0.80057850E+02</rscale>
<asrwt>0</asrwt>
<pdfrwt beam="1">  1        1 0.97024706E-02 0.80057850E+02</pdfrwt>
<pdfrwt beam="2">  1       -2 0.39087582E-02 0.80057850E+02</pdfrwt>
<totfact> 0.13617503E+05</totfact>
</mgrwt>
</event>
<event>
 8    1  0.1372337E-024  0.8220861E+02  0.7818608E-02  0.1322898E+00
          1   -1    0    0  501    0  0.00000000000E+00  0.00000000000E+00  0.91480699543E+02  0.91480699682E+02  0.50400000000E-02 0. -1.
         -2   -1    0    0    0  501 -0.00000000000E+00 -0.00000000000E+00 -0.18469074422E+02  0.18469074599E+02  0.25500000000E-02 0.  1.
        -24    2    1    2    0    0  0.00000000000E+00  0.00000000000E+00  0.73011625120E+02  0.10994977428E+03  0.82208609413E+02 0.  0.
         66    2    3    3    0    0  0.30127836655E+02 -0.20299788225E+02  0.10877939167E+02  0.37974958979E+02  0.20000013730E+01 0.  0.
         13    1    3    3    0    0 -0.30127836655E+02  0.20299788225E+02  0.62133685953E+02  0.71974815301E+02  0.10566000000E+00 0. -1.
         13    1    4    4    0    0  0.21129265598E+01 -0.16500494052E+01  0.12129364968E+01  0.29444015806E+01  0.10566000000E+00 0. -1.
        -13    1    4    4    0    0  0.22855453201E+02 -0.14788873540E+02  0.76087544089E+01  0.28266355076E+02  0.10566000000E+00 0.  1.
        -14    1    4    4    0    0  0.51594568936E+01 -0.38608652795E+01  0.20562482613E+01  0.67642023222E+01  0.00000000000E+00 0.  1.
<mgrwt>
<rscale>  0 0.82208609E+02</rscale>
<asrwt>0</asrwt>
<pdfrwt beam="1">  1        1 0.14073954E-01 0.82208609E+02</pdfrwt>
<pdfrwt beam="2">  1       -2 0.28413960E-02 0.82208609E+02</pdfrwt>
<totfact> 0.13450238E+05</totfact>
</mgrwt>
</event>
<event>
 8    1  0.1372337E-024  0.7980439E+02  0.7818608E-02  0.1329607E+00
          1   -1    0    0  501    0  0.00000000000E+00  0.00000000000E+00  0.34000327416E+02  0.34000327789E+02  0.50400000000E-02 0. -1.
         -2   -1    0    0    0  501 -0.00000000000E+00 -0.00000000000E+00 -0.46828520355E+02  0.46828520424E+02  0.25500000000E-02 0.  1.
        -24    2    1    2    0    0 -0.17763568394E-14 -0.71054273576E-14 -0.12828192939E+02  0.80828848214E+02  0.79804386906E+02 0.  0.
         66    2    3    3    0    0  0.99426370140E+01  0.35494561496E+02  0.89910030509E+01  0.37994184631E+02  0.20000008306E+01 0.  0.
         13    1    3    3    0    0 -0.99426370140E+01 -0.35494561496E+02 -0.21819195990E+02  0.42834663583E+02  0.10566000000E+00 0. -1.
         13    1    4    4    0    0  0.36768970661E+00  0.17428918278E+01  0.81505045528E+00  0.19617183600E+01  0.10566000000E+00 0. -1.
        -13    1    4    4    0    0  0.11261383631E+01  0.37265029658E+01  0.11351664147E+01  0.40564490372E+01  0.10566000000E+00 0.  1.
        -14    1    4    4    0    0  0.84488089443E+01  0.30025166702E+02  0.70407861810E+01  0.31976017234E+02  0.00000000000E+00 0.  1.
<mgrwt>
<rscale>  0 0.79804387E+02</rscale>
<asrwt>0</asrwt>
<pdfrwt beam="1">  1        1 0.52308196E-02 0.79804387E+02</pdfrwt>
<pdfrwt beam="2">  1       -2 0.72043878E-02 0.79804387E+02</pdfrwt>
<totfact> 0.12446332E+05</totfact>
</mgrwt>
</event>
<event>
 8    1  0.1372337E-024  0.8122807E+02  0.7818608E-02  0.1325602E+00
         -2   -1    0    0    0  501 -0.00000000000E+00  0.00000000000E+00  0.82275166520E+02  0.82275166560E+02  0.25500000000E-02 0.  1.
          1   -1    0    0  501    0  0.00000000000E+00 -0.00000000000E+00 -0.20048572034E+02  0.20048572667E+02  0.50400000000E-02 0. -1.
        -24    2    1    2    0    0  0.17763568394E-14  0.00000000000E+00  0.62226594487E+02  0.10232373923E+03  0.81228065027E+02 0.  0.
         66    2    3    3    0    0 -0.13728585113E+02 -0.15958998896E+02  0.74848389036E+02  0.77778178394E+02  0.19999995097E+01 0.  0.
         13    1    3    3    0    0  0.13728585113E+02  0.15958998896E+02 -0.12621794549E+02  0.24545560833E+02  0.10566000000E+00 0. -1.
         13    1    4    4    0    0 -0.25937998520E+01 -0.34689483792E+01  0.17090217014E+02  0.17630884327E+02  0.10566000000E+00 0.  1.
        -13    1    4    4    0    0 -0.48756278808E+01 -0.57426330639E+01  0.28231898452E+02  0.29219870568E+02  0.10566000000E+00 0.  1.
         14    1    4    4    0    0 -0.62591573797E+01 -0.67474174526E+01  0.29526273570E+02  0.30927423500E+02  0.00000000000E+00 0. -1.
<mgrwt>
<rscale>  0 0.81228065E+02</rscale>
<asrwt>0</asrwt>
<pdfrwt beam="1">  1        1 0.30843957E-02 0.81228065E+02</pdfrwt>
<pdfrwt beam="2">  1       -2 0.12657718E-01 0.81228065E+02</pdfrwt>
<totfact> 0.10684644E+05</totfact>
</mgrwt>
</event>
<event>
 8    1  0.1372337E-024  0.8263565E+02  0.7818608E-02  0.1321734E+00
          1   -1    0    0  501    0  0.00000000000E+00  0.00000000000E+00  0.12350264286E+03  0.12350264296E+03  0.50400000000E-02 0. -1.
         -2   -1    0    0    0  501 -0.00000000000E+00 -0.00000000000E+00 -0.13822884969E+02  0.13822885204E+02  0.25500000000E-02 0.  1.
        -24    2    1    2    0    0  0.00000000000E+00  0.00000000000E+00  0.10967975789E+03  0.13732552817E+03  0.82635654504E+02 0.  0.
         66    2    3    3    0    0 -0.40715971456E+02 -0.59256235478E+01  0.49054480975E+02  0.64056580370E+02  0.20000097339E+01 0.  0.
         13    1    3    3    0    0  0.40715971456E+02  0.59256235478E+01  0.60625276915E+02  0.73268947796E+02  0.10566000000E+00 0. -1.
         13    1    4    4    0    0 -0.24080949954E+01 -0.21415979537E+00  0.30293970451E+01  0.38772666168E+01  0.10566000000E+00 0.  1.
        -13    1    4    4    0    0 -0.16445174727E+02 -0.15718992124E+01  0.19568057787E+02  0.25609269582E+02  0.10566000000E+00 0.  1.
         14    1    4    4    0    0 -0.21862701734E+02 -0.41395645399E+01  0.26457026143E+02  0.34570044172E+02  0.00000000000E+00 0. -1.
<mgrwt>
<rscale>  0 0.82635655E+02</rscale>
<asrwt>0</asrwt>
<pdfrwt beam="1">  1        1 0.19000406E-01 0.82635655E+02</pdfrwt>
<pdfrwt beam="2">  1       -2 0.21265978E-02 0.82635655E+02</pdfrwt>
<totfact> 0.13970028E+05</totfact>
</mgrwt>
</event>
<event>
 8    1  0.1372337E-024  0.8011705E+02  0.7818608E-02  0.1328720E+00
         -2   -1    0    0    0  501 -0.00000000000E+00  0.00000000000E+00  0.28943768001E+01  0.28943779234E+01  0.25500000000E-02 0.  1.
          1   -1    0    0  501    0  0.00000000000E+00 -0.00000000000E+00 -0.55441466786E+03  0.55441466788E+03  0.50400000000E-02 0. -1.
        -24    2    1    2    0    0  0.00000000000E+00  0.00000000000E+00 -0.55152029106E+03  0.55730904580E+03  0.80117046168E+02 0.  0.
         66    2    3    3    0    0  0.30454612754E+02 -0.25299043551E+02 -0.31717604633E+03  0.31964381645E+03  0.19999967547E+01 0.  0.
         13    1    3    3    0    0 -0.30454612754E+02  0.25299043551E+02 -0.23434424473E+03  0.23766522936E+03  0.10566000000E+00 0. -1.
         13    1    4    4    0    0  0.22897881839E+01 -0.19304024186E+01 -0.22187349332E+02  0.22388819037E+02  0.10566000000E+00 0. -1.
        -13    1    4    4    0    0  0.24142052865E+02 -0.19817989232E+02 -0.24688633212E+03  0.24885430188E+03  0.10566000000E+00 0.  1.
        -14    1    4    4    0    0  0.40227717056E+01 -0.35506519003E+01 -0.48102364873E+02  0.48400695527E+02  0.00000000000E+00 0.  1.
<mgrwt>
<rscale>  0 0.80117046E+02</rscale>
<asrwt>0</asrwt>
<pdfrwt beam="1">  1        1 0.85294480E-01 0.80117046E+02</pdfrwt>
<pdfrwt beam="2">  1       -2 0.44528927E-03 0.80117046E+02</pdfrwt>
<totfact> 0.19743418E+05</totfact>
</mgrwt>
</event>
<event>
 8    1  0.1372337E-024  0.7723927E+02  0.7818608E-02  0.1337074E+00
          1   -1    0    0  501    0  0.00000000000E+00  0.00000000000E+00  0.55735956592E+02  0.55735956820E+02  0.50400000000E-02 0. -1.
         -2   -1    0    0    0  501 -0.00000000000E+00 -0.00000000000E+00 -0.26759676614E+02  0.26759676735E+02  0.25500000000E-02 0.  1.
        -24    2    1    2    0    0  0.35527136788E-14 -0.35527136788E-14  0.28976279978E+02  0.82495633555E+02  0.77239269509E+02 0.  0.
         66    2    3    3    0    0  0.18126567591E+02 -0.23708686152E+02 -0.11637781891E+02  0.32095361361E+02  0.20000004764E+01 0.  0.
         13    1    3    3    0    0 -0.18126567591E+02  0.23708686152E+02  0.40614061869E+02  0.50400272194E+02  0.10566000000E+00 0. -1.
         13    1    4    4    0    0  0.21375269450E+01 -0.33441763730E+01 -0.14375887012E+01  0.42226013741E+01  0.10566000000E+00 0. -1.
        -13    1    4    4    0    0  0.55320548511E+01 -0.62161944292E+01 -0.38387082359E+01  0.91646903392E+01  0.10566000000E+00 0.  1.
         14    1    4    4    0    0  0.10456985795E+02 -0.14148315349E+02 -0.63614849537E+01  0.18708069648E+02  0.00000000000E+00 0. -1.
<mgrwt>
<rscale>  0 0.77239270E+02</rscale>
<asrwt>0</asrwt>
<pdfrwt beam="1">  1        1 0.85747625E-02 0.77239270E+02</pdfrwt>
<pdfrwt beam="2">  1       -2 0.41168734E-02 0.77239270E+02</pdfrwt>
<totfact> 0.14744430E+05</totfact>
</mgrwt>
</event>
<event>
 8    1  0.1372337E-024  0.8071458E+02  0.7818608E-02  0.1327036E+00
          1   -1    0    0  501    0  0.00000000000E+00  0.00000000000E+00  0.18918422930E+01  0.18918490064E+01  0.50400000000E-02 0. -1.
         -2   -1    0    0    0  501 -0.00000000000E+00 -0.00000000000E+00 -0.86091105234E+03  0.86091105234E+03  0.25500000000E-02 0.  1.
        -24    2    1    2    0    0 -0.71054273576E-14 -0.17763568394E-14 -0.85901921004E+03  0.86280290135E+03  0.80714579529E+02 0.  0.
         66    2    3    3    0    0  0.32777789755E+02  0.96200860395E+01 -0.65898223287E+03  0.65987007266E+03  0.20000004621E+01 0.  0.
         13    1    3    3    0    0 -0.32777789755E+02 -0.96200860395E+01 -0.20003697718E+03  0.20293282869E+03  0.10566000000E+00 0. -1.
         13    1    4    4    0    0  0.22823427344E+01  0.35987974470E+00 -0.42023653051E+02  0.42087256760E+02  0.10566000000E+00 0.  1.
        -13    1    4    4    0    0  0.27669781372E+01  0.12119212181E+01 -0.54987269837E+02  0.55070281724E+02  0.10566000000E+00 0.  1.
        -14    1    4    4    0    0  0.27728468884E+02  0.80482850767E+01 -0.56197130998E+03  0.56271253418E+03  0.00000000000E+00 0.  1.
<mgrwt>
<rscale>  0 0.80714580E+02</rscale>
<asrwt>0</asrwt>
<pdfrwt beam="1">  1        1 0.29105387E-03 0.80714580E+02</pdfrwt>
<pdfrwt beam="2">  1       -2 0.13244754E+00 0.80714580E+02</pdfrwt>
<totfact> 0.30095595E+04</totfact>
</mgrwt>
</event>
<event>
 8    1  0.1372337E-024  0.8330784E+02  0.7818608E-02  0.1319918E+00
          1   -1    0    0  501    0  0.00000000000E+00  0.00000000000E+00  0.13237675761E+03  0.13237675771E+03  0.50400000000E-02 0. -1.
         -2   -1    0    0    0  501 -0.00000000000E+00 -0.00000000000E+00 -0.13106902281E+02  0.13106902529E+02  0.25500000000E-02 0.  1.
        -24    2    1    2    0    0  0.00000000000E+00  0.00000000000E+00  0.11926985533E+03  0.14548366024E+03  0.83307844802E+02 0.  0.
         66    2    3    3    0    0  0.21526754727E+02 -0.23161493116E+02  0.12382820537E+02  0.34017498092E+02  0.19999998883E+01 0.  0.
         13    1    3    3    0    0 -0.21526754727E+02  0.23161493116E+02  0.10688703480E+03  0.11146616215E+03  0.10566000000E+00 0. -1.
         13    1    4    4    0    0  0.88366304100E+01 -0.99847376820E+01  0.58814620037E+01  0.14573392979E+02  0.10566000000E+00 0. -1.
        -13    1    4    4    0    0  0.12304689999E+02 -0.12562310955E+02  0.63919828938E+01  0.18710576203E+02  0.10566000000E+00 0.  1.
        -14    1    4    4    0    0  0.38543431809E+00 -0.61444447888E+00  0.10937563902E+00  0.73352890986E+00  0.00000000000E+00 0.  1.
<mgrwt>
<rscale>  0 0.83307845E+02</rscale>
<asrwt>0</asrwt>
<pdfrwt beam="1">  1        1 0.20365655E-01 0.83307845E+02</pdfrwt>
<pdfrwt beam="2">  1       -2 0.20164466E-02 0.83307845E+02</pdfrwt>
<totfact> 0.13841129E+05</totfact>
</mgrwt>
</event>
<event>
 8    1  0.1372337E-024  0.8011257E+02  0.7818608E-02  0.1328732E+00
         -2   -1    0    0    0  501 -0.00000000000E+00  0.00000000000E+00  0.40802835395E+02  0.40802835475E+02  0.25500000000E-02 0.  1.
          1   -1    0    0  501    0  0.00000000000E+00 -0.00000000000E+00 -0.39323391368E+02  0.39323391691E+02  0.50400000000E-02 0. -1.
        -24    2    1    2    0    0  0.00000000000E+00  0.00000000000E+00  0.14794440275E+01  0.80126227166E+02  0.80112567836E+02 0.  0.
         66    2    3    3    0    0  0.28476098560E+02 -0.48870076203E+01  0.28452845009E+02  0.40599697376E+02  0.20000012956E+01 0.  0.
         13    1    3    3    0    0 -0.28476098560E+02  0.48870076203E+01 -0.26973400982E+02  0.39526529790E+02  0.10566000000E+00 0. -1.
         13    1    4    4    0    0  0.11876312464E+02 -0.20963578475E+01  0.12873321693E+02  0.17640155595E+02  0.10566000000E+00 0.  1.
        -13    1    4    4    0    0  0.96376074964E+01 -0.16608458192E+01  0.83578417371E+01  0.12864935664E+02  0.10566000000E+00 0. -1.
         14    1    4    4    0    0  0.69621785998E+01 -0.11298039536E+01  0.72216815792E+01  0.10094606117E+02  0.00000000000E+00 0. -1.
<mgrwt>
<rscale>  0 0.80112568E+02</rscale>
<asrwt>0</asrwt>
<pdfrwt beam="1">  1        1 0.60497526E-02 0.80112568E+02</pdfrwt>
<pdfrwt beam="2">  1       -2 0.62773593E-02 0.80112568E+02</pdfrwt>
<totfact> 0.12612208E+05</totfact>
</mgrwt>
</event>
<event>
 8    1  0.1372337E-024  0.7676453E+02  0.7818608E-02  0.1338492E+00
          1   -1    0    0  501    0  0.00000000000E+00  0.00000000000E+00  0.13807580035E+03  0.13807580044E+03  0.50400000000E-02 0. -1.
         -2   -1    0    0    0  501 -0.00000000000E+00 -0.00000000000E+00 -0.10669490153E+02  0.10669490458E+02  0.25500000000E-02 0.  1.
        -24    2    1    2    0    0  0.00000000000E+00  0.00000000000E+00  0.12740631020E+03  0.14874529090E+03  0.76764534043E+02 0.  0.
         66    2    3    3    0    0 -0.33873640353E+02 -0.27020258003E+01  0.29275723437E+02  0.44897577030E+02  0.19999965538E+01 0.  0.
         13    1    3    3    0    0  0.33873640353E+02  0.27020258003E+01  0.98130586758E+02  0.10384771387E+03  0.10566000000E+00 0. -1.
         13    1    4    4    0    0 -0.11990283075E+02 -0.14547779147E+01  0.10730192449E+02  0.16156468087E+02  0.10566000000E+00 0.  1.
        -13    1    4    4    0    0 -0.16417367459E+02 -0.76806669079E+00  0.13191356361E+02  0.21074698750E+02  0.10566000000E+00 0. -1.
        -14    1    4    4    0    0 -0.54659898182E+01 -0.47918119486E+00  0.53541746270E+01  0.76664101930E+01  0.00000000000E+00 0.  1.
<mgrwt>
<rscale>  0 0.76764534E+02</rscale>
<asrwt>0</asrwt>
<pdfrwt beam="1">  1        1 0.21242430E-01 0.76764534E+02</pdfrwt>
<pdfrwt beam="2">  1       -2 0.16414601E-02 0.76764534E+02</pdfrwt>
<totfact> 0.17363853E+05</totfact>
</mgrwt>
</event>
<event>
 8    1  0.1372337E-024  0.8035651E+02  0.7818608E-02  0.1328043E+00
         -2   -1    0    0    0  501 -0.00000000000E+00  0.00000000000E+00  0.15788479027E+03  0.15788479029E+03  0.25500000000E-02 0.  1.
          1   -1    0    0  501    0  0.00000000000E+00 -0.00000000000E+00 -0.10224494784E+02  0.10224496026E+02  0.50400000000E-02 0. -1.
        -24    2    1    2    0    0  0.00000000000E+00  0.00000000000E+00  0.14766029549E+03  0.16810928632E+03  0.80356513631E+02 0.  0.
         66    2    3    3    0    0 -0.27424118565E+01  0.33074827195E+02  0.12115881357E+03  0.12563806401E+03  0.20000012740E+01 0.  0.
         13    1    3    3    0    0  0.27424118565E+01 -0.33074827195E+02  0.26501481920E+02  0.42471222313E+02  0.10566000000E+00 0. -1.
         13    1    4    4    0    0 -0.18041208230E+01  0.14642038080E+02  0.56221567922E+02  0.58125037589E+02  0.10566000000E+00 0. -1.
        -13    1    4    4    0    0 -0.10617404425E+00  0.30807643177E+01  0.11772057470E+02  0.12169424095E+02  0.10566000000E+00 0.  1.
        -14    1    4    4    0    0 -0.83211698920E+00  0.15352024797E+02  0.53165188177E+02  0.55343602322E+02  0.00000000000E+00 0.  1.
<mgrwt>
<rscale>  0 0.80356514E+02</rscale>
<asrwt>0</asrwt>
<pdfrwt beam="1">  1        1 0.15729994E-02 0.80356514E+02</pdfrwt>
<pdfrwt beam="2">  1       -2 0.24289966E-01 0.80356514E+02</pdfrwt>
<totfact> 0.91845932E+04</totfact>
</mgrwt>
</event>
<event>
 8    1  0.1372337E-024  0.7971641E+02  0.7818608E-02  0.1329858E+00
         -2   -1    0    0    0  501 -0.00000000000E+00  0.00000000000E+00  0.30726143606E+02  0.30726143712E+02  0.25500000000E-02 0.  1.
          1   -1    0    0  501    0  0.00000000000E+00 -0.00000000000E+00 -0.51704384348E+02  0.51704384594E+02  0.50400000000E-02 0. -1.
        -24    2    1    2    0    0 -0.35527136788E-14  0.00000000000E+00 -0.20978240742E+02  0.82430528306E+02  0.79716406167E+02 0.  0.
         66    2    3    3    0    0  0.22991457400E+02 -0.82727734418E+01  0.22033677576E+02  0.32962536885E+02  0.19999991454E+01 0.  0.
         13    1    3    3    0    0 -0.22991457400E+02  0.82727734418E+01 -0.43011918318E+02  0.49467991421E+02  0.10566000000E+00 0. -1.
         13    1    4    4    0    0  0.40071680216E+01 -0.18201308469E+01  0.31913949943E+01  0.54375029102E+01  0.10566000000E+00 0. -1.
        -13    1    4    4    0    0  0.12471554386E+02 -0.42710491139E+01  0.11907927273E+02  0.17764893056E+02  0.10566000000E+00 0.  1.
         14    1    4    4    0    0  0.65127349920E+01 -0.21815934810E+01  0.69343553092E+01  0.97601409184E+01  0.00000000000E+00 0. -1.
<mgrwt>
<rscale>  0 0.79716406E+02</rscale>
<asrwt>0</asrwt>
<pdfrwt beam="1">  1        1 0.79545207E-02 0.79716406E+02</pdfrwt>
<pdfrwt beam="2">  1       -2 0.47270990E-02 0.79716406E+02</pdfrwt>
<totfact> 0.13357608E+05</totfact>
</mgrwt>
</event>
<event>
 8    1  0.1372337E-024  0.8878976E+02  0.7818608E-02  0.1305809E+00
          1   -1    0    0  501    0  0.00000000000E+00  0.00000000000E+00  0.16623653218E+03  0.16623653226E+03  0.50400000000E-02 0. -1.
         -2   -1    0    0    0  501 -0.00000000000E+00 -0.00000000000E+00 -0.11856031339E+02  0.11856031614E+02  0.25500000000E-02 0.  1.
        -24    2    1    2    0    0 -0.71054273576E-14  0.22204460493E-15  0.15438050084E+03  0.17809256387E+03  0.88789764423E+02 0.  0.
         66    2    3    3    0    0  0.39315718464E+02 -0.10853858563E+01  0.36025492083E+02  0.53373587596E+02  0.19999980618E+01 0.  0.
         13    1    3    3    0    0 -0.39315718464E+02  0.10853858563E+01  0.11835500876E+03  0.12471897628E+03  0.10566000000E+00 0. -1.
         13    1    4    4    0    0  0.70969198159E+01 -0.78529775093E+00  0.64977836482E+01  0.96548081186E+01  0.10566000000E+00 0. -1.
        -13    1    4    4    0    0  0.15835541662E+02 -0.48780299973E+00  0.13902728815E+02  0.21078409903E+02  0.10566000000E+00 0.  1.
        -14    1    4    4    0    0  0.16383256986E+02  0.18771489438E+00  0.15624979620E+02  0.22640369575E+02  0.00000000000E+00 0.  1.
<mgrwt>
<rscale>  0 0.88789764E+02</rscale>
<asrwt>0</asrwt>
<pdfrwt beam="1">  1        1 0.25574850E-01 0.88789764E+02</pdfrwt>
<pdfrwt beam="2">  1       -2 0.18240050E-02 0.88789764E+02</pdfrwt>
<totfact> 0.12168579E+05</totfact>
</mgrwt>
</event>
<event>
 8    1  0.1372337E-024  0.8088640E+02  0.7818608E-02  0.1326555E+00
         -2   -1    0    0    0  501 -0.00000000000E+00  0.00000000000E+00  0.36269313335E+02  0.36269313425E+02  0.25500000000E-02 0.  1.
          1   -1    0    0  501    0  0.00000000000E+00 -0.00000000000E+00 -0.45097414214E+02  0.45097414495E+02  0.50400000000E-02 0. -1.
        -24    2    1    2    0    0 -0.17763568394E-14  0.00000000000E+00 -0.88281008782E+01  0.81366727920E+02  0.80886395935E+02 0.  0.
         66    2    3    3    0    0 -0.12238615606E+02  0.36818692401E+02  0.69751480870E+01  0.39472173812E+02  0.19999981267E+01 0.  0.
         13    1    3    3    0    0  0.12238615606E+02 -0.36818692401E+02 -0.15803248965E+02  0.41894554109E+02  0.10566000000E+00 0. -1.
         13    1    4    4    0    0 -0.49535286275E+01  0.12674123647E+02  0.24108472784E+01  0.13820065294E+02  0.10566000000E+00 0. -1.
        -13    1    4    4    0    0 -0.24417496482E+01  0.65050607813E+01  0.13768320804E+01  0.70841222270E+01  0.10566000000E+00 0.  1.
         14    1    4    4    0    0 -0.48433373305E+01  0.17639507972E+02  0.31874687282E+01  0.18567986291E+02  0.00000000000E+00 0. -1.
<mgrwt>
<rscale>  0 0.80886396E+02</rscale>
<asrwt>0</asrwt>
<pdfrwt beam="1">  1        1 0.69380638E-02 0.80886396E+02</pdfrwt>
<pdfrwt beam="2">  1       -2 0.55798944E-02 0.80886396E+02</pdfrwt>
<totfact> 0.12551041E+05</totfact>
</mgrwt>
</event>
<event>
 8    1  0.1372337E-024  0.7960466E+02  0.7818608E-02  0.1330177E+00
          1   -1    0    0  501    0  0.00000000000E+00  0.00000000000E+00  0.20076537860E+02  0.20076538493E+02  0.50400000000E-02 0. -1.
         -2   -1    0    0    0  501 -0.00000000000E+00 -0.00000000000E+00 -0.78909301858E+02  0.78909301900E+02  0.25500000000E-02 0.  1.
        -24    2    1    2    0    0  0.00000000000E+00  0.00000000000E+00 -0.58832763998E+02  0.98985840393E+02  0.79604663674E+02 0.  0.
         66    2    3    3    0    0  0.32622422063E+02 -0.22539707265E+02 -0.33359185302E+02  0.51856494965E+02  0.20000002808E+01 0.  0.
         13    1    3    3    0    0 -0.32622422063E+02  0.22539707265E+02 -0.25473578696E+02  0.47129345428E+02  0.10566000000E+00 0. -1.
         13    1    4    4    0    0  0.15918221903E+01 -0.14886072737E+01 -0.20186250923E+01  0.29725175861E+01  0.10566000000E+00 0. -1.
        -13    1    4    4    0    0  0.21343818431E+02 -0.14912515142E+02 -0.21236210623E+02  0.33599546109E+02  0.10566000000E+00 0.  1.
        -14    1    4    4    0    0  0.96867814416E+01 -0.61385848498E+01 -0.10104349587E+02  0.15284431269E+02  0.00000000000E+00 0.  1.
<mgrwt>
<rscale>  0 0.79604664E+02</rscale>
<asrwt>0</asrwt>
<pdfrwt beam="1">  1        1 0.30886982E-02 0.79604664E+02</pdfrwt>
<pdfrwt beam="2">  1       -2 0.12139892E-01 0.79604664E+02</pdfrwt>
<totfact> 0.11351426E+05</totfact>
</mgrwt>
</event>
<event>
 8    1  0.1372337E-024  0.8322123E+02  0.7818608E-02  0.1320151E+00
         -2   -1    0    0    0  501 -0.00000000000E+00  0.00000000000E+00  0.21044529350E+03  0.21044529351E+03  0.25500000000E-02 0.  1.
          1   -1    0    0  501    0  0.00000000000E+00 -0.00000000000E+00 -0.82275204930E+01  0.82275220367E+01  0.50400000000E-02 0. -1.
        -24    2    1    2    0    0  0.00000000000E+00  0.00000000000E+00  0.20221777300E+03  0.21867281555E+03  0.83221226508E+02 0.  0.
         66    2    3    3    0    0  0.16454139642E+02 -0.19303459476E+02  0.18776171055E+03  0.18947776177E+03  0.19999999425E+01 0.  0.
         13    1    3    3    0    0 -0.16454139642E+02  0.19303459476E+02  0.14456062454E+02  0.29195053773E+02  0.10566000000E+00 0. -1.
         13    1    4    4    0    0  0.31332066310E+01 -0.41606223908E+01  0.41898920902E+02  0.42221540702E+02  0.10566000000E+00 0. -1.
        -13    1    4    4    0    0  0.28530420455E+01 -0.38268884363E+01  0.31770580843E+02  0.32127338750E+02  0.10566000000E+00 0.  1.
        -14    1    4    4    0    0  0.10467890966E+02 -0.11315948649E+02  0.11409220880E+03  0.11512888232E+03  0.00000000000E+00 0.  1.
<mgrwt>
<rscale>  0 0.83221227E+02</rscale>
<asrwt>0</asrwt>
<pdfrwt beam="1">  1        1 0.12657726E-02 0.83221227E+02</pdfrwt>
<pdfrwt beam="2">  1       -2 0.32376195E-01 0.83221227E+02</pdfrwt>
<totfact> 0.75228000E+04</totfact>
</mgrwt>
</event>
<event>
 8    1  0.1372337E-024  0.8086205E+02  0.7818608E-02  0.1326623E+00
         -2   -1    0    0    0  501 -0.00000000000E+00  0.00000000000E+00  0.70600353614E+01  0.70600358219E+01  0.25500000000E-02 0.  1.
          1   -1    0    0  501    0  0.00000000000E+00 -0.00000000000E+00 -0.23153815158E+03  0.23153815163E+03  0.50400000000E-02 0. -1.
        -24    2    1    2    0    0  0.00000000000E+00  0.00000000000E+00 -0.22447811622E+03  0.23859818745E+03  0.80862045463E+02 0.  0.
         66    2    3    3    0    0 -0.21975340503E+02 -0.24377554189E+02 -0.42763895593E+02  0.53943780848E+02  0.19999968569E+01 0.  0.
         13    1    3    3    0    0  0.21975340503E+02  0.24377554189E+02 -0.18171422062E+03  0.18465440661E+03  0.10566000000E+00 0. -1.
         13    1    4    4    0    0 -0.12055594290E+01 -0.14350691262E+01 -0.27581676731E+01  0.33363827542E+01  0.10566000000E+00 0. -1.
        -13    1    4    4    0    0 -0.18005885041E+02 -0.19821241278E+02 -0.33625284491E+02  0.42985630425E+02  0.10566000000E+00 0.  1.
        -14    1    4    4    0    0 -0.27638960326E+01 -0.31212437845E+01 -0.63804434291E+01  0.76217676685E+01  0.00000000000E+00 0.  1.
<mgrwt>
<rscale>  0 0.80862045E+02</rscale>
<asrwt>0</asrwt>
<pdfrwt beam="1">  1        1 0.35621249E-01 0.80862045E+02</pdfrwt>
<pdfrwt beam="2">  1       -2 0.10861595E-02 0.80862045E+02</pdfrwt>
<totfact> 0.16676315E+05</totfact>
</mgrwt>
</event>
<event>
 8    1  0.1372337E-024  0.7999654E+02  0.7818608E-02  0.1329061E+00
          1   -1    0    0  501    0  0.00000000000E+00  0.00000000000E+00  0.45099352963E+02  0.45099353245E+02  0.50400000000E-02 0. -1.
         -2   -1    0    0    0  501 -0.00000000000E+00 -0.00000000000E+00 -0.35474154004E+02  0.35474154096E+02  0.25500000000E-02 0.  1.
        -24    2    1    2    0    0  0.00000000000E+00  0.00000000000E+00  0.96251989591E+01  0.80573507341E+02  0.79996535114E+02 0.  0.
         66    2    3    3    0    0 -0.16669180716E+02  0.43803040971E+01 -0.31511243855E+02  0.35972310708E+02  0.19999996656E+01 0.  0.
         13    1    3    3    0    0  0.16669180716E+02 -0.43803040971E+01  0.41136442814E+02  0.44601196633E+02  0.10566000000E+00 0. -1.
         13    1    4    4    0    0 -0.33336592335E+01  0.13183312369E+01 -0.73140859597E+01  0.81460603113E+01  0.10566000000E+00 0. -1.
        -13    1    4    4    0    0 -0.10052665732E+01 -0.67109074434E-01 -0.15746768862E+01  0.18723877383E+01  0.10566000000E+00 0.  1.
         14    1    4    4    0    0 -0.12330254909E+02  0.31290819346E+01 -0.22622481009E+02  0.25953862658E+02  0.00000000000E+00 0. -1.
<mgrwt>
<rscale>  0 0.79996535E+02</rscale>
<asrwt>0</asrwt>
<pdfrwt beam="1">  1        1 0.69383621E-02 0.79996535E+02</pdfrwt>
<pdfrwt beam="2">  1       -2 0.54575622E-02 0.79996535E+02</pdfrwt>
<totfact> 0.12945977E+05</totfact>
</mgrwt>
</event>
<event>
 8    1  0.1372337E-024  0.7932874E+02  0.7818608E-02  0.1330967E+00
          1   -1    0    0  501    0  0.00000000000E+00  0.00000000000E+00  0.93743563883E+02  0.93743564019E+02  0.50400000000E-02 0. -1.
         -2   -1    0    0    0  501 -0.00000000000E+00 -0.00000000000E+00 -0.16782616378E+02  0.16782616571E+02  0.25500000000E-02 0.  1.
        -24    2    1    2    0    0 -0.88817841970E-15  0.35527136788E-14  0.76960947506E+02  0.11052618059E+03  0.79328741039E+02 0.  0.
         66    2    3    3    0    0 -0.39228086316E+01  0.28082914482E+02  0.77096592556E+02  0.82170086413E+02  0.20000009959E+01 0.  0.
         13    1    3    3    0    0  0.39228086316E+01 -0.28082914482E+02 -0.13564505000E+00  0.28356094177E+02  0.10566000000E+00 0. -1.
         13    1    4    4    0    0 -0.18906345267E+01  0.11432784404E+02  0.33026429726E+02  0.35000561176E+02  0.10566000000E+00 0. -1.
        -13    1    4    4    0    0  0.72714585831E-01  0.15668962518E+01  0.35801839896E+01  0.39101576323E+01  0.10566000000E+00 0.  1.
        -14    1    4    4    0    0 -0.21048886907E+01  0.15083233827E+02  0.40489978840E+02  0.43259367605E+02  0.00000000000E+00 0.  1.
<mgrwt>
<rscale>  0 0.79328741E+02</rscale>
<asrwt>0</asrwt>
<pdfrwt beam="1">  1        1 0.14422087E-01 0.79328741E+02</pdfrwt>
<pdfrwt beam="2">  1       -2 0.25819410E-02 0.79328741E+02</pdfrwt>
<totfact> 0.14876794E+05</totfact>
</mgrwt>
</event>
<event>
 8    1  0.1372337E-024  0.7379700E+02  0.7818608E-02  0.1347637E+00
          1   -1    0    0  501    0  0.00000000000E+00  0.00000000000E+00  0.35882732510E+03  0.35882732513E+03  0.50400000000E-02 0. -1.
         -2   -1    0    0    0  501 -0.00000000000E+00 -0.00000000000E+00 -0.37943021505E+01  0.37943030073E+01  0.25500000000E-02 0.  1.
        -24    2    1    2    0    0  0.00000000000E+00  0.00000000000E+00  0.35503302295E+03  0.36262162814E+03  0.73797004086E+02 0.  0.
         66    2    3    3    0    0 -0.27763484374E+02  0.24203263727E+02  0.16929953965E+03  0.17327129933E+03  0.20000013705E+01 0.  0.
         13    1    3    3    0    0  0.27763484374E+02 -0.24203263727E+02  0.18573348329E+03  0.18935032881E+03  0.10566000000E+00 0. -1.
         13    1    4    4    0    0 -0.20735518114E+02  0.18319756655E+02  0.12738075474E+03  0.13035122953E+03  0.10566000000E+00 0.  1.
        -13    1    4    4    0    0 -0.66103002136E+01  0.53257726264E+01  0.37690999209E+02  0.38635249557E+02  0.10566000000E+00 0. -1.
         14    1    4    4    0    0 -0.41766604577E+00  0.55773444629E+00  0.42277857000E+01  0.42848202487E+01  0.00000000000E+00 0. -1.
<mgrwt>
<rscale>  0 0.73797004E+02</rscale>
<asrwt>0</asrwt>
<pdfrwt beam="1">  1        1 0.55204214E-01 0.73797004E+02</pdfrwt>
<pdfrwt beam="2">  1       -2 0.58373876E-03 0.73797004E+02</pdfrwt>
<totfact> 0.23032281E+05</totfact>
</mgrwt>
</event>
<event>
 8    1  0.1372337E-024  0.8403834E+02  0.7818608E-02  0.1317967E+00
          1   -1    0    0  501    0  0.00000000000E+00  0.00000000000E+00  0.14078182414E+02  0.14078183316E+02  0.50400000000E-02 0. -1.
         -2   -1    0    0    0  501 -0.00000000000E+00 -0.00000000000E+00 -0.12541467608E+03  0.12541467610E+03  0.25500000000E-02 0.  1.
        -24    2    1    2    0    0  0.17763568394E-14  0.35527136788E-14 -0.11133649366E+03  0.13949285942E+03  0.84038342485E+02 0.  0.
         66    2    3    3    0    0  0.12907776689E+02  0.23054430631E+02 -0.10988091481E+03  0.11303067235E+03  0.19999953755E+01 0.  0.
         13    1    3    3    0    0 -0.12907776689E+02 -0.23054430631E+02 -0.14555788552E+01  0.26462187072E+02  0.10566000000E+00 0. -1.
         13    1    4    4    0    0  0.70935681954E+01  0.11445946255E+02 -0.57735474557E+02  0.59285112649E+02  0.10566000000E+00 0. -1.
        -13    1    4    4    0    0  0.13904785226E+01  0.20426965225E+01 -0.10470438499E+02  0.10758591264E+02  0.10566000000E+00 0.  1.
        -14    1    4    4    0    0  0.44237299708E+01  0.95657878535E+01 -0.41675001751E+02  0.42986968433E+02  0.00000000000E+00 0.  1.
<mgrwt>
<rscale>  0 0.84038342E+02</rscale>
<asrwt>0</asrwt>
<pdfrwt beam="1">  1        1 0.21658744E-02 0.84038342E+02</pdfrwt>
<pdfrwt beam="2">  1       -2 0.19294565E-01 0.84038342E+02</pdfrwt>
<totfact> 0.88001005E+04</totfact>
</mgrwt>
</event>
<event>
 8    1  0.1372337E-024  0.7856294E+02  0.7818608E-02  0.1333180E+00
          1   -1    0    0  501    0  0.00000000000E+00  0.00000000000E+00  0.97447592952E+01  0.97447605985E+01  0.50400000000E-02 0. -1.
         -2   -1    0    0    0  501 -0.00000000000E+00 -0.00000000000E+00 -0.15834498208E+03  0.15834498210E+03  0.25500000000E-02 0.  1.
        -24    2    1    2    0    0  0.35527136788E-14  0.00000000000E+00 -0.14860022278E+03  0.16808974270E+03  0.78562939029E+02 0.  0.
         66    2    3    3    0    0  0.20849603259E+02 -0.32184989294E+02 -0.92306303887E+02  0.99975163049E+02  0.19999993820E+01 0.  0.
         13    1    3    3    0    0 -0.20849603259E+02  0.32184989294E+02 -0.56293918894E+02  0.68114579646E+02  0.10566000000E+00 0. -1.
         13    1    4    4    0    0  0.20093009120E+01 -0.27297761120E+01 -0.83849280417E+01  0.90447305143E+01  0.10566000000E+00 0. -1.
        -13    1    4    4    0    0  0.95701768317E+01 -0.13386171444E+02 -0.39769191519E+02  0.43039256832E+02  0.10566000000E+00 0.  1.
         14    1    4    4    0    0  0.92701255153E+01 -0.16069041738E+02 -0.44152184326E+02  0.47891175703E+02  0.00000000000E+00 0. -1.
<mgrwt>
<rscale>  0 0.78562939E+02</rscale>
<asrwt>0</asrwt>
<pdfrwt beam="1">  1        1 0.14991940E-02 0.78562939E+02</pdfrwt>
<pdfrwt beam="2">  1       -2 0.24360765E-01 0.78562939E+02</pdfrwt>
<totfact> 0.97243955E+04</totfact>
</mgrwt>
</event>
<event>
 8    1  0.1372337E-024  0.8013000E+02  0.7818608E-02  0.1328683E+00
          1   -1    0    0  501    0  0.00000000000E+00  0.00000000000E+00  0.83002525231E+02  0.83002525384E+02  0.50400000000E-02 0. -1.
         -2   -1    0    0    0  501 -0.00000000000E+00 -0.00000000000E+00 -0.19339220352E+02  0.19339220520E+02  0.25500000000E-02 0.  1.
        -24    2    1    2    0    0  0.35527136788E-14  0.00000000000E+00  0.63663304879E+02  0.10234174590E+03  0.80129997919E+02 0.  0.
         66    2    3    3    0    0 -0.20532012228E+02  0.18937765929E+02 -0.47886794013E+01  0.28410103013E+02  0.19999995719E+01 0.  0.
         13    1    3    3    0    0  0.20532012228E+02 -0.18937765929E+02  0.68451984280E+02  0.73931642890E+02  0.10566000000E+00 0. -1.
         13    1    4    4    0    0 -0.87391457344E+01  0.83750931235E+01 -0.15411593212E+01  0.12202507492E+02  0.10566000000E+00 0. -1.
        -13    1    4    4    0    0 -0.11071603501E+02  0.10000872800E+02 -0.27660490676E+01  0.15174322137E+02  0.10566000000E+00 0.  1.
         14    1    4    4    0    0 -0.72126299242E+00  0.56180000632E+00 -0.48147101239E+00  0.10332733845E+01  0.00000000000E+00 0. -1.
<mgrwt>
<rscale>  0 0.80129998E+02</rscale>
<asrwt>0</asrwt>
<pdfrwt beam="1">  1        1 0.12769619E-01 0.80129998E+02</pdfrwt>
<pdfrwt beam="2">  1       -2 0.29752647E-02 0.80129998E+02</pdfrwt>
<totfact> 0.14191197E+05</totfact>
</mgrwt>
</event>
<event>
 8    1  0.1372337E-024  0.7776775E+02  0.7818608E-02  0.1335508E+00
          1   -1    0    0  501    0  0.00000000000E+00  0.00000000000E+00  0.40768071924E+02  0.40768072235E+02  0.50400000000E-02 0. -1.
         -2   -1    0    0    0  501 -0.00000000000E+00 -0.00000000000E+00 -0.37086762546E+02  0.37086762634E+02  0.25500000000E-02 0.  1.
        -24    2    1    2    0    0 -0.55511151231E-16  0.00000000000E+00  0.36813093775E+01  0.77854834869E+02  0.77767752145E+02 0.  0.
         66    2    3    3    0    0  0.45388244238E+00  0.29492349063E+02 -0.23483617169E+02  0.37755594717E+02  0.19999986413E+01 0.  0.
         13    1    3    3    0    0 -0.45388244238E+00 -0.29492349063E+02  0.27164926546E+02  0.40099240153E+02  0.10566000000E+00 0. -1.
         13    1    4    4    0    0  0.86913998416E+00  0.15029901876E+02 -0.12613513097E+02  0.19640907092E+02  0.10566000000E+00 0. -1.
        -13    1    4    4    0    0 -0.37854709845E+00  0.73030278950E+01 -0.50456137069E+01  0.88852065849E+01  0.10566000000E+00 0.  1.
         14    1    4    4    0    0 -0.36710443333E-01  0.71594192915E+01 -0.58244903649E+01  0.92294810395E+01  0.00000000000E+00 0. -1.
<mgrwt>
<rscale>  0 0.77767752E+02</rscale>
<asrwt>0</asrwt>
<pdfrwt beam="1">  1        1 0.62720111E-02 0.77767752E+02</pdfrwt>
<pdfrwt beam="2">  1       -2 0.57056558E-02 0.77767752E+02</pdfrwt>
<totfact> 0.13789579E+05</totfact>
</mgrwt>
</event>
<event>
 8    1  0.1372337E-024  0.8017747E+02  0.7818608E-02  0.1328549E+00
         -2   -1    0    0    0  501 -0.00000000000E+00  0.00000000000E+00  0.35235032607E+02  0.35235032699E+02  0.25500000000E-02 0.  1.
          1   -1    0    0  501    0  0.00000000000E+00 -0.00000000000E+00 -0.45611046529E+02  0.45611046807E+02  0.50400000000E-02 0. -1.
        -24    2    1    2    0    0  0.00000000000E+00  0.00000000000E+00 -0.10376013922E+02  0.80846079507E+02  0.80177471316E+02 0.  0.
         66    2    3    3    0    0  0.12582633509E+01 -0.40006891092E+02 -0.34543029086E+01  0.40225200529E+02  0.19999968627E+01 0.  0.
         13    1    3    3    0    0 -0.12582633509E+01  0.40006891092E+02 -0.69217110136E+01  0.40620878978E+02  0.10566000000E+00 0. -1.
         13    1    4    4    0    0  0.42453145319E+00 -0.21468910908E+02 -0.13543482835E+01  0.21516035551E+02  0.10566000000E+00 0.  1.
        -13    1    4    4    0    0  0.50963141019E+00 -0.27683128994E+01 -0.24438755266E+00  0.28273962925E+01  0.10566000000E+00 0. -1.
        -14    1    4    4    0    0  0.32410048749E+00 -0.15769667285E+02 -0.18555670724E+01  0.15881768685E+02  0.00000000000E+00 0.  1.
<mgrwt>
<rscale>  0 0.80177471E+02</rscale>
<asrwt>0</asrwt>
<pdfrwt beam="1">  1        1 0.70170842E-02 0.80177471E+02</pdfrwt>
<pdfrwt beam="2">  1       -2 0.54207742E-02 0.80177471E+02</pdfrwt>
<totfact> 0.12887524E+05</totfact>
</mgrwt>
</event>
<event>
 8    1  0.1372337E-024  0.7459778E+02  0.7818608E-02  0.1345121E+00
          1   -1    0    0  501    0  0.00000000000E+00  0.00000000000E+00  0.13718461086E+03  0.13718461095E+03  0.50400000000E-02 0. -1.
         -2   -1    0    0    0  501 -0.00000000000E+00 -0.00000000000E+00 -0.10141131130E+02  0.10141131450E+02  0.25500000000E-02 0.  1.
        -24    2    1    2    0    0  0.00000000000E+00  0.00000000000E+00  0.12704347973E+03  0.14732574240E+03  0.74597779005E+02 0.  0.
         66    2    3    3    0    0  0.33642611754E+02 -0.13822523606E+02  0.47484607824E+02  0.59847100737E+02  0.20000005089E+01 0.  0.
         13    1    3    3    0    0 -0.33642611754E+02  0.13822523606E+02  0.79558871907E+02  0.87478641666E+02  0.10566000000E+00 0. -1.
         13    1    4    4    0    0  0.46521619741E+01 -0.13825564965E+01  0.68509556356E+01  0.83964772766E+01  0.10566000000E+00 0. -1.
        -13    1    4    4    0    0  0.14953109525E+02 -0.61252376576E+01  0.20197683351E+02  0.25866418338E+02  0.10566000000E+00 0.  1.
        -14    1    4    4    0    0  0.14037340255E+02 -0.63147294515E+01  0.20435968837E+02  0.25584205123E+02  0.00000000000E+00 0.  1.
<mgrwt>
<rscale>  0 0.74597779E+02</rscale>
<asrwt>0</asrwt>
<pdfrwt beam="1">  1        1 0.21105324E-01 0.74597779E+02</pdfrwt>
<pdfrwt beam="2">  1       -2 0.15601741E-02 0.74597779E+02</pdfrwt>
<totfact> 0.18715383E+05</totfact>
</mgrwt>
</event>
<event>
 8    1  0.1372337E-024  0.7754806E+02  0.7818608E-02  0.1336157E+00
          1   -1    0    0  501    0  0.00000000000E+00  0.00000000000E+00  0.14517737553E+02  0.14517738428E+02  0.50400000000E-02 0. -1.
         -2   -1    0    0    0  501 -0.00000000000E+00 -0.00000000000E+00 -0.10355782436E+03  0.10355782439E+03  0.25500000000E-02 0.  1.
        -24    2    1    2    0    0  0.22204460493E-15  0.00000000000E+00 -0.89040086805E+02  0.11807556282E+03  0.77548059140E+02 0.  0.
         66    2    3    3    0    0  0.18628991764E+01  0.38575318005E+02 -0.39760022645E+02  0.55465168790E+02  0.19999989258E+01 0.  0.
         13    1    3    3    0    0 -0.18628991764E+01 -0.38575318005E+02 -0.49280064160E+02  0.62610394027E+02  0.10566000000E+00 0. -1.
         13    1    4    4    0    0 -0.28012545235E-01  0.56380599110E+01 -0.49768726041E+01  0.75212318948E+01  0.10566000000E+00 0. -1.
        -13    1    4    4    0    0  0.74864341788E+00  0.92753623835E+01 -0.99500388113E+01  0.13623775200E+02  0.10566000000E+00 0.  1.
         14    1    4    4    0    0  0.11422683037E+01  0.23661895711E+02 -0.24833111229E+02  0.34320161696E+02  0.00000000000E+00 0. -1.
<mgrwt>
<rscale>  0 0.77548059E+02</rscale>
<asrwt>0</asrwt>
<pdfrwt beam="1">  1        1 0.22334982E-02 0.77548059E+02</pdfrwt>
<pdfrwt beam="2">  1       -2 0.15931973E-01 0.77548059E+02</pdfrwt>
<totfact> 0.11392446E+05</totfact>
</mgrwt>
</event>
<event>
 8    1  0.1372337E-024  0.7771894E+02  0.7818608E-02  0.1335652E+00
         -2   -1    0    0    0  501 -0.00000000000E+00  0.00000000000E+00  0.43727879428E+01  0.43727886864E+01  0.25500000000E-02 0.  1.
          1   -1    0    0  501    0  0.00000000000E+00 -0.00000000000E+00 -0.34533081541E+03  0.34533081545E+03  0.50400000000E-02 0. -1.
        -24    2    1    2    0    0  0.71054273576E-14 -0.35527136788E-14 -0.34095802747E+03  0.34970360413E+03  0.77718943954E+02 0.  0.
         66    2    3    3    0    0 -0.33612565703E+02  0.19413843983E+02 -0.17582299410E+03  0.18006784045E+03  0.19999996196E+01 0.  0.
         13    1    3    3    0    0  0.33612565703E+02 -0.19413843983E+02 -0.16513503337E+03  0.16963576368E+03  0.10566000000E+00 0. -1.
         13    1    4    4    0    0 -0.19245958687E+02  0.10991575252E+02 -0.10199819363E+03  0.10437846674E+03  0.10566000000E+00 0.  1.
        -13    1    4    4    0    0 -0.36541670693E+01  0.24459569228E+01 -0.21599154480E+02  0.22042465391E+02  0.10566000000E+00 0. -1.
         14    1    4    4    0    0 -0.10712439947E+02  0.59763118083E+01 -0.52225645990E+02  0.53646908313E+02  0.00000000000E+00 0. -1.
<mgrwt>
<rscale>  0 0.77718944E+02</rscale>
<asrwt>0</asrwt>
<pdfrwt beam="1">  1        1 0.53127797E-01 0.77718944E+02</pdfrwt>
<pdfrwt beam="2">  1       -2 0.67273694E-03 0.77718944E+02</pdfrwt>
<totfact> 0.19981052E+05</totfact>
</mgrwt>
</event>
<event>
 8    1  0.1372337E-024  0.7889895E+02  0.7818608E-02  0.1332205E+00
         -2   -1    0    0    0  501 -0.00000000000E+00  0.00000000000E+00  0.73117664326E+03  0.73117664327E+03  0.25500000000E-02 0.  1.
          1   -1    0    0  501    0  0.00000000000E+00 -0.00000000000E+00 -0.21284306572E+01  0.21284366244E+01  0.50400000000E-02 0. -1.
        -24    2    1    2    0    0 -0.17763568394E-14  0.00000000000E+00  0.72904821260E+03  0.73330507989E+03  0.78898947341E+02 0.  0.
         66    2    3    3    0    0  0.12665917710E+02 -0.10009848323E+02  0.69904439287E+03  0.69923364174E+03  0.20000012613E+01 0.  0.
         13    1    3    3    0    0 -0.12665917710E+02  0.10009848323E+02  0.30003819739E+02  0.34071438154E+02  0.10566000000E+00 0. -1.
         13    1    4    4    0    0  0.85213030064E+01 -0.77598724372E+01  0.49023016387E+03  0.49036563191E+03  0.10566000000E+00 0. -1.
        -13    1    4    4    0    0  0.37817662432E+01 -0.21813233784E+01  0.19034819789E+03  0.19039828658E+03  0.10566000000E+00 0.  1.
         14    1    4    4    0    0  0.36284846063E+00 -0.68652507432E-01  0.18466031106E+02  0.18469723251E+02  0.00000000000E+00 0. -1.
<mgrwt>
<rscale>  0 0.78898947E+02</rscale>
<asrwt>0</asrwt>
<pdfrwt beam="1">  1        1 0.32745062E-03 0.78898947E+02</pdfrwt>
<pdfrwt beam="2">  1       -2 0.11248896E+00 0.78898947E+02</pdfrwt>
<totfact> 0.37630768E+04</totfact>
</mgrwt>
</event>
<event>
 8    1  0.1372337E-024  0.8120582E+02  0.7818608E-02  0.1325664E+00
         -2   -1    0    0    0  501 -0.00000000000E+00  0.00000000000E+00  0.46812476179E+02  0.46812476249E+02  0.25500000000E-02 0.  1.
          1   -1    0    0  501    0  0.00000000000E+00 -0.00000000000E+00 -0.35217025873E+02  0.35217026233E+02  0.50400000000E-02 0. -1.
        -24    2    1    2    0    0  0.00000000000E+00 -0.71054273576E-14  0.11595450307E+02  0.82029502482E+02  0.81205817585E+02 0.  0.
         66    2    3    3    0    0  0.30279661593E+01  0.39325492741E+02  0.15433584953E+02  0.42401161613E+02  0.20000008122E+01 0.  0.
         13    1    3    3    0    0 -0.30279661593E+01 -0.39325492741E+02 -0.38381346465E+01  0.39628340869E+02  0.10566000000E+00 0. -1.
         13    1    4    4    0    0  0.23132570833E+01  0.22239519965E+02  0.80396175346E+01  0.23761187276E+02  0.10566000000E+00 0. -1.
        -13    1    4    4    0    0  0.25634676692E+00  0.22996913675E+01  0.10710923028E+01  0.25519985908E+01  0.10566000000E+00 0.  1.
        -14    1    4    4    0    0  0.45836230913E+00  0.14786281409E+02  0.63228751158E+01  0.16087975747E+02  0.00000000000E+00 0.  1.
<mgrwt>
<rscale>  0 0.81205818E+02</rscale>
<asrwt>0</asrwt>
<pdfrwt beam="1">  1        1 0.54180041E-02 0.81205818E+02</pdfrwt>
<pdfrwt beam="2">  1       -2 0.72019194E-02 0.81205818E+02</pdfrwt>
<totfact> 0.11915244E+05</totfact>
</mgrwt>
</event>
<event>
 8    1  0.1372337E-024  0.7955908E+02  0.7818608E-02  0.1330307E+00
          1   -1    0    0  501    0  0.00000000000E+00  0.00000000000E+00  0.67946844398E+02  0.67946844585E+02  0.50400000000E-02 0. -1.
         -2   -1    0    0    0  501 -0.00000000000E+00 -0.00000000000E+00 -0.23288965296E+02  0.23288965436E+02  0.25500000000E-02 0.  1.
        -24    2    1    2    0    0  0.00000000000E+00  0.35527136788E-14  0.44657879102E+02  0.91235810021E+02  0.79559077824E+02 0.  0.
         66    2    3    3    0    0 -0.29680260946E+02 -0.21123583052E+02  0.40923453252E+01  0.36713361934E+02  0.20000008605E+01 0.  0.
         13    1    3    3    0    0  0.29680260946E+02  0.21123583052E+02  0.40565533777E+02  0.54522448087E+02  0.10566000000E+00 0. -1.
         13    1    4    4    0    0 -0.97100094933E+01 -0.63634986244E+01  0.61079867653E+00  0.11625946764E+02  0.10566000000E+00 0. -1.
        -13    1    4    4    0    0 -0.78565421160E+01 -0.54592475169E+01  0.15754244711E+01  0.96964820307E+01  0.10566000000E+00 0.  1.
         14    1    4    4    0    0 -0.12113709336E+02 -0.93008369108E+01  0.19061221775E+01  0.15390933139E+02  0.00000000000E+00 0. -1.
<mgrwt>
<rscale>  0 0.79559078E+02</rscale>
<asrwt>0</asrwt>
<pdfrwt beam="1">  1        1 0.10453361E-01 0.79559078E+02</pdfrwt>
<pdfrwt beam="2">  1       -2 0.35829178E-02 0.79559078E+02</pdfrwt>
<totfact> 0.14016213E+05</totfact>
</mgrwt>
</event>
<event>
 8    1  0.1372337E-024  0.8168408E+02  0.7818608E-02  0.1324339E+00
          1   -1    0    0  501    0  0.00000000000E+00  0.00000000000E+00  0.12117270606E+03  0.12117270616E+03  0.50400000000E-02 0. -1.
         -2   -1    0    0    0  501 -0.00000000000E+00 -0.00000000000E+00 -0.13766072838E+02  0.13766073074E+02  0.25500000000E-02 0.  1.
        -24    2    1    2    0    0  0.00000000000E+00  0.00000000000E+00  0.10740663322E+03  0.13493877923E+03  0.81684082184E+02 0.  0.
         66    2    3    3    0    0 -0.11177415011E+02  0.36342536563E+02  0.29213269063E+02  0.47990933189E+02  0.20000022087E+01 0.  0.
         13    1    3    3    0    0  0.11177415011E+02 -0.36342536563E+02  0.78193364154E+02  0.86947846045E+02  0.10566000000E+00 0. -1.
         13    1    4    4    0    0 -0.22645694415E+01  0.69666746866E+01  0.51426536109E+01  0.89510268205E+01  0.10566000000E+00 0. -1.
        -13    1    4    4    0    0 -0.75729158497E+01  0.24255784104E+02  0.20589104734E+02  0.32704961623E+02  0.10566000000E+00 0.  1.
        -14    1    4    4    0    0 -0.13399297195E+01  0.51200777725E+01  0.34815107184E+01  0.63349447458E+01  0.00000000000E+00 0.  1.
<mgrwt>
<rscale>  0 0.81684082E+02</rscale>
<asrwt>0</asrwt>
<pdfrwt beam="1">  1        1 0.18641955E-01 0.81684082E+02</pdfrwt>
<pdfrwt beam="2">  1       -2 0.21178573E-02 0.81684082E+02</pdfrwt>
<totfact> 0.14364133E+05</totfact>
</mgrwt>
</event>
<event>
 8    1  0.1372337E-024  0.8088124E+02  0.7818608E-02  0.1326569E+00
         -2   -1    0    0    0  501 -0.00000000000E+00  0.00000000000E+00  0.16745969490E+03  0.16745969492E+03  0.25500000000E-02 0.  1.
          1   -1    0    0  501    0  0.00000000000E+00 -0.00000000000E+00 -0.97661922191E+01  0.97661935195E+01  0.50400000000E-02 0. -1.
        -24    2    1    2    0    0  0.00000000000E+00  0.88817841970E-15  0.15769350268E+03  0.17722588844E+03  0.80881238525E+02 0.  0.
         66    2    3    3    0    0 -0.17435112319E+02  0.72629787647E+01  0.15718812809E+03  0.15833142974E+03  0.20000069537E+01 0.  0.
         13    1    3    3    0    0  0.17435112319E+02 -0.72629787647E+01  0.50537458998E+00  0.18894458702E+02  0.10566000000E+00 0. -1.
         13    1    4    4    0    0 -0.69418036707E+01  0.27432079998E+01  0.68905938124E+02  0.69309114127E+02  0.10566000000E+00 0. -1.
        -13    1    4    4    0    0 -0.24117667403E+01  0.10292826755E+01  0.17771815892E+02  0.17964538563E+02  0.10566000000E+00 0.  1.
         14    1    4    4    0    0 -0.80815419081E+01  0.34904880894E+01  0.70510374079E+02  0.71057777051E+02  0.00000000000E+00 0. -1.
<mgrwt>
<rscale>  0 0.80881239E+02</rscale>
<asrwt>0</asrwt>
<pdfrwt beam="1">  1        1 0.15024914E-02 0.80881239E+02</pdfrwt>
<pdfrwt beam="2">  1       -2 0.25763028E-01 0.80881239E+02</pdfrwt>
<totfact> 0.88485127E+04</totfact>
</mgrwt>
</event>
<event>
 8    1  0.1372337E-024  0.8010692E+02  0.7818608E-02  0.1328748E+00
          1   -1    0    0  501    0  0.00000000000E+00  0.00000000000E+00  0.18694676864E+02  0.18694677543E+02  0.50400000000E-02 0. -1.
         -2   -1    0    0    0  501 -0.00000000000E+00 -0.00000000000E+00 -0.85814790345E+02  0.85814790383E+02  0.25500000000E-02 0.  1.
        -24    2    1    2    0    0  0.71054273576E-14  0.35527136788E-14 -0.67120113481E+02  0.10450946793E+03  0.80106923873E+02 0.  0.
         66    2    3    3    0    0 -0.32992852312E+02 -0.22556629741E+02 -0.36482057054E+02  0.54150441777E+02  0.20000022143E+01 0.  0.
         13    1    3    3    0    0  0.32992852312E+02  0.22556629741E+02 -0.30638056428E+02  0.50359026149E+02  0.10566000000E+00 0. -1.
         13    1    4    4    0    0 -0.74737758710E+01 -0.47046631364E+01 -0.85927912882E+01  0.12322272808E+02  0.10566000000E+00 0. -1.
        -13    1    4    4    0    0 -0.17966876097E+02 -0.11991323193E+02 -0.19882284682E+02  0.29358420885E+02  0.10566000000E+00 0.  1.
         14    1    4    4    0    0 -0.75522003433E+01 -0.58606434118E+01 -0.80069810835E+01  0.12469748085E+02  0.00000000000E+00 0. -1.
<mgrwt>
<rscale>  0 0.80106924E+02</rscale>
<asrwt>0</asrwt>
<pdfrwt beam="1">  1        1 0.28761042E-02 0.80106924E+02</pdfrwt>
<pdfrwt beam="2">  1       -2 0.13202275E-01 0.80106924E+02</pdfrwt>
<totfact> 0.10966820E+05</totfact>
</mgrwt>
</event>
<event>
 8    1  0.1404968E-024  0.8086378E+02  0.7818608E-02  0.1326618E+00
         -2   -1    0    0    0  501 -0.00000000000E+00  0.00000000000E+00  0.26087012218E+03  0.26087012219E+03  0.25500000000E-02 0.  1.
          1   -1    0    0  501    0  0.00000000000E+00 -0.00000000000E+00 -0.62664809751E+01  0.62664830019E+01  0.50400000000E-02 0. -1.
        -24    2    1    2    0    0  0.00000000000E+00  0.00000000000E+00  0.25460364120E+03  0.26713660519E+03  0.80863784971E+02 0.  0.
         66    2    3    3    0    0 -0.14478415126E+02  0.12452072731E+02  0.24501764865E+03  0.24576884824E+03  0.19999992673E+01 0.  0.
         13    1    3    3    0    0  0.14478415126E+02 -0.12452072731E+02  0.95859925561E+01  0.21367756952E+02  0.10566000000E+00 0. -1.
         13    1    4    4    0    0 -0.58650125615E+01  0.49282598377E+01  0.97908687345E+02  0.98207985108E+02  0.10566000000E+00 0. -1.
        -13    1    4    4    0    0 -0.84400499955E+01  0.69304062187E+01  0.13919375676E+03  0.13962155299E+03  0.10566000000E+00 0.  1.
         14    1    4    4    0    0 -0.17335256856E+00  0.59340667443E+00  0.79152045452E+01  0.79393101455E+01  0.00000000000E+00 0. -1.
<mgrwt>
<rscale>  0 0.80863785E+02</rscale>
<asrwt>0</asrwt>
<pdfrwt beam="1">  1        1 0.96407424E-03 0.80863785E+02</pdfrwt>
<pdfrwt beam="2">  1       -2 0.40133862E-01 0.80863785E+02</pdfrwt>
<totfact> 0.73474441E+04</totfact>
</mgrwt>
</event>
<event>
 8    1  0.1372337E-024  0.7680636E+02  0.7818608E-02  0.1338367E+00
          1   -1    0    0  501    0  0.00000000000E+00  0.00000000000E+00  0.15766440743E+03  0.15766440751E+03  0.50400000000E-02 0. -1.
         -2   -1    0    0    0  501 -0.00000000000E+00 -0.00000000000E+00 -0.93540714175E+01  0.93540717651E+01  0.25500000000E-02 0.  1.
        -24    2    1    2    0    0  0.00000000000E+00  0.88817841970E-15  0.14831033601E+03  0.16701847927E+03  0.76806358144E+02 0.  0.
         66    2    3    3    0    0  0.37779520128E+02 -0.50240534094E+01  0.64416013397E+02  0.74872932530E+02  0.19999974885E+01 0.  0.
         13    1    3    3    0    0 -0.37779520128E+02  0.50240534094E+01  0.83894322613E+02  0.92145546742E+02  0.10566000000E+00 0. -1.
         13    1    4    4    0    0  0.17306334297E+02 -0.18188748016E+01  0.28520055453E+02  0.33409912293E+02  0.10566000000E+00 0.  1.
        -13    1    4    4    0    0  0.48298520880E+01 -0.11750576492E+01  0.81812137272E+01  0.95734870218E+01  0.10566000000E+00 0. -1.
         14    1    4    4    0    0  0.15643333743E+02 -0.20301209586E+01  0.27714744217E+02  0.31889533216E+02  0.00000000000E+00 0. -1.
<mgrwt>
<rscale>  0 0.76806358E+02</rscale>
<asrwt>0</asrwt>
<pdfrwt beam="1">  1        1 0.24256060E-01 0.76806358E+02</pdfrwt>
<pdfrwt beam="2">  1       -2 0.14390881E-02 0.76806358E+02</pdfrwt>
<totfact> 0.17760753E+05</totfact>
</mgrwt>
</event>
<event>
 8    1  0.1372337E-024  0.7789086E+02  0.7818608E-02  0.1335146E+00
          1   -1    0    0  501    0  0.00000000000E+00  0.00000000000E+00  0.15159147284E+02  0.15159148122E+02  0.50400000000E-02 0. -1.
         -2   -1    0    0    0  501 -0.00000000000E+00 -0.00000000000E+00 -0.10005485719E+03  0.10005485722E+03  0.25500000000E-02 0.  1.
        -24    2    1    2    0    0  0.00000000000E+00  0.44408920985E-15 -0.84895709901E+02  0.11521400534E+03  0.77890856118E+02 0.  0.
         66    2    3    3    0    0  0.17006961520E+02 -0.38767781366E+01 -0.93938959928E+02  0.95565654672E+02  0.20000029276E+01 0.  0.
         13    1    3    3    0    0 -0.17006961520E+02  0.38767781366E+01  0.90432500270E+01  0.19648350667E+02  0.10566000000E+00 0. -1.
         13    1    4    4    0    0  0.19371512626E+01 -0.18855755511E+00 -0.85656318147E+01  0.87846070707E+01  0.10566000000E+00 0. -1.
        -13    1    4    4    0    0  0.14921191708E+02 -0.37599875694E+01 -0.83999906670E+02  0.85397745597E+02  0.10566000000E+00 0.  1.
        -14    1    4    4    0    0  0.14861854944E+00  0.71766987899E-01 -0.13734214436E+01  0.13833020045E+01  0.00000000000E+00 0.  1.
<mgrwt>
<rscale>  0 0.77890856E+02</rscale>
<asrwt>0</asrwt>
<pdfrwt beam="1">  1        1 0.23321766E-02 0.77890856E+02</pdfrwt>
<pdfrwt beam="2">  1       -2 0.15393055E-01 0.77890856E+02</pdfrwt>
<totfact> 0.11361969E+05</totfact>
</mgrwt>
</event>
<event>
 8    1  0.1372337E-024  0.7957767E+02  0.7818608E-02  0.1330254E+00
         -2   -1    0    0    0  501 -0.00000000000E+00  0.00000000000E+00  0.36236958278E+01  0.36236967250E+01  0.25500000000E-02 0.  1.
          1   -1    0    0  501    0  0.00000000000E+00 -0.00000000000E+00 -0.43688854121E+03  0.43688854124E+03  0.50400000000E-02 0. -1.
        -24    2    1    2    0    0  0.00000000000E+00  0.00000000000E+00 -0.43326484539E+03  0.44051223797E+03  0.79577669934E+02 0.  0.
         66    2    3    3    0    0 -0.35584096603E+02 -0.17585584966E+02 -0.22994518207E+03  0.23335438177E+03  0.20000010465E+01 0.  0.
         13    1    3    3    0    0  0.35584096603E+02  0.17585584966E+02 -0.20331966332E+03  0.20715785620E+03  0.10566000000E+00 0. -1.
         13    1    4    4    0    0 -0.73701026972E+00 -0.34569424260E+00 -0.40190077921E+01  0.41019844363E+01  0.10566000000E+00 0. -1.
        -13    1    4    4    0    0 -0.35620639081E+01 -0.12673385868E+01 -0.21344843810E+02  0.21677360718E+02  0.10566000000E+00 0.  1.
        -14    1    4    4    0    0 -0.31285022426E+02 -0.15972552137E+02 -0.20458133046E+03  0.20757503661E+03  0.00000000000E+00 0.  1.
<mgrwt>
<rscale>  0 0.79577670E+02</rscale>
<asrwt>0</asrwt>
<pdfrwt beam="1">  1        1 0.67213580E-01 0.79577670E+02</pdfrwt>
<pdfrwt beam="2">  1       -2 0.55749208E-03 0.79577670E+02</pdfrwt>
<totfact> 0.19526365E+05</totfact>
</mgrwt>
</event>
<event>
 8    1  0.1372337E-024  0.8045958E+02  0.7818608E-02  0.1327752E+00
          1   -1    0    0  501    0  0.00000000000E+00  0.00000000000E+00  0.83439281754E+01  0.83439296976E+01  0.50400000000E-02 0. -1.
         -2   -1    0    0    0  501 -0.00000000000E+00 -0.00000000000E+00 -0.19396570260E+03  0.19396570262E+03  0.25500000000E-02 0.  1.
        -24    2    1    2    0    0 -0.71054273576E-14  0.00000000000E+00 -0.18562177443E+03  0.20230963232E+03  0.80459581075E+02 0.  0.
         66    2    3    3    0    0  0.29141274303E+02 -0.18880458614E+02 -0.14382757797E+03  0.14797316567E+03  0.19999975556E+01 0.  0.
         13    1    3    3    0    0 -0.29141274303E+02  0.18880458614E+02 -0.41794196460E+02  0.54336466643E+02  0.10566000000E+00 0. -1.
         13    1    4    4    0    0  0.23697879357E+00 -0.74303325012E-01 -0.15787409800E+01  0.16016451074E+01  0.10566000000E+00 0. -1.
        -13    1    4    4    0    0  0.12671982436E+02 -0.79390035190E+01 -0.63119737343E+02  0.64866935506E+02  0.10566000000E+00 0.  1.
         14    1    4    4    0    0  0.16232313074E+02 -0.10867151770E+02 -0.79129099645E+02  0.81504585061E+02  0.00000000000E+00 0. -1.
<mgrwt>
<rscale>  0 0.80459581E+02</rscale>
<asrwt>0</asrwt>
<pdfrwt beam="1">  1        1 0.12836815E-02 0.80459581E+02</pdfrwt>
<pdfrwt beam="2">  1       -2 0.29840874E-01 0.80459581E+02</pdfrwt>
<totfact> 0.84864919E+04</totfact>
</mgrwt>
</event>
<event>
 8    1  0.1372337E-024  0.8182646E+02  0.7818608E-02  0.1323947E+00
         -2   -1    0    0    0  501 -0.00000000000E+00  0.00000000000E+00  0.52828347775E+02  0.52828347836E+02  0.25500000000E-02 0.  1.
          1   -1    0    0  501    0  0.00000000000E+00 -0.00000000000E+00 -0.31685498746E+02  0.31685499147E+02  0.50400000000E-02 0. -1.
        -24    2    1    2    0    0  0.00000000000E+00  0.00000000000E+00  0.21142849029E+02  0.84513846983E+02  0.81826464342E+02 0.  0.
         66    2    3    3    0    0  0.14679912997E+02  0.18128965418E+02  0.45262293842E+02  0.50959145153E+02  0.19999995402E+01 0.  0.
         13    1    3    3    0    0 -0.14679912997E+02 -0.18128965418E+02 -0.24119444813E+02  0.33554701830E+02  0.10566000000E+00 0. -1.
         13    1    4    4    0    0  0.66618877534E+00  0.12086929652E+01  0.23506546053E+01  0.27279089570E+01  0.10566000000E+00 0. -1.
        -13    1    4    4    0    0  0.75601538553E+01  0.10213227833E+02  0.25228154768E+02  0.28247777012E+02  0.10566000000E+00 0.  1.
        -14    1    4    4    0    0  0.64535703669E+01  0.67070446197E+01  0.17683484468E+02  0.19983459184E+02  0.00000000000E+00 0.  1.
<mgrwt>
<rscale>  0 0.81826464E+02</rscale>
<asrwt>0</asrwt>
<pdfrwt beam="1">  1        1 0.48746923E-02 0.81826464E+02</pdfrwt>
<pdfrwt beam="2">  1       -2 0.81274380E-02 0.81826464E+02</pdfrwt>
<totfact> 0.11445387E+05</totfact>
</mgrwt>
</event>
<event>
 8    1  0.1372337E-024  0.8184770E+02  0.7818608E-02  0.1323888E+00
         -2   -1    0    0    0  501 -0.00000000000E+00  0.00000000000E+00  0.23532181123E+02  0.23532181261E+02  0.25500000000E-02 0.  1.
          1   -1    0    0  501    0  0.00000000000E+00 -0.00000000000E+00 -0.71168993043E+02  0.71168993222E+02  0.50400000000E-02 0. -1.
        -24    2    1    2    0    0  0.71054273576E-14  0.35527136788E-14 -0.47636811920E+02  0.94701174483E+02  0.81847703685E+02 0.  0.
         66    2    3    3    0    0  0.37140694442E+02  0.15073727724E+02 -0.14425037755E+02  0.42646572781E+02  0.20000011405E+01 0.  0.
         13    1    3    3    0    0 -0.37140694442E+02 -0.15073727724E+02 -0.33211774165E+02  0.52054601702E+02  0.10566000000E+00 0. -1.
         13    1    4    4    0    0  0.21223987174E+02  0.82972679696E+01 -0.87737972686E+01  0.24419110751E+02  0.10566000000E+00 0. -1.
        -13    1    4    4    0    0  0.61866980798E+01  0.22394452710E+01 -0.24922820412E+01  0.70365461741E+01  0.10566000000E+00 0.  1.
        -14    1    4    4    0    0  0.97300091883E+01  0.45370144837E+01 -0.31589584455E+01  0.11190915856E+02  0.00000000000E+00 0.  1.
<mgrwt>
<rscale>  0 0.81847704E+02</rscale>
<asrwt>0</asrwt>
<pdfrwt beam="1">  1        1 0.10949076E-01 0.81847704E+02</pdfrwt>
<pdfrwt beam="2">  1       -2 0.36203356E-02 0.81847704E+02</pdfrwt>
<totfact> 0.13063376E+05</totfact>
</mgrwt>
</event>
<event>
 8    1  0.1372337E-024  0.7973281E+02  0.7818608E-02  0.1329811E+00
         -2   -1    0    0    0  501 -0.00000000000E+00  0.00000000000E+00  0.97451827506E+01  0.97451830842E+01  0.25500000000E-02 0.  1.
          1   -1    0    0  501    0  0.00000000000E+00 -0.00000000000E+00 -0.16308878752E+03  0.16308878759E+03  0.50400000000E-02 0. -1.
        -24    2    1    2    0    0  0.00000000000E+00  0.00000000000E+00 -0.15334360477E+03  0.17283397068E+03  0.79732805657E+02 0.  0.
         66    2    3    3    0    0 -0.25875966086E+02  0.11651372384E+02 -0.16102575329E+02  0.32689647125E+02  0.19999994047E+01 0.  0.
         13    1    3    3    0    0  0.25875966086E+02 -0.11651372384E+02 -0.13724102944E+03  0.14014432355E+03  0.10566000000E+00 0. -1.
         13    1    4    4    0    0 -0.76716559280E+01  0.29932816686E+01 -0.51722697434E+01  0.97251004189E+01  0.10566000000E+00 0. -1.
        -13    1    4    4    0    0 -0.73812483129E+00  0.30959695914E+00 -0.70117104777E+00  0.10693378407E+01  0.10566000000E+00 0.  1.
        -14    1    4    4    0    0 -0.17466185327E+02  0.83484937564E+01 -0.10229134538E+02  0.21895208866E+02  0.00000000000E+00 0.  1.
<mgrwt>
<rscale>  0 0.79732806E+02</rscale>
<asrwt>0</asrwt>
<pdfrwt beam="1">  1        1 0.25090581E-01 0.79732806E+02</pdfrwt>
<pdfrwt beam="2">  1       -2 0.14992590E-02 0.79732806E+02</pdfrwt>
<totfact> 0.16179776E+05</totfact>
</mgrwt>
</event>
<event>
 8    1  0.1372337E-024  0.8196617E+02  0.7818608E-02  0.1323563E+00
          1   -1    0    0  501    0  0.00000000000E+00  0.00000000000E+00  0.40456783822E+03  0.40456783825E+03  0.50400000000E-02 0. -1.
         -2   -1    0    0    0  501 -0.00000000000E+00 -0.00000000000E+00 -0.41516233349E+01  0.41516241181E+01  0.25500000000E-02 0.  1.
        -24    2    1    2    0    0  0.44408920985E-15  0.00000000000E+00  0.40041621488E+03  0.40871946237E+03  0.81966174588E+02 0.  0.
         66    2    3    3    0    0  0.37706798252E+01  0.35678111490E+02  0.29885969484E+03  0.30101206432E+03  0.20000008478E+01 0.  0.
         13    1    3    3    0    0 -0.37706798252E+01 -0.35678111490E+02  0.10155652004E+03  0.10770739804E+03  0.10566000000E+00 0. -1.
         13    1    4    4    0    0  0.64793899922E+00  0.30435738951E+01  0.29155079839E+02  0.29320863075E+02  0.10566000000E+00 0. -1.
        -13    1    4    4    0    0  0.11105215914E+01  0.15431554067E+02  0.12913998311E+03  0.13006349419E+03  0.10566000000E+00 0.  1.
         14    1    4    4    0    0  0.20122192346E+01  0.17202983528E+02  0.14056463189E+03  0.14162770706E+03  0.00000000000E+00 0. -1.
<mgrwt>
<rscale>  0 0.81966175E+02</rscale>
<asrwt>0</asrwt>
<pdfrwt beam="1">  1        1 0.62241233E-01 0.81966175E+02</pdfrwt>
<pdfrwt beam="2">  1       -2 0.63871107E-03 0.81966175E+02</pdfrwt>
<totfact> 0.17851832E+05</totfact>
</mgrwt>
</event>
<event>
 8    1  0.1372337E-024  0.8206689E+02  0.7818608E-02  0.1323286E+00
         -2   -1    0    0    0  501 -0.00000000000E+00  0.00000000000E+00  0.58635395893E+02  0.58635395948E+02  0.25500000000E-02 0.  1.
          1   -1    0    0  501    0  0.00000000000E+00 -0.00000000000E+00 -0.28715478858E+02  0.28715479300E+02  0.50400000000E-02 0. -1.
        -24    2    1    2    0    0  0.17763568394E-14  0.00000000000E+00  0.29919917035E+02  0.87350875248E+02  0.82066887179E+02 0.  0.
         66    2    3    3    0    0 -0.15633467676E+02 -0.22310993800E+02  0.47594522057E+02  0.54876445574E+02  0.19999982853E+01 0.  0.
         13    1    3    3    0    0  0.15633467676E+02  0.22310993800E+02 -0.17674605022E+02  0.32474429674E+02  0.10566000000E+00 0. -1.
         13    1    4    4    0    0 -0.54714673433E+01 -0.87213105305E+01  0.18912410904E+02  0.21533431275E+02  0.10566000000E+00 0.  1.
        -13    1    4    4    0    0 -0.22062957204E+00 -0.50241158677E+00  0.76329352382E+00  0.94597877867E+00  0.10566000000E+00 0.  1.
        -14    1    4    4    0    0 -0.99413707608E+01 -0.13087271683E+02  0.27918817629E+02  0.32397035520E+02  0.00000000000E+00 0.  1.
<mgrwt>
<rscale>  0 0.82066887E+02</rscale>
<asrwt>0</asrwt>
<pdfrwt beam="1">  1        1 0.44177661E-02 0.82066887E+02</pdfrwt>
<pdfrwt beam="2">  1       -2 0.90208300E-02 0.82066887E+02</pdfrwt>
<totfact> 0.11147109E+05</totfact>
</mgrwt>
</event>
<event>
 8    1  0.1372337E-024  0.7917416E+02  0.7818608E-02  0.1331412E+00
          1   -1    0    0  501    0  0.00000000000E+00  0.00000000000E+00  0.13848400287E+03  0.13848400296E+03  0.50400000000E-02 0. -1.
         -2   -1    0    0    0  501 -0.00000000000E+00 -0.00000000000E+00 -0.11316374164E+02  0.11316374451E+02  0.25500000000E-02 0.  1.
        -24    2    1    2    0    0  0.17763568394E-14  0.35527136788E-14  0.12716762870E+03  0.14980037741E+03  0.79174157919E+02 0.  0.
         66    2    3    3    0    0 -0.15730129226E+02  0.19785811300E+02  0.60424088989E+01  0.26065801276E+02  0.19999991450E+01 0.  0.
         13    1    3    3    0    0  0.15730129226E+02 -0.19785811300E+02  0.12112521981E+03  0.12373457613E+03  0.10566000000E+00 0. -1.
         13    1    4    4    0    0 -0.26377030142E+01  0.22433898515E+01  0.86184050323E+00  0.35699031227E+01  0.10566000000E+00 0. -1.
        -13    1    4    4    0    0 -0.10097702973E+02  0.13566540495E+02  0.38953154761E+01  0.17355093576E+02  0.10566000000E+00 0.  1.
         14    1    4    4    0    0 -0.29947232388E+01  0.39758809533E+01  0.12852529196E+01  0.51408045770E+01  0.00000000000E+00 0. -1.
<mgrwt>
<rscale>  0 0.79174158E+02</rscale>
<asrwt>0</asrwt>
<pdfrwt beam="1">  1        1 0.21305231E-01 0.79174158E+02</pdfrwt>
<pdfrwt beam="2">  1       -2 0.17409807E-02 0.79174158E+02</pdfrwt>
<totfact> 0.15997376E+05</totfact>
</mgrwt>
</event>
<event>
 8    1  0.1372337E-024  0.7984611E+02  0.7818608E-02  0.1329489E+00
          1   -1    0    0  501    0  0.00000000000E+00  0.00000000000E+00  0.65864862041E+02  0.65864862233E+02  0.50400000000E-02 0. -1.
         -2   -1    0    0    0  501 -0.00000000000E+00 -0.00000000000E+00 -0.24198794352E+02  0.24198794487E+02  0.25500000000E-02 0.  1.
        -24    2    1    2    0    0 -0.35527136788E-14  0.17763568394E-14  0.41666067688E+02  0.90063656720E+02  0.79846108641E+02 0.  0.
         66    2    3    3    0    0  0.20802262051E+02  0.14404528155E+02 -0.13949808071E+02  0.28962418284E+02  0.19999974629E+01 0.  0.
         13    1    3    3    0    0 -0.20802262051E+02 -0.14404528155E+02  0.55615875760E+02  0.61101238436E+02  0.10566000000E+00 0. -1.
         13    1    4    4    0    0  0.12660759667E+02  0.97897521392E+01 -0.85197493186E+01  0.18130950741E+02  0.10566000000E+00 0. -1.
        -13    1    4    4    0    0  0.52457578331E+01  0.32239335470E+01 -0.36584866867E+01  0.71629192115E+01  0.10566000000E+00 0.  1.
        -14    1    4    4    0    0  0.28957445508E+01  0.13908424689E+01 -0.17715720661E+01  0.36685483317E+01  0.00000000000E+00 0.  1.
<mgrwt>
<rscale>  0 0.79846109E+02</rscale>
<asrwt>0</asrwt>
<pdfrwt beam="1">  1        1 0.10133056E-01 0.79846109E+02</pdfrwt>
<pdfrwt beam="2">  1       -2 0.37228915E-02 0.79846109E+02</pdfrwt>
<totfact> 0.13810802E+05</totfact>
</mgrwt>
</event>
<event>
 8    1  0.1372337E-024  0.8035815E+02  0.7818608E-02  0.1328038E+00
          1   -1    0    0  501    0  0.00000000000E+00  0.00000000000E+00  0.18889054446E+02  0.18889055118E+02  0.50400000000E-02 0. -1.
         -2   -1    0    0    0  501 -0.00000000000E+00 -0.00000000000E+00 -0.85465256973E+02  0.85465257011E+02  0.25500000000E-02 0.  1.
        -24    2    1    2    0    0  0.35527136788E-14  0.35527136788E-14 -0.66576202527E+02  0.10435431213E+03  0.80358146550E+02 0.  0.
         66    2    3    3    0    0 -0.23206781935E+02 -0.27585152720E+02 -0.56278284899E+02  0.66863597947E+02  0.20000002201E+01 0.  0.
         13    1    3    3    0    0  0.23206781935E+02  0.27585152720E+02 -0.10297917628E+02  0.37490714182E+02  0.10566000000E+00 0. -1.
         13    1    4    4    0    0 -0.26224242221E+01 -0.29811920662E+01 -0.70622072276E+01  0.81025026934E+01  0.10566000000E+00 0. -1.
        -13    1    4    4    0    0 -0.16904284149E+02 -0.20019596894E+02 -0.41032652210E+02  0.48684995572E+02  0.10566000000E+00 0.  1.
        -14    1    4    4    0    0 -0.36800735639E+01 -0.45843637594E+01 -0.81834254617E+01  0.10076099682E+02  0.00000000000E+00 0.  1.
<mgrwt>
<rscale>  0 0.80358147E+02</rscale>
<asrwt>0</asrwt>
<pdfrwt beam="1">  1        1 0.29060085E-02 0.80358147E+02</pdfrwt>
<pdfrwt beam="2">  1       -2 0.13148501E-01 0.80358147E+02</pdfrwt>
<totfact> 0.10889562E+05</totfact>
</mgrwt>
</event>
<event>
 8    1  0.1372337E-024  0.7999681E+02  0.7818608E-02  0.1329060E+00
         -2   -1    0    0    0  501 -0.00000000000E+00  0.00000000000E+00  0.84191386576E+01  0.84191390438E+01  0.25500000000E-02 0.  1.
          1   -1    0    0  501    0  0.00000000000E+00 -0.00000000000E+00 -0.19002801833E+03  0.19002801840E+03  0.50400000000E-02 0. -1.
        -24    2    1    2    0    0  0.71054273576E-14  0.00000000000E+00 -0.18160887967E+03  0.19844715744E+03  0.79996806939E+02 0.  0.
         66    2    3    3    0    0  0.37287083645E+02  0.10341084805E+01 -0.55215751652E+02  0.66664647364E+02  0.19999976569E+01 0.  0.
         13    1    3    3    0    0 -0.37287083645E+02 -0.10341084805E+01 -0.12639312802E+03  0.13178251008E+03  0.10566000000E+00 0. -1.
         13    1    4    4    0    0  0.55500203288E+01  0.31376364585E+00 -0.76835556303E+01  0.94841638764E+01  0.10566000000E+00 0. -1.
        -13    1    4    4    0    0  0.21604203502E+02  0.12270125033E+01 -0.32491863706E+02  0.39038180538E+02  0.10566000000E+00 0.  1.
         14    1    4    4    0    0  0.10132859814E+02 -0.50666766863E+00 -0.15040332316E+02  0.18142302949E+02  0.00000000000E+00 0. -1.
<mgrwt>
<rscale>  0 0.79996807E+02</rscale>
<asrwt>0</asrwt>
<pdfrwt beam="1">  1        1 0.29235077E-01 0.79996807E+02</pdfrwt>
<pdfrwt beam="2">  1       -2 0.12952523E-02 0.79996807E+02</pdfrwt>
<totfact> 0.16511414E+05</totfact>
</mgrwt>
</event>
<event>
 8    1  0.1372337E-024  0.7957734E+02  0.7818608E-02  0.1330255E+00
         -2   -1    0    0    0  501 -0.00000000000E+00  0.00000000000E+00  0.11864442989E+02  0.11864443263E+02  0.25500000000E-02 0.  1.
          1   -1    0    0  501    0  0.00000000000E+00 -0.00000000000E+00 -0.13343552960E+03  0.13343552970E+03  0.50400000000E-02 0. -1.
        -24    2    1    2    0    0  0.17763568394E-14  0.00000000000E+00 -0.12157108661E+03  0.14529997296E+03  0.79577340004E+02 0.  0.
         66    2    3    3    0    0  0.13586560317E+02  0.34541693417E+02 -0.34782549031E+02  0.50907258066E+02  0.20000003599E+01 0.  0.
         13    1    3    3    0    0 -0.13586560317E+02 -0.34541693417E+02 -0.86788537584E+02  0.94392714896E+02  0.10566000000E+00 0. -1.
         13    1    4    4    0    0  0.12690170814E+00  0.95105931813E+00 -0.97530263429E+00  0.13722234272E+01  0.10566000000E+00 0.  1.
        -13    1    4    4    0    0  0.42627209744E+01  0.10928948554E+02 -0.10260823851E+02  0.15585518173E+02  0.10566000000E+00 0.  1.
        -14    1    4    4    0    0  0.91969376345E+01  0.22661685545E+02 -0.23546422545E+02  0.33949516466E+02  0.00000000000E+00 0.  1.
<mgrwt>
<rscale>  0 0.79577340E+02</rscale>
<asrwt>0</asrwt>
<pdfrwt beam="1">  1        1 0.20528542E-01 0.79577340E+02</pdfrwt>
<pdfrwt beam="2">  1       -2 0.18252990E-02 0.79577340E+02</pdfrwt>
<totfact> 0.15676150E+05</totfact>
</mgrwt>
</event>
<event>
 8    1  0.1372337E-024  0.8062935E+02  0.7818608E-02  0.1327275E+00
         -2   -1    0    0    0  501 -0.00000000000E+00  0.00000000000E+00  0.27703980437E+02  0.27703980555E+02  0.25500000000E-02 0.  1.
          1   -1    0    0  501    0  0.00000000000E+00 -0.00000000000E+00 -0.58665690206E+02  0.58665690422E+02  0.50400000000E-02 0. -1.
        -24    2    1    2    0    0  0.00000000000E+00  0.00000000000E+00 -0.30961709769E+02  0.86369670977E+02  0.80629353172E+02 0.  0.
         66    2    3    3    0    0  0.32444304117E+02 -0.17871290775E+02  0.14890761034E+01  0.37124563897E+02  0.19999983360E+01 0.  0.
         13    1    3    3    0    0 -0.32444304117E+02  0.17871290775E+02 -0.32450785872E+02  0.49245107080E+02  0.10566000000E+00 0. -1.
         13    1    4    4    0    0  0.94342738831E+01 -0.57580312854E+01  0.11794198055E+01  0.11115873474E+02  0.10566000000E+00 0. -1.
        -13    1    4    4    0    0  0.94503890645E+01 -0.50564208479E+01  0.29459986498E+00  0.10722648851E+02  0.10566000000E+00 0.  1.
         14    1    4    4    0    0  0.13559641169E+02 -0.70568386414E+01  0.15056432888E-01  0.15286041572E+02  0.00000000000E+00 0. -1.
<mgrwt>
<rscale>  0 0.80629353E+02</rscale>
<asrwt>0</asrwt>
<pdfrwt beam="1">  1        1 0.90254908E-02 0.80629353E+02</pdfrwt>
<pdfrwt beam="2">  1       -2 0.42621509E-02 0.80629353E+02</pdfrwt>
<totfact> 0.13202130E+05</totfact>
</mgrwt>
</event>
<event>
 8    1  0.1372337E-024  0.8040078E+02  0.7818608E-02  0.1327918E+00
         -2   -1    0    0    0  501 -0.00000000000E+00  0.00000000000E+00  0.49124332970E+02  0.49124333037E+02  0.25500000000E-02 0.  1.
          1   -1    0    0  501    0  0.00000000000E+00 -0.00000000000E+00 -0.32897574613E+02  0.32897574999E+02  0.50400000000E-02 0. -1.
        -24    2    1    2    0    0  0.00000000000E+00  0.00000000000E+00  0.16226758357E+02  0.82021908036E+02  0.80400781782E+02 0.  0.
         66    2    3    3    0    0 -0.13537360428E+02  0.31608960560E+02  0.29314220763E+02  0.45229526335E+02  0.19999996276E+01 0.  0.
         13    1    3    3    0    0  0.13537360428E+02 -0.31608960560E+02 -0.13087462406E+02  0.36792381701E+02  0.10566000000E+00 0. -1.
         13    1    4    4    0    0 -0.27162711072E+01  0.48497607125E+01  0.50769823428E+01  0.75289588550E+01  0.10566000000E+00 0. -1.
        -13    1    4    4    0    0 -0.72921957464E+01  0.18991442310E+02  0.17265304814E+02  0.26682445806E+02  0.10566000000E+00 0.  1.
        -14    1    4    4    0    0 -0.35288935742E+01  0.77677575370E+01  0.69719336060E+01  0.11018121674E+02  0.00000000000E+00 0.  1.
<mgrwt>
<rscale>  0 0.80400782E+02</rscale>
<asrwt>0</asrwt>
<pdfrwt beam="1">  1        1 0.50611654E-02 0.80400782E+02</pdfrwt>
<pdfrwt beam="2">  1       -2 0.75575897E-02 0.80400782E+02</pdfrwt>
<totfact> 0.12116411E+05</totfact>
</mgrwt>
</event>
<event>
 8    1  0.1372337E-024  0.8047890E+02  0.7818608E-02  0.1327698E+00
         -2   -1    0    0    0  501 -0.00000000000E+00  0.00000000000E+00  0.80434311525E+01  0.80434315567E+01  0.25500000000E-02 0.  1.
          1   -1    0    0  501    0  0.00000000000E+00 -0.00000000000E+00 -0.20130877903E+03  0.20130877910E+03  0.50400000000E-02 0. -1.
        -24    2    1    2    0    0 -0.35527136788E-14  0.00000000000E+00 -0.19326534788E+03  0.20935221065E+03  0.80478900426E+02 0.  0.
         66    2    3    3    0    0  0.18951657716E+02  0.35282882650E+02 -0.10612940637E+03  0.11345262460E+03  0.19999984356E+01 0.  0.
         13    1    3    3    0    0 -0.18951657716E+02 -0.35282882650E+02 -0.87135941506E+02  0.95899586049E+02  0.10566000000E+00 0. -1.
         13    1    4    4    0    0  0.40382028125E+01  0.77061127201E+01 -0.21586058037E+02  0.23273597075E+02  0.10566000000E+00 0. -1.
        -13    1    4    4    0    0  0.85838632492E+01  0.14707439055E+02 -0.44847810055E+02  0.47972165915E+02  0.10566000000E+00 0.  1.
        -14    1    4    4    0    0  0.63295916541E+01  0.12869330875E+02 -0.39695538282E+02  0.42206861613E+02  0.00000000000E+00 0.  1.
<mgrwt>
<rscale>  0 0.80478900E+02</rscale>
<asrwt>0</asrwt>
<pdfrwt beam="1">  1        1 0.30970578E-01 0.80478900E+02</pdfrwt>
<pdfrwt beam="2">  1       -2 0.12374511E-02 0.80478900E+02</pdfrwt>
<totfact> 0.16432527E+05</totfact>
</mgrwt>
</event>
<event>
 8    1  0.1372337E-024  0.8127585E+02  0.7818608E-02  0.1325469E+00
          1   -1    0    0  501    0  0.00000000000E+00  0.00000000000E+00  0.26193546540E+02  0.26193547024E+02  0.50400000000E-02 0. -1.
         -2   -1    0    0    0  501 -0.00000000000E+00 -0.00000000000E+00 -0.63047620245E+02  0.63047620297E+02  0.25500000000E-02 0.  1.
        -24    2    1    2    0    0 -0.38163916471E-16  0.71054273576E-14 -0.36854073706E+02  0.89241167321E+02  0.81275846327E+02 0.  0.
         66    2    3    3    0    0  0.25819701967E-01 -0.40578106254E+02 -0.16583724506E+02  0.43881696485E+02  0.19999985109E+01 0.  0.
         13    1    3    3    0    0 -0.25819701967E-01  0.40578106254E+02 -0.20270349200E+02  0.45359470836E+02  0.10566000000E+00 0. -1.
         13    1    4    4    0    0 -0.25335322614E+00 -0.71964364903E+01 -0.31179615971E+01  0.78476579036E+01  0.10566000000E+00 0. -1.
        -13    1    4    4    0    0  0.66046672047E+00 -0.21101273931E+02 -0.91845446200E+01  0.23023184005E+02  0.10566000000E+00 0.  1.
        -14    1    4    4    0    0 -0.38129379237E+00 -0.12280395833E+02 -0.42812182887E+01  0.13010854576E+02  0.00000000000E+00 0.  1.
<mgrwt>
<rscale>  0 0.81275846E+02</rscale>
<asrwt>0</asrwt>
<pdfrwt beam="1">  1        1 0.40297765E-02 0.81275846E+02</pdfrwt>
<pdfrwt beam="2">  1       -2 0.96996338E-02 0.81275846E+02</pdfrwt>
<totfact> 0.11268010E+05</totfact>
</mgrwt>
</event>
<event>
 8    1  0.1372337E-024  0.8059111E+02  0.7818608E-02  0.1327382E+00
         -2   -1    0    0    0  501 -0.00000000000E+00  0.00000000000E+00  0.11737866342E+02  0.11737866619E+02  0.25500000000E-02 0.  1.
          1   -1    0    0  501    0  0.00000000000E+00 -0.00000000000E+00 -0.13833276820E+03  0.13833276829E+03  0.50400000000E-02 0. -1.
        -24    2    1    2    0    0  0.00000000000E+00 -0.17763568394E-14 -0.12659490186E+03  0.15007063491E+03  0.80591105503E+02 0.  0.
         66    2    3    3    0    0 -0.32313007284E+02  0.82037232966E+01 -0.21271479150E+02  0.39596809728E+02  0.19999999339E+01 0.  0.
         13    1    3    3    0    0  0.32313007284E+02 -0.82037232966E+01 -0.10532342271E+03  0.11047382518E+03  0.10566000000E+00 0. -1.
         13    1    4    4    0    0 -0.20659491116E+01  0.84024275380E+00 -0.11112970759E+01  0.24940526946E+01  0.10566000000E+00 0. -1.
        -13    1    4    4    0    0 -0.14877082031E+02  0.41479274453E+01 -0.99428249038E+01  0.18368554732E+02  0.10566000000E+00 0.  1.
         14    1    4    4    0    0 -0.15369976142E+02  0.32155530975E+01 -0.10217357170E+02  0.18734202301E+02  0.00000000000E+00 0. -1.
<mgrwt>
<rscale>  0 0.80591106E+02</rscale>
<asrwt>0</asrwt>
<pdfrwt beam="1">  1        1 0.21281963E-01 0.80591106E+02</pdfrwt>
<pdfrwt beam="2">  1       -2 0.18058257E-02 0.80591106E+02</pdfrwt>
<totfact> 0.15252492E+05</totfact>
</mgrwt>
</event>
<event>
 8    1  0.1372337E-024  0.7595677E+02  0.7818608E-02  0.1340934E+00
         -2   -1    0    0    0  501 -0.00000000000E+00  0.00000000000E+00  0.14055909965E+02  0.14055910196E+02  0.25500000000E-02 0.  1.
          1   -1    0    0  501    0  0.00000000000E+00 -0.00000000000E+00 -0.10261574565E+03  0.10261574577E+03  0.50400000000E-02 0. -1.
        -24    2    1    2    0    0  0.00000000000E+00 -0.44408920985E-15 -0.88559835684E+02  0.11667165597E+03  0.75956769351E+02 0.  0.
         66    2    3    3    0    0 -0.25357288107E+02  0.39588882383E+01 -0.13652372157E+01  0.25778454781E+02  0.20000004978E+01 0.  0.
         13    1    3    3    0    0  0.25357288107E+02 -0.39588882383E+01 -0.87194598468E+02  0.90893201188E+02  0.10566000000E+00 0. -1.
         13    1    4    4    0    0 -0.10152531782E+02  0.12785986395E+01 -0.10341210147E+01  0.10285391892E+02  0.10566000000E+00 0.  1.
        -13    1    4    4    0    0 -0.32328032188E+01  0.61936687608E+00 -0.57213804591E+00  0.33426244117E+01  0.10566000000E+00 0. -1.
        -14    1    4    4    0    0 -0.11971953107E+02  0.20609227228E+01  0.24102184495E+00  0.12150438477E+02  0.00000000000E+00 0.  1.
<mgrwt>
<rscale>  0 0.75956769E+02</rscale>
<asrwt>0</asrwt>
<pdfrwt beam="1">  1        1 0.15787037E-01 0.75956769E+02</pdfrwt>
<pdfrwt beam="2">  1       -2 0.21624478E-02 0.75956769E+02</pdfrwt>
<totfact> 0.16974654E+05</totfact>
</mgrwt>
</event>
<event>
 8    1  0.1372337E-024  0.7847149E+02  0.7818608E-02  0.1333446E+00
          1   -1    0    0  501    0  0.00000000000E+00  0.00000000000E+00  0.10281213686E+03  0.10281213699E+03  0.50400000000E-02 0. -1.
         -2   -1    0    0    0  501 -0.00000000000E+00 -0.00000000000E+00 -0.14973366523E+02  0.14973366741E+02  0.25500000000E-02 0.  1.
        -24    2    1    2    0    0 -0.88817841970E-15  0.00000000000E+00  0.87838770340E+02  0.11778550373E+03  0.78471493636E+02 0.  0.
         66    2    3    3    0    0 -0.66402671355E+01  0.30296195944E+02  0.79399677531E+01  0.32077963481E+02  0.20000042127E+01 0.  0.
         13    1    3    3    0    0  0.66402671355E+01 -0.30296195944E+02  0.79898802586E+02  0.85707540246E+02  0.10566000000E+00 0. -1.
         13    1    4    4    0    0 -0.18039778522E+01  0.81024398264E+01  0.25828020753E+01  0.86940150579E+01  0.10566000000E+00 0. -1.
        -13    1    4    4    0    0 -0.36828703920E+01  0.14073268392E+02  0.30532872274E+01  0.14864526380E+02  0.10566000000E+00 0.  1.
         14    1    4    4    0    0 -0.11534188914E+01  0.81204877252E+01  0.23038784504E+01  0.85194220431E+01  0.00000000000E+00 0. -1.
<mgrwt>
<rscale>  0 0.78471494E+02</rscale>
<asrwt>0</asrwt>
<pdfrwt beam="1">  1        1 0.15817252E-01 0.78471494E+02</pdfrwt>
<pdfrwt beam="2">  1       -2 0.23035949E-02 0.78471494E+02</pdfrwt>
<totfact> 0.15556709E+05</totfact>
</mgrwt>
</event>
<event>
 8    1  0.1372337E-024  0.8477754E+02  0.7818608E-02  0.1316015E+00
         -2   -1    0    0    0  501 -0.00000000000E+00  0.00000000000E+00  0.69024841141E+01  0.69024845851E+01  0.25500000000E-02 0.  1.
          1   -1    0    0  501    0  0.00000000000E+00 -0.00000000000E+00 -0.26031319126E+03  0.26031319131E+03  0.50400000000E-02 0. -1.
        -24    2    1    2    0    0 -0.71054273576E-14  0.88817841970E-15 -0.25341070715E+03  0.26721567590E+03  0.84777537989E+02 0.  0.
         66    2    3    3    0    0  0.41219295104E+02 -0.67855397798E+01 -0.10454843916E+03  0.11260306375E+03  0.19999992297E+01 0.  0.
         13    1    3    3    0    0 -0.41219295104E+02  0.67855397798E+01 -0.14886226799E+03  0.15461261215E+03  0.10566000000E+00 0. -1.
         13    1    4    4    0    0  0.25781610379E+01 -0.71657848584E+00 -0.64618297189E+01  0.69947699329E+01  0.10566000000E+00 0. -1.
        -13    1    4    4    0    0  0.79485996791E+01 -0.70818774795E+00 -0.19365772656E+02  0.20945789108E+02  0.10566000000E+00 0.  1.
        -14    1    4    4    0    0  0.30692534387E+02 -0.53607735460E+01 -0.78720836782E+02  0.84662504710E+02  0.00000000000E+00 0.  1.
<mgrwt>
<rscale>  0 0.84777538E+02</rscale>
<asrwt>0</asrwt>
<pdfrwt beam="1">  1        1 0.40048176E-01 0.84777538E+02</pdfrwt>
<pdfrwt beam="2">  1       -2 0.10619209E-02 0.84777538E+02</pdfrwt>
<totfact> 0.15051653E+05</totfact>
</mgrwt>
</event>
<event>
 8    1  0.1372337E-024  0.7954625E+02  0.7818608E-02  0.1330344E+00
         -2   -1    0    0    0  501 -0.00000000000E+00  0.00000000000E+00  0.62336420561E+02  0.62336420613E+02  0.25500000000E-02 0.  1.
          1   -1    0    0  501    0  0.00000000000E+00 -0.00000000000E+00 -0.25376842610E+02  0.25376843111E+02  0.50400000000E-02 0. -1.
        -24    2    1    2    0    0 -0.17763568394E-14  0.17763568394E-14  0.36959577951E+02  0.87713263724E+02  0.79546252148E+02 0.  0.
         66    2    3    3    0    0 -0.89990989380E+01 -0.13050378563E+02  0.58683727830E+02  0.60820030107E+02  0.19999969619E+01 0.  0.
         13    1    3    3    0    0  0.89990989380E+01  0.13050378563E+02 -0.21724149880E+02  0.26893233617E+02  0.10566000000E+00 0. -1.
         13    1    4    4    0    0 -0.37920463386E+01 -0.53601511015E+01  0.22517723378E+02  0.23455700063E+02  0.10566000000E+00 0. -1.
        -13    1    4    4    0    0 -0.39436839184E+01 -0.53201987260E+01  0.23426295872E+02  0.24344602269E+02  0.10566000000E+00 0.  1.
         14    1    4    4    0    0 -0.12633686810E+01 -0.23700287359E+01  0.12739708581E+02  0.13019727776E+02  0.00000000000E+00 0. -1.
<mgrwt>
<rscale>  0 0.79546252E+02</rscale>
<asrwt>0</asrwt>
<pdfrwt beam="1">  1        1 0.39041298E-02 0.79546252E+02</pdfrwt>
<pdfrwt beam="2">  1       -2 0.95902183E-02 0.79546252E+02</pdfrwt>
<totfact> 0.11924662E+05</totfact>
</mgrwt>
</event>
<event>
 8    1  0.1372337E-024  0.7941241E+02  0.7818608E-02  0.1330727E+00
         -2   -1    0    0    0  501 -0.00000000000E+00  0.00000000000E+00  0.78600093372E+01  0.78600097509E+01  0.25500000000E-02 0.  1.
          1   -1    0    0  501    0  0.00000000000E+00 -0.00000000000E+00 -0.20058278412E+03  0.20058278418E+03  0.50400000000E-02 0. -1.
        -24    2    1    2    0    0 -0.71054273576E-14 -0.27755575616E-16 -0.19272277478E+03  0.20844279393E+03  0.79412407236E+02 0.  0.
         66    2    3    3    0    0  0.39285552354E+02  0.22137599480E+00 -0.11107764490E+03  0.11783737451E+03  0.20000010213E+01 0.  0.
         13    1    3    3    0    0 -0.39285552354E+02 -0.22137599480E+00 -0.81645129881E+02  0.90605419421E+02  0.10566000000E+00 0. -1.
         13    1    4    4    0    0  0.13305415517E+02  0.38833558101E+00 -0.38396043818E+02  0.40638063826E+02  0.10566000000E+00 0. -1.
        -13    1    4    4    0    0  0.26304285478E+01 -0.27328254333E-01 -0.61774744806E+01  0.67150767809E+01  0.10566000000E+00 0.  1.
        -14    1    4    4    0    0  0.23349708290E+02 -0.13963133188E+00 -0.66504126601E+02  0.70484233904E+02  0.00000000000E+00 0.  1.
<mgrwt>
<rscale>  0 0.79412407E+02</rscale>
<asrwt>0</asrwt>
<pdfrwt beam="1">  1        1 0.30858886E-01 0.79412407E+02</pdfrwt>
<pdfrwt beam="2">  1       -2 0.12092324E-02 0.79412407E+02</pdfrwt>
<totfact> 0.17012943E+05</totfact>
</mgrwt>
</event>
<event>
 8    1  0.1372337E-024  0.8055480E+02  0.7818608E-02  0.1327484E+00
         -2   -1    0    0    0  501 -0.00000000000E+00  0.00000000000E+00  0.13226329366E+03  0.13226329368E+03  0.25500000000E-02 0.  1.
          1   -1    0    0  501    0  0.00000000000E+00 -0.00000000000E+00 -0.12265450890E+02  0.12265451926E+02  0.50400000000E-02 0. -1.
        -24    2    1    2    0    0 -0.27755575616E-16  0.00000000000E+00  0.11999784277E+03  0.14452874561E+03  0.80554801459E+02 0.  0.
         66    2    3    3    0    0  0.22372506499E+00  0.39976989400E+02  0.68461570869E+02  0.79304453970E+02  0.19999998205E+01 0.  0.
         13    1    3    3    0    0 -0.22372506499E+00 -0.39976989400E+02  0.51536271898E+02  0.65224291637E+02  0.10566000000E+00 0. -1.
         13    1    4    4    0    0 -0.49492351099E+00  0.10897751301E+02  0.17892566418E+02  0.20956169252E+02  0.10566000000E+00 0. -1.
        -13    1    4    4    0    0 -0.26563762039E-01  0.18703452412E+02  0.32830871506E+02  0.37784879590E+02  0.10566000000E+00 0.  1.
        -14    1    4    4    0    0  0.74521233802E+00  0.10375785687E+02  0.17738132946E+02  0.20563405128E+02  0.00000000000E+00 0.  1.
<mgrwt>
<rscale>  0 0.80554801E+02</rscale>
<asrwt>0</asrwt>
<pdfrwt beam="1">  1        1 0.18869926E-02 0.80554801E+02</pdfrwt>
<pdfrwt beam="2">  1       -2 0.20348198E-01 0.80554801E+02</pdfrwt>
<totfact> 0.96593648E+04</totfact>
</mgrwt>
</event>
<event>
 8    1  0.1372337E-024  0.8067504E+02  0.7818608E-02  0.1327147E+00
         -2   -1    0    0    0  501 -0.00000000000E+00  0.00000000000E+00  0.96233692627E+03  0.96233692627E+03  0.25500000000E-02 0.  1.
          1   -1    0    0  501    0  0.00000000000E+00 -0.00000000000E+00 -0.16907923917E+01  0.16907999034E+01  0.50400000000E-02 0. -1.
        -24    2    1    2    0    0 -0.17763568394E-14  0.00000000000E+00  0.96064613388E+03  0.96402772618E+03  0.80675041383E+02 0.  0.
         66    2    3    3    0    0 -0.99715834133E+01  0.18977858279E+02  0.88857032941E+03  0.88883115488E+03  0.20000004065E+01 0.  0.
         13    1    3    3    0    0  0.99715834133E+01 -0.18977858279E+02  0.72075804475E+02  0.75196571301E+02  0.10566000000E+00 0. -1.
         13    1    4    4    0    0 -0.20276007162E+01  0.44608482138E+01  0.21319679152E+03  0.21325312052E+03  0.10566000000E+00 0. -1.
        -13    1    4    4    0    0 -0.65368331282E+01  0.12563895222E+02  0.59447055061E+03  0.59463924219E+03  0.10566000000E+00 0.  1.
         14    1    4    4    0    0 -0.14071495689E+01  0.19531148433E+01  0.80902987271E+02  0.80938792163E+02  0.00000000000E+00 0. -1.
<mgrwt>
<rscale>  0 0.80675041E+02</rscale>
<asrwt>0</asrwt>
<pdfrwt beam="1">  1        1 0.26012299E-03 0.80675041E+02</pdfrwt>
<pdfrwt beam="2">  1       -2 0.14805155E+00 0.80675041E+02</pdfrwt>
<totfact> 0.26668606E+04</totfact>
</mgrwt>
</event>
<event>
 8    1  0.1372337E-024  0.7840307E+02  0.7818608E-02  0.1333645E+00
         -2   -1    0    0    0  501 -0.00000000000E+00  0.00000000000E+00  0.20076272975E+02  0.20076273137E+02  0.25500000000E-02 0.  1.
          1   -1    0    0  501    0  0.00000000000E+00 -0.00000000000E+00 -0.76546096918E+02  0.76546097084E+02  0.50400000000E-02 0. -1.
        -24    2    1    2    0    0  0.00000000000E+00  0.00000000000E+00 -0.56469823942E+02  0.96622370221E+02  0.78403070163E+02 0.  0.
         66    2    3    3    0    0  0.97289895825E+01 -0.19405854365E+02  0.11936620048E+02  0.24854040400E+02  0.20000010294E+01 0.  0.
         13    1    3    3    0    0 -0.97289895825E+01  0.19405854365E+02 -0.68406443990E+02  0.71768329821E+02  0.10566000000E+00 0. -1.
         13    1    4    4    0    0  0.65837430851E+00 -0.16137574066E+01  0.93585430174E+00  0.19810747102E+01  0.10566000000E+00 0. -1.
        -13    1    4    4    0    0  0.70555816066E+01 -0.13367194489E+02  0.74451450140E+01  0.16849464936E+02  0.10566000000E+00 0.  1.
        -14    1    4    4    0    0  0.20150336674E+01 -0.44249024694E+01  0.35556207319E+01  0.60235007540E+01  0.00000000000E+00 0.  1.
<mgrwt>
<rscale>  0 0.78403070E+02</rscale>
<asrwt>0</asrwt>
<pdfrwt beam="1">  1        1 0.11776323E-01 0.78403070E+02</pdfrwt>
<pdfrwt beam="2">  1       -2 0.30886574E-02 0.78403070E+02</pdfrwt>
<totfact> 0.14863850E+05</totfact>
</mgrwt>
</event>
<event>
 8    1  0.1372337E-024  0.8231965E+02  0.7818608E-02  0.1322595E+00
          1   -1    0    0  501    0  0.00000000000E+00  0.00000000000E+00  0.52284627268E+02  0.52284627511E+02  0.50400000000E-02 0. -1.
         -2   -1    0    0    0  501 -0.00000000000E+00 -0.00000000000E+00 -0.32402086288E+02  0.32402086388E+02  0.25500000000E-02 0.  1.
        -24    2    1    2    0    0 -0.17763568394E-14  0.35527136788E-14  0.19882540981E+02  0.84686713899E+02  0.82319645743E+02 0.  0.
         66    2    3    3    0    0 -0.13547320815E+02  0.25239128717E+02 -0.20424363453E+02  0.35237737886E+02  0.20000073101E+01 0.  0.
         13    1    3    3    0    0  0.13547320815E+02 -0.25239128717E+02  0.40306904434E+02  0.49448976013E+02  0.10566000000E+00 0. -1.
         13    1    4    4    0    0 -0.72608759545E+01  0.13957596086E+02 -0.12233412860E+02  0.19929936336E+02  0.10566000000E+00 0. -1.
        -13    1    4    4    0    0 -0.45321738004E+01  0.80322071232E+01 -0.61903690888E+01  0.11108050419E+02  0.10566000000E+00 0.  1.
         14    1    4    4    0    0 -0.17542710597E+01  0.32493255077E+01 -0.20005815047E+01  0.41997511311E+01  0.00000000000E+00 0. -1.
<mgrwt>
<rscale>  0 0.82319646E+02</rscale>
<asrwt>0</asrwt>
<pdfrwt beam="1">  1        1 0.80437887E-02 0.82319646E+02</pdfrwt>
<pdfrwt beam="2">  1       -2 0.49849365E-02 0.82319646E+02</pdfrwt>
<totfact> 0.12236970E+05</totfact>
</mgrwt>
</event>
<event>
 8    1  0.1372337E-024  0.7839585E+02  0.7818608E-02  0.1333666E+00
         -2   -1    0    0    0  501 -0.00000000000E+00  0.00000000000E+00  0.16276216185E+03  0.16276216187E+03  0.25500000000E-02 0.  1.
          1   -1    0    0  501    0  0.00000000000E+00 -0.00000000000E+00 -0.94400135734E+01  0.94400149188E+01  0.50400000000E-02 0. -1.
        -24    2    1    2    0    0 -0.35527136788E-14 -0.35527136788E-14  0.15332214828E+03  0.17220217679E+03  0.78395845162E+02 0.  0.
         66    2    3    3    0    0 -0.28227426932E+02 -0.25287214255E+02  0.98482550846E+02  0.10554166789E+03  0.20000010743E+01 0.  0.
         13    1    3    3    0    0  0.28227426932E+02  0.25287214255E+02  0.54839597431E+02  0.66660508897E+02  0.10566000000E+00 0. -1.
         13    1    4    4    0    0 -0.95200887761E+00 -0.11002472443E+01  0.37170214885E+01  0.39930286354E+01  0.10566000000E+00 0. -1.
        -13    1    4    4    0    0 -0.13622562440E+02 -0.12801130095E+02  0.50261705968E+02  0.53625491979E+02  0.10566000000E+00 0.  1.
         14    1    4    4    0    0 -0.13652855615E+02 -0.11385836916E+02  0.44503823390E+02  0.47923147278E+02  0.00000000000E+00 0. -1.
<mgrwt>
<rscale>  0 0.78395845E+02</rscale>
<asrwt>0</asrwt>
<pdfrwt beam="1">  1        1 0.14523098E-02 0.78395845E+02</pdfrwt>
<pdfrwt beam="2">  1       -2 0.25040334E-01 0.78395845E+02</pdfrwt>
<totfact> 0.96855727E+04</totfact>
</mgrwt>
</event>
<event>
 8    1  0.1372337E-024  0.7712013E+02  0.7818608E-02  0.1337429E+00
         -2   -1    0    0    0  501 -0.00000000000E+00  0.00000000000E+00  0.24411157271E+02  0.24411157405E+02  0.25500000000E-02 0.  1.
          1   -1    0    0  501    0  0.00000000000E+00 -0.00000000000E+00 -0.60909794308E+02  0.60909794516E+02  0.50400000000E-02 0. -1.
        -24    2    1    2    0    0  0.00000000000E+00  0.00000000000E+00 -0.36498637037E+02  0.85320951921E+02  0.77120129222E+02 0.  0.
         66    2    3    3    0    0 -0.11035935790E+02  0.13807903087E+02  0.19620208388E+02  0.26484007386E+02  0.20000009049E+01 0.  0.
         13    1    3    3    0    0  0.11035935790E+02 -0.13807903087E+02 -0.56118845424E+02  0.58836944535E+02  0.10566000000E+00 0. -1.
         13    1    4    4    0    0 -0.61382636470E+00  0.66542452676E+00  0.49619306602E+00  0.10377592212E+01  0.10566000000E+00 0. -1.
        -13    1    4    4    0    0 -0.81859428305E+01  0.98827620474E+01  0.14680403626E+02  0.19498822025E+02  0.10566000000E+00 0.  1.
         14    1    4    4    0    0 -0.22361665949E+01  0.32597165133E+01  0.44436116952E+01  0.59474261395E+01  0.00000000000E+00 0. -1.
<mgrwt>
<rscale>  0 0.77120129E+02</rscale>
<asrwt>0</asrwt>
<pdfrwt beam="1">  1        1 0.93707376E-02 0.77120129E+02</pdfrwt>
<pdfrwt beam="2">  1       -2 0.37555627E-02 0.77120129E+02</pdfrwt>
<totfact> 0.15008069E+05</totfact>
</mgrwt>
</event>
<event>
 8    1  0.1372337E-024  0.8190475E+02  0.7818608E-02  0.1323731E+00
          1   -1    0    0  501    0  0.00000000000E+00  0.00000000000E+00  0.11470247006E+02  0.11470248113E+02  0.50400000000E-02 0. -1.
         -2   -1    0    0    0  501 -0.00000000000E+00 -0.00000000000E+00 -0.14621278261E+03  0.14621278263E+03  0.25500000000E-02 0.  1.
        -24    2    1    2    0    0  0.17763568394E-14  0.00000000000E+00 -0.13474253560E+03  0.15768303074E+03  0.81904745186E+02 0.  0.
         66    2    3    3    0    0 -0.12855901649E+02  0.17071754074E+02 -0.13461082048E+03  0.13631137879E+03  0.20000003842E+01 0.  0.
         13    1    3    3    0    0  0.12855901649E+02 -0.17071754074E+02 -0.13171511826E+00  0.21371651955E+02  0.10566000000E+00 0. -1.
         13    1    4    4    0    0 -0.75719472322E+01  0.96940069700E+01 -0.76245341528E+02  0.77231285272E+02  0.10566000000E+00 0. -1.
        -13    1    4    4    0    0 -0.23731075088E+01  0.42637557824E+01 -0.29312126405E+02  0.29715705797E+02  0.10566000000E+00 0.  1.
        -14    1    4    4    0    0 -0.29108469079E+01  0.31139913219E+01 -0.29053352549E+02  0.29364387717E+02  0.00000000000E+00 0.  1.
<mgrwt>
<rscale>  0 0.81904745E+02</rscale>
<asrwt>0</asrwt>
<pdfrwt beam="1">  1        1 0.17646536E-02 0.81904745E+02</pdfrwt>
<pdfrwt beam="2">  1       -2 0.22494273E-01 0.81904745E+02</pdfrwt>
<totfact> 0.89698814E+04</totfact>
</mgrwt>
</event>
<event>
 8    1  0.1372337E-024  0.7757696E+02  0.7818608E-02  0.1336072E+00
         -2   -1    0    0    0  501 -0.00000000000E+00  0.00000000000E+00  0.19159801625E+02  0.19159801795E+02  0.25500000000E-02 0.  1.
          1   -1    0    0  501    0  0.00000000000E+00 -0.00000000000E+00 -0.78526189642E+02  0.78526189804E+02  0.50400000000E-02 0. -1.
        -24    2    1    2    0    0  0.00000000000E+00  0.00000000000E+00 -0.59366388017E+02  0.97685991599E+02  0.77576961326E+02 0.  0.
         66    2    3    3    0    0  0.13959441507E+02  0.85017129821E+01  0.14556239894E+02  0.21977925898E+02  0.19999940298E+01 0.  0.
         13    1    3    3    0    0 -0.13959441507E+02 -0.85017129821E+01 -0.73922627911E+02  0.75708065701E+02  0.10566000000E+00 0. -1.
         13    1    4    4    0    0  0.60198920687E+00  0.46249383471E+00  0.38092776809E+00  0.85589809699E+00  0.10566000000E+00 0. -1.
        -13    1    4    4    0    0  0.48037668740E+01  0.36079632777E+01  0.59246450070E+01  0.84383741140E+01  0.10566000000E+00 0.  1.
        -14    1    4    4    0    0  0.85536854257E+01  0.44312558697E+01  0.82506671193E+01  0.12683653687E+02  0.00000000000E+00 0.  1.
<mgrwt>
<rscale>  0 0.77576961E+02</rscale>
<asrwt>0</asrwt>
<pdfrwt beam="1">  1        1 0.12080952E-01 0.77576961E+02</pdfrwt>
<pdfrwt beam="2">  1       -2 0.29476618E-02 0.77576961E+02</pdfrwt>
<totfact> 0.15359628E+05</totfact>
</mgrwt>
</event>
<event>
 8    1  0.1372337E-024  0.7950941E+02  0.7818608E-02  0.1330449E+00
         -2   -1    0    0    0  501 -0.00000000000E+00  0.00000000000E+00  0.19764862416E+03  0.19764862418E+03  0.25500000000E-02 0.  1.
          1   -1    0    0  501    0  0.00000000000E+00 -0.00000000000E+00 -0.79961928120E+01  0.79961944003E+01  0.50400000000E-02 0. -1.
        -24    2    1    2    0    0  0.00000000000E+00  0.00000000000E+00  0.18965243135E+03  0.20564481858E+03  0.79509412596E+02 0.  0.
         66    2    3    3    0    0 -0.17207450254E+02 -0.10447108090E+02  0.18347590819E+03  0.18458777667E+03  0.19999995610E+01 0.  0.
         13    1    3    3    0    0  0.17207450254E+02  0.10447108090E+02  0.61765231641E+01  0.21057041913E+02  0.10566000000E+00 0. -1.
         13    1    4    4    0    0 -0.60914889611E+01 -0.32214820986E+01  0.69888925961E+02  0.70227895602E+02  0.10566000000E+00 0. -1.
        -13    1    4    4    0    0 -0.47404589712E+01 -0.31384730909E+01  0.51322982296E+02  0.51637018120E+02  0.10566000000E+00 0.  1.
         14    1    4    4    0    0 -0.63755023216E+01 -0.40871529003E+01  0.62263999933E+02  0.62722862947E+02  0.00000000000E+00 0. -1.
<mgrwt>
<rscale>  0 0.79509413E+02</rscale>
<asrwt>0</asrwt>
<pdfrwt beam="1">  1        1 0.12301837E-02 0.79509413E+02</pdfrwt>
<pdfrwt beam="2">  1       -2 0.30407478E-01 0.79509413E+02</pdfrwt>
<totfact> 0.86850321E+04</totfact>
</mgrwt>
</event>
<event>
 8    1  0.1372337E-024  0.7967016E+02  0.7818608E-02  0.1329990E+00
         -2   -1    0    0    0  501 -0.00000000000E+00  0.00000000000E+00  0.97077257283E+02  0.97077257316E+02  0.25500000000E-02 0.  1.
          1   -1    0    0  501    0  0.00000000000E+00 -0.00000000000E+00 -0.16346089955E+02  0.16346090732E+02  0.50400000000E-02 0. -1.
        -24    2    1    2    0    0  0.88817841970E-15  0.00000000000E+00  0.80731167328E+02  0.11342334805E+03  0.79670160689E+02 0.  0.
         66    2    3    3    0    0  0.51465808990E+01  0.29185010783E+02  0.78234021204E+02  0.83682819267E+02  0.20000043242E+01 0.  0.
         13    1    3    3    0    0 -0.51465808990E+01 -0.29185010783E+02  0.24971461241E+01  0.29740528781E+02  0.10566000000E+00 0. -1.
         13    1    4    4    0    0  0.25588385011E+00  0.51613514908E+01  0.14277551471E+02  0.15184355956E+02  0.10566000000E+00 0. -1.
        -13    1    4    4    0    0  0.19107172129E+01  0.98966539943E+01  0.25342612380E+02  0.27273682679E+02  0.10566000000E+00 0.  1.
         14    1    4    4    0    0  0.29799798359E+01  0.14127005298E+02  0.38613857352E+02  0.41224780632E+02  0.00000000000E+00 0. -1.
<mgrwt>
<rscale>  0 0.79670161E+02</rscale>
<asrwt>0</asrwt>
<pdfrwt beam="1">  1        1 0.25147831E-02 0.79670161E+02</pdfrwt>
<pdfrwt beam="2">  1       -2 0.14934963E-01 0.79670161E+02</pdfrwt>
<totfact> 0.10804078E+05</totfact>
</mgrwt>
</event>
<event>
 8    1  0.1372337E-024  0.8053122E+02  0.7818608E-02  0.1327551E+00
          1   -1    0    0  501    0  0.00000000000E+00  0.00000000000E+00  0.47469704048E+03  0.47469704050E+03  0.50400000000E-02 0. -1.
         -2   -1    0    0    0  501 -0.00000000000E+00 -0.00000000000E+00 -0.34154815658E+01  0.34154825177E+01  0.25500000000E-02 0.  1.
        -24    2    1    2    0    0  0.35527136788E-14 -0.35527136788E-14  0.47128155891E+03  0.47811252302E+03  0.80531216930E+02 0.  0.
         66    2    3    3    0    0  0.18608954561E+02 -0.19335852910E+02  0.41381068692E+03  0.41468476341E+03  0.19999998758E+01 0.  0.
         13    1    3    3    0    0 -0.18608954561E+02  0.19335852910E+02  0.57470871993E+02  0.63427759611E+02  0.10566000000E+00 0. -1.
         13    1    4    4    0    0  0.57581869965E+01 -0.68121855776E+01  0.14413376342E+03  0.14440954093E+03  0.10566000000E+00 0. -1.
        -13    1    4    4    0    0  0.53519576742E+01 -0.53753265863E+01  0.12144532354E+03  0.12168202563E+03  0.10566000000E+00 0.  1.
         14    1    4    4    0    0  0.74988098901E+01 -0.71483407459E+01  0.14823159996E+03  0.14859319686E+03  0.00000000000E+00 0. -1.
<mgrwt>
<rscale>  0 0.80531217E+02</rscale>
<asrwt>0</asrwt>
<pdfrwt beam="1">  1        1 0.73030290E-01 0.80531217E+02</pdfrwt>
<pdfrwt beam="2">  1       -2 0.52545895E-03 0.80531217E+02</pdfrwt>
<totfact> 0.19146871E+05</totfact>
</mgrwt>
</event>
<event>
 8    1  0.1372337E-024  0.7524428E+02  0.7818608E-02  0.1343116E+00
          1   -1    0    0  501    0  0.00000000000E+00  0.00000000000E+00  0.58208001309E+01  0.58208023129E+01  0.50400000000E-02 0. -1.
         -2   -1    0    0    0  501 -0.00000000000E+00 -0.00000000000E+00 -0.24316676020E+03  0.24316676021E+03  0.25500000000E-02 0.  1.
        -24    2    1    2    0    0  0.00000000000E+00  0.00000000000E+00 -0.23734596007E+03  0.24898756252E+03  0.75244279062E+02 0.  0.
         66    2    3    3    0    0 -0.24249160037E+01  0.37046786380E+02 -0.99158715136E+02  0.10589993055E+03  0.19999760064E+01 0.  0.
         13    1    3    3    0    0  0.24249160037E+01 -0.37046786380E+02 -0.13818724493E+03  0.14308763198E+03  0.10566000000E+00 0. -1.
         13    1    4    4    0    0  0.27510401196E-01  0.55652252326E+00 -0.10328779096E+01  0.11783356707E+01  0.10566000000E+00 0. -1.
        -13    1    4    4    0    0 -0.14270591736E+01  0.25269502987E+02 -0.67716284214E+02  0.72291704855E+02  0.10566000000E+00 0.  1.
        -14    1    4    4    0    0 -0.10253672313E+01  0.11220760870E+02 -0.30409553013E+02  0.32429890023E+02  0.00000000000E+00 0.  1.
<mgrwt>
<rscale>  0 0.75244279E+02</rscale>
<asrwt>0</asrwt>
<pdfrwt beam="1">  1        1 0.89550807E-03 0.75244279E+02</pdfrwt>
<pdfrwt beam="2">  1       -2 0.37410263E-01 0.75244279E+02</pdfrwt>
<totfact> 0.91495257E+04</totfact>
</mgrwt>
</event>
<event>
 8    1  0.1372337E-024  0.7779955E+02  0.7818608E-02  0.1335415E+00
          1   -1    0    0  501    0  0.00000000000E+00  0.00000000000E+00  0.34214204870E+01  0.34214241991E+01  0.50400000000E-02 0. -1.
         -2   -1    0    0    0  501 -0.00000000000E+00 -0.00000000000E+00 -0.44226997622E+03  0.44226997623E+03  0.25500000000E-02 0.  1.
        -24    2    1    2    0    0  0.88817841970E-15  0.35527136788E-14 -0.43884855574E+03  0.44569140043E+03  0.77799547205E+02 0.  0.
         66    2    3    3    0    0  0.76616524837E+01  0.22714210456E+02 -0.39488544221E+03  0.39561742724E+03  0.19999991325E+01 0.  0.
         13    1    3    3    0    0 -0.76616524837E+01 -0.22714210456E+02 -0.43963113531E+02  0.50073973188E+02  0.10566000000E+00 0. -1.
         13    1    4    4    0    0  0.77458877796E+00  0.12307407160E+01 -0.26938089064E+02  0.26977518732E+02  0.10566000000E+00 0. -1.
        -13    1    4    4    0    0  0.43457218359E+01  0.15138103577E+02 -0.25518756609E+03  0.25567313611E+03  0.10566000000E+00 0.  1.
        -14    1    4    4    0    0  0.25413418698E+01  0.63453661630E+01 -0.11275978705E+03  0.11296677240E+03  0.00000000000E+00 0.  1.
<mgrwt>
<rscale>  0 0.77799547E+02</rscale>
<asrwt>0</asrwt>
<pdfrwt beam="1">  1        1 0.52637302E-03 0.77799547E+02</pdfrwt>
<pdfrwt beam="2">  1       -2 0.68041489E-01 0.77799547E+02</pdfrwt>
<totfact> 0.59278151E+04</totfact>
</mgrwt>
</event>
<event>
 8    1  0.1372337E-024  0.7755131E+02  0.7818608E-02  0.1336148E+00
          1   -1    0    0  501    0  0.00000000000E+00  0.00000000000E+00  0.65369632024E+01  0.65369651453E+01  0.50400000000E-02 0. -1.
         -2   -1    0    0    0  501 -0.00000000000E+00 -0.00000000000E+00 -0.23000757500E+03  0.23000757501E+03  0.25500000000E-02 0.  1.
        -24    2    1    2    0    0  0.00000000000E+00  0.00000000000E+00 -0.22347061180E+03  0.23654454016E+03  0.77551306514E+02 0.  0.
         66    2    3    3    0    0  0.68465732786E+01 -0.11648518726E+02 -0.22258482563E+03  0.22300351600E+03  0.19999984796E+01 0.  0.
         13    1    3    3    0    0 -0.68465732786E+01  0.11648518726E+02 -0.88578617073E+00  0.13541024162E+02  0.10566000000E+00 0. -1.
         13    1    4    4    0    0  0.10337421323E+01 -0.27334025975E+01 -0.44889299206E+02  0.44984446865E+02  0.10566000000E+00 0. -1.
        -13    1    4    4    0    0  0.99150981677E+00 -0.97515269812E+00 -0.29195366939E+02  0.29228661092E+02  0.10566000000E+00 0.  1.
        -14    1    4    4    0    0  0.48213213295E+01 -0.79399634304E+01 -0.14850015948E+03  0.14879040804E+03  0.00000000000E+00 0.  1.
<mgrwt>
<rscale>  0 0.77551307E+02</rscale>
<asrwt>0</asrwt>
<pdfrwt beam="1">  1        1 0.10056870E-02 0.77551307E+02</pdfrwt>
<pdfrwt beam="2">  1       -2 0.35385775E-01 0.77551307E+02</pdfrwt>
<totfact> 0.86837216E+04</totfact>
</mgrwt>
</event>
<event>
 8    1  0.1372337E-024  0.8022575E+02  0.7818608E-02  0.1328412E+00
         -2   -1    0    0    0  501 -0.00000000000E+00  0.00000000000E+00  0.16750566842E+03  0.16750566844E+03  0.25500000000E-02 0.  1.
          1   -1    0    0  501    0  0.00000000000E+00 -0.00000000000E+00 -0.96058990624E+01  0.96059003846E+01  0.50400000000E-02 0. -1.
        -24    2    1    2    0    0 -0.71054273576E-14 -0.88817841970E-15  0.15789976936E+03  0.17711156883E+03  0.80225748038E+02 0.  0.
         66    2    3    3    0    0 -0.38721847206E+02  0.61295975731E+01  0.97480578684E+02  0.10508766180E+03  0.20000061084E+01 0.  0.
         13    1    3    3    0    0  0.38721847206E+02 -0.61295975731E+01  0.60419190677E+02  0.72023907028E+02  0.10566000000E+00 0. -1.
         13    1    4    4    0    0 -0.19050331621E+01  0.44596140548E+00  0.40444428047E+01  0.44940754956E+01  0.10566000000E+00 0. -1.
        -13    1    4    4    0    0 -0.52981510308E+00  0.10650715265E+00  0.15216890605E+01  0.16182550632E+01  0.10566000000E+00 0.  1.
         14    1    4    4    0    0 -0.36286998941E+02  0.55771290150E+01  0.91914446819E+02  0.98975331241E+02  0.00000000000E+00 0. -1.
<mgrwt>
<rscale>  0 0.80225748E+02</rscale>
<asrwt>0</asrwt>
<pdfrwt beam="1">  1        1 0.14778308E-02 0.80225748E+02</pdfrwt>
<pdfrwt beam="2">  1       -2 0.25770102E-01 0.80225748E+02</pdfrwt>
<totfact> 0.90351680E+04</totfact>
</mgrwt>
</event>
<event>
 8    1  0.2005977E-024  0.8075916E+02  0.7818608E-02  0.1326911E+00
          1   -1    0    0  501    0  0.00000000000E+00  0.00000000000E+00  0.12627760819E+03  0.12627760829E+03  0.50400000000E-02 0. -1.
         -2   -1    0    0    0  501 -0.00000000000E+00 -0.00000000000E+00 -0.12912111740E+02  0.12912111992E+02  0.25500000000E-02 0.  1.
        -24    2    1    2    0    0  0.00000000000E+00  0.17763568394E-14  0.11336549645E+03  0.13918972029E+03  0.80759163241E+02 0.  0.
         66    2    3    3    0    0  0.21425825900E+02 -0.10197067479E+02  0.45947670475E+00  0.23817164364E+02  0.19999997029E+01 0.  0.
         13    1    3    3    0    0 -0.21425825900E+02  0.10197067479E+02  0.11290601975E+03  0.11537255592E+03  0.10566000000E+00 0. -1.
         13    1    4    4    0    0  0.10234057962E+02 -0.45561812296E+01  0.11692246485E+00  0.11203551431E+02  0.10566000000E+00 0. -1.
        -13    1    4    4    0    0  0.10355257393E+02 -0.47783404277E+01  0.38153861733E+00  0.11411425357E+02  0.10566000000E+00 0.  1.
         14    1    4    4    0    0  0.83651054533E+00 -0.86254582172E+00 -0.38984377423E-01  0.12021875763E+01  0.00000000000E+00 0. -1.
<mgrwt>
<rscale>  0 0.80759163E+02</rscale>
<asrwt>0</asrwt>
<pdfrwt beam="1">  1        1 0.19427324E-01 0.80759163E+02</pdfrwt>
<pdfrwt beam="2">  1       -2 0.19864788E-02 0.80759163E+02</pdfrwt>
<totfact> 0.14920323E+05</totfact>
</mgrwt>
</event>
<event>
 8    1  0.1372337E-024  0.7973743E+02  0.7818608E-02  0.1329798E+00
          1   -1    0    0  501    0  0.00000000000E+00  0.00000000000E+00  0.18197987927E+01  0.18198057719E+01  0.50400000000E-02 0. -1.
         -2   -1    0    0    0  501 -0.00000000000E+00 -0.00000000000E+00 -0.87345453217E+03  0.87345453217E+03  0.25500000000E-02 0.  1.
        -24    2    1    2    0    0  0.00000000000E+00  0.00000000000E+00 -0.87163473338E+03  0.87527433795E+03  0.79737433095E+02 0.  0.
         66    2    3    3    0    0 -0.23214631013E+02 -0.13006545552E+02 -0.76161266306E+03  0.76208000752E+03  0.20000008609E+01 0.  0.
         13    1    3    3    0    0  0.23214631013E+02  0.13006545552E+02 -0.11002207032E+03  0.11319433043E+03  0.10566000000E+00 0. -1.
         13    1    4    4    0    0 -0.25197297238E+01 -0.12928045400E+01 -0.74903477891E+02  0.74957071351E+02  0.10566000000E+00 0. -1.
        -13    1    4    4    0    0 -0.42079813389E+01 -0.16433920300E+01 -0.13501070098E+03  0.13508629978E+03  0.10566000000E+00 0.  1.
        -14    1    4    4    0    0 -0.16486919950E+02 -0.10070348982E+02 -0.55169848419E+03  0.55203663639E+03  0.00000000000E+00 0.  1.
<mgrwt>
<rscale>  0 0.79737433E+02</rscale>
<asrwt>0</asrwt>
<pdfrwt beam="1">  1        1 0.27997028E-03 0.79737433E+02</pdfrwt>
<pdfrwt beam="2">  1       -2 0.13437729E+00 0.79737433E+02</pdfrwt>
<totfact> 0.30584826E+04</totfact>
</mgrwt>
</event>
<event>
 8    1  0.1372337E-024  0.8013301E+02  0.7818608E-02  0.1328674E+00
         -2   -1    0    0    0  501 -0.00000000000E+00  0.00000000000E+00  0.36004717491E+02  0.36004717581E+02  0.25500000000E-02 0.  1.
          1   -1    0    0  501    0  0.00000000000E+00 -0.00000000000E+00 -0.44586511469E+02  0.44586511754E+02  0.50400000000E-02 0. -1.
        -24    2    1    2    0    0  0.35527136788E-14  0.00000000000E+00 -0.85817939779E+01  0.80591229335E+02  0.80133008542E+02 0.  0.
         66    2    3    3    0    0  0.31895161352E+02 -0.24151329615E+02 -0.26313069193E+01  0.40143639789E+02  0.19999998935E+01 0.  0.
         13    1    3    3    0    0 -0.31895161352E+02  0.24151329615E+02 -0.59504870586E+01  0.40447589546E+02  0.10566000000E+00 0. -1.
         13    1    4    4    0    0  0.12117463086E+02 -0.92185431340E+01 -0.70743945364E+00  0.15242246677E+02  0.10566000000E+00 0. -1.
        -13    1    4    4    0    0  0.14116025233E+02 -0.99708079163E+01 -0.92900077572E+00  0.17307610619E+02  0.10566000000E+00 0.  1.
         14    1    4    4    0    0  0.56616730327E+01 -0.49619785650E+01 -0.99486668995E+00  0.75937824922E+01  0.00000000000E+00 0. -1.
<mgrwt>
<rscale>  0 0.80133009E+02</rscale>
<asrwt>0</asrwt>
<pdfrwt beam="1">  1        1 0.68594633E-02 0.80133009E+02</pdfrwt>
<pdfrwt beam="2">  1       -2 0.55391873E-02 0.80133009E+02</pdfrwt>
<totfact> 0.12860936E+05</totfact>
</mgrwt>
</event>
<event>
 8    1  0.1372337E-024  0.7974739E+02  0.7818608E-02  0.1329770E+00
         -2   -1    0    0    0  501 -0.00000000000E+00  0.00000000000E+00  0.37800730942E+03  0.37800730943E+03  0.25500000000E-02 0.  1.
          1   -1    0    0  501    0  0.00000000000E+00 -0.00000000000E+00 -0.42060327382E+01  0.42060357579E+01  0.50400000000E-02 0. -1.
        -24    2    1    2    0    0  0.00000000000E+00  0.00000000000E+00  0.37380127668E+03  0.38221334519E+03  0.79747393623E+02 0.  0.
         66    2    3    3    0    0  0.96083398712E+01 -0.38631200178E+02  0.19561412182E+03  0.19963360057E+03  0.19999997711E+01 0.  0.
         13    1    3    3    0    0 -0.96083398712E+01  0.38631200178E+02  0.17818715486E+03  0.18257974462E+03  0.10566000000E+00 0. -1.
         13    1    4    4    0    0  0.14023209745E+01 -0.54737106526E+01  0.25063096708E+02  0.25692372274E+02  0.10566000000E+00 0. -1.
        -13    1    4    4    0    0  0.58804490983E+01 -0.25620766235E+02  0.13126153255E+03  0.13386786184E+03  0.10566000000E+00 0.  1.
         14    1    4    4    0    0  0.23255697983E+01 -0.75367232907E+01  0.39289492569E+02  0.40073366457E+02  0.00000000000E+00 0. -1.
<mgrwt>
<rscale>  0 0.79747394E+02</rscale>
<asrwt>0</asrwt>
<pdfrwt beam="1">  1        1 0.64708195E-03 0.79747394E+02</pdfrwt>
<pdfrwt beam="2">  1       -2 0.58154992E-01 0.79747394E+02</pdfrwt>
<totfact> 0.61810020E+04</totfact>
</mgrwt>
</event>
<event>
 8    1  0.1372337E-024  0.8114558E+02  0.7818608E-02  0.1325832E+00
          1   -1    0    0  501    0  0.00000000000E+00  0.00000000000E+00  0.41618285311E+03  0.41618285314E+03  0.50400000000E-02 0. -1.
         -2   -1    0    0    0  501 -0.00000000000E+00 -0.00000000000E+00 -0.39553558571E+01  0.39553566791E+01  0.25500000000E-02 0.  1.
        -24    2    1    2    0    0  0.00000000000E+00  0.00000000000E+00  0.41222749726E+03  0.42013820982E+03  0.81145584347E+02 0.  0.
         66    2    3    3    0    0 -0.39943908089E+02 -0.30485001726E+01  0.17376505822E+03  0.17833424968E+03  0.20000008034E+01 0.  0.
         13    1    3    3    0    0  0.39943908089E+02  0.30485001726E+01  0.23846243904E+03  0.24180396015E+03  0.10566000000E+00 0. -1.
         13    1    4    4    0    0 -0.10821358498E+02 -0.10368563909E+01  0.49582360222E+02  0.50760205675E+02  0.10566000000E+00 0. -1.
        -13    1    4    4    0    0 -0.25798505431E+02 -0.13836504406E+01  0.11015772347E+03  0.11314686286E+03  0.10566000000E+00 0.  1.
        -14    1    4    4    0    0 -0.33240441591E+01 -0.62799334109E+00  0.14024974530E+02  0.14427181145E+02  0.00000000000E+00 0.  1.
<mgrwt>
<rscale>  0 0.81145584E+02</rscale>
<asrwt>0</asrwt>
<pdfrwt beam="1">  1        1 0.64028161E-01 0.81145584E+02</pdfrwt>
<pdfrwt beam="2">  1       -2 0.60851607E-03 0.81145584E+02</pdfrwt>
<totfact> 0.18413908E+05</totfact>
</mgrwt>
</event>
<event>
 8    1  0.1372337E-024  0.7695374E+02  0.7818608E-02  0.1337925E+00
         -2   -1    0    0    0  501 -0.00000000000E+00  0.00000000000E+00  0.43271131428E+03  0.43271131428E+03  0.25500000000E-02 0.  1.
          1   -1    0    0  501    0  0.00000000000E+00 -0.00000000000E+00 -0.34213774380E+01  0.34213811502E+01  0.50400000000E-02 0. -1.
        -24    2    1    2    0    0  0.00000000000E+00  0.00000000000E+00  0.42928993684E+03  0.43613269543E+03  0.76953740363E+02 0.  0.
         66    2    3    3    0    0  0.18013676022E+02  0.17610585958E+02  0.37942327249E+03  0.38026391490E+03  0.20000006735E+01 0.  0.
         13    1    3    3    0    0 -0.18013676022E+02 -0.17610585958E+02  0.49866664346E+02  0.55868780536E+02  0.10566000000E+00 0. -1.
         13    1    4    4    0    0  0.12316410668E+01  0.13280405027E+01  0.26866653195E+02  0.26927845239E+02  0.10566000000E+00 0. -1.
        -13    1    4    4    0    0  0.15768306644E+02  0.14593838790E+02  0.32189836995E+03  0.32261461740E+03  0.10566000000E+00 0.  1.
         14    1    4    4    0    0  0.10137283111E+01  0.16887066655E+01  0.30658249352E+02  0.30721452254E+02  0.00000000000E+00 0. -1.
<mgrwt>
<rscale>  0 0.76953740E+02</rscale>
<asrwt>0</asrwt>
<pdfrwt beam="1">  1        1 0.52636599E-03 0.76953740E+02</pdfrwt>
<pdfrwt beam="2">  1       -2 0.66570979E-01 0.76953740E+02</pdfrwt>
<totfact> 0.61916395E+04</totfact>
</mgrwt>
</event>
<event>
 8    1  0.1372337E-024  0.7946242E+02  0.7818608E-02  0.1330584E+00
         -2   -1    0    0    0  501 -0.00000000000E+00  0.00000000000E+00  0.13513305767E+02  0.13513306008E+02  0.25500000000E-02 0.  1.
          1   -1    0    0  501    0  0.00000000000E+00 -0.00000000000E+00 -0.11681588919E+03  0.11681588930E+03  0.50400000000E-02 0. -1.
        -24    2    1    2    0    0  0.00000000000E+00  0.35527136788E-14 -0.10330258342E+03  0.13032919531E+03  0.79462415062E+02 0.  0.
         66    2    3    3    0    0  0.32313420510E+02 -0.22628153350E+02 -0.59086994004E+02  0.71073647205E+02  0.19999993938E+01 0.  0.
         13    1    3    3    0    0 -0.32313420510E+02  0.22628153350E+02 -0.44215589421E+02  0.59255548103E+02  0.10566000000E+00 0. -1.
         13    1    4    4    0    0  0.21663099599E+01 -0.14745550403E+01 -0.33482990170E+01  0.42531731392E+01  0.10566000000E+00 0. -1.
        -13    1    4    4    0    0  0.14487318196E+02 -0.10873091155E+02 -0.26769996730E+02  0.32322598731E+02  0.10566000000E+00 0.  1.
        -14    1    4    4    0    0  0.15659792355E+02 -0.10280507155E+02 -0.28968698257E+02  0.34497875336E+02  0.00000000000E+00 0.  1.
<mgrwt>
<rscale>  0 0.79462415E+02</rscale>
<asrwt>0</asrwt>
<pdfrwt beam="1">  1        1 0.17971675E-01 0.79462415E+02</pdfrwt>
<pdfrwt beam="2">  1       -2 0.20789702E-02 0.79462415E+02</pdfrwt>
<totfact> 0.15371485E+05</totfact>
</mgrwt>
</event>
<event>
 8    1  0.1372337E-024  0.8101206E+02  0.7818608E-02  0.1326204E+00
         -2   -1    0    0    0  501 -0.00000000000E+00  0.00000000000E+00  0.14197140018E+02  0.14197140247E+02  0.25500000000E-02 0.  1.
          1   -1    0    0  501    0  0.00000000000E+00 -0.00000000000E+00 -0.11556824840E+03  0.11556824851E+03  0.50400000000E-02 0. -1.
        -24    2    1    2    0    0  0.71054273576E-14  0.00000000000E+00 -0.10137110838E+03  0.12976538876E+03  0.81012063947E+02 0.  0.
         66    2    3    3    0    0  0.40406797225E+02 -0.14285567014E+00 -0.46791459014E+02  0.61856045079E+02  0.20000016217E+01 0.  0.
         13    1    3    3    0    0 -0.40406797225E+02  0.14285567014E+00 -0.54579649370E+02  0.67909343681E+02  0.10566000000E+00 0. -1.
         13    1    4    4    0    0  0.28540767207E+01  0.18445123968E+00 -0.30658162547E+01  0.41940636059E+01  0.10566000000E+00 0. -1.
        -13    1    4    4    0    0  0.23544907172E+02 -0.12034878695E+00 -0.28602608641E+02  0.37047233671E+02  0.10566000000E+00 0.  1.
         14    1    4    4    0    0  0.14007813332E+02 -0.20695812287E+00 -0.15123034118E+02  0.20614747802E+02  0.00000000000E+00 0. -1.
<mgrwt>
<rscale>  0 0.81012064E+02</rscale>
<asrwt>0</asrwt>
<pdfrwt beam="1">  1        1 0.17779730E-01 0.81012064E+02</pdfrwt>
<pdfrwt beam="2">  1       -2 0.21841755E-02 0.81012064E+02</pdfrwt>
<totfact> 0.14565597E+05</totfact>
</mgrwt>
</event>
<event>
 8    1  0.1372337E-024  0.7956073E+02  0.7818608E-02  0.1330303E+00
          1   -1    0    0  501    0  0.00000000000E+00  0.00000000000E+00  0.25807359750E+02  0.25807360242E+02  0.50400000000E-02 0. -1.
         -2   -1    0    0    0  501 -0.00000000000E+00 -0.00000000000E+00 -0.61318845579E+02  0.61318845632E+02  0.25500000000E-02 0.  1.
        -24    2    1    2    0    0  0.00000000000E+00  0.44408920985E-15 -0.35511485829E+02  0.87126205875E+02  0.79560732301E+02 0.  0.
         66    2    3    3    0    0 -0.95034534762E+01  0.37290450927E+01 -0.59842516419E+02  0.60740004578E+02  0.19999948863E+01 0.  0.
         13    1    3    3    0    0  0.95034534762E+01 -0.37290450927E+01  0.24331030590E+02  0.26386201297E+02  0.10566000000E+00 0. -1.
         13    1    4    4    0    0 -0.30630915720E+01  0.18336360284E+01 -0.24279803984E+02  0.24541083851E+02  0.10566000000E+00 0. -1.
        -13    1    4    4    0    0 -0.42199261470E+01  0.87107946288E+00 -0.23037836673E+02  0.23437568959E+02  0.10566000000E+00 0.  1.
         14    1    4    4    0    0 -0.22204357572E+01  0.10243296015E+01 -0.12524875762E+02  0.12761351767E+02  0.00000000000E+00 0. -1.
<mgrwt>
<rscale>  0 0.79560732E+02</rscale>
<asrwt>0</asrwt>
<pdfrwt beam="1">  1        1 0.39703631E-02 0.79560732E+02</pdfrwt>
<pdfrwt beam="2">  1       -2 0.94336685E-02 0.79560732E+02</pdfrwt>
<totfact> 0.11956237E+05</totfact>
</mgrwt>
</event>
<event>
 8    1  0.1372337E-024  0.7764957E+02  0.7818608E-02  0.1335857E+00
         -2   -1    0    0    0  501 -0.00000000000E+00  0.00000000000E+00  0.11667646726E+03  0.11667646729E+03  0.25500000000E-02 0.  1.
          1   -1    0    0  501    0  0.00000000000E+00 -0.00000000000E+00 -0.12919177879E+02  0.12919178862E+02  0.50400000000E-02 0. -1.
        -24    2    1    2    0    0  0.00000000000E+00  0.00000000000E+00  0.10375728938E+03  0.12959564615E+03  0.77649574380E+02 0.  0.
         66    2    3    3    0    0  0.18400716055E+02 -0.34125984463E+02  0.49443093754E+02  0.62863253885E+02  0.20000005065E+01 0.  0.
         13    1    3    3    0    0 -0.18400716055E+02  0.34125984463E+02  0.54314195628E+02  0.66732392267E+02  0.10566000000E+00 0. -1.
         13    1    4    4    0    0  0.25482244083E+01 -0.48658498433E+01  0.74062988649E+01  0.92214082029E+01  0.10566000000E+00 0. -1.
        -13    1    4    4    0    0  0.77433069436E+01 -0.13938220755E+02  0.18806103605E+02  0.24655901871E+02  0.10566000000E+00 0.  1.
        -14    1    4    4    0    0  0.81091847032E+01 -0.15321913864E+02  0.23230691285E+02  0.28985943811E+02  0.00000000000E+00 0.  1.
<mgrwt>
<rscale>  0 0.77649574E+02</rscale>
<asrwt>0</asrwt>
<pdfrwt beam="1">  1        1 0.19875659E-02 0.77649574E+02</pdfrwt>
<pdfrwt beam="2">  1       -2 0.17950226E-01 0.77649574E+02</pdfrwt>
<totfact> 0.11003668E+05</totfact>
</mgrwt>
</event>
<event>
 8    1  0.1372337E-024  0.8052429E+02  0.7818608E-02  0.1327570E+00
         -2   -1    0    0    0  501 -0.00000000000E+00  0.00000000000E+00  0.31678804516E+03  0.31678804517E+03  0.25500000000E-02 0.  1.
          1   -1    0    0  501    0  0.00000000000E+00 -0.00000000000E+00 -0.51171122191E+01  0.51171147011E+01  0.50400000000E-02 0. -1.
        -24    2    1    2    0    0  0.00000000000E+00  0.71054273576E-14  0.31167093294E+03  0.32190515987E+03  0.80524291437E+02 0.  0.
         66    2    3    3    0    0 -0.87063467717E+01 -0.35861421282E+02  0.22004209283E+03  0.22312410139E+03  0.19999984445E+01 0.  0.
         13    1    3    3    0    0  0.87063467717E+01  0.35861421282E+02  0.91628840106E+02  0.98781058476E+02  0.10566000000E+00 0. -1.
         13    1    4    4    0    0 -0.27299888513E+01 -0.13775017887E+02  0.82258721148E+02  0.83448860542E+02  0.10566000000E+00 0. -1.
        -13    1    4    4    0    0 -0.30514933996E+01 -0.94420703332E+01  0.57734028188E+02  0.58580657891E+02  0.10566000000E+00 0.  1.
         14    1    4    4    0    0 -0.29248645208E+01 -0.12644333061E+02  0.80049343497E+02  0.81094582959E+02  0.00000000000E+00 0. -1.
<mgrwt>
<rscale>  0 0.80524291E+02</rscale>
<asrwt>0</asrwt>
<pdfrwt beam="1">  1        1 0.78724830E-03 0.80524291E+02</pdfrwt>
<pdfrwt beam="2">  1       -2 0.48736618E-01 0.80524291E+02</pdfrwt>
<totfact> 0.67038496E+04</totfact>
</mgrwt>
</event>
<event>
 8    1  0.1372337E-024  0.8011412E+02  0.7818608E-02  0.1328728E+00
          1   -1    0    0  501    0  0.00000000000E+00  0.00000000000E+00  0.53732188133E+01  0.53732211771E+01  0.50400000000E-02 0. -1.
         -2   -1    0    0    0  501 -0.00000000000E+00 -0.00000000000E+00 -0.29862314869E+03  0.29862314870E+03  0.25500000000E-02 0.  1.
        -24    2    1    2    0    0  0.00000000000E+00 -0.71054273576E-14 -0.29324992987E+03  0.30399636988E+03  0.80114115649E+02 0.  0.
         66    2    3    3    0    0 -0.19302447978E+02 -0.34079601417E+02 -0.17813507753E+03  0.18240095826E+03  0.19999995743E+01 0.  0.
         13    1    3    3    0    0  0.19302447978E+02  0.34079601417E+02 -0.11511485235E+03  0.12159541161E+03  0.10566000000E+00 0. -1.
         13    1    4    4    0    0 -0.45368219091E+01 -0.72352023012E+01 -0.40921071138E+02  0.41802824455E+02  0.10566000000E+00 0. -1.
        -13    1    4    4    0    0 -0.12901284057E+02 -0.22708308864E+02 -0.11799308557E+03  0.12084903734E+03  0.10566000000E+00 0.  1.
        -14    1    4    4    0    0 -0.18643420122E+01 -0.41360902519E+01 -0.19220920826E+02  0.19749096463E+02  0.00000000000E+00 0.  1.
<mgrwt>
<rscale>  0 0.80114116E+02</rscale>
<asrwt>0</asrwt>
<pdfrwt beam="1">  1        1 0.82664947E-03 0.80114116E+02</pdfrwt>
<pdfrwt beam="2">  1       -2 0.45942010E-01 0.80114116E+02</pdfrwt>
<totfact> 0.70186497E+04</totfact>
</mgrwt>
</event>
<event>
 8    1  0.1372337E-024  0.8436023E+02  0.7818608E-02  0.1317114E+00
          1   -1    0    0  501    0  0.00000000000E+00  0.00000000000E+00  0.59773359236E+01  0.59773380484E+01  0.50400000000E-02 0. -1.
         -2   -1    0    0    0  501 -0.00000000000E+00 -0.00000000000E+00 -0.29765128726E+03  0.29765128727E+03  0.25500000000E-02 0.  1.
        -24    2    1    2    0    0 -0.35527136788E-14  0.00000000000E+00 -0.29167395134E+03  0.30362862532E+03  0.84360228930E+02 0.  0.
         66    2    3    3    0    0 -0.30766903091E+02  0.20282036952E+02 -0.21960935665E+03  0.22268864558E+03  0.19999984808E+01 0.  0.
         13    1    3    3    0    0  0.30766903091E+02 -0.20282036952E+02 -0.72064594694E+02  0.80939979745E+02  0.10566000000E+00 0. -1.
         13    1    4    4    0    0 -0.23642442781E+01  0.16144307515E+01 -0.20317288607E+02  0.20518270347E+02  0.10566000000E+00 0.  1.
        -13    1    4    4    0    0 -0.23364136091E+02  0.15096185361E+02 -0.16332213889E+03  0.16567410747E+03  0.10566000000E+00 0.  1.
         14    1    4    4    0    0 -0.50385227219E+01  0.35714208402E+01 -0.35969929145E+02  0.36496267765E+02  0.00000000000E+00 0. -1.
<mgrwt>
<rscale>  0 0.84360229E+02</rscale>
<asrwt>0</asrwt>
<pdfrwt beam="1">  1        1 0.91959054E-03 0.84360229E+02</pdfrwt>
<pdfrwt beam="2">  1       -2 0.45792494E-01 0.84360229E+02</pdfrwt>
<totfact> 0.61512403E+04</totfact>
</mgrwt>
</event>
<event>
 8    1  0.1372337E-024  0.8125768E+02  0.7818608E-02  0.1325520E+00
          1   -1    0    0  501    0  0.00000000000E+00  0.00000000000E+00  0.16385141788E+01  0.16385219302E+01  0.50400000000E-02 0. -1.
         -2   -1    0    0    0  501 -0.00000000000E+00 -0.00000000000E+00 -0.10074364002E+04  0.10074364002E+04  0.25500000000E-02 0.  1.
        -24    2    1    2    0    0  0.00000000000E+00 -0.44408920985E-15 -0.10057978860E+04  0.10090749221E+04  0.81257682429E+02 0.  0.
         66    2    3    3    0    0  0.24755753737E+02  0.25633492431E+01 -0.90160857211E+03  0.90195423132E+03  0.19999987023E+01 0.  0.
         13    1    3    3    0    0 -0.24755753737E+02 -0.25633492431E+01 -0.10418931388E+03  0.10712069078E+03  0.10566000000E+00 0. -1.
         13    1    4    4    0    0  0.10783210589E+01 -0.32000406601E-01 -0.48593718129E+02  0.48605806299E+02  0.10566000000E+00 0. -1.
        -13    1    4    4    0    0  0.24362191780E+01 -0.77861805234E-01 -0.94736409241E+02  0.94767819571E+02  0.10566000000E+00 0.  1.
        -14    1    4    4    0    0  0.21241213500E+02  0.26732114549E+01 -0.75827844474E+03  0.75858060545E+03  0.00000000000E+00 0.  1.
<mgrwt>
<rscale>  0 0.81257682E+02</rscale>
<asrwt>0</asrwt>
<pdfrwt beam="1">  1        1 0.25208051E-03 0.81257682E+02</pdfrwt>
<pdfrwt beam="2">  1       -2 0.15498972E+00 0.81257682E+02</pdfrwt>
<totfact> 0.24833723E+04</totfact>
</mgrwt>
</event>
<event>
 8    1  0.1372337E-024  0.7947445E+02  0.7818608E-02  0.1330550E+00
         -2   -1    0    0    0  501 -0.00000000000E+00  0.00000000000E+00  0.17878399462E+03  0.17878399464E+03  0.25500000000E-02 0.  1.
          1   -1    0    0  501    0  0.00000000000E+00 -0.00000000000E+00 -0.88321499845E+01  0.88321514226E+01  0.50400000000E-02 0. -1.
        -24    2    1    2    0    0  0.00000000000E+00  0.00000000000E+00  0.16995184464E+03  0.18761614607E+03  0.79474453555E+02 0.  0.
         66    2    3    3    0    0  0.12771967233E+02  0.81735579411E+01  0.17167478899E+03  0.17235476023E+03  0.20000006725E+01 0.  0.
         13    1    3    3    0    0 -0.12771967233E+02 -0.81735579411E+01 -0.17229443477E+01  0.15261385838E+02  0.10566000000E+00 0. -1.
         13    1    4    4    0    0  0.66025829566E+01  0.45748912181E+01  0.89980096956E+02  0.90337991696E+02  0.10566000000E+00 0. -1.
        -13    1    4    4    0    0  0.48034833925E+01  0.30574855428E+01  0.69738424568E+02  0.69970570212E+02  0.10566000000E+00 0.  1.
         14    1    4    4    0    0  0.13659008843E+01  0.54118118018E+00  0.11956267463E+02  0.12046198319E+02  0.00000000000E+00 0. -1.
<mgrwt>
<rscale>  0 0.79474454E+02</rscale>
<asrwt>0</asrwt>
<pdfrwt beam="1">  1        1 0.13587926E-02 0.79474454E+02</pdfrwt>
<pdfrwt beam="2">  1       -2 0.27505227E-01 0.79474454E+02</pdfrwt>
<totfact> 0.90397487E+04</totfact>
</mgrwt>
</event>
<event>
 8    1  0.1372337E-024  0.7840824E+02  0.7818608E-02  0.1333630E+00
         -2   -1    0    0    0  501 -0.00000000000E+00  0.00000000000E+00  0.66503571065E+02  0.66503571113E+02  0.25500000000E-02 0.  1.
          1   -1    0    0  501    0  0.00000000000E+00 -0.00000000000E+00 -0.23110981730E+02  0.23110982279E+02  0.50400000000E-02 0. -1.
        -24    2    1    2    0    0  0.35527136788E-14  0.00000000000E+00  0.43392589335E+02  0.89614553392E+02  0.78408235349E+02 0.  0.
         66    2    3    3    0    0 -0.17618661187E+02 -0.32272310898E+02  0.37173175415E+02  0.52323649056E+02  0.20000018579E+01 0.  0.
         13    1    3    3    0    0  0.17618661187E+02  0.32272310898E+02  0.62194139204E+01  0.37290904337E+02  0.10566000000E+00 0. -1.
         13    1    4    4    0    0 -0.77044997424E+01 -0.13281443189E+02  0.15501034044E+02  0.21818553341E+02  0.10566000000E+00 0. -1.
        -13    1    4    4    0    0 -0.65344159606E+01 -0.12983220482E+02  0.13819255412E+02  0.20056061184E+02  0.10566000000E+00 0.  1.
         14    1    4    4    0    0 -0.33797454840E+01 -0.60076472270E+01  0.78528859591E+01  0.10449034531E+02  0.00000000000E+00 0. -1.
<mgrwt>
<rscale>  0 0.78408235E+02</rscale>
<asrwt>0</asrwt>
<pdfrwt beam="1">  1        1 0.35555357E-02 0.78408235E+02</pdfrwt>
<pdfrwt beam="2">  1       -2 0.10231319E-01 0.78408235E+02</pdfrwt>
<totfact> 0.12215505E+05</totfact>
</mgrwt>
</event>
<event>
 8    1  0.1372337E-024  0.7695901E+02  0.7818608E-02  0.1337910E+00
         -2   -1    0    0    0  501 -0.00000000000E+00  0.00000000000E+00  0.26563360997E+02  0.26563361120E+02  0.25500000000E-02 0.  1.
          1   -1    0    0  501    0  0.00000000000E+00 -0.00000000000E+00 -0.55741143024E+02  0.55741143252E+02  0.50400000000E-02 0. -1.
        -24    2    1    2    0    0 -0.71054273576E-14 -0.35527136788E-14 -0.29177782027E+02  0.82304504372E+02  0.76959005164E+02 0.  0.
         66    2    3    3    0    0  0.26767070969E+02  0.14208712858E+02  0.10716163168E+02  0.32205585855E+02  0.19999994769E+01 0.  0.
         13    1    3    3    0    0 -0.26767070969E+02 -0.14208712858E+02 -0.39893945194E+02  0.50098918517E+02  0.10566000000E+00 0. -1.
         13    1    4    4    0    0  0.65326902223E+01  0.25528093798E+01  0.24240984629E+01  0.74216099778E+01  0.10566000000E+00 0. -1.
        -13    1    4    4    0    0  0.15819557914E+02  0.92949576270E+01  0.65954631307E+01  0.19497844697E+02  0.10566000000E+00 0.  1.
        -14    1    4    4    0    0  0.44148228320E+01  0.23609458513E+01  0.16966015741E+01  0.52861311800E+01  0.00000000000E+00 0.  1.
<mgrwt>
<rscale>  0 0.76959005E+02</rscale>
<asrwt>0</asrwt>
<pdfrwt beam="1">  1        1 0.85755605E-02 0.76959005E+02</pdfrwt>
<pdfrwt beam="2">  1       -2 0.40866710E-02 0.76959005E+02</pdfrwt>
<totfact> 0.14892745E+05</totfact>
</mgrwt>
</event>
<event>
 8    1  0.1372337E-024  0.8144212E+02  0.7818608E-02  0.1325008E+00
          1   -1    0    0  501    0  0.00000000000E+00  0.00000000000E+00  0.46858261599E+02  0.46858261870E+02  0.50400000000E-02 0. -1.
         -2   -1    0    0    0  501 -0.00000000000E+00 -0.00000000000E+00 -0.35387666472E+02  0.35387666564E+02  0.25500000000E-02 0.  1.
        -24    2    1    2    0    0  0.00000000000E+00  0.17763568394E-14  0.11470595127E+02  0.82245928434E+02  0.81442115588E+02 0.  0.
         66    2    3    3    0    0  0.13903943841E+02 -0.81057927369E+01 -0.32008990733E+02  0.35883129976E+02  0.19999997290E+01 0.  0.
         13    1    3    3    0    0 -0.13903943841E+02  0.81057927369E+01  0.43479585860E+02  0.46362798458E+02  0.10566000000E+00 0. -1.
         13    1    4    4    0    0  0.77827561388E+01 -0.42225170810E+01 -0.15664333368E+02  0.17993983648E+02  0.10566000000E+00 0. -1.
        -13    1    4    4    0    0  0.47400953355E+00 -0.17819351987E+00 -0.11654777210E+01  0.12751236498E+01  0.10566000000E+00 0.  1.
        -14    1    4    4    0    0  0.56471781683E+01 -0.37050821360E+01 -0.15179179644E+02  0.16614022679E+02  0.00000000000E+00 0.  1.
<mgrwt>
<rscale>  0 0.81442116E+02</rscale>
<asrwt>0</asrwt>
<pdfrwt beam="1">  1        1 0.72089633E-02 0.81442116E+02</pdfrwt>
<pdfrwt beam="2">  1       -2 0.54442564E-02 0.81442116E+02</pdfrwt>
<totfact> 0.12388658E+05</totfact>
</mgrwt>
</event>
<event>
 8    1  0.1372337E-024  0.7957524E+02  0.7818608E-02  0.1330261E+00
         -2   -1    0    0    0  501 -0.00000000000E+00  0.00000000000E+00  0.10036271465E+02  0.10036271789E+02  0.25500000000E-02 0.  1.
          1   -1    0    0  501    0  0.00000000000E+00 -0.00000000000E+00 -0.15773332761E+03  0.15773332769E+03  0.50400000000E-02 0. -1.
        -24    2    1    2    0    0 -0.35527136788E-14  0.00000000000E+00 -0.14769705615E+03  0.16776959948E+03  0.79575235567E+02 0.  0.
         66    2    3    3    0    0 -0.25596833038E+02 -0.30242095158E+02 -0.80972012370E+02  0.90167893236E+02  0.20000005371E+01 0.  0.
         13    1    3    3    0    0  0.25596833038E+02  0.30242095158E+02 -0.66725043777E+02  0.77601706245E+02  0.10566000000E+00 0. -1.
         13    1    4    4    0    0 -0.36906663932E+01 -0.53465375161E+01 -0.12872169501E+02  0.14419098222E+02  0.10566000000E+00 0. -1.
        -13    1    4    4    0    0 -0.12400794445E+02 -0.14076607932E+02 -0.37644516551E+02  0.42060092536E+02  0.10566000000E+00 0.  1.
         14    1    4    4    0    0 -0.95053722002E+01 -0.10818949710E+02 -0.30455326319E+02  0.33688702478E+02  0.00000000000E+00 0. -1.
<mgrwt>
<rscale>  0 0.79575236E+02</rscale>
<asrwt>0</asrwt>
<pdfrwt beam="1">  1        1 0.24266664E-01 0.79575236E+02</pdfrwt>
<pdfrwt beam="2">  1       -2 0.15440419E-02 0.79575236E+02</pdfrwt>
<totfact> 0.16164290E+05</totfact>
</mgrwt>
</event>
<event>
 8    1  0.1506513E-024  0.8020058E+02  0.7818608E-02  0.1328483E+00
          1   -1    0    0  501    0  0.00000000000E+00  0.00000000000E+00  0.11740741275E+03  0.11740741286E+03  0.50400000000E-02 0. -1.
         -2   -1    0    0    0  501 -0.00000000000E+00 -0.00000000000E+00 -0.13696181083E+02  0.13696181320E+02  0.25500000000E-02 0.  1.
        -24    2    1    2    0    0  0.00000000000E+00 -0.17763568394E-14  0.10371123166E+03  0.13110359418E+03  0.80200578754E+02 0.  0.
         66    2    3    3    0    0 -0.16999294945E+02  0.15678519428E+02 -0.16154224756E+01  0.23268037719E+02  0.19999973528E+01 0.  0.
         13    1    3    3    0    0  0.16999294945E+02 -0.15678519428E+02  0.10532665414E+03  0.10783555646E+03  0.10566000000E+00 0. -1.
         13    1    4    4    0    0 -0.54500748752E+01  0.50693103705E+01  0.33002610350E+00  0.74512619765E+01  0.10566000000E+00 0. -1.
        -13    1    4    4    0    0 -0.71106925430E+01  0.65875102873E+01 -0.88453107655E+00  0.97340022338E+01  0.10566000000E+00 0.  1.
         14    1    4    4    0    0 -0.44385275273E+01  0.40216987697E+01 -0.10609175026E+01  0.60827735082E+01  0.00000000000E+00 0. -1.
<mgrwt>
<rscale>  0 0.80200579E+02</rscale>
<asrwt>0</asrwt>
<pdfrwt beam="1">  1        1 0.18062679E-01 0.80200579E+02</pdfrwt>
<pdfrwt beam="2">  1       -2 0.21071048E-02 0.80200579E+02</pdfrwt>
<totfact> 0.15007179E+05</totfact>
</mgrwt>
</event>
<event>
 8    1  0.1372337E-024  0.8300660E+02  0.7818608E-02  0.1320729E+00
         -2   -1    0    0    0  501 -0.00000000000E+00  0.00000000000E+00  0.14494577296E+03  0.14494577298E+03  0.25500000000E-02 0.  1.
          1   -1    0    0  501    0  0.00000000000E+00 -0.00000000000E+00 -0.11883919019E+02  0.11883920088E+02  0.50400000000E-02 0. -1.
        -24    2    1    2    0    0  0.71054273576E-14  0.00000000000E+00  0.13306185394E+03  0.15682969307E+03  0.83006600065E+02 0.  0.
         66    2    3    3    0    0 -0.38334135244E+02 -0.72463158821E+01  0.93188960772E+02  0.10104552155E+03  0.19999990523E+01 0.  0.
         13    1    3    3    0    0  0.38334135244E+02  0.72463158821E+01  0.39872893164E+02  0.55784171519E+02  0.10566000000E+00 0. -1.
         13    1    4    4    0    0 -0.17909491165E+02 -0.42160266449E+01  0.44567582116E+02  0.48216234758E+02  0.10566000000E+00 0.  1.
        -13    1    4    4    0    0 -0.77718387875E+01 -0.10098730174E+01  0.19275012808E+02  0.20807657351E+02  0.10566000000E+00 0. -1.
        -14    1    4    4    0    0 -0.12652805292E+02 -0.20204162198E+01  0.29346365847E+02  0.32021629438E+02  0.00000000000E+00 0.  1.
<mgrwt>
<rscale>  0 0.83006600E+02</rscale>
<asrwt>0</asrwt>
<pdfrwt beam="1">  1        1 0.18282953E-02 0.83006600E+02</pdfrwt>
<pdfrwt beam="2">  1       -2 0.22299350E-01 0.83006600E+02</pdfrwt>
<totfact> 0.86906380E+04</totfact>
</mgrwt>
</event>
<event>
 8    1  0.1372337E-024  0.8005752E+02  0.7818608E-02  0.1328888E+00
         -2   -1    0    0    0  501 -0.00000000000E+00  0.00000000000E+00  0.27301697057E+02  0.27301697176E+02  0.25500000000E-02 0.  1.
          1   -1    0    0  501    0  0.00000000000E+00 -0.00000000000E+00 -0.58688721473E+02  0.58688721689E+02  0.50400000000E-02 0. -1.
        -24    2    1    2    0    0  0.00000000000E+00  0.17763568394E-14 -0.31387024416E+02  0.85990418865E+02  0.80057522038E+02 0.  0.
         66    2    3    3    0    0  0.27691438823E+02 -0.13664408068E+02  0.11612975074E+02  0.33051369458E+02  0.20000002657E+01 0.  0.
         13    1    3    3    0    0 -0.27691438823E+02  0.13664408068E+02 -0.42999999490E+02  0.52939049407E+02  0.10566000000E+00 0. -1.
         13    1    4    4    0    0  0.62248580073E+01 -0.23520530975E+01  0.22843126544E+01  0.70363527003E+01  0.10566000000E+00 0. -1.
        -13    1    4    4    0    0  0.17367136277E+02 -0.87907516871E+01  0.77181901865E+01  0.20939827160E+02  0.10566000000E+00 0.  1.
         14    1    4    4    0    0  0.40994445384E+01 -0.25216032834E+01  0.16104722333E+01  0.50751895981E+01  0.00000000000E+00 0. -1.
<mgrwt>
<rscale>  0 0.80057522E+02</rscale>
<asrwt>0</asrwt>
<pdfrwt beam="1">  1        1 0.90290341E-02 0.80057522E+02</pdfrwt>
<pdfrwt beam="2">  1       -2 0.42002611E-02 0.80057522E+02</pdfrwt>
<totfact> 0.13464998E+05</totfact>
</mgrwt>
</event>
<event>
 8    1  0.1372337E-024  0.8046232E+02  0.7818608E-02  0.1327745E+00
         -2   -1    0    0    0  501 -0.00000000000E+00  0.00000000000E+00  0.40656372895E+02  0.40656372974E+02  0.25500000000E-02 0.  1.
          1   -1    0    0  501    0  0.00000000000E+00 -0.00000000000E+00 -0.39810390214E+02  0.39810390533E+02  0.50400000000E-02 0. -1.
        -24    2    1    2    0    0  0.00000000000E+00  0.35527136788E-14  0.84598268008E+00  0.80466763508E+02  0.80462316290E+02 0.  0.
         66    2    3    3    0    0  0.95097552048E+01  0.20287800864E+02  0.33809387002E+02  0.40609173309E+02  0.19999998613E+01 0.  0.
         13    1    3    3    0    0 -0.95097552048E+01 -0.20287800864E+02 -0.32963404322E+02  0.39857590199E+02  0.10566000000E+00 0. -1.
         13    1    4    4    0    0  0.45456502870E+01  0.11231885373E+02  0.18809206754E+02  0.22374440961E+02  0.10566000000E+00 0.  1.
        -13    1    4    4    0    0  0.27052807835E+01  0.54487451908E+01  0.81612415813E+01  0.10179606891E+02  0.10566000000E+00 0. -1.
        -14    1    4    4    0    0  0.22588241342E+01  0.36071703010E+01  0.68389386664E+01  0.80551254573E+01  0.00000000000E+00 0.  1.
<mgrwt>
<rscale>  0 0.80462316E+02</rscale>
<asrwt>0</asrwt>
<pdfrwt beam="1">  1        1 0.61246755E-02 0.80462316E+02</pdfrwt>
<pdfrwt beam="2">  1       -2 0.62548266E-02 0.80462316E+02</pdfrwt>
<totfact> 0.12483248E+05</totfact>
</mgrwt>
</event>
<event>
 8    1  0.1372337E-024  0.7898239E+02  0.7818608E-02  0.1331964E+00
          1   -1    0    0  501    0  0.00000000000E+00  0.00000000000E+00  0.75266097667E+01  0.75266114542E+01  0.50400000000E-02 0. -1.
         -2   -1    0    0    0  501 -0.00000000000E+00 -0.00000000000E+00 -0.20720542668E+03  0.20720542670E+03  0.25500000000E-02 0.  1.
        -24    2    1    2    0    0 -0.71054273576E-14  0.00000000000E+00 -0.19967881692E+03  0.21473203815E+03  0.78982392242E+02 0.  0.
         66    2    3    3    0    0  0.36273825557E+02 -0.60585249377E+00 -0.14214365835E+03  0.14671392944E+03  0.20000011237E+01 0.  0.
         13    1    3    3    0    0 -0.36273825557E+02  0.60585249377E+00 -0.57535158567E+02  0.68018108715E+02  0.10566000000E+00 0. -1.
         13    1    4    4    0    0  0.38739650800E+01  0.10235423270E+00 -0.14205004936E+02  0.14724517347E+02  0.10566000000E+00 0. -1.
        -13    1    4    4    0    0  0.97514401276E+01  0.38680569573E+00 -0.40294476586E+02  0.41459573208E+02  0.10566000000E+00 0.  1.
        -14    1    4    4    0    0  0.22648420349E+02 -0.10950124222E+01 -0.87644176829E+02  0.90529838885E+02  0.00000000000E+00 0.  1.
<mgrwt>
<rscale>  0 0.78982392E+02</rscale>
<asrwt>0</asrwt>
<pdfrwt beam="1">  1        1 0.11579403E-02 0.78982392E+02</pdfrwt>
<pdfrwt beam="2">  1       -2 0.31877754E-01 0.78982392E+02</pdfrwt>
<totfact> 0.86662330E+04</totfact>
</mgrwt>
</event>
<event>
 8    1  0.1372337E-024  0.7938413E+02  0.7818608E-02  0.1330808E+00
         -2   -1    0    0    0  501 -0.00000000000E+00  0.00000000000E+00  0.32345580530E+01  0.32345590582E+01  0.25500000000E-02 0.  1.
          1   -1    0    0  501    0  0.00000000000E+00 -0.00000000000E+00 -0.48707112736E+03  0.48707112738E+03  0.50400000000E-02 0. -1.
        -24    2    1    2    0    0  0.00000000000E+00  0.35527136788E-14 -0.48383656931E+03  0.49030568644E+03  0.79384131669E+02 0.  0.
         66    2    3    3    0    0 -0.32405615824E+02 -0.22869950853E+02 -0.24543483327E+03  0.24862706203E+03  0.20000006754E+01 0.  0.
         13    1    3    3    0    0  0.32405615824E+02  0.22869950853E+02 -0.23840173604E+03  0.24167862441E+03  0.10566000000E+00 0. -1.
         13    1    4    4    0    0 -0.29716311953E+01 -0.18013108560E+01 -0.19546709442E+02  0.19853471405E+02  0.10566000000E+00 0. -1.
        -13    1    4    4    0    0 -0.22780414473E+01 -0.17533842008E+01 -0.20064698398E+02  0.20269857296E+02  0.10566000000E+00 0.  1.
        -14    1    4    4    0    0 -0.27155943182E+02 -0.19315255797E+02 -0.20582342543E+03  0.20850373333E+03  0.00000000000E+00 0.  1.
<mgrwt>
<rscale>  0 0.79384132E+02</rscale>
<asrwt>0</asrwt>
<pdfrwt beam="1">  1        1 0.74933962E-01 0.79384132E+02</pdfrwt>
<pdfrwt beam="2">  1       -2 0.49762478E-03 0.79384132E+02</pdfrwt>
<totfact> 0.19946041E+05</totfact>
</mgrwt>
</event>
<event>
 8    1  0.1372337E-024  0.8040798E+02  0.7818608E-02  0.1327898E+00
         -2   -1    0    0    0  501 -0.00000000000E+00  0.00000000000E+00  0.16343581632E+02  0.16343581831E+02  0.25500000000E-02 0.  1.
          1   -1    0    0  501    0  0.00000000000E+00 -0.00000000000E+00 -0.98898811711E+02  0.98898811839E+02  0.50400000000E-02 0. -1.
        -24    2    1    2    0    0 -0.35527136788E-14 -0.17763568394E-14 -0.82555230079E+02  0.11524239367E+03  0.80407980234E+02 0.  0.
         66    2    3    3    0    0  0.25037396075E+02  0.14822402185E+02 -0.15901621621E+01  0.29207934320E+02  0.20000007053E+01 0.  0.
         13    1    3    3    0    0 -0.25037396075E+02 -0.14822402185E+02 -0.80965067917E+02  0.86034459350E+02  0.10566000000E+00 0. -1.
         13    1    4    4    0    0  0.10115752262E+02  0.55072841269E+01 -0.41367464190E+00  0.11525663236E+02  0.10566000000E+00 0.  1.
        -13    1    4    4    0    0  0.85427692894E+01  0.60502292863E+01 -0.96707719367E+00  0.10513352647E+02  0.10566000000E+00 0. -1.
         14    1    4    4    0    0  0.63788745231E+01  0.32648887714E+01 -0.20941032653E+00  0.71689184370E+01  0.00000000000E+00 0. -1.
<mgrwt>
<rscale>  0 0.80407980E+02</rscale>
<asrwt>0</asrwt>
<pdfrwt beam="1">  1        1 0.15215201E-01 0.80407980E+02</pdfrwt>
<pdfrwt beam="2">  1       -2 0.25143973E-02 0.80407980E+02</pdfrwt>
<totfact> 0.14471342E+05</totfact>
</mgrwt>
</event>
<event>
 8    1  0.1372337E-024  0.8157230E+02  0.7818608E-02  0.1324648E+00
         -2   -1    0    0    0  501 -0.00000000000E+00  0.00000000000E+00  0.90262406368E+02  0.90262406404E+02  0.25500000000E-02 0.  1.
          1   -1    0    0  501    0  0.00000000000E+00 -0.00000000000E+00 -0.18429709669E+02  0.18429710358E+02  0.50400000000E-02 0. -1.
        -24    2    1    2    0    0  0.35527136788E-14  0.35527136788E-14  0.71832696699E+02  0.10869211676E+03  0.81572298799E+02 0.  0.
         66    2    3    3    0    0  0.19012412802E+02 -0.29154872638E+02  0.64204533706E+02  0.73059568808E+02  0.20000017349E+01 0.  0.
         13    1    3    3    0    0 -0.19012412802E+02  0.29154872638E+02  0.76281629926E+01  0.35632547955E+02  0.10566000000E+00 0. -1.
         13    1    4    4    0    0  0.47563922094E+00 -0.95447044178E+00  0.14858118843E+01  0.18319518235E+01  0.10566000000E+00 0. -1.
        -13    1    4    4    0    0  0.10444029290E+02 -0.16092754617E+02  0.36579750706E+02  0.41305493881E+02  0.10566000000E+00 0.  1.
         14    1    4    4    0    0  0.80927442903E+01 -0.12107647579E+02  0.26138971116E+02  0.29922123104E+02  0.00000000000E+00 0. -1.
<mgrwt>
<rscale>  0 0.81572299E+02</rscale>
<asrwt>0</asrwt>
<pdfrwt beam="1">  1        1 0.28353399E-02 0.81572299E+02</pdfrwt>
<pdfrwt beam="2">  1       -2 0.13886525E-01 0.81572299E+02</pdfrwt>
<totfact> 0.10349704E+05</totfact>
</mgrwt>
</event>
<event>
 8    1  0.1372337E-024  0.7891921E+02  0.7818608E-02  0.1332147E+00
         -2   -1    0    0    0  501 -0.00000000000E+00  0.00000000000E+00  0.11301132233E+02  0.11301132521E+02  0.25500000000E-02 0.  1.
          1   -1    0    0  501    0  0.00000000000E+00 -0.00000000000E+00 -0.13777915431E+03  0.13777915441E+03  0.50400000000E-02 0. -1.
        -24    2    1    2    0    0  0.00000000000E+00  0.17763568394E-14 -0.12647802208E+03  0.14908028693E+03  0.78919211100E+02 0.  0.
         66    2    3    3    0    0 -0.32990067290E+02  0.14532090869E+02 -0.33082925185E+02  0.48969440895E+02  0.19999994944E+01 0.  0.
         13    1    3    3    0    0  0.32990067290E+02 -0.14532090869E+02 -0.93395096897E+02  0.10011084603E+03  0.10566000000E+00 0. -1.
         13    1    4    4    0    0 -0.57099554762E+01  0.32077031135E+01 -0.61100618731E+01  0.89575091925E+01  0.10566000000E+00 0. -1.
        -13    1    4    4    0    0 -0.25656327891E+02  0.10842885042E+02 -0.25228904790E+02  0.37580900972E+02  0.10566000000E+00 0.  1.
         14    1    4    4    0    0 -0.16237839230E+01  0.48150271361E+00 -0.17439585216E+01  0.24310307314E+01  0.00000000000E+00 0. -1.
<mgrwt>
<rscale>  0 0.78919211E+02</rscale>
<asrwt>0</asrwt>
<pdfrwt beam="1">  1        1 0.21196792E-01 0.78919211E+02</pdfrwt>
<pdfrwt beam="2">  1       -2 0.17386359E-02 0.78919211E+02</pdfrwt>
<totfact> 0.16121064E+05</totfact>
</mgrwt>
</event>
<event>
 8    1  0.1372337E-024  0.8035998E+02  0.7818608E-02  0.1328033E+00
         -2   -1    0    0    0  501 -0.00000000000E+00  0.00000000000E+00  0.19593312884E+03  0.19593312886E+03  0.25500000000E-02 0.  1.
          1   -1    0    0  501    0  0.00000000000E+00 -0.00000000000E+00 -0.82397069602E+01  0.82397085017E+01  0.50400000000E-02 0. -1.
        -24    2    1    2    0    0 -0.17763568394E-14 -0.88817841970E-15  0.18769342188E+03  0.20417283736E+03  0.80359983189E+02 0.  0.
         66    2    3    3    0    0 -0.81717588729E+01 -0.65014856478E+01  0.19241743755E+03  0.19271096811E+03  0.19999996041E+01 0.  0.
         13    1    3    3    0    0  0.81717588729E+01  0.65014856478E+01 -0.47240156652E+01  0.11461869252E+02  0.10566000000E+00 0. -1.
         13    1    4    4    0    0 -0.26914901144E+01 -0.32842891690E+01  0.73513182150E+02  0.73635791490E+02  0.10566000000E+00 0. -1.
        -13    1    4    4    0    0 -0.27541280749E+01 -0.18779208606E+01  0.64647269368E+02  0.64733240371E+02  0.10566000000E+00 0.  1.
         14    1    4    4    0    0 -0.27261406836E+01 -0.13392756183E+01  0.54256986030E+02  0.54341936248E+02  0.00000000000E+00 0. -1.
<mgrwt>
<rscale>  0 0.80359983E+02</rscale>
<asrwt>0</asrwt>
<pdfrwt beam="1">  1        1 0.12676475E-02 0.80359983E+02</pdfrwt>
<pdfrwt beam="2">  1       -2 0.30143554E-01 0.80359983E+02</pdfrwt>
<totfact> 0.84795028E+04</totfact>
</mgrwt>
</event>
<event>
 8    1  0.1372337E-024  0.8009239E+02  0.7818608E-02  0.1328789E+00
          1   -1    0    0  501    0  0.00000000000E+00  0.00000000000E+00  0.57608523984E+02  0.57608524205E+02  0.50400000000E-02 0. -1.
         -2   -1    0    0    0  501 -0.00000000000E+00 -0.00000000000E+00 -0.27837851871E+02  0.27837851987E+02  0.25500000000E-02 0.  1.
        -24    2    1    2    0    0  0.00000000000E+00 -0.35527136788E-14  0.29770672113E+02  0.85446376192E+02  0.80092385944E+02 0.  0.
         66    2    3    3    0    0  0.34156726428E+02  0.19436646141E+02  0.68240171920E+01  0.39937857104E+02  0.20000114798E+01 0.  0.
         13    1    3    3    0    0 -0.34156726428E+02 -0.19436646141E+02  0.22946654921E+02  0.45508519088E+02  0.10566000000E+00 0. -1.
         13    1    4    4    0    0  0.10573217774E+02  0.61259480764E+01  0.27577974356E+01  0.12527441265E+02  0.10566000000E+00 0. -1.
        -13    1    4    4    0    0  0.72134587383E+00  0.42618051312E+00 -0.53329879819E-01  0.84615472057E+00  0.10566000000E+00 0.  1.
        -14    1    4    4    0    0  0.22862162781E+02  0.12884517551E+02  0.41195496362E+01  0.26564261118E+02  0.00000000000E+00 0.  1.
<mgrwt>
<rscale>  0 0.80092386E+02</rscale>
<asrwt>0</asrwt>
<pdfrwt beam="1">  1        1 0.88628497E-02 0.80092386E+02</pdfrwt>
<pdfrwt beam="2">  1       -2 0.42827465E-02 0.80092386E+02</pdfrwt>
<totfact> 0.13409733E+05</totfact>
</mgrwt>
</event>
<event>
 8    1  0.1372337E-024  0.7947375E+02  0.7818608E-02  0.1330552E+00
         -2   -1    0    0    0  501 -0.00000000000E+00  0.00000000000E+00  0.17719914638E+02  0.17719914822E+02  0.25500000000E-02 0.  1.
          1   -1    0    0  501    0  0.00000000000E+00 -0.00000000000E+00 -0.89109872692E+02  0.89109872834E+02  0.50400000000E-02 0. -1.
        -24    2    1    2    0    0  0.00000000000E+00  0.00000000000E+00 -0.71389958054E+02  0.10682978766E+03  0.79473753024E+02 0.  0.
         66    2    3    3    0    0  0.37414293102E+02 -0.70967536993E+01 -0.20579661179E+02  0.43332617059E+02  0.20000013712E+01 0.  0.
         13    1    3    3    0    0 -0.37414293102E+02  0.70967536993E+01 -0.50810296874E+02  0.63497170598E+02  0.10566000000E+00 0. -1.
         13    1    4    4    0    0  0.13696630168E+02 -0.30245991268E+01 -0.72961621989E+01  0.15811104475E+02  0.10566000000E+00 0. -1.
        -13    1    4    4    0    0  0.22672242429E+02 -0.41726619508E+01 -0.12690874308E+02  0.26315606382E+02  0.10566000000E+00 0.  1.
         14    1    4    4    0    0  0.10454205052E+01  0.10050737826E+00 -0.59262467266E+00  0.12059062021E+01  0.00000000000E+00 0. -1.
<mgrwt>
<rscale>  0 0.79473753E+02</rscale>
<asrwt>0</asrwt>
<pdfrwt beam="1">  1        1 0.13709211E-01 0.79473753E+02</pdfrwt>
<pdfrwt beam="2">  1       -2 0.27261408E-02 0.79473753E+02</pdfrwt>
<totfact> 0.14680540E+05</totfact>
</mgrwt>
</event>
<event>
 8    1  0.1372337E-024  0.7991048E+02  0.7818608E-02  0.1329306E+00
         -2   -1    0    0    0  501 -0.00000000000E+00  0.00000000000E+00  0.26317267359E+03  0.26317267360E+03  0.25500000000E-02 0.  1.
          1   -1    0    0  501    0  0.00000000000E+00 -0.00000000000E+00 -0.60660592418E+01  0.60660613356E+01  0.50400000000E-02 0. -1.
        -24    2    1    2    0    0 -0.71054273576E-14  0.00000000000E+00  0.25710661434E+03  0.26923873493E+03  0.79910482725E+02 0.  0.
         66    2    3    3    0    0 -0.38848450346E+02  0.88340940390E+01  0.13765732583E+03  0.14332055911E+03  0.19999994443E+01 0.  0.
         13    1    3    3    0    0  0.38848450346E+02 -0.88340940390E+01  0.11944928851E+03  0.12591817582E+03  0.10566000000E+00 0. -1.
         13    1    4    4    0    0 -0.10971512167E+02  0.22575055834E+01  0.37713540530E+02  0.39341996823E+02  0.10566000000E+00 0. -1.
        -13    1    4    4    0    0 -0.15892973081E+02  0.45110953019E+01  0.56907074260E+02  0.59256753531E+02  0.10566000000E+00 0.  1.
         14    1    4    4    0    0 -0.11983965098E+02  0.20654931537E+01  0.43036711040E+02  0.44721808758E+02  0.00000000000E+00 0. -1.
<mgrwt>
<rscale>  0 0.79910483E+02</rscale>
<asrwt>0</asrwt>
<pdfrwt beam="1">  1        1 0.93324007E-03 0.79910483E+02</pdfrwt>
<pdfrwt beam="2">  1       -2 0.40488103E-01 0.79910483E+02</pdfrwt>
<totfact> 0.75432503E+04</totfact>
</mgrwt>
</event>
<event>
 8    1  0.1372337E-024  0.8064200E+02  0.7818608E-02  0.1327239E+00
          1   -1    0    0  501    0  0.00000000000E+00  0.00000000000E+00  0.52059462254E+02  0.52059462498E+02  0.50400000000E-02 0. -1.
         -2   -1    0    0    0  501 -0.00000000000E+00 -0.00000000000E+00 -0.31229345464E+02  0.31229345568E+02  0.25500000000E-02 0.  1.
        -24    2    1    2    0    0  0.00000000000E+00  0.00000000000E+00  0.20830116791E+02  0.83288808066E+02  0.80641997641E+02 0.  0.
         66    2    3    3    0    0  0.38965579305E+02 -0.99838381589E+01  0.79373909812E+01  0.41048697533E+02  0.19999996443E+01 0.  0.
         13    1    3    3    0    0 -0.38965579305E+02  0.99838381589E+01  0.12892725809E+02  0.42240110533E+02  0.10566000000E+00 0. -1.
         13    1    4    4    0    0  0.16006449890E+02 -0.44413535488E+01  0.25636320997E+01  0.16808195412E+02  0.10566000000E+00 0. -1.
        -13    1    4    4    0    0  0.12979257001E+02 -0.26787659415E+01  0.28771025858E+01  0.13561924001E+02  0.10566000000E+00 0.  1.
         14    1    4    4    0    0  0.99798724139E+01 -0.28637186687E+01  0.24966562958E+01  0.10678578120E+02  0.00000000000E+00 0. -1.
<mgrwt>
<rscale>  0 0.80641998E+02</rscale>
<asrwt>0</asrwt>
<pdfrwt beam="1">  1        1 0.80091480E-02 0.80641998E+02</pdfrwt>
<pdfrwt beam="2">  1       -2 0.48045147E-02 0.80641998E+02</pdfrwt>
<totfact> 0.12950052E+05</totfact>
</mgrwt>
</event>
<event>
 8    1  0.1372337E-024  0.8136875E+02  0.7818608E-02  0.1325211E+00
         -2   -1    0    0    0  501 -0.00000000000E+00  0.00000000000E+00  0.34718312298E+02  0.34718312392E+02  0.25500000000E-02 0.  1.
          1   -1    0    0  501    0  0.00000000000E+00 -0.00000000000E+00 -0.47675660569E+02  0.47675660836E+02  0.50400000000E-02 0. -1.
        -24    2    1    2    0    0 -0.44408920985E-15 -0.71054273576E-14 -0.12957348271E+02  0.82393973227E+02  0.81368752909E+02 0.  0.
         66    2    3    3    0    0  0.34102119977E+01 -0.33325387367E+02  0.16851255169E+02  0.37552307423E+02  0.20000007447E+01 0.  0.
         13    1    3    3    0    0 -0.34102119977E+01  0.33325387367E+02 -0.29808603440E+02  0.44841665805E+02  0.10566000000E+00 0. -1.
         13    1    4    4    0    0  0.70202094304E+00 -0.37524294486E+01  0.18316781347E+01  0.42355364472E+01  0.10566000000E+00 0. -1.
        -13    1    4    4    0    0  0.15775871039E+01 -0.18764823312E+02  0.86780841141E+01  0.20734697561E+02  0.10566000000E+00 0.  1.
        -14    1    4    4    0    0  0.11306039507E+01 -0.10808134606E+02  0.63414929207E+01  0.12582073415E+02  0.00000000000E+00 0.  1.
<mgrwt>
<rscale>  0 0.81368753E+02</rscale>
<asrwt>0</asrwt>
<pdfrwt beam="1">  1        1 0.73347171E-02 0.81368753E+02</pdfrwt>
<pdfrwt beam="2">  1       -2 0.53412788E-02 0.81368753E+02</pdfrwt>
<totfact> 0.12454511E+05</totfact>
</mgrwt>
</event>
<event>
 8    1  0.1372337E-024  0.8243146E+02  0.7818608E-02  0.1322290E+00
         -2   -1    0    0    0  501 -0.00000000000E+00  0.00000000000E+00  0.71391398183E+01  0.71391402737E+01  0.25500000000E-02 0.  1.
          1   -1    0    0  501    0  0.00000000000E+00 -0.00000000000E+00 -0.23794689467E+03  0.23794689472E+03  0.50400000000E-02 0. -1.
        -24    2    1    2    0    0  0.00000000000E+00 -0.17763568394E-14 -0.23080775485E+03  0.24508603499E+03  0.82431455469E+02 0.  0.
         66    2    3    3    0    0  0.33213180416E+02 -0.11871496269E+02 -0.17873070715E+03  0.18218867545E+03  0.20000013497E+01 0.  0.
         13    1    3    3    0    0 -0.33213180416E+02  0.11871496269E+02 -0.52077047694E+02  0.62897359543E+02  0.10566000000E+00 0. -1.
         13    1    4    4    0    0  0.73423998508E+01 -0.33433033386E+01 -0.43287151709E+02  0.44032683088E+02  0.10566000000E+00 0. -1.
        -13    1    4    4    0    0  0.40307459322E+01 -0.13476668860E+01 -0.21400192680E+02  0.21818398878E+02  0.10566000000E+00 0.  1.
         14    1    4    4    0    0  0.21840034633E+02 -0.71805260440E+01 -0.11404336277E+03  0.11633759349E+03  0.00000000000E+00 0. -1.
<mgrwt>
<rscale>  0 0.82431455E+02</rscale>
<asrwt>0</asrwt>
<pdfrwt beam="1">  1        1 0.36607209E-01 0.82431455E+02</pdfrwt>
<pdfrwt beam="2">  1       -2 0.10983294E-02 0.82431455E+02</pdfrwt>
<totfact> 0.15932326E+05</totfact>
</mgrwt>
</event>
<event>
 8    1  0.1372337E-024  0.8231633E+02  0.7818608E-02  0.1322604E+00
          1   -1    0    0  501    0  0.00000000000E+00  0.00000000000E+00  0.22362460179E+03  0.22362460185E+03  0.50400000000E-02 0. -1.
         -2   -1    0    0    0  501 -0.00000000000E+00 -0.00000000000E+00 -0.75751700030E+01  0.75751704322E+01  0.25500000000E-02 0.  1.
        -24    2    1    2    0    0  0.22204460493E-15  0.00000000000E+00  0.21604943179E+03  0.23119977228E+03  0.82316327216E+02 0.  0.
         66    2    3    3    0    0 -0.14729678781E+01  0.37096627415E+02  0.58345417792E+02  0.69184660039E+02  0.20000018699E+01 0.  0.
         13    1    3    3    0    0  0.14729678781E+01 -0.37096627415E+02  0.15770401400E+03  0.16201511224E+03  0.10566000000E+00 0. -1.
         13    1    4    4    0    0 -0.27424478985E+00  0.15590724711E+02  0.22862931109E+02  0.27674368830E+02  0.10566000000E+00 0. -1.
        -13    1    4    4    0    0 -0.44953112620E+00  0.90584526081E+01  0.14615584303E+02  0.17201282232E+02  0.10566000000E+00 0.  1.
         14    1    4    4    0    0 -0.74919196206E+00  0.12447450096E+02  0.20866902381E+02  0.24309008977E+02  0.00000000000E+00 0. -1.
<mgrwt>
<rscale>  0 0.82316327E+02</rscale>
<asrwt>0</asrwt>
<pdfrwt beam="1">  1        1 0.34403785E-01 0.82316327E+02</pdfrwt>
<pdfrwt beam="2">  1       -2 0.11654108E-02 0.82316327E+02</pdfrwt>
<totfact> 0.15797548E+05</totfact>
</mgrwt>
</event>
<event>
 8    1  0.1372337E-024  0.7853680E+02  0.7818608E-02  0.1333256E+00
          1   -1    0    0  501    0  0.00000000000E+00  0.00000000000E+00  0.71099584173E+02  0.71099584351E+02  0.50400000000E-02 0. -1.
         -2   -1    0    0    0  501 -0.00000000000E+00 -0.00000000000E+00 -0.21687993692E+02  0.21687993841E+02  0.25500000000E-02 0.  1.
        -24    2    1    2    0    0  0.00000000000E+00 -0.35527136788E-14  0.49411590481E+02  0.92787578193E+02  0.78536802793E+02 0.  0.
         66    2    3    3    0    0  0.20445797951E+02  0.30421568988E+02  0.81603443361E+01  0.37604437777E+02  0.20000018177E+01 0.  0.
         13    1    3    3    0    0 -0.20445797951E+02 -0.30421568988E+02  0.41251246145E+02  0.55183140416E+02  0.10566000000E+00 0. -1.
         13    1    4    4    0    0  0.42927967234E+01  0.76753114067E+01  0.23041195491E+01  0.90916797035E+01  0.10566000000E+00 0. -1.
        -13    1    4    4    0    0  0.11921550049E+02  0.17120026766E+02  0.45553543417E+01  0.21353713711E+02  0.10566000000E+00 0.  1.
        -14    1    4    4    0    0  0.42314511787E+01  0.56262308159E+01  0.13008704453E+01  0.71590443627E+01  0.00000000000E+00 0.  1.
<mgrwt>
<rscale>  0 0.78536803E+02</rscale>
<asrwt>0</asrwt>
<pdfrwt beam="1">  1        1 0.10938398E-01 0.78536803E+02</pdfrwt>
<pdfrwt beam="2">  1       -2 0.33366144E-02 0.78536803E+02</pdfrwt>
<totfact> 0.14624301E+05</totfact>
</mgrwt>
</event>
<event>
 8    1  0.1372337E-024  0.7920857E+02  0.7818608E-02  0.1331313E+00
         -2   -1    0    0    0  501 -0.00000000000E+00  0.00000000000E+00  0.59213135505E+02  0.59213135560E+02  0.25500000000E-02 0.  1.
          1   -1    0    0  501    0  0.00000000000E+00 -0.00000000000E+00 -0.26489041223E+02  0.26489041702E+02  0.50400000000E-02 0. -1.
        -24    2    1    2    0    0  0.35527136788E-14  0.00000000000E+00  0.32724094282E+02  0.85702177262E+02  0.79208565452E+02 0.  0.
         66    2    3    3    0    0  0.20876113738E+02  0.26781377520E+02  0.38372614323E+02  0.51278765906E+02  0.19999990369E+01 0.  0.
         13    1    3    3    0    0 -0.20876113738E+02 -0.26781377520E+02 -0.56485200414E+01  0.34423411356E+02  0.10566000000E+00 0. -1.
         13    1    4    4    0    0  0.10746718030E+01  0.15542638599E+01  0.15662333857E+01  0.24566047066E+01  0.10566000000E+00 0. -1.
        -13    1    4    4    0    0  0.27731374840E+01  0.36959188855E+01  0.50505941576E+01  0.68461502535E+01  0.10566000000E+00 0.  1.
        -14    1    4    4    0    0  0.17028304451E+02  0.21531194775E+02  0.31755786780E+02  0.41976010946E+02  0.00000000000E+00 0.  1.
<mgrwt>
<rscale>  0 0.79208565E+02</rscale>
<asrwt>0</asrwt>
<pdfrwt beam="1">  1        1 0.40752372E-02 0.79208565E+02</pdfrwt>
<pdfrwt beam="2">  1       -2 0.91097131E-02 0.79208565E+02</pdfrwt>
<totfact> 0.12170113E+05</totfact>
</mgrwt>
</event>
<event>
 8    1  0.1372337E-024  0.7942577E+02  0.7818608E-02  0.1330689E+00
         -2   -1    0    0    0  501 -0.00000000000E+00  0.00000000000E+00  0.22772093894E+03  0.22772093895E+03  0.25500000000E-02 0.  1.
          1   -1    0    0  501    0  0.00000000000E+00 -0.00000000000E+00 -0.69256393540E+01  0.69256411878E+01  0.50400000000E-02 0. -1.
        -24    2    1    2    0    0  0.44408920985E-15  0.00000000000E+00  0.22079529959E+03  0.23464658014E+03  0.79425771970E+02 0.  0.
         66    2    3    3    0    0  0.32976054638E+01 -0.20133553053E+02  0.21103802896E+03  0.21203132745E+03  0.19999981100E+01 0.  0.
         13    1    3    3    0    0 -0.32976054638E+01  0.20133553053E+02  0.97572706292E+01  0.22615252696E+02  0.10566000000E+00 0. -1.
         13    1    4    4    0    0  0.32639307259E+00 -0.13759832331E+01  0.19001439360E+02  0.19054283615E+02  0.10566000000E+00 0. -1.
        -13    1    4    4    0    0  0.20804638034E+01 -0.11582671871E+02  0.12415322432E+03  0.12470974658E+03  0.10566000000E+00 0.  1.
         14    1    4    4    0    0  0.89074858781E+00 -0.71748979486E+01  0.67883365274E+02  0.68267297256E+02  0.00000000000E+00 0. -1.
<mgrwt>
<rscale>  0 0.79425772E+02</rscale>
<asrwt>0</asrwt>
<pdfrwt beam="1">  1        1 0.10654830E-02 0.79425772E+02</pdfrwt>
<pdfrwt beam="2">  1       -2 0.35033994E-01 0.79425772E+02</pdfrwt>
<totfact> 0.82016906E+04</totfact>
</mgrwt>
</event>
<event>
 8    1  0.1372337E-024  0.8076270E+02  0.7818608E-02  0.1326901E+00
         -2   -1    0    0    0  501 -0.00000000000E+00  0.00000000000E+00  0.64615269347E+02  0.64615269398E+02  0.25500000000E-02 0.  1.
          1   -1    0    0  501    0  0.00000000000E+00 -0.00000000000E+00 -0.25236348155E+02  0.25236348658E+02  0.50400000000E-02 0. -1.
        -24    2    1    2    0    0 -0.88817841970E-15  0.71054273576E-14  0.39378921192E+02  0.89851618056E+02  0.80762700754E+02 0.  0.
         66    2    3    3    0    0  0.79753179806E+01 -0.39559549682E+02  0.20025520298E+02  0.45095289362E+02  0.19999978938E+01 0.  0.
         13    1    3    3    0    0 -0.79753179806E+01  0.39559549682E+02  0.19353400895E+02  0.44756328694E+02  0.10566000000E+00 0. -1.
         13    1    4    4    0    0  0.63715491719E+01 -0.34432493804E+02  0.17055478666E+02  0.38949888126E+02  0.10566000000E+00 0.  1.
        -13    1    4    4    0    0  0.32514939831E+00 -0.99890474665E+00  0.66012267959E+00  0.12451742094E+01  0.10566000000E+00 0.  1.
        -14    1    4    4    0    0  0.12786194104E+01 -0.41281511306E+01  0.23099189517E+01  0.49002270271E+01  0.00000000000E+00 0.  1.
<mgrwt>
<rscale>  0 0.80762701E+02</rscale>
<asrwt>0</asrwt>
<pdfrwt beam="1">  1        1 0.38825152E-02 0.80762701E+02</pdfrwt>
<pdfrwt beam="2">  1       -2 0.99408107E-02 0.80762701E+02</pdfrwt>
<totfact> 0.11396232E+05</totfact>
</mgrwt>
</event>
<event>
 8    1  0.1372337E-024  0.7982185E+02  0.7818608E-02  0.1329558E+00
         -2   -1    0    0    0  501 -0.00000000000E+00  0.00000000000E+00  0.17352357214E+03  0.17352357216E+03  0.25500000000E-02 0.  1.
          1   -1    0    0  501    0  0.00000000000E+00 -0.00000000000E+00 -0.91796276355E+01  0.91796290191E+01  0.50400000000E-02 0. -1.
        -24    2    1    2    0    0  0.00000000000E+00  0.00000000000E+00  0.16434394450E+03  0.18270320118E+03  0.79821849298E+02 0.  0.
         66    2    3    3    0    0  0.20711387750E+02 -0.33807588377E+02  0.92190549894E+02  0.10037435974E+03  0.19999973253E+01 0.  0.
         13    1    3    3    0    0 -0.20711387750E+02  0.33807588377E+02  0.72153394609E+02  0.82328841435E+02  0.10566000000E+00 0. -1.
         13    1    4    4    0    0  0.30424813364E+01 -0.40653690205E+01  0.12567189485E+02  0.13554679397E+02  0.10566000000E+00 0. -1.
        -13    1    4    4    0    0  0.13389113897E+02 -0.22995779765E+02  0.62087671444E+02  0.67549717745E+02  0.10566000000E+00 0.  1.
        -14    1    4    4    0    0  0.42797925162E+01 -0.67464395917E+01  0.17535688964E+02  0.19269962600E+02  0.00000000000E+00 0.  1.
<mgrwt>
<rscale>  0 0.79821849E+02</rscale>
<asrwt>0</asrwt>
<pdfrwt beam="1">  1        1 0.14122507E-02 0.79821849E+02</pdfrwt>
<pdfrwt beam="2">  1       -2 0.26695931E-01 0.79821849E+02</pdfrwt>
<totfact> 0.90378121E+04</totfact>
</mgrwt>
</event>
<event>
 8    1  0.1372337E-024  0.7767112E+02  0.7818608E-02  0.1335793E+00
          1   -1    0    0  501    0  0.00000000000E+00  0.00000000000E+00  0.98608186826E+01  0.98608199706E+01  0.50400000000E-02 0. -1.
         -2   -1    0    0    0  501 -0.00000000000E+00 -0.00000000000E+00 -0.15294883303E+03  0.15294883305E+03  0.25500000000E-02 0.  1.
        -24    2    1    2    0    0  0.35527136788E-14 -0.17763568394E-14 -0.14308801435E+03  0.16280965302E+03  0.77671122480E+02 0.  0.
         66    2    3    3    0    0 -0.31604270979E+02  0.15622205324E+02 -0.10560521152E+03  0.11135234144E+03  0.20000002675E+01 0.  0.
         13    1    3    3    0    0  0.31604270979E+02 -0.15622205324E+02 -0.37482802831E+02  0.51457311583E+02  0.10566000000E+00 0. -1.
         13    1    4    4    0    0 -0.52018776920E+01  0.27753253922E+01 -0.16555119727E+02  0.17573989751E+02  0.10566000000E+00 0. -1.
        -13    1    4    4    0    0 -0.16096838626E+02  0.70628648145E+01 -0.52361168062E+02  0.55233100203E+02  0.10566000000E+00 0.  1.
        -14    1    4    4    0    0 -0.10305554662E+02  0.57840151172E+01 -0.36688923731E+02  0.38545251488E+02  0.00000000000E+00 0.  1.
<mgrwt>
<rscale>  0 0.77671122E+02</rscale>
<asrwt>0</asrwt>
<pdfrwt beam="1">  1        1 0.15170492E-02 0.77671122E+02</pdfrwt>
<pdfrwt beam="2">  1       -2 0.23530588E-01 0.77671122E+02</pdfrwt>
<totfact> 0.10131681E+05</totfact>
</mgrwt>
</event>
<event>
 8    1  0.1372337E-024  0.7965197E+02  0.7818608E-02  0.1330042E+00
          1   -1    0    0  501    0  0.00000000000E+00  0.00000000000E+00  0.27905589030E+01  0.27905634544E+01  0.50400000000E-02 0. -1.
         -2   -1    0    0    0  501 -0.00000000000E+00 -0.00000000000E+00 -0.56838352660E+03  0.56838352661E+03  0.25500000000E-02 0.  1.
        -24    2    1    2    0    0  0.44408920985E-15 -0.35527136788E-14 -0.56559296770E+03  0.57117409006E+03  0.79651968260E+02 0.  0.
         66    2    3    3    0    0  0.36186409648E+01 -0.23017345170E+02 -0.51436259840E+03  0.51489394575E+03  0.19999992739E+01 0.  0.
         13    1    3    3    0    0 -0.36186409648E+01  0.23017345170E+02 -0.51230369295E+02  0.56280144308E+02  0.10566000000E+00 0. -1.
         13    1    4    4    0    0  0.25053498375E+01 -0.14254860344E+02 -0.30159514660E+03  0.30194224851E+03  0.10566000000E+00 0.  1.
        -13    1    4    4    0    0  0.29360399361E+00 -0.14923970732E+01 -0.32154681468E+02  0.32190808574E+02  0.10566000000E+00 0. -1.
        -14    1    4    4    0    0  0.81968713364E+00 -0.72700877530E+01 -0.18061277034E+03  0.18076088867E+03  0.00000000000E+00 0.  1.
<mgrwt>
<rscale>  0 0.79651968E+02</rscale>
<asrwt>0</asrwt>
<pdfrwt beam="1">  1        1 0.42931756E-03 0.79651968E+02</pdfrwt>
<pdfrwt beam="2">  1       -2 0.87443527E-01 0.79651968E+02</pdfrwt>
<totfact> 0.46007904E+04</totfact>
</mgrwt>
</event>
<event>
 8    1  0.1615445E-024  0.8031099E+02  0.7818608E-02  0.1328171E+00
         -2   -1    0    0    0  501 -0.00000000000E+00  0.00000000000E+00  0.12981616015E+02  0.12981616266E+02  0.25500000000E-02 0.  1.
          1   -1    0    0  501    0  0.00000000000E+00 -0.00000000000E+00 -0.12421132121E+03  0.12421132131E+03  0.50400000000E-02 0. -1.
        -24    2    1    2    0    0 -0.71054273576E-14  0.00000000000E+00 -0.11122970519E+03  0.13719293758E+03  0.80310988062E+02 0.  0.
         66    2    3    3    0    0 -0.38493831309E+02 -0.23611546097E+01 -0.36695239556E+02  0.53271856603E+02  0.19999999756E+01 0.  0.
         13    1    3    3    0    0  0.38493831309E+02  0.23611546097E+01 -0.74534465639E+02  0.83921080975E+02  0.10566000000E+00 0. -1.
         13    1    4    4    0    0 -0.12817760773E+02 -0.95861017400E+00 -0.11756171779E+02  0.17419318690E+02  0.10566000000E+00 0. -1.
        -13    1    4    4    0    0 -0.23558507317E+02 -0.13446823237E+01 -0.22285709920E+02  0.32457286828E+02  0.10566000000E+00 0.  1.
         14    1    4    4    0    0 -0.21175632192E+01 -0.57862112008E-01 -0.26533578571E+01  0.33952510848E+01  0.00000000000E+00 0. -1.
<mgrwt>
<rscale>  0 0.80310988E+02</rscale>
<asrwt>0</asrwt>
<pdfrwt beam="1">  1        1 0.19109433E-01 0.80310988E+02</pdfrwt>
<pdfrwt beam="2">  1       -2 0.19971718E-02 0.80310988E+02</pdfrwt>
<totfact> 0.15100690E+05</totfact>
</mgrwt>
</event>
<event>
 8    1  0.1372337E-024  0.8011520E+02  0.7818608E-02  0.1328725E+00
         -2   -1    0    0    0  501 -0.00000000000E+00  0.00000000000E+00  0.95436288735E+01  0.95436292141E+01  0.25500000000E-02 0.  1.
          1   -1    0    0  501    0  0.00000000000E+00 -0.00000000000E+00 -0.16813428507E+03  0.16813428514E+03  0.50400000000E-02 0. -1.
        -24    2    1    2    0    0 -0.35527136788E-14  0.00000000000E+00 -0.15859065620E+03  0.17767791436E+03  0.80115198423E+02 0.  0.
         66    2    3    3    0    0  0.18727457720E+02  0.34109563219E+02 -0.58489649914E+02  0.70279578253E+02  0.19999991903E+01 0.  0.
         13    1    3    3    0    0 -0.18727457720E+02 -0.34109563219E+02 -0.10010100628E+03  0.10739833611E+03  0.10566000000E+00 0. -1.
         13    1    4    4    0    0  0.37723397098E+01  0.58338799708E+01 -0.11054179552E+02  0.13056444846E+02  0.10566000000E+00 0. -1.
        -13    1    4    4    0    0  0.57935632183E+01  0.11352480443E+02 -0.18020476958E+02  0.22072447549E+02  0.10566000000E+00 0.  1.
        -14    1    4    4    0    0  0.91615547914E+01  0.16923202805E+02 -0.29414993404E+02  0.35150685858E+02  0.00000000000E+00 0.  1.
<mgrwt>
<rscale>  0 0.80115198E+02</rscale>
<asrwt>0</asrwt>
<pdfrwt beam="1">  1        1 0.25866811E-01 0.80115198E+02</pdfrwt>
<pdfrwt beam="2">  1       -2 0.14682507E-02 0.80115198E+02</pdfrwt>
<totfact> 0.16066481E+05</totfact>
</mgrwt>
</event>
<event>
 8    1  0.1372337E-024  0.7927955E+02  0.7818608E-02  0.1331108E+00
         -2   -1    0    0    0  501 -0.00000000000E+00  0.00000000000E+00  0.59420188577E+02  0.59420188632E+02  0.25500000000E-02 0.  1.
          1   -1    0    0  501    0  0.00000000000E+00 -0.00000000000E+00 -0.26444075085E+02  0.26444075565E+02  0.50400000000E-02 0. -1.
        -24    2    1    2    0    0  0.88817841970E-15  0.00000000000E+00  0.32976113492E+02  0.85864264197E+02  0.79279554773E+02 0.  0.
         66    2    3    3    0    0  0.57404956281E+01  0.36517523412E+02  0.31923021312E+02  0.48883147754E+02  0.20000096133E+01 0.  0.
         13    1    3    3    0    0 -0.57404956281E+01 -0.36517523412E+02  0.10530921802E+01  0.36981116443E+02  0.10566000000E+00 0. -1.
         13    1    4    4    0    0  0.67001444978E-01  0.66049029142E+00  0.50793965642E+00  0.84255762346E+00  0.10566000000E+00 0.  1.
        -13    1    4    4    0    0  0.16356106490E+01  0.14274885807E+02  0.11648185490E+02  0.18496999114E+02  0.10566000000E+00 0.  1.
        -14    1    4    4    0    0  0.40378835341E+01  0.21582147313E+02  0.19766896166E+02  0.29543591016E+02  0.00000000000E+00 0.  1.
<mgrwt>
<rscale>  0 0.79279555E+02</rscale>
<asrwt>0</asrwt>
<pdfrwt beam="1">  1        1 0.40683193E-02 0.79279555E+02</pdfrwt>
<pdfrwt beam="2">  1       -2 0.91415674E-02 0.79279555E+02</pdfrwt>
<totfact> 0.12134751E+05</totfact>
</mgrwt>
</event>
<event>
 8    1  0.1372337E-024  0.8068284E+02  0.7818608E-02  0.1327125E+00
         -2   -1    0    0    0  501 -0.00000000000E+00  0.00000000000E+00  0.10882339823E+02  0.10882340122E+02  0.25500000000E-02 0.  1.
          1   -1    0    0  501    0  0.00000000000E+00 -0.00000000000E+00 -0.14954780919E+03  0.14954780928E+03  0.50400000000E-02 0. -1.
        -24    2    1    2    0    0  0.00000000000E+00 -0.71054273576E-14 -0.13866546937E+03  0.16043014940E+03  0.80682838577E+02 0.  0.
         66    2    3    3    0    0 -0.79609570143E+01 -0.34330731712E+02 -0.30438556364E+02  0.46609888289E+02  0.19999990867E+01 0.  0.
         13    1    3    3    0    0  0.79609570143E+01  0.34330731712E+02 -0.10822691301E+03  0.11382026111E+03  0.10566000000E+00 0. -1.
         13    1    4    4    0    0 -0.48811359043E-01 -0.55506687851E+00 -0.75652624039E+00  0.94550398010E+00  0.10566000000E+00 0. -1.
        -13    1    4    4    0    0 -0.40814020047E+01 -0.15626119409E+02 -0.14039272568E+02  0.21399667950E+02  0.10566000000E+00 0.  1.
         14    1    4    4    0    0 -0.38307436505E+01 -0.18149545425E+02 -0.15642757555E+02  0.24264716359E+02  0.00000000000E+00 0. -1.
<mgrwt>
<rscale>  0 0.80682839E+02</rscale>
<asrwt>0</asrwt>
<pdfrwt beam="1">  1        1 0.23007354E-01 0.80682839E+02</pdfrwt>
<pdfrwt beam="2">  1       -2 0.16742063E-02 0.80682839E+02</pdfrwt>
<totfact> 0.15425126E+05</totfact>
</mgrwt>
</event>
<event>
 8    1  0.1372337E-024  0.7684169E+02  0.7818608E-02  0.1338261E+00
         -2   -1    0    0    0  501 -0.00000000000E+00  0.00000000000E+00  0.10244098153E+02  0.10244098470E+02  0.25500000000E-02 0.  1.
          1   -1    0    0  501    0  0.00000000000E+00 -0.00000000000E+00 -0.14409868911E+03  0.14409868920E+03  0.50400000000E-02 0. -1.
        -24    2    1    2    0    0 -0.17763568394E-14  0.00000000000E+00 -0.13385459096E+03  0.15434278767E+03  0.76841685203E+02 0.  0.
         66    2    3    3    0    0 -0.15750135021E+02 -0.34169486597E+02 -0.51605130314E+02  0.63896087852E+02  0.20000001340E+01 0.  0.
         13    1    3    3    0    0  0.15750135021E+02  0.34169486597E+02 -0.82249460643E+02  0.90446699816E+02  0.10566000000E+00 0. -1.
         13    1    4    4    0    0 -0.53735478761E+01 -0.12287485409E+02 -0.19847727532E+02  0.23954138822E+02  0.10566000000E+00 0. -1.
        -13    1    4    4    0    0 -0.62671691179E+01 -0.13741559829E+02 -0.20050419704E+02  0.25102557033E+02  0.10566000000E+00 0.  1.
         14    1    4    4    0    0 -0.41094180271E+01 -0.81404413597E+01 -0.11706983078E+02  0.14839391997E+02  0.00000000000E+00 0. -1.
<mgrwt>
<rscale>  0 0.76841685E+02</rscale>
<asrwt>0</asrwt>
<pdfrwt beam="1">  1        1 0.22169028E-01 0.76841685E+02</pdfrwt>
<pdfrwt beam="2">  1       -2 0.15760152E-02 0.76841685E+02</pdfrwt>
<totfact> 0.17450700E+05</totfact>
</mgrwt>
</event>
<event>
 8    1  0.1372337E-024  0.8039056E+02  0.7818608E-02  0.1327947E+00
         -2   -1    0    0    0  501 -0.00000000000E+00  0.00000000000E+00  0.30684112392E+03  0.30684112393E+03  0.25500000000E-02 0.  1.
          1   -1    0    0  501    0  0.00000000000E+00 -0.00000000000E+00 -0.52654622118E+01  0.52654646239E+01  0.50400000000E-02 0. -1.
        -24    2    1    2    0    0  0.00000000000E+00  0.00000000000E+00  0.30157566171E+03  0.31210658856E+03  0.80390564648E+02 0.  0.
         66    2    3    3    0    0 -0.36973511459E+02  0.40051822771E+01  0.20983347174E+03  0.21311304019E+03  0.19999999061E+01 0.  0.
         13    1    3    3    0    0  0.36973511459E+02 -0.40051822771E+01  0.91742189967E+02  0.98993548369E+02  0.10566000000E+00 0. -1.
         13    1    4    4    0    0 -0.12619945162E+02  0.13417572733E+01  0.67570695925E+02  0.68752261346E+02  0.10566000000E+00 0. -1.
        -13    1    4    4    0    0 -0.20654357543E+02  0.23361013290E+01  0.12281315290E+03  0.12455979104E+03  0.10566000000E+00 0.  1.
         14    1    4    4    0    0 -0.36992087534E+01  0.32732367478E+00  0.19449622919E+02  0.19800987801E+02  0.00000000000E+00 0. -1.
<mgrwt>
<rscale>  0 0.80390565E+02</rscale>
<asrwt>0</asrwt>
<pdfrwt beam="1">  1        1 0.81007091E-03 0.80390565E+02</pdfrwt>
<pdfrwt beam="2">  1       -2 0.47206349E-01 0.80390565E+02</pdfrwt>
<totfact> 0.68538385E+04</totfact>
</mgrwt>
</event>
<event>
 8    1  0.1372337E-024  0.7946732E+02  0.7818608E-02  0.1330570E+00
          1   -1    0    0  501    0  0.00000000000E+00  0.00000000000E+00  0.41131627097E+02  0.41131627406E+02  0.50400000000E-02 0. -1.
         -2   -1    0    0    0  501 -0.00000000000E+00 -0.00000000000E+00 -0.38383209084E+02  0.38383209169E+02  0.25500000000E-02 0.  1.
        -24    2    1    2    0    0  0.00000000000E+00  0.00000000000E+00  0.27484180132E+01  0.79514836575E+02  0.79467323058E+02 0.  0.
         66    2    3    3    0    0  0.32261995804E+02  0.12771043133E+02 -0.17945092536E+02  0.39114731887E+02  0.19999971195E+01 0.  0.
         13    1    3    3    0    0 -0.32261995804E+02 -0.12771043133E+02  0.20693510549E+02  0.40400104688E+02  0.10566000000E+00 0. -1.
         13    1    4    4    0    0  0.60957091559E+01  0.17212124709E+01 -0.35476379193E+01  0.72606570863E+01  0.10566000000E+00 0. -1.
        -13    1    4    4    0    0  0.25449489677E+02  0.10871796878E+02 -0.13969937563E+02  0.31000690504E+02  0.10566000000E+00 0.  1.
        -14    1    4    4    0    0  0.71679697147E+00  0.17803378432E+00 -0.42751705329E+00  0.85338429651E+00  0.00000000000E+00 0.  1.
<mgrwt>
<rscale>  0 0.79467323E+02</rscale>
<asrwt>0</asrwt>
<pdfrwt beam="1">  1        1 0.63279427E-02 0.79467323E+02</pdfrwt>
<pdfrwt beam="2">  1       -2 0.59051091E-02 0.79467323E+02</pdfrwt>
<totfact> 0.12996784E+05</totfact>
</mgrwt>
</event>
<event>
 8    1  0.1372337E-024  0.8030836E+02  0.7818608E-02  0.1328179E+00
         -2   -1    0    0    0  501 -0.00000000000E+00  0.00000000000E+00  0.90727284289E+01  0.90727287872E+01  0.25500000000E-02 0.  1.
          1   -1    0    0  501    0  0.00000000000E+00 -0.00000000000E+00 -0.17771479142E+03  0.17771479149E+03  0.50400000000E-02 0. -1.
        -24    2    1    2    0    0  0.00000000000E+00  0.71054273576E-14 -0.16864206299E+03  0.18678752028E+03  0.80308357734E+02 0.  0.
         66    2    3    3    0    0  0.10430146215E+01 -0.38832879524E+02 -0.10777951185E+03  0.11458404593E+03  0.19999992747E+01 0.  0.
         13    1    3    3    0    0 -0.10430146215E+01  0.38832879524E+02 -0.60862551145E+02  0.72203474345E+02  0.10566000000E+00 0. -1.
         13    1    4    4    0    0  0.92317629880E+00 -0.34254589011E+02 -0.93773126362E+02  0.99838066460E+02  0.10566000000E+00 0. -1.
        -13    1    4    4    0    0 -0.27818960354E-01 -0.27876247480E+01 -0.77559265807E+01  0.82424017611E+01  0.10566000000E+00 0.  1.
         14    1    4    4    0    0  0.14765728309E+00 -0.17906657643E+01 -0.62504589029E+01  0.65035777115E+01  0.00000000000E+00 0. -1.
<mgrwt>
<rscale>  0 0.80308358E+02</rscale>
<asrwt>0</asrwt>
<pdfrwt beam="1">  1        1 0.27340735E-01 0.80308358E+02</pdfrwt>
<pdfrwt beam="2">  1       -2 0.13958045E-02 0.80308358E+02</pdfrwt>
<totfact> 0.16132409E+05</totfact>
</mgrwt>
</event>
<event>
 8    1  0.1372337E-024  0.8106449E+02  0.7818608E-02  0.1326057E+00
          1   -1    0    0  501    0  0.00000000000E+00  0.00000000000E+00  0.19035517134E+01  0.19035583856E+01  0.50400000000E-02 0. -1.
         -2   -1    0    0    0  501 -0.00000000000E+00 -0.00000000000E+00 -0.86304976832E+03  0.86304976832E+03  0.25500000000E-02 0.  1.
        -24    2    1    2    0    0  0.35527136788E-14  0.00000000000E+00 -0.86114621660E+03  0.86495332671E+03  0.81064486735E+02 0.  0.
         66    2    3    3    0    0  0.25238957341E+02 -0.84568888880E+01 -0.75663197337E+03  0.75710267933E+03  0.19999954482E+01 0.  0.
         13    1    3    3    0    0 -0.25238957341E+02  0.84568888880E+01 -0.10451424323E+03  0.10785064738E+03  0.10566000000E+00 0. -1.
         13    1    4    4    0    0  0.56275830198E+01 -0.11297780203E+01 -0.15381327276E+03  0.15392036944E+03  0.10566000000E+00 0. -1.
        -13    1    4    4    0    0  0.59884140792E+01 -0.20501782716E+01 -0.17967991500E+03  0.17979139955E+03  0.10566000000E+00 0.  1.
        -14    1    4    4    0    0  0.13622960242E+02 -0.52769325961E+01 -0.42313878561E+03  0.42339091033E+03  0.00000000000E+00 0.  1.
<mgrwt>
<rscale>  0 0.81064487E+02</rscale>
<asrwt>0</asrwt>
<pdfrwt beam="1">  1        1 0.29285531E-03 0.81064487E+02</pdfrwt>
<pdfrwt beam="2">  1       -2 0.13277657E+00 0.81064487E+02</pdfrwt>
<totfact> 0.29683374E+04</totfact>
</mgrwt>
</event>
<event>
 8    1  0.1372337E-024  0.7900392E+02  0.7818608E-02  0.1331902E+00
         -2   -1    0    0    0  501 -0.00000000000E+00  0.00000000000E+00  0.67512947582E+01  0.67512952398E+01  0.25500000000E-02 0.  1.
          1   -1    0    0  501    0  0.00000000000E+00 -0.00000000000E+00 -0.23112675118E+03  0.23112675124E+03  0.50400000000E-02 0. -1.
        -24    2    1    2    0    0  0.00000000000E+00  0.00000000000E+00 -0.22437545642E+03  0.23787804648E+03  0.79003921107E+02 0.  0.
         66    2    3    3    0    0 -0.16915375905E+02  0.29886135887E+02 -0.53635317049E+02  0.63718586734E+02  0.20000000389E+01 0.  0.
         13    1    3    3    0    0  0.16915375905E+02 -0.29886135887E+02 -0.17074013938E+03  0.17415945974E+03  0.10566000000E+00 0. -1.
         13    1    4    4    0    0 -0.10435928352E+02  0.16513815379E+02 -0.30329255671E+02  0.36076164050E+02  0.10566000000E+00 0. -1.
        -13    1    4    4    0    0 -0.50162883686E+01  0.10062203511E+02 -0.17761497985E+02  0.21021252655E+02  0.10566000000E+00 0.  1.
         14    1    4    4    0    0 -0.14631591838E+01  0.33101169978E+01 -0.55445633930E+01  0.66211700292E+01  0.00000000000E+00 0. -1.
<mgrwt>
<rscale>  0 0.79003921E+02</rscale>
<asrwt>0</asrwt>
<pdfrwt beam="1">  1        1 0.35557956E-01 0.79003921E+02</pdfrwt>
<pdfrwt beam="2">  1       -2 0.10386609E-02 0.79003921E+02</pdfrwt>
<totfact> 0.17728774E+05</totfact>
</mgrwt>
</event>
<event>
 8    1  0.1372337E-024  0.8033280E+02  0.7818608E-02  0.1328110E+00
          1   -1    0    0  501    0  0.00000000000E+00  0.00000000000E+00  0.73960292421E+02  0.73960292593E+02  0.50400000000E-02 0. -1.
         -2   -1    0    0    0  501 -0.00000000000E+00 -0.00000000000E+00 -0.21813594637E+02  0.21813594786E+02  0.25500000000E-02 0.  1.
        -24    2    1    2    0    0 -0.35527136788E-14 -0.71054273576E-14  0.52146697784E+02  0.95773887379E+02  0.80332804096E+02 0.  0.
         66    2    3    3    0    0 -0.16041965010E+02 -0.35735092432E+02  0.15628277987E+02  0.42220665058E+02  0.20000031535E+01 0.  0.
         13    1    3    3    0    0  0.16041965010E+02  0.35735092432E+02  0.36518419798E+02  0.53553222322E+02  0.10566000000E+00 0. -1.
         13    1    4    4    0    0 -0.81318953945E+01 -0.16656635985E+02  0.77566297887E+01  0.20093474432E+02  0.10566000000E+00 0.  1.
        -13    1    4    4    0    0 -0.39873823239E+01 -0.10858948371E+02  0.46134872111E+01  0.12454372959E+02  0.10566000000E+00 0. -1.
        -14    1    4    4    0    0 -0.39226872915E+01 -0.82195080764E+01  0.32581609871E+01  0.96728176672E+01  0.00000000000E+00 0.  1.
<mgrwt>
<rscale>  0 0.80332804E+02</rscale>
<asrwt>0</asrwt>
<pdfrwt beam="1">  1        1 0.11378507E-01 0.80332804E+02</pdfrwt>
<pdfrwt beam="2">  1       -2 0.33559376E-02 0.80332804E+02</pdfrwt>
<totfact> 0.13834501E+05</totfact>
</mgrwt>
</event>
<event>
 8    1  0.1372337E-024  0.7899264E+02  0.7818608E-02  0.1331935E+00
          1   -1    0    0  501    0  0.00000000000E+00  0.00000000000E+00  0.21542792280E+03  0.21542792286E+03  0.50400000000E-02 0. -1.
         -2   -1    0    0    0  501 -0.00000000000E+00 -0.00000000000E+00 -0.72412123121E+01  0.72412127611E+01  0.25500000000E-02 0.  1.
        -24    2    1    2    0    0  0.00000000000E+00  0.35527136788E-14  0.20818671049E+03  0.22266913562E+03  0.78992642278E+02 0.  0.
         66    2    3    3    0    0  0.36037444785E+02  0.12122856564E+02  0.13403094235E+03  0.13933396784E+03  0.20000017423E+01 0.  0.
         13    1    3    3    0    0 -0.36037444785E+02 -0.12122856564E+02  0.74155768138E+02  0.83335167787E+02  0.10566000000E+00 0. -1.
         13    1    4    4    0    0  0.75471832604E+01  0.24552935150E+01  0.27395364657E+02  0.28522019742E+02  0.10566000000E+00 0. -1.
        -13    1    4    4    0    0  0.26416123614E+02  0.88640228308E+01  0.96981284431E+02  0.10090472329E+03  0.10566000000E+00 0.  1.
         14    1    4    4    0    0  0.20741379107E+01  0.80354021836E+00  0.96542932649E+01  0.99072248082E+01  0.00000000000E+00 0. -1.
<mgrwt>
<rscale>  0 0.78992642E+02</rscale>
<asrwt>0</asrwt>
<pdfrwt beam="1">  1        1 0.33142755E-01 0.78992642E+02</pdfrwt>
<pdfrwt beam="2">  1       -2 0.11140328E-02 0.78992642E+02</pdfrwt>
<totfact> 0.17494372E+05</totfact>
</mgrwt>
</event>
<event>
 8    1  0.1372337E-024  0.8576447E+02  0.7818608E-02  0.1313445E+00
          1   -1    0    0  501    0  0.00000000000E+00  0.00000000000E+00  0.58476845792E+02  0.58476846009E+02  0.50400000000E-02 0. -1.
         -2   -1    0    0    0  501 -0.00000000000E+00 -0.00000000000E+00 -0.31446393865E+02  0.31446393968E+02  0.25500000000E-02 0.  1.
        -24    2    1    2    0    0  0.17763568394E-14  0.00000000000E+00  0.27030451927E+02  0.89923239978E+02  0.85764466749E+02 0.  0.
         66    2    3    3    0    0 -0.13491605459E+02 -0.29893117907E+02 -0.15406268250E+02  0.36290150383E+02  0.19999993398E+01 0.  0.
         13    1    3    3    0    0  0.13491605459E+02  0.29893117907E+02  0.42436720178E+02  0.53633089595E+02  0.10566000000E+00 0. -1.
         13    1    4    4    0    0 -0.62869060497E+01 -0.16002594090E+02 -0.81029926412E+01  0.19007310674E+02  0.10566000000E+00 0. -1.
        -13    1    4    4    0    0 -0.44685390534E+01 -0.91218442427E+01 -0.49999819712E+01  0.11321963938E+02  0.10566000000E+00 0.  1.
        -14    1    4    4    0    0 -0.27361603558E+01 -0.47686795737E+01 -0.23032936379E+01  0.59608757705E+01  0.00000000000E+00 0.  1.
<mgrwt>
<rscale>  0 0.85764467E+02</rscale>
<asrwt>0</asrwt>
<pdfrwt beam="1">  1        1 0.89964379E-02 0.85764467E+02</pdfrwt>
<pdfrwt beam="2">  1       -2 0.48379067E-02 0.85764467E+02</pdfrwt>
<totfact> 0.11115848E+05</totfact>
</mgrwt>
</event>
<event>
 8    1  0.1372337E-024  0.7682167E+02  0.7818608E-02  0.1338321E+00
         -2   -1    0    0    0  501 -0.00000000000E+00  0.00000000000E+00  0.29203559865E+02  0.29203559976E+02  0.25500000000E-02 0.  1.
          1   -1    0    0  501    0  0.00000000000E+00 -0.00000000000E+00 -0.50520975512E+02  0.50520975763E+02  0.50400000000E-02 0. -1.
        -24    2    1    2    0    0  0.00000000000E+00  0.00000000000E+00 -0.21317415647E+02  0.79724535739E+02  0.76821672651E+02 0.  0.
         66    2    3    3    0    0  0.89426042320E+01 -0.21618069900E+02  0.20915506293E+02  0.31444705828E+02  0.20000011179E+01 0.  0.
         13    1    3    3    0    0 -0.89426042320E+01  0.21618069900E+02 -0.42232921940E+02  0.48279829911E+02  0.10566000000E+00 0. -1.
         13    1    4    4    0    0  0.69105121576E+01 -0.17284755413E+02  0.15675430658E+02  0.24336150852E+02  0.10566000000E+00 0. -1.
        -13    1    4    4    0    0  0.66735362654E+00 -0.10712690763E+01  0.14424682058E+01  0.19195980978E+01  0.10566000000E+00 0.  1.
         14    1    4    4    0    0  0.13647384479E+01 -0.32620454101E+01  0.37976074294E+01  0.51889568775E+01  0.00000000000E+00 0. -1.
<mgrwt>
<rscale>  0 0.76821673E+02</rscale>
<asrwt>0</asrwt>
<pdfrwt beam="1">  1        1 0.77724578E-02 0.76821673E+02</pdfrwt>
<pdfrwt beam="2">  1       -2 0.44928554E-02 0.76821673E+02</pdfrwt>
<totfact> 0.14745115E+05</totfact>
</mgrwt>
</event>
<event>
 8    1  0.1372337E-024  0.8935962E+02  0.7818608E-02  0.1304410E+00
         -2   -1    0    0    0  501 -0.00000000000E+00  0.00000000000E+00  0.32085680916E+02  0.32085681017E+02  0.25500000000E-02 0.  1.
          1   -1    0    0  501    0  0.00000000000E+00 -0.00000000000E+00 -0.62217331576E+02  0.62217331780E+02  0.50400000000E-02 0. -1.
        -24    2    1    2    0    0  0.00000000000E+00  0.44408920985E-15 -0.30131650660E+02  0.94303012797E+02  0.89359620921E+02 0.  0.
         66    2    3    3    0    0 -0.26957371740E+02  0.32492381903E+01  0.22342518885E+02  0.35219960460E+02  0.20000061938E+01 0.  0.
         13    1    3    3    0    0  0.26957371740E+02 -0.32492381903E+01 -0.52474169545E+02  0.59083052337E+02  0.10566000000E+00 0. -1.
         13    1    4    4    0    0 -0.17535786414E+01  0.34912307408E+00  0.18503524252E+01  0.25752462223E+01  0.10566000000E+00 0. -1.
        -13    1    4    4    0    0 -0.10622053333E+02  0.18563903459E+01  0.91287487449E+01  0.14128673675E+02  0.10566000000E+00 0.  1.
        -14    1    4    4    0    0 -0.14581739765E+02  0.10437247703E+01  0.11363417715E+02  0.18516040563E+02  0.00000000000E+00 0.  1.
<mgrwt>
<rscale>  0 0.89359621E+02</rscale>
<asrwt>0</asrwt>
<pdfrwt beam="1">  1        1 0.95718972E-02 0.89359621E+02</pdfrwt>
<pdfrwt beam="2">  1       -2 0.49362586E-02 0.89359621E+02</pdfrwt>
<totfact> 0.10014046E+05</totfact>
</mgrwt>
</event>
<event>
 8    1  0.1372337E-024  0.8086296E+02  0.7818608E-02  0.1326620E+00
         -2   -1    0    0    0  501 -0.00000000000E+00  0.00000000000E+00  0.18602897511E+02  0.18602897686E+02  0.25500000000E-02 0.  1.
          1   -1    0    0  501    0  0.00000000000E+00 -0.00000000000E+00 -0.87873657817E+02  0.87873657962E+02  0.50400000000E-02 0. -1.
        -24    2    1    2    0    0  0.35527136788E-14 -0.35527136788E-14 -0.69270760306E+02  0.10647655565E+03  0.80862962283E+02 0.  0.
         66    2    3    3    0    0  0.25379871947E+02 -0.29852158945E+02 -0.21660589386E+02  0.44815961806E+02  0.20000015868E+01 0.  0.
         13    1    3    3    0    0 -0.25379871947E+02  0.29852158945E+02 -0.47610170921E+02  0.61660593841E+02  0.10566000000E+00 0. -1.
         13    1    4    4    0    0  0.70994605155E+01 -0.80239822512E+01 -0.50818056454E+01  0.11858437647E+02  0.10566000000E+00 0. -1.
        -13    1    4    4    0    0  0.17044839691E+02 -0.20365231467E+02 -0.15217261125E+02  0.30607930557E+02  0.10566000000E+00 0.  1.
        -14    1    4    4    0    0  0.12355717405E+01 -0.14629452264E+01 -0.13615226153E+01  0.23495936017E+01  0.00000000000E+00 0.  1.
<mgrwt>
<rscale>  0 0.80862962E+02</rscale>
<asrwt>0</asrwt>
<pdfrwt beam="1">  1        1 0.13519024E-01 0.80862962E+02</pdfrwt>
<pdfrwt beam="2">  1       -2 0.28619843E-02 0.80862962E+02</pdfrwt>
<totfact> 0.13973892E+05</totfact>
</mgrwt>
</event>
<event>
 8    1  0.1372337E-024  0.7894549E+02  0.7818608E-02  0.1332071E+00
          1   -1    0    0  501    0  0.00000000000E+00  0.00000000000E+00  0.24106456176E+02  0.24106456703E+02  0.50400000000E-02 0. -1.
         -2   -1    0    0    0  501 -0.00000000000E+00 -0.00000000000E+00 -0.64634039849E+02  0.64634039899E+02  0.25500000000E-02 0.  1.
        -24    2    1    2    0    0 -0.17763568394E-14 -0.64184768611E-16 -0.40527583673E+02  0.88740496602E+02  0.78945491947E+02 0.  0.
         66    2    3    3    0    0 -0.15886198872E+02  0.99529652613E-02 -0.60863756417E+02  0.62934634873E+02  0.20000019478E+01 0.  0.
         13    1    3    3    0    0  0.15886198872E+02 -0.99529652613E-02  0.20336172744E+02  0.25805861729E+02  0.10566000000E+00 0. -1.
         13    1    4    4    0    0 -0.35052944029E+01 -0.73213601497E+00 -0.13291606688E+02  0.13765939285E+02  0.10566000000E+00 0. -1.
        -13    1    4    4    0    0 -0.25246667761E+01 -0.10380911859E+00 -0.90665329331E+01  0.94126458622E+01  0.10566000000E+00 0. -1.
        -14    1    4    4    0    0 -0.98562376933E+01  0.84589809882E+00 -0.38505616796E+02  0.39756049727E+02  0.00000000000E+00 0.  1.
<mgrwt>
<rscale>  0 0.78945492E+02</rscale>
<asrwt>0</asrwt>
<pdfrwt beam="1">  1        1 0.37086857E-02 0.78945492E+02</pdfrwt>
<pdfrwt beam="2">  1       -2 0.99436984E-02 0.78945492E+02</pdfrwt>
<totfact> 0.12072221E+05</totfact>
</mgrwt>
</event>
<event>
 8    1  0.1372337E-024  0.8108268E+02  0.7818608E-02  0.1326007E+00
          1   -1    0    0  501    0  0.00000000000E+00  0.00000000000E+00  0.25155225375E+02  0.25155225880E+02  0.50400000000E-02 0. -1.
         -2   -1    0    0    0  501 -0.00000000000E+00 -0.00000000000E+00 -0.65338324051E+02  0.65338324101E+02  0.25500000000E-02 0.  1.
        -24    2    1    2    0    0  0.00000000000E+00  0.00000000000E+00 -0.40183098676E+02  0.90493549981E+02  0.81082681067E+02 0.  0.
         66    2    3    3    0    0 -0.37897806751E+02  0.45088207337E+01 -0.49227067950E+01  0.38533184119E+02  0.20000037908E+01 0.  0.
         13    1    3    3    0    0  0.37897806751E+02 -0.45088207337E+01 -0.35260391881E+02  0.51960365863E+02  0.10566000000E+00 0. -1.
         13    1    4    4    0    0 -0.15479677713E+02  0.21561898569E+01 -0.13138436210E+01  0.15684607930E+02  0.10566000000E+00 0. -1.
        -13    1    4    4    0    0 -0.98502538189E+01  0.12256233912E+01 -0.11530770597E+01  0.99935180860E+01  0.10566000000E+00 0.  1.
         14    1    4    4    0    0 -0.12567875219E+02  0.11270074856E+01 -0.24557861143E+01  0.12855058103E+02  0.00000000000E+00 0. -1.
<mgrwt>
<rscale>  0 0.81082681E+02</rscale>
<asrwt>0</asrwt>
<pdfrwt beam="1">  1        1 0.38700348E-02 0.81082681E+02</pdfrwt>
<pdfrwt beam="2">  1       -2 0.10052050E-01 0.81082681E+02</pdfrwt>
<totfact> 0.11258168E+05</totfact>
</mgrwt>
</event>
<event>
 8    1  0.1372337E-024  0.8260795E+02  0.7818608E-02  0.1321809E+00
         -2   -1    0    0    0  501 -0.00000000000E+00  0.00000000000E+00  0.25776405786E+03  0.25776405787E+03  0.25500000000E-02 0.  1.
          1   -1    0    0  501    0  0.00000000000E+00 -0.00000000000E+00 -0.66185251241E+01  0.66185270431E+01  0.50400000000E-02 0. -1.
        -24    2    1    2    0    0  0.00000000000E+00  0.00000000000E+00  0.25114553274E+03  0.26438258492E+03  0.82607945100E+02 0.  0.
         66    2    3    3    0    0 -0.66713652965E+01  0.33518960720E+02  0.19974092193E+03  0.20265355594E+03  0.19999993351E+01 0.  0.
         13    1    3    3    0    0  0.66713652965E+01 -0.33518960720E+02  0.51404610807E+02  0.61729028981E+02  0.10566000000E+00 0. -1.
         13    1    4    4    0    0 -0.92179664766E+00  0.81590068947E+01  0.45655741053E+02  0.46388327818E+02  0.10566000000E+00 0. -1.
        -13    1    4    4    0    0 -0.36769029908E+01  0.16469151348E+02  0.98250925391E+02  0.99689558460E+02  0.10566000000E+00 0.  1.
        -14    1    4    4    0    0 -0.20726656581E+01  0.88908024778E+01  0.55834255487E+02  0.56575669659E+02  0.00000000000E+00 0.  1.
<mgrwt>
<rscale>  0 0.82607945E+02</rscale>
<asrwt>0</asrwt>
<pdfrwt beam="1">  1        1 0.10182348E-02 0.82607945E+02</pdfrwt>
<pdfrwt beam="2">  1       -2 0.39656010E-01 0.82607945E+02</pdfrwt>
<totfact> 0.69938129E+04</totfact>
</mgrwt>
</event>
<event>
 8    1  0.1372337E-024  0.7515394E+02  0.7818608E-02  0.1343395E+00
         -2   -1    0    0    0  501 -0.00000000000E+00  0.00000000000E+00  0.11041145791E+02  0.11041146086E+02  0.25500000000E-02 0.  1.
          1   -1    0    0  501    0  0.00000000000E+00 -0.00000000000E+00 -0.12788787520E+03  0.12788787530E+03  0.50400000000E-02 0. -1.
        -24    2    1    2    0    0  0.00000000000E+00  0.00000000000E+00 -0.11684672941E+03  0.13892902138E+03  0.75153940744E+02 0.  0.
         66    2    3    3    0    0  0.32766387507E+02 -0.90399867898E+01 -0.28964287330E+02  0.44702208315E+02  0.19999940711E+01 0.  0.
         13    1    3    3    0    0 -0.32766387507E+02  0.90399867898E+01 -0.87882442077E+02  0.94226813068E+02  0.10566000000E+00 0. -1.
         13    1    4    4    0    0  0.65424105303E+01 -0.13136666802E+01 -0.62502745123E+01  0.91436289956E+01  0.10566000000E+00 0. -1.
        -13    1    4    4    0    0  0.21430104558E+02 -0.67126761174E+01 -0.18500872619E+02  0.29096440568E+02  0.10566000000E+00 0.  1.
        -14    1    4    4    0    0  0.47938724193E+01 -0.10136439922E+01 -0.42131401981E+01  0.64621387515E+01  0.00000000000E+00 0.  1.
<mgrwt>
<rscale>  0 0.75153941E+02</rscale>
<asrwt>0</asrwt>
<pdfrwt beam="1">  1        1 0.19675057E-01 0.75153941E+02</pdfrwt>
<pdfrwt beam="2">  1       -2 0.16986379E-02 0.75153941E+02</pdfrwt>
<totfact> 0.18125768E+05</totfact>
</mgrwt>
</event>
<event>
 8    1  0.1372337E-024  0.8039028E+02  0.7818608E-02  0.1327948E+00
         -2   -1    0    0    0  501 -0.00000000000E+00  0.00000000000E+00  0.44007117617E+02  0.44007117691E+02  0.25500000000E-02 0.  1.
          1   -1    0    0  501    0  0.00000000000E+00 -0.00000000000E+00 -0.36713358822E+02  0.36713359168E+02  0.50400000000E-02 0. -1.
        -24    2    1    2    0    0  0.00000000000E+00 -0.35527136788E-14  0.72937587949E+01  0.80720476860E+02  0.80390275949E+02 0.  0.
         66    2    3    3    0    0  0.16788504766E+02 -0.24641381328E+02  0.30677953816E+02  0.42827425955E+02  0.19999994049E+01 0.  0.
         13    1    3    3    0    0 -0.16788504766E+02  0.24641381328E+02 -0.23384195021E+02  0.37893050904E+02  0.10566000000E+00 0. -1.
         13    1    4    4    0    0  0.25624536046E+01 -0.29601959872E+01  0.47199269967E+01  0.61333354423E+01  0.10566000000E+00 0. -1.
        -13    1    4    4    0    0  0.81032432456E+01 -0.12273624652E+02  0.14445008221E+02  0.20614893638E+02  0.10566000000E+00 0.  1.
         14    1    4    4    0    0  0.61228079162E+01 -0.94075606888E+01  0.11513018599E+02  0.16079196875E+02  0.00000000000E+00 0. -1.
<mgrwt>
<rscale>  0 0.80390276E+02</rscale>
<asrwt>0</asrwt>
<pdfrwt beam="1">  1        1 0.56482091E-02 0.80390276E+02</pdfrwt>
<pdfrwt beam="2">  1       -2 0.67703258E-02 0.80390276E+02</pdfrwt>
<totfact> 0.12348528E+05</totfact>
</mgrwt>
</event>
<event>
 8    1  0.1372337E-024  0.8177391E+02  0.7818608E-02  0.1324091E+00
         -2   -1    0    0    0  501 -0.00000000000E+00  0.00000000000E+00  0.71456783207E+01  0.71456787757E+01  0.25500000000E-02 0.  1.
          1   -1    0    0  501    0  0.00000000000E+00 -0.00000000000E+00 -0.23395162814E+03  0.23395162820E+03  0.50400000000E-02 0. -1.
        -24    2    1    2    0    0  0.71054273576E-14  0.00000000000E+00 -0.22680594982E+03  0.24109730697E+03  0.81773911212E+02 0.  0.
         66    2    3    3    0    0  0.28034379121E+02  0.29628859168E+02 -0.10628341557E+03  0.11385938757E+03  0.20000008625E+01 0.  0.
         13    1    3    3    0    0 -0.28034379121E+02 -0.29628859168E+02 -0.12052253425E+03  0.12723791940E+03  0.10566000000E+00 0. -1.
         13    1    4    4    0    0  0.10071878266E+02  0.11327210972E+02 -0.38033758029E+02  0.40942964647E+02  0.10566000000E+00 0. -1.
        -13    1    4    4    0    0  0.12929709562E+02  0.12971438641E+02 -0.47387149875E+02  0.50803432435E+02  0.10566000000E+00 0.  1.
         14    1    4    4    0    0  0.50327912927E+01  0.53302095547E+01 -0.20862507670E+02  0.22112990489E+02  0.00000000000E+00 0. -1.
<mgrwt>
<rscale>  0 0.81773911E+02</rscale>
<asrwt>0</asrwt>
<pdfrwt beam="1">  1        1 0.35992552E-01 0.81773911E+02</pdfrwt>
<pdfrwt beam="2">  1       -2 0.10993353E-02 0.81773911E+02</pdfrwt>
<totfact> 0.16220593E+05</totfact>
</mgrwt>
</event>
<event>
 8    1  0.1372337E-024  0.8025268E+02  0.7818608E-02  0.1328336E+00
          1   -1    0    0  501    0  0.00000000000E+00  0.00000000000E+00  0.69369862860E+01  0.69369881169E+01  0.50400000000E-02 0. -1.
         -2   -1    0    0    0  501 -0.00000000000E+00 -0.00000000000E+00 -0.23210699970E+03  0.23210699972E+03  0.25500000000E-02 0.  1.
        -24    2    1    2    0    0  0.00000000000E+00  0.00000000000E+00 -0.22517001342E+03  0.23904398783E+03  0.80252683303E+02 0.  0.
         66    2    3    3    0    0 -0.33750039826E+02  0.21637155794E+02 -0.11545945858E+03  0.12223795757E+03  0.19999990846E+01 0.  0.
         13    1    3    3    0    0  0.33750039826E+02 -0.21637155794E+02 -0.10971055484E+03  0.11680603026E+03  0.10566000000E+00 0. -1.
         13    1    4    4    0    0 -0.18012878729E+02  0.10816915265E+02 -0.62511356316E+02  0.65948087830E+02  0.10566000000E+00 0. -1.
        -13    1    4    4    0    0 -0.33435511774E+01  0.24981863597E+01 -0.11185295076E+02  0.11939106312E+02  0.10566000000E+00 0.  1.
         14    1    4    4    0    0 -0.12393609919E+02  0.83220541697E+01 -0.41762807188E+02  0.44350763428E+02  0.00000000000E+00 0. -1.
<mgrwt>
<rscale>  0 0.80252683E+02</rscale>
<asrwt>0</asrwt>
<pdfrwt beam="1">  1        1 0.10672290E-02 0.80252683E+02</pdfrwt>
<pdfrwt beam="2">  1       -2 0.35708763E-01 0.80252683E+02</pdfrwt>
<totfact> 0.79172611E+04</totfact>
</mgrwt>
</event>
<event>
 8    1  0.1372337E-024  0.8118248E+02  0.7818608E-02  0.1325729E+00
         -2   -1    0    0    0  501 -0.00000000000E+00  0.00000000000E+00  0.20763178269E+02  0.20763178426E+02  0.25500000000E-02 0.  1.
          1   -1    0    0  501    0  0.00000000000E+00 -0.00000000000E+00 -0.79354360894E+02  0.79354361055E+02  0.50400000000E-02 0. -1.
        -24    2    1    2    0    0  0.71054273576E-14 -0.17763568394E-14 -0.58591182625E+02  0.10011753948E+03  0.81182479822E+02 0.  0.
         66    2    3    3    0    0  0.34787348359E+02 -0.72171074001E+01 -0.51658031861E+01  0.35957360417E+02  0.20000001362E+01 0.  0.
         13    1    3    3    0    0 -0.34787348359E+02  0.72171074001E+01 -0.53425379439E+02  0.64160179063E+02  0.10566000000E+00 0. -1.
         13    1    4    4    0    0  0.16621457472E+02 -0.30572733844E+01 -0.28115026026E+01  0.17132877165E+02  0.10566000000E+00 0. -1.
        -13    1    4    4    0    0  0.14033391839E+02 -0.37273296384E+01 -0.19218112985E+01  0.14646965401E+02  0.10566000000E+00 0.  1.
        -14    1    4    4    0    0  0.41324990479E+01 -0.43250437725E+00 -0.43248928511E+00  0.41775178514E+01  0.00000000000E+00 0.  1.
<mgrwt>
<rscale>  0 0.81182480E+02</rscale>
<asrwt>0</asrwt>
<pdfrwt beam="1">  1        1 0.12208363E-01 0.81182480E+02</pdfrwt>
<pdfrwt beam="2">  1       -2 0.31943352E-02 0.81182480E+02</pdfrwt>
<totfact> 0.13595775E+05</totfact>
</mgrwt>
</event>
<event>
 8    1  0.1372337E-024  0.7949996E+02  0.7818608E-02  0.1330476E+00
          1   -1    0    0  501    0  0.00000000000E+00  0.00000000000E+00  0.13707658890E+02  0.13707659817E+02  0.50400000000E-02 0. -1.
         -2   -1    0    0    0  501 -0.00000000000E+00 -0.00000000000E+00 -0.11526846843E+03  0.11526846846E+03  0.25500000000E-02 0.  1.
        -24    2    1    2    0    0  0.35527136788E-14  0.00000000000E+00 -0.10156080954E+03  0.12897612827E+03  0.79499959939E+02 0.  0.
         66    2    3    3    0    0  0.16792147328E+02 -0.33846516832E+02 -0.70714632758E+02  0.80200512444E+02  0.19999991679E+01 0.  0.
         13    1    3    3    0    0 -0.16792147328E+02  0.33846516832E+02 -0.30846176781E+02  0.48775615830E+02  0.10566000000E+00 0. -1.
         13    1    4    4    0    0  0.56786342088E+01 -0.10409832846E+02 -0.22968897828E+02  0.25849428191E+02  0.10566000000E+00 0. -1.
        -13    1    4    4    0    0  0.10648604386E+02 -0.22902808020E+02 -0.46582859354E+02  0.52989672014E+02  0.10566000000E+00 0.  1.
        -14    1    4    4    0    0  0.46490873305E+00 -0.53387596571E+00 -0.11628755766E+01  0.13614122386E+01  0.00000000000E+00 0.  1.
<mgrwt>
<rscale>  0 0.79499960E+02</rscale>
<asrwt>0</asrwt>
<pdfrwt beam="1">  1        1 0.21088708E-02 0.79499960E+02</pdfrwt>
<pdfrwt beam="2">  1       -2 0.17733610E-01 0.79499960E+02</pdfrwt>
<totfact> 0.10393434E+05</totfact>
</mgrwt>
</event>
<event>
 8    1  0.1372337E-024  0.8212642E+02  0.7818608E-02  0.1323123E+00
          1   -1    0    0  501    0  0.00000000000E+00  0.00000000000E+00  0.22448332052E+01  0.22448388630E+01  0.50400000000E-02 0. -1.
         -2   -1    0    0    0  501 -0.00000000000E+00 -0.00000000000E+00 -0.75114048294E+03  0.75114048294E+03  0.25500000000E-02 0.  1.
        -24    2    1    2    0    0 -0.35527136788E-14  0.00000000000E+00 -0.74889564973E+03  0.75338532180E+03  0.82126420372E+02 0.  0.
         66    2    3    3    0    0 -0.14294676052E+02  0.13196000005E+02 -0.70614950615E+03  0.70642026953E+03  0.19999984004E+01 0.  0.
         13    1    3    3    0    0  0.14294676052E+02 -0.13196000005E+02 -0.42746143582E+02  0.46965052270E+02  0.10566000000E+00 0. -1.
         13    1    4    4    0    0 -0.53816982405E+01  0.43720366333E+01 -0.28218496162E+03  0.28227015625E+03  0.10566000000E+00 0. -1.
        -13    1    4    4    0    0 -0.15918388703E+01  0.15897465801E+01 -0.74429146783E+02  0.74463214408E+02  0.10566000000E+00 0.  1.
         14    1    4    4    0    0 -0.73211389418E+01  0.72342167914E+01 -0.34953539775E+03  0.34968689888E+03  0.00000000000E+00 0. -1.
<mgrwt>
<rscale>  0 0.82126420E+02</rscale>
<asrwt>0</asrwt>
<pdfrwt beam="1">  1        1 0.34535999E-03 0.82126420E+02</pdfrwt>
<pdfrwt beam="2">  1       -2 0.11555987E+00 0.82126420E+02</pdfrwt>
<totfact> 0.33059809E+04</totfact>
</mgrwt>
</event>
<event>
 8    1  0.1372337E-024  0.8151380E+02  0.7818608E-02  0.1324810E+00
         -2   -1    0    0    0  501 -0.00000000000E+00  0.00000000000E+00  0.16935540165E+02  0.16935540357E+02  0.25500000000E-02 0.  1.
          1   -1    0    0  501    0  0.00000000000E+00 -0.00000000000E+00 -0.98085153259E+02  0.98085153389E+02  0.50400000000E-02 0. -1.
        -24    2    1    2    0    0 -0.35527136788E-14  0.00000000000E+00 -0.81149613094E+02  0.11502069375E+03  0.81513804257E+02 0.  0.
         66    2    3    3    0    0  0.21286362377E+02 -0.28770865355E+02 -0.13156059810E+02  0.38183161453E+02  0.19999980754E+01 0.  0.
         13    1    3    3    0    0 -0.21286362377E+02  0.28770865355E+02 -0.67993553284E+02  0.76837532293E+02  0.10566000000E+00 0. -1.
         13    1    4    4    0    0  0.86710281639E+01 -0.13057302391E+02 -0.51787147606E+01  0.16507880717E+02  0.10566000000E+00 0. -1.
        -13    1    4    4    0    0  0.10728048918E+02 -0.13541719639E+02 -0.68241277533E+01  0.18575496978E+02  0.10566000000E+00 0.  1.
         14    1    4    4    0    0  0.18872852958E+01 -0.21718433255E+01 -0.11532172958E+01  0.30997837585E+01  0.00000000000E+00 0. -1.
<mgrwt>
<rscale>  0 0.81513804E+02</rscale>
<asrwt>0</asrwt>
<pdfrwt beam="1">  1        1 0.15090023E-01 0.81513804E+02</pdfrwt>
<pdfrwt beam="2">  1       -2 0.26054678E-02 0.81513804E+02</pdfrwt>
<totfact> 0.13926385E+05</totfact>
</mgrwt>
</event>
<event>
 8    1  0.1372337E-024  0.8053278E+02  0.7818608E-02  0.1327546E+00
         -2   -1    0    0    0  501 -0.00000000000E+00  0.00000000000E+00  0.56943697832E+02  0.56943697889E+02  0.25500000000E-02 0.  1.
          1   -1    0    0  501    0  0.00000000000E+00 -0.00000000000E+00 -0.28473425134E+02  0.28473425580E+02  0.50400000000E-02 0. -1.
        -24    2    1    2    0    0  0.17763568394E-14  0.00000000000E+00  0.28470272698E+02  0.85417123470E+02  0.80532779378E+02 0.  0.
         66    2    3    3    0    0  0.11618363556E+02  0.23006063685E+02  0.47023168461E+02  0.53660447900E+02  0.19999896769E+01 0.  0.
         13    1    3    3    0    0 -0.11618363556E+02 -0.23006063685E+02 -0.18552895763E+02  0.31756675570E+02  0.10566000000E+00 0. -1.
         13    1    4    4    0    0  0.44599219547E+01  0.10419338978E+02  0.19468468461E+02  0.22527448965E+02  0.10566000000E+00 0. -1.
        -13    1    4    4    0    0  0.28946399496E+01  0.45670616208E+01  0.10144993494E+02  0.11496479867E+02  0.10566000000E+00 0.  1.
         14    1    4    4    0    0  0.42638016516E+01  0.80196630861E+01  0.17409706505E+02  0.19636519069E+02  0.00000000000E+00 0. -1.
<mgrwt>
<rscale>  0 0.80532779E+02</rscale>
<asrwt>0</asrwt>
<pdfrwt beam="1">  1        1 0.43805270E-02 0.80532779E+02</pdfrwt>
<pdfrwt beam="2">  1       -2 0.87605688E-02 0.80532779E+02</pdfrwt>
<totfact> 0.11754814E+05</totfact>
</mgrwt>
</event>
<event>
 8    1  0.1372337E-024  0.7912737E+02  0.7818608E-02  0.1331546E+00
          1   -1    0    0  501    0  0.00000000000E+00  0.00000000000E+00  0.10474935626E+03  0.10474935638E+03  0.50400000000E-02 0. -1.
         -2   -1    0    0    0  501 -0.00000000000E+00 -0.00000000000E+00 -0.14943147719E+02  0.14943147937E+02  0.25500000000E-02 0.  1.
        -24    2    1    2    0    0  0.00000000000E+00  0.00000000000E+00  0.89806208543E+02  0.11969250432E+03  0.79127368827E+02 0.  0.
         66    2    3    3    0    0 -0.17430476603E+02  0.18262877920E+02 -0.10969516930E+01  0.25348718465E+02  0.20000000659E+01 0.  0.
         13    1    3    3    0    0  0.17430476603E+02 -0.18262877920E+02  0.90903160236E+02  0.94343785855E+02  0.10566000000E+00 0. -1.
         13    1    4    4    0    0 -0.87973916261E+01  0.93353600135E+01  0.16476771693E+00  0.12828926629E+02  0.10566000000E+00 0.  1.
        -13    1    4    4    0    0 -0.29927567441E+01  0.24752770559E+01 -0.32517469606E+00  0.38987808416E+01  0.10566000000E+00 0. -1.
        -14    1    4    4    0    0 -0.56403282329E+01  0.64522408510E+01 -0.93654471383E+00  0.86210109949E+01  0.00000000000E+00 0.  1.
<mgrwt>
<rscale>  0 0.79127369E+02</rscale>
<asrwt>0</asrwt>
<pdfrwt beam="1">  1        1 0.16115286E-01 0.79127369E+02</pdfrwt>
<pdfrwt beam="2">  1       -2 0.22989458E-02 0.79127369E+02</pdfrwt>
<totfact> 0.15259604E+05</totfact>
</mgrwt>
</event>
<event>
 8    1  0.1372337E-024  0.7940186E+02  0.7818608E-02  0.1330757E+00
         -2   -1    0    0    0  501 -0.00000000000E+00  0.00000000000E+00  0.93922190832E+01  0.93922194294E+01  0.25500000000E-02 0.  1.
          1   -1    0    0  501    0  0.00000000000E+00 -0.00000000000E+00 -0.16781591269E+03  0.16781591277E+03  0.50400000000E-02 0. -1.
        -24    2    1    2    0    0  0.00000000000E+00  0.00000000000E+00 -0.15842369361E+03  0.17720813220E+03  0.79401860307E+02 0.  0.
         66    2    3    3    0    0 -0.39207320765E+02 -0.14701917642E+01 -0.92424488122E+02  0.10042739402E+03  0.20000001462E+01 0.  0.
         13    1    3    3    0    0  0.39207320765E+02  0.14701917642E+01 -0.65999205489E+02  0.76780738174E+02  0.10566000000E+00 0. -1.
         13    1    4    4    0    0 -0.68084865418E+00  0.89603865288E-01 -0.20239985160E+01  0.21399340576E+01  0.10566000000E+00 0. -1.
        -13    1    4    4    0    0 -0.38382099216E+02 -0.15008233541E+01 -0.90152598383E+02  0.97994592556E+02  0.10566000000E+00 0.  1.
        -14    1    4    4    0    0 -0.14437289541E+00 -0.58972275375E-01 -0.24789122304E+00  0.29286741139E+00  0.00000000000E+00 0.  1.
<mgrwt>
<rscale>  0 0.79401860E+02</rscale>
<asrwt>0</asrwt>
<pdfrwt beam="1">  1        1 0.25817831E-01 0.79401860E+02</pdfrwt>
<pdfrwt beam="2">  1       -2 0.14449569E-02 0.79401860E+02</pdfrwt>
<totfact> 0.16448030E+05</totfact>
</mgrwt>
</event>
<event>
 8    1  0.1372337E-024  0.8867742E+02  0.7818608E-02  0.1306086E+00
         -2   -1    0    0    0  501 -0.00000000000E+00  0.00000000000E+00  0.15391270228E+02  0.15391270440E+02  0.25500000000E-02 0.  1.
          1   -1    0    0  501    0  0.00000000000E+00 -0.00000000000E+00 -0.12772961814E+03  0.12772961824E+03  0.50400000000E-02 0. -1.
        -24    2    1    2    0    0  0.00000000000E+00  0.00000000000E+00 -0.11233834792E+03  0.14312088868E+03  0.88677417447E+02 0.  0.
         66    2    3    3    0    0 -0.37113595461E+02  0.17880564114E+02 -0.29836255712E+02  0.50905163760E+02  0.20000003451E+01 0.  0.
         13    1    3    3    0    0  0.37113595461E+02 -0.17880564114E+02 -0.82502092204E+02  0.92215724924E+02  0.10566000000E+00 0. -1.
         13    1    4    4    0    0 -0.18156693356E+02  0.88961048588E+01 -0.13683759450E+02  0.24414393952E+02  0.10566000000E+00 0. -1.
        -13    1    4    4    0    0 -0.25166163889E+01  0.11418779353E+01 -0.17885337470E+01  0.32935179167E+01  0.10566000000E+00 0.  1.
        -14    1    4    4    0    0 -0.16440285716E+02  0.78425813200E+01 -0.14363962514E+02  0.23197251891E+02  0.00000000000E+00 0.  1.
<mgrwt>
<rscale>  0 0.88677417E+02</rscale>
<asrwt>0</asrwt>
<pdfrwt beam="1">  1        1 0.19650710E-01 0.88677417E+02</pdfrwt>
<pdfrwt beam="2">  1       -2 0.23678878E-02 0.88677417E+02</pdfrwt>
<totfact> 0.11611803E+05</totfact>
</mgrwt>
</event>
<event>
 8    1  0.1372337E-024  0.8193549E+02  0.7818608E-02  0.1323647E+00
          1   -1    0    0  501    0  0.00000000000E+00  0.00000000000E+00  0.11430411769E+02  0.11430412880E+02  0.50400000000E-02 0. -1.
         -2   -1    0    0    0  501 -0.00000000000E+00 -0.00000000000E+00 -0.14683251396E+03  0.14683251398E+03  0.25500000000E-02 0.  1.
        -24    2    1    2    0    0  0.35527136788E-14  0.00000000000E+00 -0.13540210219E+03  0.15826292686E+03  0.81935491340E+02 0.  0.
         66    2    3    3    0    0  0.28480595372E+02  0.13527810960E+02 -0.11819168033E+03  0.12234140453E+03  0.19999949802E+01 0.  0.
         13    1    3    3    0    0 -0.28480595372E+02 -0.13527810960E+02 -0.17210421856E+02  0.35921522332E+02  0.10566000000E+00 0. -1.
         13    1    4    4    0    0  0.13024491851E+02  0.62659719009E+01 -0.56173786107E+02  0.58003493011E+02  0.10566000000E+00 0.  1.
        -13    1    4    4    0    0  0.11479756229E+02  0.55880294436E+01 -0.44390831715E+02  0.46190561596E+02  0.10566000000E+00 0. -1.
         14    1    4    4    0    0  0.39763472930E+01  0.16738096151E+01 -0.17627062511E+02  0.18147349922E+02  0.00000000000E+00 0. -1.
<mgrwt>
<rscale>  0 0.81935491E+02</rscale>
<asrwt>0</asrwt>
<pdfrwt beam="1">  1        1 0.17585251E-02 0.81935491E+02</pdfrwt>
<pdfrwt beam="2">  1       -2 0.22589616E-01 0.81935491E+02</pdfrwt>
<totfact> 0.89489459E+04</totfact>
</mgrwt>
</event>
<event>
 8    1  0.1372337E-024  0.8084663E+02  0.7818608E-02  0.1326666E+00
         -2   -1    0    0    0  501 -0.00000000000E+00  0.00000000000E+00  0.10944294279E+02  0.10944294576E+02  0.25500000000E-02 0.  1.
          1   -1    0    0  501    0  0.00000000000E+00 -0.00000000000E+00 -0.14930560427E+03  0.14930560436E+03  0.50400000000E-02 0. -1.
        -24    2    1    2    0    0  0.00000000000E+00  0.00000000000E+00 -0.13836130999E+03  0.16024989893E+03  0.80846632614E+02 0.  0.
         66    2    3    3    0    0  0.70719512732E+01  0.33143483650E+02 -0.25636526998E+02  0.42540974596E+02  0.19999999477E+01 0.  0.
         13    1    3    3    0    0 -0.70719512732E+01 -0.33143483650E+02 -0.11272478299E+03  0.11770892434E+03  0.10566000000E+00 0. -1.
         13    1    4    4    0    0  0.92514256796E+00  0.54047457595E+01 -0.35188270812E+01  0.65161701603E+01  0.10566000000E+00 0. -1.
        -13    1    4    4    0    0  0.55036625157E+01  0.23254860643E+02 -0.18265835665E+02  0.30078742679E+02  0.10566000000E+00 0.  1.
         14    1    4    4    0    0  0.64314618954E+00  0.44838772477E+01 -0.38518642520E+01  0.59460617563E+01  0.00000000000E+00 0. -1.
<mgrwt>
<rscale>  0 0.80846633E+02</rscale>
<asrwt>0</asrwt>
<pdfrwt beam="1">  1        1 0.22970092E-01 0.80846633E+02</pdfrwt>
<pdfrwt beam="2">  1       -2 0.16837377E-02 0.80846633E+02</pdfrwt>
<totfact> 0.15337061E+05</totfact>
</mgrwt>
</event>
<event>
 8    1  0.1372337E-024  0.8014258E+02  0.7818608E-02  0.1328647E+00
         -2   -1    0    0    0  501 -0.00000000000E+00  0.00000000000E+00  0.19739489977E+03  0.19739489978E+03  0.25500000000E-02 0.  1.
          1   -1    0    0  501    0  0.00000000000E+00 -0.00000000000E+00 -0.81344971533E+01  0.81344987147E+01  0.50400000000E-02 0. -1.
        -24    2    1    2    0    0 -0.71054273576E-14  0.00000000000E+00  0.18926040261E+03  0.20552939850E+03  0.80142583247E+02 0.  0.
         66    2    3    3    0    0  0.34869217880E+02  0.18364530128E+02  0.11292885301E+03  0.11962459682E+03  0.19999999718E+01 0.  0.
         13    1    3    3    0    0 -0.34869217880E+02 -0.18364530128E+02  0.76331549606E+02  0.85904801680E+02  0.10566000000E+00 0. -1.
         13    1    4    4    0    0  0.17330758508E+02  0.83084516312E+01  0.55582434219E+02  0.58811595088E+02  0.10566000000E+00 0. -1.
        -13    1    4    4    0    0  0.11407699903E+02  0.69458436554E+01  0.37047519474E+02  0.39381597534E+02  0.10566000000E+00 0.  1.
        -14    1    4    4    0    0  0.61307594696E+01  0.31102348410E+01  0.20298899315E+02  0.21431404197E+02  0.00000000000E+00 0.  1.
<mgrwt>
<rscale>  0 0.80142583E+02</rscale>
<asrwt>0</asrwt>
<pdfrwt beam="1">  1        1 0.12514613E-02 0.80142583E+02</pdfrwt>
<pdfrwt beam="2">  1       -2 0.30368445E-01 0.80142583E+02</pdfrwt>
<totfact> 0.85135694E+04</totfact>
</mgrwt>
</event>
<event>
 8    1  0.1372337E-024  0.8441020E+02  0.7818608E-02  0.1316982E+00
          1   -1    0    0  501    0  0.00000000000E+00  0.00000000000E+00  0.32745357787E+03  0.32745357791E+03  0.50400000000E-02 0. -1.
         -2   -1    0    0    0  501 -0.00000000000E+00 -0.00000000000E+00 -0.54397642467E+01  0.54397648444E+01  0.25500000000E-02 0.  1.
        -24    2    1    2    0    0  0.00000000000E+00  0.00000000000E+00  0.32201381363E+03  0.33289334276E+03  0.84410197756E+02 0.  0.
         66    2    3    3    0    0  0.11256102855E+02  0.36918429787E+02  0.22820990188E+03  0.23145934780E+03  0.20000148368E+01 0.  0.
         13    1    3    3    0    0 -0.11256102855E+02 -0.36918429787E+02  0.93803911743E+02  0.10143399495E+03  0.10566000000E+00 0. -1.
         13    1    4    4    0    0  0.46381165710E+01  0.13395056091E+02  0.79819208794E+02  0.81068223797E+02  0.10566000000E+00 0. -1.
        -13    1    4    4    0    0  0.34343264927E+01  0.11015146341E+02  0.71031589350E+02  0.71962670163E+02  0.10566000000E+00 0.  1.
         14    1    4    4    0    0  0.31836597913E+01  0.12508227356E+02  0.77359103739E+02  0.78428453845E+02  0.00000000000E+00 0. -1.
<mgrwt>
<rscale>  0 0.84410198E+02</rscale>
<asrwt>0</asrwt>
<pdfrwt beam="1">  1        1 0.50377460E-01 0.84410198E+02</pdfrwt>
<pdfrwt beam="2">  1       -2 0.83688708E-03 0.84410198E+02</pdfrwt>
<totfact> 0.15917432E+05</totfact>
</mgrwt>
</event>
<event>
 8    1  0.1372337E-024  0.7683573E+02  0.7818608E-02  0.1338279E+00
          1   -1    0    0  501    0  0.00000000000E+00  0.00000000000E+00  0.44081836093E+01  0.44081864905E+01  0.50400000000E-02 0. -1.
         -2   -1    0    0    0  501 -0.00000000000E+00 -0.00000000000E+00 -0.33481633549E+03  0.33481633550E+03  0.25500000000E-02 0.  1.
        -24    2    1    2    0    0  0.00000000000E+00  0.35527136788E-14 -0.33040815189E+03  0.33922452199E+03  0.76835730558E+02 0.  0.
         66    2    3    3    0    0  0.16613918555E+02  0.31208577295E+02 -0.23138200355E+03  0.23407611828E+03  0.19999983915E+01 0.  0.
         13    1    3    3    0    0 -0.16613918555E+02 -0.31208577295E+02 -0.99026148333E+02  0.10514840372E+03  0.10566000000E+00 0. -1.
         13    1    4    4    0    0  0.71979584862E+01  0.14201329698E+02 -0.10988761602E+03  0.11103507415E+03  0.10566000000E+00 0. -1.
        -13    1    4    4    0    0  0.61256911099E+01  0.11053299335E+02 -0.80586975049E+02  0.81571877687E+02  0.10566000000E+00 0.  1.
         14    1    4    4    0    0  0.32902689585E+01  0.59539482624E+01 -0.40907412479E+02  0.41469166442E+02  0.00000000000E+00 0. -1.
<mgrwt>
<rscale>  0 0.76835731E+02</rscale>
<asrwt>0</asrwt>
<pdfrwt beam="1">  1        1 0.67818258E-03 0.76835731E+02</pdfrwt>
<pdfrwt beam="2">  1       -2 0.51510186E-01 0.76835731E+02</pdfrwt>
<totfact> 0.73286761E+04</totfact>
</mgrwt>
</event>
<event>
 8    1  0.1372337E-024  0.8589188E+02  0.7818608E-02  0.1313117E+00
          1   -1    0    0  501    0  0.00000000000E+00  0.00000000000E+00  0.54148806948E+02  0.54148807182E+02  0.50400000000E-02 0. -1.
         -2   -1    0    0    0  501 -0.00000000000E+00 -0.00000000000E+00 -0.34060838785E+02  0.34060838881E+02  0.25500000000E-02 0.  1.
        -24    2    1    2    0    0  0.00000000000E+00  0.71054273576E-14  0.20087968163E+02  0.88209646063E+02  0.85891880837E+02 0.  0.
         66    2    3    3    0    0 -0.83691839482E+01 -0.37313434639E+02 -0.99705477699E+01  0.39569526937E+02  0.19999986772E+01 0.  0.
         13    1    3    3    0    0  0.83691839482E+01  0.37313434639E+02  0.30058515932E+02  0.48640119126E+02  0.10566000000E+00 0. -1.
         13    1    4    4    0    0 -0.11782860919E+01 -0.80400967021E+01 -0.23286716037E+01  0.84537203979E+01  0.10566000000E+00 0. -1.
        -13    1    4    4    0    0 -0.34673084521E+01 -0.12010460351E+02 -0.33218427436E+01  0.12935191881E+02  0.10566000000E+00 0.  1.
        -14    1    4    4    0    0 -0.37235894042E+01 -0.17262877585E+02 -0.43200334227E+01  0.18180614658E+02  0.00000000000E+00 0.  1.
<mgrwt>
<rscale>  0 0.85891881E+02</rscale>
<asrwt>0</asrwt>
<pdfrwt beam="1">  1        1 0.83305857E-02 0.85891881E+02</pdfrwt>
<pdfrwt beam="2">  1       -2 0.52401291E-02 0.85891881E+02</pdfrwt>
<totfact> 0.10928966E+05</totfact>
</mgrwt>
</event>
<event>
 8    1  0.1372337E-024  0.7346422E+02  0.7818608E-02  0.1348694E+00
         -2   -1    0    0    0  501 -0.00000000000E+00  0.00000000000E+00  0.27015318489E+02  0.27015318609E+02  0.25500000000E-02 0.  1.
          1   -1    0    0  501    0  0.00000000000E+00 -0.00000000000E+00 -0.49943806700E+02  0.49943806955E+02  0.50400000000E-02 0. -1.
        -24    2    1    2    0    0 -0.35527136788E-14  0.71054273576E-14 -0.22928488212E+02  0.76959125564E+02  0.73464218745E+02 0.  0.
         66    2    3    3    0    0  0.17902580282E+02 -0.31803237931E+02 -0.73758247946E+01  0.37287412378E+02  0.20000016954E+01 0.  0.
         13    1    3    3    0    0 -0.17902580282E+02  0.31803237931E+02 -0.15552663417E+02  0.39671713186E+02  0.10566000000E+00 0. -1.
         13    1    4    4    0    0  0.42887152597E+01 -0.78293254518E+01 -0.24884346230E+01  0.92679494235E+01  0.10566000000E+00 0. -1.
        -13    1    4    4    0    0  0.98137319527E+01 -0.17252577319E+02 -0.39957330464E+01  0.20246920892E+02  0.10566000000E+00 0.  1.
         14    1    4    4    0    0  0.38001330697E+01 -0.67213351600E+01 -0.89165712513E+00  0.77725420623E+01  0.00000000000E+00 0. -1.
<mgrwt>
<rscale>  0 0.73464219E+02</rscale>
<asrwt>0</asrwt>
<pdfrwt beam="1">  1        1 0.76836626E-02 0.73464219E+02</pdfrwt>
<pdfrwt beam="2">  1       -2 0.41562028E-02 0.73464219E+02</pdfrwt>
<totfact> 0.16643327E+05</totfact>
</mgrwt>
</event>
<event>
 8    1  0.1372337E-024  0.8733592E+02  0.7818608E-02  0.1309434E+00
         -2   -1    0    0    0  501 -0.00000000000E+00  0.00000000000E+00  0.31847242556E+02  0.31847242658E+02  0.25500000000E-02 0.  1.
          1   -1    0    0  501    0  0.00000000000E+00 -0.00000000000E+00 -0.59876159029E+02  0.59876159241E+02  0.50400000000E-02 0. -1.
        -24    2    1    2    0    0  0.35527136788E-14 -0.71054273576E-14 -0.28028916473E+02  0.91723401899E+02  0.87335916422E+02 0.  0.
         66    2    3    3    0    0  0.24124235707E+02  0.35935604805E+02 -0.81236919757E+01  0.44083339268E+02  0.19999971474E+01 0.  0.
         13    1    3    3    0    0 -0.24124235707E+02 -0.35935604805E+02 -0.19905224498E+02  0.47640062631E+02  0.10566000000E+00 0. -1.
         13    1    4    4    0    0  0.59027704523E+01  0.86900732161E+01 -0.17576559624E+01  0.10651788114E+02  0.10566000000E+00 0. -1.
        -13    1    4    4    0    0  0.16799951714E+02  0.24358615601E+02 -0.60035554872E+01  0.30193283593E+02  0.10566000000E+00 0.  1.
         14    1    4    4    0    0  0.14215135410E+01  0.28869159874E+01 -0.36248052608E+00  0.32382675611E+01  0.00000000000E+00 0. -1.
<mgrwt>
<rscale>  0 0.87335916E+02</rscale>
<asrwt>0</asrwt>
<pdfrwt beam="1">  1        1 0.92117168E-02 0.87335916E+02</pdfrwt>
<pdfrwt beam="2">  1       -2 0.48995758E-02 0.87335916E+02</pdfrwt>
<totfact> 0.10607815E+05</totfact>
</mgrwt>
</event>
<event>
 8    1  0.1372337E-024  0.8081982E+02  0.7818608E-02  0.1326741E+00
          1   -1    0    0  501    0  0.00000000000E+00  0.00000000000E+00  0.74192863195E+02  0.74192863366E+02  0.50400000000E-02 0. -1.
         -2   -1    0    0    0  501 -0.00000000000E+00 -0.00000000000E+00 -0.22009674344E+02  0.22009674492E+02  0.25500000000E-02 0.  1.
        -24    2    1    2    0    0  0.00000000000E+00 -0.71054273576E-14  0.52183188851E+02  0.96202537858E+02  0.80819818682E+02 0.  0.
         66    2    3    3    0    0 -0.60713667170E+01 -0.39823153351E+02  0.29518360311E+02  0.49980782662E+02  0.20000008548E+01 0.  0.
         13    1    3    3    0    0  0.60713667170E+01  0.39823153351E+02  0.22664828539E+02  0.46221755196E+02  0.10566000000E+00 0. -1.
         13    1    4    4    0    0 -0.11766120266E+01 -0.57834760310E+01  0.49469060030E+01  0.77016916259E+01  0.10566000000E+00 0. -1.
        -13    1    4    4    0    0 -0.33657910238E+01 -0.20468183531E+02  0.14456069234E+02  0.25283674337E+02  0.10566000000E+00 0.  1.
        -14    1    4    4    0    0 -0.15289636666E+01 -0.13571493789E+02  0.10115385075E+02  0.16995416699E+02  0.00000000000E+00 0.  1.
<mgrwt>
<rscale>  0 0.80819819E+02</rscale>
<asrwt>0</asrwt>
<pdfrwt beam="1">  1        1 0.11414287E-01 0.80819819E+02</pdfrwt>
<pdfrwt beam="2">  1       -2 0.33861038E-02 0.80819819E+02</pdfrwt>
<totfact> 0.13614548E+05</totfact>
</mgrwt>
</event>
<event>
 8    1  0.1372337E-024  0.7197015E+02  0.7818608E-02  0.1353519E+00
          1   -1    0    0  501    0  0.00000000000E+00  0.00000000000E+00  0.72758285383E+02  0.72758285558E+02  0.50400000000E-02 0. -1.
         -2   -1    0    0    0  501 -0.00000000000E+00 -0.00000000000E+00 -0.17797638680E+02  0.17797638863E+02  0.25500000000E-02 0.  1.
        -24    2    1    2    0    0  0.00000000000E+00  0.00000000000E+00  0.54960646703E+02  0.90555924421E+02  0.71970151881E+02 0.  0.
         66    2    3    3    0    0  0.23854854967E+02 -0.13922229356E+02  0.56469455742E+02  0.62894213619E+02  0.20000248092E+01 0.  0.
         13    1    3    3    0    0 -0.23854854967E+02  0.13922229356E+02 -0.15088090389E+01  0.27661710802E+02  0.10566000000E+00 0. -1.
         13    1    4    4    0    0  0.10129000570E+02 -0.53479206857E+01  0.23678100955E+02  0.26303241950E+02  0.10566000000E+00 0. -1.
        -13    1    4    4    0    0  0.79139387149E+01 -0.42248124123E+01  0.17643066587E+02  0.19793140947E+02  0.10566000000E+00 0.  1.
        -14    1    4    4    0    0  0.58119156815E+01 -0.43494962584E+01  0.15148288199E+02  0.16797830722E+02  0.00000000000E+00 0.  1.
<mgrwt>
<rscale>  0 0.71970152E+02</rscale>
<asrwt>0</asrwt>
<pdfrwt beam="1">  1        1 0.11193582E-01 0.71970152E+02</pdfrwt>
<pdfrwt beam="2">  1       -2 0.27380983E-02 0.71970152E+02</pdfrwt>
<totfact> 0.18589164E+05</totfact>
</mgrwt>
</event>
<event>
 8    1  0.1372337E-024  0.8054586E+02  0.7818608E-02  0.1327509E+00
         -2   -1    0    0    0  501 -0.00000000000E+00  0.00000000000E+00  0.47087297925E+01  0.47087304830E+01  0.25500000000E-02 0.  1.
          1   -1    0    0  501    0  0.00000000000E+00 -0.00000000000E+00 -0.34444719501E+03  0.34444719505E+03  0.50400000000E-02 0. -1.
        -24    2    1    2    0    0  0.00000000000E+00  0.00000000000E+00 -0.33973846522E+03  0.34915592553E+03  0.80545860131E+02 0.  0.
         66    2    3    3    0    0  0.10330876425E+02 -0.36729178464E+02 -0.22551154048E+03  0.22872519417E+03  0.19999993173E+01 0.  0.
         13    1    3    3    0    0 -0.10330876425E+02  0.36729178464E+02 -0.11422692473E+03  0.12043073136E+03  0.10566000000E+00 0. -1.
         13    1    4    4    0    0  0.32002540427E+01 -0.12232718282E+02 -0.70663567503E+02  0.71786015065E+02  0.10566000000E+00 0. -1.
        -13    1    4    4    0    0  0.41289147274E+01 -0.14941101384E+02 -0.96866323390E+02  0.98098828833E+02  0.10566000000E+00 0.  1.
        -14    1    4    4    0    0  0.30017076547E+01 -0.95553587978E+01 -0.57981649592E+02  0.58840350271E+02  0.00000000000E+00 0.  1.
<mgrwt>
<rscale>  0 0.80545860E+02</rscale>
<asrwt>0</asrwt>
<pdfrwt beam="1">  1        1 0.52991856E-01 0.80545860E+02</pdfrwt>
<pdfrwt beam="2">  1       -2 0.72442029E-03 0.80545860E+02</pdfrwt>
<totfact> 0.18181860E+05</totfact>
</mgrwt>
</event>
<event>
 8    1  0.1372337E-024  0.7803831E+02  0.7818608E-02  0.1334712E+00
         -2   -1    0    0    0  501 -0.00000000000E+00  0.00000000000E+00  0.25919439758E+02  0.25919439884E+02  0.25500000000E-02 0.  1.
          1   -1    0    0  501    0  0.00000000000E+00 -0.00000000000E+00 -0.58739486544E+02  0.58739486760E+02  0.50400000000E-02 0. -1.
        -24    2    1    2    0    0  0.00000000000E+00  0.00000000000E+00 -0.32820046786E+02  0.84658926644E+02  0.78038313600E+02 0.  0.
         66    2    3    3    0    0 -0.33302598232E+02 -0.10742241887E+02  0.22444594414E+01  0.35121167604E+02  0.20000014814E+01 0.  0.
         13    1    3    3    0    0  0.33302598232E+02  0.10742241887E+02 -0.35064506227E+02  0.49537759040E+02  0.10566000000E+00 0. -1.
         13    1    4    4    0    0 -0.10437002473E+02 -0.26414265980E+01  0.33878376375E+00  0.10771912252E+02  0.10566000000E+00 0. -1.
        -13    1    4    4    0    0 -0.20546268740E+02 -0.69904563125E+01  0.17018523144E+01  0.21769775008E+02  0.10566000000E+00 0.  1.
         14    1    4    4    0    0 -0.23193270196E+01 -0.11103589763E+01  0.20382336326E+00  0.25794803437E+01  0.00000000000E+00 0. -1.
<mgrwt>
<rscale>  0 0.78038314E+02</rscale>
<asrwt>0</asrwt>
<pdfrwt beam="1">  1        1 0.90368441E-02 0.78038314E+02</pdfrwt>
<pdfrwt beam="2">  1       -2 0.39876062E-02 0.78038314E+02</pdfrwt>
<totfact> 0.14448289E+05</totfact>
</mgrwt>
</event>
<event>
 8    1  0.1372337E-024  0.7722322E+02  0.7818608E-02  0.1337121E+00
         -2   -1    0    0    0  501 -0.00000000000E+00  0.00000000000E+00  0.80348174784E+02  0.80348174824E+02  0.25500000000E-02 0.  1.
          1   -1    0    0  501    0  0.00000000000E+00 -0.00000000000E+00 -0.18554951060E+02  0.18554951744E+02  0.50400000000E-02 0. -1.
        -24    2    1    2    0    0  0.35527136788E-14  0.35527136788E-14  0.61793223724E+02  0.98903126568E+02  0.77223221551E+02 0.  0.
         66    2    3    3    0    0  0.28804685931E+02  0.24285908065E+02  0.41581826549E+02  0.56147694142E+02  0.19999990635E+01 0.  0.
         13    1    3    3    0    0 -0.28804685931E+02 -0.24285908065E+02  0.20211397175E+02  0.42755432426E+02  0.10566000000E+00 0. -1.
         13    1    4    4    0    0  0.20982111919E+02  0.17769902245E+02  0.29637383519E+02  0.40427764126E+02  0.10566000000E+00 0. -1.
        -13    1    4    4    0    0  0.77984917857E+01  0.63880886623E+01  0.11710561630E+02  0.15452267426E+02  0.10566000000E+00 0.  1.
         14    1    4    4    0    0  0.24082226947E-01  0.12791715722E+00  0.23388140019E+00  0.26766259006E+00  0.00000000000E+00 0. -1.
<mgrwt>
<rscale>  0 0.77223222E+02</rscale>
<asrwt>0</asrwt>
<pdfrwt beam="1">  1        1 0.28546079E-02 0.77223222E+02</pdfrwt>
<pdfrwt beam="2">  1       -2 0.12361258E-01 0.77223222E+02</pdfrwt>
<totfact> 0.12216797E+05</totfact>
</mgrwt>
</event>
<event>
 8    1  0.1372337E-024  0.7960468E+02  0.7818608E-02  0.1330177E+00
          1   -1    0    0  501    0  0.00000000000E+00  0.00000000000E+00  0.29662763753E+02  0.29662764181E+02  0.50400000000E-02 0. -1.
         -2   -1    0    0    0  501 -0.00000000000E+00 -0.00000000000E+00 -0.53407904535E+02  0.53407904596E+02  0.25500000000E-02 0.  1.
        -24    2    1    2    0    0 -0.17763568394E-14  0.71054273576E-14 -0.23745140782E+02  0.83070668777E+02  0.79604675115E+02 0.  0.
         66    2    3    3    0    0  0.10034372282E+02 -0.33868526905E+02 -0.30964431217E+02  0.47016611304E+02  0.19999990213E+01 0.  0.
         13    1    3    3    0    0 -0.10034372282E+02  0.33868526905E+02  0.72192904345E+01  0.36054057473E+02  0.10566000000E+00 0. -1.
         13    1    4    4    0    0  0.24485100203E+01 -0.63713195228E+01 -0.63678522320E+01  0.93353960744E+01  0.10566000000E+00 0. -1.
        -13    1    4    4    0    0  0.16053274026E+01 -0.48247920838E+01 -0.48138750923E+01  0.70028745642E+01  0.10566000000E+00 0.  1.
        -14    1    4    4    0    0  0.59805348591E+01 -0.22672415299E+02 -0.19782703893E+02  0.30678340665E+02  0.00000000000E+00 0.  1.
<mgrwt>
<rscale>  0 0.79604675E+02</rscale>
<asrwt>0</asrwt>
<pdfrwt beam="1">  1        1 0.45635022E-02 0.79604675E+02</pdfrwt>
<pdfrwt beam="2">  1       -2 0.82166007E-02 0.79604675E+02</pdfrwt>
<totfact> 0.12243712E+05</totfact>
</mgrwt>
</event>
<event>
 8    1  0.1372337E-024  0.8031680E+02  0.7818608E-02  0.1328155E+00
         -2   -1    0    0    0  501 -0.00000000000E+00  0.00000000000E+00  0.81106557669E+01  0.81106561677E+01  0.25500000000E-02 0.  1.
          1   -1    0    0  501    0  0.00000000000E+00 -0.00000000000E+00 -0.19883684818E+03  0.19883684824E+03  0.50400000000E-02 0. -1.
        -24    2    1    2    0    0  0.00000000000E+00  0.71054273576E-14 -0.19072619241E+03  0.20694750441E+03  0.80316804653E+02 0.  0.
         66    2    3    3    0    0 -0.25668929791E+01  0.39883255664E+02 -0.10486441829E+03  0.11223996278E+03  0.20000000096E+01 0.  0.
         13    1    3    3    0    0  0.25668929791E+01 -0.39883255664E+02 -0.85861774118E+02  0.94707541625E+02  0.10566000000E+00 0. -1.
         13    1    4    4    0    0 -0.11384513045E+01  0.11000939530E+02 -0.27573144398E+02  0.29708688931E+02  0.10566000000E+00 0. -1.
        -13    1    4    4    0    0 -0.12935041652E+01  0.22076983910E+02 -0.60287512053E+02  0.64215742969E+02  0.10566000000E+00 0.  1.
         14    1    4    4    0    0 -0.13493750935E+00  0.68053322235E+01 -0.17003761841E+02  0.18315530884E+02  0.00000000000E+00 0. -1.
<mgrwt>
<rscale>  0 0.80316805E+02</rscale>
<asrwt>0</asrwt>
<pdfrwt beam="1">  1        1 0.30590281E-01 0.80316805E+02</pdfrwt>
<pdfrwt beam="2">  1       -2 0.12477934E-02 0.80316805E+02</pdfrwt>
<totfact> 0.16481155E+05</totfact>
</mgrwt>
</event>
<event>
 8    1  0.1894522E-024  0.8120632E+02  0.7818608E-02  0.1325663E+00
         -2   -1    0    0    0  501 -0.00000000000E+00  0.00000000000E+00  0.12168520000E+02  0.12168520268E+02  0.25500000000E-02 0.  1.
          1   -1    0    0  501    0  0.00000000000E+00 -0.00000000000E+00 -0.13548207774E+03  0.13548207783E+03  0.50400000000E-02 0. -1.
        -24    2    1    2    0    0  0.00000000000E+00  0.00000000000E+00 -0.12331355774E+03  0.14765059810E+03  0.81206315008E+02 0.  0.
         66    2    3    3    0    0 -0.16493976848E+02 -0.12647898971E+02  0.16725257541E+01  0.20947982296E+02  0.19999998120E+01 0.  0.
         13    1    3    3    0    0  0.16493976848E+02  0.12647898971E+02 -0.12498608349E+03  0.12670261580E+03  0.10566000000E+00 0. -1.
         13    1    4    4    0    0 -0.37353990578E+01 -0.23083172068E+01  0.22960460420E+00  0.43983425012E+01  0.10566000000E+00 0. -1.
        -13    1    4    4    0    0 -0.11241795425E+02 -0.85863278254E+01  0.15370287919E+01  0.14229427657E+02  0.10566000000E+00 0.  1.
         14    1    4    4    0    0 -0.15167823648E+01 -0.17532539391E+01 -0.94107642006E-01  0.23202121381E+01  0.00000000000E+00 0. -1.
<mgrwt>
<rscale>  0 0.81206315E+02</rscale>
<asrwt>0</asrwt>
<pdfrwt beam="1">  1        1 0.20843396E-01 0.81206315E+02</pdfrwt>
<pdfrwt beam="2">  1       -2 0.18720801E-02 0.81206315E+02</pdfrwt>
<totfact> 0.14888126E+05</totfact>
</mgrwt>
</event>
<event>
 8    1  0.1372337E-024  0.7920594E+02  0.7818608E-02  0.1331320E+00
         -2   -1    0    0    0  501 -0.00000000000E+00  0.00000000000E+00  0.17678570318E+02  0.17678570502E+02  0.25500000000E-02 0.  1.
          1   -1    0    0  501    0  0.00000000000E+00 -0.00000000000E+00 -0.88717304339E+02  0.88717304482E+02  0.50400000000E-02 0. -1.
        -24    2    1    2    0    0  0.71054273576E-14  0.55511151231E-16 -0.71038734021E+02  0.10639587498E+03  0.79205937165E+02 0.  0.
         66    2    3    3    0    0  0.39084590544E+02  0.40577331706E+00 -0.43889805609E+02  0.58805483643E+02  0.20000000206E+01 0.  0.
         13    1    3    3    0    0 -0.39084590544E+02 -0.40577331706E+00 -0.27148928413E+02  0.47590391341E+02  0.10566000000E+00 0. -1.
         13    1    4    4    0    0  0.63048363842E+01  0.27893667418E+00 -0.67223134004E+01  0.92211403301E+01  0.10566000000E+00 0. -1.
        -13    1    4    4    0    0  0.30933431937E+02  0.26916950302E+00 -0.34512064832E+02  0.46346989618E+02  0.10566000000E+00 0.  1.
        -14    1    4    4    0    0  0.18463222229E+01 -0.14233286015E+00 -0.26554273759E+01  0.32373536944E+01  0.00000000000E+00 0.  1.
<mgrwt>
<rscale>  0 0.79205937E+02</rscale>
<asrwt>0</asrwt>
<pdfrwt beam="1">  1        1 0.13648816E-01 0.79205937E+02</pdfrwt>
<pdfrwt beam="2">  1       -2 0.27197801E-02 0.79205937E+02</pdfrwt>
<totfact> 0.14804766E+05</totfact>
</mgrwt>
</event>
<event>
 8    1  0.1372337E-024  0.7776563E+02  0.7818608E-02  0.1335515E+00
          1   -1    0    0  501    0  0.00000000000E+00  0.00000000000E+00  0.10584669473E+03  0.10584669485E+03  0.50400000000E-02 0. -1.
         -2   -1    0    0    0  501 -0.00000000000E+00 -0.00000000000E+00 -0.14283612618E+02  0.14283612846E+02  0.25500000000E-02 0.  1.
        -24    2    1    2    0    0  0.00000000000E+00  0.00000000000E+00  0.91563082115E+02  0.12013030770E+03  0.77765627506E+02 0.  0.
         66    2    3    3    0    0 -0.17189020016E+02 -0.18377715444E+02  0.73244631914E-01  0.25242983146E+02  0.19999998210E+01 0.  0.
         13    1    3    3    0    0  0.17189020016E+02  0.18377715444E+02  0.91489837483E+02  0.94887324553E+02  0.10566000000E+00 0. -1.
         13    1    4    4    0    0 -0.75904495682E+01 -0.88217616034E+01  0.69048458068E+00  0.11658745019E+02  0.10566000000E+00 0. -1.
        -13    1    4    4    0    0 -0.35375644651E+01 -0.37611394283E+01  0.12527901952E+00  0.51659840314E+01  0.10566000000E+00 0.  1.
        -14    1    4    4    0    0 -0.60610059827E+01 -0.57948144122E+01 -0.74251896828E+00  0.84182540952E+01  0.00000000000E+00 0.  1.
<mgrwt>
<rscale>  0 0.77765628E+02</rscale>
<asrwt>0</asrwt>
<pdfrwt beam="1">  1        1 0.16284107E-01 0.77765628E+02</pdfrwt>
<pdfrwt beam="2">  1       -2 0.21974789E-02 0.77765628E+02</pdfrwt>
<totfact> 0.16017570E+05</totfact>
</mgrwt>
</event>
<event>
 8    1  0.1372337E-024  0.7965705E+02  0.7818608E-02  0.1330028E+00
          1   -1    0    0  501    0  0.00000000000E+00  0.00000000000E+00  0.28499002475E+02  0.28499002921E+02  0.50400000000E-02 0. -1.
         -2   -1    0    0    0  501 -0.00000000000E+00 -0.00000000000E+00 -0.55661994556E+02  0.55661994614E+02  0.25500000000E-02 0.  1.
        -24    2    1    2    0    0  0.88817841970E-15  0.35527136788E-14 -0.27162992080E+02  0.84160997535E+02  0.79657048447E+02 0.  0.
         66    2    3    3    0    0  0.76912050705E+01 -0.31443915224E+02 -0.38060597962E+02  0.50004835308E+02  0.19999992112E+01 0.  0.
         13    1    3    3    0    0 -0.76912050705E+01  0.31443915224E+02  0.10897605882E+02  0.34156162227E+02  0.10566000000E+00 0. -1.
         13    1    4    4    0    0  0.57678915906E+00 -0.21400950027E+01 -0.33793564347E+01  0.40427597384E+01  0.10566000000E+00 0. -1.
        -13    1    4    4    0    0  0.11797630107E+01 -0.47069931245E+01 -0.52711970743E+01  0.71654942375E+01  0.10566000000E+00 0.  1.
        -14    1    4    4    0    0  0.59346529007E+01 -0.24596827097E+02 -0.29410044454E+02  0.38796581332E+02  0.00000000000E+00 0.  1.
<mgrwt>
<rscale>  0 0.79657048E+02</rscale>
<asrwt>0</asrwt>
<pdfrwt beam="1">  1        1 0.43844620E-02 0.79657048E+02</pdfrwt>
<pdfrwt beam="2">  1       -2 0.85633838E-02 0.79657048E+02</pdfrwt>
<totfact> 0.12133690E+05</totfact>
</mgrwt>
</event>
<event>
 8    1  0.1372337E-024  0.8119880E+02  0.7818608E-02  0.1325683E+00
         -2   -1    0    0    0  501 -0.00000000000E+00  0.00000000000E+00  0.12066136020E+02  0.12066136289E+02  0.25500000000E-02 0.  1.
          1   -1    0    0  501    0  0.00000000000E+00 -0.00000000000E+00 -0.13660637626E+03  0.13660637635E+03  0.50400000000E-02 0. -1.
        -24    2    1    2    0    0  0.35527136788E-14  0.00000000000E+00 -0.12454024024E+03  0.14867251264E+03  0.81198796642E+02 0.  0.
         66    2    3    3    0    0  0.30571802668E+02  0.11275494781E+02 -0.18040182637E+02  0.37299062779E+02  0.19999984179E+01 0.  0.
         13    1    3    3    0    0 -0.30571802668E+02 -0.11275494781E+02 -0.10650005760E+03  0.11137344986E+03  0.10566000000E+00 0. -1.
         13    1    4    4    0    0  0.48237289819E+01  0.13578520290E+01 -0.28451968150E+01  0.57635433871E+01  0.10566000000E+00 0. -1.
        -13    1    4    4    0    0  0.10844397771E+02  0.47745101367E+01 -0.70814748385E+01  0.13804179077E+02  0.10566000000E+00 0.  1.
         14    1    4    4    0    0  0.14903675915E+02  0.51431326153E+01 -0.81135109837E+01  0.17731340315E+02  0.00000000000E+00 0. -1.
<mgrwt>
<rscale>  0 0.81198797E+02</rscale>
<asrwt>0</asrwt>
<pdfrwt beam="1">  1        1 0.21016365E-01 0.81198797E+02</pdfrwt>
<pdfrwt beam="2">  1       -2 0.18563287E-02 0.81198797E+02</pdfrwt>
<totfact> 0.14914215E+05</totfact>
</mgrwt>
</event>
<event>
 8    1  0.1372337E-024  0.7806022E+02  0.7818608E-02  0.1334648E+00
          1   -1    0    0  501    0  0.00000000000E+00  0.00000000000E+00  0.39214330960E+02  0.39214331283E+02  0.50400000000E-02 0. -1.
         -2   -1    0    0    0  501 -0.00000000000E+00 -0.00000000000E+00 -0.38846752619E+02  0.38846752703E+02  0.25500000000E-02 0.  1.
        -24    2    1    2    0    0  0.00000000000E+00 -0.35527136788E-14  0.36757834049E+00  0.78061083986E+02  0.78060218545E+02 0.  0.
         66    2    3    3    0    0 -0.21923550561E+01  0.30381166297E+02 -0.24178684278E+02  0.38941372090E+02  0.20000001430E+01 0.  0.
         13    1    3    3    0    0  0.21923550561E+01 -0.30381166297E+02  0.24546262618E+02  0.39119711896E+02  0.10566000000E+00 0. -1.
         13    1    4    4    0    0 -0.60023254877E+00  0.62224716764E+01 -0.42678916959E+01  0.75700393948E+01  0.10566000000E+00 0. -1.
        -13    1    4    4    0    0 -0.88729882994E+00  0.20076792057E+02 -0.16291987163E+02  0.25870927472E+02  0.10566000000E+00 0.  1.
         14    1    4    4    0    0 -0.70482367740E+00  0.40819025635E+01 -0.36188054193E+01  0.55004052230E+01  0.00000000000E+00 0. -1.
<mgrwt>
<rscale>  0 0.78060219E+02</rscale>
<asrwt>0</asrwt>
<pdfrwt beam="1">  1        1 0.60329741E-02 0.78060219E+02</pdfrwt>
<pdfrwt beam="2">  1       -2 0.59764235E-02 0.78060219E+02</pdfrwt>
<totfact> 0.13561836E+05</totfact>
</mgrwt>
</event>
<event>
 8    1  0.1372337E-024  0.8055261E+02  0.7818608E-02  0.1327490E+00
          1   -1    0    0  501    0  0.00000000000E+00  0.00000000000E+00  0.25075109052E+02  0.25075109558E+02  0.50400000000E-02 0. -1.
         -2   -1    0    0    0  501 -0.00000000000E+00 -0.00000000000E+00 -0.64692873148E+02  0.64692873198E+02  0.25500000000E-02 0.  1.
        -24    2    1    2    0    0  0.71054273576E-14  0.00000000000E+00 -0.39617764096E+02  0.89767982756E+02  0.80552613217E+02 0.  0.
         66    2    3    3    0    0 -0.39228652851E+02  0.10495497621E+01 -0.98418940997E+01  0.40507426960E+02  0.20000000702E+01 0.  0.
         13    1    3    3    0    0  0.39228652851E+02 -0.10495497621E+01 -0.29775869996E+02  0.49260555795E+02  0.10566000000E+00 0. -1.
         13    1    4    4    0    0 -0.68990171741E+01 -0.26997902515E+00 -0.19205215538E+01  0.71672096186E+01  0.10566000000E+00 0. -1.
        -13    1    4    4    0    0 -0.96158600765E+01  0.78008837422E+00 -0.18642287977E+01  0.98264854311E+01  0.10566000000E+00 0.  1.
        -14    1    4    4    0    0 -0.22713775600E+02  0.53944041305E+00 -0.60571437482E+01  0.23513731911E+02  0.00000000000E+00 0.  1.
<mgrwt>
<rscale>  0 0.80552613E+02</rscale>
<asrwt>0</asrwt>
<pdfrwt beam="1">  1        1 0.38577091E-02 0.80552613E+02</pdfrwt>
<pdfrwt beam="2">  1       -2 0.99527497E-02 0.80552613E+02</pdfrwt>
<totfact> 0.11469064E+05</totfact>
</mgrwt>
</event>
<event>
 8    1  0.1372337E-024  0.7861480E+02  0.7818608E-02  0.1333029E+00
         -2   -1    0    0    0  501 -0.00000000000E+00  0.00000000000E+00  0.18024800203E+03  0.18024800204E+03  0.25500000000E-02 0.  1.
          1   -1    0    0  501    0  0.00000000000E+00 -0.00000000000E+00 -0.85719204382E+01  0.85719219199E+01  0.50400000000E-02 0. -1.
        -24    2    1    2    0    0  0.00000000000E+00 -0.35527136788E-14  0.17167608159E+03  0.18881992396E+03  0.78614799474E+02 0.  0.
         66    2    3    3    0    0  0.34813695491E+02 -0.16315999304E+02  0.10523703033E+03  0.11205818920E+03  0.19999970778E+01 0.  0.
         13    1    3    3    0    0 -0.34813695491E+02  0.16315999304E+02  0.66439051261E+02  0.76761734762E+02  0.10566000000E+00 0. -1.
         13    1    4    4    0    0  0.44066476234E+01 -0.23671271173E+01  0.13264766894E+02  0.14176989767E+02  0.10566000000E+00 0. -1.
        -13    1    4    4    0    0  0.20468015571E+02 -0.90415892258E+01  0.59431929766E+02  0.63504767040E+02  0.10566000000E+00 0.  1.
        -14    1    4    4    0    0  0.99390322975E+01 -0.49072829609E+01  0.32540333666E+02  0.34376432394E+02  0.00000000000E+00 0.  1.
<mgrwt>
<rscale>  0 0.78614799E+02</rscale>
<asrwt>0</asrwt>
<pdfrwt beam="1">  1        1 0.13187572E-02 0.78614799E+02</pdfrwt>
<pdfrwt beam="2">  1       -2 0.27730460E-01 0.78614799E+02</pdfrwt>
<totfact> 0.92681811E+04</totfact>
</mgrwt>
</event>
<event>
 8    1  0.1372337E-024  0.7953293E+02  0.7818608E-02  0.1330382E+00
         -2   -1    0    0    0  501 -0.00000000000E+00  0.00000000000E+00  0.16056515570E+03  0.16056515572E+03  0.25500000000E-02 0.  1.
          1   -1    0    0  501    0  0.00000000000E+00 -0.00000000000E+00 -0.98487837971E+01  0.98487850867E+01  0.50400000000E-02 0. -1.
        -24    2    1    2    0    0  0.00000000000E+00  0.00000000000E+00  0.15071637190E+03  0.17041394080E+03  0.79532926903E+02 0.  0.
         66    2    3    3    0    0  0.21442465833E+02 -0.33045589098E+02  0.86657626606E+02  0.95212050452E+02  0.20000006231E+01 0.  0.
         13    1    3    3    0    0 -0.21442465833E+02  0.33045589098E+02  0.64058745295E+02  0.75201890353E+02  0.10566000000E+00 0. -1.
         13    1    4    4    0    0  0.22078249267E+01 -0.30624561826E+01  0.75269124658E+01  0.84213243662E+01  0.10566000000E+00 0. -1.
        -13    1    4    4    0    0  0.19029220123E+02 -0.29732940333E+02  0.78037258982E+02  0.85650358509E+02  0.10566000000E+00 0.  1.
        -14    1    4    4    0    0  0.20542078308E+00 -0.25019258191E+00  0.10934551583E+01  0.11403675764E+01  0.00000000000E+00 0.  1.
<mgrwt>
<rscale>  0 0.79532927E+02</rscale>
<asrwt>0</asrwt>
<pdfrwt beam="1">  1        1 0.15151977E-02 0.79532927E+02</pdfrwt>
<pdfrwt beam="2">  1       -2 0.24702331E-01 0.79532927E+02</pdfrwt>
<totfact> 0.93772242E+04</totfact>
</mgrwt>
</event>
<event>
 8    1  0.1372337E-024  0.8026203E+02  0.7818608E-02  0.1328309E+00
          1   -1    0    0  501    0  0.00000000000E+00  0.00000000000E+00  0.39266297866E+03  0.39266297869E+03  0.50400000000E-02 0. -1.
         -2   -1    0    0    0  501 -0.00000000000E+00 -0.00000000000E+00 -0.41014775141E+01  0.41014783068E+01  0.25500000000E-02 0.  1.
        -24    2    1    2    0    0  0.00000000000E+00  0.71054273576E-14  0.38856150115E+03  0.39676445700E+03  0.80262034394E+02 0.  0.
         66    2    3    3    0    0  0.57367629275E+01  0.37780001765E+02  0.25459137059E+03  0.25745097586E+03  0.20000024109E+01 0.  0.
         13    1    3    3    0    0 -0.57367629275E+01 -0.37780001765E+02  0.13397013056E+03  0.13931348114E+03  0.10566000000E+00 0. -1.
         13    1    4    4    0    0  0.45555918979E+00  0.62913178952E+01  0.45449527494E+02  0.45885280085E+02  0.10566000000E+00 0. -1.
        -13    1    4    4    0    0  0.40164621697E+01  0.25101871781E+02  0.16718168355E+03  0.16910340746E+03  0.10566000000E+00 0.  1.
         14    1    4    4    0    0  0.12647415680E+01  0.63868120886E+01  0.41960159547E+02  0.42462288317E+02  0.00000000000E+00 0. -1.
<mgrwt>
<rscale>  0 0.80262034E+02</rscale>
<asrwt>0</asrwt>
<pdfrwt beam="1">  1        1 0.60409706E-01 0.80262034E+02</pdfrwt>
<pdfrwt beam="2">  1       -2 0.63099643E-03 0.80262034E+02</pdfrwt>
<totfact> 0.18773627E+05</totfact>
</mgrwt>
</event>
<event>
 8    1  0.1372337E-024  0.7966598E+02  0.7818608E-02  0.1330002E+00
         -2   -1    0    0    0  501 -0.00000000000E+00  0.00000000000E+00  0.19029161144E+02  0.19029161315E+02  0.25500000000E-02 0.  1.
          1   -1    0    0  501    0  0.00000000000E+00 -0.00000000000E+00 -0.83380817394E+02  0.83380817546E+02  0.50400000000E-02 0. -1.
        -24    2    1    2    0    0  0.71054273576E-14  0.00000000000E+00 -0.64351656250E+02  0.10240997886E+03  0.79665978361E+02 0.  0.
         66    2    3    3    0    0 -0.27865832090E+02  0.28427637372E+02 -0.31985198267E+02  0.51104677663E+02  0.20000015634E+01 0.  0.
         13    1    3    3    0    0  0.27865832090E+02 -0.28427637372E+02 -0.32366457983E+02  0.51305301198E+02  0.10566000000E+00 0. -1.
         13    1    4    4    0    0 -0.21135040149E+01  0.23270026219E+01 -0.21817702782E+01  0.38279401779E+01  0.10566000000E+00 0. -1.
        -13    1    4    4    0    0 -0.20780959279E+02  0.21555303438E+02 -0.23686323092E+02  0.38177643203E+02  0.10566000000E+00 0.  1.
         14    1    4    4    0    0 -0.49713687958E+01  0.45453313119E+01 -0.61171048965E+01  0.90990942821E+01  0.00000000000E+00 0. -1.
<mgrwt>
<rscale>  0 0.79665978E+02</rscale>
<asrwt>0</asrwt>
<pdfrwt beam="1">  1        1 0.12827818E-01 0.79665978E+02</pdfrwt>
<pdfrwt beam="2">  1       -2 0.29275633E-02 0.79665978E+02</pdfrwt>
<totfact> 0.14427733E+05</totfact>
</mgrwt>
</event>
<event>
 8    1  0.1372337E-024  0.7774856E+02  0.7818608E-02  0.1335565E+00
         -2   -1    0    0    0  501 -0.00000000000E+00  0.00000000000E+00  0.11967705899E+03  0.11967705902E+03  0.25500000000E-02 0.  1.
          1   -1    0    0  501    0  0.00000000000E+00 -0.00000000000E+00 -0.12627395182E+02  0.12627396187E+02  0.50400000000E-02 0. -1.
        -24    2    1    2    0    0  0.00000000000E+00 -0.17763568394E-14  0.10704966381E+03  0.13230445521E+03  0.77748558479E+02 0.  0.
         66    2    3    3    0    0 -0.10368586096E+02  0.10293040481E+02  0.11481532864E+03  0.11575842927E+03  0.19999993902E+01 0.  0.
         13    1    3    3    0    0  0.10368586096E+02 -0.10293040481E+02 -0.77656648266E+01  0.16546025934E+02  0.10566000000E+00 0. -1.
         13    1    4    4    0    0 -0.26926993150E+01  0.29562494377E+01  0.38013397074E+02  0.38223285593E+02  0.10566000000E+00 0. -1.
        -13    1    4    4    0    0 -0.36149299424E+01  0.34124483149E+01  0.38229238633E+02  0.38551243462E+02  0.10566000000E+00 0.  1.
        -14    1    4    4    0    0 -0.40609568389E+01  0.39243427285E+01  0.38572692931E+02  0.38983900218E+02  0.00000000000E+00 0.  1.
<mgrwt>
<rscale>  0 0.77748558E+02</rscale>
<asrwt>0</asrwt>
<pdfrwt beam="1">  1        1 0.19426763E-02 0.77748558E+02</pdfrwt>
<pdfrwt beam="2">  1       -2 0.18411855E-01 0.77748558E+02</pdfrwt>
<totfact> 0.10891109E+05</totfact>
</mgrwt>
</event>
<event>
 8    1  0.1372337E-024  0.8131122E+02  0.7818608E-02  0.1325371E+00
          1   -1    0    0  501    0  0.00000000000E+00  0.00000000000E+00  0.54408601483E+02  0.54408601716E+02  0.50400000000E-02 0. -1.
         -2   -1    0    0    0  501 -0.00000000000E+00 -0.00000000000E+00 -0.30378995977E+02  0.30378996084E+02  0.25500000000E-02 0.  1.
        -24    2    1    2    0    0 -0.17763568394E-14  0.88817841970E-15  0.24029605506E+02  0.84787597801E+02  0.81311221858E+02 0.  0.
         66    2    3    3    0    0 -0.12434499590E+02  0.28908701814E+01 -0.28200413958E+02  0.31019949464E+02  0.20000017110E+01 0.  0.
         13    1    3    3    0    0  0.12434499590E+02 -0.28908701814E+01  0.52230019464E+02  0.53767648337E+02  0.10566000000E+00 0. -1.
         13    1    4    4    0    0 -0.10498344075E+01  0.60729718687E+00 -0.30358463358E+01  0.32708545010E+01  0.10566000000E+00 0. -1.
        -13    1    4    4    0    0 -0.99913386549E+01  0.20863005908E+01 -0.23051113053E+02  0.25210007443E+02  0.10566000000E+00 0.  1.
        -14    1    4    4    0    0 -0.13933265274E+01  0.19727240375E+00 -0.21134545698E+01  0.25390875195E+01  0.00000000000E+00 0.  1.
<mgrwt>
<rscale>  0 0.81311222E+02</rscale>
<asrwt>0</asrwt>
<pdfrwt beam="1">  1        1 0.83705541E-02 0.81311222E+02</pdfrwt>
<pdfrwt beam="2">  1       -2 0.46736917E-02 0.81311222E+02</pdfrwt>
<totfact> 0.12744896E+05</totfact>
</mgrwt>
</event>
<event>
 8    1  0.1372337E-024  0.7255918E+02  0.7818608E-02  0.1351601E+00
          1   -1    0    0  501    0  0.00000000000E+00  0.00000000000E+00  0.45438156414E+01  0.45438184366E+01  0.50400000000E-02 0. -1.
         -2   -1    0    0    0  501 -0.00000000000E+00 -0.00000000000E+00 -0.28967023106E+03  0.28967023107E+03  0.25500000000E-02 0.  1.
        -24    2    1    2    0    0  0.35527136788E-14 -0.35527136788E-14 -0.28512641542E+03  0.29421404951E+03  0.72559176941E+02 0.  0.
         66    2    3    3    0    0  0.27945284731E+02  0.21628268454E+02 -0.10985907747E+03  0.11541983302E+03  0.20000040246E+01 0.  0.
         13    1    3    3    0    0 -0.27945284731E+02 -0.21628268454E+02 -0.17526733795E+03  0.17879421649E+03  0.10566000000E+00 0. -1.
         13    1    4    4    0    0  0.47470136266E+01  0.33127356808E+01 -0.19391552561E+02  0.20237386956E+02  0.10566000000E+00 0.  1.
        -13    1    4    4    0    0  0.45663500785E+01  0.30078512776E+01 -0.17268753684E+02  0.18114075748E+02  0.10566000000E+00 0.  1.
         14    1    4    4    0    0  0.18631921026E+02  0.15307681495E+02 -0.73198771229E+02  0.77068370317E+02  0.00000000000E+00 0. -1.
<mgrwt>
<rscale>  0 0.72559177E+02</rscale>
<asrwt>0</asrwt>
<pdfrwt beam="1">  1        1 0.69904901E-03 0.72559177E+02</pdfrwt>
<pdfrwt beam="2">  1       -2 0.44564636E-01 0.72559177E+02</pdfrwt>
<totfact> 0.92048735E+04</totfact>
</mgrwt>
</event>
<event>
 8    1  0.1372337E-024  0.7951812E+02  0.7818608E-02  0.1330425E+00
         -2   -1    0    0    0  501 -0.00000000000E+00  0.00000000000E+00  0.58981870453E+02  0.58981870508E+02  0.25500000000E-02 0.  1.
          1   -1    0    0  501    0  0.00000000000E+00 -0.00000000000E+00 -0.26801163964E+02  0.26801164438E+02  0.50400000000E-02 0. -1.
        -24    2    1    2    0    0 -0.17763568394E-14 -0.88817841970E-15  0.32180706489E+02  0.85783034946E+02  0.79518118781E+02 0.  0.
         66    2    3    3    0    0 -0.14416544351E+02 -0.49507855686E+01  0.55685201255E+02  0.57768405428E+02  0.19999995277E+01 0.  0.
         13    1    3    3    0    0  0.14416544351E+02  0.49507855686E+01 -0.23504494766E+02  0.28014629518E+02  0.10566000000E+00 0. -1.
         13    1    4    4    0    0 -0.31596261849E+00 -0.29576941713E-01  0.82029122419E+00  0.88586054199E+00  0.10566000000E+00 0. -1.
        -13    1    4    4    0    0 -0.56309489532E+01 -0.23661206780E+01  0.19951524879E+02  0.20865776338E+02  0.10566000000E+00 0.  1.
        -14    1    4    4    0    0 -0.84696327795E+01 -0.25550879489E+01  0.34913385153E+02  0.36016768548E+02  0.00000000000E+00 0.  1.
<mgrwt>
<rscale>  0 0.79518119E+02</rscale>
<asrwt>0</asrwt>
<pdfrwt beam="1">  1        1 0.41232561E-02 0.79518119E+02</pdfrwt>
<pdfrwt beam="2">  1       -2 0.90741338E-02 0.79518119E+02</pdfrwt>
<totfact> 0.12059425E+05</totfact>
</mgrwt>
</event>
<event>
 8    1  0.1372337E-024  0.7937906E+02  0.7818608E-02  0.1330823E+00
         -2   -1    0    0    0  501 -0.00000000000E+00  0.00000000000E+00  0.18174706237E+03  0.18174706239E+03  0.25500000000E-02 0.  1.
          1   -1    0    0  501    0  0.00000000000E+00 -0.00000000000E+00 -0.86673136194E+01  0.86673150848E+01  0.50400000000E-02 0. -1.
        -24    2    1    2    0    0  0.00000000000E+00  0.88817841970E-15  0.17307974875E+03  0.19041437748E+03  0.79379063492E+02 0.  0.
         66    2    3    3    0    0 -0.26046035330E+02  0.71315706126E+01  0.15628372703E+03  0.15861229004E+03  0.19999898946E+01 0.  0.
         13    1    3    3    0    0  0.26046035330E+02 -0.71315706126E+01  0.16796021722E+02  0.31802087440E+02  0.10566000000E+00 0. -1.
         13    1    4    4    0    0 -0.13101911090E+02  0.37118349170E+01  0.83494886144E+02  0.84598138094E+02  0.10566000000E+00 0. -1.
        -13    1    4    4    0    0 -0.48675808651E+01  0.16701890267E+01  0.27542376063E+02  0.28019216943E+02  0.10566000000E+00 0.  1.
        -14    1    4    4    0    0 -0.80765433749E+01  0.17495466689E+01  0.45246464825E+02  0.45994934999E+02  0.00000000000E+00 0.  1.
<mgrwt>
<rscale>  0 0.79379063E+02</rscale>
<asrwt>0</asrwt>
<pdfrwt beam="1">  1        1 0.13334330E-02 0.79379063E+02</pdfrwt>
<pdfrwt beam="2">  1       -2 0.27961086E-01 0.79379063E+02</pdfrwt>
<totfact> 0.90118927E+04</totfact>
</mgrwt>
</event>
<event>
 8    1  0.1372337E-024  0.8143960E+02  0.7818608E-02  0.1325015E+00
          1   -1    0    0  501    0  0.00000000000E+00  0.00000000000E+00  0.81624396631E+02  0.81624396787E+02  0.50400000000E-02 0. -1.
         -2   -1    0    0    0  501 -0.00000000000E+00 -0.00000000000E+00 -0.20313803305E+02  0.20313803465E+02  0.25500000000E-02 0.  1.
        -24    2    1    2    0    0  0.00000000000E+00 -0.22204460493E-15  0.61310593327E+02  0.10193820025E+03  0.81439596122E+02 0.  0.
         66    2    3    3    0    0 -0.24214954970E+02  0.11332966103E+01 -0.10240852722E+02  0.26391731101E+02  0.20000001615E+01 0.  0.
         13    1    3    3    0    0  0.24214954970E+02 -0.11332966103E+01  0.71551446049E+02  0.75546469150E+02  0.10566000000E+00 0. -1.
         13    1    4    4    0    0 -0.21200955861E+02  0.73919024198E+00 -0.90947484370E+01  0.23081432902E+02  0.10566000000E+00 0. -1.
        -13    1    4    4    0    0 -0.28548045471E+01  0.50858752598E+00 -0.11286019130E+01  0.31134348536E+01  0.10566000000E+00 0.  1.
         14    1    4    4    0    0 -0.15919456169E+00 -0.11448115762E+00 -0.17502372350E-01  0.19686334590E+00  0.00000000000E+00 0. -1.
<mgrwt>
<rscale>  0 0.81439596E+02</rscale>
<asrwt>0</asrwt>
<pdfrwt beam="1">  1        1 0.12557600E-01 0.81439596E+02</pdfrwt>
<pdfrwt beam="2">  1       -2 0.31252005E-02 0.81439596E+02</pdfrwt>
<totfact> 0.13541020E+05</totfact>
</mgrwt>
</event>
<event>
 8    1  0.1372337E-024  0.8001393E+02  0.7818608E-02  0.1329012E+00
          1   -1    0    0  501    0  0.00000000000E+00  0.00000000000E+00  0.30875615904E+03  0.30875615908E+03  0.50400000000E-02 0. -1.
         -2   -1    0    0    0  501 -0.00000000000E+00 -0.00000000000E+00 -0.51838870774E+01  0.51838877046E+01  0.25500000000E-02 0.  1.
        -24    2    1    2    0    0  0.00000000000E+00  0.00000000000E+00  0.30357227196E+03  0.31394004679E+03  0.80013927983E+02 0.  0.
         66    2    3    3    0    0 -0.39454815829E+02  0.51815706679E+01  0.13667413980E+03  0.14236344917E+03  0.20000005765E+01 0.  0.
         13    1    3    3    0    0  0.39454815829E+02 -0.51815706679E+01  0.16689813216E+03  0.17157659762E+03  0.10566000000E+00 0. -1.
         13    1    4    4    0    0 -0.46949876433E+01  0.40448955425E-01  0.15695488758E+02  0.16383042345E+02  0.10566000000E+00 0. -1.
        -13    1    4    4    0    0 -0.14812293980E+02  0.24918680524E+01  0.52426181060E+02  0.54535576315E+02  0.10566000000E+00 0.  1.
        -14    1    4    4    0    0 -0.19947534205E+02  0.26492536600E+01  0.68552469981E+02  0.71444830508E+02  0.00000000000E+00 0.  1.
<mgrwt>
<rscale>  0 0.80013928E+02</rscale>
<asrwt>0</asrwt>
<pdfrwt beam="1">  1        1 0.47500943E-01 0.80013928E+02</pdfrwt>
<pdfrwt beam="2">  1       -2 0.79752122E-03 0.80013928E+02</pdfrwt>
<totfact> 0.18131927E+05</totfact>
</mgrwt>
</event>
<event>
 8    1  0.1372337E-024  0.8080164E+02  0.7818608E-02  0.1326792E+00
          1   -1    0    0  501    0  0.00000000000E+00  0.00000000000E+00  0.44996550809E+01  0.44996579035E+01  0.50400000000E-02 0. -1.
         -2   -1    0    0    0  501 -0.00000000000E+00 -0.00000000000E+00 -0.36274463148E+03  0.36274463149E+03  0.25500000000E-02 0.  1.
        -24    2    1    2    0    0  0.00000000000E+00  0.00000000000E+00 -0.35824497640E+03  0.36724428940E+03  0.80801639688E+02 0.  0.
         66    2    3    3    0    0 -0.18418315513E+01 -0.19213811444E+02 -0.34041380528E+03  0.34096645232E+03  0.19999724439E+01 0.  0.
         13    1    3    3    0    0  0.18418315513E+01  0.19213811444E+02 -0.17831171121E+02  0.26277837073E+02  0.10566000000E+00 0. -1.
         13    1    4    4    0    0 -0.69847376759E+00 -0.71412948620E+01 -0.12851913508E+03  0.12871932724E+03  0.10566000000E+00 0.  1.
        -13    1    4    4    0    0 -0.12743507622E+01 -0.95289310142E+01 -0.17580198837E+03  0.17606468918E+03  0.10566000000E+00 0.  1.
        -14    1    4    4    0    0  0.13099297843E+00 -0.25435855674E+01 -0.36092681822E+02  0.36182435902E+02  0.00000000000E+00 0.  1.
<mgrwt>
<rscale>  0 0.80801640E+02</rscale>
<asrwt>0</asrwt>
<pdfrwt beam="1">  1        1 0.69225513E-03 0.80801640E+02</pdfrwt>
<pdfrwt beam="2">  1       -2 0.55806844E-01 0.80801640E+02</pdfrwt>
<totfact> 0.61317541E+04</totfact>
</mgrwt>
</event>
<event>
 8    1  0.1372337E-024  0.8012788E+02  0.7818608E-02  0.1328689E+00
          1   -1    0    0  501    0  0.00000000000E+00  0.00000000000E+00  0.16398983267E+03  0.16398983275E+03  0.50400000000E-02 0. -1.
         -2   -1    0    0    0  501 -0.00000000000E+00 -0.00000000000E+00 -0.97879187192E+01  0.97879190513E+01  0.25500000000E-02 0.  1.
        -24    2    1    2    0    0  0.00000000000E+00  0.00000000000E+00  0.15420191395E+03  0.17377775180E+03  0.80127877509E+02 0.  0.
         66    2    3    3    0    0 -0.52348273908E+01 -0.24201053108E+02  0.89098842249E+01  0.26390915700E+02  0.20000013070E+01 0.  0.
         13    1    3    3    0    0  0.52348273908E+01  0.24201053108E+02  0.14529202972E+03  0.14738683610E+03  0.10566000000E+00 0. -1.
         13    1    4    4    0    0  0.50659073569E-01 -0.51741508628E+00  0.29938399068E+00  0.60916296894E+00  0.10566000000E+00 0. -1.
        -13    1    4    4    0    0 -0.39316042665E+01 -0.15789267120E+02  0.62598995749E+01  0.17434333226E+02  0.10566000000E+00 0.  1.
        -14    1    4    4    0    0 -0.13538821979E+01 -0.78943709016E+01  0.23506006594E+01  0.83474195053E+01  0.00000000000E+00 0.  1.
<mgrwt>
<rscale>  0 0.80127878E+02</rscale>
<asrwt>0</asrwt>
<pdfrwt beam="1">  1        1 0.25229207E-01 0.80127878E+02</pdfrwt>
<pdfrwt beam="2">  1       -2 0.15058335E-02 0.80127878E+02</pdfrwt>
<totfact> 0.15984446E+05</totfact>
</mgrwt>
</event>
<event>
 8    1  0.1372337E-024  0.8009853E+02  0.7818608E-02  0.1328772E+00
          1   -1    0    0  501    0  0.00000000000E+00  0.00000000000E+00  0.16833902462E+03  0.16833902470E+03  0.50400000000E-02 0. -1.
         -2   -1    0    0    0  501 -0.00000000000E+00 -0.00000000000E+00 -0.95280559263E+01  0.95280562675E+01  0.25500000000E-02 0.  1.
        -24    2    1    2    0    0 -0.71054273576E-14  0.00000000000E+00  0.15881096869E+03  0.17786708096E+03  0.80098531278E+02 0.  0.
         66    2    3    3    0    0 -0.22394317025E+02 -0.32127367615E+02  0.61107569224E+02  0.72607218638E+02  0.19999992249E+01 0.  0.
         13    1    3    3    0    0  0.22394317025E+02  0.32127367615E+02  0.97703399470E+02  0.10525986233E+03  0.10566000000E+00 0. -1.
         13    1    4    4    0    0 -0.30276384999E+01 -0.36858740989E+01  0.76936338898E+01  0.90529237943E+01  0.10566000000E+00 0. -1.
        -13    1    4    4    0    0 -0.32313624436E+01 -0.40760878178E+01  0.74485972119E+01  0.90856457999E+01  0.10566000000E+00 0. -1.
        -14    1    4    4    0    0 -0.16135316082E+02 -0.24365405698E+02  0.45965338123E+02  0.54468649043E+02  0.00000000000E+00 0.  1.
<mgrwt>
<rscale>  0 0.80098531E+02</rscale>
<asrwt>0</asrwt>
<pdfrwt beam="1">  1        1 0.25898312E-01 0.80098531E+02</pdfrwt>
<pdfrwt beam="2">  1       -2 0.14658547E-02 0.80098531E+02</pdfrwt>
<totfact> 0.16079084E+05</totfact>
</mgrwt>
</event>
<event>
 8    1  0.1372337E-024  0.8029766E+02  0.7818608E-02  0.1328209E+00
          1   -1    0    0  501    0  0.00000000000E+00  0.00000000000E+00  0.38613669053E+02  0.38613669382E+02  0.50400000000E-02 0. -1.
         -2   -1    0    0    0  501 -0.00000000000E+00 -0.00000000000E+00 -0.41745026383E+02  0.41745026461E+02  0.25500000000E-02 0.  1.
        -24    2    1    2    0    0  0.00000000000E+00  0.00000000000E+00 -0.31313573307E+01  0.80358695843E+02  0.80297662474E+02 0.  0.
         66    2    3    3    0    0  0.36059071211E+02  0.11818068658E+02 -0.14614974661E+02  0.40712662063E+02  0.20000011215E+01 0.  0.
         13    1    3    3    0    0 -0.36059071211E+02 -0.11818068658E+02  0.11483617331E+02  0.39646033780E+02  0.10566000000E+00 0. -1.
         13    1    4    4    0    0  0.43795533334E+01  0.16658553739E+01 -0.22036327214E+01  0.51790658167E+01  0.10566000000E+00 0. -1.
        -13    1    4    4    0    0  0.10919334635E+02  0.36071803865E+01 -0.49853312340E+01  0.12534285411E+02  0.10566000000E+00 0.  1.
        -14    1    4    4    0    0  0.20760183242E+02  0.65450328977E+01 -0.74260107061E+01  0.22999310835E+02  0.00000000000E+00 0.  1.
<mgrwt>
<rscale>  0 0.80297662E+02</rscale>
<asrwt>0</asrwt>
<pdfrwt beam="1">  1        1 0.59405645E-02 0.80297662E+02</pdfrwt>
<pdfrwt beam="2">  1       -2 0.64223118E-02 0.80297662E+02</pdfrwt>
<totfact> 0.12492914E+05</totfact>
</mgrwt>
</event>
<event>
 8    1  0.1372337E-024  0.8541650E+02  0.7818608E-02  0.1314347E+00
          1   -1    0    0  501    0  0.00000000000E+00  0.00000000000E+00  0.40513922372E+02  0.40513922685E+02  0.50400000000E-02 0. -1.
         -2   -1    0    0    0  501 -0.00000000000E+00 -0.00000000000E+00 -0.45021430627E+02  0.45021430699E+02  0.25500000000E-02 0.  1.
        -24    2    1    2    0    0  0.35527136788E-14  0.00000000000E+00 -0.45075082557E+01  0.85535353384E+02  0.85416503370E+02 0.  0.
         66    2    3    3    0    0 -0.27521252251E+02  0.23558468717E+02 -0.24860029619E+02  0.43982290157E+02  0.20000002610E+01 0.  0.
         13    1    3    3    0    0  0.27521252251E+02 -0.23558468717E+02  0.20352521363E+02  0.41553063228E+02  0.10566000000E+00 0. -1.
         13    1    4    4    0    0 -0.84163330970E+01  0.77970979573E+01 -0.75155272028E+01  0.13715819791E+02  0.10566000000E+00 0. -1.
        -13    1    4    4    0    0 -0.93949343046E+01  0.79510959504E+01 -0.78255492946E+01  0.14585441481E+02  0.10566000000E+00 0.  1.
         14    1    4    4    0    0 -0.97099848493E+01  0.78102748091E+01 -0.95189531215E+01  0.15681028885E+02  0.00000000000E+00 0. -1.
<mgrwt>
<rscale>  0 0.85416503E+02</rscale>
<asrwt>0</asrwt>
<pdfrwt beam="1">  1        1 0.62329112E-02 0.85416503E+02</pdfrwt>
<pdfrwt beam="2">  1       -2 0.69263740E-02 0.85416503E+02</pdfrwt>
<totfact> 0.10568330E+05</totfact>
</mgrwt>
</event>
<event>
 8    1  0.1372337E-024  0.8013896E+02  0.7818608E-02  0.1328658E+00
          1   -1    0    0  501    0  0.00000000000E+00  0.00000000000E+00  0.36126969359E+02  0.36126969711E+02  0.50400000000E-02 0. -1.
         -2   -1    0    0    0  501 -0.00000000000E+00 -0.00000000000E+00 -0.44442231728E+02  0.44442231801E+02  0.25500000000E-02 0.  1.
        -24    2    1    2    0    0  0.17763568394E-14 -0.35527136788E-14 -0.83152623692E+01  0.80569201512E+02  0.80138958341E+02 0.  0.
         66    2    3    3    0    0  0.12371605494E+02 -0.27023147010E+02 -0.31141790770E+02  0.43094294445E+02  0.19999961153E+01 0.  0.
         13    1    3    3    0    0 -0.12371605494E+02  0.27023147010E+02  0.22826528401E+02  0.37474907068E+02  0.10566000000E+00 0. -1.
         13    1    4    4    0    0  0.67415019941E+01 -0.13638228135E+02 -0.15652338156E+02  0.21827871394E+02  0.10566000000E+00 0. -1.
        -13    1    4    4    0    0  0.46681939848E+01 -0.98660613679E+01 -0.11921704288E+02  0.16163829966E+02  0.10566000000E+00 0.  1.
         14    1    4    4    0    0  0.96190951516E+00 -0.35188575073E+01 -0.35677483261E+01  0.51025930850E+01  0.00000000000E+00 0. -1.
<mgrwt>
<rscale>  0 0.80138958E+02</rscale>
<asrwt>0</asrwt>
<pdfrwt beam="1">  1        1 0.55579953E-02 0.80138958E+02</pdfrwt>
<pdfrwt beam="2">  1       -2 0.68372664E-02 0.80138958E+02</pdfrwt>
<totfact> 0.12425254E+05</totfact>
</mgrwt>
</event>
<event>
 8    1  0.1372337E-024  0.8185216E+02  0.7818608E-02  0.1323876E+00
          1   -1    0    0  501    0  0.00000000000E+00  0.00000000000E+00  0.50301846168E+02  0.50301846421E+02  0.50400000000E-02 0. -1.
         -2   -1    0    0    0  501 -0.00000000000E+00 -0.00000000000E+00 -0.33297866794E+02  0.33297866892E+02  0.25500000000E-02 0.  1.
        -24    2    1    2    0    0  0.00000000000E+00 -0.35527136788E-14  0.17003979374E+02  0.83599713313E+02  0.81852163999E+02 0.  0.
         66    2    3    3    0    0 -0.27185451230E+02  0.30176953399E+02  0.13430967934E+02  0.42826255649E+02  0.19999995706E+01 0.  0.
         13    1    3    3    0    0  0.27185451230E+02 -0.30176953399E+02  0.35730114409E+01  0.40773457663E+02  0.10566000000E+00 0. -1.
         13    1    4    4    0    0 -0.20805890165E+01  0.19255908082E+01  0.77860256072E+00  0.29417913930E+01  0.10566000000E+00 0. -1.
        -13    1    4    4    0    0 -0.21832505200E+02  0.23914057035E+02  0.11150829420E+02  0.34247519150E+02  0.10566000000E+00 0.  1.
        -14    1    4    4    0    0 -0.32723570135E+01  0.43373055558E+01  0.15015359532E+01  0.56369451059E+01  0.00000000000E+00 0.  1.
<mgrwt>
<rscale>  0 0.81852164E+02</rscale>
<asrwt>0</asrwt>
<pdfrwt beam="1">  1        1 0.77387456E-02 0.81852164E+02</pdfrwt>
<pdfrwt beam="2">  1       -2 0.51227487E-02 0.81852164E+02</pdfrwt>
<totfact> 0.12355946E+05</totfact>
</mgrwt>
</event>
<event>
 8    1  0.1372337E-024  0.8108756E+02  0.7818608E-02  0.1325993E+00
          1   -1    0    0  501    0  0.00000000000E+00  0.00000000000E+00  0.10796112364E+03  0.10796112375E+03  0.50400000000E-02 0. -1.
         -2   -1    0    0    0  501 -0.00000000000E+00 -0.00000000000E+00 -0.15225832345E+02  0.15225832558E+02  0.25500000000E-02 0.  1.
        -24    2    1    2    0    0  0.00000000000E+00  0.00000000000E+00  0.92735291291E+02  0.12318695631E+03  0.81087557335E+02 0.  0.
         66    2    3    3    0    0  0.16397173820E+02  0.33001819074E+02  0.20802785458E+02  0.42364410380E+02  0.20000031303E+01 0.  0.
         13    1    3    3    0    0 -0.16397173820E+02 -0.33001819074E+02  0.71932505833E+02  0.80822545932E+02  0.10566000000E+00 0. -1.
         13    1    4    4    0    0  0.23762454409E+01  0.51681788516E+01  0.38720884089E+01  0.68819218043E+01  0.10566000000E+00 0. -1.
        -13    1    4    4    0    0  0.82859050710E+01  0.16824982482E+02  0.10721246923E+02  0.21603068254E+02  0.10566000000E+00 0.  1.
        -14    1    4    4    0    0  0.57350233081E+01  0.11008657740E+02  0.62094501262E+01  0.13879420321E+02  0.00000000000E+00 0.  1.
<mgrwt>
<rscale>  0 0.81087557E+02</rscale>
<asrwt>0</asrwt>
<pdfrwt beam="1">  1        1 0.16609404E-01 0.81087557E+02</pdfrwt>
<pdfrwt beam="2">  1       -2 0.23424357E-02 0.81087557E+02</pdfrwt>
<totfact> 0.14358484E+05</totfact>
</mgrwt>
</event>
<event>
 8    1  0.1372337E-024  0.8061884E+02  0.7818608E-02  0.1327304E+00
         -2   -1    0    0    0  501 -0.00000000000E+00  0.00000000000E+00  0.15997359295E+03  0.15997359297E+03  0.25500000000E-02 0.  1.
          1   -1    0    0  501    0  0.00000000000E+00 -0.00000000000E+00 -0.10156983769E+02  0.10156985019E+02  0.50400000000E-02 0. -1.
        -24    2    1    2    0    0  0.00000000000E+00 -0.17763568394E-14  0.14981660918E+03  0.17013057799E+03  0.80618838869E+02 0.  0.
         66    2    3    3    0    0 -0.54256730400E+01  0.12128322172E+02  0.15521010251E+03  0.15579059679E+03  0.19999999320E+01 0.  0.
         13    1    3    3    0    0  0.54256730400E+01 -0.12128322172E+02 -0.53934933261E+01  0.14339981204E+02  0.10566000000E+00 0. -1.
         13    1    4    4    0    0 -0.45091250938E+01  0.87152749707E+01  0.11024794772E+03  0.11068382613E+03  0.10566000000E+00 0. -1.
        -13    1    4    4    0    0 -0.88347317537E+00  0.23815306461E+01  0.28964218228E+02  0.29075579352E+02  0.10566000000E+00 0.  1.
         14    1    4    4    0    0 -0.33074770832E-01  0.10315165550E+01  0.15997936565E+02  0.16031191306E+02  0.00000000000E+00 0. -1.
<mgrwt>
<rscale>  0 0.80618839E+02</rscale>
<asrwt>0</asrwt>
<pdfrwt beam="1">  1        1 0.15626130E-02 0.80618839E+02</pdfrwt>
<pdfrwt beam="2">  1       -2 0.24611321E-01 0.80618839E+02</pdfrwt>
<totfact> 0.90668901E+04</totfact>
</mgrwt>
</event>
<event>
 8    1  0.1372337E-024  0.7869820E+02  0.7818608E-02  0.1332787E+00
         -2   -1    0    0    0  501 -0.00000000000E+00  0.00000000000E+00  0.12674785685E+02  0.12674785942E+02  0.25500000000E-02 0.  1.
          1   -1    0    0  501    0  0.00000000000E+00 -0.00000000000E+00 -0.12215998823E+03  0.12215998833E+03  0.50400000000E-02 0. -1.
        -24    2    1    2    0    0 -0.71054273576E-14  0.17763568394E-14 -0.10948520254E+03  0.13483477427E+03  0.78698200601E+02 0.  0.
         66    2    3    3    0    0  0.34461363636E+02 -0.94193230821E+01 -0.82932445379E+02  0.90322199557E+02  0.20000013156E+01 0.  0.
         13    1    3    3    0    0 -0.34461363636E+02  0.94193230821E+01 -0.26552757164E+02  0.44512574718E+02  0.10566000000E+00 0. -1.
         13    1    4    4    0    0  0.72775421905E+01 -0.19255584068E+01 -0.18236025246E+02  0.19729018636E+02  0.10566000000E+00 0. -1.
        -13    1    4    4    0    0  0.24990622520E+02 -0.70501627715E+01 -0.60515316345E+02  0.65850973306E+02  0.10566000000E+00 0.  1.
        -14    1    4    4    0    0  0.21931989254E+01 -0.44360190375E+00 -0.41811037882E+01  0.47422076150E+01  0.00000000000E+00 0.  1.
<mgrwt>
<rscale>  0 0.78698201E+02</rscale>
<asrwt>0</asrwt>
<pdfrwt beam="1">  1        1 0.18793844E-01 0.78698201E+02</pdfrwt>
<pdfrwt beam="2">  1       -2 0.19499671E-02 0.78698201E+02</pdfrwt>
<totfact> 0.15898810E+05</totfact>
</mgrwt>
</event>
<event>
 8    1  0.1372337E-024  0.8037620E+02  0.7818608E-02  0.1327987E+00
          1   -1    0    0  501    0  0.00000000000E+00  0.00000000000E+00  0.30438344235E+02  0.30438344652E+02  0.50400000000E-02 0. -1.
         -2   -1    0    0    0  501 -0.00000000000E+00 -0.00000000000E+00 -0.53060813290E+02  0.53060813352E+02  0.25500000000E-02 0.  1.
        -24    2    1    2    0    0  0.71054273576E-14  0.00000000000E+00 -0.22622469056E+02  0.83499158004E+02  0.80376198474E+02 0.  0.
         66    2    3    3    0    0  0.38446767455E+02 -0.11358095105E+02 -0.87909818174E+01  0.41090651129E+02  0.19999991887E+01 0.  0.
         13    1    3    3    0    0 -0.38446767455E+02  0.11358095105E+02 -0.13831487238E+02  0.42408506875E+02  0.10566000000E+00 0. -1.
         13    1    4    4    0    0  0.17586682412E+02 -0.60708802876E+01 -0.36066812825E+01  0.18951683292E+02  0.10566000000E+00 0. -1.
        -13    1    4    4    0    0  0.18627063444E+02 -0.47283300566E+01 -0.45075547115E+01  0.19739650736E+02  0.10566000000E+00 0.  1.
        -14    1    4    4    0    0  0.22330215992E+01 -0.55888476039E+00 -0.67674582340E+00  0.23993171002E+01  0.00000000000E+00 0.  1.
<mgrwt>
<rscale>  0 0.80376198E+02</rscale>
<asrwt>0</asrwt>
<pdfrwt beam="1">  1        1 0.46828222E-02 0.80376198E+02</pdfrwt>
<pdfrwt beam="2">  1       -2 0.81632020E-02 0.80376198E+02</pdfrwt>
<totfact> 0.11963522E+05</totfact>
</mgrwt>
</event>
<event>
 8    1  0.1372337E-024  0.7992799E+02  0.7818608E-02  0.1329256E+00
         -2   -1    0    0    0  501 -0.00000000000E+00  0.00000000000E+00  0.24638082684E+02  0.24638082816E+02  0.25500000000E-02 0.  1.
          1   -1    0    0  501    0  0.00000000000E+00 -0.00000000000E+00 -0.64823269388E+02  0.64823269584E+02  0.50400000000E-02 0. -1.
        -24    2    1    2    0    0  0.00000000000E+00 -0.88817841970E-15 -0.40185186704E+02  0.89461352400E+02  0.79927994738E+02 0.  0.
         66    2    3    3    0    0  0.33099885963E+02  0.70769159773E+01  0.36232377122E+01  0.34100044573E+02  0.19999994636E+01 0.  0.
         13    1    3    3    0    0 -0.33099885963E+02 -0.70769159773E+01 -0.43808424416E+02  0.55361307827E+02  0.10566000000E+00 0. -1.
         13    1    4    4    0    0  0.86654986368E+01  0.17203430143E+01  0.90335410700E+00  0.88813095537E+01  0.10566000000E+00 0. -1.
        -13    1    4    4    0    0  0.21966097552E+01  0.82592317875E+00 -0.89873200880E-01  0.23508476645E+01  0.10566000000E+00 0.  1.
        -14    1    4    4    0    0  0.22237777571E+02  0.45306497842E+01  0.28097568060E+01  0.22867887355E+02  0.00000000000E+00 0.  1.
<mgrwt>
<rscale>  0 0.79927995E+02</rscale>
<asrwt>0</asrwt>
<pdfrwt beam="1">  1        1 0.99728107E-02 0.79927995E+02</pdfrwt>
<pdfrwt beam="2">  1       -2 0.37904743E-02 0.79927995E+02</pdfrwt>
<totfact> 0.13737547E+05</totfact>
</mgrwt>
</event>
<event>
 8    1  0.1372337E-024  0.8072158E+02  0.7818608E-02  0.1327016E+00
          1   -1    0    0  501    0  0.00000000000E+00  0.00000000000E+00  0.61470275587E+01  0.61470296249E+01  0.50400000000E-02 0. -1.
         -2   -1    0    0    0  501 -0.00000000000E+00 -0.00000000000E+00 -0.26500499351E+03  0.26500499353E+03  0.25500000000E-02 0.  1.
        -24    2    1    2    0    0  0.00000000000E+00  0.17763568394E-14 -0.25885796595E+03  0.27115202315E+03  0.80721577787E+02 0.  0.
         66    2    3    3    0    0 -0.37882451770E+02 -0.10930970293E+02 -0.15809455758E+03  0.16294924179E+03  0.19999996400E+01 0.  0.
         13    1    3    3    0    0  0.37882451770E+02  0.10930970293E+02 -0.10076340837E+03  0.10820278136E+03  0.10566000000E+00 0. -1.
         13    1    4    4    0    0 -0.11681013545E+02 -0.42934953959E+01 -0.49390296744E+02  0.50934200266E+02  0.10566000000E+00 0.  1.
        -13    1    4    4    0    0 -0.60431202067E+01 -0.16283109120E+01 -0.24671119313E+02  0.25452818910E+02  0.10566000000E+00 0.  1.
         14    1    4    4    0    0 -0.20158318018E+02 -0.50091639856E+01 -0.84033141526E+02  0.86562222614E+02  0.00000000000E+00 0. -1.
<mgrwt>
<rscale>  0 0.80721578E+02</rscale>
<asrwt>0</asrwt>
<pdfrwt beam="1">  1        1 0.94569691E-03 0.80721578E+02</pdfrwt>
<pdfrwt beam="2">  1       -2 0.40769990E-01 0.80721578E+02</pdfrwt>
<totfact> 0.73237180E+04</totfact>
</mgrwt>
</event>
<event>
 8    1  0.1372337E-024  0.7896165E+02  0.7818608E-02  0.1332024E+00
         -2   -1    0    0    0  501 -0.00000000000E+00  0.00000000000E+00  0.19278476728E+03  0.19278476730E+03  0.25500000000E-02 0.  1.
          1   -1    0    0  501    0  0.00000000000E+00 -0.00000000000E+00 -0.80853657032E+01  0.80853672740E+01  0.50400000000E-02 0. -1.
        -24    2    1    2    0    0  0.17763568394E-14  0.00000000000E+00  0.18469940158E+03  0.20087013457E+03  0.78961649044E+02 0.  0.
         66    2    3    3    0    0 -0.13828039451E+02 -0.36931681317E+02  0.89224538305E+02  0.97571419957E+02  0.19999991888E+01 0.  0.
         13    1    3    3    0    0  0.13828039451E+02  0.36931681317E+02  0.95474863272E+02  0.10329871461E+03  0.10566000000E+00 0. -1.
         13    1    4    4    0    0 -0.24345499207E+01 -0.60934975025E+01  0.15869790861E+02  0.17173210857E+02  0.10566000000E+00 0. -1.
        -13    1    4    4    0    0 -0.90641534452E+01 -0.22698898529E+02  0.54617992941E+02  0.59837573389E+02  0.10566000000E+00 0.  1.
         14    1    4    4    0    0 -0.23293360852E+01 -0.81392852861E+01  0.18736754503E+02  0.20560635712E+02  0.00000000000E+00 0. -1.
<mgrwt>
<rscale>  0 0.78961649E+02</rscale>
<asrwt>0</asrwt>
<pdfrwt beam="1">  1        1 0.12439025E-02 0.78961649E+02</pdfrwt>
<pdfrwt beam="2">  1       -2 0.29659196E-01 0.78961649E+02</pdfrwt>
<totfact> 0.89293792E+04</totfact>
</mgrwt>
</event>
<event>
 8    1  0.1372337E-024  0.7908666E+02  0.7818608E-02  0.1331664E+00
         -2   -1    0    0    0  501 -0.00000000000E+00  0.00000000000E+00  0.57638386177E+03  0.57638386178E+03  0.25500000000E-02 0.  1.
          1   -1    0    0  501    0  0.00000000000E+00 -0.00000000000E+00 -0.27129032449E+01  0.27129079265E+01  0.50400000000E-02 0. -1.
        -24    2    1    2    0    0  0.00000000000E+00  0.00000000000E+00  0.57367095852E+03  0.57909676970E+03  0.79086661482E+02 0.  0.
         66    2    3    3    0    0 -0.21289569613E+02 -0.13858681493E+02  0.50867530316E+03  0.50931313833E+03  0.20000009812E+01 0.  0.
         13    1    3    3    0    0  0.21289569613E+02  0.13858681493E+02  0.64995655362E+02  0.69783631369E+02  0.10566000000E+00 0. -1.
         13    1    4    4    0    0 -0.85766257295E+01 -0.60067837425E+01  0.22255560108E+03  0.22280181035E+03  0.10566000000E+00 0. -1.
        -13    1    4    4    0    0 -0.75604705782E+01 -0.48829993835E+01  0.18071390965E+03  0.18093792500E+03  0.10566000000E+00 0.  1.
        -14    1    4    4    0    0 -0.51524733051E+01 -0.29688983673E+01  0.10540579243E+03  0.10557340298E+03  0.00000000000E+00 0.  1.
<mgrwt>
<rscale>  0 0.79086661E+02</rscale>
<asrwt>0</asrwt>
<pdfrwt beam="1">  1        1 0.41736946E-03 0.79086661E+02</pdfrwt>
<pdfrwt beam="2">  1       -2 0.88674575E-01 0.79086661E+02</pdfrwt>
<totfact> 0.46320093E+04</totfact>
</mgrwt>
</event>
<event>
 8    1  0.1372337E-024  0.8238784E+02  0.7818608E-02  0.1322408E+00
          1   -1    0    0  501    0  0.00000000000E+00  0.00000000000E+00  0.10529556967E+03  0.10529556979E+03  0.50400000000E-02 0. -1.
         -2   -1    0    0    0  501 -0.00000000000E+00 -0.00000000000E+00 -0.16115958139E+02  0.16115958341E+02  0.25500000000E-02 0.  1.
        -24    2    1    2    0    0  0.00000000000E+00  0.00000000000E+00  0.89179611533E+02  0.12141152813E+03  0.82387839216E+02 0.  0.
         66    2    3    3    0    0  0.34569974640E+02 -0.16573421485E+02  0.22502658431E+02  0.44498663896E+02  0.20000014430E+01 0.  0.
         13    1    3    3    0    0 -0.34569974640E+02  0.16573421485E+02  0.66676953102E+02  0.76912864238E+02  0.10566000000E+00 0. -1.
         13    1    4    4    0    0  0.10940864574E+02 -0.51232328517E+01  0.64864845429E+01  0.13712610190E+02  0.10566000000E+00 0. -1.
        -13    1    4    4    0    0  0.46318240760E+01 -0.18760800340E+01  0.25838166655E+01  0.56267879969E+01  0.10566000000E+00 0.  1.
        -14    1    4    4    0    0  0.18997285990E+02 -0.95741085989E+01  0.13432357222E+02  0.25159265709E+02  0.00000000000E+00 0.  1.
<mgrwt>
<rscale>  0 0.82387839E+02</rscale>
<asrwt>0</asrwt>
<pdfrwt beam="1">  1        1 0.16199319E-01 0.82387839E+02</pdfrwt>
<pdfrwt beam="2">  1       -2 0.24793781E-02 0.82387839E+02</pdfrwt>
<totfact> 0.13694623E+05</totfact>
</mgrwt>
</event>
<event>
 8    1  0.1372337E-024  0.7961526E+02  0.7818608E-02  0.1330147E+00
         -2   -1    0    0    0  501 -0.00000000000E+00  0.00000000000E+00  0.23289841647E+03  0.23289841648E+03  0.25500000000E-02 0.  1.
          1   -1    0    0  501    0  0.00000000000E+00 -0.00000000000E+00 -0.68040279276E+01  0.68040297942E+01  0.50400000000E-02 0. -1.
        -24    2    1    2    0    0  0.35527136788E-14  0.00000000000E+00  0.22609438854E+03  0.23970244628E+03  0.79615263746E+02 0.  0.
         66    2    3    3    0    0 -0.28277568757E+02 -0.19336277993E+02  0.17401686608E+03  0.17736792895E+03  0.19999989437E+01 0.  0.
         13    1    3    3    0    0  0.28277568757E+02  0.19336277993E+02  0.52077522456E+02  0.62334517329E+02  0.10566000000E+00 0. -1.
         13    1    4    4    0    0 -0.10557204368E+02 -0.71019091252E+01  0.63984229037E+02  0.65237139781E+02  0.10566000000E+00 0. -1.
        -13    1    4    4    0    0 -0.17142092100E+02 -0.11453930062E+02  0.10538253259E+03  0.10738032024E+03  0.10566000000E+00 0.  1.
         14    1    4    4    0    0 -0.57827228992E+00 -0.78043880543E+00  0.46501044587E+01  0.47504689291E+01  0.00000000000E+00 0. -1.
<mgrwt>
<rscale>  0 0.79615264E+02</rscale>
<asrwt>0</asrwt>
<pdfrwt beam="1">  1        1 0.10467736E-02 0.79615264E+02</pdfrwt>
<pdfrwt beam="2">  1       -2 0.35830529E-01 0.79615264E+02</pdfrwt>
<totfact> 0.80695003E+04</totfact>
</mgrwt>
</event>
<event>
 8    1  0.1372337E-024  0.7814476E+02  0.7818608E-02  0.1334400E+00
          1   -1    0    0  501    0  0.00000000000E+00  0.00000000000E+00  0.58424497388E+02  0.58424497606E+02  0.50400000000E-02 0. -1.
         -2   -1    0    0    0  501 -0.00000000000E+00 -0.00000000000E+00 -0.26130318178E+02  0.26130318302E+02  0.25500000000E-02 0.  1.
        -24    2    1    2    0    0  0.35527136788E-14  0.17763568394E-14  0.32294179210E+02  0.84554815908E+02  0.78144755949E+02 0.  0.
         66    2    3    3    0    0 -0.24227868905E+02 -0.75937088616E+01 -0.15940350954E+02  0.30045778949E+02  0.19999995406E+01 0.  0.
         13    1    3    3    0    0  0.24227868905E+02  0.75937088616E+01  0.48234530165E+02  0.54509036959E+02  0.10566000000E+00 0. -1.
         13    1    4    4    0    0 -0.45703851244E+01 -0.15202565540E+01 -0.25796198829E+01  0.54649064906E+01  0.10566000000E+00 0. -1.
        -13    1    4    4    0    0 -0.37207337104E+01 -0.53235710033E+00 -0.24579940249E+01  0.44922335300E+01  0.10566000000E+00 0.  1.
        -14    1    4    4    0    0 -0.15936750070E+02 -0.55410952073E+01 -0.10902737046E+02  0.20088638928E+02  0.00000000000E+00 0.  1.
<mgrwt>
<rscale>  0 0.78144756E+02</rscale>
<asrwt>0</asrwt>
<pdfrwt beam="1">  1        1 0.89883841E-02 0.78144756E+02</pdfrwt>
<pdfrwt beam="2">  1       -2 0.40200490E-02 0.78144756E+02</pdfrwt>
<totfact> 0.14382388E+05</totfact>
</mgrwt>
</event>
<event>
 8    1  0.1372337E-024  0.8245469E+02  0.7818608E-02  0.1322226E+00
          1   -1    0    0  501    0  0.00000000000E+00  0.00000000000E+00  0.73415654954E+02  0.73415655127E+02  0.50400000000E-02 0. -1.
         -2   -1    0    0    0  501 -0.00000000000E+00 -0.00000000000E+00 -0.23151653740E+02  0.23151653881E+02  0.25500000000E-02 0.  1.
        -24    2    1    2    0    0  0.71054273576E-14  0.00000000000E+00  0.50264001213E+02  0.96567309008E+02  0.82454686653E+02 0.  0.
         66    2    3    3    0    0  0.34350397739E+02 -0.28282673483E+01 -0.12949383228E+01  0.34548889719E+02  0.19999986296E+01 0.  0.
         13    1    3    3    0    0 -0.34350397739E+02  0.28282673483E+01  0.51558939536E+02  0.62018419289E+02  0.10566000000E+00 0. -1.
         13    1    4    4    0    0  0.23515771530E+01 -0.51474060115E-03 -0.42437858895E+00  0.23918981153E+01  0.10566000000E+00 0. -1.
        -13    1    4    4    0    0  0.10362596923E+02 -0.12024549766E+01 -0.74826547594E+00  0.10459463572E+02  0.10566000000E+00 0.  1.
        -14    1    4    4    0    0  0.21636223663E+02 -0.16252976311E+01 -0.12229425792E+00  0.21697528031E+02  0.00000000000E+00 0.  1.
<mgrwt>
<rscale>  0 0.82454687E+02</rscale>
<asrwt>0</asrwt>
<pdfrwt beam="1">  1        1 0.11294716E-01 0.82454687E+02</pdfrwt>
<pdfrwt beam="2">  1       -2 0.35617929E-02 0.82454687E+02</pdfrwt>
<totfact> 0.12865597E+05</totfact>
</mgrwt>
</event>
<event>
 8    1  0.1372337E-024  0.8032422E+02  0.7818608E-02  0.1328134E+00
         -2   -1    0    0    0  501 -0.00000000000E+00  0.00000000000E+00  0.10894681686E+03  0.10894681689E+03  0.25500000000E-02 0.  1.
          1   -1    0    0  501    0  0.00000000000E+00 -0.00000000000E+00 -0.14805342687E+02  0.14805343545E+02  0.50400000000E-02 0. -1.
        -24    2    1    2    0    0  0.00000000000E+00 -0.35527136788E-14  0.94141474172E+02  0.12375216043E+03  0.80324218346E+02 0.  0.
         66    2    3    3    0    0 -0.22968147186E+02  0.29380013245E+02  0.24234213298E+02  0.44519861147E+02  0.19999947368E+01 0.  0.
         13    1    3    3    0    0  0.22968147186E+02 -0.29380013245E+02  0.69907260874E+02  0.79232299288E+02  0.10566000000E+00 0. -1.
         13    1    4    4    0    0 -0.72645440565E+01  0.88068490873E+01  0.80866692917E+01  0.13990696032E+02  0.10566000000E+00 0. -1.
        -13    1    4    4    0    0 -0.40462503782E+01  0.47415785308E+01  0.43291339760E+01  0.75899455930E+01  0.10566000000E+00 0.  1.
        -14    1    4    4    0    0 -0.11657352751E+02  0.15831585627E+02  0.11818410030E+02  0.22939219522E+02  0.00000000000E+00 0.  1.
<mgrwt>
<rscale>  0 0.80324218E+02</rscale>
<asrwt>0</asrwt>
<pdfrwt beam="1">  1        1 0.22777451E-02 0.80324218E+02</pdfrwt>
<pdfrwt beam="2">  1       -2 0.16761048E-01 0.80324218E+02</pdfrwt>
<totfact> 0.10276018E+05</totfact>
</mgrwt>
</event>
<event>
 8    1  0.1372337E-024  0.7928462E+02  0.7818608E-02  0.1331094E+00
          1   -1    0    0  501    0  0.00000000000E+00  0.00000000000E+00  0.34626959077E+02  0.34626959444E+02  0.50400000000E-02 0. -1.
         -2   -1    0    0    0  501 -0.00000000000E+00 -0.00000000000E+00 -0.45384077626E+02  0.45384077697E+02  0.25500000000E-02 0.  1.
        -24    2    1    2    0    0 -0.35527136788E-14 -0.35527136788E-14 -0.10757118549E+02  0.80011037141E+02  0.79284616824E+02 0.  0.
         66    2    3    3    0    0  0.29511654299E+02  0.25077990955E+02 -0.13804958761E+02  0.41163336259E+02  0.19999989499E+01 0.  0.
         13    1    3    3    0    0 -0.29511654299E+02 -0.25077990955E+02  0.30478402116E+01  0.38847700882E+02  0.10566000000E+00 0. -1.
         13    1    4    4    0    0  0.10611658369E+02  0.82002714124E+01 -0.44831849946E+01  0.14140786976E+02  0.10566000000E+00 0. -1.
        -13    1    4    4    0    0  0.87671825992E+01  0.82285605534E+01 -0.39246483439E+01  0.12648586015E+02  0.10566000000E+00 0.  1.
        -14    1    4    4    0    0  0.10132813331E+02  0.86491589890E+01 -0.53971254220E+01  0.14373963268E+02  0.00000000000E+00 0.  1.
<mgrwt>
<rscale>  0 0.79284617E+02</rscale>
<asrwt>0</asrwt>
<pdfrwt beam="1">  1        1 0.53272245E-02 0.79284617E+02</pdfrwt>
<pdfrwt beam="2">  1       -2 0.69821658E-02 0.79284617E+02</pdfrwt>
<totfact> 0.12718674E+05</totfact>
</mgrwt>
</event>
<event>
 8    1  0.1372337E-024  0.8572958E+02  0.7818608E-02  0.1313536E+00
          1   -1    0    0  501    0  0.00000000000E+00  0.00000000000E+00  0.53807661473E+02  0.53807661710E+02  0.50400000000E-02 0. -1.
         -2   -1    0    0    0  501 -0.00000000000E+00 -0.00000000000E+00 -0.34147375001E+02  0.34147375096E+02  0.25500000000E-02 0.  1.
        -24    2    1    2    0    0  0.00000000000E+00  0.88817841970E-15  0.19660286472E+02  0.87955036806E+02  0.85729584365E+02 0.  0.
         66    2    3    3    0    0  0.38508404371E+02 -0.62104556660E+01 -0.83421987212E+01  0.39938192805E+02  0.19999995659E+01 0.  0.
         13    1    3    3    0    0 -0.38508404371E+02  0.62104556660E+01  0.28002485194E+02  0.48016844001E+02  0.10566000000E+00 0. -1.
         13    1    4    4    0    0  0.85277336531E+01 -0.81356349462E+00 -0.16211547124E+01  0.87191417843E+01  0.10566000000E+00 0. -1.
        -13    1    4    4    0    0  0.18373578722E+02 -0.28631671156E+01 -0.45084843180E+01  0.19134359563E+02  0.10566000000E+00 0.  1.
         14    1    4    4    0    0  0.11607091995E+02 -0.25337250558E+01 -0.22125596908E+01  0.12084691458E+02  0.00000000000E+00 0. -1.
<mgrwt>
<rscale>  0 0.85729584E+02</rscale>
<asrwt>0</asrwt>
<pdfrwt beam="1">  1        1 0.82781018E-02 0.85729584E+02</pdfrwt>
<pdfrwt beam="2">  1       -2 0.52534423E-02 0.85729584E+02</pdfrwt>
<totfact> 0.10975501E+05</totfact>
</mgrwt>
</event>
<event>
 8    1  0.1372337E-024  0.7966476E+02  0.7818608E-02  0.1330005E+00
          1   -1    0    0  501    0  0.00000000000E+00  0.00000000000E+00  0.83687273385E+02  0.83687273536E+02  0.50400000000E-02 0. -1.
         -2   -1    0    0    0  501 -0.00000000000E+00 -0.00000000000E+00 -0.18958899344E+02  0.18958899516E+02  0.25500000000E-02 0.  1.
        -24    2    1    2    0    0 -0.35527136788E-14  0.00000000000E+00  0.64728374040E+02  0.10264617305E+03  0.79664762827E+02 0.  0.
         66    2    3    3    0    0 -0.26157280755E+02 -0.17784430913E+02  0.12437727968E+01  0.31718075104E+02  0.19999995401E+01 0.  0.
         13    1    3    3    0    0  0.26157280755E+02  0.17784430913E+02  0.63484601244E+02  0.70928097948E+02  0.10566000000E+00 0. -1.
         13    1    4    4    0    0 -0.18435030919E+01 -0.17122362421E+01  0.39598161020E+00  0.25491610521E+01  0.10566000000E+00 0. -1.
        -13    1    4    4    0    0 -0.22816133286E+02 -0.15227133733E+02  0.93838112897E+00  0.27446917186E+02  0.10566000000E+00 0.  1.
        -14    1    4    4    0    0 -0.14976443765E+01 -0.84506093831E+00 -0.90589942393E-01  0.17219968657E+01  0.00000000000E+00 0.  1.
<mgrwt>
<rscale>  0 0.79664763E+02</rscale>
<asrwt>0</asrwt>
<pdfrwt beam="1">  1        1 0.12874965E-01 0.79664763E+02</pdfrwt>
<pdfrwt beam="2">  1       -2 0.29167538E-02 0.79664763E+02</pdfrwt>
<totfact> 0.14436902E+05</totfact>
</mgrwt>
</event>
<event>
 8    1  0.1372337E-024  0.7870916E+02  0.7818608E-02  0.1332755E+00
         -2   -1    0    0    0  501 -0.00000000000E+00  0.00000000000E+00  0.72921100902E+01  0.72921105361E+01  0.25500000000E-02 0.  1.
          1   -1    0    0  501    0  0.00000000000E+00 -0.00000000000E+00 -0.21239161410E+03  0.21239161416E+03  0.50400000000E-02 0. -1.
        -24    2    1    2    0    0  0.00000000000E+00  0.00000000000E+00 -0.20509950401E+03  0.21968372469E+03  0.78709163069E+02 0.  0.
         66    2    3    3    0    0 -0.12258419587E+02 -0.36954815671E+02 -0.87113111052E+02  0.95439097692E+02  0.19999997572E+01 0.  0.
         13    1    3    3    0    0  0.12258419587E+02  0.36954815671E+02 -0.11798639295E+03  0.12424462700E+03  0.10566000000E+00 0. -1.
         13    1    4    4    0    0 -0.38292386226E+01 -0.12059307922E+02 -0.28058521893E+02  0.30779567749E+02  0.10566000000E+00 0. -1.
        -13    1    4    4    0    0 -0.84605404824E+01 -0.24434440878E+02 -0.57726089061E+02  0.63252945928E+02  0.10566000000E+00 0.  1.
         14    1    4    4    0    0  0.31359518387E-01 -0.46106687209E+00 -0.13285000974E+01  0.14065840141E+01  0.00000000000E+00 0. -1.
<mgrwt>
<rscale>  0 0.78709163E+02</rscale>
<asrwt>0</asrwt>
<pdfrwt beam="1">  1        1 0.32675628E-01 0.78709163E+02</pdfrwt>
<pdfrwt beam="2">  1       -2 0.11218633E-02 0.78709163E+02</pdfrwt>
<totfact> 0.17613043E+05</totfact>
</mgrwt>
</event>
<event>
 8    1  0.1372337E-024  0.7863645E+02  0.7818608E-02  0.1332966E+00
          1   -1    0    0  501    0  0.00000000000E+00  0.00000000000E+00  0.12189782681E+03  0.12189782691E+03  0.50400000000E-02 0. -1.
         -2   -1    0    0    0  501 -0.00000000000E+00 -0.00000000000E+00 -0.12682118820E+02  0.12682119076E+02  0.25500000000E-02 0.  1.
        -24    2    1    2    0    0 -0.71054273576E-14  0.00000000000E+00  0.10921570799E+03  0.13457994599E+03  0.78636448235E+02 0.  0.
         66    2    3    3    0    0 -0.33958261981E+02  0.41627508524E+01  0.21571221654E+02  0.40494563488E+02  0.20000042544E+01 0.  0.
         13    1    3    3    0    0  0.33958261981E+02 -0.41627508524E+01  0.87644486335E+02  0.94085382501E+02  0.10566000000E+00 0. -1.
         13    1    4    4    0    0 -0.16602935815E+02  0.21206848123E+01  0.11103512290E+02  0.20086162674E+02  0.10566000000E+00 0. -1.
        -13    1    4    4    0    0 -0.70792660888E+01  0.48444842050E+00  0.48306123051E+01  0.85846769250E+01  0.10566000000E+00 0.  1.
        -14    1    4    4    0    0 -0.10276060077E+02  0.15576176197E+01  0.56370970589E+01  0.11823723889E+02  0.00000000000E+00 0.  1.
<mgrwt>
<rscale>  0 0.78636448E+02</rscale>
<asrwt>0</asrwt>
<pdfrwt beam="1">  1        1 0.18753512E-01 0.78636448E+02</pdfrwt>
<pdfrwt beam="2">  1       -2 0.19510952E-02 0.78636448E+02</pdfrwt>
<totfact> 0.15926309E+05</totfact>
</mgrwt>
</event>
<event>
 8    1  0.1372337E-024  0.7742665E+02  0.7818608E-02  0.1336517E+00
          1   -1    0    0  501    0  0.00000000000E+00  0.00000000000E+00  0.46403438750E+01  0.46403466120E+01  0.50400000000E-02 0. -1.
         -2   -1    0    0    0  501 -0.00000000000E+00 -0.00000000000E+00 -0.32297633856E+03  0.32297633857E+03  0.25500000000E-02 0.  1.
        -24    2    1    2    0    0  0.00000000000E+00  0.17763568394E-14 -0.31833599469E+03  0.32761668519E+03  0.77426654956E+02 0.  0.
         66    2    3    3    0    0 -0.14783612433E+02  0.11616385749E+02 -0.30234129129E+03  0.30293192642E+03  0.20000030233E+01 0.  0.
         13    1    3    3    0    0  0.14783612433E+02 -0.11616385749E+02 -0.15994703400E+02  0.24684758766E+02  0.10566000000E+00 0. -1.
         13    1    4    4    0    0 -0.46541850025E+01  0.42501490081E+01 -0.10551989104E+03  0.10570801187E+03  0.10566000000E+00 0. -1.
        -13    1    4    4    0    0 -0.21354910143E+01  0.14732270340E+01 -0.33189249083E+02  0.33290661431E+02  0.10566000000E+00 0. -1.
        -14    1    4    4    0    0 -0.79939364159E+01  0.58930097069E+01 -0.16363215116E+03  0.16393325311E+03  0.00000000000E+00 0.  1.
<mgrwt>
<rscale>  0 0.77426655E+02</rscale>
<asrwt>0</asrwt>
<pdfrwt beam="1">  1        1 0.71389953E-03 0.77426655E+02</pdfrwt>
<pdfrwt beam="2">  1       -2 0.49688650E-01 0.77426655E+02</pdfrwt>
<totfact> 0.73370639E+04</totfact>
</mgrwt>
</event>
<event>
 8    1  0.1372337E-024  0.8002179E+02  0.7818608E-02  0.1328990E+00
          1   -1    0    0  501    0  0.00000000000E+00  0.00000000000E+00  0.71434880105E+01  0.71434897884E+01  0.50400000000E-02 0. -1.
         -2   -1    0    0    0  501 -0.00000000000E+00 -0.00000000000E+00 -0.22410220684E+03  0.22410220685E+03  0.25500000000E-02 0.  1.
        -24    2    1    2    0    0  0.44408920985E-15  0.00000000000E+00 -0.21695871883E+03  0.23124569664E+03  0.80021787906E+02 0.  0.
         66    2    3    3    0    0 -0.22778200898E+01  0.39808892360E+02 -0.11718265187E+03  0.12379705274E+03  0.19999979396E+01 0.  0.
         13    1    3    3    0    0  0.22778200898E+01 -0.39808892360E+02 -0.99776066959E+02  0.10744864391E+03  0.10566000000E+00 0. -1.
         13    1    4    4    0    0 -0.14743747190E+01  0.15819261367E+02 -0.45973261462E+02  0.48641286419E+02  0.10566000000E+00 0. -1.
        -13    1    4    4    0    0 -0.86258334526E+00  0.89756670976E+01 -0.27172056114E+02  0.28629328448E+02  0.10566000000E+00 0.  1.
         14    1    4    4    0    0  0.59137974399E-01  0.15013963896E+02 -0.44037334293E+02  0.46526437870E+02  0.00000000000E+00 0. -1.
<mgrwt>
<rscale>  0 0.80021788E+02</rscale>
<asrwt>0</asrwt>
<pdfrwt beam="1">  1        1 0.10989985E-02 0.80021788E+02</pdfrwt>
<pdfrwt beam="2">  1       -2 0.34477257E-01 0.80021788E+02</pdfrwt>
<totfact> 0.81022647E+04</totfact>
</mgrwt>
</event>
<event>
 8    1  0.1372337E-024  0.8335734E+02  0.7818608E-02  0.1319785E+00
          1   -1    0    0  501    0  0.00000000000E+00  0.00000000000E+00  0.11635799066E+02  0.11635800158E+02  0.50400000000E-02 0. -1.
         -2   -1    0    0    0  501 -0.00000000000E+00 -0.00000000000E+00 -0.14929027245E+03  0.14929027247E+03  0.25500000000E-02 0.  1.
        -24    2    1    2    0    0  0.00000000000E+00 -0.35527136788E-14 -0.13765447338E+03  0.16092607263E+03  0.83357344063E+02 0.  0.
         66    2    3    3    0    0  0.12470952100E+02 -0.24219511695E+02 -0.12970217715E+03  0.13254721479E+03  0.19999992249E+01 0.  0.
         13    1    3    3    0    0 -0.12470952100E+02  0.24219511695E+02 -0.79522962316E+01  0.28378857842E+02  0.10566000000E+00 0. -1.
         13    1    4    4    0    0  0.67455364857E+00 -0.10138843033E+01 -0.76308035892E+01  0.77280858858E+01  0.10566000000E+00 0. -1.
        -13    1    4    4    0    0  0.33127187062E+01 -0.61742126771E+01 -0.31269284928E+02  0.32044880268E+02  0.10566000000E+00 0.  1.
         14    1    4    4    0    0  0.84836797452E+01 -0.17031414714E+02 -0.90802088633E+02  0.92774248632E+02  0.00000000000E+00 0. -1.
<mgrwt>
<rscale>  0 0.83357344E+02</rscale>
<asrwt>0</asrwt>
<pdfrwt beam="1">  1        1 0.17901231E-02 0.83357344E+02</pdfrwt>
<pdfrwt beam="2">  1       -2 0.22967733E-01 0.83357344E+02</pdfrwt>
<totfact> 0.85144928E+04</totfact>
</mgrwt>
</event>
<event>
 8    1  0.1372337E-024  0.8043223E+02  0.7818608E-02  0.1327829E+00
         -2   -1    0    0    0  501 -0.00000000000E+00  0.00000000000E+00  0.11500494780E+03  0.11500494782E+03  0.25500000000E-02 0.  1.
          1   -1    0    0  501    0  0.00000000000E+00 -0.00000000000E+00 -0.14063184151E+02  0.14063185054E+02  0.50400000000E-02 0. -1.
        -24    2    1    2    0    0 -0.17763568394E-14  0.35527136788E-14  0.10094176364E+03  0.12906813288E+03  0.80432227849E+02 0.  0.
         66    2    3    3    0    0 -0.15095705040E+02  0.16956402698E+02  0.10372160502E+03  0.10619590987E+03  0.20000056167E+01 0.  0.
         13    1    3    3    0    0  0.15095705040E+02 -0.16956402698E+02 -0.27798413753E+01  0.22872223006E+02  0.10566000000E+00 0. -1.
         13    1    4    4    0    0 -0.10904092042E+01  0.89203065688E+00  0.56636261189E+01  0.58371684724E+01  0.10566000000E+00 0. -1.
        -13    1    4    4    0    0 -0.55441759993E+01  0.54013708626E+01  0.37241432289E+02  0.38037457035E+02  0.10566000000E+00 0.  1.
        -14    1    4    4    0    0 -0.84611198364E+01  0.10663001179E+02  0.60816546612E+02  0.62321284364E+02  0.00000000000E+00 0.  1.
<mgrwt>
<rscale>  0 0.80432228E+02</rscale>
<asrwt>0</asrwt>
<pdfrwt beam="1">  1        1 0.21635668E-02 0.80432228E+02</pdfrwt>
<pdfrwt beam="2">  1       -2 0.17693070E-01 0.80432228E+02</pdfrwt>
<totfact> 0.10093485E+05</totfact>
</mgrwt>
</event>
<event>
 8    1  0.1372337E-024  0.7870362E+02  0.7818608E-02  0.1332771E+00
          1   -1    0    0  501    0  0.00000000000E+00  0.00000000000E+00  0.14481079054E+03  0.14481079063E+03  0.50400000000E-02 0. -1.
         -2   -1    0    0    0  501 -0.00000000000E+00 -0.00000000000E+00 -0.10693711787E+02  0.10693712091E+02  0.25500000000E-02 0.  1.
        -24    2    1    2    0    0  0.00000000000E+00  0.00000000000E+00  0.13411707876E+03  0.15550450272E+03  0.78703618423E+02 0.  0.
         66    2    3    3    0    0 -0.34205738384E+02  0.19206310986E+02  0.72564804793E+02  0.82514034070E+02  0.20000009116E+01 0.  0.
         13    1    3    3    0    0  0.34205738384E+02 -0.19206310986E+02  0.61552273962E+02  0.72990468652E+02  0.10566000000E+00 0. -1.
         13    1    4    4    0    0 -0.61022095283E+00  0.24800712288E+00  0.16960374250E+01  0.18225213653E+01  0.10566000000E+00 0.  1.
        -13    1    4    4    0    0 -0.94211778847E+01  0.52787608641E+01  0.19109436280E+02  0.21950071252E+02  0.10566000000E+00 0. -1.
        -14    1    4    4    0    0 -0.24174339547E+02  0.13679542999E+02  0.51759331088E+02  0.58741441452E+02  0.00000000000E+00 0.  1.
<mgrwt>
<rscale>  0 0.78703618E+02</rscale>
<asrwt>0</asrwt>
<pdfrwt beam="1">  1        1 0.22278584E-01 0.78703618E+02</pdfrwt>
<pdfrwt beam="2">  1       -2 0.16451864E-02 0.78703618E+02</pdfrwt>
<totfact> 0.16386456E+05</totfact>
</mgrwt>
</event>
<event>
 8    1  0.1372337E-024  0.7966210E+02  0.7818608E-02  0.1330013E+00
          1   -1    0    0  501    0  0.00000000000E+00  0.00000000000E+00  0.19024824481E+02  0.19024825149E+02  0.50400000000E-02 0. -1.
         -2   -1    0    0    0  501 -0.00000000000E+00 -0.00000000000E+00 -0.83391694241E+02  0.83391694280E+02  0.25500000000E-02 0.  1.
        -24    2    1    2    0    0  0.00000000000E+00  0.00000000000E+00 -0.64366869759E+02  0.10241651943E+03  0.79662095938E+02 0.  0.
         66    2    3    3    0    0  0.35340379428E+02  0.10609513265E+02 -0.51402454849E+02  0.63306528277E+02  0.19999920373E+01 0.  0.
         13    1    3    3    0    0 -0.35340379428E+02 -0.10609513265E+02 -0.12964414910E+02  0.39109991151E+02  0.10566000000E+00 0. -1.
         13    1    4    4    0    0  0.10513457484E+02  0.40058255446E+01 -0.15136366148E+02  0.18860015132E+02  0.10566000000E+00 0. -1.
        -13    1    4    4    0    0  0.58625130480E+01  0.17604230672E+01 -0.87543614507E+01  0.10682610030E+02  0.10566000000E+00 0.  1.
        -14    1    4    4    0    0  0.18964408896E+02  0.48432646533E+01 -0.27511727250E+02  0.33763903115E+02  0.00000000000E+00 0.  1.
<mgrwt>
<rscale>  0 0.79662096E+02</rscale>
<asrwt>0</asrwt>
<pdfrwt beam="1">  1        1 0.29268962E-02 0.79662096E+02</pdfrwt>
<pdfrwt beam="2">  1       -2 0.12829491E-01 0.79662096E+02</pdfrwt>
<totfact> 0.11195224E+05</totfact>
</mgrwt>
</event>
<event>
 8    1  0.1372337E-024  0.7766111E+02  0.7818608E-02  0.1335823E+00
          1   -1    0    0  501    0  0.00000000000E+00  0.00000000000E+00  0.58571233909E+02  0.58571234126E+02  0.50400000000E-02 0. -1.
         -2   -1    0    0    0  501 -0.00000000000E+00 -0.00000000000E+00 -0.25743213944E+02  0.25743214070E+02  0.25500000000E-02 0.  1.
        -24    2    1    2    0    0  0.00000000000E+00  0.00000000000E+00  0.32828019965E+02  0.84314448197E+02  0.77661105322E+02 0.  0.
         66    2    3    3    0    0 -0.52089945901E+01 -0.36499474614E+02  0.32859248934E+01  0.37069429232E+02  0.20000023639E+01 0.  0.
         13    1    3    3    0    0  0.52089945901E+01  0.36499474614E+02  0.29542095072E+02  0.47245018965E+02  0.10566000000E+00 0. -1.
         13    1    4    4    0    0 -0.90903869703E+00 -0.89390520322E+01  0.15218767678E+01  0.91137410277E+01  0.10566000000E+00 0. -1.
        -13    1    4    4    0    0 -0.26290511493E+01 -0.17024531177E+02  0.81344039754E+00  0.17245852286E+02  0.10566000000E+00 0.  1.
         14    1    4    4    0    0 -0.16709047438E+01 -0.10535891404E+02  0.95060772802E+00  0.10709835918E+02  0.00000000000E+00 0. -1.
<mgrwt>
<rscale>  0 0.77661105E+02</rscale>
<asrwt>0</asrwt>
<pdfrwt beam="1">  1        1 0.90109591E-02 0.77661105E+02</pdfrwt>
<pdfrwt beam="2">  1       -2 0.39604945E-02 0.77661105E+02</pdfrwt>
<totfact> 0.14635483E+05</totfact>
</mgrwt>
</event>
<event>
 8    1  0.1372337E-024  0.7942258E+02  0.7818608E-02  0.1330698E+00
          1   -1    0    0  501    0  0.00000000000E+00  0.00000000000E+00  0.15743429957E+02  0.15743430764E+02  0.50400000000E-02 0. -1.
         -2   -1    0    0    0  501 -0.00000000000E+00 -0.00000000000E+00 -0.10016791197E+03  0.10016791200E+03  0.25500000000E-02 0.  1.
        -24    2    1    2    0    0  0.00000000000E+00 -0.88817841970E-15 -0.84424482008E+02  0.11591134276E+03  0.79422580030E+02 0.  0.
         66    2    3    3    0    0  0.13954165860E+02  0.78275117100E+01 -0.95242266671E+02  0.96597505404E+02  0.20000013052E+01 0.  0.
         13    1    3    3    0    0 -0.13954165860E+02 -0.78275117100E+01  0.10817784663E+02  0.19313837358E+02  0.10566000000E+00 0. -1.
         13    1    4    4    0    0  0.10910801869E+02  0.65981991244E+01 -0.76374889190E+02  0.77432013353E+02  0.10566000000E+00 0. -1.
        -13    1    4    4    0    0  0.30793752806E+01  0.12074696882E+01 -0.18320319653E+02  0.18616815286E+02  0.10566000000E+00 0.  1.
        -14    1    4    4    0    0 -0.36011289404E-01  0.21842897453E-01 -0.54705782788E+00  0.54867676475E+00  0.00000000000E+00 0.  1.
<mgrwt>
<rscale>  0 0.79422580E+02</rscale>
<asrwt>0</asrwt>
<pdfrwt beam="1">  1        1 0.24220663E-02 0.79422580E+02</pdfrwt>
<pdfrwt beam="2">  1       -2 0.15410448E-01 0.79422580E+02</pdfrwt>
<totfact> 0.10806856E+05</totfact>
</mgrwt>
</event>
<event>
 8    1  0.1372337E-024  0.7973191E+02  0.7818608E-02  0.1329814E+00
          1   -1    0    0  501    0  0.00000000000E+00  0.00000000000E+00  0.14587969893E+02  0.14587970764E+02  0.50400000000E-02 0. -1.
         -2   -1    0    0    0  501 -0.00000000000E+00 -0.00000000000E+00 -0.10894554559E+03  0.10894554562E+03  0.25500000000E-02 0.  1.
        -24    2    1    2    0    0  0.00000000000E+00  0.00000000000E+00 -0.94357575699E+02  0.12353351639E+03  0.79731910668E+02 0.  0.
         66    2    3    3    0    0 -0.35885162517E+02  0.24813446352E+01 -0.73746709981E+02  0.82076057349E+02  0.19999992063E+01 0.  0.
         13    1    3    3    0    0  0.35885162517E+02 -0.24813446352E+01 -0.20610865718E+02  0.41457459037E+02  0.10566000000E+00 0. -1.
         13    1    4    4    0    0 -0.15092225037E+02  0.14688362339E+01 -0.31091318767E+02  0.34592108972E+02  0.10566000000E+00 0. -1.
        -13    1    4    4    0    0 -0.94590956085E+01  0.66955695059E+00 -0.20899717017E+02  0.22950645561E+02  0.10566000000E+00 0.  1.
         14    1    4    4    0    0 -0.11333841872E+02  0.34295145072E+00 -0.21755674197E+02  0.24533302816E+02  0.00000000000E+00 0. -1.
<mgrwt>
<rscale>  0 0.79731911E+02</rscale>
<asrwt>0</asrwt>
<pdfrwt beam="1">  1        1 0.22443032E-02 0.79731911E+02</pdfrwt>
<pdfrwt beam="2">  1       -2 0.16760853E-01 0.79731911E+02</pdfrwt>
<totfact> 0.10472859E+05</totfact>
</mgrwt>
</event>
<event>
 8    1  0.1372337E-024  0.8749815E+02  0.7818608E-02  0.1309026E+00
          1   -1    0    0  501    0  0.00000000000E+00  0.00000000000E+00  0.10165563836E+02  0.10165565085E+02  0.50400000000E-02 0. -1.
         -2   -1    0    0    0  501 -0.00000000000E+00 -0.00000000000E+00 -0.18828090414E+03  0.18828090416E+03  0.25500000000E-02 0.  1.
        -24    2    1    2    0    0  0.00000000000E+00  0.88817841970E-15 -0.17811534030E+03  0.19844646924E+03  0.87498152571E+02 0.  0.
         66    2    3    3    0    0  0.37749080379E+02 -0.53439621258E+01 -0.40544042110E+02  0.55689948371E+02  0.19999995522E+01 0.  0.
         13    1    3    3    0    0 -0.37749080379E+02  0.53439621258E+01 -0.13757129819E+03  0.14275652087E+03  0.10566000000E+00 0. -1.
         13    1    4    4    0    0  0.15411452353E+02 -0.24899486484E+01 -0.17886646910E+02  0.23741440765E+02  0.10566000000E+00 0.  1.
        -13    1    4    4    0    0  0.79829147273E+01 -0.12378450457E+01 -0.81140899075E+01  0.11450275410E+02  0.10566000000E+00 0. -1.
        -14    1    4    4    0    0  0.14354713299E+02 -0.16161684317E+01 -0.14543305293E+02  0.20498232196E+02  0.00000000000E+00 0.  1.
<mgrwt>
<rscale>  0 0.87498153E+02</rscale>
<asrwt>0</asrwt>
<pdfrwt beam="1">  1        1 0.15639331E-02 0.87498153E+02</pdfrwt>
<pdfrwt beam="2">  1       -2 0.28966290E-01 0.87498153E+02</pdfrwt>
<totfact> 0.69122946E+04</totfact>
</mgrwt>
</event>
<event>
 8    1  0.1372337E-024  0.7649803E+02  0.7818608E-02  0.1339294E+00
          1   -1    0    0  501    0  0.00000000000E+00  0.00000000000E+00  0.96334287659E+02  0.96334287791E+02  0.50400000000E-02 0. -1.
         -2   -1    0    0    0  501 -0.00000000000E+00 -0.00000000000E+00 -0.15186567448E+02  0.15186567662E+02  0.25500000000E-02 0.  1.
        -24    2    1    2    0    0 -0.13877787808E-16  0.00000000000E+00  0.81147720211E+02  0.11152085545E+03  0.76498030729E+02 0.  0.
         66    2    3    3    0    0 -0.11731452705E+00 -0.17091950255E+02 -0.92389628092E+01  0.19532203122E+02  0.19999996923E+01 0.  0.
         13    1    3    3    0    0  0.11731452705E+00  0.17091950255E+02  0.90386683020E+02  0.91988652331E+02  0.10566000000E+00 0. -1.
         13    1    4    4    0    0 -0.34685000780E+00 -0.14352513849E+01 -0.60521196841E+00  0.15992801594E+01  0.10566000000E+00 0. -1.
        -13    1    4    4    0    0 -0.36279901459E+00 -0.14641705572E+01 -0.77986617770E+00  0.17014034901E+01  0.10566000000E+00 0.  1.
        -14    1    4    4    0    0  0.59233449533E+00 -0.14192528313E+02 -0.78538846631E+01  0.16231519472E+02  0.00000000000E+00 0.  1.
<mgrwt>
<rscale>  0 0.76498031E+02</rscale>
<asrwt>0</asrwt>
<pdfrwt beam="1">  1        1 0.14820660E-01 0.76498031E+02</pdfrwt>
<pdfrwt beam="2">  1       -2 0.23363950E-02 0.76498031E+02</pdfrwt>
<totfact> 0.16482363E+05</totfact>
</mgrwt>
</event>
<event>
 8    1  0.1372337E-024  0.7761870E+02  0.7818608E-02  0.1335948E+00
          1   -1    0    0  501    0  0.00000000000E+00  0.00000000000E+00  0.13215749186E+02  0.13215750147E+02  0.50400000000E-02 0. -1.
         -2   -1    0    0    0  501 -0.00000000000E+00 -0.00000000000E+00 -0.11396747063E+03  0.11396747065E+03  0.25500000000E-02 0.  1.
        -24    2    1    2    0    0  0.00000000000E+00 -0.17763568394E-14 -0.10075172144E+03  0.12718322080E+03  0.77618698006E+02 0.  0.
         66    2    3    3    0    0  0.18272443190E+02  0.78924078334E+01 -0.10495121461E+03  0.10684067454E+03  0.20000015349E+01 0.  0.
         13    1    3    3    0    0 -0.18272443190E+02 -0.78924078334E+01  0.41994931696E+01  0.20342546263E+02  0.10566000000E+00 0. -1.
         13    1    4    4    0    0  0.31300391746E+01  0.66146792598E+00 -0.17981597065E+02  0.18264273380E+02  0.10566000000E+00 0. -1.
        -13    1    4    4    0    0  0.10583528982E+02  0.47028748691E+01 -0.60022697102E+02  0.61129889981E+02  0.10566000000E+00 0.  1.
         14    1    4    4    0    0  0.45588750338E+01  0.25280650383E+01 -0.26946920443E+02  0.27446511177E+02  0.00000000000E+00 0. -1.
<mgrwt>
<rscale>  0 0.77618698E+02</rscale>
<asrwt>0</asrwt>
<pdfrwt beam="1">  1        1 0.20331923E-02 0.77618698E+02</pdfrwt>
<pdfrwt beam="2">  1       -2 0.17533456E-01 0.77618698E+02</pdfrwt>
<totfact> 0.11085407E+05</totfact>
</mgrwt>
</event>
<event>
 8    1  0.1372337E-024  0.7967643E+02  0.7818608E-02  0.1329972E+00
          1   -1    0    0  501    0  0.00000000000E+00  0.00000000000E+00  0.19346569039E+03  0.19346569045E+03  0.50400000000E-02 0. -1.
         -2   -1    0    0    0  501 -0.00000000000E+00 -0.00000000000E+00 -0.82034356950E+01  0.82034360914E+01  0.25500000000E-02 0.  1.
        -24    2    1    2    0    0 -0.71054273576E-14  0.44408920985E-15  0.18526225469E+03  0.20166912654E+03  0.79676430565E+02 0.  0.
         66    2    3    3    0    0  0.36903105054E+02 -0.25181116193E+01  0.55412606830E+02  0.66653859768E+02  0.19999943856E+01 0.  0.
         13    1    3    3    0    0 -0.36903105054E+02  0.25181116193E+01  0.12984964786E+03  0.13501526678E+03  0.10566000000E+00 0. -1.
         13    1    4    4    0    0  0.25888518167E+01 -0.53694099324E+00  0.37568518305E+01  0.45951669252E+01  0.10566000000E+00 0. -1.
        -13    1    4    4    0    0  0.12912170103E+02 -0.13454127485E+01  0.19390726285E+02  0.23335503040E+02  0.10566000000E+00 0.  1.
        -14    1    4    4    0    0  0.21402083134E+02 -0.63575787756E+00  0.32265028715E+02  0.38723189803E+02  0.00000000000E+00 0.  1.
<mgrwt>
<rscale>  0 0.79676431E+02</rscale>
<asrwt>0</asrwt>
<pdfrwt beam="1">  1        1 0.29763949E-01 0.79676431E+02</pdfrwt>
<pdfrwt beam="2">  1       -2 0.12620672E-02 0.79676431E+02</pdfrwt>
<totfact> 0.16746262E+05</totfact>
</mgrwt>
</event>
<event>
 8    1  0.1372337E-024  0.8127394E+02  0.7818608E-02  0.1325475E+00
          1   -1    0    0  501    0  0.00000000000E+00  0.00000000000E+00  0.38386472816E+02  0.38386473147E+02  0.50400000000E-02 0. -1.
         -2   -1    0    0    0  501 -0.00000000000E+00 -0.00000000000E+00 -0.43019403205E+02  0.43019403280E+02  0.25500000000E-02 0.  1.
        -24    2    1    2    0    0  0.17763568394E-14  0.00000000000E+00 -0.46329303889E+01  0.81405876427E+02  0.81273935999E+02 0.  0.
         66    2    3    3    0    0 -0.11361275175E+02  0.30806572910E+02 -0.26257180509E+02  0.42089939895E+02  0.20000009929E+01 0.  0.
         13    1    3    3    0    0  0.11361275175E+02 -0.30806572910E+02  0.21624250120E+02  0.39315936532E+02  0.10566000000E+00 0. -1.
         13    1    4    4    0    0 -0.10222076915E+01  0.19845402284E+01 -0.20924831964E+01  0.30615287759E+01  0.10566000000E+00 0. -1.
        -13    1    4    4    0    0 -0.98025679504E+01  0.27976094327E+02 -0.23292361397E+02  0.37700098881E+02  0.10566000000E+00 0.  1.
        -14    1    4    4    0    0 -0.53649953298E+00  0.84593835553E+00 -0.87233591596E+00  0.13283122376E+01  0.00000000000E+00 0.  1.
<mgrwt>
<rscale>  0 0.81273936E+02</rscale>
<asrwt>0</asrwt>
<pdfrwt beam="1">  1        1 0.59056112E-02 0.81273936E+02</pdfrwt>
<pdfrwt beam="2">  1       -2 0.66183698E-02 0.81273936E+02</pdfrwt>
<totfact> 0.12061084E+05</totfact>
</mgrwt>
</event>
<event>
 8    1  0.1372337E-024  0.7497286E+02  0.7818608E-02  0.1343955E+00
          1   -1    0    0  501    0  0.00000000000E+00  0.00000000000E+00  0.10378067584E+02  0.10378068808E+02  0.50400000000E-02 0. -1.
         -2   -1    0    0    0  501 -0.00000000000E+00 -0.00000000000E+00 -0.13540404791E+03  0.13540404794E+03  0.25500000000E-02 0.  1.
        -24    2    1    2    0    0  0.00000000000E+00  0.35527136788E-14 -0.12502598033E+03  0.14578211675E+03  0.74972860459E+02 0.  0.
         66    2    3    3    0    0 -0.25278545089E+02 -0.23101896823E+02 -0.92080270832E+02  0.98262295440E+02  0.19999874892E+01 0.  0.
         13    1    3    3    0    0  0.25278545089E+02  0.23101896823E+02 -0.32945709499E+02  0.47519821307E+02  0.10566000000E+00 0. -1.
         13    1    4    4    0    0 -0.39186057036E+00 -0.42070468237E+00 -0.19786233739E+01  0.20631678622E+01  0.10566000000E+00 0. -1.
        -13    1    4    4    0    0 -0.49715189316E+01 -0.52442444546E+01 -0.20145481372E+02  0.21402562560E+02  0.10566000000E+00 0.  1.
        -14    1    4    4    0    0 -0.19915165587E+02 -0.17436947686E+02 -0.69956166086E+02  0.74796565018E+02  0.00000000000E+00 0.  1.
<mgrwt>
<rscale>  0 0.74972860E+02</rscale>
<asrwt>0</asrwt>
<pdfrwt beam="1">  1        1 0.15966260E-02 0.74972860E+02</pdfrwt>
<pdfrwt beam="2">  1       -2 0.20831391E-01 0.74972860E+02</pdfrwt>
<totfact> 0.11531641E+05</totfact>
</mgrwt>
</event>
<event>
 8    1  0.1372337E-024  0.7697983E+02  0.7818608E-02  0.1337847E+00
          1   -1    0    0  501    0  0.00000000000E+00  0.00000000000E+00  0.28031741275E+02  0.28031741728E+02  0.50400000000E-02 0. -1.
         -2   -1    0    0    0  501 -0.00000000000E+00 -0.00000000000E+00 -0.52849856501E+02  0.52849856562E+02  0.25500000000E-02 0.  1.
        -24    2    1    2    0    0 -0.88817841970E-15  0.00000000000E+00 -0.24818115226E+02  0.80881598290E+02  0.76979829167E+02 0.  0.
         66    2    3    3    0    0 -0.43372893902E+01  0.37459789573E+02 -0.44556880550E+01  0.38025005817E+02  0.19999993095E+01 0.  0.
         13    1    3    3    0    0  0.43372893902E+01 -0.37459789573E+02 -0.20362427171E+02  0.42856592473E+02  0.10566000000E+00 0. -1.
         13    1    4    4    0    0 -0.52454850327E+00  0.32464168641E+01 -0.36418074273E+00  0.33103119546E+01  0.10566000000E+00 0.  1.
        -13    1    4    4    0    0 -0.36013919088E+01  0.32882024685E+02 -0.42762055849E+01  0.33354080250E+02  0.10566000000E+00 0.  1.
        -14    1    4    4    0    0 -0.21134897815E+00  0.13313480240E+01  0.18469827261E+00  0.13606136129E+01  0.00000000000E+00 0.  1.
<mgrwt>
<rscale>  0 0.76979829E+02</rscale>
<asrwt>0</asrwt>
<pdfrwt beam="1">  1        1 0.43125756E-02 0.76979829E+02</pdfrwt>
<pdfrwt beam="2">  1       -2 0.81307471E-02 0.76979829E+02</pdfrwt>
<totfact> 0.13347329E+05</totfact>
</mgrwt>
</event>
<event>
 8    1  0.1372337E-024  0.8018432E+02  0.7818608E-02  0.1328529E+00
          1   -1    0    0  501    0  0.00000000000E+00  0.00000000000E+00  0.47239942787E+02  0.47239943056E+02  0.50400000000E-02 0. -1.
         -2   -1    0    0    0  501 -0.00000000000E+00 -0.00000000000E+00 -0.34025889626E+02  0.34025889721E+02  0.25500000000E-02 0.  1.
        -24    2    1    2    0    0  0.71054273576E-14  0.00000000000E+00  0.13214053161E+02  0.81265832777E+02  0.80184315025E+02 0.  0.
         66    2    3    3    0    0 -0.34490756020E+02 -0.70642345786E+01 -0.12774343506E+02  0.37505992896E+02  0.19999975209E+01 0.  0.
         13    1    3    3    0    0  0.34490756020E+02  0.70642345786E+01  0.25988396668E+02  0.43759839881E+02  0.10566000000E+00 0. -1.
         13    1    4    4    0    0 -0.10765153495E+01 -0.10935994873E+00 -0.94039724016E-01  0.10912618390E+01  0.10566000000E+00 0. -1.
        -13    1    4    4    0    0 -0.15179501823E+02 -0.34544536199E+01 -0.57884256202E+01  0.16609261290E+02  0.10566000000E+00 0.  1.
        -14    1    4    4    0    0 -0.18234738848E+02 -0.35004210100E+01 -0.68918781621E+01  0.19805469767E+02  0.00000000000E+00 0.  1.
<mgrwt>
<rscale>  0 0.80184315E+02</rscale>
<asrwt>0</asrwt>
<pdfrwt beam="1">  1        1 0.72676835E-02 0.80184315E+02</pdfrwt>
<pdfrwt beam="2">  1       -2 0.52347523E-02 0.80184315E+02</pdfrwt>
<totfact> 0.12956403E+05</totfact>
</mgrwt>
</event>
<event>
 8    1  0.1372337E-024  0.8206271E+02  0.7818608E-02  0.1323298E+00
         -2   -1    0    0    0  501 -0.00000000000E+00  0.00000000000E+00  0.17986123418E+02  0.17986123598E+02  0.25500000000E-02 0.  1.
          1   -1    0    0  501    0  0.00000000000E+00 -0.00000000000E+00 -0.93603942612E+02  0.93603942748E+02  0.50400000000E-02 0. -1.
        -24    2    1    2    0    0  0.00000000000E+00  0.00000000000E+00 -0.75617819194E+02  0.11159006635E+03  0.82062709725E+02 0.  0.
         66    2    3    3    0    0 -0.10857034731E+02 -0.33099693424E+02 -0.84108068979E+01  0.35891594936E+02  0.20000016186E+01 0.  0.
         13    1    3    3    0    0  0.10857034731E+02  0.33099693424E+02 -0.67207012296E+02  0.75698471410E+02  0.10566000000E+00 0. -1.
         13    1    4    4    0    0 -0.71336333538E+01 -0.21249916892E+02 -0.51350949181E+01  0.22996261796E+02  0.10566000000E+00 0. -1.
        -13    1    4    4    0    0 -0.34804859578E+01 -0.11094325583E+02 -0.27666685395E+01  0.11952550418E+02  0.10566000000E+00 0.  1.
         14    1    4    4    0    0 -0.24291541955E+00 -0.75545094844E+00 -0.50904344025E+00  0.94278272185E+00  0.00000000000E+00 0. -1.
<mgrwt>
<rscale>  0 0.82062710E+02</rscale>
<asrwt>0</asrwt>
<pdfrwt beam="1">  1        1 0.14400606E-01 0.82062710E+02</pdfrwt>
<pdfrwt beam="2">  1       -2 0.27670960E-02 0.82062710E+02</pdfrwt>
<totfact> 0.13567541E+05</totfact>
</mgrwt>
</event>
<event>
 8    1  0.1372337E-024  0.8012073E+02  0.7818608E-02  0.1328709E+00
         -2   -1    0    0    0  501 -0.00000000000E+00  0.00000000000E+00  0.22026915198E+02  0.22026915346E+02  0.25500000000E-02 0.  1.
          1   -1    0    0  501    0  0.00000000000E+00 -0.00000000000E+00 -0.72857807023E+02  0.72857807197E+02  0.50400000000E-02 0. -1.
        -24    2    1    2    0    0  0.22204460493E-15  0.71054273576E-14 -0.50830891824E+02  0.94884722542E+02  0.80120727707E+02 0.  0.
         66    2    3    3    0    0  0.15473485550E+01  0.26681066114E+02  0.98702787604E+01  0.28560391781E+02  0.19999998323E+01 0.  0.
         13    1    3    3    0    0 -0.15473485550E+01 -0.26681066114E+02 -0.60701170585E+02  0.66324330761E+02  0.10566000000E+00 0. -1.
         13    1    4    4    0    0 -0.20295246300E+00  0.64256215162E+01  0.22270667963E+01  0.68044685408E+01  0.10566000000E+00 0.  1.
        -13    1    4    4    0    0 -0.14983791820E+00  0.37424204929E+01  0.14464516181E+01  0.40164099475E+01  0.10566000000E+00 0. -1.
        -14    1    4    4    0    0  0.19001389362E+01  0.16513024105E+02  0.61967603459E+01  0.17739513293E+02  0.00000000000E+00 0.  1.
<mgrwt>
<rscale>  0 0.80120728E+02</rscale>
<asrwt>0</asrwt>
<pdfrwt beam="1">  1        1 0.11208893E-01 0.80120728E+02</pdfrwt>
<pdfrwt beam="2">  1       -2 0.33887562E-02 0.80120728E+02</pdfrwt>
<totfact> 0.13901518E+05</totfact>
</mgrwt>
</event>
<event>
 8    1  0.1372337E-024  0.8051523E+02  0.7818608E-02  0.1327596E+00
         -2   -1    0    0    0  501 -0.00000000000E+00  0.00000000000E+00  0.23134409488E+02  0.23134409629E+02  0.25500000000E-02 0.  1.
          1   -1    0    0  501    0  0.00000000000E+00 -0.00000000000E+00 -0.70054754484E+02  0.70054754665E+02  0.50400000000E-02 0. -1.
        -24    2    1    2    0    0  0.00000000000E+00  0.00000000000E+00 -0.46920344996E+02  0.93189164294E+02  0.80515225686E+02 0.  0.
         66    2    3    3    0    0  0.16150156749E+02  0.20642388854E+00  0.19174047874E+02  0.25149836647E+02  0.19999994112E+01 0.  0.
         13    1    3    3    0    0 -0.16150156749E+02 -0.20642388854E+00 -0.66094392869E+02  0.68039327647E+02  0.10566000000E+00 0. -1.
         13    1    4    4    0    0 -0.21307864083E-02 -0.28850900927E-01  0.80817683405E-01  0.13613393510E+00  0.10566000000E+00 0. -1.
        -13    1    4    4    0    0  0.12827594980E+02  0.24175278399E+00  0.15402742306E+02  0.20046477794E+02  0.10566000000E+00 0.  1.
         14    1    4    4    0    0  0.33246925558E+01 -0.64779945204E-02  0.36904878845E+01  0.49672249175E+01  0.00000000000E+00 0. -1.
<mgrwt>
<rscale>  0 0.80515226E+02</rscale>
<asrwt>0</asrwt>
<pdfrwt beam="1">  1        1 0.10777654E-01 0.80515226E+02</pdfrwt>
<pdfrwt beam="2">  1       -2 0.35591400E-02 0.80515226E+02</pdfrwt>
<totfact> 0.13630530E+05</totfact>
</mgrwt>
</event>
<event>
 8    1  0.1372337E-024  0.8071401E+02  0.7818608E-02  0.1327037E+00
         -2   -1    0    0    0  501 -0.00000000000E+00  0.00000000000E+00  0.20673187117E+02  0.20673187274E+02  0.25500000000E-02 0.  1.
          1   -1    0    0  501    0  0.00000000000E+00 -0.00000000000E+00 -0.78782624843E+02  0.78782625005E+02  0.50400000000E-02 0. -1.
        -24    2    1    2    0    0  0.00000000000E+00 -0.35527136788E-14 -0.58109437727E+02  0.99455812279E+02  0.80714012681E+02 0.  0.
         66    2    3    3    0    0  0.25071282250E+02  0.20739637019E+02  0.29372386080E+00  0.32600429662E+02  0.20000007703E+01 0.  0.
         13    1    3    3    0    0 -0.25071282250E+02 -0.20739637019E+02 -0.58403161587E+02  0.66855382617E+02  0.10566000000E+00 0. -1.
         13    1    4    4    0    0  0.10750328559E+01  0.59633406673E+00 -0.23470037994E+00  0.12560088631E+01  0.10566000000E+00 0. -1.
        -13    1    4    4    0    0  0.77645195411E+01  0.61380830939E+01 -0.37862971672E-01  0.98983041685E+01  0.10566000000E+00 0.  1.
         14    1    4    4    0    0  0.16231729853E+02  0.14005219859E+02  0.56628721242E+00  0.21446116630E+02  0.00000000000E+00 0. -1.
<mgrwt>
<rscale>  0 0.80714013E+02</rscale>
<asrwt>0</asrwt>
<pdfrwt beam="1">  1        1 0.12120404E-01 0.80714013E+02</pdfrwt>
<pdfrwt beam="2">  1       -2 0.31804904E-02 0.80714013E+02</pdfrwt>
<totfact> 0.13796082E+05</totfact>
</mgrwt>
</event>
<event>
 8    1  0.1372337E-024  0.7801764E+02  0.7818608E-02  0.1334773E+00
          1   -1    0    0  501    0  0.00000000000E+00  0.00000000000E+00  0.20360378313E+03  0.20360378319E+03  0.50400000000E-02 0. -1.
         -2   -1    0    0    0  501 -0.00000000000E+00 -0.00000000000E+00 -0.74737705955E+01  0.74737710305E+01  0.25500000000E-02 0.  1.
        -24    2    1    2    0    0  0.00000000000E+00  0.00000000000E+00  0.19613001253E+03  0.21107755422E+03  0.78017639543E+02 0.  0.
         66    2    3    3    0    0  0.28563635964E+02  0.26327574135E+02  0.10696293173E+03  0.11381604116E+03  0.20000006457E+01 0.  0.
         13    1    3    3    0    0 -0.28563635964E+02 -0.26327574135E+02  0.89167080804E+02  0.97261513059E+02  0.10566000000E+00 0. -1.
         13    1    4    4    0    0  0.11146085600E+02  0.94508285975E+01  0.38382038446E+02  0.41070006387E+02  0.10566000000E+00 0. -1.
        -13    1    4    4    0    0  0.55033061998E+01  0.50315334071E+01  0.20476156762E+02  0.21791899122E+02  0.10566000000E+00 0.  1.
        -14    1    4    4    0    0  0.11914244164E+02  0.11845212130E+02  0.48104736519E+02  0.50954135652E+02  0.00000000000E+00 0.  1.
<mgrwt>
<rscale>  0 0.78017640E+02</rscale>
<asrwt>0</asrwt>
<pdfrwt beam="1">  1        1 0.31323657E-01 0.78017640E+02</pdfrwt>
<pdfrwt beam="2">  1       -2 0.11498110E-02 0.78017640E+02</pdfrwt>
<totfact> 0.17882408E+05</totfact>
</mgrwt>
</event>
<event>
 8    1  0.1372337E-024  0.7882020E+02  0.7818608E-02  0.1332433E+00
          1   -1    0    0  501    0  0.00000000000E+00  0.00000000000E+00  0.14682791952E+03  0.14682791960E+03  0.50400000000E-02 0. -1.
         -2   -1    0    0    0  501 -0.00000000000E+00 -0.00000000000E+00 -0.10578069556E+02  0.10578069863E+02  0.25500000000E-02 0.  1.
        -24    2    1    2    0    0  0.00000000000E+00  0.00000000000E+00  0.13624984996E+03  0.15740598946E+03  0.78820199856E+02 0.  0.
         66    2    3    3    0    0  0.31889489899E+02  0.45445506646E+01  0.22912401412E+02  0.39579927348E+02  0.20000009147E+01 0.  0.
         13    1    3    3    0    0 -0.31889489899E+02 -0.45445506646E+01  0.11333744855E+03  0.11782606212E+03  0.10566000000E+00 0. -1.
         13    1    4    4    0    0  0.23164016240E+02  0.39137188651E+01  0.16148652878E+02  0.28507525279E+02  0.10566000000E+00 0.  1.
        -13    1    4    4    0    0  0.71713419060E+01  0.66885060498E+00  0.53717636842E+01  0.89856838905E+01  0.10566000000E+00 0. -1.
         14    1    4    4    0    0  0.15541317528E+01 -0.38018805478E-01  0.13919848500E+01  0.20867181787E+01  0.00000000000E+00 0. -1.
<mgrwt>
<rscale>  0 0.78820200E+02</rscale>
<asrwt>0</asrwt>
<pdfrwt beam="1">  1        1 0.22588910E-01 0.78820200E+02</pdfrwt>
<pdfrwt beam="2">  1       -2 0.16273954E-02 0.78820200E+02</pdfrwt>
<totfact> 0.16363094E+05</totfact>
</mgrwt>
</event>
<event>
 8    1  0.1372337E-024  0.8020531E+02  0.7818608E-02  0.1328470E+00
          1   -1    0    0  501    0  0.00000000000E+00  0.00000000000E+00  0.23624915417E+03  0.23624915423E+03  0.50400000000E-02 0. -1.
         -2   -1    0    0    0  501 -0.00000000000E+00 -0.00000000000E+00 -0.68073169688E+01  0.68073174464E+01  0.25500000000E-02 0.  1.
        -24    2    1    2    0    0  0.00000000000E+00  0.00000000000E+00  0.22944183720E+03  0.24305647167E+03  0.80205310065E+02 0.  0.
         66    2    3    3    0    0  0.81496560828E+01 -0.39231570636E+02  0.11228406842E+03  0.11923608975E+03  0.20000123451E+01 0.  0.
         13    1    3    3    0    0 -0.81496560828E+01  0.39231570636E+02  0.11715776878E+03  0.12382038192E+03  0.10566000000E+00 0. -1.
         13    1    4    4    0    0  0.11417039801E+01 -0.51266584488E+01  0.16160841038E+02  0.16993235770E+02  0.10566000000E+00 0. -1.
        -13    1    4    4    0    0  0.38204342358E+01 -0.16477169900E+02  0.48091757441E+02  0.50979614979E+02  0.10566000000E+00 0.  1.
         14    1    4    4    0    0  0.31875178668E+01 -0.17627742287E+02  0.48031469943E+02  0.51263239004E+02  0.00000000000E+00 0. -1.
<mgrwt>
<rscale>  0 0.80205310E+02</rscale>
<asrwt>0</asrwt>
<pdfrwt beam="1">  1        1 0.36346019E-01 0.80205310E+02</pdfrwt>
<pdfrwt beam="2">  1       -2 0.10472797E-02 0.80205310E+02</pdfrwt>
<totfact> 0.17107751E+05</totfact>
</mgrwt>
</event>
<event>
 8    1  0.1428189E-024  0.7841453E+02  0.7818608E-02  0.1333612E+00
         -2   -1    0    0    0  501 -0.00000000000E+00  0.00000000000E+00  0.46480258331E+01  0.46480265326E+01  0.25500000000E-02 0.  1.
          1   -1    0    0  501    0  0.00000000000E+00 -0.00000000000E+00 -0.33072311754E+03  0.33072311758E+03  0.50400000000E-02 0. -1.
        -24    2    1    2    0    0  0.00000000000E+00  0.00000000000E+00 -0.32607509171E+03  0.33537114411E+03  0.78414532268E+02 0.  0.
         66    2    3    3    0    0 -0.11277863135E+02  0.35772486868E+02 -0.11469077289E+03  0.12068485573E+03  0.20000006457E+01 0.  0.
         13    1    3    3    0    0  0.11277863135E+02 -0.35772486868E+02 -0.21138431882E+03  0.21468628838E+03  0.10566000000E+00 0. -1.
         13    1    4    4    0    0 -0.28326809255E+01  0.11053961784E+02 -0.34492564321E+02  0.36331285552E+02  0.10566000000E+00 0. -1.
        -13    1    4    4    0    0 -0.69866243211E+01  0.21687096638E+02 -0.69852300204E+02  0.73474472355E+02  0.10566000000E+00 0.  1.
         14    1    4    4    0    0 -0.14585578884E+01  0.30314284455E+01 -0.10345908368E+02  0.10879097825E+02  0.00000000000E+00 0. -1.
<mgrwt>
<rscale>  0 0.78414532E+02</rscale>
<asrwt>0</asrwt>
<pdfrwt beam="1">  1        1 0.50880461E-01 0.78414532E+02</pdfrwt>
<pdfrwt beam="2">  1       -2 0.71508121E-03 0.78414532E+02</pdfrwt>
<totfact> 0.19367132E+05</totfact>
</mgrwt>
</event>
<event>
 8    1  0.1372337E-024  0.8019773E+02  0.7818608E-02  0.1328491E+00
          1   -1    0    0  501    0  0.00000000000E+00  0.00000000000E+00  0.54608435999E+02  0.54608436232E+02  0.50400000000E-02 0. -1.
         -2   -1    0    0    0  501 -0.00000000000E+00 -0.00000000000E+00 -0.29444517057E+02  0.29444517167E+02  0.25500000000E-02 0.  1.
        -24    2    1    2    0    0  0.00000000000E+00  0.00000000000E+00  0.25163918942E+02  0.84052953399E+02  0.80197731630E+02 0.  0.
         66    2    3    3    0    0 -0.21796971936E+02  0.10341350836E+02 -0.20946273045E+02  0.32012464432E+02  0.20000004545E+01 0.  0.
         13    1    3    3    0    0  0.21796971936E+02 -0.10341350836E+02  0.46110191988E+02  0.52040488967E+02  0.10566000000E+00 0. -1.
         13    1    4    4    0    0 -0.96732086431E+01  0.42389186777E+01 -0.86307461147E+01  0.13639660536E+02  0.10566000000E+00 0. -1.
        -13    1    4    4    0    0 -0.91928121808E+01  0.48524159708E+01 -0.10083244027E+02  0.14482289553E+02  0.10566000000E+00 0.  1.
         14    1    4    4    0    0 -0.29309511126E+01  0.12500161877E+01 -0.22322829034E+01  0.38905143432E+01  0.00000000000E+00 0. -1.
<mgrwt>
<rscale>  0 0.80197732E+02</rscale>
<asrwt>0</asrwt>
<pdfrwt beam="1">  1        1 0.84012979E-02 0.80197732E+02</pdfrwt>
<pdfrwt beam="2">  1       -2 0.45299257E-02 0.80197732E+02</pdfrwt>
<totfact> 0.13249462E+05</totfact>
</mgrwt>
</event>
<event>
 8    1  0.1372337E-024  0.7925951E+02  0.7818608E-02  0.1331166E+00
         -2   -1    0    0    0  501 -0.00000000000E+00  0.00000000000E+00  0.70485916363E+01  0.70485920975E+01  0.25500000000E-02 0.  1.
          1   -1    0    0  501    0  0.00000000000E+00 -0.00000000000E+00 -0.22281296528E+03  0.22281296534E+03  0.50400000000E-02 0. -1.
        -24    2    1    2    0    0  0.00000000000E+00  0.00000000000E+00 -0.21576437365E+03  0.22986155744E+03  0.79259514586E+02 0.  0.
         66    2    3    3    0    0 -0.21474834535E+01 -0.38081902720E+02 -0.77030840600E+02  0.85980191876E+02  0.19999979115E+01 0.  0.
         13    1    3    3    0    0  0.21474834535E+01  0.38081902720E+02 -0.13873353305E+03  0.14388136556E+03  0.10566000000E+00 0. -1.
         13    1    4    4    0    0 -0.27950389194E-01 -0.49774301194E+01 -0.11222004103E+02  0.12276812777E+02  0.10566000000E+00 0. -1.
        -13    1    4    4    0    0 -0.12475328588E+01 -0.16754124040E+02 -0.34347175082E+02  0.38236064268E+02  0.10566000000E+00 0.  1.
        -14    1    4    4    0    0 -0.87200020554E+00 -0.16350348561E+02 -0.31461661415E+02  0.35467314832E+02  0.00000000000E+00 0.  1.
<mgrwt>
<rscale>  0 0.79259515E+02</rscale>
<asrwt>0</asrwt>
<pdfrwt beam="1">  1        1 0.34278913E-01 0.79259515E+02</pdfrwt>
<pdfrwt beam="2">  1       -2 0.10843989E-02 0.79259515E+02</pdfrwt>
<totfact> 0.17452973E+05</totfact>
</mgrwt>
</event>
<event>
 8    1  0.1372337E-024  0.7918851E+02  0.7818608E-02  0.1331370E+00
          1   -1    0    0  501    0  0.00000000000E+00  0.00000000000E+00  0.93754475152E+01  0.93754488699E+01  0.50400000000E-02 0. -1.
         -2   -1    0    0    0  501 -0.00000000000E+00 -0.00000000000E+00 -0.16721386251E+03  0.16721386253E+03  0.25500000000E-02 0.  1.
        -24    2    1    2    0    0  0.00000000000E+00  0.00000000000E+00 -0.15783841500E+03  0.17658931140E+03  0.79188507073E+02 0.  0.
         66    2    3    3    0    0 -0.46375680125E+01 -0.29101954520E+02 -0.13785411073E+03  0.14098293030E+03  0.19999993977E+01 0.  0.
         13    1    3    3    0    0  0.46375680125E+01  0.29101954520E+02 -0.19984304268E+02  0.35606381100E+02  0.10566000000E+00 0. -1.
         13    1    4    4    0    0 -0.36986113079E+01 -0.20229054271E+02 -0.92647474911E+02  0.94902371592E+02  0.10566000000E+00 0. -1.
        -13    1    4    4    0    0 -0.83074094007E+00 -0.72404669955E+01 -0.36185793199E+02  0.36912562716E+02  0.10566000000E+00 0.  1.
         14    1    4    4    0    0 -0.10821576452E+00 -0.16324332531E+01 -0.90208426182E+01  0.91679959926E+01  0.00000000000E+00 0. -1.
<mgrwt>
<rscale>  0 0.79188507E+02</rscale>
<asrwt>0</asrwt>
<pdfrwt beam="1">  1        1 0.14423768E-02 0.79188507E+02</pdfrwt>
<pdfrwt beam="2">  1       -2 0.25725207E-01 0.79188507E+02</pdfrwt>
<totfact> 0.93489441E+04</totfact>
</mgrwt>
</event>
<event>
 8    1  0.1372337E-024  0.7965187E+02  0.7818608E-02  0.1330042E+00
          1   -1    0    0  501    0  0.00000000000E+00  0.00000000000E+00  0.43290425620E+02  0.43290425913E+02  0.50400000000E-02 0. -1.
         -2   -1    0    0    0  501 -0.00000000000E+00 -0.00000000000E+00 -0.36638699858E+02  0.36638699947E+02  0.25500000000E-02 0.  1.
        -24    2    1    2    0    0  0.00000000000E+00  0.00000000000E+00  0.66517257620E+01  0.79929125860E+02  0.79651865673E+02 0.  0.
         66    2    3    3    0    0 -0.16656152317E+02  0.27708257986E+02  0.26623520440E+02  0.41928353272E+02  0.19999992225E+01 0.  0.
         13    1    3    3    0    0  0.16656152317E+02 -0.27708257986E+02 -0.19971794678E+02  0.38000772588E+02  0.10566000000E+00 0. -1.
         13    1    4    4    0    0 -0.61233868451E+01  0.11478919905E+02  0.10625709704E+02  0.16798164762E+02  0.10566000000E+00 0.  1.
        -13    1    4    4    0    0 -0.82858386098E+01  0.12843602485E+02  0.12033708623E+02  0.19453394396E+02  0.10566000000E+00 0. -1.
        -14    1    4    4    0    0 -0.22469268619E+01  0.33857355953E+01  0.39641021139E+01  0.56767941141E+01  0.00000000000E+00 0.  1.
<mgrwt>
<rscale>  0 0.79651866E+02</rscale>
<asrwt>0</asrwt>
<pdfrwt beam="1">  1        1 0.66600655E-02 0.79651866E+02</pdfrwt>
<pdfrwt beam="2">  1       -2 0.56367231E-02 0.79651866E+02</pdfrwt>
<totfact> 0.13018383E+05</totfact>
</mgrwt>
</event>
<event>
 8    1  0.1372337E-024  0.7856620E+02  0.7818608E-02  0.1333170E+00
         -2   -1    0    0    0  501 -0.00000000000E+00  0.00000000000E+00  0.10339287300E+03  0.10339287303E+03  0.25500000000E-02 0.  1.
          1   -1    0    0  501    0  0.00000000000E+00 -0.00000000000E+00 -0.14925223442E+02  0.14925224293E+02  0.50400000000E-02 0. -1.
        -24    2    1    2    0    0  0.11102230246E-15  0.00000000000E+00  0.88467649561E+02  0.11831809733E+03  0.78566195889E+02 0.  0.
         66    2    3    3    0    0  0.99940821476E+00  0.15787882156E+02  0.98370459809E+02  0.99654419914E+02  0.20000014151E+01 0.  0.
         13    1    3    3    0    0 -0.99940821476E+00 -0.15787882156E+02 -0.99028102481E+01  0.18663677414E+02  0.10566000000E+00 0. -1.
         13    1    4    4    0    0  0.14488466261E+00  0.11451480437E+02  0.68851838567E+02  0.69797881299E+02  0.10566000000E+00 0. -1.
        -13    1    4    4    0    0  0.28290316660E+00  0.29262178193E+01  0.18230895067E+02  0.18466712862E+02  0.10566000000E+00 0.  1.
         14    1    4    4    0    0  0.57162038555E+00  0.14101839001E+01  0.11287726175E+02  0.11389825753E+02  0.00000000000E+00 0. -1.
<mgrwt>
<rscale>  0 0.78566196E+02</rscale>
<asrwt>0</asrwt>
<pdfrwt beam="1">  1        1 0.22961882E-02 0.78566196E+02</pdfrwt>
<pdfrwt beam="2">  1       -2 0.15906597E-01 0.78566196E+02</pdfrwt>
<totfact> 0.11022986E+05</totfact>
</mgrwt>
</event>
<event>
 8    1  0.1372337E-024  0.7875498E+02  0.7818608E-02  0.1332622E+00
          1   -1    0    0  501    0  0.00000000000E+00  0.00000000000E+00  0.84205726949E+02  0.84205727100E+02  0.50400000000E-02 0. -1.
         -2   -1    0    0    0  501 -0.00000000000E+00 -0.00000000000E+00 -0.18414268196E+02  0.18414268372E+02  0.25500000000E-02 0.  1.
        -24    2    1    2    0    0 -0.35527136788E-14 -0.35527136788E-14  0.65791458753E+02  0.10261999547E+03  0.78754983499E+02 0.  0.
         66    2    3    3    0    0  0.30884556220E+02 -0.24108464572E+02  0.28127827484E+02  0.48272648147E+02  0.20000008060E+01 0.  0.
         13    1    3    3    0    0 -0.30884556220E+02  0.24108464572E+02  0.37663631269E+02  0.54347347326E+02  0.10566000000E+00 0. -1.
         13    1    4    4    0    0  0.14564669548E+02 -0.11767893708E+02  0.12647521309E+02  0.22596103219E+02  0.10566000000E+00 0.  1.
        -13    1    4    4    0    0  0.47190493646E+01 -0.34949646726E+01  0.50069655868E+01  0.77178412391E+01  0.10566000000E+00 0. -1.
         14    1    4    4    0    0  0.11600837307E+02 -0.88456061910E+01  0.10473340588E+02  0.17958703689E+02  0.00000000000E+00 0. -1.
<mgrwt>
<rscale>  0 0.78754983E+02</rscale>
<asrwt>0</asrwt>
<pdfrwt beam="1">  1        1 0.12954727E-01 0.78754983E+02</pdfrwt>
<pdfrwt beam="2">  1       -2 0.28329644E-02 0.78754983E+02</pdfrwt>
<totfact> 0.14909027E+05</totfact>
</mgrwt>
</event>
<event>
 8    1  0.1372337E-024  0.7691771E+02  0.7818608E-02  0.1338033E+00
          1   -1    0    0  501    0  0.00000000000E+00  0.00000000000E+00  0.91599356937E+02  0.91599357076E+02  0.50400000000E-02 0. -1.
         -2   -1    0    0    0  501 -0.00000000000E+00 -0.00000000000E+00 -0.16147313086E+02  0.16147313287E+02  0.25500000000E-02 0.  1.
        -24    2    1    2    0    0 -0.35527136788E-14  0.00000000000E+00  0.75452043851E+02  0.10774667036E+03  0.76917709619E+02 0.  0.
         66    2    3    3    0    0  0.22947200380E+02 -0.17055128074E+02  0.17743044542E+01  0.28715841913E+02  0.20000053923E+01 0.  0.
         13    1    3    3    0    0 -0.22947200380E+02  0.17055128074E+02  0.73677739397E+02  0.79030828451E+02  0.10566000000E+00 0. -1.
         13    1    4    4    0    0  0.10850135165E+02 -0.89210416615E+01  0.76593953537E+00  0.14067986523E+02  0.10566000000E+00 0.  1.
        -13    1    4    4    0    0  0.28617970997E+01 -0.21619807645E+01  0.63178968018E+00  0.36434002939E+01  0.10566000000E+00 0. -1.
         14    1    4    4    0    0  0.92352681156E+01 -0.59721056479E+01  0.37657523861E+00  0.11004455095E+02  0.00000000000E+00 0. -1.
<mgrwt>
<rscale>  0 0.76917710E+02</rscale>
<asrwt>0</asrwt>
<pdfrwt beam="1">  1        1 0.14092209E-01 0.76917710E+02</pdfrwt>
<pdfrwt beam="2">  1       -2 0.24842020E-02 0.76917710E+02</pdfrwt>
<totfact> 0.16108948E+05</totfact>
</mgrwt>
</event>
<event>
 8    1  0.1372337E-024  0.8610968E+02  0.7818608E-02  0.1312556E+00
         -2   -1    0    0    0  501 -0.00000000000E+00  0.00000000000E+00  0.23663828175E+02  0.23663828313E+02  0.25500000000E-02 0.  1.
          1   -1    0    0  501    0  0.00000000000E+00 -0.00000000000E+00 -0.78335559079E+02  0.78335559241E+02  0.50400000000E-02 0. -1.
        -24    2    1    2    0    0  0.35527136788E-14  0.00000000000E+00 -0.54671730903E+02  0.10199938755E+03  0.86109679487E+02 0.  0.
         66    2    3    3    0    0  0.17751205773E+02  0.47875082283E+01  0.18734882844E+02  0.26325299206E+02  0.20000004179E+01 0.  0.
         13    1    3    3    0    0 -0.17751205773E+02 -0.47875082283E+01 -0.73406613747E+02  0.75674088348E+02  0.10566000000E+00 0. -1.
         13    1    4    4    0    0  0.45617700968E+01  0.63214292391E+00  0.54234479903E+01  0.71157784698E+01  0.10566000000E+00 0. -1.
        -13    1    4    4    0    0  0.41172528348E+01  0.94175548398E+00  0.41021346825E+01  0.58887475142E+01  0.10566000000E+00 0.  1.
        -14    1    4    4    0    0  0.90721828415E+01  0.32136098204E+01  0.92093001709E+01  0.13320773222E+02  0.00000000000E+00 0.  1.
<mgrwt>
<rscale>  0 0.86109679E+02</rscale>
<asrwt>0</asrwt>
<pdfrwt beam="1">  1        1 0.12051624E-01 0.86109679E+02</pdfrwt>
<pdfrwt beam="2">  1       -2 0.36405890E-02 0.86109679E+02</pdfrwt>
<totfact> 0.11542142E+05</totfact>
</mgrwt>
</event>
<event>
 8    1  0.1372337E-024  0.7544176E+02  0.7818608E-02  0.1342508E+00
          1   -1    0    0  501    0  0.00000000000E+00  0.00000000000E+00  0.17258946756E+03  0.17258946763E+03  0.50400000000E-02 0. -1.
         -2   -1    0    0    0  501 -0.00000000000E+00 -0.00000000000E+00 -0.82442163942E+01  0.82442167886E+01  0.25500000000E-02 0.  1.
        -24    2    1    2    0    0  0.17763568394E-14  0.00000000000E+00  0.16434525116E+03  0.18083368442E+03  0.75441764566E+02 0.  0.
         66    2    3    3    0    0  0.13872604923E+02  0.27557941985E+02  0.30321490437E+02  0.43304527740E+02  0.20000016579E+01 0.  0.
         13    1    3    3    0    0 -0.13872604923E+02 -0.27557941985E+02  0.13402376073E+03  0.13752915668E+03  0.10566000000E+00 0. -1.
         13    1    4    4    0    0  0.15117469118E+01  0.22466509021E+01  0.25701819435E+01  0.37349455497E+01  0.10566000000E+00 0. -1.
        -13    1    4    4    0    0  0.10476569992E+02  0.21243735004E+02  0.22567839609E+02  0.32716560705E+02  0.10566000000E+00 0.  1.
        -14    1    4    4    0    0  0.18842880192E+01  0.40675560790E+01  0.51834688844E+01  0.68530214848E+01  0.00000000000E+00 0.  1.
<mgrwt>
<rscale>  0 0.75441765E+02</rscale>
<asrwt>0</asrwt>
<pdfrwt beam="1">  1        1 0.26552224E-01 0.75441765E+02</pdfrwt>
<pdfrwt beam="2">  1       -2 0.12683411E-02 0.75441765E+02</pdfrwt>
<totfact> 0.18939131E+05</totfact>
</mgrwt>
</event>
<event>
 8    1  0.1372337E-024  0.7912626E+02  0.7818608E-02  0.1331549E+00
         -2   -1    0    0    0  501 -0.00000000000E+00  0.00000000000E+00  0.94170035218E+02  0.94170035253E+02  0.25500000000E-02 0.  1.
          1   -1    0    0  501    0  0.00000000000E+00 -0.00000000000E+00 -0.16621437382E+02  0.16621438146E+02  0.50400000000E-02 0. -1.
        -24    2    1    2    0    0  0.00000000000E+00  0.17763568394E-14  0.77548597836E+02  0.11079147340E+03  0.79126263349E+02 0.  0.
         66    2    3    3    0    0  0.35801050666E+02  0.11910209649E+02  0.55346573225E+02  0.67013517947E+02  0.20000243194E+01 0.  0.
         13    1    3    3    0    0 -0.35801050666E+02 -0.11910209649E+02  0.22202024611E+02  0.43777955452E+02  0.10566000000E+00 0. -1.
         13    1    4    4    0    0  0.17838093160E+02  0.64668321224E+01  0.28690681839E+02  0.34397439929E+02  0.10566000000E+00 0. -1.
        -13    1    4    4    0    0  0.94237783074E+01  0.30064277668E+01  0.14852531995E+02  0.17845309642E+02  0.10566000000E+00 0.  1.
         14    1    4    4    0    0  0.85391791984E+01  0.24369497601E+01  0.11803359391E+02  0.14770768377E+02  0.00000000000E+00 0. -1.
<mgrwt>
<rscale>  0 0.79126263E+02</rscale>
<asrwt>0</asrwt>
<pdfrwt beam="1">  1        1 0.25571443E-02 0.79126263E+02</pdfrwt>
<pdfrwt beam="2">  1       -2 0.14487698E-01 0.79126263E+02</pdfrwt>
<totfact> 0.11075831E+05</totfact>
</mgrwt>
</event>
<event>
 8    1  0.1372337E-024  0.8572177E+02  0.7818608E-02  0.1313556E+00
         -2   -1    0    0    0  501 -0.00000000000E+00  0.00000000000E+00  0.42926256269E+01  0.42926263843E+01  0.25500000000E-02 0.  1.
          1   -1    0    0  501    0  0.00000000000E+00 -0.00000000000E+00 -0.42795605499E+03  0.42795605502E+03  0.50400000000E-02 0. -1.
        -24    2    1    2    0    0  0.00000000000E+00  0.71054273576E-14 -0.42366342936E+03  0.43224868141E+03  0.85721766173E+02 0.  0.
         66    2    3    3    0    0  0.10238119136E+02  0.40206854012E+02 -0.26570039652E+03  0.26892770571E+03  0.19999985080E+01 0.  0.
         13    1    3    3    0    0 -0.10238119136E+02 -0.40206854012E+02 -0.15796303284E+03  0.16332097570E+03  0.10566000000E+00 0. -1.
         13    1    4    4    0    0  0.17323223211E+01  0.94118343936E+01 -0.63297934079E+02  0.64017366316E+02  0.10566000000E+00 0. -1.
        -13    1    4    4    0    0  0.56349475279E+01  0.20149278423E+02 -0.13520373918E+03  0.13681304144E+03  0.10566000000E+00 0.  1.
        -14    1    4    4    0    0  0.28708492870E+01  0.10645741195E+02 -0.67198723259E+02  0.68097297955E+02  0.00000000000E+00 0.  1.
<mgrwt>
<rscale>  0 0.85721766E+02</rscale>
<asrwt>0</asrwt>
<pdfrwt beam="1">  1        1 0.65839359E-01 0.85721766E+02</pdfrwt>
<pdfrwt beam="2">  1       -2 0.66040434E-03 0.85721766E+02</pdfrwt>
<totfact> 0.16004143E+05</totfact>
</mgrwt>
</event>
<event>
 8    1  0.1372337E-024  0.8227343E+02  0.7818608E-02  0.1322721E+00
         -2   -1    0    0    0  501 -0.00000000000E+00  0.00000000000E+00  0.11093214116E+02  0.11093214409E+02  0.25500000000E-02 0.  1.
          1   -1    0    0  501    0  0.00000000000E+00 -0.00000000000E+00 -0.15254634658E+03  0.15254634666E+03  0.50400000000E-02 0. -1.
        -24    2    1    2    0    0  0.35527136788E-14  0.00000000000E+00 -0.14145313246E+03  0.16363956107E+03  0.82273429879E+02 0.  0.
         66    2    3    3    0    0  0.18369265372E+02 -0.32075660475E+02 -0.34969706624E+02  0.50923062511E+02  0.20000022272E+01 0.  0.
         13    1    3    3    0    0 -0.18369265372E+02  0.32075660475E+02 -0.10648342584E+03  0.11271649856E+03  0.10566000000E+00 0. -1.
         13    1    4    4    0    0  0.40312026153E+01 -0.80064265600E+01 -0.81536673018E+01  0.12118040901E+02  0.10566000000E+00 0. -1.
        -13    1    4    4    0    0  0.41049743563E+01 -0.68641728590E+01 -0.68346046246E+01  0.10520963260E+02  0.10566000000E+00 0.  1.
        -14    1    4    4    0    0  0.10233088400E+02 -0.17205061056E+02 -0.19981434697E+02  0.28284058350E+02  0.00000000000E+00 0.  1.
<mgrwt>
<rscale>  0 0.82273430E+02</rscale>
<asrwt>0</asrwt>
<pdfrwt beam="1">  1        1 0.23468667E-01 0.82273430E+02</pdfrwt>
<pdfrwt beam="2">  1       -2 0.17066485E-02 0.82273430E+02</pdfrwt>
<totfact> 0.14693722E+05</totfact>
</mgrwt>
</event>
<event>
 8    1  0.1372337E-024  0.8042744E+02  0.7818608E-02  0.1327843E+00
          1   -1    0    0  501    0  0.00000000000E+00  0.00000000000E+00  0.15561935417E+02  0.15561936234E+02  0.50400000000E-02 0. -1.
         -2   -1    0    0    0  501 -0.00000000000E+00 -0.00000000000E+00 -0.10391658461E+03  0.10391658464E+03  0.25500000000E-02 0.  1.
        -24    2    1    2    0    0 -0.17763568394E-14  0.71054273576E-14 -0.88354649193E+02  0.11947852088E+03  0.80427438828E+02 0.  0.
         66    2    3    3    0    0 -0.67058833758E+01  0.26048553867E+02 -0.88563481338E+02  0.92579621171E+02  0.19999997468E+01 0.  0.
         13    1    3    3    0    0  0.67058833758E+01 -0.26048553867E+02  0.20883214527E+00  0.26898899704E+02  0.10566000000E+00 0. -1.
         13    1    4    4    0    0 -0.13227070561E+01  0.81388205914E+01 -0.25596232444E+02  0.26891787481E+02  0.10566000000E+00 0. -1.
        -13    1    4    4    0    0 -0.30793551152E+01  0.11035868107E+02 -0.38921002421E+02  0.40572508011E+02  0.10566000000E+00 0.  1.
         14    1    4    4    0    0 -0.23038212045E+01  0.68738651685E+01 -0.24046246474E+02  0.25115325679E+02  0.00000000000E+00 0. -1.
<mgrwt>
<rscale>  0 0.80427439E+02</rscale>
<asrwt>0</asrwt>
<pdfrwt beam="1">  1        1 0.23941440E-02 0.80427439E+02</pdfrwt>
<pdfrwt beam="2">  1       -2 0.15987166E-01 0.80427439E+02</pdfrwt>
<totfact> 0.10368278E+05</totfact>
</mgrwt>
</event>
<event>
 8    1  0.1372337E-024  0.7938571E+02  0.7818608E-02  0.1330804E+00
         -2   -1    0    0    0  501 -0.00000000000E+00  0.00000000000E+00  0.37963680777E+02  0.37963680862E+02  0.25500000000E-02 0.  1.
          1   -1    0    0  501    0  0.00000000000E+00 -0.00000000000E+00 -0.41500787994E+02  0.41500788300E+02  0.50400000000E-02 0. -1.
        -24    2    1    2    0    0  0.00000000000E+00  0.35527136788E-14 -0.35371072170E+01  0.79464469162E+02  0.79385708612E+02 0.  0.
         66    2    3    3    0    0  0.34216242615E+02  0.19728520693E+02  0.19152758715E+01  0.39593358909E+02  0.20000001453E+01 0.  0.
         13    1    3    3    0    0 -0.34216242615E+02 -0.19728520693E+02 -0.54523830885E+01  0.39871110253E+02  0.10566000000E+00 0. -1.
         13    1    4    4    0    0  0.54041137896E+01  0.32490723108E+01 -0.33716061333E+00  0.63155172430E+01  0.10566000000E+00 0. -1.
        -13    1    4    4    0    0  0.38482162435E+01  0.19576126058E+01  0.16267742173E+00  0.43218796084E+01  0.10566000000E+00 0.  1.
         14    1    4    4    0    0  0.24963912582E+02  0.14521835777E+02  0.20897590631E+01  0.28955962058E+02  0.00000000000E+00 0. -1.
<mgrwt>
<rscale>  0 0.79385709E+02</rscale>
<asrwt>0</asrwt>
<pdfrwt beam="1">  1        1 0.63847366E-02 0.79385709E+02</pdfrwt>
<pdfrwt beam="2">  1       -2 0.58405663E-02 0.79385709E+02</pdfrwt>
<totfact> 0.13052980E+05</totfact>
</mgrwt>
</event>
<event>
 8    1  0.1372337E-024  0.7992326E+02  0.7818608E-02  0.1329269E+00
          1   -1    0    0  501    0  0.00000000000E+00  0.00000000000E+00  0.71206065570E+02  0.71206065748E+02  0.50400000000E-02 0. -1.
         -2   -1    0    0    0  501 -0.00000000000E+00 -0.00000000000E+00 -0.22426907655E+02  0.22426907800E+02  0.25500000000E-02 0.  1.
        -24    2    1    2    0    0 -0.35527136788E-14 -0.35527136788E-14  0.48779157915E+02  0.93632973548E+02  0.79923259998E+02 0.  0.
         66    2    3    3    0    0  0.19408664377E+02  0.27369760269E+02 -0.96988347302E+00  0.33626487956E+02  0.19999970511E+01 0.  0.
         13    1    3    3    0    0 -0.19408664377E+02 -0.27369760269E+02  0.49749041388E+02  0.60006485592E+02  0.10566000000E+00 0. -1.
         13    1    4    4    0    0  0.30332803701E+01  0.37607589711E+01  0.43954059698E+00  0.48526753254E+01  0.10566000000E+00 0. -1.
        -13    1    4    4    0    0  0.11317092519E+02  0.16708817759E+02 -0.81103822353E+00  0.20197280041E+02  0.10566000000E+00 0.  1.
        -14    1    4    4    0    0  0.50582914880E+01  0.69001835387E+01 -0.59838584647E+00  0.85765325900E+01  0.00000000000E+00 0.  1.
<mgrwt>
<rscale>  0 0.79923260E+02</rscale>
<asrwt>0</asrwt>
<pdfrwt beam="1">  1        1 0.10954779E-01 0.79923260E+02</pdfrwt>
<pdfrwt beam="2">  1       -2 0.34502935E-02 0.79923260E+02</pdfrwt>
<totfact> 0.13944784E+05</totfact>
</mgrwt>
</event>
<event>
 8    1  0.1372337E-024  0.7999502E+02  0.7818608E-02  0.1329066E+00
          1   -1    0    0  501    0  0.00000000000E+00  0.00000000000E+00  0.19224856518E+03  0.19224856525E+03  0.50400000000E-02 0. -1.
         -2   -1    0    0    0  501 -0.00000000000E+00 -0.00000000000E+00 -0.83215227705E+01  0.83215231612E+01  0.25500000000E-02 0.  1.
        -24    2    1    2    0    0 -0.11102230246E-15  0.71054273576E-14  0.18392704241E+03  0.20057008841E+03  0.79995021309E+02 0.  0.
         66    2    3    3    0    0  0.49100301814E+00 -0.38183244122E+02  0.62397257961E+02  0.73182094908E+02  0.19999995977E+01 0.  0.
         13    1    3    3    0    0 -0.49100301814E+00  0.38183244122E+02  0.12152978445E+03  0.12738799350E+03  0.10566000000E+00 0. -1.
         13    1    4    4    0    0 -0.23245134607E+00 -0.38133349654E+01  0.53098936515E+01  0.65423001927E+01  0.10566000000E+00 0. -1.
        -13    1    4    4    0    0  0.46336639107E+00 -0.18222330319E+02  0.30090181050E+02  0.35180935041E+02  0.10566000000E+00 0.  1.
         14    1    4    4    0    0  0.26008797314E+00 -0.16147578838E+02  0.26997183259E+02  0.31458859675E+02  0.00000000000E+00 0. -1.
<mgrwt>
<rscale>  0 0.79995021E+02</rscale>
<asrwt>0</asrwt>
<pdfrwt beam="1">  1        1 0.29576703E-01 0.79995021E+02</pdfrwt>
<pdfrwt beam="2">  1       -2 0.12802343E-02 0.79995021E+02</pdfrwt>
<totfact> 0.16549489E+05</totfact>
</mgrwt>
</event>
