<event>
 8    1  0.2603554E-020  0.7735849E+02  0.7818608E-02  0.1336719E+00
          2   -1    0    0  501    0  0.00000000000E+00  0.00000000000E+00  0.64783451908E+02  0.64783451958E+02  0.25500000000E-02 0. -1.
         -1   -1    0    0    0  501 -0.00000000000E+00 -0.00000000000E+00 -0.23093611976E+02  0.23093612526E+02  0.50400000000E-02 0.  1.
         24    2    1    2    0    0  0.00000000000E+00  0.11102230246E-15  0.41689839931E+02  0.87877064484E+02  0.77358488279E+02 0.  0.
         66    2    3    3    0    0 -0.38120935572E+02 -0.95351794343E+00  0.28040104559E+02  0.47374702020E+02  0.20000006143E+01 0.  0.
        -13    1    3    3    0    0  0.38120935572E+02  0.95351794343E+00  0.13649735373E+02  0.40502362464E+02  0.10566000000E+00 0.  1.
         13    1    4    4    0    0 -0.20615830669E+02 -0.46263022717E+00  0.15079878763E+02  0.25546827757E+02  0.10566000000E+00 0. -1.
        -13    1    4    4    0    0 -0.77828448606E+01  0.38083690191E+00  0.61148374752E+01  0.99055596639E+01  0.10566000000E+00 0.  1.
        -14    1    4    4    0    0 -0.97222600425E+01 -0.87172461816E+00  0.68453883203E+01  0.11922314599E+02  0.00000000000E+00 0.  1.
<mgrwt>
<rscale>  0 0.77358488E+02</rscale>
<asrwt>0</asrwt>
<pdfrwt beam="1">  1        2 0.99666849E-02 0.77358488E+02</pdfrwt>
<pdfrwt beam="2">  1       -1 0.35528635E-02 0.77358488E+02</pdfrwt>
<totfact> 0.17356584E+05</totfact>
</mgrwt>
</event>
<event>
 8    1  0.2603554E-020  0.8089684E+02  0.7818608E-02  0.1326525E+00
         -1   -1    0    0    0  501 -0.00000000000E+00  0.00000000000E+00  0.15097659689E+02  0.15097660531E+02  0.50400000000E-02 0.  1.
          2   -1    0    0  501    0  0.00000000000E+00 -0.00000000000E+00 -0.10836609917E+03  0.10836609920E+03  0.25500000000E-02 0. -1.
         24    2    1    2    0    0  0.00000000000E+00  0.00000000000E+00 -0.93268439478E+02  0.12346375973E+03  0.80896836548E+02 0.  0.
         66    2    3    3    0    0  0.13673251183E+02 -0.12337913439E+02 -0.10158181899E+03  0.10325719275E+03  0.19999998649E+01 0.  0.
        -13    1    3    3    0    0 -0.13673251183E+02  0.12337913439E+02  0.83133795140E+01  0.20206566976E+02  0.10566000000E+00 0.  1.
         13    1    4    4    0    0  0.51384559442E+01 -0.47059654263E+01 -0.37349809290E+02  0.37994331921E+02  0.10566000000E+00 0. -1.
        -13    1    4    4    0    0  0.34352433433E+01 -0.22812246381E+01 -0.20557569327E+02  0.20967348505E+02  0.10566000000E+00 0.  1.
        -14    1    4    4    0    0  0.50995518960E+01 -0.53507233749E+01 -0.43674440375E+02  0.44295512326E+02  0.00000000000E+00 0.  1.
<mgrwt>
<rscale>  0 0.80896837E+02</rscale>
<asrwt>0</asrwt>
<pdfrwt beam="1">  1        2 0.16671707E-01 0.80896837E+02</pdfrwt>
<pdfrwt beam="2">  1       -1 0.23227170E-02 0.80896837E+02</pdfrwt>
<totfact> 0.17602280E+05</totfact>
</mgrwt>
</event>
<event>
 8    1  0.2603554E-020  0.8096544E+02  0.7818608E-02  0.1326334E+00
          2   -1    0    0  501    0  0.00000000000E+00  0.00000000000E+00  0.79273110484E+01  0.79273114585E+01  0.25500000000E-02 0. -1.
         -1   -1    0    0    0  501 -0.00000000000E+00 -0.00000000000E+00 -0.20673475421E+03  0.20673475427E+03  0.50400000000E-02 0.  1.
         24    2    1    2    0    0  0.00000000000E+00  0.00000000000E+00 -0.19880744316E+03  0.21466206573E+03  0.80965443289E+02 0.  0.
         66    2    3    3    0    0 -0.30701911918E+02  0.20557185168E+02 -0.55767078447E+02  0.66926618530E+02  0.19999929919E+01 0.  0.
        -13    1    3    3    0    0  0.30701911918E+02 -0.20557185168E+02 -0.14304036472E+03  0.14773544720E+03  0.10566000000E+00 0.  1.
         13    1    4    4    0    0 -0.40569288919E+01  0.26849304560E+01 -0.79929254467E+01  0.93576463291E+01  0.10566000000E+00 0. -1.
        -13    1    4    4    0    0 -0.95331603665E+01  0.58461329630E+01 -0.17701010995E+02  0.20937893196E+02  0.10566000000E+00 0.  1.
         14    1    4    4    0    0 -0.17111822660E+02  0.12026121749E+02 -0.30073142004E+02  0.36631079005E+02  0.00000000000E+00 0. -1.
<mgrwt>
<rscale>  0 0.80965443E+02</rscale>
<asrwt>0</asrwt>
<pdfrwt beam="1">  1        2 0.12195865E-02 0.80965443E+02</pdfrwt>
<pdfrwt beam="2">  1       -1 0.31805343E-01 0.80965443E+02</pdfrwt>
<totfact> 0.95632141E+04</totfact>
</mgrwt>
</event>
<event>
 8    1  0.2603554E-020  0.8707168E+02  0.7818608E-02  0.1310102E+00
         -1   -1    0    0    0  501 -0.00000000000E+00  0.00000000000E+00  0.12527856867E+02  0.12527857881E+02  0.50400000000E-02 0.  1.
          2   -1    0    0  501    0  0.00000000000E+00 -0.00000000000E+00 -0.15129239521E+03  0.15129239524E+03  0.25500000000E-02 0. -1.
         24    2    1    2    0    0 -0.35527136788E-14  0.00000000000E+00 -0.13876453835E+03  0.16382025312E+03  0.87071684424E+02 0.  0.
         66    2    3    3    0    0 -0.28226859208E+02  0.46009001600E+01 -0.13111858907E+03  0.13421627420E+03  0.19999998782E+01 0.  0.
        -13    1    3    3    0    0  0.28226859208E+02 -0.46009001600E+01 -0.76459492821E+01  0.29603978914E+02  0.10566000000E+00 0.  1.
         13    1    4    4    0    0 -0.87732871118E+01  0.58564671332E+00 -0.40566007442E+02  0.41508139836E+02  0.10566000000E+00 0. -1.
        -13    1    4    4    0    0 -0.61191395835E+01  0.15712816793E+01 -0.28992399484E+02  0.29672936950E+02  0.10566000000E+00 0.  1.
         14    1    4    4    0    0 -0.13334432513E+02  0.24439717674E+01 -0.61560182140E+02  0.63035197418E+02  0.00000000000E+00 0. -1.
<mgrwt>
<rscale>  0 0.87071684E+02</rscale>
<asrwt>0</asrwt>
<pdfrwt beam="1">  1        2 0.23275752E-01 0.87071684E+02</pdfrwt>
<pdfrwt beam="2">  1       -1 0.19273628E-02 0.87071684E+02</pdfrwt>
<totfact> 0.16026424E+05</totfact>
</mgrwt>
</event>
<event>
 8    1  0.2603554E-020  0.7989429E+02  0.7818608E-02  0.1329352E+00
          2   -1    0    0  501    0  0.00000000000E+00  0.00000000000E+00  0.94197950870E+02  0.94197950905E+02  0.25500000000E-02 0. -1.
         -1   -1    0    0    0  501 -0.00000000000E+00 -0.00000000000E+00 -0.16940648084E+02  0.16940648834E+02  0.50400000000E-02 0.  1.
         24    2    1    2    0    0 -0.17763568394E-14  0.00000000000E+00  0.77257302786E+02  0.11113859974E+03  0.79894289647E+02 0.  0.
         66    2    3    3    0    0  0.14360600427E+02  0.21027940442E+02  0.81423819779E+02  0.85336038786E+02  0.19999911034E+01 0.  0.
        -13    1    3    3    0    0 -0.14360600427E+02 -0.21027940442E+02 -0.41665169927E+01  0.25802560953E+02  0.10566000000E+00 0.  1.
         13    1    4    4    0    0  0.77360966234E+01  0.10272108036E+02  0.39520244358E+02  0.41559887784E+02  0.10566000000E+00 0. -1.
        -13    1    4    4    0    0  0.64219099917E+00  0.87679108758E+00  0.29067647032E+01  0.31050953232E+01  0.10566000000E+00 0.  1.
        -14    1    4    4    0    0  0.59823128046E+01  0.98790413189E+01  0.38996810718E+02  0.40671055679E+02  0.00000000000E+00 0.  1.
<mgrwt>
<rscale>  0 0.79894290E+02</rscale>
<asrwt>0</asrwt>
<pdfrwt beam="1">  1        2 0.14491992E-01 0.79894290E+02</pdfrwt>
<pdfrwt beam="2">  1       -1 0.26062537E-02 0.79894290E+02</pdfrwt>
<totfact> 0.17496981E+05</totfact>
</mgrwt>
</event>
<event>
 8    1  0.2603554E-020  0.7844263E+02  0.7818608E-02  0.1333530E+00
         -1   -1    0    0    0  501 -0.00000000000E+00  0.00000000000E+00  0.35487985256E+01  0.35488021045E+01  0.50400000000E-02 0.  1.
          2   -1    0    0  501    0  0.00000000000E+00 -0.00000000000E+00 -0.43347364616E+03  0.43347364617E+03  0.25500000000E-02 0. -1.
         24    2    1    2    0    0  0.17763568394E-14  0.00000000000E+00 -0.42992484764E+03  0.43702244827E+03  0.78442626678E+02 0.  0.
         66    2    3    3    0    0 -0.13475169738E+02  0.28336786050E+02 -0.34596689261E+03  0.34739263727E+03  0.20000022761E+01 0.  0.
        -13    1    3    3    0    0  0.13475169738E+02 -0.28336786050E+02 -0.83957955028E+02  0.89629810998E+02  0.10566000000E+00 0.  1.
         13    1    4    4    0    0 -0.44211607261E+01  0.11182259991E+02 -0.12917155308E+03  0.12973006934E+03  0.10566000000E+00 0. -1.
        -13    1    4    4    0    0 -0.35945866391E+01  0.62816293377E+01 -0.83488908073E+02  0.83802081451E+02  0.10566000000E+00 0.  1.
        -14    1    4    4    0    0 -0.54594223724E+01  0.10872896721E+02 -0.13330643145E+03  0.13386048648E+03  0.00000000000E+00 0.  1.
<mgrwt>
<rscale>  0 0.78442627E+02</rscale>
<asrwt>0</asrwt>
<pdfrwt beam="1">  1        2 0.66688211E-01 0.78442627E+02</pdfrwt>
<pdfrwt beam="2">  1       -1 0.54596963E-03 0.78442627E+02</pdfrwt>
<totfact> 0.30576426E+05</totfact>
</mgrwt>
</event>
<event>
 8    1  0.2603554E-020  0.8028118E+02  0.7818608E-02  0.1328255E+00
         -1   -1    0    0    0  501 -0.00000000000E+00  0.00000000000E+00  0.62849487525E+02  0.62849487728E+02  0.50400000000E-02 0.  1.
          2   -1    0    0  501    0  0.00000000000E+00 -0.00000000000E+00 -0.25636916740E+02  0.25636916867E+02  0.25500000000E-02 0. -1.
         24    2    1    2    0    0  0.00000000000E+00  0.35527136788E-14  0.37212570785E+02  0.88486404595E+02  0.80281183185E+02 0.  0.
         66    2    3    3    0    0  0.16250750549E+02 -0.26062215144E+02 -0.98254404307E+01  0.32308903629E+02  0.20000056019E+01 0.  0.
        -13    1    3    3    0    0 -0.16250750549E+02  0.26062215144E+02  0.47038011216E+02  0.56177500966E+02  0.10566000000E+00 0.  1.
         13    1    4    4    0    0  0.10278629888E+02 -0.16526053726E+02 -0.70496820283E+01  0.20699513638E+02  0.10566000000E+00 0. -1.
        -13    1    4    4    0    0  0.31708501398E+01 -0.45856528738E+01 -0.15979572916E+01  0.58006150044E+01  0.10566000000E+00 0.  1.
        -14    1    4    4    0    0  0.28012705210E+01 -0.49505085447E+01 -0.11778011109E+01  0.58087749861E+01  0.00000000000E+00 0.  1.
<mgrwt>
<rscale>  0 0.80281183E+02</rscale>
<asrwt>0</asrwt>
<pdfrwt beam="1">  1        2 0.39441410E-02 0.80281183E+02</pdfrwt>
<pdfrwt beam="2">  1       -1 0.96691520E-02 0.80281183E+02</pdfrwt>
<totfact> 0.12916138E+05</totfact>
</mgrwt>
</event>
<event>
 8    1  0.2603554E-020  0.7956432E+02  0.7818608E-02  0.1330292E+00
          2   -1    0    0  501    0  0.00000000000E+00  0.00000000000E+00  0.57708814743E+01  0.57708820377E+01  0.25500000000E-02 0. -1.
         -1   -1    0    0    0  501 -0.00000000000E+00 -0.00000000000E+00 -0.27424236257E+03  0.27424236261E+03  0.50400000000E-02 0.  1.
         24    2    1    2    0    0  0.71054273576E-14  0.00000000000E+00 -0.26847148109E+03  0.28001324465E+03  0.79564320018E+02 0.  0.
         66    2    3    3    0    0 -0.32439896600E+02 -0.11520975014E+02 -0.64327585845E+02  0.72987108891E+02  0.20000017324E+01 0.  0.
        -13    1    3    3    0    0  0.32439896600E+02  0.11520975014E+02 -0.20414389525E+03  0.20702613576E+03  0.10566000000E+00 0.  1.
         13    1    4    4    0    0 -0.86872707845E+01 -0.34478206937E+01 -0.18444356837E+02  0.20677562825E+02  0.10566000000E+00 0.  1.
        -13    1    4    4    0    0 -0.10856935692E+02 -0.42602377092E+01 -0.20608845567E+02  0.23680336940E+02  0.10566000000E+00 0.  1.
         14    1    4    4    0    0 -0.12895690124E+02 -0.38129166114E+01 -0.25274383440E+02  0.28629209126E+02  0.00000000000E+00 0. -1.
<mgrwt>
<rscale>  0 0.79564320E+02</rscale>
<asrwt>0</asrwt>
<pdfrwt beam="1">  1        2 0.88782818E-03 0.79564320E+02</pdfrwt>
<pdfrwt beam="2">  1       -1 0.42191123E-01 0.79564320E+02</pdfrwt>
<totfact> 0.90786993E+04</totfact>
</mgrwt>
</event>
<event>
 8    1  0.2603554E-020  0.7675908E+02  0.7818608E-02  0.1338509E+00
         -1   -1    0    0    0  501 -0.00000000000E+00  0.00000000000E+00  0.94066917563E+01  0.94066931065E+01  0.50400000000E-02 0.  1.
          2   -1    0    0  501    0  0.00000000000E+00 -0.00000000000E+00 -0.15658948395E+03  0.15658948398E+03  0.25500000000E-02 0. -1.
         24    2    1    2    0    0 -0.35527136788E-14  0.00000000000E+00 -0.14718279220E+03  0.16599617708E+03  0.76759080808E+02 0.  0.
         66    2    3    3    0    0  0.28527828771E+02  0.23458813882E+01 -0.12884559641E+03  0.13200199983E+03  0.20000173466E+01 0.  0.
        -13    1    3    3    0    0 -0.28527828771E+02 -0.23458813882E+01 -0.18337195784E+02  0.33994177253E+02  0.10566000000E+00 0.  1.
         13    1    4    4    0    0  0.68851284779E+01  0.91336348464E+00 -0.28211092342E+02  0.29053676569E+02  0.10566000000E+00 0. -1.
        -13    1    4    4    0    0  0.41047074942E+01  0.36291943258E+00 -0.17861461373E+02  0.18330938343E+02  0.10566000000E+00 0. -1.
         14    1    4    4    0    0  0.17537992799E+02  0.10695984709E+01 -0.82773042700E+02  0.84617384917E+02  0.00000000000E+00 0. -1.
<mgrwt>
<rscale>  0 0.76759081E+02</rscale>
<asrwt>0</asrwt>
<pdfrwt beam="1">  1        2 0.24090688E-01 0.76759081E+02</pdfrwt>
<pdfrwt beam="2">  1       -1 0.14471836E-02 0.76759081E+02</pdfrwt>
<totfact> 0.22659190E+05</totfact>
</mgrwt>
</event>
<event>
 8    1  0.2603554E-020  0.8078049E+02  0.7818608E-02  0.1326851E+00
         -1   -1    0    0    0  501 -0.00000000000E+00  0.00000000000E+00  0.68311442193E+01  0.68311460785E+01  0.50400000000E-02 0.  1.
          2   -1    0    0  501    0  0.00000000000E+00 -0.00000000000E+00 -0.23881379798E+03  0.23881379800E+03  0.25500000000E-02 0. -1.
         24    2    1    2    0    0  0.35527136788E-14 -0.35527136788E-14 -0.23198265376E+03  0.24564494408E+03  0.80780485901E+02 0.  0.
         66    2    3    3    0    0 -0.16395234995E+02  0.14433523447E+02 -0.21928420492E+03  0.22037852176E+03  0.19999990496E+01 0.  0.
        -13    1    3    3    0    0  0.16395234995E+02 -0.14433523447E+02 -0.12698448849E+02  0.25266422320E+02  0.10566000000E+00 0.  1.
         13    1    4    4    0    0 -0.14776028250E+01  0.20763905419E+01 -0.23727632182E+02  0.23864333236E+02  0.10566000000E+00 0. -1.
        -13    1    4    4    0    0 -0.51144391787E+01  0.44039680331E+01 -0.69771262836E+02  0.70097023505E+02  0.10566000000E+00 0.  1.
         14    1    4    4    0    0 -0.98031929912E+01  0.79531648724E+01 -0.12578530990E+03  0.12641716502E+03  0.00000000000E+00 0. -1.
<mgrwt>
<rscale>  0 0.80780486E+02</rscale>
<asrwt>0</asrwt>
<pdfrwt beam="1">  1        2 0.36740578E-01 0.80780486E+02</pdfrwt>
<pdfrwt beam="2">  1       -1 0.10509456E-02 0.80780486E+02</pdfrwt>
<totfact> 0.22888561E+05</totfact>
</mgrwt>
</event>
<event>
 8    1  0.2603554E-020  0.7902464E+02  0.7818608E-02  0.1331842E+00
         -1   -1    0    0    0  501 -0.00000000000E+00  0.00000000000E+00  0.82376986930E+02  0.82376987084E+02  0.50400000000E-02 0.  1.
          2   -1    0    0  501    0  0.00000000000E+00 -0.00000000000E+00 -0.18952179808E+02  0.18952179979E+02  0.25500000000E-02 0. -1.
         24    2    1    2    0    0  0.00000000000E+00  0.00000000000E+00  0.63424807122E+02  0.10132916706E+03  0.79024641342E+02 0.  0.
         66    2    3    3    0    0  0.20058023297E+02 -0.13141284304E+02 -0.84939857780E+01  0.25517943699E+02  0.20000011270E+01 0.  0.
        -13    1    3    3    0    0 -0.20058023297E+02  0.13141284304E+02  0.71918792900E+02  0.75811223364E+02  0.10566000000E+00 0.  1.
         13    1    4    4    0    0  0.48842331096E+01 -0.33176545444E+01 -0.12952168689E+01  0.60457683976E+01  0.10566000000E+00 0. -1.
        -13    1    4    4    0    0  0.32841363909E+01 -0.24594646692E+01 -0.14913994652E+01  0.43669159248E+01  0.10566000000E+00 0.  1.
         14    1    4    4    0    0  0.11889653796E+02 -0.73641650904E+01 -0.57073694438E+01  0.15105259377E+02  0.00000000000E+00 0. -1.
<mgrwt>
<rscale>  0 0.79024641E+02</rscale>
<asrwt>0</asrwt>
<pdfrwt beam="1">  1        2 0.29157200E-02 0.79024641E+02</pdfrwt>
<pdfrwt beam="2">  1       -1 0.12673383E-01 0.79024641E+02</pdfrwt>
<totfact> 0.12722105E+05</totfact>
</mgrwt>
</event>
<event>
 8    1  0.2603554E-020  0.8146932E+02  0.7818608E-02  0.1324933E+00
          2   -1    0    0  501    0  0.00000000000E+00  0.00000000000E+00  0.10028119980E+03  0.10028119983E+03  0.25500000000E-02 0. -1.
         -1   -1    0    0    0  501 -0.00000000000E+00 -0.00000000000E+00 -0.16546596303E+02  0.16546597071E+02  0.50400000000E-02 0.  1.
         24    2    1    2    0    0  0.00000000000E+00  0.00000000000E+00  0.83734603495E+02  0.11682779690E+03  0.81469321259E+02 0.  0.
         66    2    3    3    0    0  0.37370275335E+02 -0.15004429646E+02  0.33331870146E+02  0.52313325031E+02  0.20000051770E+01 0.  0.
        -13    1    3    3    0    0 -0.37370275335E+02  0.15004429646E+02  0.50402733349E+02  0.64514471871E+02  0.10566000000E+00 0.  1.
         13    1    4    4    0    0  0.24452257860E+02 -0.95311142811E+01  0.20756289492E+02  0.33460271538E+02  0.10566000000E+00 0. -1.
        -13    1    4    4    0    0  0.43896517321E+01 -0.16214920298E+01  0.44849795534E+01  0.64826294327E+01  0.10566000000E+00 0.  1.
         14    1    4    4    0    0  0.85283657437E+01 -0.38518233356E+01  0.80906011010E+01  0.12370424061E+02  0.00000000000E+00 0. -1.
<mgrwt>
<rscale>  0 0.81469321E+02</rscale>
<asrwt>0</asrwt>
<pdfrwt beam="1">  1        2 0.15427877E-01 0.81469321E+02</pdfrwt>
<pdfrwt beam="2">  1       -1 0.25456303E-02 0.81469321E+02</pdfrwt>
<totfact> 0.16894809E+05</totfact>
</mgrwt>
</event>
<event>
 8    1  0.2603554E-020  0.8276821E+02  0.7818608E-02  0.1321374E+00
         -1   -1    0    0    0  501 -0.00000000000E+00  0.00000000000E+00  0.58750227934E+01  0.58750249552E+01  0.50400000000E-02 0.  1.
          2   -1    0    0  501    0  0.00000000000E+00 -0.00000000000E+00 -0.29151274103E+03  0.29151274104E+03  0.25500000000E-02 0. -1.
         24    2    1    2    0    0  0.00000000000E+00  0.00000000000E+00 -0.28563771824E+03  0.29738776600E+03  0.82768214218E+02 0.  0.
         66    2    3    3    0    0 -0.24733545485E+02  0.10669947839E+02 -0.25567035151E+03  0.25709322181E+03  0.19999990759E+01 0.  0.
        -13    1    3    3    0    0  0.24733545485E+02 -0.10669947839E+02 -0.29967366721E+02  0.40294544189E+02  0.10566000000E+00 0.  1.
         13    1    4    4    0    0 -0.13621831691E+02  0.50775548203E+01 -0.13513761811E+03  0.13591733831E+03  0.10566000000E+00 0. -1.
        -13    1    4    4    0    0 -0.36926311054E+01  0.22200753236E+01 -0.43869911191E+02  0.44081113086E+02  0.10566000000E+00 0.  1.
         14    1    4    4    0    0 -0.74190826887E+01  0.33723176954E+01 -0.76662822218E+02  0.77094770413E+02  0.00000000000E+00 0. -1.
<mgrwt>
<rscale>  0 0.82768214E+02</rscale>
<asrwt>0</asrwt>
<pdfrwt beam="1">  1        2 0.44848103E-01 0.82768214E+02</pdfrwt>
<pdfrwt beam="2">  1       -1 0.90385006E-03 0.82768214E+02</pdfrwt>
<totfact> 0.23073725E+05</totfact>
</mgrwt>
</event>
<event>
 8    1  0.2603554E-020  0.7756888E+02  0.7818608E-02  0.1336096E+00
          2   -1    0    0  501    0  0.00000000000E+00  0.00000000000E+00  0.40953965077E+02  0.40953965156E+02  0.25500000000E-02 0. -1.
         -1   -1    0    0    0  501 -0.00000000000E+00 -0.00000000000E+00 -0.36729842178E+02  0.36729842523E+02  0.50400000000E-02 0.  1.
         24    2    1    2    0    0  0.00000000000E+00  0.00000000000E+00  0.42241228992E+01  0.77683807680E+02  0.77568877530E+02 0.  0.
         66    2    3    3    0    0  0.36054198364E+02  0.91129157007E+01  0.13051058806E+02  0.39462394652E+02  0.20000008711E+01 0.  0.
        -13    1    3    3    0    0 -0.36054198364E+02 -0.91129157007E+01 -0.88269359064E+01  0.38221413027E+02  0.10566000000E+00 0.  1.
         13    1    4    4    0    0  0.23496871856E+02  0.61849574951E+01  0.93618527107E+01  0.26038666180E+02  0.10566000000E+00 0. -1.
        -13    1    4    4    0    0  0.74284441258E+00  0.23110541516E+00  0.15215274677E+00  0.79971371638E+00  0.10566000000E+00 0.  1.
         14    1    4    4    0    0  0.11814482096E+02  0.26968527904E+01  0.35370533482E+01  0.12624014756E+02  0.00000000000E+00 0. -1.
<mgrwt>
<rscale>  0 0.77568878E+02</rscale>
<asrwt>0</asrwt>
<pdfrwt beam="1">  1        2 0.63006100E-02 0.77568878E+02</pdfrwt>
<pdfrwt beam="2">  1       -1 0.56507450E-02 0.77568878E+02</pdfrwt>
<totfact> 0.15595799E+05</totfact>
</mgrwt>
</event>
<event>
 8    1  0.2603554E-020  0.8072663E+02  0.7818608E-02  0.1327002E+00
         -1   -1    0    0    0  501 -0.00000000000E+00  0.00000000000E+00  0.20290886471E+02  0.20290887097E+02  0.50400000000E-02 0.  1.
          2   -1    0    0  501    0  0.00000000000E+00 -0.00000000000E+00 -0.80292062902E+02  0.80292062942E+02  0.25500000000E-02 0. -1.
         24    2    1    2    0    0  0.00000000000E+00  0.00000000000E+00 -0.60001176431E+02  0.10058295004E+03  0.80726629222E+02 0.  0.
         66    2    3    3    0    0  0.80810869188E+01  0.35843854655E+02 -0.50760002209E+02  0.62695005422E+02  0.19999995725E+01 0.  0.
        -13    1    3    3    0    0 -0.80810869188E+01 -0.35843854655E+02 -0.92411742218E+01  0.37887944617E+02  0.10566000000E+00 0.  1.
         13    1    4    4    0    0  0.36441090663E+01  0.18438265304E+02 -0.24693961531E+02  0.31033080067E+02  0.10566000000E+00 0. -1.
        -13    1    4    4    0    0  0.13126878520E+01  0.63255470425E+01 -0.93784561202E+01  0.11388691673E+02  0.10566000000E+00 0.  1.
         14    1    4    4    0    0  0.31242900006E+01  0.11080042308E+02 -0.16687584557E+02  0.20273233682E+02  0.00000000000E+00 0. -1.
<mgrwt>
<rscale>  0 0.80726629E+02</rscale>
<asrwt>0</asrwt>
<pdfrwt beam="1">  1        2 0.12352625E-01 0.80726629E+02</pdfrwt>
<pdfrwt beam="2">  1       -1 0.31216749E-02 0.80726629E+02</pdfrwt>
<totfact> 0.16308689E+05</totfact>
</mgrwt>
</event>
<event>
 8    1  0.2603554E-020  0.6940240E+02  0.7818608E-02  0.1362137E+00
         -1   -1    0    0    0  501 -0.00000000000E+00  0.00000000000E+00  0.28969034945E+02  0.28969035383E+02  0.50400000000E-02 0.  1.
          2   -1    0    0  501    0  0.00000000000E+00 -0.00000000000E+00 -0.41567602507E+02  0.41567602585E+02  0.25500000000E-02 0. -1.
         24    2    1    2    0    0  0.00000000000E+00  0.35527136788E-14 -0.12598567562E+02  0.70536637968E+02  0.69402401913E+02 0.  0.
         66    2    3    3    0    0  0.72715923899E+00  0.21369147233E+02 -0.34045251038E+02  0.40252308519E+02  0.20000022029E+01 0.  0.
        -13    1    3    3    0    0 -0.72715923899E+00 -0.21369147233E+02  0.21446683477E+02  0.30284329449E+02  0.10566000000E+00 0.  1.
         13    1    4    4    0    0  0.13633122514E+00  0.12212023632E+02 -0.20412280923E+02  0.23787065475E+02  0.10566000000E+00 0. -1.
        -13    1    4    4    0    0  0.83629231813E+00  0.56791512118E+01 -0.87403908537E+01  0.10457425096E+02  0.10566000000E+00 0.  1.
         14    1    4    4    0    0 -0.24546430428E+00  0.34779723891E+01 -0.48925792617E+01  0.60078179479E+01  0.00000000000E+00 0. -1.
<mgrwt>
<rscale>  0 0.69402402E+02</rscale>
<asrwt>0</asrwt>
<pdfrwt beam="1">  1        2 0.63950157E-02 0.69402402E+02</pdfrwt>
<pdfrwt beam="2">  1       -1 0.44567747E-02 0.69402402E+02</pdfrwt>
<totfact> 0.21170407E+05</totfact>
</mgrwt>
</event>
<event>
 8    1  0.2603554E-020  0.7971976E+02  0.7818608E-02  0.1329849E+00
         -1   -1    0    0    0  501 -0.00000000000E+00  0.00000000000E+00  0.39901626520E+01  0.39901658350E+01  0.50400000000E-02 0.  1.
          2   -1    0    0  501    0  0.00000000000E+00 -0.00000000000E+00 -0.39818161086E+03  0.39818161087E+03  0.25500000000E-02 0. -1.
         24    2    1    2    0    0  0.00000000000E+00 -0.35527136788E-14 -0.39419144821E+03  0.40217177671E+03  0.79719760012E+02 0.  0.
         66    2    3    3    0    0  0.18661496000E+02  0.27542644827E+02 -0.30774085703E+03  0.30954043969E+03  0.20000008906E+01 0.  0.
        -13    1    3    3    0    0 -0.18661496000E+02 -0.27542644827E+02 -0.86450591183E+02  0.92631337013E+02  0.10566000000E+00 0.  1.
         13    1    4    4    0    0  0.71822520086E+01  0.98695918229E+01 -0.11793296831E+03  0.11856302023E+03  0.10566000000E+00 0. -1.
        -13    1    4    4    0    0  0.33690900379E+01  0.58062651158E+01 -0.57030299731E+02  0.57424121532E+02  0.10566000000E+00 0.  1.
         14    1    4    4    0    0  0.81101539536E+01  0.11866787889E+02 -0.13277758898E+03  0.13355329793E+03  0.00000000000E+00 0. -1.
<mgrwt>
<rscale>  0 0.79719760E+02</rscale>
<asrwt>0</asrwt>
<pdfrwt beam="1">  1        2 0.61258678E-01 0.79719760E+02</pdfrwt>
<pdfrwt beam="2">  1       -1 0.61387174E-03 0.79719760E+02</pdfrwt>
<totfact> 0.28468356E+05</totfact>
</mgrwt>
</event>
<event>
 8    1  0.2603554E-020  0.7893502E+02  0.7818608E-02  0.1332101E+00
         -1   -1    0    0    0  501 -0.00000000000E+00  0.00000000000E+00  0.89784591026E+01  0.89784605172E+01  0.50400000000E-02 0.  1.
          2   -1    0    0  501    0  0.00000000000E+00 -0.00000000000E+00 -0.17349124518E+03  0.17349124520E+03  0.25500000000E-02 0. -1.
         24    2    1    2    0    0  0.00000000000E+00  0.44408920985E-15 -0.16451278608E+03  0.18246970572E+03  0.78935015811E+02 0.  0.
         66    2    3    3    0    0  0.38071313070E+02 -0.37040606184E+01 -0.10454585948E+03  0.11134173376E+03  0.19999999927E+01 0.  0.
        -13    1    3    3    0    0 -0.38071313070E+02  0.37040606184E+01 -0.59966926601E+02  0.71127971952E+02  0.10566000000E+00 0.  1.
         13    1    4    4    0    0  0.16519845218E+02 -0.88215329798E+00 -0.43897299889E+02  0.46911273507E+02  0.10566000000E+00 0. -1.
        -13    1    4    4    0    0  0.73675557895E+01 -0.10669712015E+01 -0.21806035739E+02  0.23041997842E+02  0.10566000000E+00 0.  1.
        -14    1    4    4    0    0  0.14183912063E+02 -0.17549361189E+01 -0.38842523847E+02  0.41388462414E+02  0.00000000000E+00 0.  1.
<mgrwt>
<rscale>  0 0.78935016E+02</rscale>
<asrwt>0</asrwt>
<pdfrwt beam="1">  1        2 0.26690958E-01 0.78935016E+02</pdfrwt>
<pdfrwt beam="2">  1       -1 0.13813016E-02 0.78935016E+02</pdfrwt>
<totfact> 0.21769532E+05</totfact>
</mgrwt>
</event>
<event>
 8    1  0.2603554E-020  0.7834676E+02  0.7818608E-02  0.1333810E+00
         -1   -1    0    0    0  501 -0.00000000000E+00  0.00000000000E+00  0.20585332138E+01  0.20585393837E+01  0.50400000000E-02 0.  1.
          2   -1    0    0  501    0  0.00000000000E+00 -0.00000000000E+00 -0.74545867840E+03  0.74545867840E+03  0.25500000000E-02 0. -1.
         24    2    1    2    0    0  0.00000000000E+00  0.00000000000E+00 -0.74340014519E+03  0.74751721779E+03  0.78346761431E+02 0.  0.
         66    2    3    3    0    0 -0.17077300289E+02 -0.28505380470E+02 -0.56941272034E+03  0.57038499015E+03  0.19999993800E+01 0.  0.
        -13    1    3    3    0    0  0.17077300289E+02  0.28505380470E+02 -0.17398742484E+03  0.17713222764E+03  0.10566000000E+00 0.  1.
         13    1    4    4    0    0 -0.58362358514E+00 -0.15583853621E+01 -0.31962060570E+02  0.32005525482E+02  0.10566000000E+00 0. -1.
        -13    1    4    4    0    0 -0.39577912095E+01 -0.67339941919E+01 -0.13998571846E+03  0.14020350682E+03  0.10566000000E+00 0.  1.
         14    1    4    4    0    0 -0.12535885494E+02 -0.20213000916E+02 -0.39746494132E+03  0.39817595785E+03  0.00000000000E+00 0. -1.
<mgrwt>
<rscale>  0 0.78346761E+02</rscale>
<asrwt>0</asrwt>
<pdfrwt beam="1">  1        2 0.11468574E+00 0.78346761E+02</pdfrwt>
<pdfrwt beam="2">  1       -1 0.31669849E-03 0.78346761E+02</pdfrwt>
<totfact> 0.35799908E+05</totfact>
</mgrwt>
</event>
<event>
 8    1  0.2603554E-020  0.8164666E+02  0.7818608E-02  0.1324442E+00
          2   -1    0    0  501    0  0.00000000000E+00  0.00000000000E+00  0.12345877723E+02  0.12345877986E+02  0.25500000000E-02 0. -1.
         -1   -1    0    0    0  501 -0.00000000000E+00 -0.00000000000E+00 -0.13498792746E+03  0.13498792755E+03  0.50400000000E-02 0.  1.
         24    2    1    2    0    0  0.00000000000E+00  0.35527136788E-14 -0.12264204973E+03  0.14733380554E+03  0.81646664911E+02 0.  0.
         66    2    3    3    0    0 -0.20693027132E+02 -0.30848577470E+02 -0.30909612516E+02  0.48365692967E+02  0.20000016158E+01 0.  0.
        -13    1    3    3    0    0  0.20693027132E+02  0.30848577470E+02 -0.91732437216E+02  0.98968112569E+02  0.10566000000E+00 0.  1.
         13    1    4    4    0    0 -0.14666432968E+02 -0.21424116144E+02 -0.21415312416E+02  0.33655962005E+02  0.10566000000E+00 0. -1.
        -13    1    4    4    0    0 -0.15415380821E+01 -0.23142410163E+01 -0.29571764431E+01  0.40605550965E+01  0.10566000000E+00 0.  1.
         14    1    4    4    0    0 -0.44850560818E+01 -0.71102203101E+01 -0.65371236568E+01  0.10649175866E+02  0.00000000000E+00 0. -1.
<mgrwt>
<rscale>  0 0.81646665E+02</rscale>
<asrwt>0</asrwt>
<pdfrwt beam="1">  1        2 0.18993659E-02 0.81646665E+02</pdfrwt>
<pdfrwt beam="2">  1       -1 0.20767373E-01 0.81646665E+02</pdfrwt>
<totfact> 0.10519193E+05</totfact>
</mgrwt>
</event>
<event>
 8    1  0.2603554E-020  0.7966614E+02  0.7818608E-02  0.1330002E+00
         -1   -1    0    0    0  501 -0.00000000000E+00  0.00000000000E+00  0.10580148354E+03  0.10580148366E+03  0.50400000000E-02 0.  1.
          2   -1    0    0  501    0  0.00000000000E+00 -0.00000000000E+00 -0.14996704109E+02  0.14996704326E+02  0.25500000000E-02 0. -1.
         24    2    1    2    0    0  0.00000000000E+00  0.35527136788E-14  0.90804779428E+02  0.12079818798E+03  0.79666142451E+02 0.  0.
         66    2    3    3    0    0 -0.22050622439E+02 -0.13712290729E+02 -0.32059835867E+00  0.26045338381E+02  0.20000002667E+01 0.  0.
        -13    1    3    3    0    0  0.22050622439E+02  0.13712290729E+02  0.91125377787E+02  0.94752849602E+02  0.10566000000E+00 0.  1.
         13    1    4    4    0    0 -0.12107772236E+02 -0.68768311025E+01 -0.50811262739E+00  0.13934069650E+02  0.10566000000E+00 0.  1.
        -13    1    4    4    0    0 -0.52480089100E+01 -0.34086334131E+01  0.58024842488E+00  0.62855573766E+01  0.10566000000E+00 0. -1.
        -14    1    4    4    0    0 -0.46948412932E+01 -0.34268262135E+01 -0.39273415615E+00  0.58257113542E+01  0.00000000000E+00 0.  1.
<mgrwt>
<rscale>  0 0.79666142E+02</rscale>
<asrwt>0</asrwt>
<pdfrwt beam="1">  1        2 0.23071853E-02 0.79666142E+02</pdfrwt>
<pdfrwt beam="2">  1       -1 0.16277151E-01 0.79666142E+02</pdfrwt>
<totfact> 0.11832305E+05</totfact>
</mgrwt>
</event>
<event>
 8    1  0.2603554E-020  0.8041644E+02  0.7818608E-02  0.1327874E+00
         -1   -1    0    0    0  501 -0.00000000000E+00  0.00000000000E+00  0.16007984521E+01  0.16008063862E+01  0.50400000000E-02 0.  1.
          2   -1    0    0  501    0  0.00000000000E+00 -0.00000000000E+00 -0.10099314909E+04  0.10099314909E+04  0.25500000000E-02 0. -1.
         24    2    1    2    0    0  0.35527136788E-14  0.00000000000E+00 -0.10083306925E+04  0.10115322973E+04  0.80416435680E+02 0.  0.
         66    2    3    3    0    0 -0.24900559738E+02  0.15193292510E+02 -0.85211729927E+03  0.85261876928E+03  0.20000000523E+01 0.  0.
        -13    1    3    3    0    0  0.24900559738E+02 -0.15193292510E+02 -0.15621339322E+03  0.15891352805E+03  0.10566000000E+00 0.  1.
         13    1    4    4    0    0 -0.10786934586E+02  0.60198419053E+01 -0.38292966875E+03  0.38312888018E+03  0.10566000000E+00 0. -1.
        -13    1    4    4    0    0 -0.36017977404E+01  0.25919632153E+01 -0.11970101191E+03  0.11978328196E+03  0.10566000000E+00 0.  1.
         14    1    4    4    0    0 -0.10511827412E+02  0.65814873896E+01 -0.34948661860E+03  0.34970660714E+03  0.00000000000E+00 0. -1.
<mgrwt>
<rscale>  0 0.80416436E+02</rscale>
<asrwt>0</asrwt>
<pdfrwt beam="1">  1        2 0.15537357E+00 0.80416436E+02</pdfrwt>
<pdfrwt beam="2">  1       -1 0.24627810E-03 0.80416436E+02</pdfrwt>
<totfact> 0.34772523E+05</totfact>
</mgrwt>
</event>
<event>
 8    1  0.2603554E-020  0.8015535E+02  0.7818608E-02  0.1328611E+00
         -1   -1    0    0    0  501 -0.00000000000E+00  0.00000000000E+00  0.25769634088E+02  0.25769634581E+02  0.50400000000E-02 0.  1.
          2   -1    0    0  501    0  0.00000000000E+00 -0.00000000000E+00 -0.62329943274E+02  0.62329943326E+02  0.25500000000E-02 0. -1.
         24    2    1    2    0    0 -0.35527136788E-14  0.17763568394E-14 -0.36560309186E+02  0.88099577906E+02  0.80155345546E+02 0.  0.
         66    2    3    3    0    0 -0.20842101877E+02  0.13515282834E+02 -0.52824546747E+02  0.58407951676E+02  0.19999997971E+01 0.  0.
        -13    1    3    3    0    0  0.20842101877E+02 -0.13515282834E+02  0.16264237562E+02  0.29691626231E+02  0.10566000000E+00 0.  1.
         13    1    4    4    0    0 -0.96893041998E+01  0.67420005600E+01 -0.25170449095E+02  0.27801076581E+02  0.10566000000E+00 0. -1.
        -13    1    4    4    0    0 -0.20923193501E+01  0.73115303452E+00 -0.43197444896E+01  0.48563094541E+01  0.10566000000E+00 0.  1.
        -14    1    4    4    0    0 -0.90604783267E+01  0.60421292399E+01 -0.23334353163E+02  0.25750565640E+02  0.00000000000E+00 0.  1.
<mgrwt>
<rscale>  0 0.80155346E+02</rscale>
<asrwt>0</asrwt>
<pdfrwt beam="1">  1        2 0.95892221E-02 0.80155346E+02</pdfrwt>
<pdfrwt beam="2">  1       -1 0.39645591E-02 0.80155346E+02</pdfrwt>
<totfact> 0.15622114E+05</totfact>
</mgrwt>
</event>
<event>
 8    1  0.2603554E-020  0.8005571E+02  0.7818608E-02  0.1328893E+00
         -1   -1    0    0    0  501 -0.00000000000E+00  0.00000000000E+00  0.64863101301E+02  0.64863101497E+02  0.50400000000E-02 0.  1.
          2   -1    0    0  501    0  0.00000000000E+00 -0.00000000000E+00 -0.24701703411E+02  0.24701703542E+02  0.25500000000E-02 0. -1.
         24    2    1    2    0    0  0.00000000000E+00  0.35527136788E-14  0.40161397890E+02  0.89564805039E+02  0.80055708236E+02 0.  0.
         66    2    3    3    0    0  0.16418398743E+02 -0.26825203492E+02 -0.75628517004E+01  0.32409135830E+02  0.19999999217E+01 0.  0.
        -13    1    3    3    0    0 -0.16418398743E+02  0.26825203492E+02  0.47724249591E+02  0.57155669209E+02  0.10566000000E+00 0.  1.
         13    1    4    4    0    0  0.88396395843E+01 -0.13017168983E+02 -0.36323776143E+01  0.16149032400E+02  0.10566000000E+00 0. -1.
        -13    1    4    4    0    0  0.50254043125E+00 -0.91247831750E+00 -0.47747660491E+00  0.11507873430E+01  0.10566000000E+00 0.  1.
         14    1    4    4    0    0  0.70762187279E+01 -0.12895556192E+02 -0.34529974812E+01  0.15109316086E+02  0.00000000000E+00 0. -1.
<mgrwt>
<rscale>  0 0.80055708E+02</rscale>
<asrwt>0</asrwt>
<pdfrwt beam="1">  1        2 0.38002622E-02 0.80055708E+02</pdfrwt>
<pdfrwt beam="2">  1       -1 0.99789385E-02 0.80055708E+02</pdfrwt>
<totfact> 0.12924140E+05</totfact>
</mgrwt>
</event>
<event>
 8    1  0.2603554E-020  0.7945342E+02  0.7818608E-02  0.1330610E+00
          2   -1    0    0  501    0  0.00000000000E+00  0.00000000000E+00  0.53024116554E+01  0.53024122686E+01  0.25500000000E-02 0. -1.
         -1   -1    0    0    0  501 -0.00000000000E+00 -0.00000000000E+00 -0.29764027330E+03  0.29764027334E+03  0.50400000000E-02 0.  1.
         24    2    1    2    0    0  0.00000000000E+00  0.00000000000E+00 -0.29233786164E+03  0.30294268561E+03  0.79453416631E+02 0.  0.
         66    2    3    3    0    0  0.36007533507E+02  0.32862039110E+01 -0.83741879526E+02  0.91236198877E+02  0.19999983865E+01 0.  0.
        -13    1    3    3    0    0 -0.36007533507E+02 -0.32862039110E+01 -0.20859598212E+03  0.21170648673E+03  0.10566000000E+00 0.  1.
         13    1    4    4    0    0  0.18672439884E+02  0.23742009740E+01 -0.43878723219E+02  0.47745684170E+02  0.10566000000E+00 0. -1.
        -13    1    4    4    0    0  0.93472225551E+01  0.86709059267E+00 -0.20717624968E+02  0.22745407535E+02  0.10566000000E+00 0.  1.
        -14    1    4    4    0    0  0.79878710679E+01  0.44912344282E-01 -0.19145531339E+02  0.20745107172E+02  0.00000000000E+00 0.  1.
<mgrwt>
<rscale>  0 0.79453417E+02</rscale>
<asrwt>0</asrwt>
<pdfrwt beam="1">  1        2 0.81575592E-03 0.79453417E+02</pdfrwt>
<pdfrwt beam="2">  1       -1 0.45790798E-01 0.79453417E+02</pdfrwt>
<totfact> 0.88245915E+04</totfact>
</mgrwt>
</event>
<event>
 8    1  0.2603554E-020  0.7931494E+02  0.7818608E-02  0.1331007E+00
         -1   -1    0    0    0  501 -0.00000000000E+00  0.00000000000E+00  0.25266198039E+02  0.25266198542E+02  0.50400000000E-02 0.  1.
          2   -1    0    0  501    0  0.00000000000E+00 -0.00000000000E+00 -0.62245805045E+02  0.62245805097E+02  0.25500000000E-02 0. -1.
         24    2    1    2    0    0  0.00000000000E+00  0.00000000000E+00 -0.36979607005E+02  0.87512003639E+02  0.79314938357E+02 0.  0.
         66    2    3    3    0    0  0.10040326998E+02 -0.28810976901E+02 -0.46410555643E+02  0.55577155706E+02  0.20000012623E+01 0.  0.
        -13    1    3    3    0    0 -0.10040326998E+02  0.28810976901E+02  0.94309486375E+01  0.31934847933E+02  0.10566000000E+00 0.  1.
         13    1    4    4    0    0  0.74972266515E+00 -0.25884869097E+01 -0.36236804593E+01  0.45171420902E+01  0.10566000000E+00 0. -1.
        -13    1    4    4    0    0  0.21695062013E+01 -0.49483488759E+01 -0.74624619944E+01  0.92137080923E+01  0.10566000000E+00 0.  1.
         14    1    4    4    0    0  0.71210981316E+01 -0.21274141116E+02 -0.35324413189E+02  0.41846305524E+02  0.00000000000E+00 0. -1.
<mgrwt>
<rscale>  0 0.79314938E+02</rscale>
<asrwt>0</asrwt>
<pdfrwt beam="1">  1        2 0.95762777E-02 0.79314938E+02</pdfrwt>
<pdfrwt beam="2">  1       -1 0.38871075E-02 0.79314938E+02</pdfrwt>
<totfact> 0.16070712E+05</totfact>
</mgrwt>
</event>
<event>
 8    1  0.2603554E-020  0.8212069E+02  0.7818608E-02  0.1323139E+00
         -1   -1    0    0    0  501 -0.00000000000E+00  0.00000000000E+00  0.30934108875E+01  0.30934149933E+01  0.50400000000E-02 0.  1.
          2   -1    0    0  501    0  0.00000000000E+00 -0.00000000000E+00 -0.54501350763E+03  0.54501350764E+03  0.25500000000E-02 0. -1.
         24    2    1    2    0    0  0.44408920985E-15  0.00000000000E+00 -0.54192009675E+03  0.54810692263E+03  0.82120687898E+02 0.  0.
         66    2    3    3    0    0  0.38117531438E+01 -0.28454780945E+02 -0.46682309418E+03  0.46770931708E+03  0.20000000218E+01 0.  0.
        -13    1    3    3    0    0 -0.38117531438E+01  0.28454780945E+02 -0.75097002565E+02  0.80397605555E+02  0.10566000000E+00 0.  1.
         13    1    4    4    0    0  0.26928026530E+01 -0.23627660862E+02 -0.38561184744E+03  0.38634443906E+03  0.10566000000E+00 0. -1.
        -13    1    4    4    0    0  0.10267062567E+01 -0.47373630889E+01 -0.80005968276E+02  0.80152747043E+02  0.10566000000E+00 0.  1.
        -14    1    4    4    0    0  0.92244234076E-01 -0.89756993878E-01 -0.12052784653E+01  0.12121309730E+01  0.00000000000E+00 0.  1.
<mgrwt>
<rscale>  0 0.82120688E+02</rscale>
<asrwt>0</asrwt>
<pdfrwt beam="1">  1        2 0.83848155E-01 0.82120688E+02</pdfrwt>
<pdfrwt beam="2">  1       -1 0.47591012E-03 0.82120688E+02</pdfrwt>
<totfact> 0.29214463E+05</totfact>
</mgrwt>
</event>
<event>
 8    1  0.2603554E-020  0.7945304E+02  0.7818608E-02  0.1330611E+00
          2   -1    0    0  501    0  0.00000000000E+00  0.00000000000E+00  0.40921954854E+03  0.40921954854E+03  0.25500000000E-02 0. -1.
         -1   -1    0    0    0  501 -0.00000000000E+00 -0.00000000000E+00 -0.38565994790E+01  0.38566027723E+01  0.50400000000E-02 0.  1.
         24    2    1    2    0    0  0.00000000000E+00  0.00000000000E+00  0.40536294906E+03  0.41307615132E+03  0.79453044738E+02 0.  0.
         66    2    3    3    0    0  0.31317378251E+01  0.35492716554E+02  0.29385152671E+03  0.29601057487E+03  0.19999941336E+01 0.  0.
        -13    1    3    3    0    0 -0.31317378251E+01 -0.35492716554E+02  0.11151142235E+03  0.11706557645E+03  0.10566000000E+00 0.  1.
         13    1    4    4    0    0  0.86910887878E+00  0.13221414830E+02  0.10270919452E+03  0.10356037351E+03  0.10566000000E+00 0. -1.
        -13    1    4    4    0    0  0.13600499343E+01  0.10652281703E+02  0.93723295502E+02  0.94336568334E+02  0.10566000000E+00 0.  1.
         14    1    4    4    0    0  0.90257901199E+00  0.11619020021E+02  0.97419036689E+02  0.98113633021E+02  0.00000000000E+00 0. -1.
<mgrwt>
<rscale>  0 0.79453045E+02</rscale>
<asrwt>0</asrwt>
<pdfrwt beam="1">  1        2 0.62956864E-01 0.79453045E+02</pdfrwt>
<pdfrwt beam="2">  1       -1 0.59332315E-03 0.79453045E+02</pdfrwt>
<totfact> 0.28993480E+05</totfact>
</mgrwt>
</event>
<event>
 8    1  0.2603554E-020  0.8086828E+02  0.7818608E-02  0.1326605E+00
         -1   -1    0    0    0  501 -0.00000000000E+00  0.00000000000E+00  0.31324259895E+02  0.31324260301E+02  0.50400000000E-02 0.  1.
          2   -1    0    0  501    0  0.00000000000E+00 -0.00000000000E+00 -0.52193402076E+02  0.52193402138E+02  0.25500000000E-02 0. -1.
         24    2    1    2    0    0  0.00000000000E+00  0.11102230246E-15 -0.20869142181E+02  0.83517662439E+02  0.80868280827E+02 0.  0.
         66    2    3    3    0    0 -0.36612811178E+02  0.88471631397E+00 -0.28077713811E+02  0.46191326772E+02  0.19999976938E+01 0.  0.
        -13    1    3    3    0    0  0.36612811178E+02 -0.88471631397E+00  0.72085716307E+01  0.37326335667E+02  0.10566000000E+00 0.  1.
         13    1    4    4    0    0 -0.17400914820E+02  0.33541684349E+00 -0.12451065011E+02  0.21399638431E+02  0.10566000000E+00 0. -1.
        -13    1    4    4    0    0 -0.52377898486E+01  0.24452439028E+00 -0.37130682630E+01  0.64259065226E+01  0.10566000000E+00 0.  1.
         14    1    4    4    0    0 -0.13974106510E+02  0.30477508020E+00 -0.11913580537E+02  0.18365781818E+02  0.00000000000E+00 0. -1.
<mgrwt>
<rscale>  0 0.80868281E+02</rscale>
<asrwt>0</asrwt>
<pdfrwt beam="1">  1        2 0.80297542E-02 0.80868281E+02</pdfrwt>
<pdfrwt beam="2">  1       -1 0.48191170E-02 0.80868281E+02</pdfrwt>
<totfact> 0.14645080E+05</totfact>
</mgrwt>
</event>
<event>
 8    1  0.2603554E-020  0.7942314E+02  0.7818608E-02  0.1330696E+00
         -1   -1    0    0    0  501 -0.00000000000E+00  0.00000000000E+00  0.23802444579E+02  0.23802445113E+02  0.50400000000E-02 0.  1.
          2   -1    0    0  501    0  0.00000000000E+00 -0.00000000000E+00 -0.66254064655E+02  0.66254064704E+02  0.25500000000E-02 0. -1.
         24    2    1    2    0    0  0.35527136788E-14  0.35527136788E-14 -0.42451620076E+02  0.90056509817E+02  0.79423138400E+02 0.  0.
         66    2    3    3    0    0  0.27824620271E+02  0.27718209449E+02 -0.27702874491E+02  0.48103616131E+02  0.20000003868E+01 0.  0.
        -13    1    3    3    0    0 -0.27824620271E+02 -0.27718209449E+02 -0.14748745584E+02  0.41952893686E+02  0.10566000000E+00 0.  1.
         13    1    4    4    0    0  0.14200992802E+02  0.13870985453E+02 -0.12924728157E+02  0.23688229059E+02  0.10566000000E+00 0. -1.
        -13    1    4    4    0    0  0.91400719935E+01  0.89033705449E+01 -0.97980149839E+01  0.16087982620E+02  0.10566000000E+00 0.  1.
        -14    1    4    4    0    0  0.44835554755E+01  0.49438534510E+01 -0.49801313505E+01  0.83274044524E+01  0.00000000000E+00 0.  1.
<mgrwt>
<rscale>  0 0.79423138E+02</rscale>
<asrwt>0</asrwt>
<pdfrwt beam="1">  1        2 0.10192933E-01 0.79423138E+02</pdfrwt>
<pdfrwt beam="2">  1       -1 0.36619146E-02 0.79423138E+02</pdfrwt>
<totfact> 0.16248866E+05</totfact>
</mgrwt>
</event>
<event>
 8    1  0.2603554E-020  0.7668004E+02  0.7818608E-02  0.1338746E+00
         -1   -1    0    0    0  501 -0.00000000000E+00  0.00000000000E+00  0.10002360251E+03  0.10002360264E+03  0.50400000000E-02 0.  1.
          2   -1    0    0  501    0  0.00000000000E+00 -0.00000000000E+00 -0.14696103697E+02  0.14696103918E+02  0.25500000000E-02 0. -1.
         24    2    1    2    0    0  0.00000000000E+00  0.00000000000E+00  0.85327498815E+02  0.11471970656E+03  0.76680043156E+02 0.  0.
         66    2    3    3    0    0 -0.37433732517E+02 -0.80754110042E+01  0.40887596384E+02  0.56056151557E+02  0.19999990779E+01 0.  0.
        -13    1    3    3    0    0  0.37433732517E+02  0.80754110042E+01  0.44439902431E+02  0.58663554999E+02  0.10566000000E+00 0.  1.
         13    1    4    4    0    0 -0.24708698472E+01 -0.63616584487E+00  0.21770434284E+01  0.33556797983E+01  0.10566000000E+00 0. -1.
        -13    1    4    4    0    0 -0.24400181717E+02 -0.49147234513E+01  0.27524190474E+02  0.37109508211E+02  0.10566000000E+00 0.  1.
         14    1    4    4    0    0 -0.10562680953E+02 -0.25245217080E+01  0.11186362482E+02  0.15590963548E+02  0.00000000000E+00 0. -1.
<mgrwt>
<rscale>  0 0.76680043E+02</rscale>
<asrwt>0</asrwt>
<pdfrwt beam="1">  1        2 0.22609390E-02 0.76680043E+02</pdfrwt>
<pdfrwt beam="2">  1       -1 0.15388247E-01 0.76680043E+02</pdfrwt>
<totfact> 0.13173222E+05</totfact>
</mgrwt>
</event>
<event>
 8    1  0.2603554E-020  0.7850125E+02  0.7818608E-02  0.1333359E+00
         -1   -1    0    0    0  501 -0.00000000000E+00  0.00000000000E+00  0.10396639511E+03  0.10396639523E+03  0.50400000000E-02 0.  1.
          2   -1    0    0  501    0  0.00000000000E+00 -0.00000000000E+00 -0.14818360165E+02  0.14818360384E+02  0.25500000000E-02 0. -1.
         24    2    1    2    0    0 -0.35527136788E-14  0.88817841970E-15  0.89148034946E+02  0.11878475562E+03  0.78501248604E+02 0.  0.
         66    2    3    3    0    0  0.25306472760E+02 -0.57454347564E+01  0.94966874816E-01  0.26027612060E+02  0.19999966866E+01 0.  0.
        -13    1    3    3    0    0 -0.25306472760E+02  0.57454347564E+01  0.89053068071E+02  0.92757143558E+02  0.10566000000E+00 0.  1.
         13    1    4    4    0    0  0.36388660931E+01 -0.25755997545E+00  0.22345512042E+00  0.36563342039E+01  0.10566000000E+00 0. -1.
        -13    1    4    4    0    0  0.17808425183E+02 -0.45280412971E+01  0.24517695071E+00  0.18377008496E+02  0.10566000000E+00 0.  1.
        -14    1    4    4    0    0  0.38591814835E+01 -0.95983348386E+00 -0.37366519632E+00  0.39942693598E+01  0.00000000000E+00 0.  1.
<mgrwt>
<rscale>  0 0.78501249E+02</rscale>
<asrwt>0</asrwt>
<pdfrwt beam="1">  1        2 0.22797477E-02 0.78501249E+02</pdfrwt>
<pdfrwt beam="2">  1       -1 0.15994830E-01 0.78501249E+02</pdfrwt>
<totfact> 0.12322281E+05</totfact>
</mgrwt>
</event>
<event>
 8    1  0.2603554E-020  0.8097103E+02  0.7818608E-02  0.1326318E+00
         -1   -1    0    0    0  501 -0.00000000000E+00  0.00000000000E+00  0.26076572704E+03  0.26076572709E+03  0.50400000000E-02 0.  1.
          2   -1    0    0  501    0  0.00000000000E+00 -0.00000000000E+00 -0.62856291246E+01  0.62856296419E+01  0.25500000000E-02 0. -1.
         24    2    1    2    0    0 -0.35527136788E-14 -0.35527136788E-14  0.25448009792E+03  0.26705135673E+03  0.80971025044E+02 0.  0.
         66    2    3    3    0    0 -0.27653618009E+02 -0.19320272292E+02  0.53637634004E+02  0.63395514721E+02  0.19999986984E+01 0.  0.
        -13    1    3    3    0    0  0.27653618009E+02  0.19320272292E+02  0.20084246391E+03  0.20365584201E+03  0.10566000000E+00 0.  1.
         13    1    4    4    0    0 -0.14288178034E+02 -0.93043896614E+01  0.26165513424E+02  0.31230897446E+02  0.10566000000E+00 0. -1.
        -13    1    4    4    0    0 -0.29137313655E+01 -0.18412173792E+01  0.61571163056E+01  0.70569934919E+01  0.10566000000E+00 0.  1.
        -14    1    4    4    0    0 -0.10451708610E+02 -0.81746652518E+01  0.21315004274E+02  0.25107623783E+02  0.00000000000E+00 0.  1.
<mgrwt>
<rscale>  0 0.80971025E+02</rscale>
<asrwt>0</asrwt>
<pdfrwt beam="1">  1        2 0.96702007E-03 0.80971025E+02</pdfrwt>
<pdfrwt beam="2">  1       -1 0.40117797E-01 0.80971025E+02</pdfrwt>
<totfact> 0.88445546E+04</totfact>
</mgrwt>
</event>
<event>
 8    1  0.2603554E-020  0.7546083E+02  0.7818608E-02  0.1342450E+00
         -1   -1    0    0    0  501 -0.00000000000E+00  0.00000000000E+00  0.24282670930E+03  0.24282670935E+03  0.50400000000E-02 0.  1.
          2   -1    0    0  501    0  0.00000000000E+00 -0.00000000000E+00 -0.58625523586E+01  0.58625529132E+01  0.25500000000E-02 0. -1.
         24    2    1    2    0    0 -0.17763568394E-14  0.00000000000E+00  0.23696415694E+03  0.24868926227E+03  0.75460834154E+02 0.  0.
         66    2    3    3    0    0 -0.15353639786E+02 -0.30157115375E+02  0.63775307670E+02  0.72225173742E+02  0.19999978083E+01 0.  0.
        -13    1    3    3    0    0  0.15353639786E+02  0.30157115375E+02  0.17318884927E+03  0.17646408852E+03  0.10566000000E+00 0.  1.
         13    1    4    4    0    0 -0.89261144237E+01 -0.18611357297E+02  0.39555302688E+02  0.44617163445E+02  0.10566000000E+00 0. -1.
        -13    1    4    4    0    0 -0.10439092697E+01 -0.24135615933E+01  0.42554852275E+01  0.50035332201E+01  0.10566000000E+00 0.  1.
         14    1    4    4    0    0 -0.53836160931E+01 -0.91321964842E+01  0.19964519754E+02  0.22604477076E+02  0.00000000000E+00 0. -1.
<mgrwt>
<rscale>  0 0.75460834E+02</rscale>
<asrwt>0</asrwt>
<pdfrwt beam="1">  1        2 0.90193123E-03 0.75460834E+02</pdfrwt>
<pdfrwt beam="2">  1       -1 0.37357953E-01 0.75460834E+02</pdfrwt>
<totfact> 0.10858873E+05</totfact>
</mgrwt>
</event>
<event>
 8    1  0.2603554E-020  0.7763426E+02  0.7818608E-02  0.1335902E+00
         -1   -1    0    0    0  501 -0.00000000000E+00  0.00000000000E+00  0.65083971963E+01  0.65083991477E+01  0.50400000000E-02 0.  1.
          2   -1    0    0  501    0  0.00000000000E+00 -0.00000000000E+00 -0.23151159902E+03  0.23151159903E+03  0.25500000000E-02 0. -1.
         24    2    1    2    0    0 -0.17763568394E-14  0.00000000000E+00 -0.22500320182E+03  0.23801999818E+03  0.77634262433E+02 0.  0.
         66    2    3    3    0    0  0.14111009780E+02 -0.33486423244E+02 -0.15419843994E+03  0.15843490782E+03  0.19999992257E+01 0.  0.
        -13    1    3    3    0    0 -0.14111009780E+02  0.33486423244E+02 -0.70804761883E+02  0.79585090362E+02  0.10566000000E+00 0.  1.
         13    1    4    4    0    0  0.41161897517E+01 -0.91554301062E+01 -0.43036794270E+02  0.44192100466E+02  0.10566000000E+00 0.  1.
        -13    1    4    4    0    0  0.55785272151E+01 -0.13269370831E+02 -0.64247440648E+02  0.65840268545E+02  0.10566000000E+00 0. -1.
        -14    1    4    4    0    0  0.44162928128E+01 -0.11061622306E+02 -0.46914205021E+02  0.48402538808E+02  0.00000000000E+00 0.  1.
<mgrwt>
<rscale>  0 0.77634262E+02</rscale>
<asrwt>0</asrwt>
<pdfrwt beam="1">  1        2 0.35617163E-01 0.77634262E+02</pdfrwt>
<pdfrwt beam="2">  1       -1 0.10012922E-02 0.77634262E+02</pdfrwt>
<totfact> 0.25129190E+05</totfact>
</mgrwt>
</event>
<event>
 8    1  0.2603554E-020  0.7631558E+02  0.7818608E-02  0.1339845E+00
          2   -1    0    0  501    0  0.00000000000E+00  0.00000000000E+00  0.30359232541E+02  0.30359232648E+02  0.25500000000E-02 0. -1.
         -1   -1    0    0    0  501 -0.00000000000E+00 -0.00000000000E+00 -0.47959612580E+02  0.47959612845E+02  0.50400000000E-02 0.  1.
         24    2    1    2    0    0  0.00000000000E+00  0.00000000000E+00 -0.17600380038E+02  0.78318845493E+02  0.76315582824E+02 0.  0.
         66    2    3    3    0    0 -0.13964421735E+01  0.15981142157E+02  0.26694683742E+02  0.31208222543E+02  0.20000146991E+01 0.  0.
        -13    1    3    3    0    0  0.13964421735E+01 -0.15981142157E+02 -0.44295063780E+02  0.47110622950E+02  0.10566000000E+00 0.  1.
         13    1    4    4    0    0 -0.24414615953E+00  0.23203109751E+01  0.47365836536E+01  0.52810831381E+01  0.10566000000E+00 0.  1.
        -13    1    4    4    0    0 -0.50448316064E+00  0.10007828453E+02  0.14955819835E+02  0.18002745473E+02  0.10566000000E+00 0. -1.
         14    1    4    4    0    0 -0.64781285334E+00  0.36530027295E+01  0.70022802533E+01  0.79243939314E+01  0.00000000000E+00 0. -1.
<mgrwt>
<rscale>  0 0.76315583E+02</rscale>
<asrwt>0</asrwt>
<pdfrwt beam="1">  1        2 0.46706512E-02 0.76315583E+02</pdfrwt>
<pdfrwt beam="2">  1       -1 0.73784020E-02 0.76315583E+02</pdfrwt>
<totfact> 0.15383059E+05</totfact>
</mgrwt>
</event>
<event>
 8    1  0.2603554E-020  0.7751621E+02  0.7818608E-02  0.1336252E+00
         -1   -1    0    0    0  501 -0.00000000000E+00  0.00000000000E+00  0.18112683425E+01  0.18112753546E+01  0.50400000000E-02 0.  1.
          2   -1    0    0  501    0  0.00000000000E+00 -0.00000000000E+00 -0.82935692331E+03  0.82935692331E+03  0.25500000000E-02 0. -1.
         24    2    1    2    0    0  0.00000000000E+00  0.00000000000E+00 -0.82754565497E+03  0.83116819867E+03  0.77516213931E+02 0.  0.
         66    2    3    3    0    0  0.22278184940E+02 -0.13621251012E+02 -0.72078056264E+03  0.72125617882E+03  0.20000009134E+01 0.  0.
        -13    1    3    3    0    0 -0.22278184940E+02  0.13621251012E+02 -0.10676509233E+03  0.10991201985E+03  0.10566000000E+00 0.  1.
         13    1    4    4    0    0  0.10802835551E+02 -0.57980365039E+01 -0.34790425683E+03  0.34812024010E+03  0.10566000000E+00 0. -1.
        -13    1    4    4    0    0  0.67899794891E+01 -0.46675098257E+01 -0.23271262930E+03  0.23285847304E+03  0.10566000000E+00 0.  1.
        -14    1    4    4    0    0  0.46853699000E+01 -0.31557046822E+01 -0.14016367652E+03  0.14027746568E+03  0.00000000000E+00 0.  1.
<mgrwt>
<rscale>  0 0.77516214E+02</rscale>
<asrwt>0</asrwt>
<pdfrwt beam="1">  1        2 0.12759307E+00 0.77516214E+02</pdfrwt>
<pdfrwt beam="2">  1       -1 0.27865787E-03 0.77516214E+02</pdfrwt>
<totfact> 0.37515027E+05</totfact>
</mgrwt>
</event>
<event>
 8    1  0.2603554E-020  0.8137308E+02  0.7818608E-02  0.1325199E+00
          2   -1    0    0  501    0  0.00000000000E+00  0.00000000000E+00  0.29122788530E+02  0.29122788642E+02  0.25500000000E-02 0. -1.
         -1   -1    0    0    0  501 -0.00000000000E+00 -0.00000000000E+00 -0.56841890246E+02  0.56841890469E+02  0.50400000000E-02 0.  1.
         24    2    1    2    0    0  0.17763568394E-14 -0.71054273576E-14 -0.27719101716E+02  0.85964679111E+02  0.81373075736E+02 0.  0.
         66    2    3    3    0    0 -0.13176649266E+02  0.27129669477E+02  0.14942662328E+02  0.33718336395E+02  0.19999999870E+01 0.  0.
        -13    1    3    3    0    0  0.13176649266E+02 -0.27129669477E+02 -0.42661764044E+02  0.52246342716E+02  0.10566000000E+00 0.  1.
         13    1    4    4    0    0 -0.77828967800E+01  0.17855771563E+02  0.96611165110E+01  0.21742824027E+02  0.10566000000E+00 0. -1.
        -13    1    4    4    0    0 -0.16705078228E+01  0.25944793531E+01  0.17918806342E+01  0.35698627064E+01  0.10566000000E+00 0.  1.
         14    1    4    4    0    0 -0.37232446635E+01  0.66794185608E+01  0.34896651827E+01  0.84056496609E+01  0.00000000000E+00 0. -1.
<mgrwt>
<rscale>  0 0.81373076E+02</rscale>
<asrwt>0</asrwt>
<pdfrwt beam="1">  1        2 0.44804290E-02 0.81373076E+02</pdfrwt>
<pdfrwt beam="2">  1       -1 0.87449063E-02 0.81373076E+02</pdfrwt>
<totfact> 0.12751782E+05</totfact>
</mgrwt>
</event>
<event>
 8    1  0.2603554E-020  0.7802481E+02  0.7818608E-02  0.1334752E+00
          2   -1    0    0  501    0  0.00000000000E+00  0.00000000000E+00  0.58242713287E+03  0.58242713287E+03  0.25500000000E-02 0. -1.
         -1   -1    0    0    0  501 -0.00000000000E+00 -0.00000000000E+00 -0.26131449155E+01  0.26131497759E+01  0.50400000000E-02 0.  1.
         24    2    1    2    0    0  0.00000000000E+00  0.00000000000E+00  0.57981398795E+03  0.58504028265E+03  0.78024814625E+02 0.  0.
         66    2    3    3    0    0  0.11802632249E+02 -0.11506665853E+02  0.55501107096E+03  0.55525939377E+03  0.19999989421E+01 0.  0.
        -13    1    3    3    0    0 -0.11802632249E+02  0.11506665853E+02  0.24802916995E+02  0.29780888881E+02  0.10566000000E+00 0.  1.
         13    1    4    4    0    0  0.81068631653E+01 -0.82400744062E+01  0.36298427640E+03  0.36316830277E+03  0.10566000000E+00 0. -1.
        -13    1    4    4    0    0  0.76035334527E+00 -0.56115776472E+00  0.45448114058E+02  0.45458060569E+02  0.10566000000E+00 0.  1.
         14    1    4    4    0    0  0.29354157382E+01 -0.27054336817E+01  0.14657868050E+03  0.14663303043E+03  0.00000000000E+00 0. -1.
<mgrwt>
<rscale>  0 0.78024815E+02</rscale>
<asrwt>0</asrwt>
<pdfrwt beam="1">  1        2 0.89604309E-01 0.78024815E+02</pdfrwt>
<pdfrwt beam="2">  1       -1 0.40202207E-03 0.78024815E+02</pdfrwt>
<totfact> 0.34036325E+05</totfact>
</mgrwt>
</event>
<event>
 8    1  0.2603554E-020  0.8049404E+02  0.7818608E-02  0.1327655E+00
          2   -1    0    0  501    0  0.00000000000E+00  0.00000000000E+00  0.17416120180E+02  0.17416120367E+02  0.25500000000E-02 0. -1.
         -1   -1    0    0    0  501 -0.00000000000E+00 -0.00000000000E+00 -0.93007089422E+02  0.93007089559E+02  0.50400000000E-02 0.  1.
         24    2    1    2    0    0  0.00000000000E+00  0.00000000000E+00 -0.75590969242E+02  0.11042320993E+03  0.80494041142E+02 0.  0.
         66    2    3    3    0    0  0.31374544368E+02  0.63278807706E+01 -0.44011425093E+01  0.32369339403E+02  0.19999921628E+01 0.  0.
        -13    1    3    3    0    0 -0.31374544368E+02 -0.63278807706E+01 -0.71189826732E+02  0.78053870523E+02  0.10566000000E+00 0.  1.
         13    1    4    4    0    0  0.12875912651E+02  0.30428367182E+01 -0.25699122780E+01  0.13478263799E+02  0.10566000000E+00 0. -1.
        -13    1    4    4    0    0  0.67894376078E+01  0.15096152787E+01 -0.84151620881E+00  0.70067620829E+01  0.10566000000E+00 0. -1.
         14    1    4    4    0    0  0.11709194109E+02  0.17754287738E+01 -0.98971402248E+00  0.11884313521E+02  0.00000000000E+00 0. -1.
<mgrwt>
<rscale>  0 0.80494041E+02</rscale>
<asrwt>0</asrwt>
<pdfrwt beam="1">  1        2 0.26794032E-02 0.80494041E+02</pdfrwt>
<pdfrwt beam="2">  1       -1 0.14308783E-01 0.80494041E+02</pdfrwt>
<totfact> 0.11853831E+05</totfact>
</mgrwt>
</event>
<event>
 8    1  0.2603554E-020  0.7970982E+02  0.7818608E-02  0.1329877E+00
         -1   -1    0    0    0  501 -0.00000000000E+00  0.00000000000E+00  0.65554982894E+01  0.65555002269E+01  0.50400000000E-02 0.  1.
          2   -1    0    0  501    0  0.00000000000E+00 -0.00000000000E+00 -0.24230249648E+03  0.24230249649E+03  0.25500000000E-02 0. -1.
         24    2    1    2    0    0  0.00000000000E+00  0.17763568394E-14 -0.23574699819E+03  0.24885799672E+03  0.79709819820E+02 0.  0.
         66    2    3    3    0    0 -0.14995189028E+02 -0.15604744220E+02 -0.22234003549E+03  0.22339976526E+03  0.20000002395E+01 0.  0.
        -13    1    3    3    0    0  0.14995189028E+02  0.15604744220E+02 -0.13406962701E+02  0.25458231459E+02  0.10566000000E+00 0.  1.
         13    1    4    4    0    0 -0.70171642399E+01 -0.81766983864E+01 -0.10647280917E+03  0.10701667743E+03  0.10566000000E+00 0. -1.
        -13    1    4    4    0    0 -0.34266426442E+01 -0.31069497817E+01 -0.54341805571E+02  0.54538408608E+02  0.10566000000E+00 0. -1.
        -14    1    4    4    0    0 -0.45513821437E+01 -0.43210960514E+01 -0.61525420748E+02  0.61844679228E+02  0.00000000000E+00 0.  1.
<mgrwt>
<rscale>  0 0.79709820E+02</rscale>
<asrwt>0</asrwt>
<pdfrwt beam="1">  1        2 0.37277300E-01 0.79709820E+02</pdfrwt>
<pdfrwt beam="2">  1       -1 0.10085385E-02 0.79709820E+02</pdfrwt>
<totfact> 0.23829500E+05</totfact>
</mgrwt>
</event>
<event>
 8    1  0.2603554E-020  0.7996100E+02  0.7818608E-02  0.1329162E+00
         -1   -1    0    0    0  501 -0.00000000000E+00  0.00000000000E+00  0.18182416684E+02  0.18182417382E+02  0.50400000000E-02 0.  1.
          2   -1    0    0  501    0  0.00000000000E+00 -0.00000000000E+00 -0.87911324662E+02  0.87911324699E+02  0.25500000000E-02 0. -1.
         24    2    1    2    0    0 -0.35527136788E-14  0.00000000000E+00 -0.69728907978E+02  0.10609374208E+03  0.79960999874E+02 0.  0.
         66    2    3    3    0    0  0.12801297553E+02 -0.28909466655E+02 -0.67299840914E+02  0.74383459645E+02  0.20000001185E+01 0.  0.
        -13    1    3    3    0    0 -0.12801297553E+02  0.28909466655E+02 -0.24290670640E+01  0.31710282435E+02  0.10566000000E+00 0.  1.
         13    1    4    4    0    0  0.36733040523E+01 -0.66081708528E+01 -0.15568816382E+02  0.17307810152E+02  0.10566000000E+00 0.  1.
        -13    1    4    4    0    0  0.38066325289E+01 -0.86293647989E+01 -0.19382363333E+02  0.21555592324E+02  0.10566000000E+00 0. -1.
        -14    1    4    4    0    0  0.53213609719E+01 -0.13671931003E+02 -0.32348661199E+02  0.35520057169E+02  0.00000000000E+00 0.  1.
<mgrwt>
<rscale>  0 0.79961000E+02</rscale>
<asrwt>0</asrwt>
<pdfrwt beam="1">  1        2 0.13524819E-01 0.79961000E+02</pdfrwt>
<pdfrwt beam="2">  1       -1 0.27972950E-02 0.79961000E+02</pdfrwt>
<totfact> 0.17135232E+05</totfact>
</mgrwt>
</event>
<event>
 8    1  0.2603554E-020  0.8148866E+02  0.7818608E-02  0.1324879E+00
         -1   -1    0    0    0  501 -0.00000000000E+00  0.00000000000E+00  0.20166216842E+01  0.20166279822E+01  0.50400000000E-02 0.  1.
          2   -1    0    0  501    0  0.00000000000E+00 -0.00000000000E+00 -0.82320734356E+03  0.82320734356E+03  0.25500000000E-02 0. -1.
         24    2    1    2    0    0  0.00000000000E+00  0.00000000000E+00 -0.82119072187E+03  0.82522397154E+03  0.81488658840E+02 0.  0.
         66    2    3    3    0    0  0.11614056375E+02 -0.18976039552E+01 -0.80560867193E+03  0.80569710158E+03  0.19999982578E+01 0.  0.
        -13    1    3    3    0    0 -0.11614056375E+02  0.18976039552E+01 -0.15582049942E+02  0.19526869966E+02  0.10566000000E+00 0.  1.
         13    1    4    4    0    0  0.18466452753E+01 -0.29984291975E+00 -0.12744520726E+03  0.12745898172E+03  0.10566000000E+00 0. -1.
        -13    1    4    4    0    0  0.87316438897E+01 -0.92029473829E+00 -0.57100730759E+03  0.57107481562E+03  0.10566000000E+00 0.  1.
        -14    1    4    4    0    0  0.10357672099E+01 -0.67746629714E+00 -0.10715615708E+03  0.10716330424E+03  0.00000000000E+00 0.  1.
<mgrwt>
<rscale>  0 0.81488659E+02</rscale>
<asrwt>0</asrwt>
<pdfrwt beam="1">  1        2 0.12664702E+00 0.81488659E+02</pdfrwt>
<pdfrwt beam="2">  1       -1 0.31025063E-03 0.81488659E+02</pdfrwt>
<totfact> 0.32912674E+05</totfact>
</mgrwt>
</event>
<event>
 8    1  0.2603554E-020  0.8128575E+02  0.7818608E-02  0.1325442E+00
         -1   -1    0    0    0  501 -0.00000000000E+00  0.00000000000E+00  0.24600142043E+02  0.24600142559E+02  0.50400000000E-02 0.  1.
          2   -1    0    0  501    0  0.00000000000E+00 -0.00000000000E+00 -0.67147708801E+02  0.67147708850E+02  0.25500000000E-02 0. -1.
         24    2    1    2    0    0  0.00000000000E+00 -0.88817841970E-15 -0.42547566758E+02  0.91747851409E+02  0.81285747835E+02 0.  0.
         66    2    3    3    0    0  0.36283872895E+02  0.58654639392E+01 -0.40801037115E+02  0.54951321283E+02  0.19999954046E+01 0.  0.
        -13    1    3    3    0    0 -0.36283872895E+02 -0.58654639392E+01 -0.17465296431E+01  0.36796530126E+02  0.10566000000E+00 0.  1.
         13    1    4    4    0    0  0.18814362160E+01  0.19662193365E+00 -0.18688374454E+01  0.26612365270E+01  0.10566000000E+00 0. -1.
        -13    1    4    4    0    0  0.91703747584E+01  0.85757326560E+00 -0.97327183349E+01  0.13400305046E+02  0.10566000000E+00 0.  1.
         14    1    4    4    0    0  0.25232061921E+02  0.48112687399E+01 -0.29199481335E+02  0.38889779710E+02  0.00000000000E+00 0. -1.
<mgrwt>
<rscale>  0 0.81285748E+02</rscale>
<asrwt>0</asrwt>
<pdfrwt beam="1">  1        2 0.10330417E-01 0.81285748E+02</pdfrwt>
<pdfrwt beam="2">  1       -1 0.37846373E-02 0.81285748E+02</pdfrwt>
<totfact> 0.15307781E+05</totfact>
</mgrwt>
</event>
<event>
 8    1  0.2603554E-020  0.7875889E+02  0.7818608E-02  0.1332611E+00
          2   -1    0    0  501    0  0.00000000000E+00  0.00000000000E+00  0.11294630546E+03  0.11294630549E+03  0.25500000000E-02 0. -1.
         -1   -1    0    0    0  501 -0.00000000000E+00 -0.00000000000E+00 -0.13729891222E+02  0.13729892147E+02  0.50400000000E-02 0.  1.
         24    2    1    2    0    0  0.00000000000E+00  0.35527136788E-14  0.99216414235E+02  0.12667619763E+03  0.78758886440E+02 0.  0.
         66    2    3    3    0    0  0.64647011857E+00  0.28547508749E+02  0.93196640421E+02  0.97493548333E+02  0.20000003123E+01 0.  0.
        -13    1    3    3    0    0 -0.64647011857E+00 -0.28547508749E+02  0.60197738134E+01  0.29182649301E+02  0.10566000000E+00 0.  1.
         13    1    4    4    0    0 -0.99399829189E-01  0.21416809139E+01  0.71027206438E+01  0.74200055284E+01  0.10566000000E+00 0.  1.
        -13    1    4    4    0    0  0.44716912812E+00  0.21353067784E+02  0.67128089052E+02  0.70443913632E+02  0.10566000000E+00 0. -1.
        -14    1    4    4    0    0  0.29870081964E+00  0.50527600518E+01  0.18965830726E+02  0.19629629172E+02  0.00000000000E+00 0.  1.
<mgrwt>
<rscale>  0 0.78758886E+02</rscale>
<asrwt>0</asrwt>
<pdfrwt beam="1">  1        2 0.17376355E-01 0.78758886E+02</pdfrwt>
<pdfrwt beam="2">  1       -1 0.21122911E-02 0.78758886E+02</pdfrwt>
<totfact> 0.19136532E+05</totfact>
</mgrwt>
</event>
<event>
 8    1  0.2603554E-020  0.7992099E+02  0.7818608E-02  0.1329276E+00
         -1   -1    0    0    0  501 -0.00000000000E+00  0.00000000000E+00  0.47540810364E+01  0.47540837080E+01  0.50400000000E-02 0.  1.
          2   -1    0    0  501    0  0.00000000000E+00 -0.00000000000E+00 -0.33588842921E+03  0.33588842922E+03  0.25500000000E-02 0. -1.
         24    2    1    2    0    0  0.00000000000E+00  0.00000000000E+00 -0.33113434818E+03  0.34064251293E+03  0.79920992695E+02 0.  0.
         66    2    3    3    0    0 -0.10056645008E+00  0.22594888816E+02 -0.30602048111E+03  0.30686002342E+03  0.20000005804E+01 0.  0.
        -13    1    3    3    0    0  0.10056645008E+00 -0.22594888816E+02 -0.25113867066E+02  0.33782489507E+02  0.10566000000E+00 0.  1.
         13    1    4    4    0    0  0.35800396808E+00  0.12420050038E+02 -0.16445178393E+03  0.16492054515E+03  0.10566000000E+00 0. -1.
        -13    1    4    4    0    0  0.24410125149E+00  0.72848541793E+00 -0.96194973483E+01  0.96507082483E+01  0.10566000000E+00 0. -1.
         14    1    4    4    0    0 -0.70267166966E+00  0.94463533601E+01 -0.13194919983E+03  0.13228877003E+03  0.00000000000E+00 0. -1.
<mgrwt>
<rscale>  0 0.79920993E+02</rscale>
<asrwt>0</asrwt>
<pdfrwt beam="1">  1        2 0.51675124E-01 0.79920993E+02</pdfrwt>
<pdfrwt beam="2">  1       -1 0.73139755E-03 0.79920993E+02</pdfrwt>
<totfact> 0.26624142E+05</totfact>
</mgrwt>
</event>
<event>
 8    1  0.2603554E-020  0.8033657E+02  0.7818608E-02  0.1328099E+00
         -1   -1    0    0    0  501 -0.00000000000E+00  0.00000000000E+00  0.92822829566E+01  0.92822843249E+01  0.50400000000E-02 0.  1.
          2   -1    0    0  501    0  0.00000000000E+00 -0.00000000000E+00 -0.17382479979E+03  0.17382479981E+03  0.25500000000E-02 0. -1.
         24    2    1    2    0    0  0.00000000000E+00 -0.35527136788E-14 -0.16454251683E+03  0.18310708413E+03  0.80336569594E+02 0.  0.
         66    2    3    3    0    0  0.33905971112E+02  0.20055365487E+02 -0.64718156351E+02  0.75790977833E+02  0.19999993786E+01 0.  0.
        -13    1    3    3    0    0 -0.33905971112E+02 -0.20055365487E+02 -0.99824360483E+02  0.10731610630E+03  0.10566000000E+00 0.  1.
         13    1    4    4    0    0  0.16529430689E+02  0.98466777686E+01 -0.31371177410E+02  0.36801373318E+02  0.10566000000E+00 0. -1.
        -13    1    4    4    0    0  0.15447092100E+02  0.92719788768E+01 -0.30521433575E+02  0.35442225073E+02  0.10566000000E+00 0.  1.
        -14    1    4    4    0    0  0.19294483233E+01  0.93670884127E+00 -0.28255453663E+01  0.35473794416E+01  0.00000000000E+00 0.  1.
<mgrwt>
<rscale>  0 0.80336570E+02</rscale>
<asrwt>0</asrwt>
<pdfrwt beam="1">  1        2 0.26742274E-01 0.80336570E+02</pdfrwt>
<pdfrwt beam="2">  1       -1 0.14280438E-02 0.80336570E+02</pdfrwt>
<totfact> 0.20792921E+05</totfact>
</mgrwt>
</event>
<event>
 8    1  0.2603554E-020  0.8014552E+02  0.7818608E-02  0.1328639E+00
         -1   -1    0    0    0  501 -0.00000000000E+00  0.00000000000E+00  0.11684843488E+02  0.11684844575E+02  0.50400000000E-02 0.  1.
          2   -1    0    0  501    0  0.00000000000E+00 -0.00000000000E+00 -0.13742811975E+03  0.13742811977E+03  0.25500000000E-02 0. -1.
         24    2    1    2    0    0  0.00000000000E+00  0.00000000000E+00 -0.12574327626E+03  0.14911296435E+03  0.80145521472E+02 0.  0.
         66    2    3    3    0    0  0.29688194683E+02  0.21617381539E+02 -0.92627980246E+02  0.99662645014E+02  0.19999996412E+01 0.  0.
        -13    1    3    3    0    0 -0.29688194683E+02 -0.21617381539E+02 -0.33115296017E+02  0.49450319336E+02  0.10566000000E+00 0.  1.
         13    1    4    4    0    0  0.13946270244E+02  0.10649120032E+02 -0.43426103405E+02  0.46837376444E+02  0.10566000000E+00 0. -1.
        -13    1    4    4    0    0  0.14519803887E+02  0.98038065253E+01 -0.44169394602E+02  0.47517216994E+02  0.10566000000E+00 0.  1.
         14    1    4    4    0    0  0.12221205523E+01  0.11644549819E+01 -0.50324822386E+01  0.53080515757E+01  0.00000000000E+00 0. -1.
<mgrwt>
<rscale>  0 0.80145521E+02</rscale>
<asrwt>0</asrwt>
<pdfrwt beam="1">  1        2 0.21142787E-01 0.80145521E+02</pdfrwt>
<pdfrwt beam="2">  1       -1 0.17976684E-02 0.80145521E+02</pdfrwt>
<totfact> 0.19386272E+05</totfact>
</mgrwt>
</event>
<event>
 8    1  0.2603554E-020  0.7811092E+02  0.7818608E-02  0.1334499E+00
          2   -1    0    0  501    0  0.00000000000E+00  0.00000000000E+00  0.71368093076E+01  0.71368097631E+01  0.25500000000E-02 0. -1.
         -1   -1    0    0    0  501 -0.00000000000E+00 -0.00000000000E+00 -0.21372702505E+03  0.21372702511E+03  0.50400000000E-02 0.  1.
         24    2    1    2    0    0  0.00000000000E+00 -0.17763568394E-14 -0.20659021574E+03  0.22086383487E+03  0.78110923142E+02 0.  0.
         66    2    3    3    0    0 -0.32578111169E+02  0.14255073219E+02 -0.57876266105E+02  0.67957358814E+02  0.19999997253E+01 0.  0.
        -13    1    3    3    0    0  0.32578111169E+02 -0.14255073219E+02 -0.14871394964E+03  0.15290647606E+03  0.10566000000E+00 0.  1.
         13    1    4    4    0    0 -0.75736367627E+01  0.28414781074E+01 -0.12853602947E+02  0.15187502902E+02  0.10566000000E+00 0. -1.
        -13    1    4    4    0    0 -0.98356938688E+01  0.41799045296E+01 -0.16273536395E+02  0.19469248229E+02  0.10566000000E+00 0.  1.
        -14    1    4    4    0    0 -0.15168780538E+02  0.72336905819E+01 -0.28749126763E+02  0.33300607683E+02  0.00000000000E+00 0.  1.
<mgrwt>
<rscale>  0 0.78110923E+02</rscale>
<asrwt>0</asrwt>
<pdfrwt beam="1">  1        2 0.10979709E-02 0.78110923E+02</pdfrwt>
<pdfrwt beam="2">  1       -1 0.32881076E-01 0.78110923E+02</pdfrwt>
<totfact> 0.10370560E+05</totfact>
</mgrwt>
</event>
<event>
 8    1  0.2603554E-020  0.8194993E+02  0.7818608E-02  0.1323607E+00
          2   -1    0    0  501    0  0.00000000000E+00  0.00000000000E+00  0.24983368500E+03  0.24983368501E+03  0.25500000000E-02 0. -1.
         -1   -1    0    0    0  501 -0.00000000000E+00 -0.00000000000E+00 -0.67202608266E+01  0.67202627166E+01  0.50400000000E-02 0.  1.
         24    2    1    2    0    0  0.00000000000E+00  0.00000000000E+00  0.24311342418E+03  0.25655394773E+03  0.81949930338E+02 0.  0.
         66    2    3    3    0    0  0.27163820794E+02  0.40938722917E+01  0.21670439172E+03  0.21844776569E+03  0.19999986458E+01 0.  0.
        -13    1    3    3    0    0 -0.27163820794E+02 -0.40938722917E+01  0.26409032459E+02  0.38106182044E+02  0.10566000000E+00 0.  1.
         13    1    4    4    0    0  0.16732409054E+02  0.25905863228E+01  0.13826893215E+03  0.13930180693E+03  0.10566000000E+00 0. -1.
        -13    1    4    4    0    0  0.25396115161E+01  0.40142606915E+00  0.16356831591E+02  0.16558015378E+02  0.10566000000E+00 0.  1.
        -14    1    4    4    0    0  0.78918002242E+01  0.11018598997E+01  0.62078627972E+02  0.62587943383E+02  0.00000000000E+00 0.  1.
<mgrwt>
<rscale>  0 0.81949930E+02</rscale>
<asrwt>0</asrwt>
<pdfrwt beam="1">  1        2 0.38435952E-01 0.81949930E+02</pdfrwt>
<pdfrwt beam="2">  1       -1 0.10338864E-02 0.81949930E+02</pdfrwt>
<totfact> 0.22397003E+05</totfact>
</mgrwt>
</event>
<event>
 8    1  0.2603554E-020  0.7019783E+02  0.7818608E-02  0.1359422E+00
          2   -1    0    0  501    0  0.00000000000E+00  0.00000000000E+00  0.83049958370E+02  0.83049958409E+02  0.25500000000E-02 0. -1.
         -1   -1    0    0    0  501 -0.00000000000E+00 -0.00000000000E+00 -0.14833649036E+02  0.14833649892E+02  0.50400000000E-02 0.  1.
         24    2    1    2    0    0  0.17763568394E-14 -0.35527136788E-14  0.68216309334E+02  0.97883608301E+02  0.70197834119E+02 0.  0.
         66    2    3    3    0    0  0.13759227922E+02 -0.16716438779E+02  0.72606287463E+02  0.75792009209E+02  0.20000005746E+01 0.  0.
        -13    1    3    3    0    0 -0.13759227922E+02  0.16716438779E+02 -0.43899781290E+01  0.22091599093E+02  0.10566000000E+00 0.  1.
         13    1    4    4    0    0  0.10091897757E+02 -0.12306719229E+02  0.53040170241E+02  0.55376642745E+02  0.10566000000E+00 0. -1.
        -13    1    4    4    0    0  0.13258380113E+00 -0.41323718757E-02  0.40480908748E+00  0.43889631319E+00  0.10566000000E+00 0.  1.
        -14    1    4    4    0    0  0.35347463645E+01 -0.44055871774E+01  0.19161308134E+02  0.19976470150E+02  0.00000000000E+00 0.  1.
<mgrwt>
<rscale>  0 0.70197834E+02</rscale>
<asrwt>0</asrwt>
<pdfrwt beam="1">  1        2 0.12776916E-01 0.70197834E+02</pdfrwt>
<pdfrwt beam="2">  1       -1 0.22821000E-02 0.70197834E+02</pdfrwt>
<totfact> 0.23892202E+05</totfact>
</mgrwt>
</event>
<event>
 8    1  0.2603554E-020  0.7862250E+02  0.7818608E-02  0.1333007E+00
          2   -1    0    0  501    0  0.00000000000E+00  0.00000000000E+00  0.36215384186E+02  0.36215384276E+02  0.25500000000E-02 0. -1.
         -1   -1    0    0    0  501 -0.00000000000E+00 -0.00000000000E+00 -0.42671760160E+02  0.42671760457E+02  0.50400000000E-02 0.  1.
         24    2    1    2    0    0  0.35527136788E-14  0.00000000000E+00 -0.64563759738E+01  0.78887144733E+02  0.78622495594E+02 0.  0.
         66    2    3    3    0    0  0.20963644314E+02 -0.31070234920E+02  0.85794533280E+01  0.38502479231E+02  0.20000016627E+01 0.  0.
        -13    1    3    3    0    0 -0.20963644314E+02  0.31070234920E+02 -0.15035829302E+02  0.40384665502E+02  0.10566000000E+00 0.  1.
         13    1    4    4    0    0  0.70400759698E+01 -0.11078020996E+02  0.23286852857E+01  0.13331134912E+02  0.10566000000E+00 0.  1.
        -13    1    4    4    0    0  0.89986466825E+01 -0.12266875940E+02  0.41996439388E+01  0.15782904064E+02  0.10566000000E+00 0. -1.
        -14    1    4    4    0    0  0.49249216615E+01 -0.77253379845E+01  0.20511241034E+01  0.93884402557E+01  0.00000000000E+00 0.  1.
<mgrwt>
<rscale>  0 0.78622496E+02</rscale>
<asrwt>0</asrwt>
<pdfrwt beam="1">  1        2 0.55715975E-02 0.78622496E+02</pdfrwt>
<pdfrwt beam="2">  1       -1 0.65648863E-02 0.78622496E+02</pdfrwt>
<totfact> 0.14658997E+05</totfact>
</mgrwt>
</event>
<event>
 8    1  0.2603554E-020  0.8008546E+02  0.7818608E-02  0.1328809E+00
         -1   -1    0    0    0  501 -0.00000000000E+00  0.00000000000E+00  0.12498963615E+01  0.12499065230E+01  0.50400000000E-02 0.  1.
          2   -1    0    0  501    0  0.00000000000E+00 -0.00000000000E+00 -0.12828374637E+04  0.12828374637E+04  0.25500000000E-02 0. -1.
         24    2    1    2    0    0  0.00000000000E+00  0.00000000000E+00 -0.12815875674E+04  0.12840873703E+04  0.80085464450E+02 0.  0.
         66    2    3    3    0    0 -0.17974461740E+02  0.14484928830E+02 -0.11653143319E+04  0.11655446738E+04  0.20000001080E+01 0.  0.
        -13    1    3    3    0    0  0.17974461740E+02 -0.14484928830E+02 -0.11627323548E+03  0.11854269649E+03  0.10566000000E+00 0.  1.
         13    1    4    4    0    0 -0.44290109914E+01  0.26268641332E+01 -0.25080819153E+03  0.25086107043E+03  0.10566000000E+00 0. -1.
        -13    1    4    4    0    0 -0.30560008113E+00  0.27306690546E+00 -0.23013924427E+02  0.23017815676E+02  0.10566000000E+00 0. -1.
         14    1    4    4    0    0 -0.13239850667E+02  0.11584997792E+02 -0.89149221593E+03  0.89166578766E+03  0.00000000000E+00 0. -1.
<mgrwt>
<rscale>  0 0.80085464E+02</rscale>
<asrwt>0</asrwt>
<pdfrwt beam="1">  1        2 0.19735856E+00 0.80085464E+02</pdfrwt>
<pdfrwt beam="2">  1       -1 0.19229356E-03 0.80085464E+02</pdfrwt>
<totfact> 0.34606780E+05</totfact>
</mgrwt>
</event>
<event>
 8    1  0.2603554E-020  0.7957262E+02  0.7818608E-02  0.1330269E+00
         -1   -1    0    0    0  501 -0.00000000000E+00  0.00000000000E+00  0.17604892121E+01  0.17604964265E+01  0.50400000000E-02 0.  1.
          2   -1    0    0  501    0  0.00000000000E+00 -0.00000000000E+00 -0.89915192348E+03  0.89915192348E+03  0.25500000000E-02 0. -1.
         24    2    1    2    0    0  0.00000000000E+00 -0.17763568394E-14 -0.89739143427E+03  0.90091241991E+03  0.79572621239E+02 0.  0.
         66    2    3    3    0    0  0.18122746393E+02 -0.95806670134E+01 -0.83470809963E+03  0.83496217562E+03  0.20000004758E+01 0.  0.
        -13    1    3    3    0    0 -0.18122746393E+02  0.95806670134E+01 -0.62683334631E+02  0.65950244289E+02  0.10566000000E+00 0.  1.
         13    1    4    4    0    0  0.11046016853E+02 -0.63141774586E+01 -0.52100146061E+03  0.52115680601E+03  0.10566000000E+00 0. -1.
        -13    1    4    4    0    0  0.33631063386E+01 -0.13353845702E+01 -0.12555098027E+03  0.12560315899E+03  0.10566000000E+00 0.  1.
        -14    1    4    4    0    0  0.37136232014E+01 -0.19311049846E+01 -0.18815565875E+03  0.18820221062E+03  0.00000000000E+00 0.  1.
<mgrwt>
<rscale>  0 0.79572621E+02</rscale>
<asrwt>0</asrwt>
<pdfrwt beam="1">  1        2 0.13833070E+00 0.79572621E+02</pdfrwt>
<pdfrwt beam="2">  1       -1 0.27084577E-03 0.79572621E+02</pdfrwt>
<totfact> 0.35432207E+05</totfact>
</mgrwt>
</event>
<event>
 8    1  0.2603554E-020  0.7953655E+02  0.7818608E-02  0.1330372E+00
          2   -1    0    0  501    0  0.00000000000E+00  0.00000000000E+00  0.19764754695E+02  0.19764754859E+02  0.25500000000E-02 0. -1.
         -1   -1    0    0    0  501 -0.00000000000E+00 -0.00000000000E+00 -0.80016956618E+02  0.80016956777E+02  0.50400000000E-02 0.  1.
         24    2    1    2    0    0  0.35527136788E-14 -0.55511151231E-16 -0.60252201923E+02  0.99781711636E+02  0.79536545943E+02 0.  0.
         66    2    3    3    0    0  0.19784191468E+02 -0.17550164362E+00  0.13096769054E+02  0.23811140095E+02  0.20000000293E+01 0.  0.
        -13    1    3    3    0    0 -0.19784191468E+02  0.17550164362E+00 -0.73348970977E+02  0.75970571541E+02  0.10566000000E+00 0.  1.
         13    1    4    4    0    0  0.95763853831E+01 -0.55123211579E-01  0.67812910437E+01  0.11734874001E+02  0.10566000000E+00 0. -1.
        -13    1    4    4    0    0  0.25910039432E+01 -0.59046125158E+00  0.15182055960E+01  0.30623615382E+01  0.10566000000E+00 0.  1.
        -14    1    4    4    0    0  0.76168021417E+01  0.47008281953E+00  0.47972724141E+01  0.90139045556E+01  0.00000000000E+00 0.  1.
<mgrwt>
<rscale>  0 0.79536546E+02</rscale>
<asrwt>0</asrwt>
<pdfrwt beam="1">  1        2 0.30407315E-02 0.79536546E+02</pdfrwt>
<pdfrwt beam="2">  1       -1 0.12310301E-01 0.79536546E+02</pdfrwt>
<totfact> 0.12594482E+05</totfact>
</mgrwt>
</event>
<event>
 8    1  0.2603554E-020  0.8051936E+02  0.7818608E-02  0.1327584E+00
         -1   -1    0    0    0  501 -0.00000000000E+00  0.00000000000E+00  0.50825414816E+01  0.50825439805E+01  0.50400000000E-02 0.  1.
          2   -1    0    0  501    0  0.00000000000E+00 -0.00000000000E+00 -0.31890371426E+03  0.31890371427E+03  0.25500000000E-02 0. -1.
         24    2    1    2    0    0  0.00000000000E+00  0.00000000000E+00 -0.31382117278E+03  0.32398625825E+03  0.80519358239E+02 0.  0.
         66    2    3    3    0    0 -0.34812799395E+02 -0.19068082123E+01 -0.23780950927E+03  0.24035999998E+03  0.19999927488E+01 0.  0.
        -13    1    3    3    0    0  0.34812799395E+02  0.19068082123E+01 -0.76011663510E+02  0.83626258274E+02  0.10566000000E+00 0.  1.
         13    1    4    4    0    0 -0.13649472171E+02  0.18258574535E-01 -0.93300317979E+02  0.94293525350E+02  0.10566000000E+00 0. -1.
        -13    1    4    4    0    0 -0.33404727124E+01 -0.54640441166E+00 -0.24670210144E+02  0.24901561162E+02  0.10566000000E+00 0.  1.
         14    1    4    4    0    0 -0.17822854512E+02 -0.13786623752E+01 -0.11983898114E+03  0.12116491346E+03  0.00000000000E+00 0. -1.
<mgrwt>
<rscale>  0 0.80519358E+02</rscale>
<asrwt>0</asrwt>
<pdfrwt beam="1">  1        2 0.49062094E-01 0.80519358E+02</pdfrwt>
<pdfrwt beam="2">  1       -1 0.78192990E-03 0.80519358E+02</pdfrwt>
<totfact> 0.25625708E+05</totfact>
</mgrwt>
</event>
<event>
 8    1  0.2603554E-020  0.8416044E+02  0.7818608E-02  0.1317643E+00
          2   -1    0    0  501    0  0.00000000000E+00  0.00000000000E+00  0.79238437260E+03  0.79238437261E+03  0.25500000000E-02 0. -1.
         -1   -1    0    0    0  501 -0.00000000000E+00 -0.00000000000E+00 -0.22347015120E+01  0.22347071954E+01  0.50400000000E-02 0.  1.
         24    2    1    2    0    0  0.00000000000E+00  0.00000000000E+00  0.79014967109E+03  0.79461907980E+03  0.84160437623E+02 0.  0.
         66    2    3    3    0    0 -0.14187392410E+02 -0.27678668408E+02  0.66257448992E+03  0.66330712756E+03  0.19999959915E+01 0.  0.
        -13    1    3    3    0    0  0.14187392410E+02  0.27678668408E+02  0.12757518117E+03  0.13131195224E+03  0.10566000000E+00 0.  1.
         13    1    4    4    0    0 -0.69637295915E+01 -0.14005324520E+02  0.32652499947E+03  0.32689941738E+03  0.10566000000E+00 0. -1.
        -13    1    4    4    0    0 -0.20116295532E+01 -0.50835736535E+01  0.12256597225E+03  0.12268788894E+03  0.10566000000E+00 0.  1.
         14    1    4    4    0    0 -0.52120332651E+01 -0.85897702342E+01  0.21348351820E+03  0.21371982123E+03  0.00000000000E+00 0. -1.
<mgrwt>
<rscale>  0 0.84160438E+02</rscale>
<asrwt>0</asrwt>
<pdfrwt beam="1">  1        2 0.12190519E+00 0.84160438E+02</pdfrwt>
<pdfrwt beam="2">  1       -1 0.34380095E-03 0.84160438E+02</pdfrwt>
<totfact> 0.30064489E+05</totfact>
</mgrwt>
</event>
<event>
 8    1  0.2603554E-020  0.8003972E+02  0.7818608E-02  0.1328939E+00
         -1   -1    0    0    0  501 -0.00000000000E+00  0.00000000000E+00  0.82048677198E+02  0.82048677353E+02  0.50400000000E-02 0.  1.
          2   -1    0    0  501    0  0.00000000000E+00 -0.00000000000E+00 -0.19519988385E+02  0.19519988551E+02  0.25500000000E-02 0. -1.
         24    2    1    2    0    0  0.00000000000E+00  0.44408920985E-15  0.62528688813E+02  0.10156866590E+03  0.80039721194E+02 0.  0.
         66    2    3    3    0    0 -0.22074960031E+02  0.29473638033E+01 -0.10872125654E+02  0.24863506090E+02  0.20000012702E+01 0.  0.
        -13    1    3    3    0    0  0.22074960031E+02 -0.29473638033E+01  0.73400814466E+02  0.76705159814E+02  0.10566000000E+00 0.  1.
         13    1    4    4    0    0 -0.58985264137E+00  0.22437492705E+00 -0.12081819729E+00  0.65117687214E+00  0.10566000000E+00 0.  1.
        -13    1    4    4    0    0 -0.46736815243E+01  0.78155704963E+00 -0.29004549364E+01  0.55567916360E+01  0.10566000000E+00 0.  1.
         14    1    4    4    0    0 -0.16811425866E+02  0.19414318267E+01 -0.78508525198E+01  0.18655537582E+02  0.00000000000E+00 0. -1.
<mgrwt>
<rscale>  0 0.80039721E+02</rscale>
<asrwt>0</asrwt>
<pdfrwt beam="1">  1        2 0.30030752E-02 0.80039721E+02</pdfrwt>
<pdfrwt beam="2">  1       -1 0.12622873E-01 0.80039721E+02</pdfrwt>
<totfact> 0.12337081E+05</totfact>
</mgrwt>
</event>
<event>
 8    1  0.2603554E-020  0.8023011E+02  0.7818608E-02  0.1328400E+00
          2   -1    0    0  501    0  0.00000000000E+00  0.00000000000E+00  0.93087359629E+02  0.93087359664E+02  0.25500000000E-02 0. -1.
         -1   -1    0    0    0  501 -0.00000000000E+00 -0.00000000000E+00 -0.17287177758E+02  0.17287178493E+02  0.50400000000E-02 0.  1.
         24    2    1    2    0    0  0.00000000000E+00  0.00000000000E+00  0.75800181870E+02  0.11037453816E+03  0.80230113435E+02 0.  0.
         66    2    3    3    0    0 -0.21373838897E+02  0.27404891041E+02  0.65415489333E+02  0.74101655100E+02  0.20000004184E+01 0.  0.
        -13    1    3    3    0    0  0.21373838897E+02 -0.27404891041E+02  0.10384692537E+02  0.36272883057E+02  0.10566000000E+00 0.  1.
         13    1    4    4    0    0 -0.13095244744E+01  0.24063931095E+01  0.53511418715E+01  0.60126088773E+01  0.10566000000E+00 0. -1.
        -13    1    4    4    0    0 -0.13555706838E+01  0.13731094671E+01  0.36767827535E+01  0.41536606673E+01  0.10566000000E+00 0.  1.
         14    1    4    4    0    0 -0.18708743739E+02  0.23625388464E+02  0.56387564708E+02  0.63935385555E+02  0.00000000000E+00 0. -1.
<mgrwt>
<rscale>  0 0.80230113E+02</rscale>
<asrwt>0</asrwt>
<pdfrwt beam="1">  1        2 0.14321132E-01 0.80230113E+02</pdfrwt>
<pdfrwt beam="2">  1       -1 0.26595660E-02 0.80230113E+02</pdfrwt>
<totfact> 0.17245173E+05</totfact>
</mgrwt>
</event>
<event>
 8    1  0.2603554E-020  0.7962842E+02  0.7818608E-02  0.1330109E+00
          2   -1    0    0  501    0  0.00000000000E+00  0.00000000000E+00  0.30160322613E+03  0.30160322614E+03  0.25500000000E-02 0. -1.
         -1   -1    0    0    0  501 -0.00000000000E+00 -0.00000000000E+00 -0.52558160939E+01  0.52558185104E+01  0.50400000000E-02 0.  1.
         24    2    1    2    0    0 -0.35527136788E-14  0.00000000000E+00  0.29634741004E+03  0.30685904465E+03  0.79628423626E+02 0.  0.
         66    2    3    3    0    0  0.18395350135E+02  0.35251618896E+02  0.15385265364E+03  0.15892043473E+03  0.20000002118E+01 0.  0.
        -13    1    3    3    0    0 -0.18395350135E+02 -0.35251618896E+02  0.14249475640E+03  0.14793860992E+03  0.10566000000E+00 0.  1.
         13    1    4    4    0    0  0.13004123888E+02  0.23616575827E+02  0.10482250951E+03  0.10823409609E+03  0.10566000000E+00 0. -1.
        -13    1    4    4    0    0  0.19606064577E+00  0.86725974954E+00  0.33594920495E+01  0.34767700695E+01  0.10566000000E+00 0.  1.
        -14    1    4    4    0    0  0.51951656010E+01  0.10767783320E+02  0.45670652079E+02  0.47209568570E+02  0.00000000000E+00 0.  1.
<mgrwt>
<rscale>  0 0.79628424E+02</rscale>
<asrwt>0</asrwt>
<pdfrwt beam="1">  1        2 0.46400484E-01 0.79628424E+02</pdfrwt>
<pdfrwt beam="2">  1       -1 0.80858749E-03 0.79628424E+02</pdfrwt>
<totfact> 0.25857322E+05</totfact>
</mgrwt>
</event>
<event>
 8    1  0.2603554E-020  0.8179221E+02  0.7818608E-02  0.1324041E+00
         -1   -1    0    0    0  501 -0.00000000000E+00  0.00000000000E+00  0.21704124307E+03  0.21704124313E+03  0.50400000000E-02 0.  1.
          2   -1    0    0  501    0  0.00000000000E+00 -0.00000000000E+00 -0.77058680719E+01  0.77058684939E+01  0.25500000000E-02 0. -1.
         24    2    1    2    0    0  0.71054273576E-14  0.00000000000E+00  0.20933537500E+03  0.22474711163E+03  0.81792205968E+02 0.  0.
         66    2    3    3    0    0  0.39270869788E+02  0.26360201122E+01  0.74462506958E+02  0.84248529732E+02  0.20000008896E+01 0.  0.
        -13    1    3    3    0    0 -0.39270869788E+02 -0.26360201122E+01  0.13487286804E+03  0.14049858189E+03  0.10566000000E+00 0.  1.
         13    1    4    4    0    0  0.10781261160E+02  0.13610329670E+00  0.21746321963E+02  0.24272778977E+02  0.10566000000E+00 0. -1.
        -13    1    4    4    0    0  0.15905790386E+02  0.13145856715E+01  0.29027570820E+02  0.33126022023E+02  0.10566000000E+00 0.  1.
         14    1    4    4    0    0  0.12583818243E+02  0.11853311440E+01  0.23688614175E+02  0.26849728732E+02  0.00000000000E+00 0. -1.
<mgrwt>
<rscale>  0 0.81792206E+02</rscale>
<asrwt>0</asrwt>
<pdfrwt beam="1">  1        2 0.11855182E-02 0.81792206E+02</pdfrwt>
<pdfrwt beam="2">  1       -1 0.33390962E-01 0.81792206E+02</pdfrwt>
<totfact> 0.91768657E+04</totfact>
</mgrwt>
</event>
<event>
 8    1  0.2603554E-020  0.7997595E+02  0.7818608E-02  0.1329120E+00
         -1   -1    0    0    0  501 -0.00000000000E+00  0.00000000000E+00  0.15487044883E+02  0.15487045703E+02  0.50400000000E-02 0.  1.
          2   -1    0    0  501    0  0.00000000000E+00 -0.00000000000E+00 -0.10325004331E+03  0.10325004335E+03  0.25500000000E-02 0. -1.
         24    2    1    2    0    0  0.35527136788E-14 -0.44408920985E-15 -0.87762998432E+02  0.11873708905E+03  0.79975949023E+02 0.  0.
         66    2    3    3    0    0 -0.30394173841E+02  0.30642872278E+01 -0.82161194065E+02  0.87679287519E+02  0.19999975244E+01 0.  0.
        -13    1    3    3    0    0  0.30394173841E+02 -0.30642872278E+01 -0.56018043674E+01  0.31057801530E+02  0.10566000000E+00 0.  1.
         13    1    4    4    0    0 -0.16171147865E+02  0.14022651579E+01 -0.41488881990E+02  0.44551216186E+02  0.10566000000E+00 0. -1.
        -13    1    4    4    0    0 -0.41972331402E+01  0.17465139128E+00 -0.11282656166E+02  0.12039799140E+02  0.10566000000E+00 0.  1.
        -14    1    4    4    0    0 -0.10025792835E+02  0.14873706786E+01 -0.29389655909E+02  0.31088272193E+02  0.00000000000E+00 0.  1.
<mgrwt>
<rscale>  0 0.79975949E+02</rscale>
<asrwt>0</asrwt>
<pdfrwt beam="1">  1        2 0.15884622E-01 0.79975949E+02</pdfrwt>
<pdfrwt beam="2">  1       -1 0.23826224E-02 0.79975949E+02</pdfrwt>
<totfact> 0.17900606E+05</totfact>
</mgrwt>
</event>
<event>
 8    1  0.2603554E-020  0.7975105E+02  0.7818608E-02  0.1329759E+00
         -1   -1    0    0    0  501 -0.00000000000E+00  0.00000000000E+00  0.14811341911E+02  0.14811342769E+02  0.50400000000E-02 0.  1.
          2   -1    0    0  501    0  0.00000000000E+00 -0.00000000000E+00 -0.10735404161E+03  0.10735404164E+03  0.25500000000E-02 0. -1.
         24    2    1    2    0    0  0.00000000000E+00 -0.71054273576E-14 -0.92542699698E+02  0.12216538441E+03  0.79751049399E+02 0.  0.
         66    2    3    3    0    0  0.10285705959E+02 -0.26907728022E+02 -0.88480945511E+02  0.93073622937E+02  0.19999984105E+01 0.  0.
        -13    1    3    3    0    0 -0.10285705959E+02  0.26907728022E+02 -0.40617541872E+01  0.29091761472E+02  0.10566000000E+00 0.  1.
         13    1    4    4    0    0  0.11920471734E+01 -0.32541378436E+01 -0.11945600675E+02  0.12438606396E+02  0.10566000000E+00 0. -1.
        -13    1    4    4    0    0  0.16153796489E+01 -0.42954624420E+01 -0.15713063536E+02  0.16369849685E+02  0.10566000000E+00 0. -1.
         14    1    4    4    0    0  0.74782791371E+01 -0.19358127737E+02 -0.60822281300E+02  0.64265166855E+02  0.00000000000E+00 0. -1.
<mgrwt>
<rscale>  0 0.79751049E+02</rscale>
<asrwt>0</asrwt>
<pdfrwt beam="1">  1        2 0.16516006E-01 0.79751049E+02</pdfrwt>
<pdfrwt beam="2">  1       -1 0.22786681E-02 0.79751049E+02</pdfrwt>
<totfact> 0.18237562E+05</totfact>
</mgrwt>
</event>
<event>
 8    1  0.2603554E-020  0.8008499E+02  0.7818608E-02  0.1328810E+00
          2   -1    0    0  501    0  0.00000000000E+00  0.00000000000E+00  0.22268477780E+03  0.22268477782E+03  0.25500000000E-02 0. -1.
         -1   -1    0    0    0  501 -0.00000000000E+00 -0.00000000000E+00 -0.72003177100E+01  0.72003194739E+01  0.50400000000E-02 0.  1.
         24    2    1    2    0    0  0.35527136788E-14 -0.35527136788E-14  0.21548446009E+03  0.22988509729E+03  0.80084988701E+02 0.  0.
         66    2    3    3    0    0  0.28422902166E+02 -0.28131768980E+02  0.11200706485E+03  0.11894889813E+03  0.19999992960E+01 0.  0.
        -13    1    3    3    0    0 -0.28422902166E+02  0.28131768980E+02  0.10347739524E+03  0.11093619916E+03  0.10566000000E+00 0.  1.
         13    1    4    4    0    0  0.14339194821E+02 -0.13460717382E+02  0.57116144710E+02  0.60407520815E+02  0.10566000000E+00 0. -1.
        -13    1    4    4    0    0  0.39975245549E+01 -0.40221478576E+01  0.14501644912E+02  0.15571343717E+02  0.10566000000E+00 0.  1.
         14    1    4    4    0    0  0.10086182790E+02 -0.10648903740E+02  0.40389275229E+02  0.42970033601E+02  0.00000000000E+00 0. -1.
<mgrwt>
<rscale>  0 0.80084989E+02</rscale>
<asrwt>0</asrwt>
<pdfrwt beam="1">  1        2 0.34259201E-01 0.80084989E+02</pdfrwt>
<pdfrwt beam="2">  1       -1 0.11077412E-02 0.80084989E+02</pdfrwt>
<totfact> 0.22841167E+05</totfact>
</mgrwt>
</event>
<event>
 8    1  0.2603554E-020  0.8336037E+02  0.7818608E-02  0.1319777E+00
         -1   -1    0    0    0  501 -0.00000000000E+00  0.00000000000E+00  0.33886922462E+01  0.33886959942E+01  0.50400000000E-02 0.  1.
          2   -1    0    0  501    0  0.00000000000E+00 -0.00000000000E+00 -0.51265702506E+03  0.51265702507E+03  0.25500000000E-02 0. -1.
         24    2    1    2    0    0  0.00000000000E+00  0.17763568394E-14 -0.50926833282E+03  0.51604572107E+03  0.83360370789E+02 0.  0.
         66    2    3    3    0    0 -0.22423996159E+02 -0.13983735233E+02 -0.45411691482E+03  0.45488960505E+03  0.20000005984E+01 0.  0.
        -13    1    3    3    0    0  0.22423996159E+02  0.13983735233E+02 -0.55151418002E+02  0.61156116019E+02  0.10566000000E+00 0.  1.
         13    1    4    4    0    0 -0.10822783150E+02 -0.57192857212E+01 -0.21530065672E+03  0.21564838700E+03  0.10566000000E+00 0. -1.
        -13    1    4    4    0    0 -0.32129883188E+01 -0.25509799825E+01 -0.69293383519E+02  0.69414803582E+02  0.10566000000E+00 0.  1.
         14    1    4    4    0    0 -0.83882246899E+01 -0.57134695292E+01 -0.16952287457E+03  0.16982641447E+03  0.00000000000E+00 0. -1.
<mgrwt>
<rscale>  0 0.83360371E+02</rscale>
<asrwt>0</asrwt>
<pdfrwt beam="1">  1        2 0.78870250E-01 0.83360371E+02</pdfrwt>
<pdfrwt beam="2">  1       -1 0.52133797E-03 0.83360371E+02</pdfrwt>
<totfact> 0.27566717E+05</totfact>
</mgrwt>
</event>
<event>
 8    1  0.2603554E-020  0.8114693E+02  0.7818608E-02  0.1325828E+00
          2   -1    0    0  501    0  0.00000000000E+00  0.00000000000E+00  0.73631049482E+03  0.73631049482E+03  0.25500000000E-02 0. -1.
         -1   -1    0    0    0  501 -0.00000000000E+00 -0.00000000000E+00 -0.22357467499E+01  0.22357524307E+01  0.50400000000E-02 0.  1.
         24    2    1    2    0    0 -0.17763568394E-14 -0.17763568394E-14  0.73407474807E+03  0.73854624726E+03  0.81146925884E+02 0.  0.
         66    2    3    3    0    0  0.97571338740E+01  0.13681735699E+02  0.70312396333E+03  0.70332759036E+03  0.20000014188E+01 0.  0.
        -13    1    3    3    0    0 -0.97571338740E+01 -0.13681735699E+02  0.30950784744E+02  0.35218656895E+02  0.10566000000E+00 0.  1.
         13    1    4    4    0    0  0.17712786588E+01  0.23260905333E+01  0.12366635227E+03  0.12370095381E+03  0.10566000000E+00 0. -1.
        -13    1    4    4    0    0  0.69236960643E+01  0.88457391601E+01  0.44845388321E+03  0.44859456215E+03  0.10566000000E+00 0.  1.
        -14    1    4    4    0    0  0.10621591508E+01  0.25099060051E+01  0.13100372785E+03  0.13103207440E+03  0.00000000000E+00 0.  1.
<mgrwt>
<rscale>  0 0.81146926E+02</rscale>
<asrwt>0</asrwt>
<pdfrwt beam="1">  1        2 0.11327844E+00 0.81146926E+02</pdfrwt>
<pdfrwt beam="2">  1       -1 0.34396176E-03 0.81146926E+02</pdfrwt>
<totfact> 0.32595260E+05</totfact>
</mgrwt>
</event>
<event>
 8    1  0.2603554E-020  0.8141877E+02  0.7818608E-02  0.1325073E+00
         -1   -1    0    0    0  501 -0.00000000000E+00  0.00000000000E+00  0.33753531836E+01  0.33753569464E+01  0.50400000000E-02 0.  1.
          2   -1    0    0  501    0  0.00000000000E+00 -0.00000000000E+00 -0.49098651734E+03  0.49098651734E+03  0.25500000000E-02 0. -1.
         24    2    1    2    0    0  0.00000000000E+00  0.35527136788E-14 -0.48761116415E+03  0.49436187429E+03  0.81418765309E+02 0.  0.
         66    2    3    3    0    0 -0.53633090040E+01  0.30988270907E+02 -0.40067296477E+03  0.40191026698E+03  0.19999982091E+01 0.  0.
        -13    1    3    3    0    0  0.53633090040E+01 -0.30988270907E+02 -0.86938199384E+02  0.92451607306E+02  0.10566000000E+00 0.  1.
         13    1    4    4    0    0 -0.90951046324E+00  0.76842745869E+01 -0.97289750061E+02  0.97597038460E+02  0.10566000000E+00 0. -1.
        -13    1    4    4    0    0 -0.10643301580E+00  0.25178198540E+01 -0.35693480118E+02  0.35782487780E+02  0.10566000000E+00 0.  1.
        -14    1    4    4    0    0 -0.43473655249E+01  0.20786176466E+02 -0.26768973459E+03  0.26853074074E+03  0.00000000000E+00 0.  1.
<mgrwt>
<rscale>  0 0.81418765E+02</rscale>
<asrwt>0</asrwt>
<pdfrwt beam="1">  1        2 0.75536331E-01 0.81418765E+02</pdfrwt>
<pdfrwt beam="2">  1       -1 0.51928579E-03 0.81418765E+02</pdfrwt>
<totfact> 0.28917323E+05</totfact>
</mgrwt>
</event>
<event>
 8    1  0.2603554E-020  0.8148296E+02  0.7818608E-02  0.1324895E+00
          2   -1    0    0  501    0  0.00000000000E+00  0.00000000000E+00  0.27655762009E+03  0.27655762010E+03  0.25500000000E-02 0. -1.
         -1   -1    0    0    0  501 -0.00000000000E+00 -0.00000000000E+00 -0.60018876017E+01  0.60018897178E+01  0.50400000000E-02 0.  1.
         24    2    1    2    0    0 -0.71054273576E-14  0.00000000000E+00  0.27055573249E+03  0.28255950982E+03  0.81482956544E+02 0.  0.
         66    2    3    3    0    0  0.33983611793E+02  0.65569370870E+00  0.21309682346E+03  0.21579984239E+03  0.20000003493E+01 0.  0.
        -13    1    3    3    0    0 -0.33983611793E+02 -0.65569370870E+00  0.57458909028E+02  0.66759667430E+02  0.10566000000E+00 0.  1.
         13    1    4    4    0    0  0.24012478252E+02  0.32095220314E-01  0.15135600326E+03  0.15324898378E+03  0.10566000000E+00 0. -1.
        -13    1    4    4    0    0  0.44890726849E+01  0.45043667639E+00  0.25243844020E+02  0.25644053731E+02  0.10566000000E+00 0.  1.
         14    1    4    4    0    0  0.54820608560E+01  0.17316181199E+00  0.36496976182E+02  0.36906804883E+02  0.00000000000E+00 0. -1.
<mgrwt>
<rscale>  0 0.81482957E+02</rscale>
<asrwt>0</asrwt>
<pdfrwt beam="1">  1        2 0.42547312E-01 0.81482957E+02</pdfrwt>
<pdfrwt beam="2">  1       -1 0.92336780E-03 0.81482957E+02</pdfrwt>
<totfact> 0.23587870E+05</totfact>
</mgrwt>
</event>
<event>
 8    1  0.2603554E-020  0.7732502E+02  0.7818608E-02  0.1336819E+00
         -1   -1    0    0    0  501 -0.00000000000E+00  0.00000000000E+00  0.34197758326E+02  0.34197758698E+02  0.50400000000E-02 0.  1.
          2   -1    0    0  501    0  0.00000000000E+00 -0.00000000000E+00 -0.43710170680E+02  0.43710170754E+02  0.25500000000E-02 0. -1.
         24    2    1    2    0    0  0.00000000000E+00  0.00000000000E+00 -0.95124123535E+01  0.77907929452E+02  0.77325024945E+02 0.  0.
         66    2    3    3    0    0  0.13592689841E+02 -0.51204369994E+01 -0.40831572505E+02  0.43384299156E+02  0.20000019750E+01 0.  0.
        -13    1    3    3    0    0 -0.13592689841E+02  0.51204369994E+01  0.31319160151E+02  0.34523630296E+02  0.10566000000E+00 0.  1.
         13    1    4    4    0    0  0.28867298186E+01 -0.97629461237E+00 -0.72617430633E+01  0.78759403609E+01  0.10566000000E+00 0. -1.
        -13    1    4    4    0    0  0.13835131278E+01 -0.66000251782E-01 -0.44623194543E+01  0.46735343752E+01  0.10566000000E+00 0.  1.
        -14    1    4    4    0    0  0.93224468948E+01 -0.40781421353E+01 -0.29107509987E+02  0.30834824420E+02  0.00000000000E+00 0.  1.
<mgrwt>
<rscale>  0 0.77325025E+02</rscale>
<asrwt>0</asrwt>
<pdfrwt beam="1">  1        2 0.67246417E-02 0.77325025E+02</pdfrwt>
<pdfrwt beam="2">  1       -1 0.52611936E-02 0.77325025E+02</pdfrwt>
<totfact> 0.15941960E+05</totfact>
</mgrwt>
</event>
<event>
 8    1  0.2603554E-020  0.7845375E+02  0.7818608E-02  0.1333498E+00
         -1   -1    0    0    0  501 -0.00000000000E+00  0.00000000000E+00  0.12109768010E+01  0.12109872890E+01  0.50400000000E-02 0.  1.
          2   -1    0    0  501    0  0.00000000000E+00 -0.00000000000E+00 -0.12706610227E+04  0.12706610227E+04  0.25500000000E-02 0. -1.
         24    2    1    2    0    0  0.00000000000E+00  0.17763568394E-14 -0.12694500459E+04  0.12718720100E+04  0.78453749222E+02 0.  0.
         66    2    3    3    0    0  0.83832836264E+00  0.15599415778E+02 -0.12180151896E+04  0.12181170086E+04  0.19999998262E+01 0.  0.
        -13    1    3    3    0    0 -0.83832836264E+00 -0.15599415778E+02 -0.51434856294E+02  0.53755001378E+02  0.10566000000E+00 0.  1.
         13    1    4    4    0    0 -0.11811470038E+00  0.57517667885E+01 -0.39403190318E+03  0.39407391269E+03  0.10566000000E+00 0.  1.
        -13    1    4    4    0    0  0.84438958336E+00  0.78270198685E+01 -0.62757139774E+03  0.62762078173E+03  0.10566000000E+00 0. -1.
         14    1    4    4    0    0  0.11205347966E+00  0.20206291215E+01 -0.19641188868E+03  0.19642231419E+03  0.00000000000E+00 0. -1.
<mgrwt>
<rscale>  0 0.78453749E+02</rscale>
<asrwt>0</asrwt>
<pdfrwt beam="1">  1        2 0.19548525E+00 0.78453749E+02</pdfrwt>
<pdfrwt beam="2">  1       -1 0.18630595E-03 0.78453749E+02</pdfrwt>
<totfact> 0.36565714E+05</totfact>
</mgrwt>
</event>
<event>
 8    1  0.2603554E-020  0.7981298E+02  0.7818608E-02  0.1329583E+00
         -1   -1    0    0    0  501 -0.00000000000E+00  0.00000000000E+00  0.13758203983E+02  0.13758204906E+02  0.50400000000E-02 0.  1.
          2   -1    0    0  501    0  0.00000000000E+00 -0.00000000000E+00 -0.11575113919E+03  0.11575113922E+03  0.25500000000E-02 0. -1.
         24    2    1    2    0    0  0.00000000000E+00  0.00000000000E+00 -0.10199293521E+03  0.12950934413E+03  0.79812977539E+02 0.  0.
         66    2    3    3    0    0 -0.11312520339E+02  0.27445469698E+02 -0.94244079890E+02  0.98829010913E+02  0.19999700551E+01 0.  0.
        -13    1    3    3    0    0  0.11312520339E+02 -0.27445469698E+02 -0.77488553195E+01  0.30680333215E+02  0.10566000000E+00 0.  1.
         13    1    4    4    0    0 -0.38065739078E+01  0.75201389399E+01 -0.28411713522E+02  0.29635774394E+02  0.10566000000E+00 0. -1.
        -13    1    4    4    0    0 -0.34173283888E+00  0.81979366554E+00 -0.25181441238E+01  0.26722755942E+01  0.10566000000E+00 0. -1.
         14    1    4    4    0    0 -0.71642135924E+01  0.19105537093E+02 -0.63314222244E+02  0.66520960925E+02  0.00000000000E+00 0. -1.
<mgrwt>
<rscale>  0 0.79812978E+02</rscale>
<asrwt>0</asrwt>
<pdfrwt beam="1">  1        2 0.17807867E-01 0.79812978E+02</pdfrwt>
<pdfrwt beam="2">  1       -1 0.21166469E-02 0.79812978E+02</pdfrwt>
<totfact> 0.18603259E+05</totfact>
</mgrwt>
</event>
<event>
 8    1  0.2603554E-020  0.7842687E+02  0.7818608E-02  0.1333576E+00
          2   -1    0    0  501    0  0.00000000000E+00  0.00000000000E+00  0.68221963006E+03  0.68221963007E+03  0.25500000000E-02 0. -1.
         -1   -1    0    0    0  501 -0.00000000000E+00 -0.00000000000E+00 -0.22539541017E+01  0.22539597366E+01  0.50400000000E-02 0.  1.
         24    2    1    2    0    0 -0.17763568394E-14  0.00000000000E+00  0.67996567596E+03  0.68447358981E+03  0.78426874566E+02 0.  0.
         66    2    3    3    0    0 -0.97431691240E+01  0.26079661435E+02  0.58090159991E+03  0.58157178995E+03  0.20000009264E+01 0.  0.
        -13    1    3    3    0    0  0.97431691240E+01 -0.26079661435E+02  0.99064076052E+02  0.10290179985E+03  0.10566000000E+00 0.  1.
         13    1    4    4    0    0 -0.18625469202E+00  0.40858634084E+00  0.67468106708E+01  0.67625625225E+01  0.10566000000E+00 0.  1.
        -13    1    4    4    0    0 -0.20682448668E+01  0.69152810961E+01  0.14553344090E+03  0.14571236164E+03  0.10566000000E+00 0. -1.
         14    1    4    4    0    0 -0.74886695652E+01  0.18755793998E+02  0.42862134834E+03  0.42909686579E+03  0.00000000000E+00 0. -1.
<mgrwt>
<rscale>  0 0.78426875E+02</rscale>
<asrwt>0</asrwt>
<pdfrwt beam="1">  1        2 0.10495692E+00 0.78426875E+02</pdfrwt>
<pdfrwt beam="2">  1       -1 0.34676243E-03 0.78426875E+02</pdfrwt>
<totfact> 0.35011541E+05</totfact>
</mgrwt>
</event>
<event>
 8    1  0.2603554E-020  0.7579989E+02  0.7818608E-02  0.1341412E+00
          2   -1    0    0  501    0  0.00000000000E+00  0.00000000000E+00  0.82931661675E+03  0.82931661676E+03  0.25500000000E-02 0. -1.
         -1   -1    0    0    0  501 -0.00000000000E+00 -0.00000000000E+00 -0.17320317267E+01  0.17320390596E+01  0.50400000000E-02 0.  1.
         24    2    1    2    0    0 -0.35527136788E-14 -0.88817841970E-15  0.82758458503E+03  0.83104865582E+03  0.75799887607E+02 0.  0.
         66    2    3    3    0    0 -0.13810456473E+02 -0.63308066110E+01  0.79444208829E+03  0.79458985613E+03  0.20000010828E+01 0.  0.
        -13    1    3    3    0    0  0.13810456473E+02  0.63308066110E+01  0.33142496740E+02  0.36458799686E+02  0.10566000000E+00 0.  1.
         13    1    4    4    0    0 -0.42406586376E+01 -0.13525857644E+01  0.25478881162E+03  0.25482771114E+03  0.10566000000E+00 0. -1.
        -13    1    4    4    0    0 -0.29494979704E+01 -0.17271354669E+01  0.14882698637E+03  0.14886626741E+03  0.10566000000E+00 0.  1.
         14    1    4    4    0    0 -0.66202998654E+01 -0.32510853797E+01  0.39082629029E+03  0.39089587758E+03  0.00000000000E+00 0. -1.
<mgrwt>
<rscale>  0 0.75799888E+02</rscale>
<asrwt>0</asrwt>
<pdfrwt beam="1">  1        2 0.12758717E+00 0.75799888E+02</pdfrwt>
<pdfrwt beam="2">  1       -1 0.26646699E-03 0.75799888E+02</pdfrwt>
<totfact> 0.39751001E+05</totfact>
</mgrwt>
</event>
<event>
 8    1  0.2603554E-020  0.8033655E+02  0.7818608E-02  0.1328099E+00
          2   -1    0    0  501    0  0.00000000000E+00  0.00000000000E+00  0.20947775980E+03  0.20947775981E+03  0.25500000000E-02 0. -1.
         -1   -1    0    0    0  501 -0.00000000000E+00 -0.00000000000E+00 -0.77024419845E+01  0.77024436334E+01  0.50400000000E-02 0.  1.
         24    2    1    2    0    0  0.00000000000E+00  0.00000000000E+00  0.20177531781E+03  0.21718020345E+03  0.80336553887E+02 0.  0.
         66    2    3    3    0    0  0.32982900988E+02  0.10636323540E+02  0.15572146937E+03  0.15954365899E+03  0.19999916642E+01 0.  0.
        -13    1    3    3    0    0 -0.32982900988E+02 -0.10636323540E+02  0.46053848448E+02  0.57636544457E+02  0.10566000000E+00 0.  1.
         13    1    4    4    0    0  0.11287346680E+02  0.31968757394E+01  0.49618909113E+02  0.50986973976E+02  0.10566000000E+00 0. -1.
        -13    1    4    4    0    0  0.18802119378E+02  0.63797693156E+01  0.93156397249E+02  0.95248866986E+02  0.10566000000E+00 0.  1.
         14    1    4    4    0    0  0.28934349288E+01  0.10596784847E+01  0.12946163003E+02  0.13307818028E+02  0.00000000000E+00 0. -1.
<mgrwt>
<rscale>  0 0.80336554E+02</rscale>
<asrwt>0</asrwt>
<pdfrwt beam="1">  1        2 0.32227346E-01 0.80336554E+02</pdfrwt>
<pdfrwt beam="2">  1       -1 0.11849913E-02 0.80336554E+02</pdfrwt>
<totfact> 0.22170812E+05</totfact>
</mgrwt>
</event>
<event>
 8    1  0.2603554E-020  0.7439095E+02  0.7818608E-02  0.1345768E+00
         -1   -1    0    0    0  501 -0.00000000000E+00  0.00000000000E+00  0.39136921164E+02  0.39136921488E+02  0.50400000000E-02 0.  1.
          2   -1    0    0  501    0  0.00000000000E+00 -0.00000000000E+00 -0.35350334214E+02  0.35350334306E+02  0.25500000000E-02 0. -1.
         24    2    1    2    0    0  0.00000000000E+00  0.35527136788E-14  0.37865869497E+01  0.74487255794E+02  0.74390947265E+02 0.  0.
         66    2    3    3    0    0  0.27280067531E+01 -0.19562834594E+02 -0.29631845231E+02  0.35667811032E+02  0.19999934651E+01 0.  0.
        -13    1    3    3    0    0 -0.27280067531E+01  0.19562834594E+02  0.33418432180E+02  0.38819444762E+02  0.10566000000E+00 0.  1.
         13    1    4    4    0    0  0.19243144299E+01 -0.12278241838E+02 -0.20015117234E+02  0.23560014656E+02  0.10566000000E+00 0. -1.
        -13    1    4    4    0    0  0.71411515923E+00 -0.39242561644E+01 -0.54370892933E+01  0.67440974877E+01  0.10566000000E+00 0.  1.
         14    1    4    4    0    0  0.89577163939E-01 -0.33603365922E+01 -0.41796387031E+01  0.53636988888E+01  0.00000000000E+00 0. -1.
<mgrwt>
<rscale>  0 0.74390947E+02</rscale>
<asrwt>0</asrwt>
<pdfrwt beam="1">  1        2 0.54385129E-02 0.74390947E+02</pdfrwt>
<pdfrwt beam="2">  1       -1 0.60210649E-02 0.74390947E+02</pdfrwt>
<totfact> 0.16994115E+05</totfact>
</mgrwt>
</event>
<event>
 8    1  0.2603554E-020  0.8025416E+02  0.7818608E-02  0.1328332E+00
         -1   -1    0    0    0  501 -0.00000000000E+00  0.00000000000E+00  0.36693992176E+02  0.36693992522E+02  0.50400000000E-02 0.  1.
          2   -1    0    0  501    0  0.00000000000E+00 -0.00000000000E+00 -0.43881365858E+02  0.43881365932E+02  0.25500000000E-02 0. -1.
         24    2    1    2    0    0 -0.17763568394E-14  0.17763568394E-14 -0.71873736820E+01  0.80575358454E+02  0.80254159080E+02 0.  0.
         66    2    3    3    0    0  0.11683520772E+02 -0.90818328534E+01 -0.41016966996E+02  0.43650612099E+02  0.20000023755E+01 0.  0.
        -13    1    3    3    0    0 -0.11683520772E+02  0.90818328534E+01  0.33829593314E+02  0.36924746355E+02  0.10566000000E+00 0.  1.
         13    1    4    4    0    0  0.71507123971E+01 -0.62431944374E+01 -0.25561581174E+02  0.27267485412E+02  0.10566000000E+00 0. -1.
        -13    1    4    4    0    0  0.18415772810E+01 -0.11242814594E+01 -0.76914709433E+01  0.79890741009E+01  0.10566000000E+00 0.  1.
        -14    1    4    4    0    0  0.26912310936E+01 -0.17143569566E+01 -0.77639148783E+01  0.83940525857E+01  0.00000000000E+00 0.  1.
<mgrwt>
<rscale>  0 0.80254159E+02</rscale>
<asrwt>0</asrwt>
<pdfrwt beam="1">  1        2 0.67509794E-02 0.80254159E+02</pdfrwt>
<pdfrwt beam="2">  1       -1 0.56452296E-02 0.80254159E+02</pdfrwt>
<totfact> 0.14405591E+05</totfact>
</mgrwt>
</event>
<event>
 8    1  0.2603554E-020  0.8336068E+02  0.7818608E-02  0.1319776E+00
          2   -1    0    0  501    0  0.00000000000E+00  0.00000000000E+00  0.73821212808E+02  0.73821212852E+02  0.25500000000E-02 0. -1.
         -1   -1    0    0    0  501 -0.00000000000E+00 -0.00000000000E+00 -0.23533218385E+02  0.23533218924E+02  0.50400000000E-02 0.  1.
         24    2    1    2    0    0  0.88817841970E-15  0.71054273576E-14  0.50287994423E+02  0.97354431777E+02  0.83360680200E+02 0.  0.
         66    2    3    3    0    0  0.73847085432E+01  0.36070144604E+02  0.47914113995E+02  0.60459503611E+02  0.20000012495E+01 0.  0.
        -13    1    3    3    0    0 -0.73847085432E+01 -0.36070144604E+02  0.23738804282E+01  0.36894928165E+02  0.10566000000E+00 0.  1.
         13    1    4    4    0    0  0.49308860350E+01  0.22600319218E+02  0.31065746231E+02  0.38732154843E+02  0.10566000000E+00 0. -1.
        -13    1    4    4    0    0  0.10384135747E+01  0.40778831429E+01  0.55920391640E+01  0.69992499403E+01  0.10566000000E+00 0.  1.
        -14    1    4    4    0    0  0.14154089335E+01  0.93919422429E+01  0.11256328600E+02  0.14728098829E+02  0.00000000000E+00 0.  1.
<mgrwt>
<rscale>  0 0.83360680E+02</rscale>
<asrwt>0</asrwt>
<pdfrwt beam="1">  1        2 0.11357110E-01 0.83360680E+02</pdfrwt>
<pdfrwt beam="2">  1       -1 0.36204952E-02 0.83360680E+02</pdfrwt>
<totfact> 0.14633528E+05</totfact>
</mgrwt>
</event>
<event>
 8    1  0.2603554E-020  0.7377481E+02  0.7818608E-02  0.1347708E+00
         -1   -1    0    0    0  501 -0.00000000000E+00  0.00000000000E+00  0.71111574632E+02  0.71111574811E+02  0.50400000000E-02 0.  1.
          2   -1    0    0  501    0  0.00000000000E+00 -0.00000000000E+00 -0.19134447326E+02  0.19134447496E+02  0.25500000000E-02 0. -1.
         24    2    1    2    0    0  0.00000000000E+00  0.00000000000E+00  0.51977127307E+02  0.90246022307E+02  0.73774811278E+02 0.  0.
         66    2    3    3    0    0  0.38805135408E+01  0.21353255444E+02 -0.10437754049E+02  0.24165401229E+02  0.20000008972E+01 0.  0.
        -13    1    3    3    0    0 -0.38805135408E+01 -0.21353255444E+02  0.62414881355E+02  0.66080621078E+02  0.10566000000E+00 0.  1.
         13    1    4    4    0    0  0.28197039085E+01  0.11779938449E+02 -0.55826466977E+01  0.13337720502E+02  0.10566000000E+00 0. -1.
        -13    1    4    4    0    0  0.28497098803E+00  0.11396017760E+01 -0.32728564041E+00  0.12240018782E+01  0.10566000000E+00 0.  1.
         14    1    4    4    0    0  0.77583864423E+00  0.84337152189E+01 -0.45278217105E+01  0.96036788491E+01  0.00000000000E+00 0. -1.
<mgrwt>
<rscale>  0 0.73774811E+02</rscale>
<asrwt>0</asrwt>
<pdfrwt beam="1">  1        2 0.29437611E-02 0.73774811E+02</pdfrwt>
<pdfrwt beam="2">  1       -1 0.10940242E-01 0.73774811E+02</pdfrwt>
<totfact> 0.15507447E+05</totfact>
</mgrwt>
</event>
<event>
 8    1  0.2603554E-020  0.8063410E+02  0.7818608E-02  0.1327262E+00
          2   -1    0    0  501    0  0.00000000000E+00  0.00000000000E+00  0.30938650560E+02  0.30938650666E+02  0.25500000000E-02 0. -1.
         -1   -1    0    0    0  501 -0.00000000000E+00 -0.00000000000E+00 -0.52538314209E+02  0.52538314451E+02  0.50400000000E-02 0.  1.
         24    2    1    2    0    0  0.35527136788E-14 -0.35527136788E-14 -0.21599663649E+02  0.83476965117E+02  0.80634100946E+02 0.  0.
         66    2    3    3    0    0  0.29602941964E+02 -0.27291026588E+02 -0.12385107007E+02  0.42172564343E+02  0.20000006347E+01 0.  0.
        -13    1    3    3    0    0 -0.29602941964E+02  0.27291026588E+02 -0.92145566424E+01  0.41304400774E+02  0.10566000000E+00 0.  1.
         13    1    4    4    0    0  0.82037544207E+01 -0.75027864990E+01 -0.36667091702E+01  0.11706806226E+02  0.10566000000E+00 0. -1.
        -13    1    4    4    0    0  0.49508675358E+01 -0.55033340868E+01 -0.23981561364E+01  0.77820365148E+01  0.10566000000E+00 0.  1.
         14    1    4    4    0    0  0.16448320008E+02 -0.14284906002E+02 -0.63202417000E+01  0.22683721602E+02  0.00000000000E+00 0. -1.
<mgrwt>
<rscale>  0 0.80634101E+02</rscale>
<asrwt>0</asrwt>
<pdfrwt beam="1">  1        2 0.47597924E-02 0.80634101E+02</pdfrwt>
<pdfrwt beam="2">  1       -1 0.80828176E-02 0.80634101E+02</pdfrwt>
<totfact> 0.13241388E+05</totfact>
</mgrwt>
</event>
<event>
 8    1  0.2603554E-020  0.7835543E+02  0.7818608E-02  0.1333784E+00
         -1   -1    0    0    0  501 -0.00000000000E+00  0.00000000000E+00  0.31662230194E+02  0.31662230595E+02  0.50400000000E-02 0.  1.
          2   -1    0    0  501    0  0.00000000000E+00 -0.00000000000E+00 -0.48477103760E+02  0.48477103827E+02  0.25500000000E-02 0. -1.
         24    2    1    2    0    0  0.00000000000E+00  0.00000000000E+00 -0.16814873566E+02  0.80139334422E+02  0.78355427053E+02 0.  0.
         66    2    3    3    0    0 -0.29260781272E+02  0.71688859351E+01 -0.33988248566E+02  0.45461932283E+02  0.20000000229E+01 0.  0.
        -13    1    3    3    0    0  0.29260781272E+02 -0.71688859351E+01  0.17173375000E+02  0.34677402140E+02  0.10566000000E+00 0.  1.
         13    1    4    4    0    0 -0.16565546699E+02  0.36853376836E+01 -0.19222600211E+02  0.25642124994E+02  0.10566000000E+00 0. -1.
        -13    1    4    4    0    0 -0.49397275949E+01  0.12345554873E+01 -0.48571060196E+01  0.70375904175E+01  0.10566000000E+00 0.  1.
         14    1    4    4    0    0 -0.77555069782E+01  0.22489927642E+01 -0.99085423347E+01  0.12782216871E+02  0.00000000000E+00 0. -1.
<mgrwt>
<rscale>  0 0.78355427E+02</rscale>
<asrwt>0</asrwt>
<pdfrwt beam="1">  1        2 0.74580160E-02 0.78355427E+02</pdfrwt>
<pdfrwt beam="2">  1       -1 0.48711124E-02 0.78355427E+02</pdfrwt>
<totfact> 0.15711956E+05</totfact>
</mgrwt>
</event>
<event>
 8    1  0.2603554E-020  0.7812795E+02  0.7818608E-02  0.1334450E+00
          2   -1    0    0  501    0  0.00000000000E+00  0.00000000000E+00  0.15252182845E+03  0.15252182847E+03  0.25500000000E-02 0. -1.
         -1   -1    0    0    0  501 -0.00000000000E+00 -0.00000000000E+00 -0.10005085909E+02  0.10005087179E+02  0.50400000000E-02 0.  1.
         24    2    1    2    0    0 -0.35527136788E-14 -0.35527136788E-14  0.14251674254E+03  0.16252691565E+03  0.78127948944E+02 0.  0.
         66    2    3    3    0    0 -0.31286945494E+02 -0.18037071235E+02  0.10214485636E+03  0.10835949689E+03  0.19999971307E+01 0.  0.
        -13    1    3    3    0    0  0.31286945494E+02  0.18037071235E+02  0.40371886178E+02  0.54167418756E+02  0.10566000000E+00 0.  1.
         13    1    4    4    0    0 -0.40592535922E+01 -0.24658463532E+01  0.13597010807E+02  0.14403048458E+02  0.10566000000E+00 0. -1.
        -13    1    4    4    0    0 -0.14856102929E+02 -0.92391043016E+01  0.51204002073E+02  0.54110311724E+02  0.10566000000E+00 0.  1.
        -14    1    4    4    0    0 -0.12371588973E+02 -0.63321205801E+01  0.37343843482E+02  0.39846136711E+02  0.00000000000E+00 0.  1.
<mgrwt>
<rscale>  0 0.78127949E+02</rscale>
<asrwt>0</asrwt>
<pdfrwt beam="1">  1        2 0.23464896E-01 0.78127949E+02</pdfrwt>
<pdfrwt beam="2">  1       -1 0.15392442E-02 0.78127949E+02</pdfrwt>
<totfact> 0.21441882E+05</totfact>
</mgrwt>
</event>
<event>
 8    1  0.2603554E-020  0.7983163E+02  0.7818608E-02  0.1329530E+00
          2   -1    0    0  501    0  0.00000000000E+00  0.00000000000E+00  0.94526673904E+03  0.94526673905E+03  0.25500000000E-02 0. -1.
         -1   -1    0    0    0  501 -0.00000000000E+00 -0.00000000000E+00 -0.16855229937E+01  0.16855305289E+01  0.50400000000E-02 0.  1.
         24    2    1    2    0    0 -0.35527136788E-14  0.17763568394E-14  0.94358121605E+03  0.94695226958E+03  0.79831632659E+02 0.  0.
         66    2    3    3    0    0 -0.29657248418E+02 -0.10095169831E+02  0.76500500933E+03  0.76564882888E+03  0.20000069704E+01 0.  0.
        -13    1    3    3    0    0  0.29657248418E+02  0.10095169831E+02  0.17857620672E+03  0.18130344069E+03  0.10566000000E+00 0.  1.
         13    1    4    4    0    0 -0.23877022264E+00 -0.51906197986E-02  0.56875513854E+01  0.56935439718E+01  0.10566000000E+00 0.  1.
        -13    1    4    4    0    0 -0.13570729518E+02 -0.53526792554E+01  0.35515363210E+03  0.35545313254E+03  0.10566000000E+00 0.  1.
         14    1    4    4    0    0 -0.15847748677E+02 -0.47372999562E+01  0.40416382585E+03  0.40450215237E+03  0.00000000000E+00 0. -1.
<mgrwt>
<rscale>  0 0.79831633E+02</rscale>
<asrwt>0</asrwt>
<pdfrwt beam="1">  1        2 0.14542533E+00 0.79831633E+02</pdfrwt>
<pdfrwt beam="2">  1       -1 0.25931239E-03 0.79831633E+02</pdfrwt>
<totfact> 0.35302660E+05</totfact>
</mgrwt>
</event>
<event>
 8    1  0.2603554E-020  0.7904211E+02  0.7818608E-02  0.1331792E+00
          2   -1    0    0  501    0  0.00000000000E+00  0.00000000000E+00  0.31087799008E+01  0.31087809467E+01  0.25500000000E-02 0. -1.
         -1   -1    0    0    0  501 -0.00000000000E+00 -0.00000000000E+00 -0.50242010229E+03  0.50242010232E+03  0.50400000000E-02 0.  1.
         24    2    1    2    0    0  0.00000000000E+00  0.00000000000E+00 -0.49931132239E+03  0.50552888327E+03  0.79042109955E+02 0.  0.
         66    2    3    3    0    0  0.37144183362E+02  0.55437448011E+01 -0.32801146382E+03  0.33016048197E+03  0.19999973183E+01 0.  0.
        -13    1    3    3    0    0 -0.37144183362E+02 -0.55437448011E+01 -0.17129985857E+03  0.17536840130E+03  0.10566000000E+00 0.  1.
         13    1    4    4    0    0  0.29422760317E+02  0.43861456591E+01 -0.26638827934E+03  0.26804414493E+03  0.10566000000E+00 0. -1.
        -13    1    4    4    0    0  0.58732867938E+01  0.89927925961E+00 -0.46161431629E+02  0.46542379989E+02  0.10566000000E+00 0.  1.
         14    1    4    4    0    0  0.18481362508E+01  0.25831988244E+00 -0.15461752854E+02  0.15573957046E+02  0.00000000000E+00 0. -1.
<mgrwt>
<rscale>  0 0.79042110E+02</rscale>
<asrwt>0</asrwt>
<pdfrwt beam="1">  1        2 0.47827431E-03 0.79042110E+02</pdfrwt>
<pdfrwt beam="2">  1       -1 0.77295336E-01 0.79042110E+02</pdfrwt>
<totfact> 0.68689811E+04</totfact>
</mgrwt>
</event>
<event>
 8    1  0.2603554E-020  0.8013936E+02  0.7818608E-02  0.1328656E+00
          2   -1    0    0  501    0  0.00000000000E+00  0.00000000000E+00  0.17685252694E+03  0.17685252696E+03  0.25500000000E-02 0. -1.
         -1   -1    0    0    0  501 -0.00000000000E+00 -0.00000000000E+00 -0.90786322862E+01  0.90786336852E+01  0.50400000000E-02 0.  1.
         24    2    1    2    0    0  0.00000000000E+00  0.17763568394E-14  0.16777389466E+03  0.18593116065E+03  0.80139358440E+02 0.  0.
         66    2    3    3    0    0 -0.16658086660E+02 -0.14234647816E+02  0.16170412112E+03  0.16319417834E+03  0.20000016278E+01 0.  0.
        -13    1    3    3    0    0  0.16658086660E+02  0.14234647816E+02  0.60697735350E+01  0.22736982307E+02  0.10566000000E+00 0.  1.
         13    1    4    4    0    0 -0.49844910342E+01 -0.44227243885E+01  0.47452382949E+02  0.47918111956E+02  0.10566000000E+00 0. -1.
        -13    1    4    4    0    0 -0.11046233233E+02 -0.87186077578E+01  0.10486981992E+03  0.10580984682E+03  0.10566000000E+00 0.  1.
        -14    1    4    4    0    0 -0.62736239301E+00 -0.10933156698E+01  0.93819182553E+01  0.94662195661E+01  0.00000000000E+00 0.  1.
<mgrwt>
<rscale>  0 0.80139358E+02</rscale>
<asrwt>0</asrwt>
<pdfrwt beam="1">  1        2 0.27208080E-01 0.80139358E+02</pdfrwt>
<pdfrwt beam="2">  1       -1 0.13967128E-02 0.80139358E+02</pdfrwt>
<totfact> 0.21050509E+05</totfact>
</mgrwt>
</event>
<event>
 8    1  0.2603554E-020  0.8013208E+02  0.7818608E-02  0.1328677E+00
         -1   -1    0    0    0  501 -0.00000000000E+00  0.00000000000E+00  0.17838467047E+02  0.17838467759E+02  0.50400000000E-02 0.  1.
          2   -1    0    0  501    0  0.00000000000E+00 -0.00000000000E+00 -0.89990215763E+02  0.89990215799E+02  0.25500000000E-02 0. -1.
         24    2    1    2    0    0  0.00000000000E+00  0.00000000000E+00 -0.72151748716E+02  0.10782868356E+03  0.80132079438E+02 0.  0.
         66    2    3    3    0    0  0.38604424183E+02 -0.43780516631E+01 -0.49131781842E+02  0.62668978712E+02  0.20000007289E+01 0.  0.
        -13    1    3    3    0    0 -0.38604424183E+02  0.43780516631E+01 -0.23019966874E+02  0.45159704847E+02  0.10566000000E+00 0.  1.
         13    1    4    4    0    0  0.24140069821E+02 -0.30513978408E+01 -0.30211892987E+02  0.38792056424E+02  0.10566000000E+00 0. -1.
        -13    1    4    4    0    0  0.23538874677E+01 -0.57908861241E+00 -0.29171710844E+01  0.37943617386E+01  0.10566000000E+00 0.  1.
         14    1    4    4    0    0  0.12110466894E+02 -0.74756520994E+00 -0.16002717771E+02  0.20082560549E+02  0.00000000000E+00 0. -1.
<mgrwt>
<rscale>  0 0.80132079E+02</rscale>
<asrwt>0</asrwt>
<pdfrwt beam="1">  1        2 0.13844648E-01 0.80132079E+02</pdfrwt>
<pdfrwt beam="2">  1       -1 0.27443797E-02 0.80132079E+02</pdfrwt>
<totfact> 0.17144056E+05</totfact>
</mgrwt>
</event>
<event>
 8    1  0.2603554E-020  0.7798743E+02  0.7818608E-02  0.1334862E+00
          2   -1    0    0  501    0  0.00000000000E+00  0.00000000000E+00  0.90884923838E+02  0.90884923874E+02  0.25500000000E-02 0. -1.
         -1   -1    0    0    0  501 -0.00000000000E+00 -0.00000000000E+00 -0.16730054940E+02  0.16730055700E+02  0.50400000000E-02 0.  1.
         24    2    1    2    0    0  0.00000000000E+00  0.00000000000E+00  0.74154868898E+02  0.10761497957E+03  0.77987430060E+02 0.  0.
         66    2    3    3    0    0  0.19736436128E+02  0.11214067869E+02  0.80808327142E+02  0.83959918807E+02  0.20000003232E+01 0.  0.
        -13    1    3    3    0    0 -0.19736436128E+02 -0.11214067869E+02 -0.66534582444E+01  0.23655060767E+02  0.10566000000E+00 0.  1.
         13    1    4    4    0    0  0.40208325293E+01  0.25011373505E+01  0.16190959848E+02  0.16869532510E+02  0.10566000000E+00 0. -1.
        -13    1    4    4    0    0  0.65133126391E+01  0.27524484069E+01  0.26529052029E+02  0.27455436244E+02  0.10566000000E+00 0.  1.
        -14    1    4    4    0    0  0.92022909600E+01  0.59604821120E+01  0.38088315265E+02  0.39634950052E+02  0.00000000000E+00 0.  1.
<mgrwt>
<rscale>  0 0.77987430E+02</rscale>
<asrwt>0</asrwt>
<pdfrwt beam="1">  1        2 0.13982296E-01 0.77987430E+02</pdfrwt>
<pdfrwt beam="2">  1       -1 0.25738546E-02 0.77987430E+02</pdfrwt>
<totfact> 0.18487079E+05</totfact>
</mgrwt>
</event>
<event>
 8    1  0.2603554E-020  0.7996150E+02  0.7818608E-02  0.1329161E+00
         -1   -1    0    0    0  501 -0.00000000000E+00  0.00000000000E+00  0.43458027173E+01  0.43458056398E+01  0.50400000000E-02 0.  1.
          2   -1    0    0  501    0  0.00000000000E+00 -0.00000000000E+00 -0.36781689925E+03  0.36781689926E+03  0.25500000000E-02 0. -1.
         24    2    1    2    0    0  0.17763568394E-14  0.00000000000E+00 -0.36347109653E+03  0.37216270490E+03  0.79961496376E+02 0.  0.
         66    2    3    3    0    0  0.97488828356E+01 -0.31955081757E+01 -0.36157883696E+03  0.36172988172E+03  0.20000004728E+01 0.  0.
        -13    1    3    3    0    0 -0.97488828356E+01  0.31955081757E+01 -0.18922595649E+01  0.10432823172E+02  0.10566000000E+00 0.  1.
         13    1    4    4    0    0  0.52622504402E+01 -0.14162126580E+01 -0.21015942986E+03  0.21023009790E+03  0.10566000000E+00 0.  1.
        -13    1    4    4    0    0  0.35015357174E+01 -0.18209589690E+01 -0.12172545722E+03  0.12178946894E+03  0.10566000000E+00 0. -1.
        -14    1    4    4    0    0  0.98509667795E+00  0.41663451249E-01 -0.29693949878E+02  0.29710314886E+02  0.00000000000E+00 0.  1.
<mgrwt>
<rscale>  0 0.79961496E+02</rscale>
<asrwt>0</asrwt>
<pdfrwt beam="1">  1        2 0.56587191E-01 0.79961496E+02</pdfrwt>
<pdfrwt beam="2">  1       -1 0.66858555E-03 0.79961496E+02</pdfrwt>
<totfact> 0.27464242E+05</totfact>
</mgrwt>
</event>
<event>
 8    1  0.2603554E-020  0.7776040E+02  0.7818608E-02  0.1335530E+00
         -1   -1    0    0    0  501 -0.00000000000E+00  0.00000000000E+00  0.48335839280E+01  0.48335865557E+01  0.50400000000E-02 0.  1.
          2   -1    0    0  501    0  0.00000000000E+00 -0.00000000000E+00 -0.31274303834E+03  0.31274303835E+03  0.25500000000E-02 0. -1.
         24    2    1    2    0    0 -0.17763568394E-14  0.35527136788E-14 -0.30790945441E+03  0.31757662490E+03  0.77760404901E+02 0.  0.
         66    2    3    3    0    0  0.14754861210E+02  0.25569735085E+02 -0.25722563838E+03  0.25892189233E+03  0.20000019051E+01 0.  0.
        -13    1    3    3    0    0 -0.14754861210E+02 -0.25569735085E+02 -0.50683816034E+02  0.58654732575E+02  0.10566000000E+00 0.  1.
         13    1    4    4    0    0  0.44583809723E+00  0.61636557050E+00 -0.53303090965E+01  0.53853539554E+01  0.10566000000E+00 0.  1.
        -13    1    4    4    0    0  0.30766715126E+01  0.51492066319E+01 -0.47675384020E+02  0.48051364622E+02  0.10566000000E+00 0.  1.
         14    1    4    4    0    0  0.11232351600E+02  0.19804162883E+02 -0.20421994526E+03  0.20548517375E+03  0.00000000000E+00 0. -1.
<mgrwt>
<rscale>  0 0.77760405E+02</rscale>
<asrwt>0</asrwt>
<pdfrwt beam="1">  1        2 0.48114298E-01 0.77760405E+02</pdfrwt>
<pdfrwt beam="2">  1       -1 0.74362875E-03 0.77760405E+02</pdfrwt>
<totfact> 0.27877126E+05</totfact>
</mgrwt>
</event>
<event>
 8    1  0.2603554E-020  0.8391286E+02  0.7818608E-02  0.1318300E+00
          2   -1    0    0  501    0  0.00000000000E+00  0.00000000000E+00  0.65392733141E+02  0.65392733190E+02  0.25500000000E-02 0. -1.
         -1   -1    0    0    0  501 -0.00000000000E+00 -0.00000000000E+00 -0.26919534817E+02  0.26919535288E+02  0.50400000000E-02 0.  1.
         24    2    1    2    0    0  0.00000000000E+00  0.00000000000E+00  0.38473198324E+02  0.92312268479E+02  0.83912859100E+02 0.  0.
         66    2    3    3    0    0 -0.22836105437E+01 -0.41331024597E+02  0.26616378927E+02  0.49253427324E+02  0.20000011479E+01 0.  0.
        -13    1    3    3    0    0  0.22836105437E+01  0.41331024597E+02  0.11856819397E+02  0.43058841155E+02  0.10566000000E+00 0.  1.
         13    1    4    4    0    0 -0.15128651704E+01 -0.15008196517E+02  0.93409820292E+01  0.17742599387E+02  0.10566000000E+00 0. -1.
        -13    1    4    4    0    0  0.14693780070E+00 -0.25560143442E+01  0.18876483851E+01  0.31826373508E+01  0.10566000000E+00 0.  1.
         14    1    4    4    0    0 -0.91768317404E+00 -0.23766813736E+02  0.15387748513E+02  0.28328190586E+02  0.00000000000E+00 0. -1.
<mgrwt>
<rscale>  0 0.83912859E+02</rscale>
<asrwt>0</asrwt>
<pdfrwt beam="1">  1        2 0.10060420E-01 0.83912859E+02</pdfrwt>
<pdfrwt beam="2">  1       -1 0.41414670E-02 0.83912859E+02</pdfrwt>
<totfact> 0.13947916E+05</totfact>
</mgrwt>
</event>
<event>
 8    1  0.2603554E-020  0.7892436E+02  0.7818608E-02  0.1332132E+00
          2   -1    0    0  501    0  0.00000000000E+00  0.00000000000E+00  0.28660445347E+03  0.28660445348E+03  0.25500000000E-02 0. -1.
         -1   -1    0    0    0  501 -0.00000000000E+00 -0.00000000000E+00 -0.54334935292E+01  0.54334958667E+01  0.50400000000E-02 0.  1.
         24    2    1    2    0    0 -0.17763568394E-14  0.88817841970E-15  0.28117095994E+03  0.29203794935E+03  0.78924363446E+02 0.  0.
         66    2    3    3    0    0  0.11682578379E+02 -0.42103506941E+01  0.27917713639E+03  0.27946034278E+03  0.20000042991E+01 0.  0.
        -13    1    3    3    0    0 -0.11682578379E+02  0.42103506941E+01  0.19938235569E+01  0.12577606567E+02  0.10566000000E+00 0.  1.
         13    1    4    4    0    0  0.56788639863E+01 -0.13131204321E+01  0.11788355473E+03  0.11802761296E+03  0.10566000000E+00 0. -1.
        -13    1    4    4    0    0  0.27606451367E+01 -0.10604638486E+01  0.76779892517E+02  0.76836897413E+02  0.10566000000E+00 0.  1.
         14    1    4    4    0    0  0.32430692557E+01 -0.18367664135E+01  0.84513689137E+02  0.84595832407E+02  0.00000000000E+00 0. -1.
<mgrwt>
<rscale>  0 0.78924363E+02</rscale>
<asrwt>0</asrwt>
<pdfrwt beam="1">  1        2 0.44092991E-01 0.78924363E+02</pdfrwt>
<pdfrwt beam="2">  1       -1 0.83592230E-03 0.78924363E+02</pdfrwt>
<totfact> 0.25982010E+05</totfact>
</mgrwt>
</event>
<event>
 8    1  0.2603554E-020  0.8754280E+02  0.7818608E-02  0.1308914E+00
         -1   -1    0    0    0  501 -0.00000000000E+00  0.00000000000E+00  0.33747650700E+01  0.33747688335E+01  0.50400000000E-02 0.  1.
          2   -1    0    0  501    0  0.00000000000E+00 -0.00000000000E+00 -0.56772374504E+03  0.56772374504E+03  0.25500000000E-02 0. -1.
         24    2    1    2    0    0  0.17763568394E-14 -0.71054273576E-14 -0.56434897997E+03  0.57109851388E+03  0.87542797316E+02 0.  0.
         66    2    3    3    0    0  0.12904113775E+02 -0.34747387944E+02 -0.43392192289E+03  0.43550675342E+03  0.19999976434E+01 0.  0.
        -13    1    3    3    0    0 -0.12904113775E+02  0.34747387944E+02 -0.13042705708E+03  0.13559176045E+03  0.10566000000E+00 0.  1.
         13    1    4    4    0    0  0.27114368360E+01 -0.70395912762E+01 -0.89471212465E+02  0.89788734032E+02  0.10566000000E+00 0. -1.
        -13    1    4    4    0    0  0.71023322803E+01 -0.16874879506E+02 -0.21431918386E+03  0.21509981036E+03  0.10566000000E+00 0.  1.
        -14    1    4    4    0    0  0.30903446584E+01 -0.10832917162E+02 -0.13013152657E+03  0.13061820904E+03  0.00000000000E+00 0.  1.
<mgrwt>
<rscale>  0 0.87542797E+02</rscale>
<asrwt>0</asrwt>
<pdfrwt beam="1">  1        2 0.87342039E-01 0.87542797E+02</pdfrwt>
<pdfrwt beam="2">  1       -1 0.51919537E-03 0.87542797E+02</pdfrwt>
<totfact> 0.25014081E+05</totfact>
</mgrwt>
</event>
<event>
 8    1  0.2603554E-020  0.8108022E+02  0.7818608E-02  0.1326014E+00
          2   -1    0    0  501    0  0.00000000000E+00  0.00000000000E+00  0.68454238112E+03  0.68454238113E+03  0.25500000000E-02 0. -1.
         -1   -1    0    0    0  501 -0.00000000000E+00 -0.00000000000E+00 -0.24008722904E+01  0.24008775805E+01  0.50400000000E-02 0.  1.
         24    2    1    2    0    0  0.35527136788E-14  0.35527136788E-14  0.68214150883E+03  0.68694325871E+03  0.81080223312E+02 0.  0.
         66    2    3    3    0    0 -0.13823726379E+02 -0.25116522017E+02  0.58382501237E+03  0.58453193252E+03  0.19999968102E+01 0.  0.
        -13    1    3    3    0    0  0.13823726379E+02  0.25116522017E+02  0.98316496467E+02  0.10241132618E+03  0.10566000000E+00 0.  1.
         13    1    4    4    0    0 -0.13500198453E+01 -0.21275063786E+01  0.60065356955E+02  0.60118275982E+02  0.10566000000E+00 0. -1.
        -13    1    4    4    0    0 -0.22548881130E+01 -0.43905468999E+01  0.10801780514E+03  0.10813056373E+03  0.10566000000E+00 0.  1.
         14    1    4    4    0    0 -0.10218818421E+02 -0.18598468739E+02  0.41574185027E+03  0.41628309281E+03  0.00000000000E+00 0. -1.
<mgrwt>
<rscale>  0 0.81080223E+02</rscale>
<asrwt>0</asrwt>
<pdfrwt beam="1">  1        2 0.10531436E+00 0.81080223E+02</pdfrwt>
<pdfrwt beam="2">  1       -1 0.36936484E-03 0.81080223E+02</pdfrwt>
<totfact> 0.32137023E+05</totfact>
</mgrwt>
</event>
<event>
 8    1  0.2603554E-020  0.8201158E+02  0.7818608E-02  0.1323438E+00
         -1   -1    0    0    0  501 -0.00000000000E+00  0.00000000000E+00  0.28634054494E+01  0.28634098849E+01  0.50400000000E-02 0.  1.
          2   -1    0    0  501    0  0.00000000000E+00 -0.00000000000E+00 -0.58722852669E+03  0.58722852670E+03  0.25500000000E-02 0. -1.
         24    2    1    2    0    0  0.00000000000E+00  0.00000000000E+00 -0.58436512124E+03  0.59009193658E+03  0.82011576590E+02 0.  0.
         66    2    3    3    0    0  0.24577318167E+02 -0.22243348697E+02 -0.46573821062E+03  0.46692064847E+03  0.19999995668E+01 0.  0.
        -13    1    3    3    0    0 -0.24577318167E+02  0.22243348697E+02 -0.11862691062E+03  0.12317128811E+03  0.10566000000E+00 0.  1.
         13    1    4    4    0    0  0.80827072390E+01 -0.75680752154E+01 -0.14766476510E+03  0.14807937039E+03  0.10566000000E+00 0. -1.
        -13    1    4    4    0    0  0.12958687104E+02 -0.11703196976E+02 -0.25842107653E+03  0.25901034024E+03  0.10566000000E+00 0.  1.
         14    1    4    4    0    0  0.35359238234E+01 -0.29720765054E+01 -0.59652368992E+02  0.59830937837E+02  0.00000000000E+00 0. -1.
<mgrwt>
<rscale>  0 0.82011577E+02</rscale>
<asrwt>0</asrwt>
<pdfrwt beam="1">  1        2 0.90342755E-01 0.82011577E+02</pdfrwt>
<pdfrwt beam="2">  1       -1 0.44052472E-03 0.82011577E+02</pdfrwt>
<totfact> 0.29966224E+05</totfact>
</mgrwt>
</event>
<event>
 8    1  0.2603554E-020  0.8346353E+02  0.7818608E-02  0.1319500E+00
          2   -1    0    0  501    0  0.00000000000E+00  0.00000000000E+00  0.51021273100E+03  0.51021273100E+03  0.25500000000E-02 0. -1.
         -1   -1    0    0    0  501 -0.00000000000E+00 -0.00000000000E+00 -0.34133591932E+01  0.34133629141E+01  0.50400000000E-02 0.  1.
         24    2    1    2    0    0  0.17763568394E-14  0.00000000000E+00  0.50679937180E+03  0.51362609392E+03  0.83463531511E+02 0.  0.
         66    2    3    3    0    0  0.12105272492E+02 -0.97095117039E+00  0.49908879164E+03  0.49924052550E+03  0.19999975614E+01 0.  0.
        -13    1    3    3    0    0 -0.12105272492E+02  0.97095117039E+00  0.77105801646E+01  0.14385568421E+02  0.10566000000E+00 0.  1.
         13    1    4    4    0    0  0.43416816176E+01 -0.12651686890E+00  0.15649680353E+03  0.15655710423E+03  0.10566000000E+00 0. -1.
        -13    1    4    4    0    0  0.61415824403E+01 -0.20570850115E+00  0.27788131570E+03  0.27794927258E+03  0.10566000000E+00 0.  1.
        -14    1    4    4    0    0  0.16220084338E+01 -0.63872580034E+00  0.64710672415E+02  0.64734148688E+02  0.00000000000E+00 0.  1.
<mgrwt>
<rscale>  0 0.83463532E+02</rscale>
<asrwt>0</asrwt>
<pdfrwt beam="1">  1        2 0.78494277E-01 0.83463532E+02</pdfrwt>
<pdfrwt beam="2">  1       -1 0.52513240E-03 0.83463532E+02</pdfrwt>
<totfact> 0.27436280E+05</totfact>
</mgrwt>
</event>
<event>
 8    1  0.2603554E-020  0.7934242E+02  0.7818608E-02  0.1330928E+00
         -1   -1    0    0    0  501 -0.00000000000E+00  0.00000000000E+00  0.10499649629E+02  0.10499650838E+02  0.50400000000E-02 0.  1.
          2   -1    0    0  501    0  0.00000000000E+00 -0.00000000000E+00 -0.14989118782E+03  0.14989118784E+03  0.25500000000E-02 0. -1.
         24    2    1    2    0    0  0.35527136788E-14  0.00000000000E+00 -0.13939153819E+03  0.16039083868E+03  0.79342423791E+02 0.  0.
         66    2    3    3    0    0  0.28066165833E+02  0.18616075547E+02 -0.11202422500E+03  0.11699442260E+03  0.19999996552E+01 0.  0.
        -13    1    3    3    0    0 -0.28066165833E+02 -0.18616075547E+02 -0.27367313185E+02  0.43396416077E+02  0.10566000000E+00 0.  1.
         13    1    4    4    0    0  0.81779979767E+01  0.53523255666E+01 -0.32612748618E+02  0.34045992074E+02  0.10566000000E+00 0. -1.
        -13    1    4    4    0    0  0.50312975898E+01  0.31542974745E+01 -0.17404003129E+02  0.18389508883E+02  0.10566000000E+00 0.  1.
        -14    1    4    4    0    0  0.14856870266E+02  0.10109452506E+02 -0.62007473257E+02  0.64558921644E+02  0.00000000000E+00 0.  1.
<mgrwt>
<rscale>  0 0.79342424E+02</rscale>
<asrwt>0</asrwt>
<pdfrwt beam="1">  1        2 0.23060181E-01 0.79342424E+02</pdfrwt>
<pdfrwt beam="2">  1       -1 0.16153309E-02 0.79342424E+02</pdfrwt>
<totfact> 0.20468546E+05</totfact>
</mgrwt>
</event>
<event>
 8    1  0.2603554E-020  0.7984529E+02  0.7818608E-02  0.1329491E+00
         -1   -1    0    0    0  501 -0.00000000000E+00  0.00000000000E+00  0.53580832874E+01  0.53580856578E+01  0.50400000000E-02 0.  1.
          2   -1    0    0  501    0  0.00000000000E+00 -0.00000000000E+00 -0.29746035441E+03  0.29746035442E+03  0.25500000000E-02 0. -1.
         24    2    1    2    0    0 -0.35527136788E-14 -0.55511151231E-16 -0.29210227113E+03  0.30281844008E+03  0.79845293266E+02 0.  0.
         66    2    3    3    0    0 -0.25171902365E+02  0.45538725812E+00 -0.26352718487E+03  0.26473460145E+03  0.19999986280E+01 0.  0.
        -13    1    3    3    0    0  0.25171902365E+02 -0.45538725812E+00 -0.28575086257E+02  0.38083838631E+02  0.10566000000E+00 0.  1.
         13    1    4    4    0    0 -0.79505454275E+01  0.56097111912E+00 -0.81096971868E+02  0.81487765163E+02  0.10566000000E+00 0. -1.
        -13    1    4    4    0    0 -0.15834021974E+02 -0.32432139011E+00 -0.16387067036E+03  0.16463422854E+03  0.10566000000E+00 0.  1.
        -14    1    4    4    0    0 -0.13873349633E+01  0.21873752911E+00 -0.18559542637E+02  0.18612607751E+02  0.00000000000E+00 0.  1.
<mgrwt>
<rscale>  0 0.79845293E+02</rscale>
<asrwt>0</asrwt>
<pdfrwt beam="1">  1        2 0.45763119E-01 0.79845293E+02</pdfrwt>
<pdfrwt beam="2">  1       -1 0.82432092E-03 0.79845293E+02</pdfrwt>
<totfact> 0.25545443E+05</totfact>
</mgrwt>
</event>
<event>
 8    1  0.2603554E-020  0.8291230E+02  0.7818608E-02  0.1320984E+00
          2   -1    0    0  501    0  0.00000000000E+00  0.00000000000E+00  0.65754316208E+02  0.65754316257E+02  0.25500000000E-02 0. -1.
         -1   -1    0    0    0  501 -0.00000000000E+00 -0.00000000000E+00 -0.26136874300E+02  0.26136874786E+02  0.50400000000E-02 0.  1.
         24    2    1    2    0    0  0.00000000000E+00  0.00000000000E+00  0.39617441908E+02  0.91891191043E+02  0.82912298774E+02 0.  0.
         66    2    3    3    0    0  0.54006496409E+01  0.40555461461E+02  0.12578478905E+02  0.42850094449E+02  0.19999979741E+01 0.  0.
        -13    1    3    3    0    0 -0.54006496409E+01 -0.40555461461E+02  0.27038963003E+02  0.49041096594E+02  0.10566000000E+00 0.  1.
         13    1    4    4    0    0  0.22494385719E+01  0.13923294008E+02  0.42052558800E+01  0.14717793006E+02  0.10566000000E+00 0. -1.
        -13    1    4    4    0    0  0.26243440996E+01  0.21292112292E+02  0.60931560897E+01  0.22301994148E+02  0.10566000000E+00 0.  1.
        -14    1    4    4    0    0  0.52686696939E+00  0.53400551605E+01  0.22800669354E+01  0.58303072947E+01  0.00000000000E+00 0.  1.
<mgrwt>
<rscale>  0 0.82912299E+02</rscale>
<asrwt>0</asrwt>
<pdfrwt beam="1">  1        2 0.10116048E-01 0.82912299E+02</pdfrwt>
<pdfrwt beam="2">  1       -1 0.40210577E-02 0.82912299E+02</pdfrwt>
<totfact> 0.14431097E+05</totfact>
</mgrwt>
</event>
<event>
 8    1  0.2603554E-020  0.7881637E+02  0.7818608E-02  0.1332444E+00
         -1   -1    0    0    0  501 -0.00000000000E+00  0.00000000000E+00  0.72997777569E+01  0.72997794968E+01  0.50400000000E-02 0.  1.
          2   -1    0    0  501    0  0.00000000000E+00 -0.00000000000E+00 -0.21274685042E+03  0.21274685043E+03  0.25500000000E-02 0. -1.
         24    2    1    2    0    0  0.00000000000E+00 -0.88817841970E-15 -0.20544707266E+03  0.22004662993E+03  0.78816366819E+02 0.  0.
         66    2    3    3    0    0 -0.16561690781E+02 -0.69331826341E+01 -0.20065077288E+03  0.20146238180E+03  0.19999998938E+01 0.  0.
        -13    1    3    3    0    0  0.16561690781E+02  0.69331826341E+01 -0.47962997799E+01  0.18584248130E+02  0.10566000000E+00 0.  1.
         13    1    4    4    0    0 -0.11688559103E+02 -0.49336762493E+01 -0.13959985823E+03  0.14017523018E+03  0.10566000000E+00 0. -1.
        -13    1    4    4    0    0 -0.37549772475E+01 -0.15022270479E+01 -0.51397334887E+02  0.51556316177E+02  0.10566000000E+00 0.  1.
        -14    1    4    4    0    0 -0.11181544301E+01 -0.49727933682E+00 -0.96535797686E+01  0.97308354429E+01  0.00000000000E+00 0.  1.
<mgrwt>
<rscale>  0 0.78816367E+02</rscale>
<asrwt>0</asrwt>
<pdfrwt beam="1">  1        2 0.32730280E-01 0.78816367E+02</pdfrwt>
<pdfrwt beam="2">  1       -1 0.11230430E-02 0.78816367E+02</pdfrwt>
<totfact> 0.23442182E+05</totfact>
</mgrwt>
</event>
<event>
 8    1  0.2603554E-020  0.7839316E+02  0.7818608E-02  0.1333674E+00
         -1   -1    0    0    0  501 -0.00000000000E+00  0.00000000000E+00  0.94959454392E+01  0.94959467767E+01  0.50400000000E-02 0.  1.
          2   -1    0    0  501    0  0.00000000000E+00 -0.00000000000E+00 -0.16179237955E+03  0.16179237957E+03  0.25500000000E-02 0. -1.
         24    2    1    2    0    0  0.00000000000E+00  0.00000000000E+00 -0.15229643411E+03  0.17128832634E+03  0.78393155950E+02 0.  0.
         66    2    3    3    0    0  0.27236913999E+00  0.34677176489E+02 -0.11599723861E+03  0.12108649857E+03  0.20000039690E+01 0.  0.
        -13    1    3    3    0    0 -0.27236913999E+00 -0.34677176489E+02 -0.36299195495E+02  0.50201827774E+02  0.10566000000E+00 0.  1.
         13    1    4    4    0    0  0.28438834895E+00  0.30186071908E+02 -0.99831124460E+02  0.10429546677E+03  0.10566000000E+00 0. -1.
        -13    1    4    4    0    0 -0.16438093436E+00  0.57992255742E+00 -0.26377940353E+01  0.27078501939E+01  0.10566000000E+00 0.  1.
         14    1    4    4    0    0  0.15236172540E+00  0.39111820244E+01 -0.13528320119E+02  0.14083181606E+02  0.00000000000E+00 0. -1.
<mgrwt>
<rscale>  0 0.78393156E+02</rscale>
<asrwt>0</asrwt>
<pdfrwt beam="1">  1        2 0.24891133E-01 0.78393156E+02</pdfrwt>
<pdfrwt beam="2">  1       -1 0.14609149E-02 0.78393156E+02</pdfrwt>
<totfact> 0.21662464E+05</totfact>
</mgrwt>
</event>
<event>
 8    1  0.2603554E-020  0.8271680E+02  0.7818608E-02  0.1321514E+00
         -1   -1    0    0    0  501 -0.00000000000E+00  0.00000000000E+00  0.13132795293E+02  0.13132796260E+02  0.50400000000E-02 0.  1.
          2   -1    0    0  501    0  0.00000000000E+00 -0.00000000000E+00 -0.13024775833E+03  0.13024775836E+03  0.25500000000E-02 0. -1.
         24    2    1    2    0    0  0.00000000000E+00  0.00000000000E+00 -0.11711496304E+03  0.14338055462E+03  0.82716799229E+02 0.  0.
         66    2    3    3    0    0  0.11856212147E+02 -0.25320695318E+02 -0.11136205557E+03  0.11483559909E+03  0.20000050474E+01 0.  0.
        -13    1    3    3    0    0 -0.11856212147E+02  0.25320695318E+02 -0.57529074764E+01  0.28544955532E+02  0.10566000000E+00 0.  1.
         13    1    4    4    0    0  0.10586344670E+02 -0.22195505619E+02 -0.97901250862E+02  0.10094244522E+03  0.10566000000E+00 0. -1.
        -13    1    4    4    0    0  0.45308696745E+00 -0.18660993772E+01 -0.69118452847E+01  0.71744256885E+01  0.10566000000E+00 0.  1.
         14    1    4    4    0    0  0.81678050940E+00 -0.12590903213E+01 -0.65489594191E+01  0.67187281765E+01  0.00000000000E+00 0. -1.
<mgrwt>
<rscale>  0 0.82716799E+02</rscale>
<asrwt>0</asrwt>
<pdfrwt beam="1">  1        2 0.20038116E-01 0.82716799E+02</pdfrwt>
<pdfrwt beam="2">  1       -1 0.20204302E-02 0.82716799E+02</pdfrwt>
<totfact> 0.17525508E+05</totfact>
</mgrwt>
</event>
<event>
 8    1  0.2603554E-020  0.8068410E+02  0.7818608E-02  0.1327121E+00
          2   -1    0    0  501    0  0.00000000000E+00  0.00000000000E+00  0.57978407051E+03  0.57978407051E+03  0.25500000000E-02 0. -1.
         -1   -1    0    0    0  501 -0.00000000000E+00 -0.00000000000E+00 -0.28070445914E+01  0.28070491160E+01  0.50400000000E-02 0.  1.
         24    2    1    2    0    0 -0.88817841970E-15  0.35527136788E-14  0.57697702592E+03  0.58259111963E+03  0.80684101505E+02 0.  0.
         66    2    3    3    0    0  0.65358304635E+01 -0.25136319074E+02  0.51132871431E+03  0.51199180238E+03  0.20000003006E+01 0.  0.
        -13    1    3    3    0    0 -0.65358304635E+01  0.25136319074E+02  0.65648311603E+02  0.70599317255E+02  0.10566000000E+00 0.  1.
         13    1    4    4    0    0  0.31555909679E+01 -0.11080025262E+02  0.20991419935E+03  0.21023012859E+03  0.10566000000E+00 0. -1.
        -13    1    4    4    0    0  0.12621065353E+00 -0.10158653645E+01  0.22450121571E+02  0.22473696495E+02  0.10566000000E+00 0.  1.
         14    1    4    4    0    0  0.32540288420E+01 -0.13040428448E+02  0.27896439339E+03  0.27928797729E+03  0.00000000000E+00 0. -1.
<mgrwt>
<rscale>  0 0.80684102E+02</rscale>
<asrwt>0</asrwt>
<pdfrwt beam="1">  1        2 0.89197660E-01 0.80684102E+02</pdfrwt>
<pdfrwt beam="2">  1       -1 0.43185283E-03 0.80684102E+02</pdfrwt>
<totfact> 0.31154668E+05</totfact>
</mgrwt>
</event>
<event>
 8    1  0.2603554E-020  0.7871626E+02  0.7818608E-02  0.1332734E+00
          2   -1    0    0  501    0  0.00000000000E+00  0.00000000000E+00  0.83598348509E+02  0.83598348548E+02  0.25500000000E-02 0. -1.
         -1   -1    0    0    0  501 -0.00000000000E+00 -0.00000000000E+00 -0.18529818540E+02  0.18529819226E+02  0.50400000000E-02 0.  1.
         24    2    1    2    0    0  0.00000000000E+00  0.00000000000E+00  0.65068529968E+02  0.10212816777E+03  0.78716256647E+02 0.  0.
         66    2    3    3    0    0  0.10732500575E+02  0.16839772164E+02  0.76520245013E+02  0.79108232138E+02  0.20000000087E+01 0.  0.
        -13    1    3    3    0    0 -0.10732500575E+02 -0.16839772164E+02 -0.11451715045E+02  0.23019935635E+02  0.10566000000E+00 0.  1.
         13    1    4    4    0    0  0.19705529655E+01  0.41194674311E+01  0.16388456539E+02  0.17013105615E+02  0.10566000000E+00 0.  1.
        -13    1    4    4    0    0  0.20135558725E+01  0.35481201995E+01  0.14422518822E+02  0.14988788391E+02  0.10566000000E+00 0.  1.
         14    1    4    4    0    0  0.67483917369E+01  0.91721845338E+01  0.45709269652E+02  0.47106338133E+02  0.00000000000E+00 0. -1.
<mgrwt>
<rscale>  0 0.78716257E+02</rscale>
<asrwt>0</asrwt>
<pdfrwt beam="1">  1        2 0.12861284E-01 0.78716257E+02</pdfrwt>
<pdfrwt beam="2">  1       -1 0.28507414E-02 0.78716257E+02</pdfrwt>
<totfact> 0.17637941E+05</totfact>
</mgrwt>
</event>
<event>
 8    1  0.2603554E-020  0.7852576E+02  0.7818608E-02  0.1333288E+00
          2   -1    0    0  501    0  0.00000000000E+00  0.00000000000E+00  0.11723297475E+03  0.11723297477E+03  0.25500000000E-02 0. -1.
         -1   -1    0    0    0  501 -0.00000000000E+00 -0.00000000000E+00 -0.13149660424E+02  0.13149661390E+02  0.50400000000E-02 0.  1.
         24    2    1    2    0    0 -0.88817841970E-15  0.00000000000E+00  0.10408331432E+03  0.13038263616E+03  0.78525763243E+02 0.  0.
         66    2    3    3    0    0  0.75042520869E+01 -0.25776341123E+02  0.99587603706E+02  0.10316212663E+03  0.19999996826E+01 0.  0.
        -13    1    3    3    0    0 -0.75042520869E+01  0.25776341123E+02  0.44957106148E+01  0.27220509529E+02  0.10566000000E+00 0.  1.
         13    1    4    4    0    0  0.36168985064E+01 -0.15092323002E+02  0.55808698176E+02  0.57926523498E+02  0.10566000000E+00 0. -1.
        -13    1    4    4    0    0  0.13452950885E+01 -0.32096566692E+01  0.12517209652E+02  0.12992436889E+02  0.10566000000E+00 0.  1.
         14    1    4    4    0    0  0.25420584920E+01 -0.74743614510E+01  0.31261695878E+02  0.32243166247E+02  0.00000000000E+00 0. -1.
<mgrwt>
<rscale>  0 0.78525763E+02</rscale>
<asrwt>0</asrwt>
<pdfrwt beam="1">  1        2 0.18035842E-01 0.78525763E+02</pdfrwt>
<pdfrwt beam="2">  1       -1 0.20230248E-02 0.78525763E+02</pdfrwt>
<totfact> 0.19500368E+05</totfact>
</mgrwt>
</event>
<event>
 8    1  0.2603554E-020  0.7978160E+02  0.7818608E-02  0.1329672E+00
          2   -1    0    0  501    0  0.00000000000E+00  0.00000000000E+00  0.33273854580E+03  0.33273854581E+03  0.25500000000E-02 0. -1.
         -1   -1    0    0    0  501 -0.00000000000E+00 -0.00000000000E+00 -0.47823604521E+01  0.47823631079E+01  0.50400000000E-02 0.  1.
         24    2    1    2    0    0  0.00000000000E+00  0.00000000000E+00  0.32795618534E+03  0.33752090891E+03  0.79781604700E+02 0.  0.
         66    2    3    3    0    0 -0.94391968934E+01  0.13079330371E+02  0.31831387591E+03  0.31872855366E+03  0.19999990955E+01 0.  0.
        -13    1    3    3    0    0  0.94391968934E+01 -0.13079330371E+02  0.96423094332E+01  0.18792355259E+02  0.10566000000E+00 0.  1.
         13    1    4    4    0    0 -0.13504093584E+01  0.22580856069E+01  0.50926184548E+02  0.50994215287E+02  0.10566000000E+00 0.  1.
        -13    1    4    4    0    0 -0.27005745552E+01  0.30772221491E+01  0.67493720283E+02  0.67617866284E+02  0.10566000000E+00 0. -1.
         14    1    4    4    0    0 -0.53882129798E+01  0.77440226151E+01  0.19989397108E+03  0.20011647208E+03  0.00000000000E+00 0. -1.
<mgrwt>
<rscale>  0 0.79781605E+02</rscale>
<asrwt>0</asrwt>
<pdfrwt beam="1">  1        2 0.51190546E-01 0.79781605E+02</pdfrwt>
<pdfrwt beam="2">  1       -1 0.73574797E-03 0.79781605E+02</pdfrwt>
<totfact> 0.26655724E+05</totfact>
</mgrwt>
</event>
<event>
 8    1  0.2603554E-020  0.7999088E+02  0.7818608E-02  0.1329077E+00
         -1   -1    0    0    0  501 -0.00000000000E+00  0.00000000000E+00  0.18713985188E+02  0.18713985867E+02  0.50400000000E-02 0.  1.
          2   -1    0    0  501    0  0.00000000000E+00 -0.00000000000E+00 -0.85478066635E+02  0.85478066673E+02  0.25500000000E-02 0. -1.
         24    2    1    2    0    0  0.00000000000E+00 -0.35527136788E-14 -0.66764081447E+02  0.10419205254E+03  0.79990882237E+02 0.  0.
         66    2    3    3    0    0  0.19582882969E+02 -0.21429041144E+02 -0.69191848240E+02  0.75061341505E+02  0.20000039937E+01 0.  0.
        -13    1    3    3    0    0 -0.19582882969E+02  0.21429041144E+02  0.24277667930E+01  0.29130711035E+02  0.10566000000E+00 0.  1.
         13    1    4    4    0    0  0.39845992357E+01 -0.39122927376E+01 -0.11773884145E+02  0.13031445715E+02  0.10566000000E+00 0. -1.
        -13    1    4    4    0    0  0.93476153990E+01 -0.11070612897E+02 -0.35024676356E+02  0.37903502496E+02  0.10566000000E+00 0.  1.
        -14    1    4    4    0    0  0.62506683343E+01 -0.64461355095E+01 -0.22393287739E+02  0.24126393294E+02  0.00000000000E+00 0.  1.
<mgrwt>
<rscale>  0 0.79990882E+02</rscale>
<asrwt>0</asrwt>
<pdfrwt beam="1">  1        2 0.13150472E-01 0.79990882E+02</pdfrwt>
<pdfrwt beam="2">  1       -1 0.28790748E-02 0.79990882E+02</pdfrwt>
<totfact> 0.16991127E+05</totfact>
</mgrwt>
</event>
<event>
 8    1  0.2603554E-020  0.8068371E+02  0.7818608E-02  0.1327122E+00
          2   -1    0    0  501    0  0.00000000000E+00  0.00000000000E+00  0.65347765265E+03  0.65347765265E+03  0.25500000000E-02 0. -1.
         -1   -1    0    0    0  501 -0.00000000000E+00 -0.00000000000E+00 -0.24904652707E+01  0.24904703705E+01  0.50400000000E-02 0.  1.
         24    2    1    2    0    0 -0.88817841970E-15  0.35527136788E-14  0.65098718738E+03  0.65596812302E+03  0.80683705254E+02 0.  0.
         66    2    3    3    0    0  0.60231212900E+01  0.23992394704E+02  0.58452557370E+03  0.58505218511E+03  0.19999993324E+01 0.  0.
        -13    1    3    3    0    0 -0.60231212900E+01 -0.23992394704E+02  0.66461613677E+02  0.70915937914E+02  0.10566000000E+00 0.  1.
         13    1    4    4    0    0  0.42108738323E+01  0.13642168340E+02  0.34093619743E+03  0.34123502472E+03  0.10566000000E+00 0. -1.
        -13    1    4    4    0    0  0.78277031689E+00  0.32840634169E+01  0.85079280904E+02  0.85146303531E+02  0.10566000000E+00 0. -1.
        -14    1    4    4    0    0  0.10294771408E+01  0.70661629469E+01  0.15851009537E+03  0.15867085686E+03  0.00000000000E+00 0.  1.
<mgrwt>
<rscale>  0 0.80683705E+02</rscale>
<asrwt>0</asrwt>
<pdfrwt beam="1">  1        2 0.10053507E+00 0.80683705E+02</pdfrwt>
<pdfrwt beam="2">  1       -1 0.38314871E-03 0.80683705E+02</pdfrwt>
<totfact> 0.32181358E+05</totfact>
</mgrwt>
</event>
<event>
 8    1  0.2603554E-020  0.7982775E+02  0.7818608E-02  0.1329541E+00
          2   -1    0    0  501    0  0.00000000000E+00  0.00000000000E+00  0.64002585505E+02  0.64002585556E+02  0.25500000000E-02 0. -1.
         -1   -1    0    0    0  501 -0.00000000000E+00 -0.00000000000E+00 -0.24891454820E+02  0.24891455331E+02  0.50400000000E-02 0.  1.
         24    2    1    2    0    0  0.00000000000E+00 -0.17763568394E-14  0.39111130685E+02  0.88894040887E+02  0.79827751827E+02 0.  0.
         66    2    3    3    0    0  0.19498582752E+02 -0.89820564427E+01  0.57005076464E+02  0.60946294522E+02  0.20000015206E+01 0.  0.
        -13    1    3    3    0    0 -0.19498582752E+02  0.89820564427E+01 -0.17893945779E+02  0.27947746365E+02  0.10566000000E+00 0.  1.
         13    1    4    4    0    0  0.93915185063E+01 -0.40804765854E+01  0.24764503231E+02  0.26798184516E+02  0.10566000000E+00 0. -1.
        -13    1    4    4    0    0  0.61355717707E+01 -0.33287633165E+01  0.20173549487E+02  0.21347345716E+02  0.10566000000E+00 0.  1.
        -14    1    4    4    0    0  0.39714924754E+01 -0.15728165409E+01  0.12067023746E+02  0.12800764291E+02  0.00000000000E+00 0.  1.
<mgrwt>
<rscale>  0 0.79827752E+02</rscale>
<asrwt>0</asrwt>
<pdfrwt beam="1">  1        2 0.98465516E-02 0.79827752E+02</pdfrwt>
<pdfrwt beam="2">  1       -1 0.38294547E-02 0.79827752E+02</pdfrwt>
<totfact> 0.15895528E+05</totfact>
</mgrwt>
</event>
<event>
 8    1  0.2603554E-020  0.8397558E+02  0.7818608E-02  0.1318133E+00
         -1   -1    0    0    0  501 -0.00000000000E+00  0.00000000000E+00  0.90421055066E+01  0.90421069112E+01  0.50400000000E-02 0.  1.
          2   -1    0    0  501    0  0.00000000000E+00 -0.00000000000E+00 -0.19497386008E+03  0.19497386009E+03  0.25500000000E-02 0. -1.
         24    2    1    2    0    0 -0.35527136788E-14  0.35527136788E-14 -0.18593175457E+03  0.20401596700E+03  0.83975576421E+02 0.  0.
         66    2    3    3    0    0 -0.19890948048E+02  0.30820717849E+02 -0.14253450367E+03  0.14719256502E+03  0.19999997046E+01 0.  0.
        -13    1    3    3    0    0  0.19890948048E+02 -0.30820717849E+02 -0.43397250900E+02  0.56823401981E+02  0.10566000000E+00 0.  1.
         13    1    4    4    0    0 -0.11999704807E+02  0.18739013037E+02 -0.87091297987E+02  0.89889092075E+02  0.10566000000E+00 0. -1.
        -13    1    4    4    0    0 -0.20125735821E+01  0.25936831433E+01 -0.10984050851E+02  0.11464649223E+02  0.10566000000E+00 0.  1.
        -14    1    4    4    0    0 -0.58786696593E+01  0.94880216688E+01 -0.44459154830E+02  0.45838823724E+02  0.00000000000E+00 0.  1.
<mgrwt>
<rscale>  0 0.83975576E+02</rscale>
<asrwt>0</asrwt>
<pdfrwt beam="1">  1        2 0.29995975E-01 0.83975576E+02</pdfrwt>
<pdfrwt beam="2">  1       -1 0.13910934E-02 0.83975576E+02</pdfrwt>
<totfact> 0.19231091E+05</totfact>
</mgrwt>
</event>
<event>
 8    1  0.2603554E-020  0.8020065E+02  0.7818608E-02  0.1328483E+00
          2   -1    0    0  501    0  0.00000000000E+00  0.00000000000E+00  0.59959848115E+03  0.59959848115E+03  0.25500000000E-02 0. -1.
         -1   -1    0    0    0  501 -0.00000000000E+00 -0.00000000000E+00 -0.26818525103E+01  0.26818572461E+01  0.50400000000E-02 0.  1.
         24    2    1    2    0    0  0.00000000000E+00  0.00000000000E+00  0.59691662864E+03  0.60228033840E+03  0.80200651359E+02 0.  0.
         66    2    3    3    0    0 -0.34884090696E+02  0.17820284539E+02  0.36217396965E+03  0.36429170540E+03  0.20000014541E+01 0.  0.
        -13    1    3    3    0    0  0.34884090696E+02 -0.17820284539E+02  0.23474265899E+03  0.23798863300E+03  0.10566000000E+00 0.  1.
         13    1    4    4    0    0 -0.19486946392E+02  0.10145239334E+02  0.20514058466E+03  0.20631368738E+03  0.10566000000E+00 0. -1.
        -13    1    4    4    0    0 -0.12129666206E+02  0.64049473924E+01  0.12134165832E+03  0.12211454198E+03  0.10566000000E+00 0.  1.
         14    1    4    4    0    0 -0.32674780986E+01  0.12700978123E+01  0.35691726660E+02  0.35863476039E+02  0.00000000000E+00 0. -1.
<mgrwt>
<rscale>  0 0.80200651E+02</rscale>
<asrwt>0</asrwt>
<pdfrwt beam="1">  1        2 0.92245758E-01 0.80200651E+02</pdfrwt>
<pdfrwt beam="2">  1       -1 0.41259379E-03 0.80200651E+02</pdfrwt>
<totfact> 0.31948556E+05</totfact>
</mgrwt>
</event>
<event>
 8    1  0.2603554E-020  0.8052930E+02  0.7818608E-02  0.1327556E+00
         -1   -1    0    0    0  501 -0.00000000000E+00  0.00000000000E+00  0.25769021820E+02  0.25769022313E+02  0.50400000000E-02 0.  1.
          2   -1    0    0  501    0  0.00000000000E+00 -0.00000000000E+00 -0.62914383972E+02  0.62914384024E+02  0.25500000000E-02 0. -1.
         24    2    1    2    0    0  0.17763568394E-14  0.00000000000E+00 -0.37145362152E+02  0.88683406337E+02  0.80529302929E+02 0.  0.
         66    2    3    3    0    0 -0.11575868322E+02 -0.36644814122E+02 -0.31725284739E+02  0.49873207515E+02  0.20000016404E+01 0.  0.
        -13    1    3    3    0    0  0.11575868322E+02  0.36644814122E+02 -0.54200774131E+01  0.38810198823E+02  0.10566000000E+00 0.  1.
         13    1    4    4    0    0 -0.46536865216E+01 -0.14696147617E+02 -0.11860691902E+02  0.19450468618E+02  0.10566000000E+00 0. -1.
        -13    1    4    4    0    0 -0.41139865157E+00 -0.21563889405E+01 -0.16560485191E+01  0.27518944105E+01  0.10566000000E+00 0.  1.
         14    1    4    4    0    0 -0.65107831492E+01 -0.19792277565E+02 -0.18208544318E+02  0.27670844486E+02  0.00000000000E+00 0. -1.
<mgrwt>
<rscale>  0 0.80529303E+02</rscale>
<asrwt>0</asrwt>
<pdfrwt beam="1">  1        2 0.96791360E-02 0.80529303E+02</pdfrwt>
<pdfrwt beam="2">  1       -1 0.39644650E-02 0.80529303E+02</pdfrwt>
<totfact> 0.15459551E+05</totfact>
</mgrwt>
</event>
<event>
 8    1  0.2603554E-020  0.7794005E+02  0.7818608E-02  0.1335001E+00
         -1   -1    0    0    0  501 -0.00000000000E+00  0.00000000000E+00  0.28789183025E+01  0.28789227142E+01  0.50400000000E-02 0.  1.
          2   -1    0    0  501    0  0.00000000000E+00 -0.00000000000E+00 -0.52751120802E+03  0.52751120802E+03  0.25500000000E-02 0. -1.
         24    2    1    2    0    0  0.00000000000E+00  0.35527136788E-14 -0.52463228971E+03  0.53039013074E+03  0.77940049862E+02 0.  0.
         66    2    3    3    0    0 -0.70099172934E+01 -0.28144078056E+02 -0.43934645973E+03  0.44030732422E+03  0.20000032688E+01 0.  0.
        -13    1    3    3    0    0  0.70099172934E+01  0.28144078056E+02 -0.85285829980E+02  0.90082806514E+02  0.10566000000E+00 0.  1.
         13    1    4    4    0    0 -0.44008273645E+01 -0.19732532648E+02 -0.31543614785E+03  0.31608339827E+03  0.10566000000E+00 0. -1.
        -13    1    4    4    0    0 -0.22289492344E+01 -0.73520134161E+01 -0.11016549503E+03  0.11043309185E+03  0.10566000000E+00 0.  1.
         14    1    4    4    0    0 -0.38014069454E+00 -0.10595319916E+01 -0.13744816849E+02  0.13790834101E+02  0.00000000000E+00 0. -1.
<mgrwt>
<rscale>  0 0.77940050E+02</rscale>
<asrwt>0</asrwt>
<pdfrwt beam="1">  1        2 0.81155494E-01 0.77940050E+02</pdfrwt>
<pdfrwt beam="2">  1       -1 0.44291127E-03 0.77940050E+02</pdfrwt>
<totfact> 0.33141654E+05</totfact>
</mgrwt>
</event>
<event>
 8    1  0.2603554E-020  0.7890678E+02  0.7818608E-02  0.1332183E+00
          2   -1    0    0  501    0  0.00000000000E+00  0.00000000000E+00  0.12379080494E+02  0.12379080756E+02  0.25500000000E-02 0. -1.
         -1   -1    0    0    0  501 -0.00000000000E+00 -0.00000000000E+00 -0.12574198337E+03  0.12574198347E+03  0.50400000000E-02 0.  1.
         24    2    1    2    0    0  0.35527136788E-14  0.17763568394E-14 -0.11336290288E+03  0.13812106423E+03  0.78906784466E+02 0.  0.
         66    2    3    3    0    0  0.18341588982E+02  0.14169393716E+02 -0.88526276932E+00  0.23280233976E+02  0.19999997910E+01 0.  0.
        -13    1    3    3    0    0 -0.18341588982E+02 -0.14169393716E+02 -0.11247764011E+03  0.11484083025E+03  0.10566000000E+00 0.  1.
         13    1    4    4    0    0  0.25670478081E+01  0.20148789153E+01 -0.55672212546E+00  0.33121858421E+01  0.10566000000E+00 0.  1.
        -13    1    4    4    0    0  0.19198685331E+00  0.18514123378E+00 -0.13755387754E+00  0.31815300268E+00  0.10566000000E+00 0.  1.
         14    1    4    4    0    0  0.15582554321E+02  0.11969373567E+02 -0.19098676632E+00  0.19649895132E+02  0.00000000000E+00 0. -1.
<mgrwt>
<rscale>  0 0.78906784E+02</rscale>
<asrwt>0</asrwt>
<pdfrwt beam="1">  1        2 0.19044740E-02 0.78906784E+02</pdfrwt>
<pdfrwt beam="2">  1       -1 0.19344920E-01 0.78906784E+02</pdfrwt>
<totfact> 0.11658171E+05</totfact>
</mgrwt>
</event>
<event>
 8    1  0.2603554E-020  0.8238233E+02  0.7818608E-02  0.1322424E+00
         -1   -1    0    0    0  501 -0.00000000000E+00  0.00000000000E+00  0.13456924881E+01  0.13457019262E+01  0.50400000000E-02 0.  1.
          2   -1    0    0  501    0  0.00000000000E+00 -0.00000000000E+00 -0.12608422629E+04  0.12608422629E+04  0.25500000000E-02 0. -1.
         24    2    1    2    0    0 -0.35527136788E-14  0.00000000000E+00 -0.12594965704E+04  0.12621879648E+04  0.82382326254E+02 0.  0.
         66    2    3    3    0    0 -0.25484883329E+02 -0.15098752421E+01 -0.11249088417E+04  0.11252002760E+04  0.20000037239E+01 0.  0.
        -13    1    3    3    0    0  0.25484883329E+02  0.15098752421E+01 -0.13458772866E+03  0.13698768876E+03  0.10566000000E+00 0.  1.
         13    1    4    4    0    0 -0.82767954911E+01 -0.19943224947E+00 -0.35349395671E+03  0.35359091293E+03  0.10566000000E+00 0. -1.
        -13    1    4    4    0    0 -0.10763587925E+02 -0.15357115468E+01 -0.47946819035E+03  0.47959146152E+03  0.10566000000E+00 0.  1.
        -14    1    4    4    0    0 -0.64444999137E+01  0.22526855415E+00 -0.29194669465E+03  0.29201790158E+03  0.00000000000E+00 0.  1.
<mgrwt>
<rscale>  0 0.82382326E+02</rscale>
<asrwt>0</asrwt>
<pdfrwt beam="1">  1        2 0.19397479E+00 0.82382326E+02</pdfrwt>
<pdfrwt beam="2">  1       -1 0.20703135E-03 0.82382326E+02</pdfrwt>
<totfact> 0.32247599E+05</totfact>
</mgrwt>
</event>
<event>
 8    1  0.2603554E-020  0.8039477E+02  0.7818608E-02  0.1327935E+00
          2   -1    0    0  501    0  0.00000000000E+00  0.00000000000E+00  0.42042780511E+03  0.42042780512E+03  0.25500000000E-02 0. -1.
         -1   -1    0    0    0  501 -0.00000000000E+00 -0.00000000000E+00 -0.38432971757E+01  0.38433004804E+01  0.50400000000E-02 0.  1.
         24    2    1    2    0    0  0.35527136788E-14  0.00000000000E+00  0.41658450794E+03  0.42427110560E+03  0.80394768453E+02 0.  0.
         66    2    3    3    0    0 -0.28587196109E+02  0.40557329920E+01  0.35582306796E+03  0.35699822471E+03  0.20000002439E+01 0.  0.
        -13    1    3    3    0    0  0.28587196109E+02 -0.40557329920E+01  0.60761439978E+02  0.67272880894E+02  0.10566000000E+00 0.  1.
         13    1    4    4    0    0 -0.11606848128E+02  0.14050171651E+01  0.14784550070E+03  0.14830710110E+03  0.10566000000E+00 0. -1.
        -13    1    4    4    0    0 -0.46640237829E+01  0.35083334621E+00  0.50800480488E+02  0.51015450441E+02  0.10566000000E+00 0.  1.
         14    1    4    4    0    0 -0.12316324198E+02  0.22998824807E+01  0.15717708678E+03  0.15767567317E+03  0.00000000000E+00 0. -1.
<mgrwt>
<rscale>  0 0.80394768E+02</rscale>
<asrwt>0</asrwt>
<pdfrwt beam="1">  1        2 0.64681250E-01 0.80394768E+02</pdfrwt>
<pdfrwt beam="2">  1       -1 0.59127630E-03 0.80394768E+02</pdfrwt>
<totfact> 0.28379022E+05</totfact>
</mgrwt>
</event>
<event>
 8    1  0.2603554E-020  0.8004229E+02  0.7818608E-02  0.1328931E+00
          2   -1    0    0  501    0  0.00000000000E+00  0.00000000000E+00  0.85554886061E+02  0.85554886099E+02  0.25500000000E-02 0. -1.
         -1   -1    0    0    0  501 -0.00000000000E+00 -0.00000000000E+00 -0.18721223315E+02  0.18721223994E+02  0.50400000000E-02 0.  1.
         24    2    1    2    0    0  0.00000000000E+00  0.00000000000E+00  0.66833662745E+02  0.10427611009E+03  0.80042292946E+02 0.  0.
         66    2    3    3    0    0 -0.20146901581E+02 -0.48063282023E+01  0.78012090052E+02  0.80739610030E+02  0.19999998572E+01 0.  0.
        -13    1    3    3    0    0  0.20146901581E+02  0.48063282023E+01 -0.11178427307E+02  0.23536500062E+02  0.10566000000E+00 0.  1.
         13    1    4    4    0    0 -0.16508290586E+02 -0.38414836548E+01  0.63215458875E+02  0.65448346500E+02  0.10566000000E+00 0. -1.
        -13    1    4    4    0    0 -0.28602638582E+01 -0.45647622007E+00  0.10330009935E+02  0.10728921156E+02  0.10566000000E+00 0.  1.
         14    1    4    4    0    0 -0.77834713704E+00 -0.50836832744E+00  0.44666212416E+01  0.45623423740E+01  0.00000000000E+00 0. -1.
<mgrwt>
<rscale>  0 0.80042293E+02</rscale>
<asrwt>0</asrwt>
<pdfrwt beam="1">  1        2 0.13162290E-01 0.80042293E+02</pdfrwt>
<pdfrwt beam="2">  1       -1 0.28801882E-02 0.80042293E+02</pdfrwt>
<totfact> 0.16965803E+05</totfact>
</mgrwt>
</event>
<event>
 8    1  0.2603554E-020  0.8993384E+02  0.7818608E-02  0.1303012E+00
         -1   -1    0    0    0  501 -0.00000000000E+00  0.00000000000E+00  0.29885582416E+01  0.29885624914E+01  0.50400000000E-02 0.  1.
          2   -1    0    0  501    0  0.00000000000E+00 -0.00000000000E+00 -0.67658790710E+03  0.67658790710E+03  0.25500000000E-02 0. -1.
         24    2    1    2    0    0 -0.44408920985E-15 -0.35527136788E-14 -0.67359934885E+03  0.67957646959E+03  0.89933838160E+02 0.  0.
         66    2    3    3    0    0 -0.14748696926E+01 -0.28838626750E+02 -0.59721531483E+03  0.59791636029E+03  0.20000002032E+01 0.  0.
        -13    1    3    3    0    0  0.14748696926E+01  0.28838626750E+02 -0.76384034024E+02  0.81660109302E+02  0.10566000000E+00 0.  1.
         13    1    4    4    0    0 -0.78313173832E+00 -0.17398278930E+02 -0.34624306359E+03  0.34668080947E+03  0.10566000000E+00 0. -1.
        -13    1    4    4    0    0 -0.33217328985E+00 -0.29598777741E+01 -0.57483020807E+02  0.57560229852E+02  0.10566000000E+00 0.  1.
        -14    1    4    4    0    0 -0.35956466445E+00 -0.84804700458E+01 -0.19348923043E+03  0.19367532097E+03  0.00000000000E+00 0.  1.
<mgrwt>
<rscale>  0 0.89933838E+02</rscale>
<asrwt>0</asrwt>
<pdfrwt beam="1">  1        2 0.10409033E+00 0.89933838E+02</pdfrwt>
<pdfrwt beam="2">  1       -1 0.45977906E-03 0.89933838E+02</pdfrwt>
<totfact> 0.24435323E+05</totfact>
</mgrwt>
</event>
<event>
 8    1  0.2603554E-020  0.7617754E+02  0.7818608E-02  0.1340263E+00
          2   -1    0    0  501    0  0.00000000000E+00  0.00000000000E+00  0.85891402185E+02  0.85891402223E+02  0.25500000000E-02 0. -1.
         -1   -1    0    0    0  501 -0.00000000000E+00 -0.00000000000E+00 -0.16890564805E+02  0.16890565557E+02  0.50400000000E-02 0.  1.
         24    2    1    2    0    0  0.00000000000E+00  0.00000000000E+00  0.69000837380E+02  0.10278196778E+03  0.76177538300E+02 0.  0.
         66    2    3    3    0    0  0.11152935446E+02  0.19164634044E+02  0.76265217080E+02  0.79448439466E+02  0.20000075674E+01 0.  0.
        -13    1    3    3    0    0 -0.11152935446E+02 -0.19164634044E+02 -0.72643796999E+01  0.23333528313E+02  0.10566000000E+00 0.  1.
         13    1    4    4    0    0  0.31009090592E+01  0.44442709623E+01  0.17950227207E+02  0.18750706712E+02  0.10566000000E+00 0. -1.
        -13    1    4    4    0    0  0.17774686577E+01  0.40819133975E+01  0.13775178633E+02  0.14477158637E+02  0.10566000000E+00 0.  1.
         14    1    4    4    0    0  0.62745577292E+01  0.10638449684E+02  0.44539811240E+02  0.46220574117E+02  0.00000000000E+00 0. -1.
<mgrwt>
<rscale>  0 0.76177538E+02</rscale>
<asrwt>0</asrwt>
<pdfrwt beam="1">  1        2 0.13214062E-01 0.76177538E+02</pdfrwt>
<pdfrwt beam="2">  1       -1 0.25985485E-02 0.76177538E+02</pdfrwt>
<totfact> 0.19393944E+05</totfact>
</mgrwt>
</event>
<event>
 8    1  0.2603554E-020  0.7826866E+02  0.7818608E-02  0.1334038E+00
          2   -1    0    0  501    0  0.00000000000E+00  0.00000000000E+00  0.16242740470E+03  0.16242740472E+03  0.25500000000E-02 0. -1.
         -1   -1    0    0    0  501 -0.00000000000E+00 -0.00000000000E+00 -0.94288000632E+01  0.94288014102E+01  0.50400000000E-02 0.  1.
         24    2    1    2    0    0  0.88817841970E-15  0.00000000000E+00  0.15299860463E+03  0.17185620613E+03  0.78268656335E+02 0.  0.
         66    2    3    3    0    0 -0.61761144017E+01 -0.36182434329E+02  0.10618548421E+03  0.11236845654E+03  0.20000063022E+01 0.  0.
        -13    1    3    3    0    0  0.61761144017E+01  0.36182434329E+02  0.46813120421E+02  0.59487749584E+02  0.10566000000E+00 0.  1.
         13    1    4    4    0    0 -0.31449273104E+01 -0.14887646140E+02  0.45107645603E+02  0.47605077788E+02  0.10566000000E+00 0. -1.
        -13    1    4    4    0    0 -0.20150654708E+01 -0.12344698573E+02  0.34131247861E+02  0.36351139134E+02  0.10566000000E+00 0.  1.
        -14    1    4    4    0    0 -0.10161216206E+01 -0.89500896158E+01  0.26946590749E+02  0.28412239620E+02  0.00000000000E+00 0.  1.
<mgrwt>
<rscale>  0 0.78268656E+02</rscale>
<asrwt>0</asrwt>
<pdfrwt beam="1">  1        2 0.24988832E-01 0.78268656E+02</pdfrwt>
<pdfrwt beam="2">  1       -1 0.14505847E-02 0.78268656E+02</pdfrwt>
<totfact> 0.21781659E+05</totfact>
</mgrwt>
</event>
<event>
 8    1  0.2603554E-020  0.8085634E+02  0.7818608E-02  0.1326639E+00
          2   -1    0    0  501    0  0.00000000000E+00  0.00000000000E+00  0.20858563161E+03  0.20858563162E+03  0.25500000000E-02 0. -1.
         -1   -1    0    0    0  501 -0.00000000000E+00 -0.00000000000E+00 -0.78358070272E+01  0.78358086481E+01  0.50400000000E-02 0.  1.
         24    2    1    2    0    0  0.00000000000E+00 -0.35527136788E-14  0.20074982458E+03  0.21642144027E+03  0.80856340135E+02 0.  0.
         66    2    3    3    0    0  0.26548362603E+02  0.22755867115E+02  0.15461942786E+03  0.15853647063E+03  0.20000004849E+01 0.  0.
        -13    1    3    3    0    0 -0.26548362603E+02 -0.22755867115E+02  0.46130396717E+02  0.57884969642E+02  0.10566000000E+00 0.  1.
         13    1    4    4    0    0  0.81300782241E+01  0.79143627974E+01  0.49538322750E+02  0.50821175659E+02  0.10566000000E+00 0. -1.
        -13    1    4    4    0    0  0.37950376398E+01  0.33479225874E+01  0.20969366549E+02  0.21571657188E+02  0.10566000000E+00 0.  1.
        -14    1    4    4    0    0  0.14623246739E+02  0.11493581730E+02  0.84111738563E+02  0.86143637782E+02  0.00000000000E+00 0.  1.
<mgrwt>
<rscale>  0 0.80856340E+02</rscale>
<asrwt>0</asrwt>
<pdfrwt beam="1">  1        2 0.32090099E-01 0.80856340E+02</pdfrwt>
<pdfrwt beam="2">  1       -1 0.12055088E-02 0.80856340E+02</pdfrwt>
<totfact> 0.21764144E+05</totfact>
</mgrwt>
</event>
<event>
 8    1  0.2603554E-020  0.7883784E+02  0.7818608E-02  0.1332382E+00
          2   -1    0    0  501    0  0.00000000000E+00  0.00000000000E+00  0.75974265199E+03  0.75974265199E+03  0.25500000000E-02 0. -1.
         -1   -1    0    0    0  501 -0.00000000000E+00 -0.00000000000E+00 -0.20452307316E+01  0.20452369415E+01  0.50400000000E-02 0.  1.
         24    2    1    2    0    0 -0.35527136788E-14 -0.35527136788E-14  0.75769742126E+03  0.76178788893E+03  0.78837843372E+02 0.  0.
         66    2    3    3    0    0 -0.26208504162E+02 -0.23795192755E+02  0.54610587565E+03  0.54725562977E+03  0.19999998088E+01 0.  0.
        -13    1    3    3    0    0  0.26208504162E+02  0.23795192755E+02  0.21159154560E+03  0.21453225917E+03  0.10566000000E+00 0.  1.
         13    1    4    4    0    0 -0.15561441500E+02 -0.14512445990E+02  0.33128110134E+03  0.33196377637E+03  0.10566000000E+00 0. -1.
        -13    1    4    4    0    0 -0.20616232624E+01 -0.17709525000E+01  0.48653105326E+02  0.48729071252E+02  0.10566000000E+00 0.  1.
        -14    1    4    4    0    0 -0.85854393999E+01 -0.75117942653E+01  0.16617166899E+03  0.16656278215E+03  0.00000000000E+00 0.  1.
<mgrwt>
<rscale>  0 0.78837843E+02</rscale>
<asrwt>0</asrwt>
<pdfrwt beam="1">  1        2 0.11688357E+00 0.78837843E+02</pdfrwt>
<pdfrwt beam="2">  1       -1 0.31465113E-03 0.78837843E+02</pdfrwt>
<totfact> 0.35358250E+05</totfact>
</mgrwt>
</event>
<event>
 8    1  0.2603554E-020  0.8056328E+02  0.7818608E-02  0.1327460E+00
         -1   -1    0    0    0  501 -0.00000000000E+00  0.00000000000E+00  0.20048653696E+01  0.20048717046E+01  0.50400000000E-02 0.  1.
          2   -1    0    0  501    0  0.00000000000E+00 -0.00000000000E+00 -0.80933507774E+03  0.80933507774E+03  0.25500000000E-02 0. -1.
         24    2    1    2    0    0  0.88817841970E-15  0.00000000000E+00 -0.80733021237E+03  0.81133994945E+03  0.80563278019E+02 0.  0.
         66    2    3    3    0    0 -0.66005945884E+01 -0.15759857884E+02 -0.77100390029E+03  0.77119579567E+03  0.20000053588E+01 0.  0.
        -13    1    3    3    0    0  0.66005945884E+01  0.15759857884E+02 -0.36326312074E+02  0.40144153776E+02  0.10566000000E+00 0.  1.
         13    1    4    4    0    0 -0.52706085393E+00 -0.89242607713E+00 -0.51120052491E+02  0.51130667394E+02  0.10566000000E+00 0. -1.
        -13    1    4    4    0    0 -0.23756181870E+00 -0.21270969294E+01 -0.94100343905E+02  0.94124740978E+02  0.10566000000E+00 0.  1.
         14    1    4    4    0    0 -0.58359719158E+01 -0.12740334878E+02 -0.62578350390E+03  0.62594038730E+03  0.00000000000E+00 0. -1.
<mgrwt>
<rscale>  0 0.80563278E+02</rscale>
<asrwt>0</asrwt>
<pdfrwt beam="1">  1        2 0.12451283E+00 0.80563278E+02</pdfrwt>
<pdfrwt beam="2">  1       -1 0.30844196E-03 0.80563278E+02</pdfrwt>
<totfact> 0.33811262E+05</totfact>
</mgrwt>
</event>
<event>
 8    1  0.2603554E-020  0.7980333E+02  0.7818608E-02  0.1329610E+00
          2   -1    0    0  501    0  0.00000000000E+00  0.00000000000E+00  0.10544347278E+03  0.10544347281E+03  0.25500000000E-02 0. -1.
         -1   -1    0    0    0  501 -0.00000000000E+00 -0.00000000000E+00 -0.15099491287E+02  0.15099492128E+02  0.50400000000E-02 0.  1.
         24    2    1    2    0    0  0.00000000000E+00 -0.35527136788E-14  0.90343981488E+02  0.12054296493E+03  0.79803329529E+02 0.  0.
         66    2    3    3    0    0 -0.30512304449E+01  0.23161556738E+02  0.94014698341E+02  0.96894433394E+02  0.20000001811E+01 0.  0.
        -13    1    3    3    0    0  0.30512304449E+01 -0.23161556738E+02 -0.36707168531E+01  0.23648531540E+02  0.10566000000E+00 0.  1.
         13    1    4    4    0    0 -0.81407171123E+00  0.59564121292E+01  0.21166419927E+02  0.22003864541E+02  0.10566000000E+00 0. -1.
        -13    1    4    4    0    0 -0.40449942894E+00  0.18394851420E+01  0.71831330983E+01  0.74267011868E+01  0.10566000000E+00 0. -1.
         14    1    4    4    0    0 -0.18326593047E+01  0.15365659467E+02  0.65665145317E+02  0.67463867666E+02  0.00000000000E+00 0. -1.
<mgrwt>
<rscale>  0 0.79803330E+02</rscale>
<asrwt>0</asrwt>
<pdfrwt beam="1">  1        2 0.16222073E-01 0.79803330E+02</pdfrwt>
<pdfrwt beam="2">  1       -1 0.23229987E-02 0.79803330E+02</pdfrwt>
<totfact> 0.18112301E+05</totfact>
</mgrwt>
</event>
<event>
 8    1  0.2603554E-020  0.8028431E+02  0.7818608E-02  0.1328247E+00
          2   -1    0    0  501    0  0.00000000000E+00  0.00000000000E+00  0.13441983132E+03  0.13441983135E+03  0.25500000000E-02 0. -1.
         -1   -1    0    0    0  501 -0.00000000000E+00 -0.00000000000E+00 -0.11987759214E+02  0.11987760273E+02  0.50400000000E-02 0.  1.
         24    2    1    2    0    0 -0.35527136788E-14  0.35527136788E-14  0.12243207211E+03  0.14640759162E+03  0.80284311065E+02 0.  0.
         66    2    3    3    0    0 -0.28090155990E+02 -0.19321655685E+02  0.22698198299E+02  0.41007212156E+02  0.20000002168E+01 0.  0.
        -13    1    3    3    0    0  0.28090155990E+02  0.19321655685E+02  0.99733873811E+02  0.10540037947E+03  0.10566000000E+00 0.  1.
         13    1    4    4    0    0 -0.16592752040E+02 -0.10980967748E+02  0.13594435598E+02  0.24098151717E+02  0.10566000000E+00 0. -1.
        -13    1    4    4    0    0 -0.32443071785E+01 -0.29665145889E+01  0.29748036184E+01  0.53090826400E+01  0.10566000000E+00 0.  1.
        -14    1    4    4    0    0 -0.82530967722E+01 -0.53741733480E+01  0.61289590828E+01  0.11599977799E+02  0.00000000000E+00 0.  1.
<mgrwt>
<rscale>  0 0.80284311E+02</rscale>
<asrwt>0</asrwt>
<pdfrwt beam="1">  1        2 0.20679976E-01 0.80284311E+02</pdfrwt>
<pdfrwt beam="2">  1       -1 0.18442705E-02 0.80284311E+02</pdfrwt>
<totfact> 0.19164151E+05</totfact>
</mgrwt>
</event>
<event>
 8    1  0.2603554E-020  0.8047758E+02  0.7818608E-02  0.1327702E+00
         -1   -1    0    0    0  501 -0.00000000000E+00  0.00000000000E+00  0.30245760671E+02  0.30245761091E+02  0.50400000000E-02 0.  1.
          2   -1    0    0  501    0  0.00000000000E+00 -0.00000000000E+00 -0.53533456078E+02  0.53533456138E+02  0.25500000000E-02 0. -1.
         24    2    1    2    0    0  0.17763568394E-14 -0.71054273576E-14 -0.23287695406E+02  0.83779217230E+02  0.80477577512E+02 0.  0.
         66    2    3    3    0    0  0.14552906852E+02 -0.36198952063E+02 -0.21797890908E+02  0.44735883487E+02  0.19999987524E+01 0.  0.
        -13    1    3    3    0    0 -0.14552906852E+02  0.36198952063E+02 -0.14898044980E+01  0.39043333743E+02  0.10566000000E+00 0.  1.
         13    1    4    4    0    0  0.15025855484E+01 -0.32988646767E+01 -0.15225079659E+01  0.39331242069E+01  0.10566000000E+00 0. -1.
        -13    1    4    4    0    0  0.80274890968E+01 -0.20297108116E+02 -0.11933794322E+02  0.24876490710E+02  0.10566000000E+00 0.  1.
         14    1    4    4    0    0  0.50228322067E+01 -0.12602979270E+02 -0.83415886199E+01  0.15926268570E+02  0.00000000000E+00 0. -1.
<mgrwt>
<rscale>  0 0.80477578E+02</rscale>
<asrwt>0</asrwt>
<pdfrwt beam="1">  1        2 0.82359163E-02 0.80477578E+02</pdfrwt>
<pdfrwt beam="2">  1       -1 0.46531940E-02 0.80477578E+02</pdfrwt>
<totfact> 0.14924352E+05</totfact>
</mgrwt>
</event>
<event>
 8    1  0.2603554E-020  0.7817157E+02  0.7818608E-02  0.1334322E+00
         -1   -1    0    0    0  501 -0.00000000000E+00  0.00000000000E+00  0.12418012055E+03  0.12418012065E+03  0.50400000000E-02 0.  1.
          2   -1    0    0  501    0  0.00000000000E+00 -0.00000000000E+00 -0.12302279561E+02  0.12302279826E+02  0.25500000000E-02 0. -1.
         24    2    1    2    0    0  0.00000000000E+00  0.35527136788E-14  0.11187784098E+03  0.13648240047E+03  0.78171569868E+02 0.  0.
         66    2    3    3    0    0  0.19732015658E+02  0.18339257442E+02  0.65925681147E+01  0.27805444992E+02  0.20000028441E+01 0.  0.
        -13    1    3    3    0    0 -0.19732015658E+02 -0.18339257442E+02  0.10528527287E+03  0.10867695548E+03  0.10566000000E+00 0.  1.
         13    1    4    4    0    0  0.64174959828E+01  0.50530641772E+01  0.20588785683E+01  0.84242422367E+01  0.10566000000E+00 0. -1.
        -13    1    4    4    0    0  0.18792125744E+01  0.22879914347E+01  0.99657933929E+00  0.31258085547E+01  0.10566000000E+00 0.  1.
         14    1    4    4    0    0  0.11435307101E+02  0.10998201831E+02  0.35371102071E+01  0.16255394200E+02  0.00000000000E+00 0. -1.
<mgrwt>
<rscale>  0 0.78171570E+02</rscale>
<asrwt>0</asrwt>
<pdfrwt beam="1">  1        2 0.18926584E-02 0.78171570E+02</pdfrwt>
<pdfrwt beam="2">  1       -1 0.19104634E-01 0.78171570E+02</pdfrwt>
<totfact> 0.11970284E+05</totfact>
</mgrwt>
</event>
<event>
 8    1  0.2603554E-020  0.8145734E+02  0.7818608E-02  0.1324966E+00
          2   -1    0    0  501    0  0.00000000000E+00  0.00000000000E+00  0.66662644674E+03  0.66662644675E+03  0.25500000000E-02 0. -1.
         -1   -1    0    0    0  501 -0.00000000000E+00 -0.00000000000E+00 -0.24883844549E+01  0.24883895589E+01  0.50400000000E-02 0.  1.
         24    2    1    2    0    0  0.11102230246E-15  0.00000000000E+00  0.66413806229E+03  0.66911483631E+03  0.81457340898E+02 0.  0.
         66    2    3    3    0    0 -0.64089082486E+00 -0.32247019855E+02  0.53623126564E+03  0.53720410580E+03  0.20000013500E+01 0.  0.
        -13    1    3    3    0    0  0.64089082486E+00  0.32247019855E+02  0.12790679664E+03  0.13191073050E+03  0.10566000000E+00 0.  1.
         13    1    4    4    0    0 -0.31716823172E-01 -0.32614750046E+01  0.48773820849E+02  0.48882870102E+02  0.10566000000E+00 0. -1.
        -13    1    4    4    0    0 -0.73269667076E+00 -0.22958599810E+02  0.37628106678E+03  0.37698154667E+03  0.10566000000E+00 0.  1.
        -14    1    4    4    0    0  0.12352266907E+00 -0.60269450412E+01  0.11117637801E+03  0.11133968903E+03  0.00000000000E+00 0.  1.
<mgrwt>
<rscale>  0 0.81457341E+02</rscale>
<asrwt>0</asrwt>
<pdfrwt beam="1">  1        2 0.10255785E+00 0.81457341E+02</pdfrwt>
<pdfrwt beam="2">  1       -1 0.38282903E-03 0.81457341E+02</pdfrwt>
<totfact> 0.31548044E+05</totfact>
</mgrwt>
</event>
<event>
 8    1  0.2603554E-020  0.8152890E+02  0.7818608E-02  0.1324768E+00
          2   -1    0    0  501    0  0.00000000000E+00  0.00000000000E+00  0.76137617219E+03  0.76137617219E+03  0.25500000000E-02 0. -1.
         -1   -1    0    0    0  501 -0.00000000000E+00 -0.00000000000E+00 -0.21825456002E+01  0.21825514195E+01  0.50400000000E-02 0.  1.
         24    2    1    2    0    0  0.35527136788E-14  0.00000000000E+00  0.75919362659E+03  0.76355872361E+03  0.81528901331E+02 0.  0.
         66    2    3    3    0    0  0.16339259298E+02  0.14238452292E+02  0.70290448400E+03  0.70324136579E+03  0.20000009252E+01 0.  0.
        -13    1    3    3    0    0 -0.16339259298E+02 -0.14238452292E+02  0.56289142585E+02  0.60317357826E+02  0.10566000000E+00 0.  1.
         13    1    4    4    0    0  0.11803987847E+02  0.10341106759E+02  0.50580491536E+03  0.50604831408E+03  0.10566000000E+00 0. -1.
        -13    1    4    4    0    0  0.19464946923E+01  0.10711914537E+01  0.79030200056E+02  0.79061494912E+02  0.10566000000E+00 0.  1.
        -14    1    4    4    0    0  0.25887767579E+01  0.28261540790E+01  0.11806936859E+03  0.11813155680E+03  0.00000000000E+00 0.  1.
<mgrwt>
<rscale>  0 0.81528901E+02</rscale>
<asrwt>0</asrwt>
<pdfrwt beam="1">  1        2 0.11713466E+00 0.81528901E+02</pdfrwt>
<pdfrwt beam="2">  1       -1 0.33577710E-03 0.81528901E+02</pdfrwt>
<totfact> 0.32418209E+05</totfact>
</mgrwt>
</event>
<event>
 8    1  0.2603554E-020  0.7905921E+02  0.7818608E-02  0.1331743E+00
         -1   -1    0    0    0  501 -0.00000000000E+00  0.00000000000E+00  0.95304705268E+00  0.95306037911E+00  0.50400000000E-02 0.  1.
          2   -1    0    0  501    0  0.00000000000E+00 -0.00000000000E+00 -0.16395608243E+04  0.16395608243E+04  0.25500000000E-02 0. -1.
         24    2    1    2    0    0  0.00000000000E+00  0.00000000000E+00 -0.16386077772E+04  0.16405138847E+04  0.79059206776E+02 0.  0.
         66    2    3    3    0    0 -0.81878502093E+01 -0.18692638288E+02 -0.15217101171E+04  0.15218482631E+04  0.20000016630E+01 0.  0.
        -13    1    3    3    0    0  0.81878502093E+01  0.18692638288E+02 -0.11689766019E+03  0.11866562156E+03  0.10566000000E+00 0.  1.
         13    1    4    4    0    0 -0.29626134448E+01 -0.74736586086E+01 -0.60904434257E+03  0.60909741014E+03  0.10566000000E+00 0. -1.
        -13    1    4    4    0    0 -0.21392032972E+01 -0.39859021861E+01 -0.28717319219E+03  0.28720883879E+03  0.10566000000E+00 0.  1.
        -14    1    4    4    0    0 -0.30860334674E+01 -0.72330774934E+01 -0.62549258229E+03  0.62554201419E+03  0.00000000000E+00 0.  1.
<mgrwt>
<rscale>  0 0.79059207E+02</rscale>
<asrwt>0</asrwt>
<pdfrwt beam="1">  1        2 0.25223787E+00 0.79059207E+02</pdfrwt>
<pdfrwt beam="2">  1       -1 0.14662496E-03 0.79059207E+02</pdfrwt>
<totfact> 0.32960846E+05</totfact>
</mgrwt>
</event>
<event>
 8    1  0.2603554E-020  0.7908333E+02  0.7818608E-02  0.1331673E+00
         -1   -1    0    0    0  501 -0.00000000000E+00  0.00000000000E+00  0.88216458716E+00  0.88217898436E+00  0.50400000000E-02 0.  1.
          2   -1    0    0  501    0  0.00000000000E+00 -0.00000000000E+00 -0.17723795476E+04  0.17723795476E+04  0.25500000000E-02 0. -1.
         24    2    1    2    0    0  0.00000000000E+00  0.00000000000E+00 -0.17714973830E+04  0.17732617266E+04  0.79083329180E+02 0.  0.
         66    2    3    3    0    0 -0.33644046714E+01 -0.14932224570E+02 -0.17032042043E+04  0.17032741565E+04  0.19999920251E+01 0.  0.
        -13    1    3    3    0    0  0.33644046714E+01  0.14932224570E+02 -0.68293178685E+02  0.69987570099E+02  0.10566000000E+00 0.  1.
         13    1    4    4    0    0 -0.13204677638E+01 -0.92350910320E+01 -0.10451435669E+04  0.10451852071E+04  0.10566000000E+00 0. -1.
        -13    1    4    4    0    0 -0.42362182398E+00 -0.67641200321E+00 -0.10864467579E+03  0.10864765865E+03  0.10566000000E+00 0. -1.
         14    1    4    4    0    0 -0.16203150835E+01 -0.50207215351E+01 -0.54941596164E+03  0.54944129074E+03  0.00000000000E+00 0. -1.
<mgrwt>
<rscale>  0 0.79083329E+02</rscale>
<asrwt>0</asrwt>
<pdfrwt beam="1">  1        2 0.27267093E+00 0.79083329E+02</pdfrwt>
<pdfrwt beam="2">  1       -1 0.13572016E-03 0.79083329E+02</pdfrwt>
<totfact> 0.31465450E+05</totfact>
</mgrwt>
</event>
<event>
 8    1  0.2603554E-020  0.8348481E+02  0.7818608E-02  0.1319443E+00
         -1   -1    0    0    0  501 -0.00000000000E+00  0.00000000000E+00  0.25632728284E+02  0.25632728779E+02  0.50400000000E-02 0.  1.
          2   -1    0    0  501    0  0.00000000000E+00 -0.00000000000E+00 -0.67976697233E+02  0.67976697281E+02  0.25500000000E-02 0. -1.
         24    2    1    2    0    0 -0.17763568394E-14  0.00000000000E+00 -0.42343968949E+02  0.93609426060E+02  0.83484806648E+02 0.  0.
         66    2    3    3    0    0  0.15371547123E+02 -0.38381884195E+02 -0.27424046658E+02  0.49654122165E+02  0.20000044005E+01 0.  0.
        -13    1    3    3    0    0 -0.15371547123E+02  0.38381884195E+02 -0.14919922291E+02  0.43955303895E+02  0.10566000000E+00 0.  1.
         13    1    4    4    0    0  0.11374875747E+02 -0.30066600381E+02 -0.21731671488E+02  0.38802898944E+02  0.10566000000E+00 0. -1.
        -13    1    4    4    0    0  0.22353748971E+01 -0.51431969813E+01 -0.33763976384E+01  0.65468008346E+01  0.10566000000E+00 0. -1.
         14    1    4    4    0    0  0.17612964787E+01 -0.31720868322E+01 -0.23159775316E+01  0.43044223867E+01  0.00000000000E+00 0. -1.
<mgrwt>
<rscale>  0 0.83484807E+02</rscale>
<asrwt>0</asrwt>
<pdfrwt beam="1">  1        2 0.10457953E-01 0.83484807E+02</pdfrwt>
<pdfrwt beam="2">  1       -1 0.39434967E-02 0.83484807E+02</pdfrwt>
<totfact> 0.14278177E+05</totfact>
</mgrwt>
</event>
<event>
 8    1  0.2603554E-020  0.8027780E+02  0.7818608E-02  0.1328265E+00
          2   -1    0    0  501    0  0.00000000000E+00  0.00000000000E+00  0.13707057797E+03  0.13707057799E+03  0.25500000000E-02 0. -1.
         -1   -1    0    0    0  501 -0.00000000000E+00 -0.00000000000E+00 -0.11754027505E+02  0.11754028586E+02  0.50400000000E-02 0.  1.
         24    2    1    2    0    0  0.00000000000E+00 -0.88817841970E-15  0.12531655047E+03  0.14882460658E+03  0.80277803303E+02 0.  0.
         66    2    3    3    0    0  0.92554921646E+01  0.60639061194E+01  0.13417790178E+03  0.13464822468E+03  0.19999982157E+01 0.  0.
        -13    1    3    3    0    0 -0.92554921646E+01 -0.60639061194E+01 -0.88613513094E+01  0.14176381897E+02  0.10566000000E+00 0.  1.
         13    1    4    4    0    0  0.28501876147E+01  0.13494694750E+01  0.34052634208E+02  0.34198504321E+02  0.10566000000E+00 0. -1.
        -13    1    4    4    0    0  0.53027781112E+01  0.43709814070E+01  0.81877303746E+02  0.82165254012E+02  0.10566000000E+00 0.  1.
         14    1    4    4    0    0  0.11025264388E+01  0.34345523742E+00  0.18247963822E+02  0.18284466350E+02  0.00000000000E+00 0. -1.
<mgrwt>
<rscale>  0 0.80277803E+02</rscale>
<asrwt>0</asrwt>
<pdfrwt beam="1">  1        2 0.21087781E-01 0.80277803E+02</pdfrwt>
<pdfrwt beam="2">  1       -1 0.18083120E-02 0.80277803E+02</pdfrwt>
<totfact> 0.19285673E+05</totfact>
</mgrwt>
</event>
<event>
 8    1  0.2603554E-020  0.8070717E+02  0.7818608E-02  0.1327056E+00
          2   -1    0    0  501    0  0.00000000000E+00  0.00000000000E+00  0.14588849819E+03  0.14588849822E+03  0.25500000000E-02 0. -1.
         -1   -1    0    0    0  501 -0.00000000000E+00 -0.00000000000E+00 -0.11162029045E+02  0.11162030183E+02  0.50400000000E-02 0.  1.
         24    2    1    2    0    0  0.00000000000E+00  0.00000000000E+00  0.13472646915E+03  0.15705052840E+03  0.80707168091E+02 0.  0.
         66    2    3    3    0    0  0.34986487466E+02 -0.38362581247E+01  0.10571686509E+03  0.11143978983E+03  0.20000025287E+01 0.  0.
        -13    1    3    3    0    0 -0.34986487466E+02  0.38362581247E+01  0.29009604055E+02  0.45610738572E+02  0.10566000000E+00 0.  1.
         13    1    4    4    0    0  0.14880737309E+02 -0.11534747106E+01  0.43448561894E+02  0.45940782987E+02  0.10566000000E+00 0. -1.
        -13    1    4    4    0    0  0.41509310255E+01 -0.77310794637E+00  0.14313785827E+02  0.14923925522E+02  0.10566000000E+00 0.  1.
        -14    1    4    4    0    0  0.15954819132E+02 -0.19096754677E+01  0.47954517372E+02  0.50575081318E+02  0.00000000000E+00 0.  1.
<mgrwt>
<rscale>  0 0.80707168E+02</rscale>
<asrwt>0</asrwt>
<pdfrwt beam="1">  1        2 0.22444383E-01 0.80707168E+02</pdfrwt>
<pdfrwt beam="2">  1       -1 0.17172354E-02 0.80707168E+02</pdfrwt>
<totfact> 0.19393466E+05</totfact>
</mgrwt>
</event>
<event>
 8    1  0.2603554E-020  0.7815999E+02  0.7818608E-02  0.1334356E+00
         -1   -1    0    0    0  501 -0.00000000000E+00  0.00000000000E+00  0.42988204640E+02  0.42988204935E+02  0.50400000000E-02 0.  1.
          2   -1    0    0  501    0  0.00000000000E+00 -0.00000000000E+00 -0.35527091795E+02  0.35527091887E+02  0.25500000000E-02 0. -1.
         24    2    1    2    0    0  0.88817841970E-15  0.35527136788E-14  0.74611128446E+01  0.78515296822E+02  0.78159987399E+02 0.  0.
         66    2    3    3    0    0  0.74341917162E+01  0.31756366371E+02 -0.17847379699E+02  0.37232552601E+02  0.19999998854E+01 0.  0.
        -13    1    3    3    0    0 -0.74341917162E+01 -0.31756366371E+02  0.25308492543E+02  0.41282744221E+02  0.10566000000E+00 0.  1.
         13    1    4    4    0    0  0.33569632655E+01  0.15636638535E+02 -0.82047940891E+01  0.17975079336E+02  0.10566000000E+00 0. -1.
        -13    1    4    4    0    0  0.83696270337E+00  0.18378123614E+01 -0.12776179108E+01  0.23919724924E+01  0.10566000000E+00 0.  1.
        -14    1    4    4    0    0  0.32402657474E+01  0.14281915474E+02 -0.83649676986E+01  0.16865500773E+02  0.00000000000E+00 0.  1.
<mgrwt>
<rscale>  0 0.78159987E+02</rscale>
<asrwt>0</asrwt>
<pdfrwt beam="1">  1        2 0.54657064E-02 0.78159987E+02</pdfrwt>
<pdfrwt beam="2">  1       -1 0.66135700E-02 0.78159987E+02</pdfrwt>
<totfact> 0.14843727E+05</totfact>
</mgrwt>
</event>
<event>
 8    1  0.2603554E-020  0.7871125E+02  0.7818608E-02  0.1332749E+00
          2   -1    0    0  501    0  0.00000000000E+00  0.00000000000E+00  0.53272361381E+03  0.53272361381E+03  0.25500000000E-02 0. -1.
         -1   -1    0    0    0  501 -0.00000000000E+00 -0.00000000000E+00 -0.29074435830E+01  0.29074479513E+01  0.50400000000E-02 0.  1.
         24    2    1    2    0    0  0.35527136788E-14 -0.17763568394E-14  0.52981617023E+03  0.53563106177E+03  0.78711245042E+02 0.  0.
         66    2    3    3    0    0  0.25361238898E+02 -0.12360963054E+02  0.45155018872E+03  0.45243514317E+03  0.19999989155E+01 0.  0.
        -13    1    3    3    0    0 -0.25361238898E+02  0.12360963054E+02  0.78265981505E+02  0.83195918596E+02  0.10566000000E+00 0.  1.
         13    1    4    4    0    0  0.53379756097E+01 -0.26329777956E+01  0.88236167691E+02  0.88436751459E+02  0.10566000000E+00 0. -1.
        -13    1    4    4    0    0  0.69982964584E+00 -0.15661804466E+00  0.14992158095E+02  0.15009672186E+02  0.10566000000E+00 0.  1.
         14    1    4    4    0    0  0.19323433642E+02 -0.95713672137E+01  0.34832186293E+03  0.34898871953E+03  0.00000000000E+00 0. -1.
<mgrwt>
<rscale>  0 0.78711245E+02</rscale>
<asrwt>0</asrwt>
<pdfrwt beam="1">  1        2 0.81957487E-01 0.78711245E+02</pdfrwt>
<pdfrwt beam="2">  1       -1 0.44729931E-03 0.78711245E+02</pdfrwt>
<totfact> 0.32401816E+05</totfact>
</mgrwt>
</event>
<event>
 8    1  0.2603554E-020  0.7975731E+02  0.7818608E-02  0.1329742E+00
          2   -1    0    0  501    0  0.00000000000E+00  0.00000000000E+00  0.12520156717E+03  0.12520156720E+03  0.25500000000E-02 0. -1.
         -1   -1    0    0    0  501 -0.00000000000E+00 -0.00000000000E+00 -0.12701975156E+02  0.12701976156E+02  0.50400000000E-02 0.  1.
         24    2    1    2    0    0  0.00000000000E+00  0.00000000000E+00  0.11249959201E+03  0.13790354335E+03  0.79757313558E+02 0.  0.
         66    2    3    3    0    0  0.61087719019E+00  0.32821696256E+02  0.95357740685E+02  0.10086989450E+03  0.19999981589E+01 0.  0.
        -13    1    3    3    0    0 -0.61087719019E+00 -0.32821696256E+02  0.17141851329E+02  0.37033648849E+02  0.10566000000E+00 0.  1.
         13    1    4    4    0    0  0.10901353015E+01  0.26754520605E+02  0.76460374035E+02  0.81013534236E+02  0.10566000000E+00 0. -1.
        -13    1    4    4    0    0 -0.50153775901E+00  0.56669755395E+01  0.17846160581E+02  0.18731331063E+02  0.10566000000E+00 0.  1.
        -14    1    4    4    0    0  0.22279647723E-01  0.40020011138E+00  0.10512060694E+01  0.11250292050E+01  0.00000000000E+00 0.  1.
<mgrwt>
<rscale>  0 0.79757314E+02</rscale>
<asrwt>0</asrwt>
<pdfrwt beam="1">  1        2 0.19261780E-01 0.79757314E+02</pdfrwt>
<pdfrwt beam="2">  1       -1 0.19541500E-02 0.79757314E+02</pdfrwt>
<totfact> 0.19081143E+05</totfact>
</mgrwt>
</event>
<event>
 8    1  0.2603554E-020  0.7652236E+02  0.7818608E-02  0.1339221E+00
         -1   -1    0    0    0  501 -0.00000000000E+00  0.00000000000E+00  0.10688846061E+01  0.10688964883E+01  0.50400000000E-02 0.  1.
          2   -1    0    0  501    0  0.00000000000E+00 -0.00000000000E+00 -0.13695677432E+04  0.13695677432E+04  0.25500000000E-02 0. -1.
         24    2    1    2    0    0  0.44408920985E-15  0.00000000000E+00 -0.13684988586E+04  0.13706366397E+04  0.76522363332E+02 0.  0.
         66    2    3    3    0    0  0.21670430804E+01  0.14782650937E+02 -0.13151142604E+04  0.13152006466E+04  0.19999997456E+01 0.  0.
        -13    1    3    3    0    0 -0.21670430804E+01 -0.14782650937E+02 -0.53384598206E+02  0.55435993128E+02  0.10566000000E+00 0.  1.
         13    1    4    4    0    0  0.83928610541E+00  0.80373528902E+01 -0.72825686746E+03  0.72830170919E+03  0.10566000000E+00 0. -1.
        -13    1    4    4    0    0  0.14867124793E+01  0.65747406240E+01 -0.57178361069E+03  0.57182335222E+03  0.10566000000E+00 0.  1.
        -14    1    4    4    0    0 -0.15895550428E+00  0.17055742251E+00 -0.15073782275E+02  0.15075585188E+02  0.00000000000E+00 0.  1.
<mgrwt>
<rscale>  0 0.76522363E+02</rscale>
<asrwt>0</asrwt>
<pdfrwt beam="1">  1        2 0.21070133E+00 0.76522363E+02</pdfrwt>
<pdfrwt beam="2">  1       -1 0.16444580E-03 0.76522363E+02</pdfrwt>
<totfact> 0.38392083E+05</totfact>
</mgrwt>
</event>
<event>
 8    1  0.2603554E-020  0.7729380E+02  0.7818608E-02  0.1336911E+00
         -1   -1    0    0    0  501 -0.00000000000E+00  0.00000000000E+00  0.66868647926E+01  0.66868666920E+01  0.50400000000E-02 0.  1.
          2   -1    0    0  501    0  0.00000000000E+00 -0.00000000000E+00 -0.22336068434E+03  0.22336068435E+03  0.25500000000E-02 0. -1.
         24    2    1    2    0    0  0.44408920985E-15  0.71054273576E-14 -0.21667381954E+03  0.23004755104E+03  0.77293800949E+02 0.  0.
         66    2    3    3    0    0 -0.34575465140E+01 -0.29503010116E+02 -0.18186932073E+03  0.18429007586E+03  0.20000004538E+01 0.  0.
        -13    1    3    3    0    0  0.34575465140E+01  0.29503010116E+02 -0.34804498810E+02  0.45757475185E+02  0.10566000000E+00 0.  1.
         13    1    4    4    0    0 -0.21425463173E+01 -0.17366402044E+02 -0.10953112474E+03  0.11092006525E+03  0.10566000000E+00 0. -1.
        -13    1    4    4    0    0 -0.78417321961E+00 -0.57574700065E+01 -0.31174046090E+02  0.31711128996E+02  0.10566000000E+00 0.  1.
        -14    1    4    4    0    0 -0.53082697706E+00 -0.63791380663E+01 -0.41164149902E+02  0.41658881609E+02  0.00000000000E+00 0.  1.
<mgrwt>
<rscale>  0 0.77293801E+02</rscale>
<asrwt>0</asrwt>
<pdfrwt beam="1">  1        2 0.34363177E-01 0.77293801E+02</pdfrwt>
<pdfrwt beam="2">  1       -1 0.10287487E-02 0.77293801E+02</pdfrwt>
<totfact> 0.25100996E+05</totfact>
</mgrwt>
</event>
<event>
 8    1  0.2603554E-020  0.8014531E+02  0.7818608E-02  0.1328640E+00
         -1   -1    0    0    0  501 -0.00000000000E+00  0.00000000000E+00  0.11052562446E+02  0.11052563595E+02  0.50400000000E-02 0.  1.
          2   -1    0    0  501    0  0.00000000000E+00 -0.00000000000E+00 -0.14528918141E+03  0.14528918144E+03  0.25500000000E-02 0. -1.
         24    2    1    2    0    0  0.44408920985E-15  0.00000000000E+00 -0.13423661897E+03  0.15634174503E+03  0.80145314071E+02 0.  0.
         66    2    3    3    0    0  0.26823470852E+01  0.30233869998E+02 -0.11812334468E+03  0.12197707345E+03  0.20000016082E+01 0.  0.
        -13    1    3    3    0    0 -0.26823470852E+01 -0.30233869998E+02 -0.16113274283E+02  0.34364671584E+02  0.10566000000E+00 0.  1.
         13    1    4    4    0    0  0.10620817213E+01  0.10643613422E+02 -0.42512674921E+02  0.43837805798E+02  0.10566000000E+00 0. -1.
        -13    1    4    4    0    0  0.10314194396E+01  0.89252905869E+01 -0.31770346139E+02  0.33016521560E+02  0.10566000000E+00 0.  1.
        -14    1    4    4    0    0  0.58884592425E+00  0.10664965989E+02 -0.43840323625E+02  0.45122746089E+02  0.00000000000E+00 0.  1.
<mgrwt>
<rscale>  0 0.80145314E+02</rscale>
<asrwt>0</asrwt>
<pdfrwt beam="1">  1        2 0.22352180E-01 0.80145314E+02</pdfrwt>
<pdfrwt beam="2">  1       -1 0.17003944E-02 0.80145314E+02</pdfrwt>
<totfact> 0.19730777E+05</totfact>
</mgrwt>
</event>
<event>
 8    1  0.2603554E-020  0.8387797E+02  0.7818608E-02  0.1318393E+00
         -1   -1    0    0    0  501 -0.00000000000E+00  0.00000000000E+00  0.46301391704E+01  0.46301419135E+01  0.50400000000E-02 0.  1.
          2   -1    0    0  501    0  0.00000000000E+00 -0.00000000000E+00 -0.37987582464E+03  0.37987582464E+03  0.25500000000E-02 0. -1.
         24    2    1    2    0    0  0.00000000000E+00  0.88817841970E-15 -0.37524568547E+03  0.38450596656E+03  0.83877970041E+02 0.  0.
         66    2    3    3    0    0 -0.37518587928E+02  0.72088350001E+01 -0.26676516269E+03  0.26949445962E+03  0.19999998240E+01 0.  0.
        -13    1    3    3    0    0  0.37518587928E+02 -0.72088350001E+01 -0.10848052278E+03  0.11501150694E+03  0.10566000000E+00 0.  1.
         13    1    4    4    0    0 -0.15776247882E+02  0.34068669763E+01 -0.11689072351E+03  0.11799978452E+03  0.10566000000E+00 0. -1.
        -13    1    4    4    0    0 -0.19726981095E+02  0.37484217807E+01 -0.13578698293E+03  0.13726368910E+03  0.10566000000E+00 0.  1.
        -14    1    4    4    0    0 -0.20153589506E+01  0.53546243073E-01 -0.14087456252E+02  0.14230986001E+02  0.00000000000E+00 0.  1.
<mgrwt>
<rscale>  0 0.83877970E+02</rscale>
<asrwt>0</asrwt>
<pdfrwt beam="1">  1        2 0.58442410E-01 0.83877970E+02</pdfrwt>
<pdfrwt beam="2">  1       -1 0.71232962E-03 0.83877970E+02</pdfrwt>
<totfact> 0.24508997E+05</totfact>
</mgrwt>
</event>
<event>
 8    1  0.2603554E-020  0.8165398E+02  0.7818608E-02  0.1324422E+00
          2   -1    0    0  501    0  0.00000000000E+00  0.00000000000E+00  0.33119701516E+03  0.33119701517E+03  0.25500000000E-02 0. -1.
         -1   -1    0    0    0  501 -0.00000000000E+00 -0.00000000000E+00 -0.50327833124E+01  0.50327858360E+01  0.50400000000E-02 0.  1.
         24    2    1    2    0    0  0.88817841970E-15  0.35527136788E-14  0.32616423184E+03  0.33622980100E+03  0.81653983048E+02 0.  0.
         66    2    3    3    0    0  0.57934673400E+01 -0.26670332611E+02  0.28807467690E+03  0.28937154383E+03  0.20000005457E+01 0.  0.
        -13    1    3    3    0    0 -0.57934673400E+01  0.26670332611E+02  0.38089554946E+02  0.46858257174E+02  0.10566000000E+00 0.  1.
         13    1    4    4    0    0 -0.90833070445E-01 -0.49368405825E+00  0.44770305885E+01  0.45063223944E+01  0.10566000000E+00 0.  1.
        -13    1    4    4    0    0  0.15326295107E+01 -0.74155739900E+01  0.76383702476E+02  0.76758197339E+02  0.10566000000E+00 0. -1.
         14    1    4    4    0    0  0.43516708998E+01 -0.18761074562E+02  0.20721394383E+03  0.20810702409E+03  0.00000000000E+00 0. -1.
<mgrwt>
<rscale>  0 0.81653983E+02</rscale>
<asrwt>0</asrwt>
<pdfrwt beam="1">  1        2 0.50953374E-01 0.81653983E+02</pdfrwt>
<pdfrwt beam="2">  1       -1 0.77427476E-03 0.81653983E+02</pdfrwt>
<totfact> 0.25041702E+05</totfact>
</mgrwt>
</event>
<event>
 8    1  0.2603554E-020  0.7846749E+02  0.7818608E-02  0.1333458E+00
         -1   -1    0    0    0  501 -0.00000000000E+00  0.00000000000E+00  0.55628873370E+02  0.55628873598E+02  0.50400000000E-02 0.  1.
          2   -1    0    0  501    0  0.00000000000E+00 -0.00000000000E+00 -0.27670642528E+02  0.27670642646E+02  0.25500000000E-02 0. -1.
         24    2    1    2    0    0  0.00000000000E+00  0.00000000000E+00  0.27958230841E+02  0.83299516244E+02  0.78467488393E+02 0.  0.
         66    2    3    3    0    0  0.21085094064E+02  0.28313054554E+02 -0.41232509561E+01  0.35597913669E+02  0.20000023317E+01 0.  0.
        -13    1    3    3    0    0 -0.21085094064E+02 -0.28313054554E+02  0.32081481797E+02  0.47701602575E+02  0.10566000000E+00 0.  1.
         13    1    4    4    0    0  0.37111967462E+01  0.52188904001E+01 -0.34540624578E+00  0.64140679609E+01  0.10566000000E+00 0. -1.
        -13    1    4    4    0    0  0.14851866784E+01  0.14529940349E+01 -0.47435189842E+00  0.21338099480E+01  0.10566000000E+00 0.  1.
         14    1    4    4    0    0  0.15888710639E+02  0.21641170119E+02 -0.33034928119E+01  0.27050035760E+02  0.00000000000E+00 0. -1.
<mgrwt>
<rscale>  0 0.78467488E+02</rscale>
<asrwt>0</asrwt>
<pdfrwt beam="1">  1        2 0.42570219E-02 0.78467488E+02</pdfrwt>
<pdfrwt beam="2">  1       -1 0.85582883E-02 0.78467488E+02</pdfrwt>
<totfact> 0.13982409E+05</totfact>
</mgrwt>
</event>
<event>
 8    1  0.2603554E-020  0.7971469E+02  0.7818608E-02  0.1329863E+00
          2   -1    0    0  501    0  0.00000000000E+00  0.00000000000E+00  0.25436181259E+03  0.25436181260E+03  0.25500000000E-02 0. -1.
         -1   -1    0    0    0  501 -0.00000000000E+00 -0.00000000000E+00 -0.62454642488E+01  0.62454662824E+01  0.50400000000E-02 0.  1.
         24    2    1    2    0    0  0.35527136788E-14  0.35527136788E-14  0.24811634834E+03  0.26060727888E+03  0.79714688068E+02 0.  0.
         66    2    3    3    0    0 -0.26798518769E+02 -0.21700195694E+02  0.18932000134E+03  0.19244511426E+03  0.19999986273E+01 0.  0.
        -13    1    3    3    0    0  0.26798518769E+02  0.21700195694E+02  0.58796346998E+02  0.68162164620E+02  0.10566000000E+00 0.  1.
         13    1    4    4    0    0 -0.16495741203E+02 -0.12788477811E+02  0.11328385979E+03  0.11519070577E+03  0.10566000000E+00 0. -1.
        -13    1    4    4    0    0 -0.47138392582E+01 -0.43740720492E+01  0.38649156519E+02  0.39180623407E+02  0.10566000000E+00 0.  1.
        -14    1    4    4    0    0 -0.55889383073E+01 -0.45376458340E+01  0.37386985037E+02  0.38073785092E+02  0.00000000000E+00 0.  1.
<mgrwt>
<rscale>  0 0.79714688E+02</rscale>
<asrwt>0</asrwt>
<pdfrwt beam="1">  1        2 0.39132586E-01 0.79714688E+02</pdfrwt>
<pdfrwt beam="2">  1       -1 0.96084082E-03 0.79714688E+02</pdfrwt>
<totfact> 0.24243360E+05</totfact>
</mgrwt>
</event>
<event>
 8    1  0.2603554E-020  0.8016324E+02  0.7818608E-02  0.1328589E+00
          2   -1    0    0  501    0  0.00000000000E+00  0.00000000000E+00  0.63573689103E+02  0.63573689154E+02  0.25500000000E-02 0. -1.
         -1   -1    0    0    0  501 -0.00000000000E+00 -0.00000000000E+00 -0.25270456374E+02  0.25270456877E+02  0.50400000000E-02 0.  1.
         24    2    1    2    0    0  0.00000000000E+00  0.00000000000E+00  0.38303232729E+02  0.88844146031E+02  0.80163237501E+02 0.  0.
         66    2    3    3    0    0  0.20184618071E+02 -0.34019574460E+02  0.12173279934E+02  0.41435962663E+02  0.20000010846E+01 0.  0.
        -13    1    3    3    0    0 -0.20184618071E+02  0.34019574460E+02  0.26129952795E+02  0.47408183368E+02  0.10566000000E+00 0.  1.
         13    1    4    4    0    0  0.12930766960E+02 -0.20695276945E+02  0.75276204131E+01  0.25537726115E+02  0.10566000000E+00 0. -1.
        -13    1    4    4    0    0  0.23760974960E+01 -0.53750574084E+01  0.17684246258E+01  0.61380429411E+01  0.10566000000E+00 0.  1.
        -14    1    4    4    0    0  0.48777536154E+01 -0.79492401074E+01  0.28772348948E+01  0.97601936076E+01  0.00000000000E+00 0.  1.
<mgrwt>
<rscale>  0 0.80163238E+02</rscale>
<asrwt>0</asrwt>
<pdfrwt beam="1">  1        2 0.97805676E-02 0.80163238E+02</pdfrwt>
<pdfrwt beam="2">  1       -1 0.38877625E-02 0.80163238E+02</pdfrwt>
<totfact> 0.15690644E+05</totfact>
</mgrwt>
</event>
<event>
 8    1  0.2603554E-020  0.7995353E+02  0.7818608E-02  0.1329183E+00
          2   -1    0    0  501    0  0.00000000000E+00  0.00000000000E+00  0.26143399142E+03  0.26143399143E+03  0.25500000000E-02 0. -1.
         -1   -1    0    0    0  501 -0.00000000000E+00 -0.00000000000E+00 -0.61129832791E+01  0.61129853568E+01  0.50400000000E-02 0.  1.
         24    2    1    2    0    0 -0.44408920985E-15  0.00000000000E+00  0.25532100814E+03  0.26754697679E+03  0.79953533949E+02 0.  0.
         66    2    3    3    0    0 -0.35969099019E+01  0.35704399921E+02  0.18650479721E+03  0.18993625597E+03  0.20000040962E+01 0.  0.
        -13    1    3    3    0    0  0.35969099019E+01 -0.35704399921E+02  0.68816210928E+02  0.77610720813E+02  0.10566000000E+00 0.  1.
         13    1    4    4    0    0 -0.83166337438E+00  0.13773868190E+02  0.71222149937E+02  0.72546653366E+02  0.10566000000E+00 0. -1.
        -13    1    4    4    0    0 -0.14916055110E+01  0.75817262195E+01  0.38747002711E+02  0.39510110638E+02  0.10566000000E+00 0.  1.
        -14    1    4    4    0    0 -0.12736410165E+01  0.14348805512E+02  0.76535644561E+02  0.77879491969E+02  0.00000000000E+00 0.  1.
<mgrwt>
<rscale>  0 0.79953534E+02</rscale>
<asrwt>0</asrwt>
<pdfrwt beam="1">  1        2 0.40220615E-01 0.79953534E+02</pdfrwt>
<pdfrwt beam="2">  1       -1 0.94045911E-03 0.79953534E+02</pdfrwt>
<totfact> 0.24292450E+05</totfact>
</mgrwt>
</event>
<event>
 8    1  0.2603554E-020  0.7979736E+02  0.7818608E-02  0.1329627E+00
          2   -1    0    0  501    0  0.00000000000E+00  0.00000000000E+00  0.12907137314E+03  0.12907137317E+03  0.25500000000E-02 0. -1.
         -1   -1    0    0    0  501 -0.00000000000E+00 -0.00000000000E+00 -0.12333520380E+02  0.12333521410E+02  0.50400000000E-02 0.  1.
         24    2    1    2    0    0  0.00000000000E+00  0.00000000000E+00  0.11673785276E+03  0.14140489458E+03  0.79797355487E+02 0.  0.
         66    2    3    3    0    0 -0.21838586423E+02 -0.15759040608E+02  0.11051184219E+03  0.11376351998E+03  0.19999992874E+01 0.  0.
        -13    1    3    3    0    0  0.21838586423E+02  0.15759040608E+02  0.62260105758E+01  0.27641374596E+02  0.10566000000E+00 0.  1.
         13    1    4    4    0    0 -0.13938526333E+02 -0.96752181825E+01  0.67776449979E+02  0.69868095000E+02  0.10566000000E+00 0. -1.
        -13    1    4    4    0    0 -0.50099187838E+00 -0.21910739288E+00  0.17438475126E+01  0.18306198663E+01  0.10566000000E+00 0.  1.
         14    1    4    4    0    0 -0.73990682115E+01 -0.58647150324E+01  0.40991544696E+02  0.42064805115E+02  0.00000000000E+00 0. -1.
<mgrwt>
<rscale>  0 0.79797355E+02</rscale>
<asrwt>0</asrwt>
<pdfrwt beam="1">  1        2 0.19857134E-01 0.79797355E+02</pdfrwt>
<pdfrwt beam="2">  1       -1 0.18974648E-02 0.79797355E+02</pdfrwt>
<totfact> 0.19233752E+05</totfact>
</mgrwt>
</event>
<event>
 8    1  0.2603554E-020  0.8382318E+02  0.7818608E-02  0.1318539E+00
          2   -1    0    0  501    0  0.00000000000E+00  0.00000000000E+00  0.15991206199E+03  0.15991206201E+03  0.25500000000E-02 0. -1.
         -1   -1    0    0    0  501 -0.00000000000E+00 -0.00000000000E+00 -0.10984670299E+02  0.10984671455E+02  0.50400000000E-02 0.  1.
         24    2    1    2    0    0  0.88817841970E-15  0.00000000000E+00  0.14892739169E+03  0.17089673347E+03  0.83823180048E+02 0.  0.
         66    2    3    3    0    0 -0.54049052433E+01  0.27323021321E+02  0.13829119931E+03  0.14108230328E+03  0.19999996040E+01 0.  0.
        -13    1    3    3    0    0  0.54049052433E+01 -0.27323021321E+02  0.10636192385E+02  0.29814430186E+02  0.10566000000E+00 0.  1.
         13    1    4    4    0    0 -0.80239302470E+00  0.43123232364E+01  0.20155162397E+02  0.20627207798E+02  0.10566000000E+00 0. -1.
        -13    1    4    4    0    0 -0.24681372500E+01  0.83746403942E+01  0.44092524902E+02  0.44948728786E+02  0.10566000000E+00 0.  1.
        -14    1    4    4    0    0 -0.21343749687E+01  0.14636057691E+02  0.74043512009E+02  0.75506366698E+02  0.00000000000E+00 0.  1.
<mgrwt>
<rscale>  0 0.83823180E+02</rscale>
<asrwt>0</asrwt>
<pdfrwt beam="1">  1        2 0.24601855E-01 0.83823180E+02</pdfrwt>
<pdfrwt beam="2">  1       -1 0.16899494E-02 0.83823180E+02</pdfrwt>
<totfact> 0.18065755E+05</totfact>
</mgrwt>
</event>
<event>
 8    1  0.2603554E-020  0.8034072E+02  0.7818608E-02  0.1328087E+00
          2   -1    0    0  501    0  0.00000000000E+00  0.00000000000E+00  0.48328924586E+03  0.48328924587E+03  0.25500000000E-02 0. -1.
         -1   -1    0    0    0  501 -0.00000000000E+00 -0.00000000000E+00 -0.33389053754E+01  0.33389091793E+01  0.50400000000E-02 0.  1.
         24    2    1    2    0    0 -0.35527136788E-14  0.00000000000E+00  0.47995034049E+03  0.48662815505E+03  0.80340724121E+02 0.  0.
         66    2    3    3    0    0 -0.31351551608E+02  0.19116661632E+02  0.33840587466E+03  0.34039815296E+03  0.19999987253E+01 0.  0.
        -13    1    3    3    0    0  0.31351551608E+02 -0.19116661632E+02  0.14154446583E+03  0.14623000209E+03  0.10566000000E+00 0.  1.
         13    1    4    4    0    0 -0.15708306263E+02  0.93804077786E+01  0.17185182299E+03  0.17282304003E+03  0.10566000000E+00 0. -1.
        -13    1    4    4    0    0 -0.76854836004E+01  0.49466042863E+01  0.88280979074E+02  0.88752904079E+02  0.10566000000E+00 0.  1.
         14    1    4    4    0    0 -0.79577617446E+01  0.47896495674E+01  0.78273072591E+02  0.78822208849E+02  0.00000000000E+00 0. -1.
<mgrwt>
<rscale>  0 0.80340724E+02</rscale>
<asrwt>0</asrwt>
<pdfrwt beam="1">  1        2 0.74352165E-01 0.80340724E+02</pdfrwt>
<pdfrwt beam="2">  1       -1 0.51367823E-03 0.80340724E+02</pdfrwt>
<totfact> 0.29788226E+05</totfact>
</mgrwt>
</event>
<event>
 8    1  0.2603554E-020  0.7661963E+02  0.7818608E-02  0.1338928E+00
          2   -1    0    0  501    0  0.00000000000E+00  0.00000000000E+00  0.24505997293E+03  0.24505997294E+03  0.25500000000E-02 0. -1.
         -1   -1    0    0    0  501 -0.00000000000E+00 -0.00000000000E+00 -0.59889082347E+01  0.59889103554E+01  0.50400000000E-02 0.  1.
         24    2    1    2    0    0 -0.17763568394E-14  0.00000000000E+00  0.23907106470E+03  0.25104888330E+03  0.76619630846E+02 0.  0.
         66    2    3    3    0    0 -0.10317883763E+02 -0.81556830367E+00  0.24038427743E+03  0.24061530440E+03  0.19999997861E+01 0.  0.
        -13    1    3    3    0    0  0.10317883763E+02  0.81556830367E+00 -0.13132127305E+01  0.10433578902E+02  0.10566000000E+00 0.  1.
         13    1    4    4    0    0 -0.45647303291E+01 -0.11130090280E+01  0.98253235960E+02  0.98365568634E+02  0.10566000000E+00 0. -1.
        -13    1    4    4    0    0 -0.99617788763E+00  0.25866428226E+00  0.21367246545E+02  0.21392280536E+02  0.10566000000E+00 0. -1.
        -14    1    4    4    0    0 -0.47569755461E+01  0.38776442094E-01  0.12076379492E+03  0.12085745523E+03  0.00000000000E+00 0.  1.
<mgrwt>
<rscale>  0 0.76619631E+02</rscale>
<asrwt>0</asrwt>
<pdfrwt beam="1">  1        2 0.37701527E-01 0.76619631E+02</pdfrwt>
<pdfrwt beam="2">  1       -1 0.92137084E-03 0.76619631E+02</pdfrwt>
<totfact> 0.26541165E+05</totfact>
</mgrwt>
</event>
<event>
 8    1  0.2603554E-020  0.8079890E+02  0.7818608E-02  0.1326799E+00
          2   -1    0    0  501    0  0.00000000000E+00  0.00000000000E+00  0.34793705915E+03  0.34793705916E+03  0.25500000000E-02 0. -1.
         -1   -1    0    0    0  501 -0.00000000000E+00 -0.00000000000E+00 -0.46908346862E+01  0.46908373938E+01  0.50400000000E-02 0.  1.
         24    2    1    2    0    0  0.00000000000E+00  0.00000000000E+00  0.34324622447E+03  0.35262789656E+03  0.80798903575E+02 0.  0.
         66    2    3    3    0    0 -0.12248296632E+02 -0.16672829075E+02  0.32304322739E+03  0.32371118418E+03  0.20000001398E+01 0.  0.
        -13    1    3    3    0    0  0.12248296632E+02  0.16672829075E+02  0.20202997077E+02  0.28916712377E+02  0.10566000000E+00 0.  1.
         13    1    4    4    0    0 -0.67965080931E+01 -0.10038200388E+02  0.18109046565E+03  0.18149580134E+03  0.10566000000E+00 0. -1.
        -13    1    4    4    0    0 -0.39298839820E+01 -0.51581707279E+01  0.11205098926E+03  0.11223852312E+03  0.10566000000E+00 0.  1.
        -14    1    4    4    0    0 -0.15219045572E+01 -0.14764579592E+01  0.29901772483E+02  0.29976859729E+02  0.00000000000E+00 0.  1.
<mgrwt>
<rscale>  0 0.80798904E+02</rscale>
<asrwt>0</asrwt>
<pdfrwt beam="1">  1        2 0.53528787E-01 0.80798904E+02</pdfrwt>
<pdfrwt beam="2">  1       -1 0.72166697E-03 0.80798904E+02</pdfrwt>
<totfact> 0.26202169E+05</totfact>
</mgrwt>
</event>
<event>
 8    1  0.2603554E-020  0.7911379E+02  0.7818608E-02  0.1331585E+00
         -1   -1    0    0    0  501 -0.00000000000E+00  0.00000000000E+00  0.22732923679E+01  0.22732979549E+01  0.50400000000E-02 0.  1.
          2   -1    0    0  501    0  0.00000000000E+00 -0.00000000000E+00 -0.68831715691E+03  0.68831715692E+03  0.25500000000E-02 0. -1.
         24    2    1    2    0    0  0.00000000000E+00  0.00000000000E+00 -0.68604386454E+03  0.69059045487E+03  0.79113793242E+02 0.  0.
         66    2    3    3    0    0 -0.11670733354E+02 -0.20524715973E+02 -0.62000505163E+03  0.62045768109E+03  0.19999993435E+01 0.  0.
        -13    1    3    3    0    0  0.11670733354E+02  0.20524715973E+02 -0.66038812916E+02  0.70132773780E+02  0.10566000000E+00 0.  1.
         13    1    4    4    0    0 -0.54043617262E+01 -0.95146888320E+01 -0.29162383449E+03  0.29182907401E+03  0.10566000000E+00 0. -1.
        -13    1    4    4    0    0 -0.12800654149E+01 -0.13533412170E+01 -0.54060840621E+02  0.54093028687E+02  0.10566000000E+00 0.  1.
        -14    1    4    4    0    0 -0.49863062125E+01 -0.96566859245E+01 -0.27432037651E+03  0.27453557839E+03  0.00000000000E+00 0.  1.
<mgrwt>
<rscale>  0 0.79113793E+02</rscale>
<asrwt>0</asrwt>
<pdfrwt beam="1">  1        2 0.10589478E+00 0.79113793E+02</pdfrwt>
<pdfrwt beam="2">  1       -1 0.34973827E-03 0.79113793E+02</pdfrwt>
<totfact> 0.34299917E+05</totfact>
</mgrwt>
</event>
<event>
 8    1  0.2603554E-020  0.7706422E+02  0.7818608E-02  0.1337595E+00
         -1   -1    0    0    0  501 -0.00000000000E+00  0.00000000000E+00  0.44435402419E+01  0.44435431001E+01  0.50400000000E-02 0.  1.
          2   -1    0    0  501    0  0.00000000000E+00 -0.00000000000E+00 -0.33413066879E+03  0.33413066880E+03  0.25500000000E-02 0. -1.
         24    2    1    2    0    0  0.00000000000E+00  0.00000000000E+00 -0.32968712855E+03  0.33857421190E+03  0.77064221486E+02 0.  0.
         66    2    3    3    0    0 -0.35543355532E+02 -0.86757003968E+01 -0.21769722070E+03  0.22075932098E+03  0.19999992222E+01 0.  0.
        -13    1    3    3    0    0  0.35543355532E+02  0.86757003968E+01 -0.11198990784E+03  0.11781489092E+03  0.10566000000E+00 0.  1.
         13    1    4    4    0    0 -0.15329830812E+02 -0.43865852775E+01 -0.96745482581E+02  0.98050728743E+02  0.10566000000E+00 0. -1.
        -13    1    4    4    0    0 -0.13938542116E+02 -0.33880611780E+01 -0.85214151347E+02  0.86413104728E+02  0.10566000000E+00 0. -1.
         14    1    4    4    0    0 -0.62749826033E+01 -0.90105394119E+00 -0.35737586776E+02  0.36295487508E+02  0.00000000000E+00 0. -1.
<mgrwt>
<rscale>  0 0.77064221E+02</rscale>
<asrwt>0</asrwt>
<pdfrwt beam="1">  1        2 0.51404699E-01 0.77064221E+02</pdfrwt>
<pdfrwt beam="2">  1       -1 0.68362206E-03 0.77064221E+02</pdfrwt>
<totfact> 0.29225693E+05</totfact>
</mgrwt>
</event>
<event>
 8    1  0.2603554E-020  0.7881248E+02  0.7818608E-02  0.1332456E+00
         -1   -1    0    0    0  501 -0.00000000000E+00  0.00000000000E+00  0.55973964366E+02  0.55973964593E+02  0.50400000000E-02 0.  1.
          2   -1    0    0  501    0  0.00000000000E+00 -0.00000000000E+00 -0.27742395647E+02  0.27742395764E+02  0.25500000000E-02 0. -1.
         24    2    1    2    0    0 -0.44408920985E-15 -0.71054273576E-14  0.28231568719E+02  0.83716360357E+02  0.78812483270E+02 0.  0.
         66    2    3    3    0    0  0.19689469516E+01 -0.37973663588E+02  0.32418117781E+01  0.38214986813E+02  0.19999987833E+01 0.  0.
        -13    1    3    3    0    0 -0.19689469516E+01  0.37973663588E+02  0.24989756941E+02  0.45501373544E+02  0.10566000000E+00 0.  1.
         13    1    4    4    0    0 -0.15593148040E+00 -0.85522583723E+00  0.24614799609E+00  0.90965857926E+00  0.10566000000E+00 0.  1.
        -13    1    4    4    0    0  0.17676207208E+01 -0.25823520776E+02  0.20402814645E+01  0.25964449171E+02  0.10566000000E+00 0. -1.
         14    1    4    4    0    0  0.35725771120E+00 -0.11294916975E+02  0.95538231753E+00  0.11340879063E+02  0.00000000000E+00 0. -1.
<mgrwt>
<rscale>  0 0.78812483E+02</rscale>
<asrwt>0</asrwt>
<pdfrwt beam="1">  1        2 0.42680609E-02 0.78812483E+02</pdfrwt>
<pdfrwt beam="2">  1       -1 0.86113792E-02 0.78812483E+02</pdfrwt>
<totfact> 0.13818265E+05</totfact>
</mgrwt>
</event>
<event>
 8    1  0.2603554E-020  0.7891353E+02  0.7818608E-02  0.1332163E+00
          2   -1    0    0  501    0  0.00000000000E+00  0.00000000000E+00  0.67400130259E+02  0.67400130308E+02  0.25500000000E-02 0. -1.
         -1   -1    0    0    0  501 -0.00000000000E+00 -0.00000000000E+00 -0.23098418221E+02  0.23098418771E+02  0.50400000000E-02 0.  1.
         24    2    1    2    0    0 -0.11102230246E-15  0.00000000000E+00  0.44301712039E+02  0.90498549078E+02  0.78913533033E+02 0.  0.
         66    2    3    3    0    0  0.59687808370E+00 -0.32603251406E+02  0.47589596723E+02  0.57724327265E+02  0.19999940684E+01 0.  0.
        -13    1    3    3    0    0 -0.59687808370E+00  0.32603251406E+02 -0.32878846839E+01  0.32774221813E+02  0.10566000000E+00 0.  1.
         13    1    4    4    0    0  0.21562920424E+00 -0.11965947152E+02  0.18680482345E+02  0.22185625343E+02  0.10566000000E+00 0. -1.
        -13    1    4    4    0    0  0.48933369458E+00 -0.85484909755E+01  0.11262491854E+02  0.14148181234E+02  0.10566000000E+00 0.  1.
         14    1    4    4    0    0 -0.10808481512E+00 -0.12088813279E+02  0.17646622524E+02  0.21390520688E+02  0.00000000000E+00 0. -1.
<mgrwt>
<rscale>  0 0.78913533E+02</rscale>
<asrwt>0</asrwt>
<pdfrwt beam="1">  1        2 0.10369251E-01 0.78913533E+02</pdfrwt>
<pdfrwt beam="2">  1       -1 0.35536028E-02 0.78913533E+02</pdfrwt>
<totfact> 0.16602454E+05</totfact>
</mgrwt>
</event>
<event>
 8    1  0.2603554E-020  0.8144601E+02  0.7818608E-02  0.1324997E+00
         -1   -1    0    0    0  501 -0.00000000000E+00  0.00000000000E+00  0.23681315951E+01  0.23681369583E+01  0.50400000000E-02 0.  1.
          2   -1    0    0  501    0  0.00000000000E+00 -0.00000000000E+00 -0.70028248037E+03  0.70028248037E+03  0.25500000000E-02 0. -1.
         24    2    1    2    0    0  0.00000000000E+00  0.00000000000E+00 -0.69791434877E+03  0.70265061733E+03  0.81446005503E+02 0.  0.
         66    2    3    3    0    0  0.32546747952E+02  0.16697011491E+02 -0.50307892922E+03  0.50441103281E+03  0.19999998643E+01 0.  0.
        -13    1    3    3    0    0 -0.32546747952E+02 -0.16697011491E+02 -0.19483541956E+03  0.19823958453E+03  0.10566000000E+00 0.  1.
         13    1    4    4    0    0  0.14660686188E+02  0.85784010452E+01 -0.23516105329E+03  0.23577374076E+03  0.10566000000E+00 0. -1.
        -13    1    4    4    0    0  0.35588899499E+01  0.14662145540E+01 -0.53032798735E+02  0.53172402508E+02  0.10566000000E+00 0.  1.
         14    1    4    4    0    0  0.14327171815E+02  0.66523958914E+01 -0.21488507719E+03  0.21546488953E+03  0.00000000000E+00 0. -1.
<mgrwt>
<rscale>  0 0.81446006E+02</rscale>
<asrwt>0</asrwt>
<pdfrwt beam="1">  1        2 0.10773560E+00 0.81446006E+02</pdfrwt>
<pdfrwt beam="2">  1       -1 0.36432891E-03 0.81446006E+02</pdfrwt>
<totfact> 0.31931292E+05</totfact>
</mgrwt>
</event>
<event>
 8    1  0.2603554E-020  0.7931204E+02  0.7818608E-02  0.1331015E+00
         -1   -1    0    0    0  501 -0.00000000000E+00  0.00000000000E+00  0.23618435423E+01  0.23618489197E+01  0.50400000000E-02 0.  1.
          2   -1    0    0  501    0  0.00000000000E+00 -0.00000000000E+00 -0.66583508088E+03  0.66583508089E+03  0.25500000000E-02 0. -1.
         24    2    1    2    0    0  0.00000000000E+00 -0.35527136788E-14 -0.66347323734E+03  0.66819692981E+03  0.79312044085E+02 0.  0.
         66    2    3    3    0    0  0.71028293087E+00 -0.25630368507E+02 -0.58653754130E+03  0.58710110513E+03  0.19999982760E+01 0.  0.
        -13    1    3    3    0    0 -0.71028293087E+00  0.25630368507E+02 -0.76935696042E+02  0.81095824683E+02  0.10566000000E+00 0.  1.
         13    1    4    4    0    0  0.19503029468E+00 -0.95033400412E+01 -0.20783957596E+03  0.20805684802E+03  0.10566000000E+00 0. -1.
        -13    1    4    4    0    0  0.75485552415E+00 -0.12179326878E+02 -0.27397380089E+03  0.27424543851E+03  0.10566000000E+00 0.  1.
        -14    1    4    4    0    0 -0.23960288796E+00 -0.39477015880E+01 -0.10472416446E+03  0.10479881859E+03  0.00000000000E+00 0.  1.
<mgrwt>
<rscale>  0 0.79312044E+02</rscale>
<asrwt>0</asrwt>
<pdfrwt beam="1">  1        2 0.10243602E+00 0.79312044E+02</pdfrwt>
<pdfrwt beam="2">  1       -1 0.36336149E-03 0.79312044E+02</pdfrwt>
<totfact> 0.33806447E+05</totfact>
</mgrwt>
</event>
<event>
 8    1  0.2603554E-020  0.7868787E+02  0.7818608E-02  0.1332817E+00
         -1   -1    0    0    0  501 -0.00000000000E+00  0.00000000000E+00  0.98974469391E+02  0.98974469519E+02  0.50400000000E-02 0.  1.
          2   -1    0    0  501    0  0.00000000000E+00 -0.00000000000E+00 -0.15639842508E+02  0.15639842716E+02  0.25500000000E-02 0. -1.
         24    2    1    2    0    0 -0.17763568394E-14  0.00000000000E+00  0.83334626883E+02  0.11461431223E+03  0.78687867752E+02 0.  0.
         66    2    3    3    0    0 -0.14398117118E+02  0.10427383524E+02 -0.93877034411E+01  0.20203095695E+02  0.19999990162E+01 0.  0.
        -13    1    3    3    0    0  0.14398117118E+02 -0.10427383524E+02  0.92722330324E+02  0.94411216540E+02  0.10566000000E+00 0.  1.
         13    1    4    4    0    0 -0.27969997725E+01  0.15771626105E+01 -0.24541498554E+01  0.40428535932E+01  0.10566000000E+00 0. -1.
        -13    1    4    4    0    0 -0.76834154727E+01  0.59323632294E+01 -0.48043908042E+01  0.10831488441E+02  0.10566000000E+00 0.  1.
         14    1    4    4    0    0 -0.39177018731E+01  0.29178576837E+01 -0.21291627815E+01  0.53287536609E+01  0.00000000000E+00 0. -1.
<mgrwt>
<rscale>  0 0.78687868E+02</rscale>
<asrwt>0</asrwt>
<pdfrwt beam="1">  1        2 0.24061296E-02 0.78687868E+02</pdfrwt>
<pdfrwt beam="2">  1       -1 0.15226842E-01 0.78687868E+02</pdfrwt>
<totfact> 0.12378878E+05</totfact>
</mgrwt>
</event>
<event>
 8    1  0.2603554E-020  0.7777125E+02  0.7818608E-02  0.1335498E+00
         -1   -1    0    0    0  501 -0.00000000000E+00  0.00000000000E+00  0.81640525737E+02  0.81640525892E+02  0.50400000000E-02 0.  1.
          2   -1    0    0  501    0  0.00000000000E+00 -0.00000000000E+00 -0.18521336710E+02  0.18521336886E+02  0.25500000000E-02 0. -1.
         24    2    1    2    0    0  0.17763568394E-14  0.00000000000E+00  0.63119189027E+02  0.10016186278E+03  0.77771246176E+02 0.  0.
         66    2    3    3    0    0 -0.91840055416E+01  0.29895082552E+02  0.18740580955E+01  0.31393853170E+02  0.20000011345E+01 0.  0.
        -13    1    3    3    0    0  0.91840055416E+01 -0.29895082552E+02  0.61245130931E+02  0.68768009608E+02  0.10566000000E+00 0.  1.
         13    1    4    4    0    0 -0.61045617636E+01  0.18309539488E+02  0.87741930856E+00  0.19320609185E+02  0.10566000000E+00 0. -1.
        -13    1    4    4    0    0 -0.23636468774E+01  0.69676160310E+01  0.55122788278E+00  0.73789915253E+01  0.10566000000E+00 0.  1.
         14    1    4    4    0    0 -0.71579690056E+00  0.46179270331E+01  0.44541090411E+00  0.46942524602E+01  0.00000000000E+00 0. -1.
<mgrwt>
<rscale>  0 0.77771246E+02</rscale>
<asrwt>0</asrwt>
<pdfrwt beam="1">  1        2 0.28494365E-02 0.77771246E+02</pdfrwt>
<pdfrwt beam="2">  1       -1 0.12560081E-01 0.77771246E+02</pdfrwt>
<totfact> 0.13258728E+05</totfact>
</mgrwt>
</event>
<event>
 8    1  0.2603554E-020  0.8951397E+02  0.7818608E-02  0.1304033E+00
         -1   -1    0    0    0  501 -0.00000000000E+00  0.00000000000E+00  0.31254934502E+02  0.31254934908E+02  0.50400000000E-02 0.  1.
          2   -1    0    0  501    0  0.00000000000E+00 -0.00000000000E+00 -0.64091884455E+02  0.64091884505E+02  0.25500000000E-02 0. -1.
         24    2    1    2    0    0  0.00000000000E+00 -0.17763568394E-14 -0.32836949953E+02  0.95346819413E+02  0.89513969245E+02 0.  0.
         66    2    3    3    0    0 -0.26526152050E+02  0.12073829311E+02 -0.52575790111E+02  0.60146718964E+02  0.19999998742E+01 0.  0.
        -13    1    3    3    0    0  0.26526152050E+02 -0.12073829311E+02  0.19738840158E+02  0.35200100449E+02  0.10566000000E+00 0.  1.
         13    1    4    4    0    0 -0.15115529410E+02  0.67994571195E+01 -0.28498210751E+02  0.32967727045E+02  0.10566000000E+00 0. -1.
        -13    1    4    4    0    0 -0.70467606791E+01  0.28523114378E+01 -0.15165333264E+02  0.16964404311E+02  0.10566000000E+00 0.  1.
        -14    1    4    4    0    0 -0.43638619614E+01  0.24220607538E+01 -0.89122460965E+01  0.10214587608E+02  0.00000000000E+00 0.  1.
<mgrwt>
<rscale>  0 0.89513969E+02</rscale>
<asrwt>0</asrwt>
<pdfrwt beam="1">  1        2 0.98602899E-02 0.89513969E+02</pdfrwt>
<pdfrwt beam="2">  1       -1 0.48084515E-02 0.89513969E+02</pdfrwt>
<totfact> 0.11624633E+05</totfact>
</mgrwt>
</event>
<event>
 8    1  0.2603554E-020  0.7688209E+02  0.7818608E-02  0.1338140E+00
          2   -1    0    0  501    0  0.00000000000E+00  0.00000000000E+00  0.37338277681E+02  0.37338277768E+02  0.25500000000E-02 0. -1.
         -1   -1    0    0    0  501 -0.00000000000E+00 -0.00000000000E+00 -0.39576385619E+02  0.39576385940E+02  0.50400000000E-02 0.  1.
         24    2    1    2    0    0  0.35527136788E-14 -0.35527136788E-14 -0.22381079383E+01  0.76914663707E+02  0.76882093924E+02 0.  0.
         66    2    3    3    0    0 -0.20816743140E+02  0.28098374260E+02  0.14788303503E+02  0.38020380302E+02  0.19999917074E+01 0.  0.
        -13    1    3    3    0    0  0.20816743140E+02 -0.28098374260E+02 -0.17026411441E+02  0.38894283405E+02  0.10566000000E+00 0.  1.
         13    1    4    4    0    0 -0.42634179174E+01  0.62035125938E+01  0.35852587860E+01  0.83381979731E+01  0.10566000000E+00 0. -1.
        -13    1    4    4    0    0 -0.13785883490E+02  0.18224192992E+02  0.87296375404E+01  0.24462001746E+02  0.10566000000E+00 0.  1.
        -14    1    4    4    0    0 -0.27674417328E+01  0.36706686744E+01  0.24734071767E+01  0.52201805834E+01  0.00000000000E+00 0.  1.
<mgrwt>
<rscale>  0 0.76882094E+02</rscale>
<asrwt>0</asrwt>
<pdfrwt beam="1">  1        2 0.57443504E-02 0.76882094E+02</pdfrwt>
<pdfrwt beam="2">  1       -1 0.60886748E-02 0.76882094E+02</pdfrwt>
<totfact> 0.15689072E+05</totfact>
</mgrwt>
</event>
<event>
 8    1  0.2603554E-020  0.8391170E+02  0.7818608E-02  0.1318303E+00
         -1   -1    0    0    0  501 -0.00000000000E+00  0.00000000000E+00  0.37488807559E+02  0.37488807898E+02  0.50400000000E-02 0.  1.
          2   -1    0    0  501    0  0.00000000000E+00 -0.00000000000E+00 -0.46955164568E+02  0.46955164637E+02  0.25500000000E-02 0. -1.
         24    2    1    2    0    0 -0.71054273576E-14  0.00000000000E+00 -0.94663570091E+01  0.84443972535E+02  0.83911695147E+02 0.  0.
         66    2    3    3    0    0 -0.33561518662E+02 -0.20267631417E+02 -0.19700821352E+02  0.43923510512E+02  0.19999988846E+01 0.  0.
        -13    1    3    3    0    0  0.33561518662E+02  0.20267631417E+02  0.10234464343E+02  0.40520462023E+02  0.10566000000E+00 0.  1.
         13    1    4    4    0    0 -0.34500917537E+01 -0.15839708408E+01 -0.21778748201E+01  0.43779446663E+01  0.10566000000E+00 0. -1.
        -13    1    4    4    0    0 -0.47869226458E+01 -0.29950425708E+01 -0.31946523755E+01  0.64885958615E+01  0.10566000000E+00 0.  1.
         14    1    4    4    0    0 -0.25324504263E+02 -0.15688618005E+02 -0.14328294157E+02  0.33056969984E+02  0.00000000000E+00 0. -1.
<mgrwt>
<rscale>  0 0.83911695E+02</rscale>
<asrwt>0</asrwt>
<pdfrwt beam="1">  1        2 0.72238714E-02 0.83911695E+02</pdfrwt>
<pdfrwt beam="2">  1       -1 0.57675089E-02 0.83911695E+02</pdfrwt>
<totfact> 0.12924744E+05</totfact>
</mgrwt>
</event>
<event>
 8    1  0.2603554E-020  0.7976124E+02  0.7818608E-02  0.1329730E+00
          2   -1    0    0  501    0  0.00000000000E+00  0.00000000000E+00  0.32126745688E+03  0.32126745689E+03  0.25500000000E-02 0. -1.
         -1   -1    0    0    0  501 -0.00000000000E+00 -0.00000000000E+00 -0.49505900479E+01  0.49505926134E+01  0.50400000000E-02 0.  1.
         24    2    1    2    0    0  0.35527136788E-14  0.00000000000E+00  0.31631686683E+03  0.32621804950E+03  0.79761241085E+02 0.  0.
         66    2    3    3    0    0 -0.23950785114E+02 -0.14436114901E+02  0.27440139806E+03  0.27582996354E+03  0.20000015162E+01 0.  0.
        -13    1    3    3    0    0  0.23950785114E+02  0.14436114901E+02  0.41915468770E+02  0.50388085966E+02  0.10566000000E+00 0.  1.
         13    1    4    4    0    0 -0.52045838116E+01 -0.33247159696E+01  0.67201122947E+02  0.67484394628E+02  0.10566000000E+00 0. -1.
        -13    1    4    4    0    0 -0.34490083566E+01 -0.24901432021E+01  0.41213697162E+02  0.41432794615E+02  0.10566000000E+00 0.  1.
         14    1    4    4    0    0 -0.15297192945E+02 -0.86212557298E+01  0.16598657795E+03  0.16691277429E+03  0.00000000000E+00 0. -1.
<mgrwt>
<rscale>  0 0.79761241E+02</rscale>
<asrwt>0</asrwt>
<pdfrwt beam="1">  1        2 0.49425764E-01 0.79761241E+02</pdfrwt>
<pdfrwt beam="2">  1       -1 0.76162942E-03 0.79761241E+02</pdfrwt>
<totfact> 0.26338850E+05</totfact>
</mgrwt>
</event>
<event>
 8    1  0.2603554E-020  0.7985640E+02  0.7818608E-02  0.1329459E+00
          2   -1    0    0  501    0  0.00000000000E+00  0.00000000000E+00  0.98674124096E+02  0.98674124129E+02  0.25500000000E-02 0. -1.
         -1   -1    0    0    0  501 -0.00000000000E+00 -0.00000000000E+00 -0.16156831822E+02  0.16156832608E+02  0.50400000000E-02 0.  1.
         24    2    1    2    0    0 -0.17763568394E-14 -0.71054273576E-14  0.82517292273E+02  0.11483095674E+03  0.79856403005E+02 0.  0.
         66    2    3    3    0    0 -0.15529822207E+02 -0.31244339653E+02  0.13443069154E+02  0.37444629768E+02  0.20000130029E+01 0.  0.
        -13    1    3    3    0    0  0.15529822207E+02  0.31244339653E+02  0.69074223119E+02  0.77386326969E+02  0.10566000000E+00 0.  1.
         13    1    4    4    0    0 -0.61871394077E+01 -0.10908000346E+02  0.47769723628E+01  0.13419977444E+02  0.10566000000E+00 0. -1.
        -13    1    4    4    0    0 -0.58452288291E+01 -0.13957081202E+02  0.58222095114E+01  0.16213454394E+02  0.10566000000E+00 0.  1.
        -14    1    4    4    0    0 -0.34974539704E+01 -0.63792581046E+01  0.28438872800E+01  0.78111979299E+01  0.00000000000E+00 0.  1.
<mgrwt>
<rscale>  0 0.79856403E+02</rscale>
<asrwt>0</asrwt>
<pdfrwt beam="1">  1        2 0.15180635E-01 0.79856403E+02</pdfrwt>
<pdfrwt beam="2">  1       -1 0.24856664E-02 0.79856403E+02</pdfrwt>
<totfact> 0.17745136E+05</totfact>
</mgrwt>
</event>
<event>
 8    1  0.2603554E-020  0.8167403E+02  0.7818608E-02  0.1324367E+00
         -1   -1    0    0    0  501 -0.00000000000E+00  0.00000000000E+00  0.57001921545E+02  0.57001921768E+02  0.50400000000E-02 0.  1.
          2   -1    0    0  501    0  0.00000000000E+00 -0.00000000000E+00 -0.29256237192E+02  0.29256237303E+02  0.25500000000E-02 0. -1.
         24    2    1    2    0    0  0.00000000000E+00 -0.71054273576E-14  0.27745684353E+02  0.86258159072E+02  0.81674028958E+02 0.  0.
         66    2    3    3    0    0  0.92679767307E+01 -0.39040693835E+02  0.21755172880E+02  0.45687620999E+02  0.19999994383E+01 0.  0.
        -13    1    3    3    0    0 -0.92679767307E+01  0.39040693835E+02  0.59905114733E+01  0.40570538073E+02  0.10566000000E+00 0.  1.
         13    1    4    4    0    0  0.33818837951E+01 -0.13597439728E+02  0.76332806384E+01  0.15956366833E+02  0.10566000000E+00 0. -1.
        -13    1    4    4    0    0  0.23566198625E+01 -0.12013628064E+02  0.58553847038E+01  0.13571205197E+02  0.10566000000E+00 0.  1.
        -14    1    4    4    0    0  0.35294730731E+01 -0.13429626042E+02  0.82665075377E+01  0.16160048969E+02  0.00000000000E+00 0.  1.
<mgrwt>
<rscale>  0 0.81674029E+02</rscale>
<asrwt>0</asrwt>
<pdfrwt beam="1">  1        2 0.45009597E-02 0.81674029E+02</pdfrwt>
<pdfrwt beam="2">  1       -1 0.87695263E-02 0.81674029E+02</pdfrwt>
<totfact> 0.12631443E+05</totfact>
</mgrwt>
</event>
<event>
 8    1  0.2603554E-020  0.7939147E+02  0.7818608E-02  0.1330787E+00
         -1   -1    0    0    0  501 -0.00000000000E+00  0.00000000000E+00  0.10743948927E+02  0.10743950109E+02  0.50400000000E-02 0.  1.
          2   -1    0    0  501    0  0.00000000000E+00 -0.00000000000E+00 -0.14666406064E+03  0.14666406067E+03  0.25500000000E-02 0. -1.
         24    2    1    2    0    0 -0.71054273576E-14 -0.71054273576E-14 -0.13592011172E+03  0.15740801078E+03  0.79391467346E+02 0.  0.
         66    2    3    3    0    0 -0.17226473078E+02 -0.33372683887E+02 -0.93336345995E+02  0.10062882734E+03  0.20000009209E+01 0.  0.
        -13    1    3    3    0    0  0.17226473078E+02  0.33372683887E+02 -0.42583765722E+02  0.56779183436E+02  0.10566000000E+00 0.  1.
         13    1    4    4    0    0 -0.14348828866E+01 -0.27098822501E+01 -0.69718976582E+01  0.76171432769E+01  0.10566000000E+00 0. -1.
        -13    1    4    4    0    0 -0.66132850385E+01 -0.14149811793E+02 -0.40620024933E+02  0.43519539317E+02  0.10566000000E+00 0.  1.
        -14    1    4    4    0    0 -0.91783051534E+01 -0.16512989843E+02 -0.45744423404E+02  0.49492144746E+02  0.00000000000E+00 0.  1.
<mgrwt>
<rscale>  0 0.79391467E+02</rscale>
<asrwt>0</asrwt>
<pdfrwt beam="1">  1        2 0.22563700E-01 0.79391467E+02</pdfrwt>
<pdfrwt beam="2">  1       -1 0.16529154E-02 0.79391467E+02</pdfrwt>
<totfact> 0.20292905E+05</totfact>
</mgrwt>
</event>
<event>
 8    1  0.2603554E-020  0.7710705E+02  0.7818608E-02  0.1337468E+00
          2   -1    0    0  501    0  0.00000000000E+00  0.00000000000E+00  0.10670221111E+04  0.10670221111E+04  0.25500000000E-02 0. -1.
         -1   -1    0    0    0  501 -0.00000000000E+00 -0.00000000000E+00 -0.13930072309E+01  0.13930163484E+01  0.50400000000E-02 0.  1.
         24    2    1    2    0    0  0.00000000000E+00  0.00000000000E+00  0.10656291038E+04  0.10684151274E+04  0.77107052557E+02 0.  0.
         66    2    3    3    0    0 -0.12355534553E+02 -0.81525280682E+01  0.10260432870E+04  0.10261520110E+04  0.20000006488E+01 0.  0.
        -13    1    3    3    0    0  0.12355534553E+02  0.81525280682E+01  0.39585816844E+02  0.42263116393E+02  0.10566000000E+00 0.  1.
         13    1    4    4    0    0 -0.76741822260E+01 -0.53872948610E+01  0.61508119867E+03  0.61515267060E+03  0.10566000000E+00 0. -1.
        -13    1    4    4    0    0 -0.22633655146E+01 -0.13737503295E+01  0.16266787361E+03  0.16268945351E+03  0.10566000000E+00 0.  1.
         14    1    4    4    0    0 -0.24179868121E+01 -0.13914828777E+01  0.24829421469E+03  0.24830988690E+03  0.00000000000E+00 0. -1.
<mgrwt>
<rscale>  0 0.77107053E+02</rscale>
<asrwt>0</asrwt>
<pdfrwt beam="1">  1        2 0.16415760E+00 0.77107053E+02</pdfrwt>
<pdfrwt beam="2">  1       -1 0.21430905E-03 0.77107053E+02</pdfrwt>
<totfact> 0.38804546E+05</totfact>
</mgrwt>
</event>
<event>
 8    1  0.2603554E-020  0.7914587E+02  0.7818608E-02  0.1331493E+00
          2   -1    0    0  501    0  0.00000000000E+00  0.00000000000E+00  0.69722958349E+03  0.69722958349E+03  0.25500000000E-02 0. -1.
         -1   -1    0    0    0  501 -0.00000000000E+00 -0.00000000000E+00 -0.22460537688E+01  0.22460594235E+01  0.50400000000E-02 0.  1.
         24    2    1    2    0    0  0.00000000000E+00 -0.35527136788E-14  0.69498352972E+03  0.69947564292E+03  0.79145868193E+02 0.  0.
         66    2    3    3    0    0  0.30804646287E+01  0.24684080400E+02  0.61942614724E+03  0.61992866121E+03  0.20000042845E+01 0.  0.
        -13    1    3    3    0    0 -0.30804646287E+01 -0.24684080400E+02  0.75557382483E+02  0.79546981711E+02  0.10566000000E+00 0.  1.
         13    1    4    4    0    0  0.23925875220E+01  0.16201910047E+02  0.42249743843E+03  0.42281476205E+03  0.10566000000E+00 0. -1.
        -13    1    4    4    0    0  0.52044793352E+00  0.73312782103E+01  0.16395614477E+03  0.16412083073E+03  0.10566000000E+00 0.  1.
        -14    1    4    4    0    0  0.16742917320E+00  0.11508921421E+01  0.32972564033E+02  0.32993068426E+02  0.00000000000E+00 0.  1.
<mgrwt>
<rscale>  0 0.79145868E+02</rscale>
<asrwt>0</asrwt>
<pdfrwt beam="1">  1        2 0.10726599E+00 0.79145868E+02</pdfrwt>
<pdfrwt beam="2">  1       -1 0.34554749E-03 0.79145868E+02</pdfrwt>
<totfact> 0.34366462E+05</totfact>
</mgrwt>
</event>
<event>
 8    1  0.2603554E-020  0.8066963E+02  0.7818608E-02  0.1327162E+00
          2   -1    0    0  501    0  0.00000000000E+00  0.00000000000E+00  0.50705034225E+03  0.50705034226E+03  0.25500000000E-02 0. -1.
         -1   -1    0    0    0  501 -0.00000000000E+00 -0.00000000000E+00 -0.32085500170E+01  0.32085539754E+01  0.50400000000E-02 0.  1.
         24    2    1    2    0    0  0.17763568394E-14  0.00000000000E+00  0.50384179224E+03  0.51025889623E+03  0.80669632349E+02 0.  0.
         66    2    3    3    0    0 -0.13947944703E+02 -0.25801563014E+02  0.42698151416E+03  0.42799238223E+03  0.20000008480E+01 0.  0.
        -13    1    3    3    0    0  0.13947944703E+02  0.25801563014E+02  0.76860278079E+02  0.82266514001E+02  0.10566000000E+00 0.  1.
         13    1    4    4    0    0 -0.45592872088E+01 -0.88058096115E+01  0.13536325224E+03  0.13572601299E+03  0.10566000000E+00 0. -1.
        -13    1    4    4    0    0 -0.85513099846E-01 -0.34308689291E+00  0.44512567810E+01  0.44665279662E+01  0.10566000000E+00 0. -1.
        -14    1    4    4    0    0 -0.93031443939E+01 -0.16652666510E+02  0.28716700514E+03  0.28779984127E+03  0.00000000000E+00 0.  1.
<mgrwt>
<rscale>  0 0.80669632E+02</rscale>
<asrwt>0</asrwt>
<pdfrwt beam="1">  1        2 0.78007759E-01 0.80669632E+02</pdfrwt>
<pdfrwt beam="2">  1       -1 0.49362330E-03 0.80669632E+02</pdfrwt>
<totfact> 0.29929461E+05</totfact>
</mgrwt>
</event>
<event>
 8    1  0.2603554E-020  0.7956397E+02  0.7818608E-02  0.1330293E+00
         -1   -1    0    0    0  501 -0.00000000000E+00  0.00000000000E+00  0.27255244650E+02  0.27255245116E+02  0.50400000000E-02 0.  1.
          2   -1    0    0  501    0  0.00000000000E+00 -0.00000000000E+00 -0.58066113397E+02  0.58066113453E+02  0.25500000000E-02 0. -1.
         24    2    1    2    0    0 -0.35527136788E-14  0.00000000000E+00 -0.30810868748E+02  0.85321358569E+02  0.79563965430E+02 0.  0.
         66    2    3    3    0    0 -0.26673430933E+02 -0.24935621073E+02 -0.32280365125E+02  0.48777854362E+02  0.19999968686E+01 0.  0.
        -13    1    3    3    0    0  0.26673430933E+02  0.24935621073E+02  0.14694963774E+01  0.36543504207E+02  0.10566000000E+00 0.  1.
         13    1    4    4    0    0 -0.11402088068E+02 -0.11010328872E+02 -0.15038210905E+02  0.21849345653E+02  0.10566000000E+00 0. -1.
        -13    1    4    4    0    0 -0.95130476986E+01 -0.85750997793E+01 -0.11204317225E+02  0.17017000360E+02  0.10566000000E+00 0. -1.
         14    1    4    4    0    0 -0.57582951672E+01 -0.53501924220E+01 -0.60378369946E+01  0.99115083493E+01  0.00000000000E+00 0. -1.
<mgrwt>
<rscale>  0 0.79563965E+02</rscale>
<asrwt>0</asrwt>
<pdfrwt beam="1">  1        2 0.89332482E-02 0.79563965E+02</pdfrwt>
<pdfrwt beam="2">  1       -1 0.41931146E-02 0.79563965E+02</pdfrwt>
<totfact> 0.15681142E+05</totfact>
</mgrwt>
</event>
<event>
 8    1  0.2603554E-020  0.7319614E+02  0.7818608E-02  0.1349550E+00
         -1   -1    0    0    0  501 -0.00000000000E+00  0.00000000000E+00  0.19564459277E+02  0.19564459926E+02  0.50400000000E-02 0.  1.
          2   -1    0    0  501    0  0.00000000000E+00 -0.00000000000E+00 -0.68461826111E+02  0.68461826158E+02  0.25500000000E-02 0. -1.
         24    2    1    2    0    0  0.17763568394E-14  0.17763568394E-14 -0.48897366834E+02  0.88026286085E+02  0.73196137594E+02 0.  0.
         66    2    3    3    0    0 -0.95514261349E+01 -0.98913055240E+01 -0.65219982886E+02  0.66683684908E+02  0.19999997651E+01 0.  0.
        -13    1    3    3    0    0  0.95514261349E+01  0.98913055240E+01  0.16322616052E+02  0.21342601177E+02  0.10566000000E+00 0.  1.
         13    1    4    4    0    0 -0.25810455247E+01 -0.34271320632E+01 -0.20590877075E+02  0.21033364280E+02  0.10566000000E+00 0. -1.
        -13    1    4    4    0    0 -0.10633763201E+01 -0.16555894982E+01 -0.81973723925E+01  0.84308851233E+01  0.10566000000E+00 0.  1.
         14    1    4    4    0    0 -0.59070042901E+01 -0.48085839627E+01 -0.36431733418E+02  0.37219435504E+02  0.00000000000E+00 0. -1.
<mgrwt>
<rscale>  0 0.73196138E+02</rscale>
<asrwt>0</asrwt>
<pdfrwt beam="1">  1        2 0.10532589E-01 0.73196138E+02</pdfrwt>
<pdfrwt beam="2">  1       -1 0.30099169E-02 0.73196138E+02</pdfrwt>
<totfact> 0.20399554E+05</totfact>
</mgrwt>
</event>
<event>
 8    1  0.2603554E-020  0.7923171E+02  0.7818608E-02  0.1331246E+00
          2   -1    0    0  501    0  0.00000000000E+00  0.00000000000E+00  0.55408644821E+03  0.55408644822E+03  0.25500000000E-02 0. -1.
         -1   -1    0    0    0  501 -0.00000000000E+00 -0.00000000000E+00 -0.28324363665E+01  0.28324408505E+01  0.50400000000E-02 0.  1.
         24    2    1    2    0    0  0.17763568394E-14  0.00000000000E+00  0.55125401185E+03  0.55691888907E+03  0.79231707197E+02 0.  0.
         66    2    3    3    0    0 -0.15378945131E+02  0.16100867366E+02  0.50590480674E+03  0.50639848279E+03  0.20000003241E+01 0.  0.
        -13    1    3    3    0    0  0.15378945131E+02 -0.16100867366E+02  0.45349205108E+02  0.50520406285E+02  0.10566000000E+00 0.  1.
         13    1    4    4    0    0 -0.35567746095E+01  0.36873439835E+01  0.12324575585E+03  0.12335223812E+03  0.10566000000E+00 0. -1.
        -13    1    4    4    0    0 -0.68294526856E+01  0.66923947846E+01  0.19690812448E+03  0.19714017911E+03  0.10566000000E+00 0.  1.
        -14    1    4    4    0    0 -0.49927178363E+01  0.57211285978E+01  0.18575092642E+03  0.18590606555E+03  0.00000000000E+00 0.  1.
<mgrwt>
<rscale>  0 0.79231707E+02</rscale>
<asrwt>0</asrwt>
<pdfrwt beam="1">  1        2 0.85244074E-01 0.79231707E+02</pdfrwt>
<pdfrwt beam="2">  1       -1 0.43575976E-03 0.79231707E+02</pdfrwt>
<totfact> 0.32232089E+05</totfact>
</mgrwt>
</event>
<event>
 8    1  0.2603554E-020  0.7942823E+02  0.7818608E-02  0.1330682E+00
          2   -1    0    0  501    0  0.00000000000E+00  0.00000000000E+00  0.21814775586E+03  0.21814775588E+03  0.25500000000E-02 0. -1.
         -1   -1    0    0    0  501 -0.00000000000E+00 -0.00000000000E+00 -0.72300109980E+01  0.72300127547E+01  0.50400000000E-02 0.  1.
         24    2    1    2    0    0  0.00000000000E+00 -0.11102230246E-15  0.21091774486E+03  0.22537776863E+03  0.79428228577E+02 0.  0.
         66    2    3    3    0    0  0.13149316921E+02 -0.47337570333E+00  0.21177389567E+03  0.21219168588E+03  0.20000127688E+01 0.  0.
        -13    1    3    3    0    0 -0.13149316921E+02  0.47337570333E+00 -0.85615080383E+00  0.13186082750E+02  0.10566000000E+00 0.  1.
         13    1    4    4    0    0  0.51722308478E+01  0.53133290135E+00  0.90920247638E+02  0.91068857911E+02  0.10566000000E+00 0. -1.
        -13    1    4    4    0    0  0.57285675815E+01 -0.57661672380E+00  0.82182308512E+02  0.82383808905E+02  0.10566000000E+00 0.  1.
         14    1    4    4    0    0  0.22485184916E+01 -0.42809188089E+00  0.38671339517E+02  0.38739019065E+02  0.00000000000E+00 0. -1.
<mgrwt>
<rscale>  0 0.79428229E+02</rscale>
<asrwt>0</asrwt>
<pdfrwt beam="1">  1        2 0.33561193E-01 0.79428229E+02</pdfrwt>
<pdfrwt beam="2">  1       -1 0.11123095E-02 0.79428229E+02</pdfrwt>
<totfact> 0.23172984E+05</totfact>
</mgrwt>
</event>
<event>
 8    1  0.2603554E-020  0.8000550E+02  0.7818608E-02  0.1329036E+00
         -1   -1    0    0    0  501 -0.00000000000E+00  0.00000000000E+00  0.43479802487E+02  0.43479802779E+02  0.50400000000E-02 0.  1.
          2   -1    0    0  501    0  0.00000000000E+00 -0.00000000000E+00 -0.36803750321E+02  0.36803750410E+02  0.25500000000E-02 0. -1.
         24    2    1    2    0    0  0.00000000000E+00  0.00000000000E+00  0.66760521658E+01  0.80283553189E+02  0.80005495062E+02 0.  0.
         66    2    3    3    0    0 -0.44068005615E+01 -0.91967785825E+01 -0.35449306192E+02  0.36941222745E+02  0.20000002293E+01 0.  0.
        -13    1    3    3    0    0  0.44068005615E+01  0.91967785825E+01  0.42125358358E+02  0.43342330444E+02  0.10566000000E+00 0.  1.
         13    1    4    4    0    0 -0.10609415591E+01 -0.30857095902E+01 -0.10979061369E+02  0.11454176236E+02  0.10566000000E+00 0. -1.
        -13    1    4    4    0    0 -0.13417646147E+01 -0.13695345114E+01 -0.52778323849E+01  0.56162830928E+01  0.10566000000E+00 0.  1.
        -14    1    4    4    0    0 -0.20040943877E+01 -0.47415344809E+01 -0.19192412438E+02  0.19870763416E+02  0.00000000000E+00 0.  1.
<mgrwt>
<rscale>  0 0.80005495E+02</rscale>
<asrwt>0</asrwt>
<pdfrwt beam="1">  1        2 0.56621155E-02 0.80005495E+02</pdfrwt>
<pdfrwt beam="2">  1       -1 0.66892004E-02 0.80005495E+02</pdfrwt>
<totfact> 0.14012533E+05</totfact>
</mgrwt>
</event>
<event>
 8    1  0.2603554E-020  0.8009715E+02  0.7818608E-02  0.1328776E+00
         -1   -1    0    0    0  501 -0.00000000000E+00  0.00000000000E+00  0.52593748415E+02  0.52593748656E+02  0.50400000000E-02 0.  1.
          2   -1    0    0  501    0  0.00000000000E+00 -0.00000000000E+00 -0.30495795576E+02  0.30495795682E+02  0.25500000000E-02 0. -1.
         24    2    1    2    0    0 -0.35527136788E-14  0.00000000000E+00  0.22097952839E+02  0.83089544338E+02  0.80097146383E+02 0.  0.
         66    2    3    3    0    0  0.26383358664E+02  0.20607839811E+02 -0.11698030484E+02  0.35519129910E+02  0.19999990649E+01 0.  0.
        -13    1    3    3    0    0 -0.26383358664E+02 -0.20607839811E+02  0.33795983323E+02  0.47570414428E+02  0.10566000000E+00 0.  1.
         13    1    4    4    0    0  0.10403317663E+02  0.90826964595E+01 -0.43520821234E+01  0.14480199453E+02  0.10566000000E+00 0. -1.
        -13    1    4    4    0    0  0.88050706385E+01  0.64798237797E+01 -0.44184855552E+01  0.11792012712E+02  0.10566000000E+00 0.  1.
        -14    1    4    4    0    0  0.71749703631E+01  0.50453195723E+01 -0.29274628057E+01  0.92469177447E+01  0.00000000000E+00 0.  1.
<mgrwt>
<rscale>  0 0.80097146E+02</rscale>
<asrwt>0</asrwt>
<pdfrwt beam="1">  1        2 0.46916609E-02 0.80097146E+02</pdfrwt>
<pdfrwt beam="2">  1       -1 0.80913459E-02 0.80097146E+02</pdfrwt>
<totfact> 0.13453049E+05</totfact>
</mgrwt>
</event>
<event>
 8    1  0.2603554E-020  0.8150594E+02  0.7818608E-02  0.1324831E+00
         -1   -1    0    0    0  501 -0.00000000000E+00  0.00000000000E+00  0.23085509221E+03  0.23085509227E+03  0.50400000000E-02 0.  1.
          2   -1    0    0  501    0  0.00000000000E+00 -0.00000000000E+00 -0.71941420555E+01  0.71941425074E+01  0.25500000000E-02 0. -1.
         24    2    1    2    0    0 -0.71054273576E-14 -0.13877787808E-16  0.22366095016E+03  0.23804923478E+03  0.81505935684E+02 0.  0.
         66    2    3    3    0    0 -0.32431534795E+02  0.63237125571E-01  0.39941345687E+02  0.51489022836E+02  0.19999822952E+01 0.  0.
        -13    1    3    3    0    0  0.32431534795E+02 -0.63237125571E-01  0.18371960447E+03  0.18656021194E+03  0.10566000000E+00 0.  1.
         13    1    4    4    0    0 -0.27183533504E+01 -0.22097146976E+00  0.26249576089E+01  0.37867980950E+01  0.10566000000E+00 0. -1.
        -13    1    4    4    0    0 -0.98284592648E+01  0.11217914449E+00  0.12331979368E+02  0.15770227482E+02  0.10566000000E+00 0.  1.
         14    1    4    4    0    0 -0.19884722180E+02  0.17202945084E+00  0.24984408710E+02  0.31931997259E+02  0.00000000000E+00 0. -1.
<mgrwt>
<rscale>  0 0.81505936E+02</rscale>
<asrwt>0</asrwt>
<pdfrwt beam="1">  1        2 0.11067914E-02 0.81505936E+02</pdfrwt>
<pdfrwt beam="2">  1       -1 0.35516159E-01 0.81505936E+02</pdfrwt>
<totfact> 0.90743559E+04</totfact>
</mgrwt>
</event>
<event>
 8    1  0.2603554E-020  0.7789118E+02  0.7818608E-02  0.1335145E+00
         -1   -1    0    0    0  501 -0.00000000000E+00  0.00000000000E+00  0.25053348882E+02  0.25053349389E+02  0.50400000000E-02 0.  1.
          2   -1    0    0  501    0  0.00000000000E+00 -0.00000000000E+00 -0.60541169920E+02  0.60541169973E+02  0.25500000000E-02 0. -1.
         24    2    1    2    0    0  0.00000000000E+00  0.71054273576E-14 -0.35487821038E+02  0.85594519363E+02  0.77891182447E+02 0.  0.
         66    2    3    3    0    0 -0.20268337865E+02 -0.32503711450E+02 -0.25325813870E+02  0.45964047103E+02  0.20000000205E+01 0.  0.
        -13    1    3    3    0    0  0.20268337865E+02  0.32503711450E+02 -0.10162007168E+02  0.39630472260E+02  0.10566000000E+00 0.  1.
         13    1    4    4    0    0 -0.65766355752E+01 -0.10056444421E+02 -0.82405908272E+01  0.14570611212E+02  0.10566000000E+00 0. -1.
        -13    1    4    4    0    0 -0.11952408744E+02 -0.20239551943E+02 -0.15637570980E+02  0.28231973502E+02  0.10566000000E+00 0.  1.
        -14    1    4    4    0    0 -0.17392935463E+01 -0.22077150859E+01 -0.14476520625E+01  0.31614623886E+01  0.00000000000E+00 0.  1.
<mgrwt>
<rscale>  0 0.77891182E+02</rscale>
<asrwt>0</asrwt>
<pdfrwt beam="1">  1        2 0.93140262E-02 0.77891182E+02</pdfrwt>
<pdfrwt beam="2">  1       -1 0.38543614E-02 0.77891182E+02</pdfrwt>
<totfact> 0.16771907E+05</totfact>
</mgrwt>
</event>
<event>
 8    1  0.2603554E-020  0.8507513E+02  0.7818608E-02  0.1315236E+00
         -1   -1    0    0    0  501 -0.00000000000E+00  0.00000000000E+00  0.86200506349E+02  0.86200506496E+02  0.50400000000E-02 0.  1.
          2   -1    0    0  501    0  0.00000000000E+00 -0.00000000000E+00 -0.20991110764E+02  0.20991110919E+02  0.25500000000E-02 0. -1.
         24    2    1    2    0    0  0.00000000000E+00  0.00000000000E+00  0.65209395584E+02  0.10719161742E+03  0.85075128984E+02 0.  0.
         66    2    3    3    0    0 -0.18927504364E+02 -0.31324525213E+02  0.53665493472E+01  0.37044246038E+02  0.20000028411E+01 0.  0.
        -13    1    3    3    0    0  0.18927504364E+02  0.31324525213E+02  0.59842846237E+02  0.70147371377E+02  0.10566000000E+00 0.  1.
         13    1    4    4    0    0 -0.67848549344E+01 -0.10223241804E+02  0.24487432119E+01  0.12512251469E+02  0.10566000000E+00 0. -1.
        -13    1    4    4    0    0 -0.50353483769E+01 -0.94870826550E+01  0.12092208914E+01  0.10808924543E+02  0.10566000000E+00 0.  1.
         14    1    4    4    0    0 -0.71073010528E+01 -0.11614200754E+02  0.17085852440E+01  0.13723070026E+02  0.00000000000E+00 0. -1.
<mgrwt>
<rscale>  0 0.85075129E+02</rscale>
<asrwt>0</asrwt>
<pdfrwt beam="1">  1        2 0.32294017E-02 0.85075129E+02</pdfrwt>
<pdfrwt beam="2">  1       -1 0.13261616E-01 0.85075129E+02</pdfrwt>
<totfact> 0.10501439E+05</totfact>
</mgrwt>
</event>
<event>
 8    1  0.2603554E-020  0.8080418E+02  0.7818608E-02  0.1326785E+00
         -1   -1    0    0    0  501 -0.00000000000E+00  0.00000000000E+00  0.14409923289E+02  0.14409924171E+02  0.50400000000E-02 0.  1.
          2   -1    0    0  501    0  0.00000000000E+00 -0.00000000000E+00 -0.11327809999E+03  0.11327810002E+03  0.25500000000E-02 0. -1.
         24    2    1    2    0    0 -0.35527136788E-14  0.00000000000E+00 -0.98868176705E+02  0.12768802419E+03  0.80804177847E+02 0.  0.
         66    2    3    3    0    0  0.28428125494E+02  0.20795523903E+02 -0.80659508991E+02  0.88037313261E+02  0.20000005027E+01 0.  0.
        -13    1    3    3    0    0 -0.28428125494E+02 -0.20795523903E+02 -0.18208667715E+02  0.39650710933E+02  0.10566000000E+00 0.  1.
         13    1    4    4    0    0  0.58646081670E+01  0.40984727815E+01 -0.17812568784E+02  0.19196090196E+02  0.10566000000E+00 0. -1.
        -13    1    4    4    0    0  0.10888367082E+02  0.87261926863E+01 -0.30555313109E+02  0.33590791889E+02  0.10566000000E+00 0.  1.
        -14    1    4    4    0    0  0.11675150246E+02  0.79708584352E+01 -0.32291627097E+02  0.35250431175E+02  0.00000000000E+00 0.  1.
<mgrwt>
<rscale>  0 0.80804178E+02</rscale>
<asrwt>0</asrwt>
<pdfrwt beam="1">  1        2 0.17427399E-01 0.80804178E+02</pdfrwt>
<pdfrwt beam="2">  1       -1 0.22169114E-02 0.80804178E+02</pdfrwt>
<totfact> 0.17885876E+05</totfact>
</mgrwt>
</event>
<event>
 8    1  0.2603554E-020  0.8042390E+02  0.7818608E-02  0.1327853E+00
         -1   -1    0    0    0  501 -0.00000000000E+00  0.00000000000E+00  0.16479561900E+02  0.16479562671E+02  0.50400000000E-02 0.  1.
          2   -1    0    0  501    0  0.00000000000E+00 -0.00000000000E+00 -0.98121590339E+02  0.98121590372E+02  0.25500000000E-02 0. -1.
         24    2    1    2    0    0  0.00000000000E+00 -0.17763568394E-14 -0.81642028439E+02  0.11460115304E+03  0.80423898632E+02 0.  0.
         66    2    3    3    0    0  0.35318395270E+02  0.13120281000E+02 -0.20923935330E+02  0.43143271652E+02  0.20000003048E+01 0.  0.
        -13    1    3    3    0    0 -0.35318395270E+02 -0.13120281000E+02 -0.60718093109E+02  0.71457881390E+02  0.10566000000E+00 0.  1.
         13    1    4    4    0    0  0.10095601563E+02  0.41970424827E+01 -0.60687352535E+01  0.12505080893E+02  0.10566000000E+00 0. -1.
        -13    1    4    4    0    0  0.88914509755E+01  0.35537530100E+01 -0.59974636332E+01  0.11299017434E+02  0.10566000000E+00 0.  1.
        -14    1    4    4    0    0  0.16331342731E+02  0.53694855073E+01 -0.88577364429E+01  0.19339173326E+02  0.00000000000E+00 0.  1.
<mgrwt>
<rscale>  0 0.80423899E+02</rscale>
<asrwt>0</asrwt>
<pdfrwt beam="1">  1        2 0.15095629E-01 0.80423899E+02</pdfrwt>
<pdfrwt beam="2">  1       -1 0.25353173E-02 0.80423899E+02</pdfrwt>
<totfact> 0.17384287E+05</totfact>
</mgrwt>
</event>
<event>
 8    1  0.2603554E-020  0.7603937E+02  0.7818608E-02  0.1340682E+00
          2   -1    0    0  501    0  0.00000000000E+00  0.00000000000E+00  0.11197449897E+04  0.11197449897E+04  0.25500000000E-02 0. -1.
         -1   -1    0    0    0  501 -0.00000000000E+00 -0.00000000000E+00 -0.12909108528E+01  0.12909206914E+01  0.50400000000E-02 0.  1.
         24    2    1    2    0    0 -0.35527136788E-14  0.00000000000E+00  0.11184540788E+04  0.11210359104E+04  0.76039370746E+02 0.  0.
         66    2    3    3    0    0 -0.18321235449E+02  0.14752111802E+02  0.99948308304E+03  0.99976183452E+03  0.20000035303E+01 0.  0.
        -13    1    3    3    0    0  0.18321235449E+02 -0.14752111802E+02  0.11897099578E+03  0.12127407585E+03  0.10566000000E+00 0.  1.
         13    1    4    4    0    0 -0.58130991705E+01  0.51416140403E+01  0.29783173794E+03  0.29793285084E+03  0.10566000000E+00 0. -1.
        -13    1    4    4    0    0 -0.47839070622E+01  0.36496143081E+01  0.28257230535E+03  0.28263638188E+03  0.10566000000E+00 0.  1.
         14    1    4    4    0    0 -0.77242292162E+01  0.59608834534E+01  0.41907903975E+03  0.41919260180E+03  0.00000000000E+00 0. -1.
<mgrwt>
<rscale>  0 0.76039371E+02</rscale>
<asrwt>0</asrwt>
<pdfrwt beam="1">  1        2 0.17226829E+00 0.76039371E+02</pdfrwt>
<pdfrwt beam="2">  1       -1 0.19860263E-03 0.76039371E+02</pdfrwt>
<totfact> 0.40176679E+05</totfact>
</mgrwt>
</event>
<event>
 8    1  0.2603554E-020  0.7937381E+02  0.7818608E-02  0.1330838E+00
         -1   -1    0    0    0  501 -0.00000000000E+00  0.00000000000E+00  0.14515288145E+02  0.14515289020E+02  0.50400000000E-02 0.  1.
          2   -1    0    0  501    0  0.00000000000E+00 -0.00000000000E+00 -0.10850975276E+03  0.10850975279E+03  0.25500000000E-02 0. -1.
         24    2    1    2    0    0  0.00000000000E+00  0.19081958236E-16 -0.93994464610E+02  0.12302504181E+03  0.79373808866E+02 0.  0.
         66    2    3    3    0    0  0.19067431497E+02  0.64264491610E-02 -0.10093028924E+03  0.10273504889E+03  0.19999998551E+01 0.  0.
        -13    1    3    3    0    0 -0.19067431497E+02 -0.64264491610E-02  0.69358246286E+01  0.20289992915E+02  0.10566000000E+00 0.  1.
         13    1    4    4    0    0  0.56862053857E+01 -0.64127926159E+00 -0.28674791379E+02  0.29240365857E+02  0.10566000000E+00 0. -1.
        -13    1    4    4    0    0  0.14536783360E+01 -0.24626430413E+00 -0.79331212203E+01  0.80696594193E+01  0.10566000000E+00 0. -1.
         14    1    4    4    0    0  0.11927547775E+02  0.89397001488E+00 -0.64322376640E+02  0.65425023614E+02  0.00000000000E+00 0. -1.
<mgrwt>
<rscale>  0 0.79373809E+02</rscale>
<asrwt>0</asrwt>
<pdfrwt beam="1">  1        2 0.16693808E-01 0.79373809E+02</pdfrwt>
<pdfrwt beam="2">  1       -1 0.22331214E-02 0.79373809E+02</pdfrwt>
<totfact> 0.18527046E+05</totfact>
</mgrwt>
</event>
<event>
 8    1  0.2603554E-020  0.7779042E+02  0.7818608E-02  0.1335441E+00
         -1   -1    0    0    0  501 -0.00000000000E+00  0.00000000000E+00  0.12780164336E+02  0.12780165329E+02  0.50400000000E-02 0.  1.
          2   -1    0    0  501    0  0.00000000000E+00 -0.00000000000E+00 -0.11837385127E+03  0.11837385129E+03  0.25500000000E-02 0. -1.
         24    2    1    2    0    0  0.35527136788E-14  0.35527136788E-14 -0.10559368693E+03  0.13115401662E+03  0.77790419441E+02 0.  0.
         66    2    3    3    0    0 -0.18283064835E+02  0.26955756195E+02 -0.88594913981E+02  0.94413675067E+02  0.20000011251E+01 0.  0.
        -13    1    3    3    0    0  0.18283064835E+02 -0.26955756195E+02 -0.16998772950E+02  0.36740341556E+02  0.10566000000E+00 0.  1.
         13    1    4    4    0    0 -0.42499593609E+00  0.80869811622E+00 -0.19693751623E+01  0.21735263408E+01  0.10566000000E+00 0. -1.
        -13    1    4    4    0    0 -0.31549697767E+01  0.38583878648E+01 -0.14131630520E+02  0.14985163876E+02  0.10566000000E+00 0.  1.
         14    1    4    4    0    0 -0.14703099122E+02  0.22288670214E+02 -0.72493908300E+02  0.77254984851E+02  0.00000000000E+00 0. -1.
<mgrwt>
<rscale>  0 0.77790419E+02</rscale>
<asrwt>0</asrwt>
<pdfrwt beam="1">  1        2 0.18211361E-01 0.77790419E+02</pdfrwt>
<pdfrwt beam="2">  1       -1 0.19661793E-02 0.77790419E+02</pdfrwt>
<totfact> 0.20051995E+05</totfact>
</mgrwt>
</event>
<event>
 8    1  0.2603554E-020  0.7991203E+02  0.7818608E-02  0.1329301E+00
          2   -1    0    0  501    0  0.00000000000E+00  0.00000000000E+00  0.30233622141E+03  0.30233622142E+03  0.25500000000E-02 0. -1.
         -1   -1    0    0    0  501 -0.00000000000E+00 -0.00000000000E+00 -0.52804883504E+01  0.52804907556E+01  0.50400000000E-02 0.  1.
         24    2    1    2    0    0  0.00000000000E+00  0.17763568394E-14  0.29705573306E+03  0.30761671218E+03  0.79912033303E+02 0.  0.
         66    2    3    3    0    0 -0.37148213111E+02 -0.13522002440E+02  0.17027491094E+03  0.17481527276E+03  0.20000025763E+01 0.  0.
        -13    1    3    3    0    0  0.37148213111E+02  0.13522002440E+02  0.12678082213E+03  0.13280143942E+03  0.10566000000E+00 0.  1.
         13    1    4    4    0    0 -0.14346758459E+02 -0.49167403301E+01  0.65013958522E+02  0.66759492063E+02  0.10566000000E+00 0. -1.
        -13    1    4    4    0    0 -0.20627972508E+02 -0.76175650905E+01  0.96650598109E+02  0.99120582255E+02  0.10566000000E+00 0.  1.
        -14    1    4    4    0    0 -0.21734821441E+01 -0.98769701960E+00  0.86103543042E+01  0.89351984465E+01  0.00000000000E+00 0.  1.
<mgrwt>
<rscale>  0 0.79912033E+02</rscale>
<asrwt>0</asrwt>
<pdfrwt beam="1">  1        2 0.46513272E-01 0.79912033E+02</pdfrwt>
<pdfrwt beam="2">  1       -1 0.81238289E-03 0.79912033E+02</pdfrwt>
<totfact> 0.25640022E+05</totfact>
</mgrwt>
</event>
<event>
 8    1  0.2603554E-020  0.8019662E+02  0.7818608E-02  0.1328494E+00
         -1   -1    0    0    0  501 -0.00000000000E+00  0.00000000000E+00  0.20824846767E+03  0.20824846773E+03  0.50400000000E-02 0.  1.
          2   -1    0    0  501    0  0.00000000000E+00 -0.00000000000E+00 -0.77209416172E+01  0.77209420383E+01  0.25500000000E-02 0. -1.
         24    2    1    2    0    0  0.00000000000E+00 -0.44408920985E-15  0.20052752605E+03  0.21596940977E+03  0.80196616207E+02 0.  0.
         66    2    3    3    0    0  0.35530684094E+02  0.25457313329E+01  0.14975983669E+03  0.15395102776E+03  0.20000002991E+01 0.  0.
        -13    1    3    3    0    0 -0.35530684094E+02 -0.25457313329E+01  0.50767689355E+02  0.62018382006E+02  0.10566000000E+00 0.  1.
         13    1    4    4    0    0  0.16090825984E+02  0.11438063577E+01  0.67003643068E+02  0.68918229245E+02  0.10566000000E+00 0. -1.
        -13    1    4    4    0    0  0.13937442160E+02  0.42676014485E+00  0.57711077360E+02  0.59371828608E+02  0.10566000000E+00 0.  1.
         14    1    4    4    0    0  0.55024159504E+01  0.97516483036E+00  0.25045116266E+02  0.25660969906E+02  0.00000000000E+00 0. -1.
<mgrwt>
<rscale>  0 0.80196616E+02</rscale>
<asrwt>0</asrwt>
<pdfrwt beam="1">  1        2 0.11878373E-02 0.80196616E+02</pdfrwt>
<pdfrwt beam="2">  1       -1 0.32038222E-01 0.80196616E+02</pdfrwt>
<totfact> 0.97764026E+04</totfact>
</mgrwt>
</event>
<event>
 8    1  0.2603554E-020  0.8011542E+02  0.7818608E-02  0.1328724E+00
          2   -1    0    0  501    0  0.00000000000E+00  0.00000000000E+00  0.32956082431E+03  0.32956082432E+03  0.25500000000E-02 0. -1.
         -1   -1    0    0    0  501 -0.00000000000E+00 -0.00000000000E+00 -0.48689641974E+01  0.48689668059E+01  0.50400000000E-02 0.  1.
         24    2    1    2    0    0 -0.17763568394E-14 -0.71054273576E-14  0.32469186012E+03  0.33442979113E+03  0.80115424040E+02 0.  0.
         66    2    3    3    0    0 -0.13499076661E+02 -0.37091905168E+02  0.19031848495E+03  0.19437890888E+03  0.20000015325E+01 0.  0.
        -13    1    3    3    0    0  0.13499076661E+02  0.37091905168E+02  0.13437337517E+03  0.14005088225E+03  0.10566000000E+00 0.  1.
         13    1    4    4    0    0 -0.76284043236E+01 -0.19014267435E+02  0.10023366290E+03  0.10230607636E+03  0.10566000000E+00 0. -1.
        -13    1    4    4    0    0 -0.74407507009E+00 -0.16197738214E+01  0.77900599450E+01  0.79920906480E+01  0.10566000000E+00 0.  1.
        -14    1    4    4    0    0 -0.51265972675E+01 -0.16457863912E+02  0.82294762103E+02  0.84080741872E+02  0.00000000000E+00 0.  1.
<mgrwt>
<rscale>  0 0.80115424E+02</rscale>
<asrwt>0</asrwt>
<pdfrwt beam="1">  1        2 0.50701670E-01 0.80115424E+02</pdfrwt>
<pdfrwt beam="2">  1       -1 0.74907154E-03 0.80115424E+02</pdfrwt>
<totfact> 0.26275099E+05</totfact>
</mgrwt>
</event>
<event>
 8    1  0.2603554E-020  0.8004433E+02  0.7818608E-02  0.1328926E+00
          2   -1    0    0  501    0  0.00000000000E+00  0.00000000000E+00  0.19889284978E+03  0.19889284979E+03  0.25500000000E-02 0. -1.
         -1   -1    0    0    0  501 -0.00000000000E+00 -0.00000000000E+00 -0.80534498134E+01  0.80534513904E+01  0.50400000000E-02 0.  1.
         24    2    1    2    0    0  0.71054273576E-14 -0.88817841970E-15  0.19083939996E+03  0.20694630118E+03  0.80044331436E+02 0.  0.
         66    2    3    3    0    0 -0.35125790275E+02  0.57683080737E+01  0.14263507587E+03  0.14702332941E+03  0.20000006709E+01 0.  0.
        -13    1    3    3    0    0  0.35125790275E+02 -0.57683080737E+01  0.48204324092E+02  0.59922971769E+02  0.10566000000E+00 0.  1.
         13    1    4    4    0    0 -0.27850625168E+02  0.44263647172E+01  0.11364346538E+03  0.11709012945E+03  0.10566000000E+00 0. -1.
        -13    1    4    4    0    0 -0.55540667942E+00 -0.46047021755E-01  0.28627852970E+01  0.29184414677E+01  0.10566000000E+00 0. -1.
        -14    1    4    4    0    0 -0.67197584273E+01  0.13879903783E+01  0.26128825193E+02  0.27014758495E+02  0.00000000000E+00 0.  1.
<mgrwt>
<rscale>  0 0.80044331E+02</rscale>
<asrwt>0</asrwt>
<pdfrwt beam="1">  1        2 0.30598898E-01 0.80044331E+02</pdfrwt>
<pdfrwt beam="2">  1       -1 0.12389925E-02 0.80044331E+02</pdfrwt>
<totfact> 0.21983936E+05</totfact>
</mgrwt>
</event>
<event>
 8    1  0.2603554E-020  0.7964008E+02  0.7818608E-02  0.1330076E+00
          2   -1    0    0  501    0  0.00000000000E+00  0.00000000000E+00  0.61478531811E+02  0.61478531864E+02  0.25500000000E-02 0. -1.
         -1   -1    0    0    0  501 -0.00000000000E+00 -0.00000000000E+00 -0.25791696636E+02  0.25791697128E+02  0.50400000000E-02 0.  1.
         24    2    1    2    0    0 -0.35527136788E-14  0.11102230246E-15  0.35686835175E+02  0.87270228992E+02  0.79640082016E+02 0.  0.
         66    2    3    3    0    0 -0.26965611567E+02 -0.86269185273E+00  0.49910386818E+02  0.56770900643E+02  0.20000007616E+01 0.  0.
        -13    1    3    3    0    0  0.26965611567E+02  0.86269185273E+00 -0.14223551643E+02  0.30499328350E+02  0.10566000000E+00 0.  1.
         13    1    4    4    0    0 -0.16964073968E+02 -0.96535216632E+00  0.32467804756E+02  0.36645343771E+02  0.10566000000E+00 0. -1.
        -13    1    4    4    0    0 -0.38556212166E+00  0.12880571214E+00  0.84405584731E+00  0.94278490130E+00  0.10566000000E+00 0.  1.
        -14    1    4    4    0    0 -0.96159754773E+01 -0.26145398548E-01  0.16598526214E+02  0.19182771970E+02  0.00000000000E+00 0.  1.
<mgrwt>
<rscale>  0 0.79640082E+02</rscale>
<asrwt>0</asrwt>
<pdfrwt beam="1">  1        2 0.94582357E-02 0.79640082E+02</pdfrwt>
<pdfrwt beam="2">  1       -1 0.39679534E-02 0.79640082E+02</pdfrwt>
<totfact> 0.15847339E+05</totfact>
</mgrwt>
</event>
<event>
 8    1  0.2603554E-020  0.8043971E+02  0.7818608E-02  0.1327808E+00
          2   -1    0    0  501    0  0.00000000000E+00  0.00000000000E+00  0.66489084087E+01  0.66489088977E+01  0.25500000000E-02 0. -1.
         -1   -1    0    0    0  501 -0.00000000000E+00 -0.00000000000E+00 -0.24329356996E+03  0.24329357002E+03  0.50400000000E-02 0.  1.
         24    2    1    2    0    0  0.17763568394E-14  0.71054273576E-14 -0.23664466156E+03  0.24994247891E+03  0.80439709864E+02 0.  0.
         66    2    3    3    0    0  0.12650785636E+02  0.37976591326E+02 -0.10703467821E+03  0.11429210916E+03  0.20000030345E+01 0.  0.
        -13    1    3    3    0    0 -0.12650785636E+02 -0.37976591326E+02 -0.12960998335E+03  0.13565036975E+03  0.10566000000E+00 0.  1.
         13    1    4    4    0    0  0.33843960236E+01  0.98309958840E+01 -0.29906678829E+02  0.31662647065E+02  0.10566000000E+00 0. -1.
        -13    1    4    4    0    0  0.28360677777E+01  0.95236315796E+01 -0.24971675015E+02  0.26876356821E+02  0.10566000000E+00 0.  1.
         14    1    4    4    0    0  0.64303218344E+01  0.18621963863E+02 -0.52156324361E+02  0.55753105275E+02  0.00000000000E+00 0. -1.
<mgrwt>
<rscale>  0 0.80439710E+02</rscale>
<asrwt>0</asrwt>
<pdfrwt beam="1">  1        2 0.10229092E-02 0.80439710E+02</pdfrwt>
<pdfrwt beam="2">  1       -1 0.37429773E-01 0.80439710E+02</pdfrwt>
<totfact> 0.92190019E+04</totfact>
</mgrwt>
</event>
<event>
 8    1  0.2603554E-020  0.7881686E+02  0.7818608E-02  0.1332443E+00
          2   -1    0    0  501    0  0.00000000000E+00  0.00000000000E+00  0.21675948302E+03  0.21675948303E+03  0.25500000000E-02 0. -1.
         -1   -1    0    0    0  501 -0.00000000000E+00 -0.00000000000E+00 -0.71647352182E+01  0.71647369908E+01  0.50400000000E-02 0.  1.
         24    2    1    2    0    0  0.00000000000E+00  0.00000000000E+00  0.20959474780E+03  0.22392422003E+03  0.78816863729E+02 0.  0.
         66    2    3    3    0    0  0.32040137724E+02 -0.22371112573E+02  0.11877792940E+03  0.12505692123E+03  0.19999827570E+01 0.  0.
        -13    1    3    3    0    0 -0.32040137724E+02  0.22371112573E+02  0.90816818399E+02  0.98867298796E+02  0.10566000000E+00 0.  1.
         13    1    4    4    0    0  0.99663235216E+01 -0.68141302527E+01  0.38516313605E+02  0.40364310392E+02  0.10566000000E+00 0. -1.
        -13    1    4    4    0    0  0.63771777461E+01 -0.40213586790E+01  0.23717509011E+02  0.24887167765E+02  0.10566000000E+00 0.  1.
         14    1    4    4    0    0  0.15696636457E+02 -0.11535623641E+02  0.56544106786E+02  0.59805443073E+02  0.00000000000E+00 0. -1.
<mgrwt>
<rscale>  0 0.78816864E+02</rscale>
<asrwt>0</asrwt>
<pdfrwt beam="1">  1        2 0.33347608E-01 0.78816864E+02</pdfrwt>
<pdfrwt beam="2">  1       -1 0.11022673E-02 0.78816864E+02</pdfrwt>
<totfact> 0.23596011E+05</totfact>
</mgrwt>
</event>
<event>
 8    1  0.2603554E-020  0.7343513E+02  0.7818608E-02  0.1348787E+00
         -1   -1    0    0    0  501 -0.00000000000E+00  0.00000000000E+00  0.21589006710E+03  0.21589006716E+03  0.50400000000E-02 0.  1.
          2   -1    0    0  501    0  0.00000000000E+00 -0.00000000000E+00 -0.62447507859E+01  0.62447513066E+01  0.25500000000E-02 0. -1.
         24    2    1    2    0    0  0.00000000000E+00 -0.71054273576E-14  0.20964531631E+03  0.22213481846E+03  0.73435134113E+02 0.  0.
         66    2    3    3    0    0  0.11390413491E+02  0.34375651690E+02  0.12273125481E+03  0.12797807574E+03  0.20000038488E+01 0.  0.
        -13    1    3    3    0    0 -0.11390413491E+02 -0.34375651690E+02  0.86914061503E+02  0.94156742720E+02  0.10566000000E+00 0.  1.
         13    1    4    4    0    0  0.75605258763E+01  0.22176906025E+02  0.80592721330E+02  0.83929581244E+02  0.10566000000E+00 0. -1.
        -13    1    4    4    0    0  0.20181341286E+01  0.48539442038E+01  0.16546815867E+02  0.17362082798E+02  0.10566000000E+00 0.  1.
        -14    1    4    4    0    0  0.18117534858E+01  0.73448014612E+01  0.25591717611E+02  0.26686411701E+02  0.00000000000E+00 0.  1.
<mgrwt>
<rscale>  0 0.73435134E+02</rscale>
<asrwt>0</asrwt>
<pdfrwt beam="1">  1        2 0.96073096E-03 0.73435134E+02</pdfrwt>
<pdfrwt beam="2">  1       -1 0.33213856E-01 0.73435134E+02</pdfrwt>
<totfact> 0.12093525E+05</totfact>
</mgrwt>
</event>
<event>
 8    1  0.2603554E-020  0.7715456E+02  0.7818608E-02  0.1337326E+00
          2   -1    0    0  501    0  0.00000000000E+00  0.00000000000E+00  0.22429109473E+03  0.22429109475E+03  0.25500000000E-02 0. -1.
         -1   -1    0    0    0  501 -0.00000000000E+00 -0.00000000000E+00 -0.66351561974E+01  0.66351581116E+01  0.50400000000E-02 0.  1.
         24    2    1    2    0    0  0.11102230246E-15  0.00000000000E+00  0.21765593853E+03  0.23092625286E+03  0.77154563570E+02 0.  0.
         66    2    3    3    0    0 -0.79975442895E+00  0.15296364576E+02  0.21478763347E+03  0.21534239216E+03  0.19999977085E+01 0.  0.
        -13    1    3    3    0    0  0.79975442895E+00 -0.15296364576E+02  0.28683050623E+01  0.15583860701E+02  0.10566000000E+00 0.  1.
         13    1    4    4    0    0 -0.10808070553E+00  0.27809987354E+01  0.44598301895E+02  0.44685180220E+02  0.10566000000E+00 0. -1.
        -13    1    4    4    0    0 -0.40694002621E+00  0.12182966806E+02  0.16401852060E+03  0.16447089878E+03  0.10566000000E+00 0.  1.
        -14    1    4    4    0    0 -0.28473369721E+00  0.33239903468E+00  0.61708109746E+01  0.61863131573E+01  0.00000000000E+00 0.  1.
<mgrwt>
<rscale>  0 0.77154564E+02</rscale>
<asrwt>0</asrwt>
<pdfrwt beam="1">  1        2 0.34506322E-01 0.77154564E+02</pdfrwt>
<pdfrwt beam="2">  1       -1 0.10207934E-02 0.77154564E+02</pdfrwt>
<totfact> 0.25256995E+05</totfact>
</mgrwt>
</event>
<event>
 8    1  0.2603554E-020  0.8183033E+02  0.7818608E-02  0.1323936E+00
         -1   -1    0    0    0  501 -0.00000000000E+00  0.00000000000E+00  0.15293961654E+01  0.15294044699E+01  0.50400000000E-02 0.  1.
          2   -1    0    0  501    0  0.00000000000E+00 -0.00000000000E+00 -0.10945797739E+04  0.10945797739E+04  0.25500000000E-02 0. -1.
         24    2    1    2    0    0  0.00000000000E+00  0.00000000000E+00 -0.10930503777E+04  0.10961091784E+04  0.81830328409E+02 0.  0.
         66    2    3    3    0    0  0.10953570423E+02  0.19555392632E+02 -0.10049586426E+04  0.10052105588E+04  0.20000001758E+01 0.  0.
        -13    1    3    3    0    0 -0.10953570423E+02 -0.19555392632E+02 -0.88091735095E+02  0.90898619583E+02  0.10566000000E+00 0.  1.
         13    1    4    4    0    0  0.52802359709E+01  0.89692417522E+01 -0.46568224581E+03  0.46579855454E+03  0.10566000000E+00 0. -1.
        -13    1    4    4    0    0  0.37451767461E+01  0.59604865395E+01 -0.33707545386E+03  0.33714896783E+03  0.10566000000E+00 0.  1.
         14    1    4    4    0    0  0.19281577064E+01  0.46256643400E+01 -0.20220094298E+03  0.20226303643E+03  0.00000000000E+00 0. -1.
<mgrwt>
<rscale>  0 0.81830328E+02</rscale>
<asrwt>0</asrwt>
<pdfrwt beam="1">  1        2 0.16839626E+00 0.81830328E+02</pdfrwt>
<pdfrwt beam="2">  1       -1 0.23529323E-03 0.81830328E+02</pdfrwt>
<totfact> 0.33243804E+05</totfact>
</mgrwt>
</event>
<event>
 8    1  0.2603554E-020  0.8335399E+02  0.7818608E-02  0.1319794E+00
         -1   -1    0    0    0  501 -0.00000000000E+00  0.00000000000E+00  0.71324037358E+01  0.71324055165E+01  0.50400000000E-02 0.  1.
          2   -1    0    0  501    0  0.00000000000E+00 -0.00000000000E+00 -0.24353245150E+03  0.24353245152E+03  0.25500000000E-02 0. -1.
         24    2    1    2    0    0 -0.35527136788E-14  0.00000000000E+00 -0.23640004777E+03  0.25066485703E+03  0.83353991908E+02 0.  0.
         66    2    3    3    0    0  0.27146498717E+02 -0.31189483145E+01 -0.21280730214E+03  0.21456376229E+03  0.20000036741E+01 0.  0.
        -13    1    3    3    0    0 -0.27146498717E+02  0.31189483145E+01 -0.23592745633E+02  0.36101094744E+02  0.10566000000E+00 0.  1.
         13    1    4    4    0    0  0.51554962816E+01 -0.55983303877E+00 -0.36964316510E+02  0.37326457293E+02  0.10566000000E+00 0. -1.
        -13    1    4    4    0    0  0.81787513293E+01 -0.66457596113E+00 -0.70375792630E+02  0.70852642765E+02  0.10566000000E+00 0.  1.
        -14    1    4    4    0    0  0.13812251106E+02 -0.18945393146E+01 -0.10546719300E+03  0.10638466223E+03  0.00000000000E+00 0.  1.
<mgrwt>
<rscale>  0 0.83353992E+02</rscale>
<asrwt>0</asrwt>
<pdfrwt beam="1">  1        2 0.37466525E-01 0.83353992E+02</pdfrwt>
<pdfrwt beam="2">  1       -1 0.10972932E-02 0.83353992E+02</pdfrwt>
<totfact> 0.21219817E+05</totfact>
</mgrwt>
</event>
<event>
 8    1  0.2603554E-020  0.7962105E+02  0.7818608E-02  0.1330130E+00
          2   -1    0    0  501    0  0.00000000000E+00  0.00000000000E+00  0.39847019230E+02  0.39847019311E+02  0.25500000000E-02 0. -1.
         -1   -1    0    0    0  501 -0.00000000000E+00 -0.00000000000E+00 -0.39774059414E+02  0.39774059734E+02  0.50400000000E-02 0.  1.
         24    2    1    2    0    0 -0.55511151231E-16  0.00000000000E+00  0.72959815092E-01  0.79621079045E+02  0.79621045617E+02 0.  0.
         66    2    3    3    0    0  0.40886315127E+00  0.39140038297E+02  0.71613223665E+01  0.39842117084E+02  0.19999971886E+01 0.  0.
        -13    1    3    3    0    0 -0.40886315127E+00 -0.39140038297E+02 -0.70883625514E+01  0.39778961961E+02  0.10566000000E+00 0.  1.
         13    1    4    4    0    0  0.47097034736E+00  0.87104579636E+01  0.13457460042E+01  0.88270089695E+01  0.10566000000E+00 0. -1.
        -13    1    4    4    0    0  0.42496854428E+00  0.32468888100E+01  0.72588186532E+00  0.33557344541E+01  0.10566000000E+00 0.  1.
         14    1    4    4    0    0 -0.48707574037E+00  0.27182691523E+02  0.50896944970E+01  0.27659373661E+02  0.00000000000E+00 0. -1.
<mgrwt>
<rscale>  0 0.79621046E+02</rscale>
<asrwt>0</asrwt>
<pdfrwt beam="1">  1        2 0.61303106E-02 0.79621046E+02</pdfrwt>
<pdfrwt beam="2">  1       -1 0.61190861E-02 0.79621046E+02</pdfrwt>
<totfact> 0.14432201E+05</totfact>
</mgrwt>
</event>
<event>
 8    1  0.2603554E-020  0.8067740E+02  0.7818608E-02  0.1327140E+00
          2   -1    0    0  501    0  0.00000000000E+00  0.00000000000E+00  0.35966742682E+02  0.35966742773E+02  0.25500000000E-02 0. -1.
         -1   -1    0    0    0  501 -0.00000000000E+00 -0.00000000000E+00 -0.45242091655E+02  0.45242091936E+02  0.50400000000E-02 0.  1.
         24    2    1    2    0    0  0.00000000000E+00 -0.44408920985E-15 -0.92753489727E+01  0.81208834709E+02  0.80677399166E+02 0.  0.
         66    2    3    3    0    0  0.20301593305E+02  0.30230202909E+01  0.30285481566E+02  0.36640193050E+02  0.20000026593E+01 0.  0.
        -13    1    3    3    0    0 -0.20301593305E+02 -0.30230202909E+01 -0.39560830538E+02  0.44568641659E+02  0.10566000000E+00 0.  1.
         13    1    4    4    0    0  0.62479728907E+01  0.76415342517E+00  0.10378949164E+02  0.12138980414E+02  0.10566000000E+00 0. -1.
        -13    1    4    4    0    0  0.11228237880E+02  0.19953009378E+01  0.16655950595E+02  0.20186292527E+02  0.10566000000E+00 0.  1.
        -14    1    4    4    0    0  0.28253825344E+01  0.26356592791E+00  0.32505818061E+01  0.43149201084E+01  0.00000000000E+00 0.  1.
<mgrwt>
<rscale>  0 0.80677399E+02</rscale>
<asrwt>0</asrwt>
<pdfrwt beam="1">  1        2 0.55333450E-02 0.80677399E+02</pdfrwt>
<pdfrwt beam="2">  1       -1 0.69603218E-02 0.80677399E+02</pdfrwt>
<totfact> 0.13627065E+05</totfact>
</mgrwt>
</event>
<event>
 8    1  0.2603554E-020  0.7882647E+02  0.7818608E-02  0.1332415E+00
          2   -1    0    0  501    0  0.00000000000E+00  0.00000000000E+00  0.35902517331E+03  0.35902517332E+03  0.25500000000E-02 0. -1.
         -1   -1    0    0    0  501 -0.00000000000E+00 -0.00000000000E+00 -0.43267231696E+01  0.43267261051E+01  0.50400000000E-02 0.  1.
         24    2    1    2    0    0  0.00000000000E+00  0.00000000000E+00  0.35469845014E+03  0.36335189942E+03  0.78826469432E+02 0.  0.
         66    2    3    3    0    0 -0.19400860520E+02 -0.16753251465E+02  0.31531253229E+03  0.31635906473E+03  0.19999986384E+01 0.  0.
        -13    1    3    3    0    0  0.19400860520E+02  0.16753251465E+02  0.39385917848E+02  0.46992834691E+02  0.10566000000E+00 0.  1.
         13    1    4    4    0    0 -0.86164373250E+01 -0.72157508699E+01  0.13755942606E+03  0.13801781376E+03  0.10566000000E+00 0. -1.
        -13    1    4    4    0    0 -0.64624827995E+01 -0.52684909905E+01  0.94814433218E+02  0.95180400250E+02  0.10566000000E+00 0.  1.
        -14    1    4    4    0    0 -0.43219403950E+01 -0.42690096044E+01  0.82938673007E+02  0.83160850717E+02  0.00000000000E+00 0.  1.
<mgrwt>
<rscale>  0 0.78826469E+02</rscale>
<asrwt>0</asrwt>
<pdfrwt beam="1">  1        2 0.55234657E-01 0.78826469E+02</pdfrwt>
<pdfrwt beam="2">  1       -1 0.66564977E-03 0.78826469E+02</pdfrwt>
<totfact> 0.28266188E+05</totfact>
</mgrwt>
</event>
<event>
 8    1  0.2603554E-020  0.8004213E+02  0.7818608E-02  0.1328932E+00
         -1   -1    0    0    0  501 -0.00000000000E+00  0.00000000000E+00  0.18561511349E+02  0.18561512034E+02  0.50400000000E-02 0.  1.
          2   -1    0    0  501    0  0.00000000000E+00 -0.00000000000E+00 -0.86290679662E+02  0.86290679700E+02  0.25500000000E-02 0. -1.
         24    2    1    2    0    0 -0.35527136788E-14  0.35527136788E-14 -0.67729168313E+02  0.10485219173E+03  0.80042125603E+02 0.  0.
         66    2    3    3    0    0  0.31036902967E+02 -0.24576961146E+02 -0.41337978566E+02  0.57272548763E+02  0.20000012331E+01 0.  0.
        -13    1    3    3    0    0 -0.31036902967E+02  0.24576961146E+02 -0.26391189747E+02  0.47579642971E+02  0.10566000000E+00 0.  1.
         13    1    4    4    0    0  0.56775215537E+01 -0.48743948601E+01 -0.76758316348E+01  0.10720239343E+02  0.10566000000E+00 0. -1.
        -13    1    4    4    0    0  0.21535492097E+02 -0.16370784467E+02 -0.27565445546E+02  0.38621819689E+02  0.10566000000E+00 0.  1.
        -14    1    4    4    0    0  0.38238893156E+01 -0.33317818192E+01 -0.60967013851E+01  0.79304897307E+01  0.00000000000E+00 0.  1.
<mgrwt>
<rscale>  0 0.80042126E+02</rscale>
<asrwt>0</asrwt>
<pdfrwt beam="1">  1        2 0.13275489E-01 0.80042126E+02</pdfrwt>
<pdfrwt beam="2">  1       -1 0.28556172E-02 0.80042126E+02</pdfrwt>
<totfact> 0.17004333E+05</totfact>
</mgrwt>
</event>
<event>
 8    1  0.2603554E-020  0.7955450E+02  0.7818608E-02  0.1330320E+00
         -1   -1    0    0    0  501 -0.00000000000E+00  0.00000000000E+00  0.11208535956E+03  0.11208535967E+03  0.50400000000E-02 0.  1.
          2   -1    0    0  501    0  0.00000000000E+00 -0.00000000000E+00 -0.14116291632E+02  0.14116291863E+02  0.25500000000E-02 0. -1.
         24    2    1    2    0    0  0.00000000000E+00  0.00000000000E+00  0.97969067923E+02  0.12620165153E+03  0.79554500687E+02 0.  0.
         66    2    3    3    0    0  0.16535374155E+02 -0.35643823638E+02  0.58576260805E+02  0.70562589905E+02  0.20000005512E+01 0.  0.
        -13    1    3    3    0    0 -0.16535374155E+02  0.35643823638E+02  0.39392807118E+02  0.55639061627E+02  0.10566000000E+00 0.  1.
         13    1    4    4    0    0  0.71432622058E+01 -0.13980160625E+02  0.23829466477E+02  0.28536392952E+02  0.10566000000E+00 0. -1.
        -13    1    4    4    0    0  0.44185770786E+01 -0.11605420572E+02  0.18062764667E+02  0.21919950764E+02  0.10566000000E+00 0.  1.
        -14    1    4    4    0    0  0.49735348701E+01 -0.10058242441E+02  0.16684029661E+02  0.20106246190E+02  0.00000000000E+00 0.  1.
<mgrwt>
<rscale>  0 0.79554501E+02</rscale>
<asrwt>0</asrwt>
<pdfrwt beam="1">  1        2 0.21717373E-02 0.79554501E+02</pdfrwt>
<pdfrwt beam="2">  1       -1 0.17243901E-01 0.79554501E+02</pdfrwt>
<totfact> 0.11724061E+05</totfact>
</mgrwt>
</event>
<event>
 8    1  0.2603554E-020  0.7948422E+02  0.7818608E-02  0.1330522E+00
         -1   -1    0    0    0  501 -0.00000000000E+00  0.00000000000E+00  0.57715377282E+01  0.57715399288E+01  0.50400000000E-02 0.  1.
          2   -1    0    0  501    0  0.00000000000E+00 -0.00000000000E+00 -0.27365928718E+03  0.27365928719E+03  0.25500000000E-02 0. -1.
         24    2    1    2    0    0  0.88817841970E-15  0.00000000000E+00 -0.26788774945E+03  0.27943082712E+03  0.79484217546E+02 0.  0.
         66    2    3    3    0    0  0.61810884351E+01  0.32566370606E+02 -0.21094239483E+03  0.21354032003E+03  0.19999973581E+01 0.  0.
        -13    1    3    3    0    0 -0.61810884351E+01 -0.32566370606E+02 -0.56945354618E+02  0.65890507095E+02  0.10566000000E+00 0.  1.
         13    1    4    4    0    0  0.26265462523E+01  0.17224520347E+02 -0.11206701637E+03  0.11341344791E+03  0.10566000000E+00 0. -1.
        -13    1    4    4    0    0  0.36382389762E+00  0.26990235149E+01 -0.18899473760E+02  0.19094982802E+02  0.10566000000E+00 0.  1.
        -14    1    4    4    0    0  0.31907182852E+01  0.12642826744E+02 -0.79975904709E+02  0.81031889311E+02  0.00000000000E+00 0.  1.
<mgrwt>
<rscale>  0 0.79484218E+02</rscale>
<asrwt>0</asrwt>
<pdfrwt beam="1">  1        2 0.42101419E-01 0.79484218E+02</pdfrwt>
<pdfrwt beam="2">  1       -1 0.88792927E-03 0.79484218E+02</pdfrwt>
<totfact> 0.25081905E+05</totfact>
</mgrwt>
</event>
<event>
 8    1  0.2603554E-020  0.8491489E+02  0.7818608E-02  0.1315655E+00
         -1   -1    0    0    0  501 -0.00000000000E+00  0.00000000000E+00  0.67971270289E+01  0.67971288974E+01  0.50400000000E-02 0.  1.
          2   -1    0    0  501    0  0.00000000000E+00 -0.00000000000E+00 -0.26520537053E+03  0.26520537054E+03  0.25500000000E-02 0. -1.
         24    2    1    2    0    0  0.00000000000E+00  0.00000000000E+00 -0.25840824350E+03  0.27200249944E+03  0.84914894995E+02 0.  0.
         66    2    3    3    0    0 -0.22243175396E+02 -0.33130130795E+02 -0.17550279578E+03  0.17999332140E+03  0.20000006131E+01 0.  0.
        -13    1    3    3    0    0  0.22243175396E+02  0.33130130795E+02 -0.82905447714E+02  0.92009178036E+02  0.10566000000E+00 0.  1.
         13    1    4    4    0    0 -0.68849618283E+01 -0.10041077696E+02 -0.50692559899E+02  0.52134180092E+02  0.10566000000E+00 0. -1.
        -13    1    4    4    0    0 -0.65975983152E+01 -0.10733318813E+02 -0.54994896286E+02  0.56419697073E+02  0.10566000000E+00 0.  1.
         14    1    4    4    0    0 -0.87606152529E+01 -0.12355734286E+02 -0.69815339598E+02  0.71439444234E+02  0.00000000000E+00 0. -1.
<mgrwt>
<rscale>  0 0.84914895E+02</rscale>
<asrwt>0</asrwt>
<pdfrwt beam="1">  1        2 0.40800818E-01 0.84914895E+02</pdfrwt>
<pdfrwt beam="2">  1       -1 0.10457122E-02 0.84914895E+02</pdfrwt>
<totfact> 0.20837264E+05</totfact>
</mgrwt>
</event>
<event>
 8    1  0.2603554E-020  0.7975270E+02  0.7818608E-02  0.1329755E+00
          2   -1    0    0  501    0  0.00000000000E+00  0.00000000000E+00  0.11879226907E+03  0.11879226909E+03  0.25500000000E-02 0. -1.
         -1   -1    0    0    0  501 -0.00000000000E+00 -0.00000000000E+00 -0.13385746334E+02  0.13385747283E+02  0.50400000000E-02 0.  1.
         24    2    1    2    0    0 -0.17763568394E-14  0.00000000000E+00  0.10540652273E+03  0.13217801638E+03  0.79752698880E+02 0.  0.
         66    2    3    3    0    0  0.12286950906E+02  0.37253195264E+02  0.41093681946E+02  0.56845935734E+02  0.19999984037E+01 0.  0.
        -13    1    3    3    0    0 -0.12286950906E+02 -0.37253195264E+02  0.64312840785E+02  0.75332080642E+02  0.10566000000E+00 0.  1.
         13    1    4    4    0    0  0.27523780235E+01  0.67734258720E+01  0.79953888702E+01  0.10834772266E+02  0.10566000000E+00 0. -1.
        -13    1    4    4    0    0  0.60065411358E+00  0.30739928770E+01  0.34112928815E+01  0.46323105176E+01  0.10566000000E+00 0.  1.
         14    1    4    4    0    0  0.89339187693E+01  0.27405776515E+02  0.29687000195E+02  0.41378852951E+02  0.00000000000E+00 0. -1.
<mgrwt>
<rscale>  0 0.79752699E+02</rscale>
<asrwt>0</asrwt>
<pdfrwt beam="1">  1        2 0.18275733E-01 0.79752699E+02</pdfrwt>
<pdfrwt beam="2">  1       -1 0.20593458E-02 0.79752699E+02</pdfrwt>
<totfact> 0.18784673E+05</totfact>
</mgrwt>
</event>
<event>
 8    1  0.2603554E-020  0.7192239E+02  0.7818608E-02  0.1353675E+00
          2   -1    0    0  501    0  0.00000000000E+00  0.00000000000E+00  0.23550582729E+03  0.23550582731E+03  0.25500000000E-02 0. -1.
         -1   -1    0    0    0  501 -0.00000000000E+00 -0.00000000000E+00 -0.54911900176E+01  0.54911923305E+01  0.50400000000E-02 0.  1.
         24    2    1    2    0    0  0.00000000000E+00  0.00000000000E+00  0.23001463728E+03  0.24099701964E+03  0.71922389512E+02 0.  0.
         66    2    3    3    0    0 -0.20737621753E+02  0.18147353893E+02  0.19236991091E+03  0.19434391689E+03  0.19999993680E+01 0.  0.
        -13    1    3    3    0    0  0.20737621753E+02 -0.18147353893E+02  0.37644726366E+02  0.46653102753E+02  0.10566000000E+00 0.  1.
         13    1    4    4    0    0 -0.11820669493E+02  0.96784543677E+01  0.10233171569E+03  0.10346589731E+03  0.10566000000E+00 0. -1.
        -13    1    4    4    0    0 -0.35847370003E+01  0.39639101637E+01  0.38718846525E+02  0.39086099362E+02  0.10566000000E+00 0.  1.
         14    1    4    4    0    0 -0.53322152596E+01  0.45049893612E+01  0.51319348693E+02  0.51791920209E+02  0.00000000000E+00 0. -1.
<mgrwt>
<rscale>  0 0.71922390E+02</rscale>
<asrwt>0</asrwt>
<pdfrwt beam="1">  1        2 0.36231676E-01 0.71922390E+02</pdfrwt>
<pdfrwt beam="2">  1       -1 0.84479840E-03 0.71922390E+02</pdfrwt>
<totfact> 0.30864196E+05</totfact>
</mgrwt>
</event>
<event>
 8    1  0.2603554E-020  0.8007829E+02  0.7818608E-02  0.1328829E+00
         -1   -1    0    0    0  501 -0.00000000000E+00  0.00000000000E+00  0.32378696381E+02  0.32378696774E+02  0.50400000000E-02 0.  1.
          2   -1    0    0  501    0  0.00000000000E+00 -0.00000000000E+00 -0.49511967700E+02  0.49511967765E+02  0.25500000000E-02 0. -1.
         24    2    1    2    0    0  0.17763568394E-14  0.17763568394E-14 -0.17133271318E+02  0.81890664539E+02  0.80078286399E+02 0.  0.
         66    2    3    3    0    0 -0.12625811955E+02  0.13219612524E+02 -0.44971920628E+02  0.48586447956E+02  0.19999992955E+01 0.  0.
        -13    1    3    3    0    0  0.12625811955E+02 -0.13219612524E+02  0.27838649310E+02  0.33304216583E+02  0.10566000000E+00 0.  1.
         13    1    4    4    0    0 -0.82636502110E+01  0.91350576952E+01 -0.29107766076E+02  0.31607125841E+02  0.10566000000E+00 0. -1.
        -13    1    4    4    0    0 -0.10732760464E+01  0.68746058325E+00 -0.25983961253E+01  0.28960921920E+01  0.10566000000E+00 0.  1.
        -14    1    4    4    0    0 -0.32888856973E+01  0.33970942454E+01 -0.13265758426E+02  0.14083229923E+02  0.00000000000E+00 0.  1.
<mgrwt>
<rscale>  0 0.80078286E+02</rscale>
<asrwt>0</asrwt>
<pdfrwt beam="1">  1        2 0.76172258E-02 0.80078286E+02</pdfrwt>
<pdfrwt beam="2">  1       -1 0.49813379E-02 0.80078286E+02</pdfrwt>
<totfact> 0.14871258E+05</totfact>
</mgrwt>
</event>
<event>
 8    1  0.2603554E-020  0.8018682E+02  0.7818608E-02  0.1328522E+00
          2   -1    0    0  501    0  0.00000000000E+00  0.00000000000E+00  0.11241104338E+02  0.11241104627E+02  0.25500000000E-02 0. -1.
         -1   -1    0    0    0  501 -0.00000000000E+00 -0.00000000000E+00 -0.14300030419E+03  0.14300030427E+03  0.50400000000E-02 0.  1.
         24    2    1    2    0    0 -0.44408920985E-15  0.35527136788E-14 -0.13175919985E+03  0.15424140890E+03  0.80186816094E+02 0.  0.
         66    2    3    3    0    0  0.36014457308E+01  0.31341256586E+02 -0.18403867159E+02  0.36577959229E+02  0.19999998000E+01 0.  0.
        -13    1    3    3    0    0 -0.36014457308E+01 -0.31341256586E+02 -0.11335533269E+03  0.11766344967E+03  0.10566000000E+00 0.  1.
         13    1    4    4    0    0  0.21677264725E+01  0.15350860850E+02 -0.91137459531E+01  0.17983867666E+02  0.10566000000E+00 0. -1.
        -13    1    4    4    0    0  0.50983829089E+00  0.99607604628E+01 -0.51863788329E+01  0.11242169431E+02  0.10566000000E+00 0.  1.
        -14    1    4    4    0    0  0.92388096744E+00  0.60296352735E+01 -0.41037423726E+01  0.73519221319E+01  0.00000000000E+00 0.  1.
<mgrwt>
<rscale>  0 0.80186816E+02</rscale>
<asrwt>0</asrwt>
<pdfrwt beam="1">  1        2 0.17294008E-02 0.80186816E+02</pdfrwt>
<pdfrwt beam="2">  1       -1 0.22000046E-01 0.80186816E+02</pdfrwt>
<totfact> 0.10853764E+05</totfact>
</mgrwt>
</event>
<event>
 8    1  0.2603554E-020  0.8099440E+02  0.7818608E-02  0.1326253E+00
         -1   -1    0    0    0  501 -0.00000000000E+00  0.00000000000E+00  0.25897399783E+02  0.25897400273E+02  0.50400000000E-02 0.  1.
          2   -1    0    0  501    0  0.00000000000E+00 -0.00000000000E+00 -0.63327720810E+02  0.63327720861E+02  0.25500000000E-02 0. -1.
         24    2    1    2    0    0  0.00000000000E+00  0.35527136788E-14 -0.37430321027E+02  0.89225121134E+02  0.80994402950E+02 0.  0.
         66    2    3    3    0    0 -0.20131870861E+02 -0.31818568123E+02 -0.35077534384E+02  0.51498999272E+02  0.20000014317E+01 0.  0.
        -13    1    3    3    0    0  0.20131870861E+02  0.31818568123E+02 -0.23527866428E+01  0.37726121863E+02  0.10566000000E+00 0.  1.
         13    1    4    4    0    0 -0.12563783479E+02 -0.20253059308E+02 -0.22171330347E+02  0.32551714548E+02  0.10566000000E+00 0. -1.
        -13    1    4    4    0    0 -0.52127523106E+01 -0.74493486876E+01 -0.91264248594E+01  0.12882871468E+02  0.10566000000E+00 0.  1.
         14    1    4    4    0    0 -0.23553350723E+01 -0.41161601270E+01 -0.37797791783E+01  0.60644132552E+01  0.00000000000E+00 0. -1.
<mgrwt>
<rscale>  0 0.80994403E+02</rscale>
<asrwt>0</asrwt>
<pdfrwt beam="1">  1        2 0.97427262E-02 0.80994403E+02</pdfrwt>
<pdfrwt beam="2">  1       -1 0.39842154E-02 0.80994403E+02</pdfrwt>
<totfact> 0.15242862E+05</totfact>
</mgrwt>
</event>
<event>
 8    1  0.2603554E-020  0.8117268E+02  0.7818608E-02  0.1325756E+00
         -1   -1    0    0    0  501 -0.00000000000E+00  0.00000000000E+00  0.11055849949E+02  0.11055851098E+02  0.50400000000E-02 0.  1.
          2   -1    0    0  501    0  0.00000000000E+00 -0.00000000000E+00 -0.14899360345E+03  0.14899360347E+03  0.25500000000E-02 0. -1.
         24    2    1    2    0    0  0.00000000000E+00  0.35527136788E-14 -0.13793775350E+03  0.16004945457E+03  0.81172680547E+02 0.  0.
         66    2    3    3    0    0 -0.17692969286E+02  0.12398402170E+02 -0.13669778201E+03  0.13840897787E+03  0.20000022449E+01 0.  0.
        -13    1    3    3    0    0  0.17692969286E+02 -0.12398402170E+02 -0.12399714889E+01  0.21640476701E+02  0.10566000000E+00 0.  1.
         13    1    4    4    0    0 -0.18521943615E+01  0.94756969509E+00 -0.15566005664E+02  0.15704782986E+02  0.10566000000E+00 0. -1.
        -13    1    4    4    0    0 -0.77823763198E+00  0.43761949509E+00 -0.69328802454E+01  0.69909339267E+01  0.10566000000E+00 0.  1.
         14    1    4    4    0    0 -0.15062537293E+02  0.11013212980E+02 -0.11419889610E+03  0.11571326096E+03  0.00000000000E+00 0. -1.
<mgrwt>
<rscale>  0 0.81172681E+02</rscale>
<asrwt>0</asrwt>
<pdfrwt beam="1">  1        2 0.22922091E-01 0.81172681E+02</pdfrwt>
<pdfrwt beam="2">  1       -1 0.17009002E-02 0.81172681E+02</pdfrwt>
<totfact> 0.19228917E+05</totfact>
</mgrwt>
</event>
<event>
 8    1  0.2603554E-020  0.7984142E+02  0.7818608E-02  0.1329502E+00
         -1   -1    0    0    0  501 -0.00000000000E+00  0.00000000000E+00  0.28053163202E+03  0.28053163207E+03  0.50400000000E-02 0.  1.
          2   -1    0    0  501    0  0.00000000000E+00 -0.00000000000E+00 -0.56808680405E+01  0.56808686129E+01  0.25500000000E-02 0. -1.
         24    2    1    2    0    0 -0.35527136788E-14  0.35527136788E-14  0.27485076398E+03  0.28621250068E+03  0.79841424614E+02 0.  0.
         66    2    3    3    0    0 -0.31758969071E+02  0.19750079414E+02  0.87715357059E+02  0.95376525452E+02  0.19999974773E+01 0.  0.
        -13    1    3    3    0    0  0.31758969071E+02 -0.19750079414E+02  0.18713540692E+03  0.19083597523E+03  0.10566000000E+00 0.  1.
         13    1    4    4    0    0 -0.12374775246E+02  0.72713700219E+01  0.33253029794E+02  0.36218545511E+02  0.10566000000E+00 0. -1.
        -13    1    4    4    0    0 -0.53981630077E+01  0.33124925134E+01  0.13421113287E+02  0.14840829370E+02  0.10566000000E+00 0.  1.
        -14    1    4    4    0    0 -0.13986030817E+02  0.91662168789E+01  0.41041213978E+02  0.44317150570E+02  0.00000000000E+00 0.  1.
<mgrwt>
<rscale>  0 0.79841425E+02</rscale>
<asrwt>0</asrwt>
<pdfrwt beam="1">  1        2 0.87397954E-03 0.79841425E+02</pdfrwt>
<pdfrwt beam="2">  1       -1 0.43158723E-01 0.79841425E+02</pdfrwt>
<totfact> 0.89206981E+04</totfact>
</mgrwt>
</event>
<event>
 8    1  0.2603554E-020  0.8482012E+02  0.7818608E-02  0.1315904E+00
         -1   -1    0    0    0  501 -0.00000000000E+00  0.00000000000E+00  0.10488632399E+02  0.10488633609E+02  0.50400000000E-02 0.  1.
          2   -1    0    0  501    0  0.00000000000E+00 -0.00000000000E+00 -0.17148214327E+03  0.17148214329E+03  0.25500000000E-02 0. -1.
         24    2    1    2    0    0  0.00000000000E+00  0.00000000000E+00 -0.16099351088E+03  0.18197077690E+03  0.84820122038E+02 0.  0.
         66    2    3    3    0    0 -0.29629040314E+01  0.41545479029E+02 -0.63675614677E+02  0.76114318845E+02  0.20000001482E+01 0.  0.
        -13    1    3    3    0    0  0.29629040314E+01 -0.41545479029E+02 -0.97317896199E+02  0.10585645806E+03  0.10566000000E+00 0.  1.
         13    1    4    4    0    0 -0.15643706495E+01  0.21361409506E+02 -0.32148872358E+02  0.38630534937E+02  0.10566000000E+00 0. -1.
        -13    1    4    4    0    0 -0.25160213253E+00  0.10527234098E+02 -0.17222856772E+02  0.20187221721E+02  0.10566000000E+00 0.  1.
        -14    1    4    4    0    0 -0.11469312494E+01  0.96568354249E+01 -0.14303885548E+02  0.17296562187E+02  0.00000000000E+00 0.  1.
<mgrwt>
<rscale>  0 0.84820122E+02</rscale>
<asrwt>0</asrwt>
<pdfrwt beam="1">  1        2 0.26381866E-01 0.84820122E+02</pdfrwt>
<pdfrwt beam="2">  1       -1 0.16136360E-02 0.84820122E+02</pdfrwt>
<totfact> 0.17919057E+05</totfact>
</mgrwt>
</event>
<event>
 8    1  0.2603554E-020  0.7882428E+02  0.7818608E-02  0.1332421E+00
          2   -1    0    0  501    0  0.00000000000E+00  0.00000000000E+00  0.35229716000E+02  0.35229716093E+02  0.25500000000E-02 0. -1.
         -1   -1    0    0    0  501 -0.00000000000E+00 -0.00000000000E+00 -0.44091095222E+02  0.44091095510E+02  0.50400000000E-02 0.  1.
         24    2    1    2    0    0  0.00000000000E+00  0.00000000000E+00 -0.88613792215E+01  0.79320811602E+02  0.78824279962E+02 0.  0.
         66    2    3    3    0    0 -0.35071122595E+02  0.24869684691E+01  0.13430564076E+02  0.37690167213E+02  0.20000002101E+01 0.  0.
        -13    1    3    3    0    0  0.35071122595E+02 -0.24869684691E+01 -0.22291943298E+02  0.41630644390E+02  0.10566000000E+00 0.  1.
         13    1    4    4    0    0 -0.16642865005E+02  0.14888247486E+01  0.60451148435E+01  0.17769528194E+02  0.10566000000E+00 0. -1.
        -13    1    4    4    0    0 -0.81644732427E+01  0.10556281657E+01  0.30830980855E+01  0.87914522120E+01  0.10566000000E+00 0.  1.
        -14    1    4    4    0    0 -0.10263784347E+02 -0.57484445262E-01  0.43023511474E+01  0.11129186807E+02  0.00000000000E+00 0.  1.
<mgrwt>
<rscale>  0 0.78824280E+02</rscale>
<asrwt>0</asrwt>
<pdfrwt beam="1">  1        2 0.54199563E-02 0.78824280E+02</pdfrwt>
<pdfrwt beam="2">  1       -1 0.67832454E-02 0.78824280E+02</pdfrwt>
<totfact> 0.14475404E+05</totfact>
</mgrwt>
</event>
<event>
 8    1  0.2603554E-020  0.8151408E+02  0.7818608E-02  0.1324809E+00
         -1   -1    0    0    0  501 -0.00000000000E+00  0.00000000000E+00  0.25237033610E+02  0.25237034113E+02  0.50400000000E-02 0.  1.
          2   -1    0    0  501    0  0.00000000000E+00 -0.00000000000E+00 -0.65821378978E+02  0.65821379027E+02  0.25500000000E-02 0. -1.
         24    2    1    2    0    0  0.00000000000E+00  0.00000000000E+00 -0.40584345368E+02  0.91058413140E+02  0.81514081696E+02 0.  0.
         66    2    3    3    0    0 -0.40702041811E+02 -0.14915421539E+01 -0.20863441245E+02  0.45805721187E+02  0.20000018192E+01 0.  0.
        -13    1    3    3    0    0  0.40702041811E+02  0.14915421539E+01 -0.19720904122E+02  0.45252691953E+02  0.10566000000E+00 0.  1.
         13    1    4    4    0    0 -0.13935040629E+02  0.30252629355E+00 -0.69959755823E+01  0.15595887852E+02  0.10566000000E+00 0. -1.
        -13    1    4    4    0    0 -0.40453166382E+01 -0.52901849822E+00 -0.20195654415E+01  0.45534883203E+01  0.10566000000E+00 0.  1.
         14    1    4    4    0    0 -0.22721684544E+02 -0.12650499492E+01 -0.11847900222E+02  0.25656345015E+02  0.00000000000E+00 0. -1.
<mgrwt>
<rscale>  0 0.81514082E+02</rscale>
<asrwt>0</asrwt>
<pdfrwt beam="1">  1        2 0.10126366E-01 0.81514082E+02</pdfrwt>
<pdfrwt beam="2">  1       -1 0.38826206E-02 0.81514082E+02</pdfrwt>
<totfact> 0.15118626E+05</totfact>
</mgrwt>
</event>
<event>
 8    1  0.2603554E-020  0.7979828E+02  0.7818608E-02  0.1329625E+00
         -1   -1    0    0    0  501 -0.00000000000E+00  0.00000000000E+00  0.17714330625E+01  0.17714402323E+01  0.50400000000E-02 0.  1.
          2   -1    0    0  501    0  0.00000000000E+00 -0.00000000000E+00 -0.89867242622E+03  0.89867242622E+03  0.25500000000E-02 0. -1.
         24    2    1    2    0    0  0.00000000000E+00  0.35527136788E-14 -0.89690099316E+03  0.90044386646E+03  0.79798277620E+02 0.  0.
         66    2    3    3    0    0 -0.92546467402E+01  0.16046619725E+02 -0.84716913359E+03  0.84737399260E+03  0.19999844350E+01 0.  0.
        -13    1    3    3    0    0  0.92546467402E+01 -0.16046619725E+02 -0.49731859564E+02  0.53069873852E+02  0.10566000000E+00 0.  1.
         13    1    4    4    0    0 -0.13404337257E+01  0.21101944459E+01 -0.13720460378E+03  0.13722741762E+03  0.10566000000E+00 0. -1.
        -13    1    4    4    0    0 -0.30615592646E+01  0.41931109122E+01 -0.22581961540E+03  0.22587931554E+03  0.10566000000E+00 0.  1.
         14    1    4    4    0    0 -0.48526537498E+01  0.97433143671E+01 -0.48414491441E+03  0.48426725945E+03  0.00000000000E+00 0. -1.
<mgrwt>
<rscale>  0 0.79798278E+02</rscale>
<asrwt>0</asrwt>
<pdfrwt beam="1">  1        2 0.13825693E+00 0.79798278E+02</pdfrwt>
<pdfrwt beam="2">  1       -1 0.27252943E-03 0.79798278E+02</pdfrwt>
<totfact> 0.35170647E+05</totfact>
</mgrwt>
</event>
<event>
 8    1  0.2603554E-020  0.8058451E+02  0.7818608E-02  0.1327401E+00
          2   -1    0    0  501    0  0.00000000000E+00  0.00000000000E+00  0.34809078020E+02  0.34809078113E+02  0.25500000000E-02 0. -1.
         -1   -1    0    0    0  501 -0.00000000000E+00 -0.00000000000E+00 -0.46639146881E+02  0.46639147154E+02  0.50400000000E-02 0.  1.
         24    2    1    2    0    0  0.00000000000E+00  0.00000000000E+00 -0.11830068862E+02  0.81448225267E+02  0.80584507629E+02 0.  0.
         66    2    3    3    0    0  0.35924862915E+01  0.35884318785E+02  0.12186182492E+02  0.38119461316E+02  0.19999987257E+01 0.  0.
        -13    1    3    3    0    0 -0.35924862915E+01 -0.35884318785E+02 -0.24016251354E+02  0.43328763951E+02  0.10566000000E+00 0.  1.
         13    1    4    4    0    0  0.90315594689E+00  0.11346193482E+02  0.45445665229E+01  0.12256265586E+02  0.10566000000E+00 0. -1.
        -13    1    4    4    0    0  0.16045123397E+01  0.98698925570E+01  0.31437700628E+01  0.10482542305E+02  0.10566000000E+00 0.  1.
         14    1    4    4    0    0  0.10848180050E+01  0.14668232745E+02  0.44978459066E+01  0.15380653425E+02  0.00000000000E+00 0. -1.
<mgrwt>
<rscale>  0 0.80584508E+02</rscale>
<asrwt>0</asrwt>
<pdfrwt beam="1">  1        2 0.53552428E-02 0.80584508E+02</pdfrwt>
<pdfrwt beam="2">  1       -1 0.71752534E-02 0.80584508E+02</pdfrwt>
<totfact> 0.13580754E+05</totfact>
</mgrwt>
</event>
<event>
 8    1  0.2603554E-020  0.7978954E+02  0.7818608E-02  0.1329650E+00
         -1   -1    0    0    0  501 -0.00000000000E+00  0.00000000000E+00  0.33790792655E+02  0.33790793031E+02  0.50400000000E-02 0.  1.
          2   -1    0    0  501    0  0.00000000000E+00 -0.00000000000E+00 -0.47101375421E+02  0.47101375490E+02  0.25500000000E-02 0. -1.
         24    2    1    2    0    0  0.00000000000E+00 -0.17763568394E-14 -0.13310582766E+02  0.80892168521E+02  0.79789543892E+02 0.  0.
         66    2    3    3    0    0  0.18076905608E+02  0.11937215233E+02 -0.40593129718E+02  0.46055117037E+02  0.20000002753E+01 0.  0.
        -13    1    3    3    0    0 -0.18076905608E+02 -0.11937215233E+02  0.27282546952E+02  0.34837051484E+02  0.10566000000E+00 0.  1.
         13    1    4    4    0    0  0.60805840590E+01  0.36182842265E+01 -0.12259822179E+02  0.14155560290E+02  0.10566000000E+00 0. -1.
        -13    1    4    4    0    0  0.34502524322E+01  0.20681929193E+01 -0.67349432820E+01  0.78455266773E+01  0.10566000000E+00 0.  1.
         14    1    4    4    0    0  0.85460691165E+01  0.62507380876E+01 -0.21598364257E+02  0.24054030069E+02  0.00000000000E+00 0. -1.
<mgrwt>
<rscale>  0 0.79789544E+02</rscale>
<asrwt>0</asrwt>
<pdfrwt beam="1">  1        2 0.72463654E-02 0.79789544E+02</pdfrwt>
<pdfrwt beam="2">  1       -1 0.51985836E-02 0.79789544E+02</pdfrwt>
<totfact> 0.14858731E+05</totfact>
</mgrwt>
</event>
<event>
 8    1  0.2603554E-020  0.8450417E+02  0.7818608E-02  0.1316734E+00
          2   -1    0    0  501    0  0.00000000000E+00  0.00000000000E+00  0.23161404884E+02  0.23161405024E+02  0.25500000000E-02 0. -1.
         -1   -1    0    0    0  501 -0.00000000000E+00 -0.00000000000E+00 -0.77078166766E+02  0.77078166931E+02  0.50400000000E-02 0.  1.
         24    2    1    2    0    0 -0.35527136788E-14  0.00000000000E+00 -0.53916761882E+02  0.10023957195E+03  0.84504168973E+02 0.  0.
         66    2    3    3    0    0  0.29949720080E+02 -0.15955388120E+02  0.28396777814E+01  0.34111932119E+02  0.20000000241E+01 0.  0.
        -13    1    3    3    0    0 -0.29949720080E+02  0.15955388120E+02 -0.56756439664E+02  0.66127639836E+02  0.10566000000E+00 0.  1.
         13    1    4    4    0    0  0.17169740237E+02 -0.98347121472E+01  0.11283692645E+01  0.19819332079E+02  0.10566000000E+00 0. -1.
        -13    1    4    4    0    0  0.47365672976E+01 -0.18979532215E+01  0.71619791370E+00  0.51537752845E+01  0.10566000000E+00 0.  1.
         14    1    4    4    0    0  0.80434125454E+01 -0.42227227515E+01  0.99511060323E+00  0.91388247562E+01  0.00000000000E+00 0. -1.
<mgrwt>
<rscale>  0 0.84504169E+02</rscale>
<asrwt>0</asrwt>
<pdfrwt beam="1">  1        2 0.35632931E-02 0.84504169E+02</pdfrwt>
<pdfrwt beam="2">  1       -1 0.11858179E-01 0.84504169E+02</pdfrwt>
<totfact> 0.10931857E+05</totfact>
</mgrwt>
</event>
<event>
 8    1  0.2603554E-020  0.8096428E+02  0.7818608E-02  0.1326337E+00
         -1   -1    0    0    0  501 -0.00000000000E+00  0.00000000000E+00  0.93307913584E+02  0.93307913720E+02  0.50400000000E-02 0.  1.
          2   -1    0    0  501    0  0.00000000000E+00 -0.00000000000E+00 -0.17563394174E+02  0.17563394359E+02  0.25500000000E-02 0. -1.
         24    2    1    2    0    0  0.00000000000E+00 -0.35527136788E-14  0.75744519410E+02  0.11087130808E+03  0.80964280609E+02 0.  0.
         66    2    3    3    0    0  0.23887387934E+02  0.25900800616E+02  0.10667599018E+02  0.36868095266E+02  0.20000012317E+01 0.  0.
        -13    1    3    3    0    0 -0.23887387934E+02 -0.25900800616E+02  0.65076920392E+02  0.74003212813E+02  0.10566000000E+00 0.  1.
         13    1    4    4    0    0  0.58489838767E+01  0.69170014882E+01  0.23510990136E+01  0.93591854658E+01  0.10566000000E+00 0. -1.
        -13    1    4    4    0    0  0.14795273831E+02  0.16138494210E+02  0.66237580334E+01  0.22874362453E+02  0.10566000000E+00 0.  1.
        -14    1    4    4    0    0  0.32431302268E+01  0.28453049170E+01  0.16927419707E+01  0.46345473477E+01  0.00000000000E+00 0.  1.
<mgrwt>
<rscale>  0 0.80964281E+02</rscale>
<asrwt>0</asrwt>
<pdfrwt beam="1">  1        2 0.27020607E-02 0.80964281E+02</pdfrwt>
<pdfrwt beam="2">  1       -1 0.14355064E-01 0.80964281E+02</pdfrwt>
<totfact> 0.11675548E+05</totfact>
</mgrwt>
</event>
<event>
 8    1  0.2603554E-020  0.8029369E+02  0.7818608E-02  0.1328220E+00
          2   -1    0    0  501    0  0.00000000000E+00  0.00000000000E+00  0.84482040675E+01  0.84482044523E+01  0.25500000000E-02 0. -1.
         -1   -1    0    0    0  501 -0.00000000000E+00 -0.00000000000E+00 -0.19078244112E+03  0.19078244118E+03  0.50400000000E-02 0.  1.
         24    2    1    2    0    0 -0.71054273576E-14  0.88817841970E-15 -0.18233423705E+03  0.19923064563E+03  0.80293686925E+02 0.  0.
         66    2    3    3    0    0  0.26778234524E+02 -0.54507860137E+01 -0.18332358167E+02  0.32967563884E+02  0.20000000287E+01 0.  0.
        -13    1    3    3    0    0 -0.26778234524E+02  0.54507860137E+01 -0.16400187888E+03  0.16626308175E+03  0.10566000000E+00 0.  1.
         13    1    4    4    0    0  0.10488260233E+02 -0.22714926494E+01 -0.71779944281E+01  0.12911159886E+02  0.10566000000E+00 0. -1.
        -13    1    4    4    0    0  0.10814639060E+02 -0.17793542360E+01 -0.81295383476E+01  0.13646357656E+02  0.10566000000E+00 0.  1.
         14    1    4    4    0    0  0.54753352316E+01 -0.13999391283E+01 -0.30248253911E+01  0.64100463421E+01  0.00000000000E+00 0. -1.
<mgrwt>
<rscale>  0 0.80293687E+02</rscale>
<asrwt>0</asrwt>
<pdfrwt beam="1">  1        2 0.12997239E-02 0.80293687E+02</pdfrwt>
<pdfrwt beam="2">  1       -1 0.29351142E-01 0.80293687E+02</pdfrwt>
<totfact> 0.10007775E+05</totfact>
</mgrwt>
</event>
<event>
 8    1  0.2603554E-020  0.7543541E+02  0.7818608E-02  0.1342528E+00
         -1   -1    0    0    0  501 -0.00000000000E+00  0.00000000000E+00  0.98653075697E+01  0.98653088571E+01  0.50400000000E-02 0.  1.
          2   -1    0    0  501    0  0.00000000000E+00 -0.00000000000E+00 -0.14420486557E+03  0.14420486559E+03  0.25500000000E-02 0. -1.
         24    2    1    2    0    0  0.00000000000E+00  0.00000000000E+00 -0.13433955800E+03  0.15407017445E+03  0.75435414835E+02 0.  0.
         66    2    3    3    0    0 -0.14799753897E+02  0.16847866887E+02 -0.12909004695E+03  0.13103863381E+03  0.19999986772E+01 0.  0.
        -13    1    3    3    0    0  0.14799753897E+02 -0.16847866887E+02 -0.52495110520E+01  0.23031540643E+02  0.10566000000E+00 0.  1.
         13    1    4    4    0    0 -0.20403146281E+01  0.16659529898E+01 -0.15289630721E+02  0.15515226546E+02  0.10566000000E+00 0. -1.
        -13    1    4    4    0    0 -0.23804736334E+01  0.32651903527E+01 -0.25957122085E+02  0.26269972853E+02  0.10566000000E+00 0.  1.
        -14    1    4    4    0    0 -0.10378965636E+02  0.11916723545E+02 -0.87843294144E+02  0.89253434409E+02  0.00000000000E+00 0.  1.
<mgrwt>
<rscale>  0 0.75435415E+02</rscale>
<asrwt>0</asrwt>
<pdfrwt beam="1">  1        2 0.22185363E-01 0.75435415E+02</pdfrwt>
<pdfrwt beam="2">  1       -1 0.15177398E-02 0.75435415E+02</pdfrwt>
<totfact> 0.23106888E+05</totfact>
</mgrwt>
</event>
<event>
 8    1  0.2603554E-020  0.8075215E+02  0.7818608E-02  0.1326930E+00
          2   -1    0    0  501    0  0.00000000000E+00  0.00000000000E+00  0.58012785949E+02  0.58012786005E+02  0.25500000000E-02 0. -1.
         -1   -1    0    0    0  501 -0.00000000000E+00 -0.00000000000E+00 -0.28101176649E+02  0.28101177101E+02  0.50400000000E-02 0.  1.
         24    2    1    2    0    0  0.00000000000E+00  0.00000000000E+00  0.29911609300E+02  0.86113963106E+02  0.80752153351E+02 0.  0.
         66    2    3    3    0    0 -0.11027998651E+02 -0.71639128819E+01  0.55646117087E+02  0.57213885994E+02  0.20000004078E+01 0.  0.
        -13    1    3    3    0    0  0.11027998651E+02  0.71639128819E+01 -0.25734507787E+02  0.28900077112E+02  0.10566000000E+00 0.  1.
         13    1    4    4    0    0 -0.89337182472E+00 -0.12001526750E+01  0.65178804629E+01  0.66882291696E+01  0.10566000000E+00 0.  1.
        -13    1    4    4    0    0 -0.78139373355E+01 -0.45633876499E+01  0.35942806854E+02  0.37064520126E+02  0.10566000000E+00 0.  1.
         14    1    4    4    0    0 -0.23206894907E+01 -0.14003725570E+01  0.13185429769E+02  0.13461136698E+02  0.00000000000E+00 0. -1.
<mgrwt>
<rscale>  0 0.80752153E+02</rscale>
<asrwt>0</asrwt>
<pdfrwt beam="1">  1        2 0.89250440E-02 0.80752153E+02</pdfrwt>
<pdfrwt beam="2">  1       -1 0.43232580E-02 0.80752153E+02</pdfrwt>
<totfact> 0.15057208E+05</totfact>
</mgrwt>
</event>
<event>
 8    1  0.2603554E-020  0.8809338E+02  0.7818608E-02  0.1307536E+00
         -1   -1    0    0    0  501 -0.00000000000E+00  0.00000000000E+00  0.13151856025E+02  0.13151856991E+02  0.50400000000E-02 0.  1.
          2   -1    0    0  501    0  0.00000000000E+00 -0.00000000000E+00 -0.14751611394E+03  0.14751611396E+03  0.25500000000E-02 0. -1.
         24    2    1    2    0    0  0.00000000000E+00  0.00000000000E+00 -0.13436425791E+03  0.16066797095E+03  0.88093377079E+02 0.  0.
         66    2    3    3    0    0 -0.38511452790E+02  0.76763947164E+01 -0.10351269935E+03  0.11072911972E+03  0.19999992549E+01 0.  0.
        -13    1    3    3    0    0  0.38511452790E+02 -0.76763947164E+01 -0.30851558565E+02  0.49938851226E+02  0.10566000000E+00 0.  1.
         13    1    4    4    0    0 -0.27349291659E+02  0.52667442029E+01 -0.72467850314E+02  0.77635834780E+02  0.10566000000E+00 0. -1.
        -13    1    4    4    0    0 -0.50381476962E+01  0.75662187455E+00 -0.14884924361E+02  0.15733008172E+02  0.10566000000E+00 0.  1.
         14    1    4    4    0    0 -0.61240134351E+01  0.16530286390E+01 -0.16159924671E+02  0.17360276772E+02  0.00000000000E+00 0. -1.
<mgrwt>
<rscale>  0 0.88093377E+02</rscale>
<asrwt>0</asrwt>
<pdfrwt beam="1">  1        2 0.22694786E-01 0.88093377E+02</pdfrwt>
<pdfrwt beam="2">  1       -1 0.20233627E-02 0.88093377E+02</pdfrwt>
<totfact> 0.15405215E+05</totfact>
</mgrwt>
</event>
<event>
 8    1  0.2603554E-020  0.7953743E+02  0.7818608E-02  0.1330369E+00
          2   -1    0    0  501    0  0.00000000000E+00  0.00000000000E+00  0.29718319500E+03  0.29718319501E+03  0.25500000000E-02 0. -1.
         -1   -1    0    0    0  501 -0.00000000000E+00 -0.00000000000E+00 -0.53218029183E+01  0.53218053048E+01  0.50400000000E-02 0.  1.
         24    2    1    2    0    0 -0.35527136788E-14  0.35527136788E-14  0.29186139208E+03  0.30250500032E+03  0.79537431617E+02 0.  0.
         66    2    3    3    0    0 -0.15110619004E+02 -0.27512797050E+02  0.23873762425E+03  0.24080061894E+03  0.20000104160E+01 0.  0.
        -13    1    3    3    0    0  0.15110619004E+02  0.27512797050E+02  0.53123767834E+02  0.61704381377E+02  0.10566000000E+00 0.  1.
         13    1    4    4    0    0 -0.18878966732E+01 -0.27554157315E+01  0.28118230352E+02  0.28316117528E+02  0.10566000000E+00 0. -1.
        -13    1    4    4    0    0 -0.37568102250E+01 -0.66091169407E+01  0.60674225484E+02  0.61148727313E+02  0.10566000000E+00 0.  1.
        -14    1    4    4    0    0 -0.94659121062E+01 -0.18148264377E+02  0.14994516841E+03  0.15133577410E+03  0.00000000000E+00 0.  1.
<mgrwt>
<rscale>  0 0.79537432E+02</rscale>
<asrwt>0</asrwt>
<pdfrwt beam="1">  1        2 0.45720498E-01 0.79537432E+02</pdfrwt>
<pdfrwt beam="2">  1       -1 0.81873898E-03 0.79537432E+02</pdfrwt>
<totfact> 0.25796723E+05</totfact>
</mgrwt>
</event>
<event>
 8    1  0.2603554E-020  0.8239657E+02  0.7818608E-02  0.1322385E+00
         -1   -1    0    0    0  501 -0.00000000000E+00  0.00000000000E+00  0.74876853345E+01  0.74876870307E+01  0.50400000000E-02 0.  1.
          2   -1    0    0  501    0  0.00000000000E+00 -0.00000000000E+00 -0.22667868593E+03  0.22667868595E+03  0.25500000000E-02 0. -1.
         24    2    1    2    0    0  0.00000000000E+00  0.00000000000E+00 -0.21919100060E+03  0.23416637298E+03  0.82396574506E+02 0.  0.
         66    2    3    3    0    0 -0.25858180261E+02  0.15787788595E+01 -0.20060898870E+03  0.20228471117E+03  0.19999999188E+01 0.  0.
        -13    1    3    3    0    0  0.25858180261E+02 -0.15787788595E+01 -0.18582011903E+02  0.31881661806E+02  0.10566000000E+00 0.  1.
         13    1    4    4    0    0 -0.15122390221E+02  0.21790055118E+00 -0.12204567590E+03  0.12297923538E+03  0.10566000000E+00 0. -1.
        -13    1    4    4    0    0 -0.57296894066E+01  0.80382846994E+00 -0.41627347490E+02  0.42027642141E+02  0.10566000000E+00 0. -1.
         14    1    4    4    0    0 -0.50061006337E+01  0.55704983839E+00 -0.36935965309E+02  0.37277833646E+02  0.00000000000E+00 0. -1.
<mgrwt>
<rscale>  0 0.82396575E+02</rscale>
<asrwt>0</asrwt>
<pdfrwt beam="1">  1        2 0.34873639E-01 0.82396575E+02</pdfrwt>
<pdfrwt beam="2">  1       -1 0.11519519E-02 0.82396575E+02</pdfrwt>
<totfact> 0.21323591E+05</totfact>
</mgrwt>
</event>
<event>
 8    1  0.2603554E-020  0.8024492E+02  0.7818608E-02  0.1328358E+00
         -1   -1    0    0    0  501 -0.00000000000E+00  0.00000000000E+00  0.50566228705E+01  0.50566253822E+01  0.50400000000E-02 0.  1.
          2   -1    0    0  501    0  0.00000000000E+00 -0.00000000000E+00 -0.31835701815E+03  0.31835701816E+03  0.25500000000E-02 0. -1.
         24    2    1    2    0    0 -0.22204460493E-15  0.71054273576E-14 -0.31330039528E+03  0.32341364355E+03  0.80244919759E+02 0.  0.
         66    2    3    3    0    0 -0.16334568451E+01  0.39927647659E+02 -0.17006661035E+03  0.17470986572E+03  0.19999989405E+01 0.  0.
        -13    1    3    3    0    0  0.16334568451E+01 -0.39927647659E+02 -0.14323378494E+03  0.14870377783E+03  0.10566000000E+00 0.  1.
         13    1    4    4    0    0 -0.17650960382E+01  0.23335617724E+02 -0.99446247987E+02  0.10216278198E+03  0.10566000000E+00 0. -1.
        -13    1    4    4    0    0 -0.64050795273E-01  0.60258051554E+00 -0.28778676782E+01  0.29428714194E+01  0.10566000000E+00 0.  1.
        -14    1    4    4    0    0  0.19568998836E+00  0.15989449420E+02 -0.67742494681E+02  0.69604212322E+02  0.00000000000E+00 0.  1.
<mgrwt>
<rscale>  0 0.80244920E+02</rscale>
<asrwt>0</asrwt>
<pdfrwt beam="1">  1        2 0.48977987E-01 0.80244920E+02</pdfrwt>
<pdfrwt beam="2">  1       -1 0.77794242E-03 0.80244920E+02</pdfrwt>
<totfact> 0.25840031E+05</totfact>
</mgrwt>
</event>
<event>
 8    1  0.2603554E-020  0.7967597E+02  0.7818608E-02  0.1329974E+00
         -1   -1    0    0    0  501 -0.00000000000E+00  0.00000000000E+00  0.63499931106E+02  0.63499931306E+02  0.50400000000E-02 0.  1.
          2   -1    0    0  501    0  0.00000000000E+00 -0.00000000000E+00 -0.24993175943E+02  0.24993176073E+02  0.25500000000E-02 0. -1.
         24    2    1    2    0    0  0.00000000000E+00  0.00000000000E+00  0.38506755163E+02  0.88493107379E+02  0.79675967898E+02 0.  0.
         66    2    3    3    0    0 -0.83491822504E+01  0.24828628282E+02 -0.14033852440E+02  0.29784536983E+02  0.20000006036E+01 0.  0.
        -13    1    3    3    0    0  0.83491822504E+01 -0.24828628282E+02  0.52540607602E+02  0.58708570395E+02  0.10566000000E+00 0.  1.
         13    1    4    4    0    0 -0.72511012516E+00  0.13511450653E+01 -0.72108976192E+00  0.16977962662E+01  0.10566000000E+00 0. -1.
        -13    1    4    4    0    0 -0.14748666448E+01  0.64833809161E+01 -0.32473707204E+01  0.74004081208E+01  0.10566000000E+00 0.  1.
        -14    1    4    4    0    0 -0.61492054804E+01  0.16994102300E+02 -0.10065391957E+02  0.20686332596E+02  0.00000000000E+00 0.  1.
<mgrwt>
<rscale>  0 0.79675968E+02</rscale>
<asrwt>0</asrwt>
<pdfrwt beam="1">  1        2 0.38451040E-02 0.79675968E+02</pdfrwt>
<pdfrwt beam="2">  1       -1 0.97692201E-02 0.79675968E+02</pdfrwt>
<totfact> 0.13129661E+05</totfact>
</mgrwt>
</event>
<event>
 8    1  0.2603554E-020  0.8882667E+02  0.7818608E-02  0.1305718E+00
          2   -1    0    0  501    0  0.00000000000E+00  0.00000000000E+00  0.50246224513E+03  0.50246224514E+03  0.25500000000E-02 0. -1.
         -1   -1    0    0    0  501 -0.00000000000E+00 -0.00000000000E+00 -0.39257549065E+01  0.39257581417E+01  0.50400000000E-02 0.  1.
         24    2    1    2    0    0  0.00000000000E+00  0.00000000000E+00  0.49853649022E+03  0.50638800328E+03  0.88826672681E+02 0.  0.
         66    2    3    3    0    0 -0.17544661064E+02 -0.12107670977E+02  0.47137128569E+03  0.47185728753E+03  0.19999997112E+01 0.  0.
        -13    1    3    3    0    0  0.17544661064E+02  0.12107670977E+02  0.27165204534E+02  0.34530715744E+02  0.10566000000E+00 0.  1.
         13    1    4    4    0    0 -0.72285242066E+01 -0.46080047721E+01  0.17756450845E+03  0.17777134498E+03  0.10566000000E+00 0.  1.
        -13    1    4    4    0    0 -0.97463541040E+01 -0.71895065940E+01  0.28365701528E+03  0.28391546965E+03  0.10566000000E+00 0. -1.
         14    1    4    4    0    0 -0.56978275373E+00 -0.31015961054E+00  0.10149761948E+02  0.10170472898E+02  0.00000000000E+00 0. -1.
<mgrwt>
<rscale>  0 0.88826673E+02</rscale>
<asrwt>0</asrwt>
<pdfrwt beam="1">  1        2 0.77301841E-01 0.88826673E+02</pdfrwt>
<pdfrwt beam="2">  1       -1 0.60396288E-03 0.88826673E+02</pdfrwt>
<totfact> 0.23185925E+05</totfact>
</mgrwt>
</event>
<event>
 8    1  0.2603554E-020  0.8449444E+02  0.7818608E-02  0.1316760E+00
         -1   -1    0    0    0  501 -0.00000000000E+00  0.00000000000E+00  0.22658542323E+02  0.22658542884E+02  0.50400000000E-02 0.  1.
          2   -1    0    0  501    0  0.00000000000E+00 -0.00000000000E+00 -0.78770618393E+02  0.78770618434E+02  0.25500000000E-02 0. -1.
         24    2    1    2    0    0  0.71054273576E-14 -0.35527136788E-14 -0.56112076070E+02  0.10142916132E+03  0.84494435822E+02 0.  0.
         66    2    3    3    0    0 -0.33919029955E+02  0.20869467466E+02 -0.11232062148E+02  0.41426977366E+02  0.19999920428E+01 0.  0.
        -13    1    3    3    0    0  0.33919029955E+02 -0.20869467466E+02 -0.44880013922E+02  0.60002183953E+02  0.10566000000E+00 0.  1.
         13    1    4    4    0    0 -0.91367812642E+01  0.55546516751E+01 -0.31502466626E+01  0.11147652003E+02  0.10566000000E+00 0. -1.
        -13    1    4    4    0    0 -0.68694805533E+00  0.34354055660E+00 -0.47603365382E+00  0.90977459842E+00  0.10566000000E+00 0.  1.
         14    1    4    4    0    0 -0.24095300635E+02  0.14971275234E+02 -0.76057818311E+01  0.29369550764E+02  0.00000000000E+00 0. -1.
<mgrwt>
<rscale>  0 0.84494436E+02</rscale>
<asrwt>0</asrwt>
<pdfrwt beam="1">  1        2 0.12118557E-01 0.84494436E+02</pdfrwt>
<pdfrwt beam="2">  1       -1 0.34859297E-02 0.84494436E+02</pdfrwt>
<totfact> 0.14342818E+05</totfact>
</mgrwt>
</event>
<event>
 8    1  0.2603554E-020  0.7785626E+02  0.7818608E-02  0.1335248E+00
         -1   -1    0    0    0  501 -0.00000000000E+00  0.00000000000E+00  0.18781824027E+03  0.18781824033E+03  0.50400000000E-02 0.  1.
          2   -1    0    0  501    0  0.00000000000E+00 -0.00000000000E+00 -0.80684342787E+01  0.80684346817E+01  0.25500000000E-02 0. -1.
         24    2    1    2    0    0 -0.44408920985E-15  0.00000000000E+00  0.17974980599E+03  0.19588667502E+03  0.77856256628E+02 0.  0.
         66    2    3    3    0    0 -0.13801327171E+01 -0.37654221114E+02  0.65586049559E+02  0.75665547172E+02  0.19999995109E+01 0.  0.
        -13    1    3    3    0    0  0.13801327171E+01  0.37654221114E+02  0.11416375643E+03  0.12022112784E+03  0.10566000000E+00 0.  1.
         13    1    4    4    0    0 -0.12978540133E+01 -0.27303456669E+02  0.46748630714E+02  0.54153566907E+02  0.10566000000E+00 0. -1.
        -13    1    4    4    0    0  0.41483243831E-01 -0.18842309070E+01  0.28069820329E+01  0.33826556341E+01  0.10566000000E+00 0.  1.
        -14    1    4    4    0    0 -0.12376194760E+00 -0.84665335388E+01  0.16030436812E+02  0.18129324631E+02  0.00000000000E+00 0.  1.
<mgrwt>
<rscale>  0 0.77856257E+02</rscale>
<asrwt>0</asrwt>
<pdfrwt beam="1">  1        2 0.12412977E-02 0.77856257E+02</pdfrwt>
<pdfrwt beam="2">  1       -1 0.28895112E-01 0.77856257E+02</pdfrwt>
<totfact> 0.10872802E+05</totfact>
</mgrwt>
</event>
<event>
 8    1  0.2603554E-020  0.7111768E+02  0.7818608E-02  0.1356333E+00
         -1   -1    0    0    0  501 -0.00000000000E+00  0.00000000000E+00  0.53830629689E+01  0.53830653283E+01  0.50400000000E-02 0.  1.
          2   -1    0    0  501    0  0.00000000000E+00 -0.00000000000E+00 -0.23489059937E+03  0.23489059939E+03  0.25500000000E-02 0. -1.
         24    2    1    2    0    0  0.71054273576E-14 -0.35527136788E-14 -0.22950753640E+03  0.24027366471E+03  0.71117681974E+02 0.  0.
         66    2    3    3    0    0  0.24470506750E+02 -0.21763229983E+02 -0.16141203290E+03  0.16471274465E+03  0.20000011440E+01 0.  0.
        -13    1    3    3    0    0 -0.24470506750E+02  0.21763229983E+02 -0.68095503501E+02  0.75560920064E+02  0.10566000000E+00 0.  1.
         13    1    4    4    0    0  0.10109862327E+02 -0.95034206995E+01 -0.72272635857E+02  0.73592590517E+02  0.10566000000E+00 0. -1.
        -13    1    4    4    0    0  0.10305990932E+02 -0.84284980878E+01 -0.63584937904E+02  0.64963901679E+02  0.10566000000E+00 0. -1.
        -14    1    4    4    0    0  0.40546534914E+01 -0.38313111954E+01 -0.25554459143E+02  0.26156252455E+02  0.00000000000E+00 0.  1.
<mgrwt>
<rscale>  0 0.71117682E+02</rscale>
<asrwt>0</asrwt>
<pdfrwt beam="1">  1        2 0.36137007E-01 0.71117682E+02</pdfrwt>
<pdfrwt beam="2">  1       -1 0.82816390E-03 0.71117682E+02</pdfrwt>
<totfact> 0.31750324E+05</totfact>
</mgrwt>
</event>
<event>
 8    1  0.2603554E-020  0.7975887E+02  0.7818608E-02  0.1329737E+00
          2   -1    0    0  501    0  0.00000000000E+00  0.00000000000E+00  0.20354156124E+03  0.20354156126E+03  0.25500000000E-02 0. -1.
         -1   -1    0    0    0  501 -0.00000000000E+00 -0.00000000000E+00 -0.78134866741E+01  0.78134882996E+01  0.50400000000E-02 0.  1.
         24    2    1    2    0    0  0.00000000000E+00  0.00000000000E+00  0.19572807457E+03  0.21135504955E+03  0.79758872856E+02 0.  0.
         66    2    3    3    0    0 -0.13821095019E+02 -0.26823395685E+01  0.19672699805E+03  0.19724028334E+03  0.19999996709E+01 0.  0.
        -13    1    3    3    0    0  0.13821095019E+02  0.26823395685E+01 -0.99892348290E+00  0.14114766213E+02  0.10566000000E+00 0.  1.
         13    1    4    4    0    0 -0.10454769414E+02 -0.15844876443E+01  0.14376093772E+03  0.14414933640E+03  0.10566000000E+00 0. -1.
        -13    1    4    4    0    0 -0.20743372170E+01 -0.51683300826E+00  0.26125872841E+02  0.26213400904E+02  0.10566000000E+00 0.  1.
        -14    1    4    4    0    0 -0.12919883877E+01 -0.58101891597E+00  0.26840187485E+02  0.26877546041E+02  0.00000000000E+00 0.  1.
<mgrwt>
<rscale>  0 0.79758873E+02</rscale>
<asrwt>0</asrwt>
<pdfrwt beam="1">  1        2 0.31314087E-01 0.79758873E+02</pdfrwt>
<pdfrwt beam="2">  1       -1 0.12020750E-02 0.79758873E+02</pdfrwt>
<totfact> 0.22371053E+05</totfact>
</mgrwt>
</event>
<event>
 8    1  0.2603554E-020  0.8073888E+02  0.7818608E-02  0.1326968E+00
         -1   -1    0    0    0  501 -0.00000000000E+00  0.00000000000E+00  0.15195788069E+02  0.15195788905E+02  0.50400000000E-02 0.  1.
          2   -1    0    0  501    0  0.00000000000E+00 -0.00000000000E+00 -0.10724626364E+03  0.10724626367E+03  0.25500000000E-02 0. -1.
         24    2    1    2    0    0  0.00000000000E+00  0.00000000000E+00 -0.92050475574E+02  0.12244205258E+03  0.80738876547E+02 0.  0.
         66    2    3    3    0    0  0.19352701137E+02 -0.13711476399E+02 -0.95547598927E+02  0.98467635753E+02  0.20000009638E+01 0.  0.
        -13    1    3    3    0    0 -0.19352701137E+02  0.13711476399E+02  0.34971233525E+01  0.23974416825E+02  0.10566000000E+00 0.  1.
         13    1    4    4    0    0  0.43730080777E+01 -0.25883918725E+01 -0.20398407141E+02  0.21022110980E+02  0.10566000000E+00 0. -1.
        -13    1    4    4    0    0  0.13530214159E+02 -0.10465446419E+02 -0.69725727991E+02  0.71793318434E+02  0.10566000000E+00 0.  1.
        -14    1    4    4    0    0  0.14494788997E+01 -0.65763810658E+00 -0.54234637954E+01  0.56522063391E+01  0.00000000000E+00 0.  1.
<mgrwt>
<rscale>  0 0.80738877E+02</rscale>
<asrwt>0</asrwt>
<pdfrwt beam="1">  1        2 0.16499425E-01 0.80738877E+02</pdfrwt>
<pdfrwt beam="2">  1       -1 0.23378137E-02 0.80738877E+02</pdfrwt>
<totfact> 0.17641675E+05</totfact>
</mgrwt>
</event>
<event>
 8    1  0.2603554E-020  0.8045850E+02  0.7818608E-02  0.1327755E+00
         -1   -1    0    0    0  501 -0.00000000000E+00  0.00000000000E+00  0.12453776077E+02  0.12453777097E+02  0.50400000000E-02 0.  1.
          2   -1    0    0  501    0  0.00000000000E+00 -0.00000000000E+00 -0.12995193771E+03  0.12995193774E+03  0.25500000000E-02 0. -1.
         24    2    1    2    0    0  0.35527136788E-14  0.00000000000E+00 -0.11749816164E+03  0.14240571484E+03  0.80458496319E+02 0.  0.
         66    2    3    3    0    0 -0.24055889200E+02  0.71231314526E+00 -0.11578668466E+03  0.11827827169E+03  0.20000035598E+01 0.  0.
        -13    1    3    3    0    0  0.24055889200E+02 -0.71231314526E+00 -0.17114769753E+01  0.24127443144E+02  0.10566000000E+00 0.  1.
         13    1    4    4    0    0 -0.35199002090E+01 -0.24780882535E+00 -0.16587857189E+02  0.16959341876E+02  0.10566000000E+00 0.  1.
        -13    1    4    4    0    0 -0.71346995415E+01  0.10701845287E+01 -0.35274064159E+02  0.36004444154E+02  0.10566000000E+00 0.  1.
         14    1    4    4    0    0 -0.13401289449E+02 -0.11006255806E+00 -0.63924763313E+02  0.65314485662E+02  0.00000000000E+00 0. -1.
<mgrwt>
<rscale>  0 0.80458496E+02</rscale>
<asrwt>0</asrwt>
<pdfrwt beam="1">  1        2 0.19992605E-01 0.80458496E+02</pdfrwt>
<pdfrwt beam="2">  1       -1 0.19159657E-02 0.80458496E+02</pdfrwt>
<totfact> 0.18855265E+05</totfact>
</mgrwt>
</event>
<event>
 8    1  0.2603554E-020  0.7902133E+02  0.7818608E-02  0.1331852E+00
          2   -1    0    0  501    0  0.00000000000E+00  0.00000000000E+00  0.71086867328E+02  0.71086867373E+02  0.25500000000E-02 0. -1.
         -1   -1    0    0    0  501 -0.00000000000E+00 -0.00000000000E+00 -0.21960354137E+02  0.21960354715E+02  0.50400000000E-02 0.  1.
         24    2    1    2    0    0  0.00000000000E+00  0.00000000000E+00  0.49126513191E+02  0.93047222089E+02  0.79021334082E+02 0.  0.
         66    2    3    3    0    0 -0.10324372594E+02  0.65043025532E+01  0.68796810708E+02  0.69899211600E+02  0.19999993823E+01 0.  0.
        -13    1    3    3    0    0  0.10324372594E+02 -0.65043025532E+01 -0.19670297517E+02  0.23148010489E+02  0.10566000000E+00 0.  1.
         13    1    4    4    0    0 -0.20448414476E+01  0.18333066616E+01  0.15274877622E+02  0.15520162379E+02  0.10566000000E+00 0. -1.
        -13    1    4    4    0    0 -0.49454057893E+01  0.30796679539E+01  0.28908094769E+02  0.29489498137E+02  0.10566000000E+00 0.  1.
        -14    1    4    4    0    0 -0.33341253568E+01  0.15913279376E+01  0.24613838317E+02  0.24889551084E+02  0.00000000000E+00 0.  1.
<mgrwt>
<rscale>  0 0.79021334E+02</rscale>
<asrwt>0</asrwt>
<pdfrwt beam="1">  1        2 0.10936441E-01 0.79021334E+02</pdfrwt>
<pdfrwt beam="2">  1       -1 0.33785160E-02 0.79021334E+02</pdfrwt>
<totfact> 0.16755941E+05</totfact>
</mgrwt>
</event>
<event>
 8    1  0.2603554E-020  0.8526071E+02  0.7818608E-02  0.1314752E+00
         -1   -1    0    0    0  501 -0.00000000000E+00  0.00000000000E+00  0.10357558845E+02  0.10357560071E+02  0.50400000000E-02 0.  1.
          2   -1    0    0  501    0  0.00000000000E+00 -0.00000000000E+00 -0.17546093519E+03  0.17546093520E+03  0.25500000000E-02 0. -1.
         24    2    1    2    0    0  0.35527136788E-14  0.35527136788E-14 -0.16510337634E+03  0.18581849528E+03  0.85260707874E+02 0.  0.
         66    2    3    3    0    0 -0.27209853402E+02 -0.20395511566E+02 -0.13854428106E+03  0.14267049741E+03  0.20000000596E+01 0.  0.
        -13    1    3    3    0    0  0.27209853402E+02  0.20395511566E+02 -0.26559095277E+02  0.43147997870E+02  0.10566000000E+00 0.  1.
         13    1    4    4    0    0 -0.87207155609E+01 -0.56082830962E+01 -0.43208268312E+02  0.44435001224E+02  0.10566000000E+00 0. -1.
        -13    1    4    4    0    0 -0.55243689470E+00 -0.44731528915E+00 -0.33604859228E+01  0.34364672504E+01  0.10566000000E+00 0.  1.
        -14    1    4    4    0    0 -0.17936700946E+02 -0.14339913181E+02 -0.91975526829E+02  0.94799028931E+02  0.00000000000E+00 0.  1.
<mgrwt>
<rscale>  0 0.85260708E+02</rscale>
<asrwt>0</asrwt>
<pdfrwt beam="1">  1        2 0.26993988E-01 0.85260708E+02</pdfrwt>
<pdfrwt beam="2">  1       -1 0.15934708E-02 0.85260708E+02</pdfrwt>
<totfact> 0.17811251E+05</totfact>
</mgrwt>
</event>
<event>
 8    1  0.2603554E-020  0.7912635E+02  0.7818608E-02  0.1331549E+00
         -1   -1    0    0    0  501 -0.00000000000E+00  0.00000000000E+00  0.22589306417E+01  0.22589362642E+01  0.50400000000E-02 0.  1.
          2   -1    0    0  501    0  0.00000000000E+00 -0.00000000000E+00 -0.69291315264E+03  0.69291315265E+03  0.25500000000E-02 0. -1.
         24    2    1    2    0    0  0.00000000000E+00  0.00000000000E+00 -0.69065422200E+03  0.69517208891E+03  0.79126347280E+02 0.  0.
         66    2    3    3    0    0  0.13905412982E+02 -0.24595463795E+02 -0.58853553842E+03  0.58921674903E+03  0.20000006215E+01 0.  0.
        -13    1    3    3    0    0 -0.13905412982E+02  0.24595463795E+02 -0.10211868358E+03  0.10595533988E+03  0.10566000000E+00 0.  1.
         13    1    4    4    0    0  0.45632942950E+01 -0.81967211787E+01 -0.19273353449E+03  0.19296174847E+03  0.10566000000E+00 0. -1.
        -13    1    4    4    0    0  0.66062563776E+00 -0.94388818510E+00 -0.32883764315E+02  0.32904110240E+02  0.10566000000E+00 0.  1.
        -14    1    4    4    0    0  0.86814930489E+01 -0.15454854431E+02 -0.36291823961E+03  0.36335089031E+03  0.00000000000E+00 0.  1.
<mgrwt>
<rscale>  0 0.79126347E+02</rscale>
<asrwt>0</asrwt>
<pdfrwt beam="1">  1        2 0.10660185E+00 0.79126347E+02</pdfrwt>
<pdfrwt beam="2">  1       -1 0.34752877E-03 0.79126347E+02</pdfrwt>
<totfact> 0.34339126E+05</totfact>
</mgrwt>
</event>
<event>
 8    1  0.2603554E-020  0.7419507E+02  0.7818608E-02  0.1346382E+00
         -1   -1    0    0    0  501 -0.00000000000E+00  0.00000000000E+00  0.21759874891E+01  0.21759933259E+01  0.50400000000E-02 0.  1.
          2   -1    0    0  501    0  0.00000000000E+00 -0.00000000000E+00 -0.63246010342E+03  0.63246010343E+03  0.25500000000E-02 0. -1.
         24    2    1    2    0    0 -0.17763568394E-14 -0.71054273576E-14 -0.63028411593E+03  0.63463609675E+03  0.74195070622E+02 0.  0.
         66    2    3    3    0    0 -0.15558944304E+02 -0.30543259642E+02 -0.43611001735E+03  0.43745961950E+03  0.20000006686E+01 0.  0.
        -13    1    3    3    0    0  0.15558944304E+02  0.30543259642E+02 -0.19417409858E+03  0.19717647725E+03  0.10566000000E+00 0.  1.
         13    1    4    4    0    0 -0.31179676868E+01 -0.63704560712E+01 -0.93049044404E+02  0.93319024114E+02  0.10566000000E+00 0. -1.
        -13    1    4    4    0    0 -0.88252263201E+01 -0.18609313800E+02 -0.26272523735E+03  0.26353131253E+03  0.10566000000E+00 0.  1.
        -14    1    4    4    0    0 -0.36157502973E+01 -0.55634897706E+01 -0.80335735594E+02  0.80609282853E+02  0.00000000000E+00 0.  1.
<mgrwt>
<rscale>  0 0.74195071E+02</rscale>
<asrwt>0</asrwt>
<pdfrwt beam="1">  1        2 0.97301409E-01 0.74195071E+02</pdfrwt>
<pdfrwt beam="2">  1       -1 0.33476826E-03 0.74195071E+02</pdfrwt>
<totfact> 0.39657578E+05</totfact>
</mgrwt>
</event>
<event>
 8    1  0.2603554E-020  0.7619949E+02  0.7818608E-02  0.1340196E+00
         -1   -1    0    0    0  501 -0.00000000000E+00  0.00000000000E+00  0.34123292833E+01  0.34123330053E+01  0.50400000000E-02 0.  1.
          2   -1    0    0  501    0  0.00000000000E+00 -0.00000000000E+00 -0.42539559537E+03  0.42539559538E+03  0.25500000000E-02 0. -1.
         24    2    1    2    0    0  0.17763568394E-14  0.71054273576E-14 -0.42198326609E+03  0.42880792838E+03  0.76199492038E+02 0.  0.
         66    2    3    3    0    0  0.80686369564E+01  0.35624363832E+02 -0.27158572939E+03  0.27403833056E+03  0.20000022467E+01 0.  0.
        -13    1    3    3    0    0 -0.80686369564E+01 -0.35624363832E+02 -0.15039753670E+03  0.15476959782E+03  0.10566000000E+00 0.  1.
         13    1    4    4    0    0  0.38812313911E+01  0.17730721883E+02 -0.13947424901E+03  0.14065034574E+03  0.10566000000E+00 0. -1.
        -13    1    4    4    0    0  0.27280512243E+01  0.92896089335E+01 -0.69755306092E+02  0.70424093814E+02  0.10566000000E+00 0.  1.
        -14    1    4    4    0    0  0.14593543410E+01  0.86040330152E+01 -0.62356174281E+02  0.62963891003E+02  0.00000000000E+00 0.  1.
<mgrwt>
<rscale>  0 0.76199492E+02</rscale>
<asrwt>0</asrwt>
<pdfrwt beam="1">  1        2 0.65445434E-01 0.76199492E+02</pdfrwt>
<pdfrwt beam="2">  1       -1 0.52497436E-03 0.76199492E+02</pdfrwt>
<totfact> 0.32762701E+05</totfact>
</mgrwt>
</event>
<event>
 8    1  0.2603554E-020  0.8077557E+02  0.7818608E-02  0.1326865E+00
         -1   -1    0    0    0  501 -0.00000000000E+00  0.00000000000E+00  0.42066889097E+02  0.42066889399E+02  0.50400000000E-02 0.  1.
          2   -1    0    0  501    0  0.00000000000E+00 -0.00000000000E+00 -0.38775701563E+02  0.38775701647E+02  0.25500000000E-02 0. -1.
         24    2    1    2    0    0  0.00000000000E+00  0.00000000000E+00  0.32911875345E+01  0.80842591046E+02  0.80775569398E+02 0.  0.
         66    2    3    3    0    0 -0.21643973501E+02  0.28145365528E+02 -0.17566854487E+02  0.39663806816E+02  0.20000012476E+01 0.  0.
        -13    1    3    3    0    0  0.21643973501E+02 -0.28145365528E+02  0.20858042022E+02  0.41178784230E+02  0.10566000000E+00 0.  1.
         13    1    4    4    0    0 -0.47926443431E+01  0.55068480409E+01 -0.33016253963E+01  0.80129089248E+01  0.10566000000E+00 0.  1.
        -13    1    4    4    0    0 -0.55086671448E+01  0.82066535727E+01 -0.54616464277E+01  0.11293153781E+02  0.10566000000E+00 0. -1.
        -14    1    4    4    0    0 -0.11342662013E+02  0.14431863914E+02 -0.88035826633E+01  0.20357744111E+02  0.00000000000E+00 0.  1.
<mgrwt>
<rscale>  0 0.80775569E+02</rscale>
<asrwt>0</asrwt>
<pdfrwt beam="1">  1        2 0.59654926E-02 0.80775569E+02</pdfrwt>
<pdfrwt beam="2">  1       -1 0.64718291E-02 0.80775569E+02</pdfrwt>
<totfact> 0.13791107E+05</totfact>
</mgrwt>
</event>
<event>
 8    1  0.2603554E-020  0.8175011E+02  0.7818608E-02  0.1324157E+00
         -1   -1    0    0    0  501 -0.00000000000E+00  0.00000000000E+00  0.25746387216E+02  0.25746387709E+02  0.50400000000E-02 0.  1.
          2   -1    0    0  501    0  0.00000000000E+00 -0.00000000000E+00 -0.64893372997E+02  0.64893373047E+02  0.25500000000E-02 0. -1.
         24    2    1    2    0    0  0.00000000000E+00  0.88817841970E-15 -0.39146985781E+02  0.90639760756E+02  0.81750105407E+02 0.  0.
         66    2    3    3    0    0 -0.20030026555E+02  0.76599134311E+01 -0.58135105140E+02  0.61996505382E+02  0.19999980762E+01 0.  0.
        -13    1    3    3    0    0  0.20030026555E+02 -0.76599134311E+01  0.18988119359E+02  0.28643255374E+02  0.10566000000E+00 0.  1.
         13    1    4    4    0    0 -0.59183935639E+01  0.20724024083E+01 -0.15537325591E+02  0.16755353911E+02  0.10566000000E+00 0. -1.
        -13    1    4    4    0    0 -0.11731010778E+01  0.19166038049E+00 -0.26909929403E+01  0.29437233023E+01  0.10566000000E+00 0. -1.
         14    1    4    4    0    0 -0.12938531914E+02  0.53958506423E+01 -0.39906786608E+02  0.42297428168E+02  0.00000000000E+00 0. -1.
<mgrwt>
<rscale>  0 0.81750105E+02</rscale>
<asrwt>0</asrwt>
<pdfrwt beam="1">  1        2 0.99835958E-02 0.81750105E+02</pdfrwt>
<pdfrwt beam="2">  1       -1 0.39609827E-02 0.81750105E+02</pdfrwt>
<totfact> 0.14949173E+05</totfact>
</mgrwt>
</event>
<event>
 8    1  0.2603554E-020  0.7974758E+02  0.7818608E-02  0.1329769E+00
         -1   -1    0    0    0  501 -0.00000000000E+00  0.00000000000E+00  0.88174839958E+01  0.88174854363E+01  0.50400000000E-02 0.  1.
          2   -1    0    0  501    0  0.00000000000E+00 -0.00000000000E+00 -0.18031435755E+03  0.18031435757E+03  0.25500000000E-02 0. -1.
         24    2    1    2    0    0  0.00000000000E+00  0.00000000000E+00 -0.17149687355E+03  0.18913184300E+03  0.79747579269E+02 0.  0.
         66    2    3    3    0    0  0.24409369322E+01 -0.33550500068E+02 -0.35140273675E+02  0.48687093289E+02  0.19999977641E+01 0.  0.
        -13    1    3    3    0    0 -0.24409369322E+01  0.33550500068E+02 -0.13635659988E+03  0.14044474971E+03  0.10566000000E+00 0.  1.
         13    1    4    4    0    0  0.53758984261E+00 -0.95396180237E+01 -0.98867685789E+01  0.13749642608E+02  0.10566000000E+00 0. -1.
        -13    1    4    4    0    0  0.53006888542E+00 -0.59532082234E+01 -0.52726112852E+01  0.79707750548E+01  0.10566000000E+00 0. -1.
        -14    1    4    4    0    0  0.13732782042E+01 -0.18057673821E+02 -0.19980893811E+02  0.26966675626E+02  0.00000000000E+00 0.  1.
<mgrwt>
<rscale>  0 0.79747579E+02</rscale>
<asrwt>0</asrwt>
<pdfrwt beam="1">  1        2 0.27740668E-01 0.79747579E+02</pdfrwt>
<pdfrwt beam="2">  1       -1 0.13565362E-02 0.79747579E+02</pdfrwt>
<totfact> 0.21465600E+05</totfact>
</mgrwt>
</event>
<event>
 8    1  0.2603554E-020  0.7934632E+02  0.7818608E-02  0.1330917E+00
          2   -1    0    0  501    0  0.00000000000E+00  0.00000000000E+00  0.61090568092E+03  0.61090568092E+03  0.25500000000E-02 0. -1.
         -1   -1    0    0    0  501 -0.00000000000E+00 -0.00000000000E+00 -0.25764336244E+01  0.25764385540E+01  0.50400000000E-02 0.  1.
         24    2    1    2    0    0  0.00000000000E+00 -0.17763568394E-14  0.60832924729E+03  0.61348211948E+03  0.79346315640E+02 0.  0.
         66    2    3    3    0    0  0.13732342477E+02 -0.90754580663E+01  0.58323646389E+03  0.58347211928E+03  0.19999982981E+01 0.  0.
        -13    1    3    3    0    0 -0.13732342477E+02  0.90754580663E+01  0.25092783397E+02  0.30010000194E+02  0.10566000000E+00 0.  1.
         13    1    4    4    0    0  0.33874208605E+01 -0.30755287710E+01  0.15702980745E+03  0.15709648337E+03  0.10566000000E+00 0. -1.
        -13    1    4    4    0    0  0.68819441110E+00 -0.64486854427E+00  0.39175184698E+02  0.39186677929E+02  0.10566000000E+00 0.  1.
         14    1    4    4    0    0  0.96567272050E+01 -0.53550607510E+01  0.38703147175E+03  0.38718895798E+03  0.00000000000E+00 0. -1.
<mgrwt>
<rscale>  0 0.79346316E+02</rscale>
<asrwt>0</asrwt>
<pdfrwt beam="1">  1        2 0.93985515E-01 0.79346316E+02</pdfrwt>
<pdfrwt beam="2">  1       -1 0.39637468E-03 0.79346316E+02</pdfrwt>
<totfact> 0.33020844E+05</totfact>
</mgrwt>
</event>
<event>
 8    1  0.2603554E-020  0.8054878E+02  0.7818608E-02  0.1327501E+00
         -1   -1    0    0    0  501 -0.00000000000E+00  0.00000000000E+00  0.21785416850E+01  0.21785475149E+01  0.50400000000E-02 0.  1.
          2   -1    0    0  501    0  0.00000000000E+00 -0.00000000000E+00 -0.74454600072E+03  0.74454600072E+03  0.25500000000E-02 0. -1.
         24    2    1    2    0    0  0.35527136788E-14  0.00000000000E+00 -0.74236745903E+03  0.74672454824E+03  0.80548784653E+02 0.  0.
         66    2    3    3    0    0  0.18893635966E+02 -0.20675406823E+01 -0.70032105571E+03  0.70058177631E+03  0.20000064833E+01 0.  0.
        -13    1    3    3    0    0 -0.18893635966E+02  0.20675406823E+01 -0.42046403327E+02  0.46142771929E+02  0.10566000000E+00 0.  1.
         13    1    4    4    0    0  0.15900292352E+02 -0.18036547175E+01 -0.57753000869E+03  0.57775167206E+03  0.10566000000E+00 0. -1.
        -13    1    4    4    0    0  0.18659189833E+01 -0.38995362749E+00 -0.65461662888E+02  0.65489496789E+02  0.10566000000E+00 0.  1.
        -14    1    4    4    0    0  0.11274246309E+01  0.12606766267E+00 -0.57329384133E+02  0.57340607464E+02  0.00000000000E+00 0.  1.
<mgrwt>
<rscale>  0 0.80548785E+02</rscale>
<asrwt>0</asrwt>
<pdfrwt beam="1">  1        2 0.11454534E+00 0.80548785E+02</pdfrwt>
<pdfrwt beam="2">  1       -1 0.33516130E-03 0.80548785E+02</pdfrwt>
<totfact> 0.33305290E+05</totfact>
</mgrwt>
</event>
<event>
 8    1  0.2603554E-020  0.7873844E+02  0.7818608E-02  0.1332670E+00
         -1   -1    0    0    0  501 -0.00000000000E+00  0.00000000000E+00  0.34420859923E+02  0.34420860292E+02  0.50400000000E-02 0.  1.
          2   -1    0    0  501    0  0.00000000000E+00 -0.00000000000E+00 -0.45028955551E+02  0.45028955623E+02  0.25500000000E-02 0. -1.
         24    2    1    2    0    0 -0.27755575616E-16  0.00000000000E+00 -0.10608095627E+02  0.79449815915E+02  0.78738437603E+02 0.  0.
         66    2    3    3    0    0  0.22126645577E+00 -0.33069186355E+02  0.16199668893E+02  0.36878846375E+02  0.19999981778E+01 0.  0.
        -13    1    3    3    0    0 -0.22126645577E+00  0.33069186355E+02 -0.26807764520E+02  0.42570969540E+02  0.10566000000E+00 0.  1.
         13    1    4    4    0    0 -0.49579031273E+00 -0.11883895163E+02  0.64890260830E+01  0.13549590245E+02  0.10566000000E+00 0. -1.
        -13    1    4    4    0    0  0.88435822376E-01 -0.28443282869E+01  0.10320889180E+01  0.30289265209E+01  0.10566000000E+00 0.  1.
         14    1    4    4    0    0  0.62862094613E+00 -0.18340962905E+02  0.86785538915E+01  0.20300329609E+02  0.00000000000E+00 0. -1.
<mgrwt>
<rscale>  0 0.78738438E+02</rscale>
<asrwt>0</asrwt>
<pdfrwt beam="1">  1        2 0.69275317E-02 0.78738438E+02</pdfrwt>
<pdfrwt beam="2">  1       -1 0.52955169E-02 0.78738438E+02</pdfrwt>
<totfact> 0.15263427E+05</totfact>
</mgrwt>
</event>
<event>
 8    1  0.2603554E-020  0.7917528E+02  0.7818608E-02  0.1331408E+00
          2   -1    0    0  501    0  0.00000000000E+00  0.00000000000E+00  0.29640759999E+03  0.29640760000E+03  0.25500000000E-02 0. -1.
         -1   -1    0    0    0  501 -0.00000000000E+00 -0.00000000000E+00 -0.52872496457E+01  0.52872520479E+01  0.50400000000E-02 0.  1.
         24    2    1    2    0    0 -0.71054273576E-14  0.00000000000E+00  0.29112035035E+03  0.30169485205E+03  0.79175282559E+02 0.  0.
         66    2    3    3    0    0  0.38001243667E+02 -0.10092774213E+02  0.16235716148E+03  0.16706228325E+03  0.19999970991E+01 0.  0.
        -13    1    3    3    0    0 -0.38001243667E+02  0.10092774213E+02  0.12876318887E+03  0.13463256880E+03  0.10566000000E+00 0.  1.
         13    1    4    4    0    0  0.56632628640E+01 -0.11525694738E+01  0.24905406130E+02  0.25567389018E+02  0.10566000000E+00 0. -1.
        -13    1    4    4    0    0  0.20271001416E+01 -0.22062811356E+00  0.86327577800E+01  0.88709347124E+01  0.10566000000E+00 0.  1.
         14    1    4    4    0    0  0.30310880662E+02 -0.87195766259E+01  0.12881899757E+03  0.13262395952E+03  0.00000000000E+00 0. -1.
<mgrwt>
<rscale>  0 0.79175283E+02</rscale>
<asrwt>0</asrwt>
<pdfrwt beam="1">  1        2 0.45601173E-01 0.79175283E+02</pdfrwt>
<pdfrwt beam="2">  1       -1 0.81342314E-03 0.79175283E+02</pdfrwt>
<totfact> 0.26082347E+05</totfact>
</mgrwt>
</event>
<event>
 8    1  0.2603554E-020  0.8027840E+02  0.7818608E-02  0.1328263E+00
          2   -1    0    0  501    0  0.00000000000E+00  0.00000000000E+00  0.28317483753E+02  0.28317483868E+02  0.25500000000E-02 0. -1.
         -1   -1    0    0    0  501 -0.00000000000E+00 -0.00000000000E+00 -0.56896138352E+02  0.56896138575E+02  0.50400000000E-02 0.  1.
         24    2    1    2    0    0 -0.17763568394E-14  0.00000000000E+00 -0.28578654599E+02  0.85213622443E+02  0.80278402769E+02 0.  0.
         66    2    3    3    0    0  0.10719982955E+02  0.36258625842E+02 -0.75001427789E-01  0.37863063939E+02  0.20000007963E+01 0.  0.
        -13    1    3    3    0    0 -0.10719982955E+02 -0.36258625842E+02 -0.28503653171E+02  0.47350558504E+02  0.10566000000E+00 0.  1.
         13    1    4    4    0    0  0.23692952111E+01  0.89475515270E+01 -0.35741958930E+00  0.92634308398E+01  0.10566000000E+00 0. -1.
        -13    1    4    4    0    0  0.35418054948E+01  0.11803913726E+02 -0.61070639511E+00  0.12339404027E+02  0.10566000000E+00 0.  1.
         14    1    4    4    0    0  0.48088822488E+01  0.15507160589E+02  0.89312455662E+00  0.16260229072E+02  0.00000000000E+00 0. -1.
<mgrwt>
<rscale>  0 0.80278403E+02</rscale>
<asrwt>0</asrwt>
<pdfrwt beam="1">  1        2 0.43565360E-02 0.80278403E+02</pdfrwt>
<pdfrwt beam="2">  1       -1 0.87532521E-02 0.80278403E+02</pdfrwt>
<totfact> 0.13173689E+05</totfact>
</mgrwt>
</event>
<event>
 8    1  0.2603554E-020  0.7442744E+02  0.7818608E-02  0.1345653E+00
          2   -1    0    0  501    0  0.00000000000E+00  0.00000000000E+00  0.32551851460E+03  0.32551851461E+03  0.25500000000E-02 0. -1.
         -1   -1    0    0    0  501 -0.00000000000E+00 -0.00000000000E+00 -0.42543214070E+01  0.42543243924E+01  0.50400000000E-02 0.  1.
         24    2    1    2    0    0 -0.71054273576E-14  0.22204460493E-15  0.32126419320E+03  0.32977283901E+03  0.74427437923E+02 0.  0.
         66    2    3    3    0    0 -0.34029932290E+02  0.79923846196E+00  0.22708863206E+03  0.22963432217E+03  0.20000089707E+01 0.  0.
        -13    1    3    3    0    0  0.34029932290E+02 -0.79923846196E+00  0.94175561141E+02  0.10013851684E+03  0.10566000000E+00 0.  1.
         13    1    4    4    0    0 -0.27263932541E+02  0.10361236032E+01  0.18617564816E+03  0.18816423332E+03  0.10566000000E+00 0. -1.
        -13    1    4    4    0    0 -0.31046429571E+01 -0.57443260837E-01  0.18275568488E+02  0.18537790462E+02  0.10566000000E+00 0. -1.
        -14    1    4    4    0    0 -0.36613567919E+01 -0.17944188043E+00  0.22637415405E+02  0.22932298384E+02  0.00000000000E+00 0.  1.
<mgrwt>
<rscale>  0 0.74427438E+02</rscale>
<asrwt>0</asrwt>
<pdfrwt beam="1">  1        2 0.50079782E-01 0.74427438E+02</pdfrwt>
<pdfrwt beam="2">  1       -1 0.65451108E-03 0.74427438E+02</pdfrwt>
<totfact> 0.31700230E+05</totfact>
</mgrwt>
</event>
<event>
 8    1  0.2603554E-020  0.8166815E+02  0.7818608E-02  0.1324383E+00
         -1   -1    0    0    0  501 -0.00000000000E+00  0.00000000000E+00  0.10428824783E+01  0.10428946568E+01  0.50400000000E-02 0.  1.
          2   -1    0    0  501    0  0.00000000000E+00 -0.00000000000E+00 -0.15988491719E+04  0.15988491719E+04  0.25500000000E-02 0. -1.
         24    2    1    2    0    0  0.17763568394E-14 -0.17763568394E-14 -0.15978062894E+04  0.15998920665E+04  0.81668146315E+02 0.  0.
         66    2    3    3    0    0 -0.15690847573E+02  0.14717420475E+02 -0.14787419790E+04  0.14788998092E+04  0.20000006354E+01 0.  0.
        -13    1    3    3    0    0  0.15690847573E+02 -0.14717420475E+02 -0.11906431043E+03  0.12099225737E+03  0.10566000000E+00 0.  1.
         13    1    4    4    0    0 -0.59768821850E+01  0.53444722159E+01 -0.57369095994E+03  0.57374699580E+03  0.10566000000E+00 0. -1.
        -13    1    4    4    0    0 -0.72010241349E+00  0.51034432901E+00 -0.41776763174E+02  0.41786219069E+02  0.10566000000E+00 0.  1.
         14    1    4    4    0    0 -0.89938629746E+01  0.88626039301E+01 -0.86327425586E+03  0.86336659429E+03  0.00000000000E+00 0. -1.
<mgrwt>
<rscale>  0 0.81668146E+02</rscale>
<asrwt>0</asrwt>
<pdfrwt beam="1">  1        2 0.24597483E+00 0.81668146E+02</pdfrwt>
<pdfrwt beam="2">  1       -1 0.16044567E-03 0.81668146E+02</pdfrwt>
<totfact> 0.30670034E+05</totfact>
</mgrwt>
</event>
<event>
 8    1  0.2603554E-020  0.7870040E+02  0.7818608E-02  0.1332780E+00
         -1   -1    0    0    0  501 -0.00000000000E+00  0.00000000000E+00  0.44367454343E+01  0.44367482970E+01  0.50400000000E-02 0.  1.
          2   -1    0    0  501    0  0.00000000000E+00 -0.00000000000E+00 -0.34900307723E+03  0.34900307724E+03  0.25500000000E-02 0. -1.
         24    2    1    2    0    0  0.00000000000E+00  0.00000000000E+00 -0.34456633179E+03  0.35343982553E+03  0.78700401955E+02 0.  0.
         66    2    3    3    0    0  0.89221566507E+01 -0.15561091881E+02 -0.32955700885E+03  0.33005086662E+03  0.20000034376E+01 0.  0.
        -13    1    3    3    0    0 -0.89221566507E+01  0.15561091881E+02 -0.15009322940E+02  0.23388958912E+02  0.10566000000E+00 0.  1.
         13    1    4    4    0    0  0.73448256473E+00 -0.15541925071E+01 -0.23965858348E+02  0.24027661338E+02  0.10566000000E+00 0. -1.
        -13    1    4    4    0    0  0.43285931812E+00 -0.12467226971E+01 -0.25032190121E+02  0.25067177563E+02  0.10566000000E+00 0.  1.
         14    1    4    4    0    0  0.77548147678E+01 -0.12760176677E+02 -0.28055896038E+03  0.28095602772E+03  0.00000000000E+00 0. -1.
<mgrwt>
<rscale>  0 0.78700402E+02</rscale>
<asrwt>0</asrwt>
<pdfrwt beam="1">  1        2 0.53692760E-01 0.78700402E+02</pdfrwt>
<pdfrwt beam="2">  1       -1 0.68257672E-03 0.78700402E+02</pdfrwt>
<totfact> 0.28100010E+05</totfact>
</mgrwt>
</event>
<event>
 8    1  0.2603554E-020  0.8369859E+02  0.7818608E-02  0.1318871E+00
         -1   -1    0    0    0  501 -0.00000000000E+00  0.00000000000E+00  0.77779921346E+02  0.77779921510E+02  0.50400000000E-02 0.  1.
          2   -1    0    0  501    0  0.00000000000E+00 -0.00000000000E+00 -0.22516908864E+02  0.22516909008E+02  0.25500000000E-02 0. -1.
         24    2    1    2    0    0  0.11102230246E-15 -0.35527136788E-14  0.55263012483E+02  0.10029683052E+03  0.83698588179E+02 0.  0.
         66    2    3    3    0    0 -0.82993331055E+00  0.13332845161E+02 -0.19847337014E+02  0.24007713896E+02  0.19999976491E+01 0.  0.
        -13    1    3    3    0    0  0.82993331055E+00 -0.13332845161E+02  0.75110349496E+02  0.76289116621E+02  0.10566000000E+00 0.  1.
         13    1    4    4    0    0 -0.12503320080E+00  0.16626572777E+01 -0.23002250394E+01  0.28429319007E+01  0.10566000000E+00 0. -1.
        -13    1    4    4    0    0 -0.28472976747E+00  0.10646496465E+02 -0.16514958507E+02  0.19651564226E+02  0.10566000000E+00 0.  1.
        -14    1    4    4    0    0 -0.42017034228E+00  0.10236914191E+01 -0.10321534675E+01  0.15132177697E+01  0.00000000000E+00 0.  1.
<mgrwt>
<rscale>  0 0.83698588E+02</rscale>
<asrwt>0</asrwt>
<pdfrwt beam="1">  1        2 0.34641399E-02 0.83698588E+02</pdfrwt>
<pdfrwt beam="2">  1       -1 0.11966142E-01 0.83698588E+02</pdfrwt>
<totfact> 0.11171387E+05</totfact>
</mgrwt>
</event>
<event>
 8    1  0.2603554E-020  0.8106044E+02  0.7818608E-02  0.1326069E+00
         -1   -1    0    0    0  501 -0.00000000000E+00  0.00000000000E+00  0.59790479668E+01  0.59790500910E+01  0.50400000000E-02 0.  1.
          2   -1    0    0  501    0  0.00000000000E+00 -0.00000000000E+00 -0.27474250590E+03  0.27474250591E+03  0.25500000000E-02 0. -1.
         24    2    1    2    0    0 -0.17763568394E-14  0.00000000000E+00 -0.26876345793E+03  0.28072155600E+03  0.81060444635E+02 0.  0.
         66    2    3    3    0    0 -0.12297780368E+02 -0.72637184509E+01 -0.26572843329E+03  0.26611951688E+03  0.20000001347E+01 0.  0.
        -13    1    3    3    0    0  0.12297780368E+02  0.72637184509E+01 -0.30350246404E+01  0.14602039115E+02  0.10566000000E+00 0.  1.
         13    1    4    4    0    0 -0.92666144339E+01 -0.52189694184E+01 -0.20937896130E+03  0.20964891696E+03  0.10566000000E+00 0. -1.
        -13    1    4    4    0    0 -0.10946906038E+01 -0.54182132652E+00 -0.21613501178E+02  0.21648245080E+02  0.10566000000E+00 0. -1.
         14    1    4    4    0    0 -0.19364753305E+01 -0.15029277060E+01 -0.34735970816E+02  0.34822354844E+02  0.00000000000E+00 0. -1.
<mgrwt>
<rscale>  0 0.81060445E+02</rscale>
<asrwt>0</asrwt>
<pdfrwt beam="1">  1        2 0.42268068E-01 0.81060445E+02</pdfrwt>
<pdfrwt beam="2">  1       -1 0.91985391E-03 0.81060445E+02</pdfrwt>
<totfact> 0.23855428E+05</totfact>
</mgrwt>
</event>
<event>
 8    1  0.2603554E-020  0.8320033E+02  0.7818608E-02  0.1320207E+00
          2   -1    0    0  501    0  0.00000000000E+00  0.00000000000E+00  0.78197959155E+03  0.78197959156E+03  0.25500000000E-02 0. -1.
         -1   -1    0    0    0  501 -0.00000000000E+00 -0.00000000000E+00 -0.22130646171E+01  0.22130703561E+01  0.50400000000E-02 0.  1.
         24    2    1    2    0    0  0.00000000000E+00  0.00000000000E+00  0.77976652694E+03  0.78419266191E+03  0.83200327337E+02 0.  0.
         66    2    3    3    0    0 -0.35825551962E+02 -0.24130838587E+01  0.58765300357E+03  0.58875236369E+03  0.19999984490E+01 0.  0.
        -13    1    3    3    0    0  0.35825551962E+02  0.24130838587E+01  0.19211352336E+03  0.19544029822E+03  0.10566000000E+00 0.  1.
         13    1    4    4    0    0 -0.41813415197E+01 -0.64535780218E+00  0.67326914166E+02  0.67459800169E+02  0.10566000000E+00 0. -1.
        -13    1    4    4    0    0 -0.56033655178E+00  0.78028517537E-01  0.11773613506E+02  0.11787671718E+02  0.10566000000E+00 0. -1.
         14    1    4    4    0    0 -0.31083873890E+02 -0.18457545740E+01  0.50855247590E+03  0.50950489180E+03  0.00000000000E+00 0. -1.
<mgrwt>
<rscale>  0 0.83200327E+02</rscale>
<asrwt>0</asrwt>
<pdfrwt beam="1">  1        2 0.12030468E+00 0.83200327E+02</pdfrwt>
<pdfrwt beam="2">  1       -1 0.34047157E-03 0.83200327E+02</pdfrwt>
<totfact> 0.30904450E+05</totfact>
</mgrwt>
</event>
<event>
 8    1  0.2603554E-020  0.8010978E+02  0.7818608E-02  0.1328740E+00
          2   -1    0    0  501    0  0.00000000000E+00  0.00000000000E+00  0.34135453246E+03  0.34135453247E+03  0.25500000000E-02 0. -1.
         -1   -1    0    0    0  501 -0.00000000000E+00 -0.00000000000E+00 -0.47000807004E+01  0.47000834027E+01  0.50400000000E-02 0.  1.
         24    2    1    2    0    0  0.00000000000E+00  0.00000000000E+00  0.33665445176E+03  0.34605461587E+03  0.80109782654E+02 0.  0.
         66    2    3    3    0    0 -0.30638095044E+02  0.24511970004E+02  0.20268067279E+03  0.20645334741E+03  0.19999979801E+01 0.  0.
        -13    1    3    3    0    0  0.30638095044E+02 -0.24511970004E+02  0.13397377897E+03  0.13960126846E+03  0.10566000000E+00 0.  1.
         13    1    4    4    0    0 -0.25092512797E+02  0.19906389189E+02  0.16344287281E+03  0.16655174080E+03  0.10566000000E+00 0. -1.
        -13    1    4    4    0    0 -0.22525792410E+01  0.17595680119E+01  0.13676630230E+02  0.13972529166E+02  0.10566000000E+00 0.  1.
         14    1    4    4    0    0 -0.32930030059E+01  0.28460128032E+01  0.25561169753E+02  0.25929077439E+02  0.00000000000E+00 0. -1.
<mgrwt>
<rscale>  0 0.80109783E+02</rscale>
<asrwt>0</asrwt>
<pdfrwt beam="1">  1        2 0.52516083E-01 0.80109783E+02</pdfrwt>
<pdfrwt beam="2">  1       -1 0.72308953E-03 0.80109783E+02</pdfrwt>
<totfact> 0.26613860E+05</totfact>
</mgrwt>
</event>
<event>
 8    1  0.2603554E-020  0.7894684E+02  0.7818608E-02  0.1332067E+00
         -1   -1    0    0    0  501 -0.00000000000E+00  0.00000000000E+00  0.82577475476E+01  0.82577490857E+01  0.50400000000E-02 0.  1.
          2   -1    0    0  501    0  0.00000000000E+00 -0.00000000000E+00 -0.18868957101E+03  0.18868957103E+03  0.25500000000E-02 0. -1.
         24    2    1    2    0    0  0.17763568394E-14 -0.17763568394E-14 -0.18043182347E+03  0.19694732012E+03  0.78946842760E+02 0.  0.
         66    2    3    3    0    0  0.15460500033E+02 -0.10069071486E+02 -0.17725664793E+03  0.17822551023E+03  0.19999994478E+01 0.  0.
        -13    1    3    3    0    0 -0.15460500033E+02  0.10069071486E+02 -0.31751755356E+01  0.18721809891E+02  0.10566000000E+00 0.  1.
         13    1    4    4    0    0  0.73377883419E+01 -0.56663460742E+01 -0.89920212045E+02  0.90396937525E+02  0.10566000000E+00 0. -1.
        -13    1    4    4    0    0  0.52234678617E+01 -0.28986053590E+01 -0.60419194068E+02  0.60713892194E+02  0.10566000000E+00 0.  1.
        -14    1    4    4    0    0  0.28992438298E+01 -0.15041200531E+01 -0.26917241817E+02  0.27114680507E+02  0.00000000000E+00 0.  1.
<mgrwt>
<rscale>  0 0.78946843E+02</rscale>
<asrwt>0</asrwt>
<pdfrwt beam="1">  1        2 0.29029162E-01 0.78946843E+02</pdfrwt>
<pdfrwt beam="2">  1       -1 0.12704230E-02 0.78946843E+02</pdfrwt>
<totfact> 0.22389240E+05</totfact>
</mgrwt>
</event>
<event>
 8    1  0.2603554E-020  0.8272012E+02  0.7818608E-02  0.1321505E+00
         -1   -1    0    0    0  501 -0.00000000000E+00  0.00000000000E+00  0.41382261992E+02  0.41382262299E+02  0.50400000000E-02 0.  1.
          2   -1    0    0  501    0  0.00000000000E+00 -0.00000000000E+00 -0.41337873988E+02  0.41337874067E+02  0.25500000000E-02 0. -1.
         24    2    1    2    0    0 -0.35527136788E-14  0.00000000000E+00  0.44388004212E-01  0.82720136366E+02  0.82720124457E+02 0.  0.
         66    2    3    3    0    0 -0.30885545449E+02 -0.82156565792E+01 -0.26192979720E+02  0.41370111459E+02  0.20000012067E+01 0.  0.
        -13    1    3    3    0    0  0.30885545449E+02  0.82156565792E+01  0.26237367724E+02  0.41350024907E+02  0.10566000000E+00 0.  1.
         13    1    4    4    0    0 -0.20216134878E+02 -0.53997508451E+01 -0.16238965807E+02  0.26487064638E+02  0.10566000000E+00 0. -1.
        -13    1    4    4    0    0 -0.91599339489E+01 -0.26763016605E+01 -0.84312350469E+01  0.12734357816E+02  0.10566000000E+00 0.  1.
        -14    1    4    4    0    0 -0.15094766223E+01 -0.13960407370E+00 -0.15227788653E+01  0.21486890057E+01  0.00000000000E+00 0.  1.
<mgrwt>
<rscale>  0 0.82720124E+02</rscale>
<asrwt>0</asrwt>
<pdfrwt beam="1">  1        2 0.63596730E-02 0.82720124E+02</pdfrwt>
<pdfrwt beam="2">  1       -1 0.63665019E-02 0.82720124E+02</pdfrwt>
<totfact> 0.13083720E+05</totfact>
</mgrwt>
</event>
<event>
 8    1  0.2603554E-020  0.7812731E+02  0.7818608E-02  0.1334451E+00
         -1   -1    0    0    0  501 -0.00000000000E+00  0.00000000000E+00  0.12463083640E+02  0.12463084659E+02  0.50400000000E-02 0.  1.
          2   -1    0    0  501    0  0.00000000000E+00 -0.00000000000E+00 -0.12243913994E+03  0.12243913996E+03  0.25500000000E-02 0. -1.
         24    2    1    2    0    0 -0.17763568394E-14  0.00000000000E+00 -0.10997605630E+03  0.13490222462E+03  0.78127314364E+02 0.  0.
         66    2    3    3    0    0 -0.12663713141E+02 -0.34531713356E+02 -0.77613725475E+02  0.85910996040E+02  0.20000001550E+01 0.  0.
        -13    1    3    3    0    0  0.12663713141E+02  0.34531713356E+02 -0.32362330822E+02  0.48991228584E+02  0.10566000000E+00 0.  1.
         13    1    4    4    0    0 -0.11484689757E+02 -0.30821709714E+02 -0.68734470576E+02  0.76199176491E+02  0.10566000000E+00 0. -1.
        -13    1    4    4    0    0 -0.31943442438E+00 -0.10091548139E+01 -0.30463732153E+01  0.32267608515E+01  0.10566000000E+00 0.  1.
        -14    1    4    4    0    0 -0.85958895990E+00 -0.27008488287E+01 -0.58328816837E+01  0.64850586976E+01  0.00000000000E+00 0.  1.
<mgrwt>
<rscale>  0 0.78127314E+02</rscale>
<asrwt>0</asrwt>
<pdfrwt beam="1">  1        2 0.18836790E-01 0.78127314E+02</pdfrwt>
<pdfrwt beam="2">  1       -1 0.19173977E-02 0.78127314E+02</pdfrwt>
<totfact> 0.20023274E+05</totfact>
</mgrwt>
</event>
<event>
 8    1  0.2603554E-020  0.8226975E+02  0.7818608E-02  0.1322731E+00
          2   -1    0    0  501    0  0.00000000000E+00  0.00000000000E+00  0.44784145186E+03  0.44784145187E+03  0.25500000000E-02 0. -1.
         -1   -1    0    0    0  501 -0.00000000000E+00 -0.00000000000E+00 -0.37782949454E+01  0.37782983069E+01  0.50400000000E-02 0.  1.
         24    2    1    2    0    0  0.00000000000E+00 -0.88817841970E-15  0.44406315692E+03  0.45161975018E+03  0.82269747894E+02 0.  0.
         66    2    3    3    0    0 -0.18374256721E+02 -0.43886982606E+01  0.42260050845E+03  0.42302726120E+03  0.19999990222E+01 0.  0.
        -13    1    3    3    0    0  0.18374256721E+02  0.43886982606E+01  0.21462648467E+02  0.28592488974E+02  0.10566000000E+00 0.  1.
         13    1    4    4    0    0 -0.22799646265E+01 -0.44956812454E+00  0.49617335949E+02  0.49671838510E+02  0.10566000000E+00 0. -1.
        -13    1    4    4    0    0 -0.12683979118E+02 -0.25777248379E+01  0.27761435144E+03  0.27791593564E+03  0.10566000000E+00 0.  1.
        -14    1    4    4    0    0 -0.34103129765E+01 -0.13614052982E+01  0.95368821062E+02  0.95439487057E+02  0.00000000000E+00 0.  1.
<mgrwt>
<rscale>  0 0.82269748E+02</rscale>
<asrwt>0</asrwt>
<pdfrwt beam="1">  1        2 0.68898715E-01 0.82269748E+02</pdfrwt>
<pdfrwt beam="2">  1       -1 0.58127615E-03 0.82269748E+02</pdfrwt>
<totfact> 0.27300793E+05</totfact>
</mgrwt>
</event>
<event>
 8    1  0.2603554E-020  0.8024229E+02  0.7818608E-02  0.1328365E+00
         -1   -1    0    0    0  501 -0.00000000000E+00  0.00000000000E+00  0.12844260517E+01  0.12844359399E+01  0.50400000000E-02 0.  1.
          2   -1    0    0  501    0  0.00000000000E+00 -0.00000000000E+00 -0.12532446351E+04  0.12532446351E+04  0.25500000000E-02 0. -1.
         24    2    1    2    0    0  0.00000000000E+00  0.00000000000E+00 -0.12519602091E+04  0.12545290711E+04  0.80242289665E+02 0.  0.
         66    2    3    3    0    0 -0.13532284388E+02  0.19457123847E+02 -0.11320097724E+04  0.11322596112E+04  0.20000005615E+01 0.  0.
        -13    1    3    3    0    0  0.13532284388E+02 -0.19457123847E+02 -0.11995043666E+03  0.12226945983E+03  0.10566000000E+00 0.  1.
         13    1    4    4    0    0 -0.38916598647E+01  0.64529651741E+01 -0.35597811203E+03  0.35605787898E+03  0.10566000000E+00 0. -1.
        -13    1    4    4    0    0 -0.64057891635E+01  0.96882963216E+01 -0.55723268012E+03  0.55735371908E+03  0.10566000000E+00 0.  1.
        -14    1    4    4    0    0 -0.32348353597E+01  0.33158623509E+01 -0.21879898027E+03  0.21884801317E+03  0.00000000000E+00 0.  1.
<mgrwt>
<rscale>  0 0.80242290E+02</rscale>
<asrwt>0</asrwt>
<pdfrwt beam="1">  1        2 0.19280589E+00 0.80242290E+02</pdfrwt>
<pdfrwt beam="2">  1       -1 0.19760577E-03 0.80242290E+02</pdfrwt>
<totfact> 0.34565434E+05</totfact>
</mgrwt>
</event>
<event>
 8    1  0.2603554E-020  0.8005296E+02  0.7818608E-02  0.1328901E+00
          2   -1    0    0  501    0  0.00000000000E+00  0.00000000000E+00  0.69956782910E+03  0.69956782911E+03  0.25500000000E-02 0. -1.
         -1   -1    0    0    0  501 -0.00000000000E+00 -0.00000000000E+00 -0.22901524521E+01  0.22901579980E+01  0.50400000000E-02 0.  1.
         24    2    1    2    0    0  0.71054273576E-14 -0.22204460493E-15  0.69727767665E+03  0.70185798711E+03  0.80052955650E+02 0.  0.
         66    2    3    3    0    0 -0.35360454765E+02  0.10438558448E+01  0.51256558944E+03  0.51378880376E+03  0.20000002539E+01 0.  0.
        -13    1    3    3    0    0  0.35360454765E+02 -0.10438558448E+01  0.18471208721E+03  0.18806918334E+03  0.10566000000E+00 0.  1.
         13    1    4    4    0    0 -0.23044948523E+02  0.11808534068E+01  0.34281432171E+03  0.34359006738E+03  0.10566000000E+00 0. -1.
        -13    1    4    4    0    0 -0.20107653893E+01  0.14185539594E+00  0.25807153042E+02  0.25885973278E+02  0.10566000000E+00 0. -1.
        -14    1    4    4    0    0 -0.10304740853E+02 -0.27885295798E+00  0.14394411468E+03  0.14431276310E+03  0.00000000000E+00 0.  1.
<mgrwt>
<rscale>  0 0.80052956E+02</rscale>
<asrwt>0</asrwt>
<pdfrwt beam="1">  1        2 0.10762575E+00 0.80052956E+02</pdfrwt>
<pdfrwt beam="2">  1       -1 0.35233179E-03 0.80052956E+02</pdfrwt>
<totfact> 0.33389484E+05</totfact>
</mgrwt>
</event>
<event>
 8    1  0.2603554E-020  0.8007319E+02  0.7818608E-02  0.1328844E+00
         -1   -1    0    0    0  501 -0.00000000000E+00  0.00000000000E+00  0.18938006486E+03  0.18938006493E+03  0.50400000000E-02 0.  1.
          2   -1    0    0  501    0  0.00000000000E+00 -0.00000000000E+00 -0.84640851173E+01  0.84640855015E+01  0.25500000000E-02 0. -1.
         24    2    1    2    0    0  0.35527136788E-14  0.00000000000E+00  0.18091597974E+03  0.19784415043E+03  0.80073192347E+02 0.  0.
         66    2    3    3    0    0  0.31974420269E+02  0.13870730654E+02  0.41960647589E+02  0.54584399561E+02  0.20000022555E+01 0.  0.
        -13    1    3    3    0    0 -0.31974420269E+02 -0.13870730654E+02  0.13895533216E+03  0.14325975087E+03  0.10566000000E+00 0.  1.
         13    1    4    4    0    0  0.78902160391E+00  0.39441509127E+00  0.69330095812E+00  0.11269199660E+01  0.10566000000E+00 0. -1.
        -13    1    4    4    0    0  0.55929584416E+01  0.26839014934E+01  0.77327346180E+01  0.99141747041E+01  0.10566000000E+00 0.  1.
         14    1    4    4    0    0  0.25592440224E+02  0.10792414069E+02  0.33534612012E+02  0.43543304891E+02  0.00000000000E+00 0. -1.
<mgrwt>
<rscale>  0 0.80073192E+02</rscale>
<asrwt>0</asrwt>
<pdfrwt beam="1">  1        2 0.13021669E-02 0.80073192E+02</pdfrwt>
<pdfrwt beam="2">  1       -1 0.29135395E-01 0.80073192E+02</pdfrwt>
<totfact> 0.10099812E+05</totfact>
</mgrwt>
</event>
<event>
 8    1  0.2603554E-020  0.8646012E+02  0.7818608E-02  0.1311658E+00
         -1   -1    0    0    0  501 -0.00000000000E+00  0.00000000000E+00  0.41579943066E+01  0.41579973612E+01  0.50400000000E-02 0.  1.
          2   -1    0    0  501    0  0.00000000000E+00 -0.00000000000E+00 -0.44945645141E+03  0.44945645141E+03  0.25500000000E-02 0. -1.
         24    2    1    2    0    0  0.17763568394E-14  0.00000000000E+00 -0.44529845710E+03  0.45361444878E+03  0.86460119372E+02 0.  0.
         66    2    3    3    0    0  0.96227792758E+01 -0.40462890256E+02 -0.28417461498E+03  0.28720907918E+03  0.19999978298E+01 0.  0.
        -13    1    3    3    0    0 -0.96227792758E+01  0.40462890256E+02 -0.16112384212E+03  0.16640536960E+03  0.10566000000E+00 0.  1.
         13    1    4    4    0    0  0.20040699824E+01 -0.76483259003E+01 -0.58085085282E+02  0.58620828055E+02  0.10566000000E+00 0. -1.
        -13    1    4    4    0    0  0.52932000251E+00 -0.23667262580E+01 -0.18237092001E+02  0.18397941775E+02  0.10566000000E+00 0.  1.
         14    1    4    4    0    0  0.70893892909E+01 -0.30447838098E+02 -0.20785243770E+03  0.21019030935E+03  0.00000000000E+00 0. -1.
<mgrwt>
<rscale>  0 0.86460119E+02</rscale>
<asrwt>0</asrwt>
<pdfrwt beam="1">  1        2 0.69147108E-01 0.86460119E+02</pdfrwt>
<pdfrwt beam="2">  1       -1 0.63969203E-03 0.86460119E+02</pdfrwt>
<totfact> 0.23995063E+05</totfact>
</mgrwt>
</event>
<event>
 8    1  0.2603554E-020  0.7985823E+02  0.7818608E-02  0.1329454E+00
         -1   -1    0    0    0  501 -0.00000000000E+00  0.00000000000E+00  0.43511616329E+01  0.43511645518E+01  0.50400000000E-02 0.  1.
          2   -1    0    0  501    0  0.00000000000E+00 -0.00000000000E+00 -0.36641559992E+03  0.36641559993E+03  0.25500000000E-02 0. -1.
         24    2    1    2    0    0  0.35527136788E-14  0.00000000000E+00 -0.36206443829E+03  0.37076676448E+03  0.79858225445E+02 0.  0.
         66    2    3    3    0    0 -0.19482915567E+02  0.15509162614E+01 -0.34266860448E+03  0.34323135322E+03  0.19999990952E+01 0.  0.
        -13    1    3    3    0    0  0.19482915567E+02 -0.15509162614E+01 -0.19395833807E+02  0.27535411262E+02  0.10566000000E+00 0.  1.
         13    1    4    4    0    0 -0.62230444888E+01  0.61029845197E+00 -0.97569029820E+02  0.97769246141E+02  0.10566000000E+00 0. -1.
        -13    1    4    4    0    0 -0.30693848503E+01 -0.50161838640E-01 -0.63236833287E+02  0.63311388294E+02  0.10566000000E+00 0.  1.
         14    1    4    4    0    0 -0.10190486228E+02  0.99077964803E+00 -0.18186274137E+03  0.18215071878E+03  0.00000000000E+00 0. -1.
<mgrwt>
<rscale>  0 0.79858225E+02</rscale>
<asrwt>0</asrwt>
<pdfrwt beam="1">  1        2 0.56371607E-01 0.79858225E+02</pdfrwt>
<pdfrwt beam="2">  1       -1 0.66941000E-03 0.79858225E+02</pdfrwt>
<totfact> 0.27519970E+05</totfact>
</mgrwt>
</event>
<event>
 8    1  0.2603554E-020  0.8205012E+02  0.7818608E-02  0.1323332E+00
          2   -1    0    0  501    0  0.00000000000E+00  0.00000000000E+00  0.56829741531E+02  0.56829741588E+02  0.25500000000E-02 0. -1.
         -1   -1    0    0    0  501 -0.00000000000E+00 -0.00000000000E+00 -0.29615749777E+02  0.29615750206E+02  0.50400000000E-02 0.  1.
         24    2    1    2    0    0  0.00000000000E+00 -0.35527136788E-14  0.27213991754E+02  0.86445491794E+02  0.82050117028E+02 0.  0.
         66    2    3    3    0    0  0.23463868434E+02  0.27339881896E+02  0.34234575836E+02  0.49739606313E+02  0.19999973732E+01 0.  0.
        -13    1    3    3    0    0 -0.23463868434E+02 -0.27339881896E+02 -0.70205840829E+01  0.36705885480E+02  0.10566000000E+00 0.  1.
         13    1    4    4    0    0  0.17698783329E+01  0.16251294624E+01  0.19075031616E+01  0.30697308400E+01  0.10566000000E+00 0. -1.
        -13    1    4    4    0    0  0.90246434513E+00  0.84097346566E+00  0.10649714138E+01  0.16330971839E+01  0.10566000000E+00 0. -1.
         14    1    4    4    0    0  0.20791525756E+02  0.24873778968E+02  0.31262101261E+02  0.45036778289E+02  0.00000000000E+00 0. -1.
<mgrwt>
<rscale>  0 0.82050117E+02</rscale>
<asrwt>0</asrwt>
<pdfrwt beam="1">  1        2 0.87430371E-02 0.82050117E+02</pdfrwt>
<pdfrwt beam="2">  1       -1 0.45562693E-02 0.82050117E+02</pdfrwt>
<totfact> 0.14347446E+05</totfact>
</mgrwt>
</event>
<event>
 8    1  0.2603554E-020  0.7728439E+02  0.7818608E-02  0.1336939E+00
          2   -1    0    0  501    0  0.00000000000E+00  0.00000000000E+00  0.12891054594E+03  0.12891054597E+03  0.25500000000E-02 0. -1.
         -1   -1    0    0    0  501 -0.00000000000E+00 -0.00000000000E+00 -0.11583373396E+02  0.11583374492E+02  0.50400000000E-02 0.  1.
         24    2    1    2    0    0  0.00000000000E+00  0.71054273576E-14  0.11732717255E+03  0.14049392046E+03  0.77284385670E+02 0.  0.
         66    2    3    3    0    0  0.29241632835E+01 -0.34015757230E+02  0.91504921689E+02  0.97687118732E+02  0.20000005045E+01 0.  0.
        -13    1    3    3    0    0 -0.29241632835E+01  0.34015757230E+02  0.25822250860E+02  0.42806801730E+02  0.10566000000E+00 0.  1.
         13    1    4    4    0    0  0.11736448309E+01 -0.23918007101E+02  0.64135089683E+02  0.68459983922E+02  0.10566000000E+00 0. -1.
        -13    1    4    4    0    0  0.10465540673E+01 -0.65515956426E+01  0.17450755994E+02  0.18669727628E+02  0.10566000000E+00 0.  1.
         14    1    4    4    0    0  0.70396438526E+00 -0.35461544859E+01  0.99190760120E+01  0.10557407183E+02  0.00000000000E+00 0. -1.
<mgrwt>
<rscale>  0 0.77284386E+02</rscale>
<asrwt>0</asrwt>
<pdfrwt beam="1">  1        2 0.19832392E-01 0.77284386E+02</pdfrwt>
<pdfrwt beam="2">  1       -1 0.17820575E-02 0.77284386E+02</pdfrwt>
<totfact> 0.20932260E+05</totfact>
</mgrwt>
</event>
<event>
 8    1  0.2603554E-020  0.8278352E+02  0.7818608E-02  0.1321333E+00
          2   -1    0    0  501    0  0.00000000000E+00  0.00000000000E+00  0.64470600000E+03  0.64470600001E+03  0.25500000000E-02 0. -1.
         -1   -1    0    0    0  501 -0.00000000000E+00 -0.00000000000E+00 -0.26574532498E+01  0.26574580291E+01  0.50400000000E-02 0.  1.
         24    2    1    2    0    0  0.00000000000E+00  0.00000000000E+00  0.64204854675E+03  0.64736345803E+03  0.82783515351E+02 0.  0.
         66    2    3    3    0    0  0.35464042725E+01  0.37205508331E+02  0.45987942542E+03  0.46139994881E+03  0.20000005160E+01 0.  0.
        -13    1    3    3    0    0 -0.35464042725E+01 -0.37205508331E+02  0.18216912133E+03  0.18596350923E+03  0.10566000000E+00 0.  1.
         13    1    4    4    0    0  0.87772891596E+00  0.82480913316E+01  0.99946247168E+02  0.10028990431E+03  0.10566000000E+00 0. -1.
        -13    1    4    4    0    0  0.25263710330E+01  0.18852893114E+02  0.23257089363E+03  0.23334747879E+03  0.10566000000E+00 0.  1.
        -14    1    4    4    0    0  0.14230432352E+00  0.10104523885E+02  0.12736228462E+03  0.12776256572E+03  0.00000000000E+00 0.  1.
<mgrwt>
<rscale>  0 0.82783515E+02</rscale>
<asrwt>0</asrwt>
<pdfrwt beam="1">  1        2 0.99185648E-01 0.82783515E+02</pdfrwt>
<pdfrwt beam="2">  1       -1 0.40883888E-03 0.82783515E+02</pdfrwt>
<totfact> 0.29993453E+05</totfact>
</mgrwt>
</event>
<event>
 8    1  0.2603554E-020  0.7918416E+02  0.7818608E-02  0.1331383E+00
          2   -1    0    0  501    0  0.00000000000E+00  0.00000000000E+00  0.66049384171E+03  0.66049384171E+03  0.25500000000E-02 0. -1.
         -1   -1    0    0    0  501 -0.00000000000E+00 -0.00000000000E+00 -0.23732714230E+01  0.23732767746E+01  0.50400000000E-02 0.  1.
         24    2    1    2    0    0  0.00000000000E+00  0.00000000000E+00  0.65812057028E+03  0.66286711849E+03  0.79184163441E+02 0.  0.
         66    2    3    3    0    0  0.12075774268E+02  0.35043243505E+02  0.44516619344E+03  0.44671108452E+03  0.20000026984E+01 0.  0.
        -13    1    3    3    0    0 -0.12075774268E+02 -0.35043243505E+02  0.21295437684E+03  0.21615603397E+03  0.10566000000E+00 0.  1.
         13    1    4    4    0    0  0.32661770296E+01  0.86162051379E+01  0.11435516868E+03  0.11472585877E+03  0.10566000000E+00 0. -1.
        -13    1    4    4    0    0  0.81718482992E+01  0.23046698666E+02  0.29192142786E+03  0.29294378408E+03  0.10566000000E+00 0.  1.
        -14    1    4    4    0    0  0.63774893969E+00  0.33803397016E+01  0.38889596895E+02  0.39041441660E+02  0.00000000000E+00 0.  1.
<mgrwt>
<rscale>  0 0.79184163E+02</rscale>
<asrwt>0</asrwt>
<pdfrwt beam="1">  1        2 0.10161435E+00 0.79184163E+02</pdfrwt>
<pdfrwt beam="2">  1       -1 0.36511942E-03 0.79184163E+02</pdfrwt>
<totfact> 0.33880817E+05</totfact>
</mgrwt>
</event>
<event>
 8    1  0.2603554E-020  0.7785757E+02  0.7818608E-02  0.1335244E+00
         -1   -1    0    0    0  501 -0.00000000000E+00  0.00000000000E+00  0.11184843178E+01  0.11184956731E+01  0.50400000000E-02 0.  1.
          2   -1    0    0  501    0  0.00000000000E+00 -0.00000000000E+00 -0.13549071748E+04  0.13549071748E+04  0.25500000000E-02 0. -1.
         24    2    1    2    0    0 -0.17763568394E-14 -0.17763568394E-14 -0.13537886905E+04  0.13560256705E+04  0.77857565535E+02 0.  0.
         66    2    3    3    0    0 -0.13769947069E+02 -0.13970225090E+02 -0.12624664693E+04  0.12626204357E+04  0.19999998391E+01 0.  0.
        -13    1    3    3    0    0  0.13769947069E+02  0.13970225090E+02 -0.91322221242E+02  0.93405234800E+02  0.10566000000E+00 0.  1.
         13    1    4    4    0    0 -0.85013865112E+01 -0.93376930375E+01 -0.83114562798E+03  0.83124156065E+03  0.10566000000E+00 0. -1.
        -13    1    4    4    0    0 -0.33950122912E+01 -0.27852730795E+01 -0.24366885585E+03  0.24370844534E+03  0.10566000000E+00 0.  1.
         14    1    4    4    0    0 -0.18735482666E+01 -0.18472589728E+01 -0.18765198544E+03  0.18767042971E+03  0.00000000000E+00 0. -1.
<mgrwt>
<rscale>  0 0.77857566E+02</rscale>
<asrwt>0</asrwt>
<pdfrwt beam="1">  1        2 0.20844594E+00 0.77857566E+02</pdfrwt>
<pdfrwt beam="2">  1       -1 0.17207647E-03 0.77857566E+02</pdfrwt>
<totfact> 0.36809480E+05</totfact>
</mgrwt>
</event>
<event>
 8    1  0.2965607E-020  0.7408707E+02  0.7818608E-02  0.1346722E+00
          2   -1    0    0  501    0  0.00000000000E+00  0.00000000000E+00  0.11975756382E+04  0.11975756382E+04  0.25500000000E-02 0. -1.
         -1   -1    0    0    0  501 -0.00000000000E+00 -0.00000000000E+00 -0.11458290099E+01  0.11458400943E+01  0.50400000000E-02 0.  1.
         24    2    1    2    0    0  0.00000000000E+00  0.00000000000E+00  0.11964298092E+04  0.11987214783E+04  0.74087071827E+02 0.  0.
         66    2    3    3    0    0  0.12451370842E+02  0.13578478783E+02  0.11181244886E+04  0.11182780441E+04  0.20000001147E+01 0.  0.
        -13    1    3    3    0    0 -0.12451370842E+02 -0.13578478783E+02  0.78305320545E+02  0.80443434235E+02  0.10566000000E+00 0.  1.
         13    1    4    4    0    0  0.63300973399E+01  0.72405840547E+01  0.58424667909E+03  0.58432584179E+03  0.10566000000E+00 0. -1.
        -13    1    4    4    0    0  0.29078712899E+01  0.26700722061E+01  0.27651260217E+03  0.27654080228E+03  0.10566000000E+00 0.  1.
        -14    1    4    4    0    0  0.32134022123E+01  0.36678225219E+01  0.25736520738E+03  0.25741139999E+03  0.00000000000E+00 0.  1.
<mgrwt>
<rscale>  0 0.74087072E+02</rscale>
<asrwt>0</asrwt>
<pdfrwt beam="1">  1        2 0.18424277E+00 0.74087072E+02</pdfrwt>
<pdfrwt beam="2">  1       -1 0.17628189E-03 0.74087072E+02</pdfrwt>
<totfact> 0.42744409E+05</totfact>
</mgrwt>
</event>
<event>
 8    1  0.2603554E-020  0.8037631E+02  0.7818608E-02  0.1327987E+00
          2   -1    0    0  501    0  0.00000000000E+00  0.00000000000E+00  0.97566052488E+02  0.97566052521E+02  0.25500000000E-02 0. -1.
         -1   -1    0    0    0  501 -0.00000000000E+00 -0.00000000000E+00 -0.16553789297E+02  0.16553790064E+02  0.50400000000E-02 0.  1.
         24    2    1    2    0    0  0.00000000000E+00  0.00000000000E+00  0.81012263191E+02  0.11411984259E+03  0.80376312956E+02 0.  0.
         66    2    3    3    0    0  0.26758841918E+02  0.29682318689E+02  0.46211712487E+02  0.61127719049E+02  0.20000004075E+01 0.  0.
        -13    1    3    3    0    0 -0.26758841918E+02 -0.29682318689E+02  0.34800550704E+02  0.52992123536E+02  0.10566000000E+00 0.  1.
         13    1    4    4    0    0  0.20356012828E+02  0.21998741697E+02  0.35462335858E+02  0.46431673705E+02  0.10566000000E+00 0. -1.
        -13    1    4    4    0    0  0.26542408217E+01  0.36268608526E+01  0.49746717055E+01  0.67050456074E+01  0.10566000000E+00 0.  1.
         14    1    4    4    0    0  0.37485882687E+01  0.40567161389E+01  0.57747049233E+01  0.79909997367E+01  0.00000000000E+00 0. -1.
<mgrwt>
<rscale>  0 0.80376313E+02</rscale>
<asrwt>0</asrwt>
<pdfrwt beam="1">  1        2 0.15010162E-01 0.80376313E+02</pdfrwt>
<pdfrwt beam="2">  1       -1 0.25467369E-02 0.80376313E+02</pdfrwt>
<totfact> 0.17384446E+05</totfact>
</mgrwt>
</event>
<event>
 8    1  0.2603554E-020  0.8014773E+02  0.7818608E-02  0.1328633E+00
         -1   -1    0    0    0  501 -0.00000000000E+00  0.00000000000E+00  0.38688310175E+01  0.38688343003E+01  0.50400000000E-02 0.  1.
          2   -1    0    0  501    0  0.00000000000E+00 -0.00000000000E+00 -0.41509021202E+03  0.41509021203E+03  0.25500000000E-02 0. -1.
         24    2    1    2    0    0  0.00000000000E+00  0.00000000000E+00 -0.41122138100E+03  0.41895904633E+03  0.80147728019E+02 0.  0.
         66    2    3    3    0    0 -0.35065022054E+02  0.18752518380E+02 -0.23064205105E+03  0.23405334526E+03  0.19999994683E+01 0.  0.
        -13    1    3    3    0    0  0.35065022054E+02 -0.18752518380E+02 -0.18057932995E+03  0.18490570107E+03  0.10566000000E+00 0.  1.
         13    1    4    4    0    0 -0.95058981549E+01  0.53990474983E+01 -0.65962990265E+02  0.66862837678E+02  0.10566000000E+00 0. -1.
        -13    1    4    4    0    0 -0.74815068332E+01  0.35430697513E+01 -0.50346468966E+02  0.51022587049E+02  0.10566000000E+00 0.  1.
         14    1    4    4    0    0 -0.18077617065E+02  0.98104011300E+01 -0.11433259182E+03  0.11616792053E+03  0.00000000000E+00 0. -1.
<mgrwt>
<rscale>  0 0.80147728E+02</rscale>
<asrwt>0</asrwt>
<pdfrwt beam="1">  1        2 0.63859998E-01 0.80147728E+02</pdfrwt>
<pdfrwt beam="2">  1       -1 0.59520535E-03 0.80147728E+02</pdfrwt>
<totfact> 0.28482171E+05</totfact>
</mgrwt>
</event>
<event>
 8    1  0.2603554E-020  0.8152941E+02  0.7818608E-02  0.1324766E+00
          2   -1    0    0  501    0  0.00000000000E+00  0.00000000000E+00  0.25592009258E+03  0.25592009259E+03  0.25500000000E-02 0. -1.
         -1   -1    0    0    0  501 -0.00000000000E+00 -0.00000000000E+00 -0.64932801843E+01  0.64932821403E+01  0.50400000000E-02 0.  1.
         24    2    1    2    0    0  0.00000000000E+00  0.00000000000E+00  0.24942681240E+03  0.26241337474E+03  0.81529408786E+02 0.  0.
         66    2    3    3    0    0  0.14212930485E+02  0.11875552237E+02  0.24158166965E+03  0.24229886349E+03  0.20000006232E+01 0.  0.
        -13    1    3    3    0    0 -0.14212930485E+02 -0.11875552237E+02  0.78451427458E+01  0.20114511246E+02  0.10566000000E+00 0.  1.
         13    1    4    4    0    0  0.71313154491E+01  0.68631492123E+01  0.13276731192E+03  0.13313575311E+03  0.10566000000E+00 0. -1.
        -13    1    4    4    0    0  0.29550119809E+01  0.25853345903E+01  0.50643191783E+02  0.50795276244E+02  0.10566000000E+00 0.  1.
         14    1    4    4    0    0  0.41266030553E+01  0.24270684347E+01  0.58171165947E+02  0.58367834134E+02  0.00000000000E+00 0. -1.
<mgrwt>
<rscale>  0 0.81529409E+02</rscale>
<asrwt>0</asrwt>
<pdfrwt beam="1">  1        2 0.39372320E-01 0.81529409E+02</pdfrwt>
<pdfrwt beam="2">  1       -1 0.99896640E-03 0.81529409E+02</pdfrwt>
<totfact> 0.22899852E+05</totfact>
</mgrwt>
</event>
<event>
 8    1  0.2603554E-020  0.7898388E+02  0.7818608E-02  0.1331960E+00
         -1   -1    0    0    0  501 -0.00000000000E+00  0.00000000000E+00  0.17299076990E+03  0.17299076997E+03  0.50400000000E-02 0.  1.
          2   -1    0    0  501    0  0.00000000000E+00 -0.00000000000E+00 -0.90155861510E+01  0.90155865116E+01  0.25500000000E-02 0. -1.
         24    2    1    2    0    0  0.00000000000E+00 -0.88817841970E-15  0.16397518374E+03  0.18200635648E+03  0.78983877566E+02 0.  0.
         66    2    3    3    0    0 -0.36565993010E+02  0.64386340912E+01  0.11287701809E+03  0.11884338037E+03  0.19999978333E+01 0.  0.
        -13    1    3    3    0    0  0.36565993010E+02 -0.64386340912E+01  0.51098165658E+02  0.63162976113E+02  0.10566000000E+00 0.  1.
         13    1    4    4    0    0 -0.15147304602E+02  0.33888523969E+01  0.48600956899E+02  0.51019499535E+02  0.10566000000E+00 0. -1.
        -13    1    4    4    0    0 -0.23015325739E+01  0.52899302996E+00  0.67245994664E+01  0.71279932543E+01  0.10566000000E+00 0.  1.
        -14    1    4    4    0    0 -0.19117155834E+02  0.25207886643E+01  0.57551461721E+02  0.60695887578E+02  0.00000000000E+00 0.  1.
<mgrwt>
<rscale>  0 0.78983878E+02</rscale>
<asrwt>0</asrwt>
<pdfrwt beam="1">  1        2 0.13870133E-02 0.78983878E+02</pdfrwt>
<pdfrwt beam="2">  1       -1 0.26613964E-01 0.78983878E+02</pdfrwt>
<totfact> 0.10729406E+05</totfact>
</mgrwt>
</event>
<event>
 8    1  0.2603554E-020  0.8193226E+02  0.7818608E-02  0.1323656E+00
          2   -1    0    0  501    0  0.00000000000E+00  0.00000000000E+00  0.41429645922E+02  0.41429646001E+02  0.25500000000E-02 0. -1.
         -1   -1    0    0    0  501 -0.00000000000E+00 -0.00000000000E+00 -0.40507801787E+02  0.40507802100E+02  0.50400000000E-02 0.  1.
         24    2    1    2    0    0 -0.35527136788E-14 -0.35527136788E-14  0.92184413528E+00  0.81937448101E+02  0.81932262294E+02 0.  0.
         66    2    3    3    0    0 -0.27966682387E+02 -0.28795865227E+02 -0.75942334048E+01  0.40902439650E+02  0.20000026092E+01 0.  0.
        -13    1    3    3    0    0  0.27966682387E+02  0.28795865227E+02  0.85160775400E+01  0.41035008451E+02  0.10566000000E+00 0.  1.
         13    1    4    4    0    0 -0.12512519902E+02 -0.13182719895E+02 -0.30730505374E+01  0.18433720779E+02  0.10566000000E+00 0. -1.
        -13    1    4    4    0    0 -0.16810845156E+01 -0.19674726565E+01 -0.15292986471E+00  0.25945221876E+01  0.10566000000E+00 0.  1.
         14    1    4    4    0    0 -0.13773077969E+02 -0.13645672675E+02 -0.43682530027E+01  0.19874196683E+02  0.00000000000E+00 0. -1.
<mgrwt>
<rscale>  0 0.81932262E+02</rscale>
<asrwt>0</asrwt>
<pdfrwt beam="1">  1        2 0.63737917E-02 0.81932262E+02</pdfrwt>
<pdfrwt beam="2">  1       -1 0.62319696E-02 0.81932262E+02</pdfrwt>
<totfact> 0.13441828E+05</totfact>
</mgrwt>
</event>
<event>
 8    1  0.2603554E-020  0.8210961E+02  0.7818608E-02  0.1323169E+00
         -1   -1    0    0    0  501 -0.00000000000E+00  0.00000000000E+00  0.35088234674E+01  0.35088270871E+01  0.50400000000E-02 0.  1.
          2   -1    0    0  501    0  0.00000000000E+00 -0.00000000000E+00 -0.48035937957E+03  0.48035937958E+03  0.25500000000E-02 0. -1.
         24    2    1    2    0    0 -0.88817841970E-15  0.00000000000E+00 -0.47685055610E+03  0.48386820666E+03  0.82109613108E+02 0.  0.
         66    2    3    3    0    0  0.49245092638E+01 -0.37707506803E+02 -0.32936093185E+03  0.33155501851E+03  0.20000015032E+01 0.  0.
        -13    1    3    3    0    0 -0.49245092638E+01  0.37707506803E+02 -0.14748962425E+03  0.15231318815E+03  0.10566000000E+00 0.  1.
         13    1    4    4    0    0  0.97736958268E+00 -0.44138535329E+01 -0.41944229379E+02  0.42187283588E+02  0.10566000000E+00 0. -1.
        -13    1    4    4    0    0  0.26600349460E+01 -0.18439808567E+02 -0.16222334306E+03  0.16328970122E+03  0.10566000000E+00 0.  1.
         14    1    4    4    0    0  0.12871047351E+01 -0.14853844703E+02 -0.12519335941E+03  0.12607803370E+03  0.00000000000E+00 0. -1.
<mgrwt>
<rscale>  0 0.82109613E+02</rscale>
<asrwt>0</asrwt>
<pdfrwt beam="1">  1        2 0.73901391E-01 0.82109613E+02</pdfrwt>
<pdfrwt beam="2">  1       -1 0.53981966E-03 0.82109613E+02</pdfrwt>
<totfact> 0.28085966E+05</totfact>
</mgrwt>
</event>
<event>
 8    1  0.2603554E-020  0.8039712E+02  0.7818608E-02  0.1327928E+00
          2   -1    0    0  501    0  0.00000000000E+00  0.00000000000E+00  0.90051014129E+03  0.90051014129E+03  0.25500000000E-02 0. -1.
         -1   -1    0    0    0  501 -0.00000000000E+00 -0.00000000000E+00 -0.17944505693E+01  0.17944576471E+01  0.50400000000E-02 0.  1.
         24    2    1    2    0    0  0.00000000000E+00  0.00000000000E+00  0.89871569072E+03  0.90230459894E+03  0.80397117622E+02 0.  0.
         66    2    3    3    0    0 -0.27836899755E+02  0.86039601028E+01  0.76005026130E+03  0.76061114956E+03  0.20000031291E+01 0.  0.
        -13    1    3    3    0    0  0.27836899755E+02 -0.86039601028E+01  0.13866542942E+03  0.14169344938E+03  0.10566000000E+00 0.  1.
         13    1    4    4    0    0 -0.63629036958E+01  0.24184008481E+01  0.17079647401E+03  0.17093209735E+03  0.10566000000E+00 0. -1.
        -13    1    4    4    0    0 -0.29228992560E+01  0.11792319712E+01  0.92754828749E+02  0.92808422832E+02  0.10566000000E+00 0.  1.
        -14    1    4    4    0    0 -0.18551096803E+02  0.50063272835E+01  0.49649895854E+03  0.49687062938E+03  0.00000000000E+00 0.  1.
<mgrwt>
<rscale>  0 0.80397118E+02</rscale>
<asrwt>0</asrwt>
<pdfrwt beam="1">  1        2 0.13854036E+00 0.80397118E+02</pdfrwt>
<pdfrwt beam="2">  1       -1 0.27606919E-03 0.80397118E+02</pdfrwt>
<totfact> 0.34502155E+05</totfact>
</mgrwt>
</event>
<event>
 8    1  0.2603554E-020  0.7960216E+02  0.7818608E-02  0.1330184E+00
         -1   -1    0    0    0  501 -0.00000000000E+00  0.00000000000E+00  0.21212595437E+02  0.21212596036E+02  0.50400000000E-02 0.  1.
          2   -1    0    0  501    0  0.00000000000E+00 -0.00000000000E+00 -0.74678552601E+02  0.74678552645E+02  0.25500000000E-02 0. -1.
         24    2    1    2    0    0  0.35527136788E-14  0.88817841970E-15 -0.53465957164E+02  0.95891148680E+02  0.79602159642E+02 0.  0.
         66    2    3    3    0    0 -0.20820499413E+02 -0.49354759698E+01 -0.67141193921E+02  0.70496751991E+02  0.20000003127E+01 0.  0.
        -13    1    3    3    0    0  0.20820499413E+02  0.49354759698E+01  0.13675236757E+02  0.25394396690E+02  0.10566000000E+00 0.  1.
         13    1    4    4    0    0 -0.62067848637E+01 -0.11129065607E+01 -0.18787961948E+02  0.19818209242E+02  0.10566000000E+00 0. -1.
        -13    1    4    4    0    0 -0.27877426144E+01 -0.68840162547E+00 -0.11205478039E+02  0.11568029556E+02  0.10566000000E+00 0.  1.
         14    1    4    4    0    0 -0.11825971935E+02 -0.31341677836E+01 -0.37147753934E+02  0.39110513193E+02  0.00000000000E+00 0. -1.
<mgrwt>
<rscale>  0 0.79602160E+02</rscale>
<asrwt>0</asrwt>
<pdfrwt beam="1">  1        2 0.11489008E-01 0.79602160E+02</pdfrwt>
<pdfrwt beam="2">  1       -1 0.32634763E-02 0.79602160E+02</pdfrwt>
<totfact> 0.16629202E+05</totfact>
</mgrwt>
</event>
<event>
 8    1  0.2603554E-020  0.8257935E+02  0.7818608E-02  0.1321887E+00
         -1   -1    0    0    0  501 -0.00000000000E+00  0.00000000000E+00  0.32637141677E+01  0.32637180592E+01  0.50400000000E-02 0.  1.
          2   -1    0    0  501    0  0.00000000000E+00 -0.00000000000E+00 -0.52236076499E+03  0.52236076499E+03  0.25500000000E-02 0. -1.
         24    2    1    2    0    0  0.00000000000E+00  0.00000000000E+00 -0.51909705082E+03  0.52562448305E+03  0.82579349809E+02 0.  0.
         66    2    3    3    0    0  0.23728417689E+02  0.26470832985E+02 -0.39307724638E+03  0.39468653943E+03  0.19999953007E+01 0.  0.
        -13    1    3    3    0    0 -0.23728417689E+02 -0.26470832985E+02 -0.12601980444E+03  0.13093794362E+03  0.10566000000E+00 0.  1.
         13    1    4    4    0    0  0.17112719087E+02  0.19476743975E+02 -0.28192861200E+03  0.28311824762E+03  0.10566000000E+00 0. -1.
        -13    1    4    4    0    0  0.18779395215E+01  0.16410540584E+01 -0.25521233626E+02  0.25643015523E+02  0.10566000000E+00 0.  1.
         14    1    4    4    0    0  0.47377590806E+01  0.53530349521E+01 -0.85627400757E+02  0.85925276285E+02  0.00000000000E+00 0. -1.
<mgrwt>
<rscale>  0 0.82579350E+02</rscale>
<asrwt>0</asrwt>
<pdfrwt beam="1">  1        2 0.80363129E-01 0.82579350E+02</pdfrwt>
<pdfrwt beam="2">  1       -1 0.50211059E-03 0.82579350E+02</pdfrwt>
<totfact> 0.28419946E+05</totfact>
</mgrwt>
</event>
<event>
 8    1  0.2603554E-020  0.8131859E+02  0.7818608E-02  0.1325351E+00
          2   -1    0    0  501    0  0.00000000000E+00  0.00000000000E+00  0.21378930215E+02  0.21378930367E+02  0.25500000000E-02 0. -1.
         -1   -1    0    0    0  501 -0.00000000000E+00 -0.00000000000E+00 -0.77327457354E+02  0.77327457518E+02  0.50400000000E-02 0.  1.
         24    2    1    2    0    0  0.00000000000E+00  0.88817841970E-15 -0.55948527139E+02  0.98706387885E+02  0.81318591480E+02 0.  0.
         66    2    3    3    0    0  0.36051018838E+02  0.79670468657E+01 -0.48591241961E+02  0.61059467636E+02  0.19999994069E+01 0.  0.
        -13    1    3    3    0    0 -0.36051018838E+02 -0.79670468657E+01 -0.73572851788E+01  0.37646920250E+02  0.10566000000E+00 0.  1.
         13    1    4    4    0    0  0.14839242322E+02  0.27292610591E+01 -0.20841962067E+02  0.25730342505E+02  0.10566000000E+00 0. -1.
        -13    1    4    4    0    0  0.45155406774E+01  0.13261718082E+01 -0.55385639509E+01  0.72688165438E+01  0.10566000000E+00 0.  1.
        -14    1    4    4    0    0  0.16696235839E+02  0.39116139985E+01 -0.22210715943E+02  0.28060308586E+02  0.00000000000E+00 0.  1.
<mgrwt>
<rscale>  0 0.81318591E+02</rscale>
<asrwt>0</asrwt>
<pdfrwt beam="1">  1        2 0.32890662E-02 0.81318591E+02</pdfrwt>
<pdfrwt beam="2">  1       -1 0.11896532E-01 0.81318591E+02</pdfrwt>
<totfact> 0.12007814E+05</totfact>
</mgrwt>
</event>
<event>
 8    1  0.2603554E-020  0.8032623E+02  0.7818608E-02  0.1328128E+00
         -1   -1    0    0    0  501 -0.00000000000E+00  0.00000000000E+00  0.93277821924E+01  0.93277835540E+01  0.50400000000E-02 0.  1.
          2   -1    0    0  501    0  0.00000000000E+00 -0.00000000000E+00 -0.17293238344E+03  0.17293238346E+03  0.25500000000E-02 0. -1.
         24    2    1    2    0    0  0.00000000000E+00  0.00000000000E+00 -0.16360460125E+03  0.18226016701E+03  0.80326228158E+02 0.  0.
         66    2    3    3    0    0  0.18983891073E+02  0.21278881389E+01 -0.16195063207E+03  0.16308563165E+03  0.19999991682E+01 0.  0.
        -13    1    3    3    0    0 -0.18983891073E+02 -0.21278881389E+01 -0.16539691815E+01  0.19174535360E+02  0.10566000000E+00 0.  1.
         13    1    4    4    0    0  0.16710186263E+02  0.15394932496E+01 -0.14417221201E+03  0.14514557605E+03  0.10566000000E+00 0. -1.
        -13    1    4    4    0    0  0.19734315089E+01  0.47401349832E+00 -0.16356936199E+02  0.16482707502E+02  0.10566000000E+00 0.  1.
         14    1    4    4    0    0  0.30027330090E+00  0.11438139102E+00 -0.14214838518E+01  0.14573481049E+01  0.00000000000E+00 0. -1.
<mgrwt>
<rscale>  0 0.80326228E+02</rscale>
<asrwt>0</asrwt>
<pdfrwt beam="1">  1        2 0.26604980E-01 0.80326228E+02</pdfrwt>
<pdfrwt beam="2">  1       -1 0.14350436E-02 0.80326228E+02</pdfrwt>
<totfact> 0.20764128E+05</totfact>
</mgrwt>
</event>
<event>
 8    1  0.2603554E-020  0.7696527E+02  0.7818608E-02  0.1337891E+00
          2   -1    0    0  501    0  0.00000000000E+00  0.00000000000E+00  0.80380802098E+03  0.80380802098E+03  0.25500000000E-02 0. -1.
         -1   -1    0    0    0  501 -0.00000000000E+00 -0.00000000000E+00 -0.18423684164E+01  0.18423753101E+01  0.50400000000E-02 0.  1.
         24    2    1    2    0    0  0.00000000000E+00 -0.88817841970E-15  0.80196565256E+03  0.80565039629E+03  0.76965272410E+02 0.  0.
         66    2    3    3    0    0 -0.12217926995E+02  0.79616049676E+01  0.77373924250E+03  0.77387924141E+03  0.20000007511E+01 0.  0.
        -13    1    3    3    0    0  0.12217926995E+02 -0.79616049676E+01  0.28226410060E+02  0.31771154883E+02  0.10566000000E+00 0.  1.
         13    1    4    4    0    0 -0.14090156328E+01  0.81265345540E+00  0.81422756269E+02  0.81439070066E+02  0.10566000000E+00 0. -1.
        -13    1    4    4    0    0 -0.53059574591E+01  0.24261203497E+01  0.31036709528E+03  0.31042194549E+03  0.10566000000E+00 0.  1.
        -14    1    4    4    0    0 -0.55029539027E+01  0.47228311625E+01  0.38194939095E+03  0.38201822586E+03  0.00000000000E+00 0.  1.
<mgrwt>
<rscale>  0 0.76965272E+02</rscale>
<asrwt>0</asrwt>
<pdfrwt beam="1">  1        2 0.12366263E+00 0.76965272E+02</pdfrwt>
<pdfrwt beam="2">  1       -1 0.28344216E-03 0.76965272E+02</pdfrwt>
<totfact> 0.38020632E+05</totfact>
</mgrwt>
</event>
<event>
 8    1  0.2603554E-020  0.8097346E+02  0.7818608E-02  0.1326311E+00
          2   -1    0    0  501    0  0.00000000000E+00  0.00000000000E+00  0.36017254406E+02  0.36017254496E+02  0.25500000000E-02 0. -1.
         -1   -1    0    0    0  501 -0.00000000000E+00 -0.00000000000E+00 -0.45510828931E+02  0.45510829210E+02  0.50400000000E-02 0.  1.
         24    2    1    2    0    0  0.00000000000E+00  0.00000000000E+00 -0.94935745251E+01  0.81528083706E+02  0.80973455376E+02 0.  0.
         66    2    3    3    0    0  0.16865803934E+02 -0.33802912935E+02  0.98436656965E+01  0.39089512940E+02  0.20000005647E+01 0.  0.
        -13    1    3    3    0    0 -0.16865803934E+02  0.33802912935E+02 -0.19337240222E+02  0.42438570766E+02  0.10566000000E+00 0.  1.
         13    1    4    4    0    0  0.19478545148E+01 -0.42287878106E+01  0.10746922027E+01  0.47794257944E+01  0.10566000000E+00 0.  1.
        -13    1    4    4    0    0  0.51426405264E+01 -0.10634253163E+02  0.39757862472E+01  0.12464033546E+02  0.10566000000E+00 0. -1.
         14    1    4    4    0    0  0.97753088927E+01 -0.18939871962E+02  0.47931872466E+01  0.21846053600E+02  0.00000000000E+00 0. -1.
<mgrwt>
<rscale>  0 0.80973455E+02</rscale>
<asrwt>0</asrwt>
<pdfrwt beam="1">  1        2 0.55411160E-02 0.80973455E+02</pdfrwt>
<pdfrwt beam="2">  1       -1 0.70016661E-02 0.80973455E+02</pdfrwt>
<totfact> 0.13492727E+05</totfact>
</mgrwt>
</event>
<event>
 8    1  0.2603554E-020  0.8048577E+02  0.7818608E-02  0.1327679E+00
         -1   -1    0    0    0  501 -0.00000000000E+00  0.00000000000E+00  0.47543345840E+01  0.47543372554E+01  0.50400000000E-02 0.  1.
          2   -1    0    0  501    0  0.00000000000E+00 -0.00000000000E+00 -0.34063424384E+03  0.34063424385E+03  0.25500000000E-02 0. -1.
         24    2    1    2    0    0  0.00000000000E+00 -0.35527136788E-14 -0.33587990925E+03  0.34538858110E+03  0.80485765920E+02 0.  0.
         66    2    3    3    0    0  0.20441262868E+02  0.17323246344E+02 -0.29674979240E+03  0.29796372158E+03  0.19999996041E+01 0.  0.
        -13    1    3    3    0    0 -0.20441262868E+02 -0.17323246344E+02 -0.39130116858E+02  0.47424859525E+02  0.10566000000E+00 0.  1.
         13    1    4    4    0    0  0.90241428256E+01  0.82436021598E+01 -0.13805513975E+03  0.13859518356E+03  0.10566000000E+00 0. -1.
        -13    1    4    4    0    0  0.23904203611E+00  0.12906743355E+00 -0.20360169316E+01  0.20567762345E+01  0.10566000000E+00 0. -1.
         14    1    4    4    0    0  0.11178078006E+02  0.89505767505E+01 -0.15665863571E+03  0.15731176178E+03  0.00000000000E+00 0. -1.
<mgrwt>
<rscale>  0 0.80485766E+02</rscale>
<asrwt>0</asrwt>
<pdfrwt beam="1">  1        2 0.52405249E-01 0.80485766E+02</pdfrwt>
<pdfrwt beam="2">  1       -1 0.73143657E-03 0.80485766E+02</pdfrwt>
<totfact> 0.26269665E+05</totfact>
</mgrwt>
</event>
<event>
 8    1  0.2603554E-020  0.8039705E+02  0.7818608E-02  0.1327928E+00
          2   -1    0    0  501    0  0.00000000000E+00  0.00000000000E+00  0.78633833432E+01  0.78633837566E+01  0.25500000000E-02 0. -1.
         -1   -1    0    0    0  501 -0.00000000000E+00 -0.00000000000E+00 -0.20549952097E+03  0.20549952103E+03  0.50400000000E-02 0.  1.
         24    2    1    2    0    0  0.00000000000E+00  0.00000000000E+00 -0.19763613763E+03  0.21336290479E+03  0.80397053700E+02 0.  0.
         66    2    3    3    0    0 -0.34016575963E+02 -0.17684583161E+02 -0.67027737938E+02  0.77243702781E+02  0.20000111021E+01 0.  0.
        -13    1    3    3    0    0  0.34016575963E+02  0.17684583161E+02 -0.13060839969E+03  0.13611920201E+03  0.10566000000E+00 0.  1.
         13    1    4    4    0    0 -0.15379180932E+02 -0.79742541404E+01 -0.30870680148E+02  0.35399406663E+02  0.10566000000E+00 0. -1.
        -13    1    4    4    0    0 -0.18238047868E+02 -0.92870145088E+01 -0.35381946188E+02  0.40875032827E+02  0.10566000000E+00 0.  1.
        -14    1    4    4    0    0 -0.39934716350E+00 -0.42331451159E+00 -0.77511160260E+00  0.96926329199E+00  0.00000000000E+00 0.  1.
<mgrwt>
<rscale>  0 0.80397054E+02</rscale>
<asrwt>0</asrwt>
<pdfrwt beam="1">  1        2 0.12097515E-02 0.80397054E+02</pdfrwt>
<pdfrwt beam="2">  1       -1 0.31615307E-01 0.80397054E+02</pdfrwt>
<totfact> 0.97544636E+04</totfact>
</mgrwt>
</event>
<event>
 8    1  0.2603554E-020  0.8084383E+02  0.7818608E-02  0.1326674E+00
          2   -1    0    0  501    0  0.00000000000E+00  0.00000000000E+00  0.74739411369E+01  0.74739415719E+01  0.25500000000E-02 0. -1.
         -1   -1    0    0    0  501 -0.00000000000E+00 -0.00000000000E+00 -0.21861705535E+03  0.21861705540E+03  0.50400000000E-02 0.  1.
         24    2    1    2    0    0  0.11102230246E-15  0.71054273576E-14 -0.21114311421E+03  0.22609099698E+03  0.80843826206E+02 0.  0.
         66    2    3    3    0    0  0.75802648032E+00 -0.31773232083E+02 -0.35898487009E+02  0.47987646621E+02  0.19999943882E+01 0.  0.
        -13    1    3    3    0    0 -0.75802648032E+00  0.31773232083E+02 -0.17524462720E+03  0.17810335035E+03  0.10566000000E+00 0.  1.
         13    1    4    4    0    0  0.81818925929E+00 -0.99664421491E+01 -0.12055215812E+02  0.15663294516E+02  0.10566000000E+00 0. -1.
        -13    1    4    4    0    0  0.18666496057E+00 -0.14920706819E+01 -0.17624647925E+01  0.23191733242E+01  0.10566000000E+00 0.  1.
         14    1    4    4    0    0 -0.24682773954E+00 -0.20314719252E+02 -0.22080806404E+02  0.30005178781E+02  0.00000000000E+00 0. -1.
<mgrwt>
<rscale>  0 0.80843826E+02</rscale>
<asrwt>0</asrwt>
<pdfrwt beam="1">  1        2 0.11498373E-02 0.80843826E+02</pdfrwt>
<pdfrwt beam="2">  1       -1 0.33633388E-01 0.80843826E+02</pdfrwt>
<totfact> 0.94321328E+04</totfact>
</mgrwt>
</event>
<event>
 8    1  0.2603554E-020  0.8009715E+02  0.7818608E-02  0.1328776E+00
         -1   -1    0    0    0  501 -0.00000000000E+00  0.00000000000E+00  0.13902883726E+02  0.13902884639E+02  0.50400000000E-02 0.  1.
          2   -1    0    0  501    0  0.00000000000E+00 -0.00000000000E+00 -0.11536370335E+03  0.11536370338E+03  0.25500000000E-02 0. -1.
         24    2    1    2    0    0  0.88817841970E-15  0.00000000000E+00 -0.10146081962E+03  0.12926658802E+03  0.80097146383E+02 0.  0.
         66    2    3    3    0    0 -0.79860301479E+01 -0.26415143354E+02 -0.97546076184E+02  0.10139414901E+03  0.19999996294E+01 0.  0.
        -13    1    3    3    0    0  0.79860301479E+01  0.26415143354E+02 -0.39147434394E+01  0.27872439007E+02  0.10566000000E+00 0.  1.
         13    1    4    4    0    0 -0.54285200221E+01 -0.15953140327E+02 -0.56836937954E+02  0.59282545457E+02  0.10566000000E+00 0. -1.
        -13    1    4    4    0    0 -0.46730972969E+00 -0.25069854981E+01 -0.95880237315E+01  0.99219311519E+01  0.10566000000E+00 0.  1.
        -14    1    4    4    0    0 -0.20902003961E+01 -0.79550175293E+01 -0.31121114499E+02  0.32189672400E+02  0.00000000000E+00 0.  1.
<mgrwt>
<rscale>  0 0.80097146E+02</rscale>
<asrwt>0</asrwt>
<pdfrwt beam="1">  1        2 0.17748261E-01 0.80097146E+02</pdfrwt>
<pdfrwt beam="2">  1       -1 0.21389053E-02 0.80097146E+02</pdfrwt>
<totfact> 0.18409396E+05</totfact>
</mgrwt>
</event>
<event>
 8    1  0.2603554E-020  0.8105588E+02  0.7818608E-02  0.1326081E+00
          2   -1    0    0  501    0  0.00000000000E+00  0.00000000000E+00  0.32875937178E+03  0.32875937179E+03  0.25500000000E-02 0. -1.
         -1   -1    0    0    0  501 -0.00000000000E+00 -0.00000000000E+00 -0.49960958152E+01  0.49960983574E+01  0.50400000000E-02 0.  1.
         24    2    1    2    0    0 -0.35527136788E-14 -0.17763568394E-14  0.32376327596E+03  0.33375547015E+03  0.81055875726E+02 0.  0.
         66    2    3    3    0    0  0.13288553547E+02  0.97392458976E+01  0.31433493356E+03  0.31477275773E+03  0.19999974451E+01 0.  0.
        -13    1    3    3    0    0 -0.13288553547E+02 -0.97392458976E+01  0.94283424060E+01  0.18982712414E+02  0.10566000000E+00 0.  1.
         13    1    4    4    0    0  0.31966251548E+01  0.28253875073E+01  0.72051222383E+02  0.72177496755E+02  0.10566000000E+00 0. -1.
        -13    1    4    4    0    0  0.14480866865E+01  0.10407291992E+01  0.28062404417E+02  0.28119206568E+02  0.10566000000E+00 0.  1.
         14    1    4    4    0    0  0.86438417055E+01  0.58731291911E+01  0.21422130676E+03  0.21447605441E+03  0.00000000000E+00 0. -1.
<mgrwt>
<rscale>  0 0.81055876E+02</rscale>
<asrwt>0</asrwt>
<pdfrwt beam="1">  1        2 0.50578365E-01 0.81055876E+02</pdfrwt>
<pdfrwt beam="2">  1       -1 0.76863032E-03 0.81055876E+02</pdfrwt>
<totfact> 0.25461402E+05</totfact>
</mgrwt>
</event>
<event>
 8    1  0.2603554E-020  0.8111496E+02  0.7818608E-02  0.1325917E+00
         -1   -1    0    0    0  501 -0.00000000000E+00  0.00000000000E+00  0.68666554590E+01  0.68666573086E+01  0.50400000000E-02 0.  1.
          2   -1    0    0  501    0  0.00000000000E+00 -0.00000000000E+00 -0.23955021154E+03  0.23955021156E+03  0.25500000000E-02 0. -1.
         24    2    1    2    0    0  0.00000000000E+00  0.00000000000E+00 -0.23268355609E+03  0.24641686887E+03  0.81114955399E+02 0.  0.
         66    2    3    3    0    0  0.21253426177E+02 -0.72908214069E+01 -0.21889445959E+03  0.22005374031E+03  0.19999961029E+01 0.  0.
        -13    1    3    3    0    0 -0.21253426177E+02  0.72908214069E+01 -0.13789096494E+02  0.26363128555E+02  0.10566000000E+00 0.  1.
         13    1    4    4    0    0  0.91111549281E+00 -0.22352919722E+00 -0.10872846188E+02  0.10913754854E+02  0.10566000000E+00 0.  1.
        -13    1    4    4    0    0  0.75575574192E+01 -0.30328719393E+01 -0.71882087675E+02  0.72341970383E+02  0.10566000000E+00 0. -1.
         14    1    4    4    0    0  0.12784753265E+02 -0.40344202704E+01 -0.13613952573E+03  0.13679801507E+03  0.00000000000E+00 0. -1.
<mgrwt>
<rscale>  0 0.81114955E+02</rscale>
<asrwt>0</asrwt>
<pdfrwt beam="1">  1        2 0.36853872E-01 0.81114955E+02</pdfrwt>
<pdfrwt beam="2">  1       -1 0.10564089E-02 0.81114955E+02</pdfrwt>
<totfact> 0.22665718E+05</totfact>
</mgrwt>
</event>
<event>
 8    1  0.2603554E-020  0.8125492E+02  0.7818608E-02  0.1325527E+00
          2   -1    0    0  501    0  0.00000000000E+00  0.00000000000E+00  0.35484229991E+03  0.35484229992E+03  0.25500000000E-02 0. -1.
         -1   -1    0    0    0  501 -0.00000000000E+00 -0.00000000000E+00 -0.46516157773E+01  0.46516185078E+01  0.50400000000E-02 0.  1.
         24    2    1    2    0    0  0.44408920985E-15  0.71054273576E-14  0.35019068413E+03  0.35949391843E+03  0.81254920667E+02 0.  0.
         66    2    3    3    0    0  0.32492042651E+01  0.39870471547E+02  0.20597248238E+03  0.20983058722E+03  0.20000004728E+01 0.  0.
        -13    1    3    3    0    0 -0.32492042651E+01 -0.39870471547E+02  0.14421820175E+03  0.14966333121E+03  0.10566000000E+00 0.  1.
         13    1    4    4    0    0  0.12411062223E+01  0.16613682535E+02  0.86376490916E+02  0.87968540622E+02  0.10566000000E+00 0. -1.
        -13    1    4    4    0    0  0.15727356041E+00  0.70119386695E+01  0.33279267552E+02  0.34010481203E+02  0.10566000000E+00 0.  1.
         14    1    4    4    0    0  0.18508244824E+01  0.16244850343E+02  0.86316723917E+02  0.87851565391E+02  0.00000000000E+00 0. -1.
<mgrwt>
<rscale>  0 0.81254921E+02</rscale>
<asrwt>0</asrwt>
<pdfrwt beam="1">  1        2 0.54591119E-01 0.81254921E+02</pdfrwt>
<pdfrwt beam="2">  1       -1 0.71563346E-03 0.81254921E+02</pdfrwt>
<totfact> 0.26000599E+05</totfact>
</mgrwt>
</event>
<event>
 8    1  0.2603554E-020  0.7972048E+02  0.7818608E-02  0.1329847E+00
         -1   -1    0    0    0  501 -0.00000000000E+00  0.00000000000E+00  0.70592145660E+01  0.70592163652E+01  0.50400000000E-02 0.  1.
          2   -1    0    0  501    0  0.00000000000E+00 -0.00000000000E+00 -0.22507298999E+03  0.22507299000E+03  0.25500000000E-02 0. -1.
         24    2    1    2    0    0  0.00000000000E+00 -0.71054273576E-14 -0.21801377542E+03  0.23213220637E+03  0.79720480175E+02 0.  0.
         66    2    3    3    0    0 -0.20396935695E+02 -0.34201359382E+02 -0.10606916794E+03  0.11331564912E+03  0.19999943110E+01 0.  0.
        -13    1    3    3    0    0  0.20396935695E+02  0.34201359382E+02 -0.11194460748E+03  0.11881655725E+03  0.10566000000E+00 0.  1.
         13    1    4    4    0    0 -0.74429903791E+01 -0.12893845711E+02 -0.41681737708E+02  0.44260905835E+02  0.10566000000E+00 0. -1.
        -13    1    4    4    0    0 -0.40466052139E+01 -0.65301690820E+01 -0.21098389859E+02  0.22453760057E+02  0.10566000000E+00 0.  1.
        -14    1    4    4    0    0 -0.89073401016E+01 -0.14777344590E+02 -0.43289040378E+02  0.46600983226E+02  0.00000000000E+00 0.  1.
<mgrwt>
<rscale>  0 0.79720480E+02</rscale>
<asrwt>0</asrwt>
<pdfrwt beam="1">  1        2 0.34626608E-01 0.79720480E+02</pdfrwt>
<pdfrwt beam="2">  1       -1 0.10860333E-02 0.79720480E+02</pdfrwt>
<totfact> 0.23204597E+05</totfact>
</mgrwt>
</event>
<event>
 8    1  0.2603554E-020  0.8261013E+02  0.7818608E-02  0.1321803E+00
         -1   -1    0    0    0  501 -0.00000000000E+00  0.00000000000E+00  0.15575132012E+02  0.15575132827E+02  0.50400000000E-02 0.  1.
          2   -1    0    0  501    0  0.00000000000E+00 -0.00000000000E+00 -0.10954054221E+03  0.10954054224E+03  0.25500000000E-02 0. -1.
         24    2    1    2    0    0  0.00000000000E+00  0.00000000000E+00 -0.93965410200E+02  0.12511567507E+03  0.82610131546E+02 0.  0.
         66    2    3    3    0    0 -0.26577152959E+02  0.21245006167E+02 -0.82412914739E+02  0.89182867472E+02  0.19999970396E+01 0.  0.
        -13    1    3    3    0    0  0.26577152959E+02 -0.21245006167E+02 -0.11552495461E+02  0.35932807598E+02  0.10566000000E+00 0.  1.
         13    1    4    4    0    0 -0.66035032655E+01  0.58441015570E+01 -0.21467980064E+02  0.23208729186E+02  0.10566000000E+00 0. -1.
        -13    1    4    4    0    0 -0.85353663998E+01  0.74130153041E+01 -0.28090801688E+02  0.30280514840E+02  0.10566000000E+00 0.  1.
        -14    1    4    4    0    0 -0.11438283294E+02  0.79878893058E+01 -0.32854132988E+02  0.35693623446E+02  0.00000000000E+00 0.  1.
<mgrwt>
<rscale>  0 0.82610132E+02</rscale>
<asrwt>0</asrwt>
<pdfrwt beam="1">  1        2 0.16852391E-01 0.82610132E+02</pdfrwt>
<pdfrwt beam="2">  1       -1 0.23961743E-02 0.82610132E+02</pdfrwt>
<totfact> 0.16693108E+05</totfact>
</mgrwt>
</event>
<event>
 8    1  0.2603554E-020  0.7932096E+02  0.7818608E-02  0.1330990E+00
          2   -1    0    0  501    0  0.00000000000E+00  0.00000000000E+00  0.46272656121E+03  0.46272656122E+03  0.25500000000E-02 0. -1.
         -1   -1    0    0    0  501 -0.00000000000E+00 -0.00000000000E+00 -0.33993139320E+01  0.33993176683E+01  0.50400000000E-02 0.  1.
         24    2    1    2    0    0  0.35527136788E-14  0.35527136788E-14  0.45932724728E+03  0.46612587888E+03  0.79320961130E+02 0.  0.
         66    2    3    3    0    0 -0.21333525638E+02 -0.25926039866E+02  0.35358772969E+03  0.35518384175E+03  0.19999989204E+01 0.  0.
        -13    1    3    3    0    0  0.21333525638E+02  0.25926039866E+02  0.10573951759E+03  0.11094203713E+03  0.10566000000E+00 0.  1.
         13    1    4    4    0    0 -0.11548260541E+02 -0.15469410036E+02  0.20054031003E+03  0.20146734743E+03  0.10566000000E+00 0. -1.
        -13    1    4    4    0    0 -0.37082165098E+01 -0.37134153118E+01  0.56038927050E+02  0.56284214767E+02  0.10566000000E+00 0.  1.
         14    1    4    4    0    0 -0.60770485880E+01 -0.67432145185E+01  0.97008492609E+02  0.97432279558E+02  0.00000000000E+00 0. -1.
<mgrwt>
<rscale>  0 0.79320961E+02</rscale>
<asrwt>0</asrwt>
<pdfrwt beam="1">  1        2 0.71188656E-01 0.79320961E+02</pdfrwt>
<pdfrwt beam="2">  1       -1 0.52297200E-03 0.79320961E+02</pdfrwt>
<totfact> 0.30360764E+05</totfact>
</mgrwt>
</event>
<event>
 8    1  0.2603554E-020  0.7856827E+02  0.7818608E-02  0.1333164E+00
          2   -1    0    0  501    0  0.00000000000E+00  0.00000000000E+00  0.21722476883E+02  0.21722477033E+02  0.25500000000E-02 0. -1.
         -1   -1    0    0    0  501 -0.00000000000E+00 -0.00000000000E+00 -0.71043606369E+02  0.71043606548E+02  0.50400000000E-02 0.  1.
         24    2    1    2    0    0 -0.35527136788E-14  0.00000000000E+00 -0.49321129486E+02  0.92766083580E+02  0.78568266170E+02 0.  0.
         66    2    3    3    0    0  0.28182251778E+02  0.18889441258E+02 -0.13537941576E+01  0.34012983842E+02  0.20000012243E+01 0.  0.
        -13    1    3    3    0    0 -0.28182251778E+02 -0.18889441258E+02 -0.47967335328E+02  0.58753099738E+02  0.10566000000E+00 0.  1.
         13    1    4    4    0    0  0.14120839065E+02  0.86447984217E+01 -0.18467370440E+00  0.16558257881E+02  0.10566000000E+00 0. -1.
        -13    1    4    4    0    0  0.39004129588E+01  0.24272351679E+01 -0.33692559557E+00  0.46075345579E+01  0.10566000000E+00 0.  1.
         14    1    4    4    0    0  0.10160999754E+02  0.78174076689E+01 -0.83219485763E+00  0.12847191403E+02  0.00000000000E+00 0. -1.
<mgrwt>
<rscale>  0 0.78568266E+02</rscale>
<asrwt>0</asrwt>
<pdfrwt beam="1">  1        2 0.33419196E-02 0.78568266E+02</pdfrwt>
<pdfrwt beam="2">  1       -1 0.10929786E-01 0.78568266E+02</pdfrwt>
<totfact> 0.13290615E+05</totfact>
</mgrwt>
</event>
<event>
 8    1  0.2603554E-020  0.8506592E+02  0.7818608E-02  0.1315260E+00
         -1   -1    0    0    0  501 -0.00000000000E+00  0.00000000000E+00  0.53053308565E+02  0.53053308804E+02  0.50400000000E-02 0.  1.
          2   -1    0    0  501    0  0.00000000000E+00 -0.00000000000E+00 -0.34098773815E+02  0.34098773910E+02  0.25500000000E-02 0. -1.
         24    2    1    2    0    0 -0.17763568394E-14  0.00000000000E+00  0.18954534750E+02  0.87152082714E+02  0.85065922283E+02 0.  0.
         66    2    3    3    0    0 -0.91207321446E+01 -0.27719371160E+02 -0.22186679470E+02  0.36712396316E+02  0.20000012498E+01 0.  0.
        -13    1    3    3    0    0  0.91207321446E+01  0.27719371160E+02  0.41141214220E+02  0.50439686398E+02  0.10566000000E+00 0.  1.
         13    1    4    4    0    0 -0.70750007212E+00 -0.21020170303E+01 -0.23055147901E+01  0.32008740104E+01  0.10566000000E+00 0. -1.
        -13    1    4    4    0    0 -0.29444517538E+01 -0.10186151932E+02 -0.80010317263E+01  0.13283642574E+02  0.10566000000E+00 0.  1.
         14    1    4    4    0    0 -0.54687803187E+01 -0.15431202198E+02 -0.11880132954E+02  0.20227879732E+02  0.00000000000E+00 0. -1.
<mgrwt>
<rscale>  0 0.85065922E+02</rscale>
<asrwt>0</asrwt>
<pdfrwt beam="1">  1        2 0.52459652E-02 0.85065922E+02</pdfrwt>
<pdfrwt beam="2">  1       -1 0.81620475E-02 0.85065922E+02</pdfrwt>
<totfact> 0.11622329E+05</totfact>
</mgrwt>
</event>
<event>
 8    1  0.2603554E-020  0.8076591E+02  0.7818608E-02  0.1326892E+00
          2   -1    0    0  501    0  0.00000000000E+00  0.00000000000E+00  0.39238107191E+01  0.39238115477E+01  0.25500000000E-02 0. -1.
         -1   -1    0    0    0  501 -0.00000000000E+00 -0.00000000000E+00 -0.41561197409E+03  0.41561197412E+03  0.50400000000E-02 0.  1.
         24    2    1    2    0    0  0.00000000000E+00  0.00000000000E+00 -0.41168816337E+03  0.41953578567E+03  0.80765906152E+02 0.  0.
         66    2    3    3    0    0 -0.36812531417E+02 -0.16043053685E+02 -0.18503948956E+03  0.18935721467E+03  0.20000028448E+01 0.  0.
        -13    1    3    3    0    0  0.36812531417E+02  0.16043053685E+02 -0.22664867381E+03  0.23017857100E+03  0.10566000000E+00 0.  1.
         13    1    4    4    0    0 -0.86672387335E+01 -0.31000390247E+01 -0.41020418938E+02  0.42040661307E+02  0.10566000000E+00 0. -1.
        -13    1    4    4    0    0 -0.65336185677E+01 -0.25709527807E+01 -0.33117806616E+02  0.33854072855E+02  0.10566000000E+00 0.  1.
         14    1    4    4    0    0 -0.21611674116E+02 -0.10372061880E+02 -0.11090126400E+03  0.11346248051E+03  0.00000000000E+00 0. -1.
<mgrwt>
<rscale>  0 0.80765906E+02</rscale>
<asrwt>0</asrwt>
<pdfrwt beam="1">  1        2 0.60366358E-03 0.80765906E+02</pdfrwt>
<pdfrwt beam="2">  1       -1 0.63940269E-01 0.80765906E+02</pdfrwt>
<totfact> 0.72495859E+04</totfact>
</mgrwt>
</event>
<event>
 8    1  0.2603554E-020  0.8000744E+02  0.7818608E-02  0.1329030E+00
         -1   -1    0    0    0  501 -0.00000000000E+00  0.00000000000E+00  0.26469612467E+01  0.26469660450E+01  0.50400000000E-02 0.  1.
          2   -1    0    0  501    0  0.00000000000E+00 -0.00000000000E+00 -0.60457858294E+03  0.60457858295E+03  0.25500000000E-02 0. -1.
         24    2    1    2    0    0 -0.35527136788E-14  0.00000000000E+00 -0.60193162170E+03  0.60722554899E+03  0.80007438106E+02 0.  0.
         66    2    3    3    0    0  0.24552647759E+02 -0.18242381913E+02 -0.49652887683E+03  0.49747416267E+03  0.19999978965E+01 0.  0.
        -13    1    3    3    0    0 -0.24552647759E+02  0.18242381913E+02 -0.10540274487E+03  0.10975138632E+03  0.10566000000E+00 0.  1.
         13    1    4    4    0    0  0.98651521705E+01 -0.67813866926E+01 -0.19367492714E+03  0.19404457478E+03  0.10566000000E+00 0. -1.
        -13    1    4    4    0    0  0.28044834784E+00 -0.56135236690E-01 -0.55096157499E+01  0.55180460479E+01  0.10566000000E+00 0.  1.
        -14    1    4    4    0    0  0.14407047240E+02 -0.11404859984E+02 -0.29734433393E+03  0.29791154184E+03  0.00000000000E+00 0.  1.
<mgrwt>
<rscale>  0 0.80007438E+02</rscale>
<asrwt>0</asrwt>
<pdfrwt beam="1">  1        2 0.93011980E-01 0.80007438E+02</pdfrwt>
<pdfrwt beam="2">  1       -1 0.40722566E-03 0.80007438E+02</pdfrwt>
<totfact> 0.32223579E+05</totfact>
</mgrwt>
</event>
<event>
 8    1  0.2603554E-020  0.8025645E+02  0.7818608E-02  0.1328325E+00
          2   -1    0    0  501    0  0.00000000000E+00  0.00000000000E+00  0.73097218883E+02  0.73097218928E+02  0.25500000000E-02 0. -1.
         -1   -1    0    0    0  501 -0.00000000000E+00 -0.00000000000E+00 -0.22029215842E+02  0.22029216418E+02  0.50400000000E-02 0.  1.
         24    2    1    2    0    0  0.17763568394E-14 -0.35527136788E-14  0.51068003042E+02  0.95126435346E+02  0.80256450002E+02 0.  0.
         66    2    3    3    0    0 -0.11606647897E+02  0.23382942442E+02  0.61633650122E+02  0.66964043137E+02  0.19999933150E+01 0.  0.
        -13    1    3    3    0    0  0.11606647897E+02 -0.23382942442E+02 -0.10565647080E+02  0.28162392209E+02  0.10566000000E+00 0.  1.
         13    1    4    4    0    0 -0.12625641278E+01  0.33652397308E+01  0.82298921763E+01  0.89811578258E+01  0.10566000000E+00 0. -1.
        -13    1    4    4    0    0 -0.38781512849E+01  0.85933471392E+01  0.20894878111E+02  0.22923629027E+02  0.10566000000E+00 0.  1.
         14    1    4    4    0    0 -0.64659324848E+01  0.11424355572E+02  0.32508879835E+02  0.35059256285E+02  0.00000000000E+00 0. -1.
<mgrwt>
<rscale>  0 0.80256450E+02</rscale>
<asrwt>0</asrwt>
<pdfrwt beam="1">  1        2 0.11245726E-01 0.80256450E+02</pdfrwt>
<pdfrwt beam="2">  1       -1 0.33891102E-02 0.80256450E+02</pdfrwt>
<totfact> 0.16178925E+05</totfact>
</mgrwt>
</event>
<event>
 8    1  0.2603554E-020  0.7955284E+02  0.7818608E-02  0.1330325E+00
          2   -1    0    0  501    0  0.00000000000E+00  0.00000000000E+00  0.29308732620E+03  0.29308732621E+03  0.25500000000E-02 0. -1.
         -1   -1    0    0    0  501 -0.00000000000E+00 -0.00000000000E+00 -0.53982662902E+01  0.53982686430E+01  0.50400000000E-02 0.  1.
         24    2    1    2    0    0 -0.44408920985E-15  0.71054273576E-14  0.28768905991E+03  0.29848559485E+03  0.79552844975E+02 0.  0.
         66    2    3    3    0    0  0.19355222555E+01 -0.38191716774E+02  0.18465916921E+03  0.18858781045E+03  0.19999995788E+01 0.  0.
        -13    1    3    3    0    0 -0.19355222555E+01  0.38191716774E+02  0.10302989070E+03  0.10989778441E+03  0.10566000000E+00 0.  1.
         13    1    4    4    0    0  0.12436620284E+01 -0.15460177945E+02  0.76977365567E+02  0.78524453331E+02  0.10566000000E+00 0. -1.
        -13    1    4    4    0    0  0.89716332094E+00 -0.10549556779E+02  0.50347773742E+02  0.51449077106E+02  0.10566000000E+00 0.  1.
        -14    1    4    4    0    0 -0.20530309377E+00 -0.12181982049E+02  0.57334029902E+02  0.58614280008E+02  0.00000000000E+00 0.  1.
<mgrwt>
<rscale>  0 0.79552845E+02</rscale>
<asrwt>0</asrwt>
<pdfrwt beam="1">  1        2 0.45090355E-01 0.79552845E+02</pdfrwt>
<pdfrwt beam="2">  1       -1 0.83050275E-03 0.79552845E+02</pdfrwt>
<totfact> 0.25654412E+05</totfact>
</mgrwt>
</event>
<event>
 8    1  0.2603554E-020  0.8025194E+02  0.7818608E-02  0.1328338E+00
          2   -1    0    0  501    0  0.00000000000E+00  0.00000000000E+00  0.40863964703E+03  0.40863964704E+03  0.25500000000E-02 0. -1.
         -1   -1    0    0    0  501 -0.00000000000E+00 -0.00000000000E+00 -0.39401284935E+01  0.39401317170E+01  0.50400000000E-02 0.  1.
         24    2    1    2    0    0  0.00000000000E+00  0.00000000000E+00  0.40469951853E+03  0.41257977875E+03  0.80251937882E+02 0.  0.
         66    2    3    3    0    0  0.34571797986E+02  0.73754356357E+01  0.29981392715E+03  0.30189732887E+03  0.20000005324E+01 0.  0.
        -13    1    3    3    0    0 -0.34571797986E+02 -0.73754356357E+01  0.10488559139E+03  0.11068244988E+03  0.10566000000E+00 0.  1.
         13    1    4    4    0    0  0.19793236633E+02  0.40293320788E+01  0.16323638965E+03  0.16448142084E+03  0.10566000000E+00 0. -1.
        -13    1    4    4    0    0  0.78772576882E+01  0.16370417996E+01  0.72745334802E+02  0.73188974539E+02  0.10566000000E+00 0.  1.
         14    1    4    4    0    0  0.69013036650E+01  0.17090617573E+01  0.63832202698E+02  0.64226933491E+02  0.00000000000E+00 0. -1.
<mgrwt>
<rscale>  0 0.80251938E+02</rscale>
<asrwt>0</asrwt>
<pdfrwt beam="1">  1        2 0.62867656E-01 0.80251938E+02</pdfrwt>
<pdfrwt beam="2">  1       -1 0.60617369E-03 0.80251938E+02</pdfrwt>
<totfact> 0.28231982E+05</totfact>
</mgrwt>
</event>
<event>
 8    1  0.2603554E-020  0.7832326E+02  0.7818608E-02  0.1333878E+00
          2   -1    0    0  501    0  0.00000000000E+00  0.00000000000E+00  0.11160626177E+04  0.11160626177E+04  0.25500000000E-02 0. -1.
         -1   -1    0    0    0  501 -0.00000000000E+00 -0.00000000000E+00 -0.13741417207E+01  0.13741509634E+01  0.50400000000E-02 0.  1.
         24    2    1    2    0    0  0.00000000000E+00 -0.35527136788E-14  0.11146884760E+04  0.11174367687E+04  0.78323262741E+02 0.  0.
         66    2    3    3    0    0  0.45078775728E+01  0.21778915933E+02  0.10171359455E+04  0.10173810367E+04  0.19999992888E+01 0.  0.
        -13    1    3    3    0    0 -0.45078775728E+01 -0.21778915933E+02  0.97552530470E+02  0.10005573199E+03  0.10566000000E+00 0.  1.
         13    1    4    4    0    0  0.21325714151E+01  0.76390119033E+01  0.33529022987E+03  0.33538403625E+03  0.10566000000E+00 0.  1.
        -13    1    4    4    0    0  0.12360594529E+01  0.58724205205E+01  0.26923803974E+03  0.26930493195E+03  0.10566000000E+00 0. -1.
        -14    1    4    4    0    0  0.11392467049E+01  0.82674835088E+01  0.41260767590E+03  0.41269206847E+03  0.00000000000E+00 0.  1.
<mgrwt>
<rscale>  0 0.78323263E+02</rscale>
<asrwt>0</asrwt>
<pdfrwt beam="1">  1        2 0.17170132E+00 0.78323263E+02</pdfrwt>
<pdfrwt beam="2">  1       -1 0.21140789E-03 0.78323263E+02</pdfrwt>
<totfact> 0.37222086E+05</totfact>
</mgrwt>
</event>
<event>
 8    1  0.2603554E-020  0.7955698E+02  0.7818608E-02  0.1330313E+00
          2   -1    0    0  501    0  0.00000000000E+00  0.00000000000E+00  0.21374526742E+03  0.21374526744E+03  0.25500000000E-02 0. -1.
         -1   -1    0    0    0  501 -0.00000000000E+00 -0.00000000000E+00 -0.74028674956E+01  0.74028692113E+01  0.50400000000E-02 0.  1.
         24    2    1    2    0    0  0.71054273576E-14  0.00000000000E+00  0.20634239993E+03  0.22114813665E+03  0.79556975406E+02 0.  0.
         66    2    3    3    0    0 -0.32426338392E+02  0.22383011891E+01  0.16685813253E+03  0.17000621696E+03  0.19999998200E+01 0.  0.
        -13    1    3    3    0    0  0.32426338392E+02 -0.22383011891E+01  0.39484267394E+02  0.51141919688E+02  0.10566000000E+00 0.  1.
         13    1    4    4    0    0 -0.27918336712E+02  0.17642682803E+01  0.14182248175E+03  0.14455508867E+03  0.10566000000E+00 0. -1.
        -13    1    4    4    0    0 -0.37481483675E+01  0.30025457903E+00  0.21854889996E+02  0.22176251932E+02  0.10566000000E+00 0.  1.
         14    1    4    4    0    0 -0.75985331269E+00  0.17377832981E+00  0.31807607896E+01  0.32748763588E+01  0.00000000000E+00 0. -1.
<mgrwt>
<rscale>  0 0.79556975E+02</rscale>
<asrwt>0</asrwt>
<pdfrwt beam="1">  1        2 0.32883886E-01 0.79556975E+02</pdfrwt>
<pdfrwt beam="2">  1       -1 0.11389029E-02 0.79556975E+02</pdfrwt>
<totfact> 0.22909542E+05</totfact>
</mgrwt>
</event>
<event>
 8    1  0.3180416E-020  0.7757458E+02  0.7818608E-02  0.1336079E+00
          2   -1    0    0  501    0  0.00000000000E+00  0.00000000000E+00  0.85275502794E+03  0.85275502794E+03  0.25500000000E-02 0. -1.
         -1   -1    0    0    0  501 -0.00000000000E+00 -0.00000000000E+00 -0.17642240668E+01  0.17642312658E+01  0.50400000000E-02 0.  1.
         24    2    1    2    0    0  0.00000000000E+00 -0.11102230246E-15  0.85099080387E+03  0.85451925921E+03  0.77574584004E+02 0.  0.
         66    2    3    3    0    0  0.15031371961E+02 -0.72086308218E+00  0.81926007776E+03  0.81940071809E+03  0.20000022736E+01 0.  0.
        -13    1    3    3    0    0 -0.15031371961E+02  0.72086308218E+00  0.31730726111E+02  0.35118541117E+02  0.10566000000E+00 0.  1.
         13    1    4    4    0    0  0.75899848884E+01 -0.39550628236E-01  0.43009144084E+03  0.43015842207E+03  0.10566000000E+00 0. -1.
        -13    1    4    4    0    0  0.66313397830E+01 -0.71279507045E+00  0.36241489217E+03  0.36247627230E+03  0.10566000000E+00 0.  1.
        -14    1    4    4    0    0  0.81004728994E+00  0.31482616510E-01  0.26753744746E+02  0.26766023719E+02  0.00000000000E+00 0.  1.
<mgrwt>
<rscale>  0 0.77574584E+02</rscale>
<asrwt>0</asrwt>
<pdfrwt beam="1">  1        2 0.13119337E+00 0.77574584E+02</pdfrwt>
<pdfrwt beam="2">  1       -1 0.27141905E-03 0.77574584E+02</pdfrwt>
<totfact> 0.37595717E+05</totfact>
</mgrwt>
</event>
<event>
 8    1  0.2603554E-020  0.7882258E+02  0.7818608E-02  0.1332426E+00
         -1   -1    0    0    0  501 -0.00000000000E+00  0.00000000000E+00  0.36445913355E+03  0.36445913358E+03  0.50400000000E-02 0.  1.
          2   -1    0    0  501    0  0.00000000000E+00 -0.00000000000E+00 -0.42617938421E+01  0.42617946050E+01  0.25500000000E-02 0. -1.
         24    2    1    2    0    0  0.00000000000E+00  0.00000000000E+00  0.36019733971E+03  0.36872092819E+03  0.78822581488E+02 0.  0.
         66    2    3    3    0    0 -0.44226500177E+00  0.36780225673E+02  0.24608152725E+03  0.24882342856E+03  0.19999877675E+01 0.  0.
        -13    1    3    3    0    0  0.44226500177E+00 -0.36780225673E+02  0.11411581246E+03  0.11989749962E+03  0.10566000000E+00 0.  1.
         13    1    4    4    0    0  0.37807923823E+00  0.22057255879E+02  0.15143359021E+03  0.15303205184E+03  0.10566000000E+00 0. -1.
        -13    1    4    4    0    0 -0.84819853197E+00  0.12281065234E+02  0.79763797171E+02  0.80708230727E+02  0.10566000000E+00 0.  1.
         14    1    4    4    0    0  0.27854291979E-01  0.24419045603E+01  0.14884139863E+02  0.15083145998E+02  0.00000000000E+00 0. -1.
<mgrwt>
<rscale>  0 0.78822581E+02</rscale>
<asrwt>0</asrwt>
<pdfrwt beam="1">  1        2 0.65566028E-03 0.78822581E+02</pdfrwt>
<pdfrwt beam="2">  1       -1 0.56070668E-01 0.78822581E+02</pdfrwt>
<totfact> 0.82446848E+04</totfact>
</mgrwt>
</event>
<event>
 8    1  0.2603554E-020  0.8115837E+02  0.7818608E-02  0.1325796E+00
          2   -1    0    0  501    0  0.00000000000E+00  0.00000000000E+00  0.31272644394E+03  0.31272644395E+03  0.25500000000E-02 0. -1.
         -1   -1    0    0    0  501 -0.00000000000E+00 -0.00000000000E+00 -0.52655274996E+01  0.52655299117E+01  0.50400000000E-02 0.  1.
         24    2    1    2    0    0 -0.35527136788E-14  0.35527136788E-14  0.30746091644E+03  0.31799197386E+03  0.81158365572E+02 0.  0.
         66    2    3    3    0    0  0.17249846314E+02 -0.17028250405E+02  0.28121799582E+03  0.28226774460E+03  0.19999892593E+01 0.  0.
        -13    1    3    3    0    0 -0.17249846314E+02  0.17028250405E+02  0.26242920612E+02  0.35724229257E+02  0.10566000000E+00 0.  1.
         13    1    4    4    0    0  0.11374831856E+02 -0.10978914686E+02  0.17682785798E+03  0.17753316842E+03  0.10566000000E+00 0. -1.
        -13    1    4    4    0    0  0.58639648978E+01 -0.58552176445E+01  0.10249071132E+03  0.10282522419E+03  0.10566000000E+00 0.  1.
        -14    1    4    4    0    0  0.11049559849E-01 -0.19411807428E+00  0.18994265237E+01  0.19093519944E+01  0.00000000000E+00 0.  1.
<mgrwt>
<rscale>  0 0.81158366E+02</rscale>
<asrwt>0</asrwt>
<pdfrwt beam="1">  1        2 0.48111784E-01 0.81158366E+02</pdfrwt>
<pdfrwt beam="2">  1       -1 0.81008095E-03 0.81158366E+02</pdfrwt>
<totfact> 0.24923094E+05</totfact>
</mgrwt>
</event>
<event>
 8    1  0.2603554E-020  0.8070486E+02  0.7818608E-02  0.1327063E+00
         -1   -1    0    0    0  501 -0.00000000000E+00  0.00000000000E+00  0.27543965794E+01  0.27544011905E+01  0.50400000000E-02 0.  1.
          2   -1    0    0  501    0  0.00000000000E+00 -0.00000000000E+00 -0.59117021643E+03  0.59117021643E+03  0.25500000000E-02 0. -1.
         24    2    1    2    0    0  0.00000000000E+00 -0.35527136788E-14 -0.58841581985E+03  0.59392461763E+03  0.80704859653E+02 0.  0.
         66    2    3    3    0    0  0.12418844351E+02  0.26772708883E+02 -0.49664048508E+03  0.49752062978E+03  0.20000005304E+01 0.  0.
        -13    1    3    3    0    0 -0.12418844351E+02 -0.26772708883E+02 -0.91775334773E+02  0.96403987846E+02  0.10566000000E+00 0.  1.
         13    1    4    4    0    0  0.80668671863E+01  0.17275583467E+02 -0.31306297203E+03  0.31364303874E+03  0.10566000000E+00 0. -1.
        -13    1    4    4    0    0  0.13399289106E+00  0.12614466757E+00 -0.51694686797E+01  0.51738222851E+01  0.10566000000E+00 0. -1.
        -14    1    4    4    0    0  0.42179842739E+01  0.93709807483E+01 -0.17840804436E+03  0.17870376875E+03  0.00000000000E+00 0.  1.
<mgrwt>
<rscale>  0 0.80704860E+02</rscale>
<asrwt>0</asrwt>
<pdfrwt beam="1">  1        2 0.90949163E-01 0.80704860E+02</pdfrwt>
<pdfrwt beam="2">  1       -1 0.42375415E-03 0.80704860E+02</pdfrwt>
<totfact> 0.31306875E+05</totfact>
</mgrwt>
</event>
<event>
 8    1  0.2603554E-020  0.7928801E+02  0.7818608E-02  0.1331084E+00
          2   -1    0    0  501    0  0.00000000000E+00  0.00000000000E+00  0.39550225890E+03  0.39550225891E+03  0.25500000000E-02 0. -1.
         -1   -1    0    0    0  501 -0.00000000000E+00 -0.00000000000E+00 -0.39737987386E+01  0.39738019347E+01  0.50400000000E-02 0.  1.
         24    2    1    2    0    0 -0.35527136788E-14  0.00000000000E+00  0.39152846016E+03  0.39947606085E+03  0.79288007102E+02 0.  0.
         66    2    3    3    0    0 -0.28210459589E+02  0.24067498675E+01  0.33551544222E+03  0.33671387622E+03  0.19999997662E+01 0.  0.
        -13    1    3    3    0    0  0.28210459589E+02 -0.24067498675E+01  0.56013017945E+02  0.62762184622E+02  0.10566000000E+00 0.  1.
         13    1    4    4    0    0 -0.52051635550E+01  0.84561086024E+00  0.66446986967E+02  0.66655997678E+02  0.10566000000E+00 0. -1.
        -13    1    4    4    0    0 -0.11882407555E+01 -0.19093468321E+00  0.13658423063E+02  0.13711748858E+02  0.10566000000E+00 0.  1.
         14    1    4    4    0    0 -0.21817055279E+02  0.17520736904E+01  0.25541003219E+03  0.25634612969E+03  0.00000000000E+00 0. -1.
<mgrwt>
<rscale>  0 0.79288007E+02</rscale>
<asrwt>0</asrwt>
<pdfrwt beam="1">  1        2 0.60846528E-01 0.79288007E+02</pdfrwt>
<pdfrwt beam="2">  1       -1 0.61135364E-03 0.79288007E+02</pdfrwt>
<totfact> 0.28806705E+05</totfact>
</mgrwt>
</event>
<event>
 8    1  0.2603554E-020  0.8067217E+02  0.7818608E-02  0.1327155E+00
         -1   -1    0    0    0  501 -0.00000000000E+00  0.00000000000E+00  0.22607536609E+01  0.22607592788E+01  0.50400000000E-02 0.  1.
          2   -1    0    0  501    0  0.00000000000E+00 -0.00000000000E+00 -0.71967045096E+03  0.71967045097E+03  0.25500000000E-02 0. -1.
         24    2    1    2    0    0  0.17763568394E-14  0.00000000000E+00 -0.71740969730E+03  0.72193121024E+03  0.80672167100E+02 0.  0.
         66    2    3    3    0    0 -0.95536775094E+01 -0.22690933162E+02 -0.64456917678E+03  0.64504230471E+03  0.19999997996E+01 0.  0.
        -13    1    3    3    0    0  0.95536775094E+01  0.22690933162E+02 -0.72840520517E+02  0.76888905539E+02  0.10566000000E+00 0.  1.
         13    1    4    4    0    0 -0.47489840537E+01 -0.11213325599E+02 -0.32998508902E+03  0.33020972375E+03  0.10566000000E+00 0. -1.
        -13    1    4    4    0    0 -0.40816940426E+01 -0.88331808291E+01 -0.25451987610E+03  0.25470583779E+03  0.10566000000E+00 0.  1.
        -14    1    4    4    0    0 -0.72299941311E+00 -0.26444267343E+01 -0.60064211661E+02  0.60126743163E+02  0.00000000000E+00 0.  1.
<mgrwt>
<rscale>  0 0.80672167E+02</rscale>
<asrwt>0</asrwt>
<pdfrwt beam="1">  1        2 0.11071835E+00 0.80672167E+02</pdfrwt>
<pdfrwt beam="2">  1       -1 0.34780926E-03 0.80672167E+02</pdfrwt>
<totfact> 0.32935254E+05</totfact>
</mgrwt>
</event>
<event>
 8    1  0.2603554E-020  0.8268304E+02  0.7818608E-02  0.1321605E+00
          2   -1    0    0  501    0  0.00000000000E+00  0.00000000000E+00  0.45406493461E+02  0.45406493532E+02  0.25500000000E-02 0. -1.
         -1   -1    0    0    0  501 -0.00000000000E+00 -0.00000000000E+00 -0.37640457284E+02  0.37640457621E+02  0.50400000000E-02 0.  1.
         24    2    1    2    0    0  0.71054273576E-14 -0.35527136788E-14  0.77660361770E+01  0.83046951153E+02  0.82683038031E+02 0.  0.
         66    2    3    3    0    0 -0.37325052399E+02  0.91502331576E+01  0.19125394357E+02  0.42972863694E+02  0.20000003255E+01 0.  0.
        -13    1    3    3    0    0  0.37325052399E+02 -0.91502331576E+01 -0.11359358180E+02  0.40074087460E+02  0.10566000000E+00 0.  1.
         13    1    4    4    0    0 -0.13732566674E+02  0.31043504794E+01  0.78575990387E+01  0.16123690832E+02  0.10566000000E+00 0. -1.
        -13    1    4    4    0    0 -0.38404506518E+01  0.12788291055E+01  0.17426462804E+01  0.44082247202E+01  0.10566000000E+00 0.  1.
         14    1    4    4    0    0 -0.19752035073E+02  0.47670535727E+01  0.95251490379E+01  0.22440948142E+02  0.00000000000E+00 0. -1.
<mgrwt>
<rscale>  0 0.82683038E+02</rscale>
<asrwt>0</asrwt>
<pdfrwt beam="1">  1        2 0.69856144E-02 0.82683038E+02</pdfrwt>
<pdfrwt beam="2">  1       -1 0.57908396E-02 0.82683038E+02</pdfrwt>
<totfact> 0.13364867E+05</totfact>
</mgrwt>
</event>
<event>
 8    1  0.2603554E-020  0.7885730E+02  0.7818608E-02  0.1332326E+00
          2   -1    0    0  501    0  0.00000000000E+00  0.00000000000E+00  0.34329825025E+02  0.34329825120E+02  0.25500000000E-02 0. -1.
         -1   -1    0    0    0  501 -0.00000000000E+00 -0.00000000000E+00 -0.45284772233E+02  0.45284772514E+02  0.50400000000E-02 0.  1.
         24    2    1    2    0    0  0.17763568394E-14 -0.35527136788E-14 -0.10954947208E+02  0.79614597633E+02  0.78857296986E+02 0.  0.
         66    2    3    3    0    0 -0.14888044053E+02  0.20797195346E+02  0.24780790540E+02  0.35668820744E+02  0.20000008792E+01 0.  0.
        -13    1    3    3    0    0  0.14888044053E+02 -0.20797195346E+02 -0.35735737748E+02  0.43945776889E+02  0.10566000000E+00 0.  1.
         13    1    4    4    0    0 -0.88831684686E+01  0.12712563816E+02  0.13841049104E+02  0.20787153849E+02  0.10566000000E+00 0. -1.
        -13    1    4    4    0    0 -0.34024181098E+01  0.49924701847E+01  0.67790789230E+01  0.90812049101E+01  0.10566000000E+00 0.  1.
         14    1    4    4    0    0 -0.26024574745E+01  0.30921613457E+01  0.41606625121E+01  0.58004619846E+01  0.00000000000E+00 0. -1.
<mgrwt>
<rscale>  0 0.78857297E+02</rscale>
<asrwt>0</asrwt>
<pdfrwt beam="1">  1        2 0.52815115E-02 0.78857297E+02</pdfrwt>
<pdfrwt beam="2">  1       -1 0.69668881E-02 0.78857297E+02</pdfrwt>
<totfact> 0.14384472E+05</totfact>
</mgrwt>
</event>
<event>
 8    1  0.2603554E-020  0.8088516E+02  0.7818608E-02  0.1326558E+00
          2   -1    0    0  501    0  0.00000000000E+00  0.00000000000E+00  0.36000189976E+03  0.36000189977E+03  0.25500000000E-02 0. -1.
         -1   -1    0    0    0  501 -0.00000000000E+00 -0.00000000000E+00 -0.45433146420E+01  0.45433174374E+01  0.50400000000E-02 0.  1.
         24    2    1    2    0    0  0.00000000000E+00  0.00000000000E+00  0.35545858512E+03  0.36454521721E+03  0.80885163374E+02 0.  0.
         66    2    3    3    0    0 -0.16663572081E+02 -0.23551898655E+02  0.30541141796E+03  0.30677760804E+03  0.20000017289E+01 0.  0.
        -13    1    3    3    0    0  0.16663572081E+02  0.23551898655E+02  0.50047167158E+02  0.57767609171E+02  0.10566000000E+00 0.  1.
         13    1    4    4    0    0 -0.34202111232E+01 -0.52743772570E+01  0.72078333269E+02  0.72352015801E+02  0.10566000000E+00 0. -1.
        -13    1    4    4    0    0 -0.86500239261E+01 -0.12834162460E+02  0.16231433891E+03  0.16305058853E+03  0.10566000000E+00 0.  1.
        -14    1    4    4    0    0 -0.45933370320E+01 -0.54433589381E+01  0.71018745780E+02  0.71375003704E+02  0.00000000000E+00 0.  1.
<mgrwt>
<rscale>  0 0.80885163E+02</rscale>
<asrwt>0</asrwt>
<pdfrwt beam="1">  1        2 0.55384880E-01 0.80885163E+02</pdfrwt>
<pdfrwt beam="2">  1       -1 0.69897205E-03 0.80885163E+02</pdfrwt>
<totfact> 0.26448766E+05</totfact>
</mgrwt>
</event>
<event>
 8    1  0.2603554E-020  0.8068627E+02  0.7818608E-02  0.1327115E+00
         -1   -1    0    0    0  501 -0.00000000000E+00  0.00000000000E+00  0.39134793780E+01  0.39134826234E+01  0.50400000000E-02 0.  1.
          2   -1    0    0  501    0  0.00000000000E+00 -0.00000000000E+00 -0.41588773099E+03  0.41588773100E+03  0.25500000000E-02 0. -1.
         24    2    1    2    0    0  0.00000000000E+00  0.00000000000E+00 -0.41197425161E+03  0.41980121362E+03  0.80686274957E+02 0.  0.
         66    2    3    3    0    0  0.33706225088E+02  0.96331072891E+01 -0.30973529478E+03  0.31171919928E+03  0.20000005488E+01 0.  0.
        -13    1    3    3    0    0 -0.33706225088E+02 -0.96331072891E+01 -0.10223895683E+03  0.10808201434E+03  0.10566000000E+00 0.  1.
         13    1    4    4    0    0  0.13713672425E+02  0.35041390700E+01 -0.12086758186E+03  0.12169357958E+03  0.10566000000E+00 0. -1.
        -13    1    4    4    0    0  0.73636749254E+01  0.25994925242E+01 -0.66230320875E+02  0.66689186807E+02  0.10566000000E+00 0.  1.
        -14    1    4    4    0    0  0.12628877737E+02  0.35294756948E+01 -0.12263739204E+03  0.12333643289E+03  0.00000000000E+00 0.  1.
<mgrwt>
<rscale>  0 0.80686275E+02</rscale>
<asrwt>0</asrwt>
<pdfrwt beam="1">  1        2 0.63982693E-01 0.80686275E+02</pdfrwt>
<pdfrwt beam="2">  1       -1 0.60207433E-03 0.80686275E+02</pdfrwt>
<totfact> 0.28006781E+05</totfact>
</mgrwt>
</event>
<event>
 8    1  0.2603554E-020  0.7725027E+02  0.7818608E-02  0.1337041E+00
          2   -1    0    0  501    0  0.00000000000E+00  0.00000000000E+00  0.73328581515E+03  0.73328581515E+03  0.25500000000E-02 0. -1.
         -1   -1    0    0    0  501 -0.00000000000E+00 -0.00000000000E+00 -0.20345391304E+01  0.20345453730E+01  0.50400000000E-02 0.  1.
         24    2    1    2    0    0  0.35527136788E-14 -0.17763568394E-14  0.73125127601E+03  0.73532036052E+03  0.77250268128E+02 0.  0.
         66    2    3    3    0    0 -0.23132553198E+02  0.13784047135E+02  0.62910595774E+03  0.62968517613E+03  0.19999992442E+01 0.  0.
        -13    1    3    3    0    0  0.23132553198E+02 -0.13784047135E+02  0.10214531827E+03  0.10563518439E+03  0.10566000000E+00 0.  1.
         13    1    4    4    0    0 -0.11002140425E+02  0.68220080788E+01  0.29277363634E+03  0.29305972120E+03  0.10566000000E+00 0. -1.
        -13    1    4    4    0    0 -0.95440554169E+01  0.48558481641E+01  0.25486584858E+03  0.25509072933E+03  0.10566000000E+00 0.  1.
        -14    1    4    4    0    0 -0.25863573552E+01  0.21061908917E+01  0.81466472820E+02  0.81534725597E+02  0.00000000000E+00 0.  1.
<mgrwt>
<rscale>  0 0.77250268E+02</rscale>
<asrwt>0</asrwt>
<pdfrwt beam="1">  1        2 0.11281332E+00 0.77250268E+02</pdfrwt>
<pdfrwt beam="2">  1       -1 0.31300618E-03 0.77250268E+02</pdfrwt>
<totfact> 0.37005251E+05</totfact>
</mgrwt>
</event>
<event>
 8    1  0.2603554E-020  0.8014806E+02  0.7818608E-02  0.1328632E+00
          2   -1    0    0  501    0  0.00000000000E+00  0.00000000000E+00  0.25908024378E+02  0.25908024504E+02  0.25500000000E-02 0. -1.
         -1   -1    0    0    0  501 -0.00000000000E+00 -0.00000000000E+00 -0.61985737342E+02  0.61985737547E+02  0.50400000000E-02 0.  1.
         24    2    1    2    0    0  0.00000000000E+00  0.00000000000E+00 -0.36077712964E+02  0.87893762051E+02  0.80148063200E+02 0.  0.
         66    2    3    3    0    0  0.10732297848E+02 -0.29893352547E+02  0.87028085572E+01  0.32992933138E+02  0.20000041610E+01 0.  0.
        -13    1    3    3    0    0 -0.10732297848E+02  0.29893352547E+02 -0.44780521521E+02  0.54900828913E+02  0.10566000000E+00 0.  1.
         13    1    4    4    0    0  0.68899017178E+01 -0.21558111578E+02  0.63831646308E+01  0.23515502870E+02  0.10566000000E+00 0. -1.
        -13    1    4    4    0    0  0.34761021755E+01 -0.76362975785E+01  0.22371081578E+01  0.86840165815E+01  0.10566000000E+00 0.  1.
         14    1    4    4    0    0  0.36629395433E+00 -0.69894339102E+00  0.82535768557E-01  0.79341368650E+00  0.00000000000E+00 0. -1.
<mgrwt>
<rscale>  0 0.80148063E+02</rscale>
<asrwt>0</asrwt>
<pdfrwt beam="1">  1        2 0.39858499E-02 0.80148063E+02</pdfrwt>
<pdfrwt beam="2">  1       -1 0.95362673E-02 0.80148063E+02</pdfrwt>
<totfact> 0.13003899E+05</totfact>
</mgrwt>
</event>
<event>
 8    1  0.2603554E-020  0.7994064E+02  0.7818608E-02  0.1329220E+00
         -1   -1    0    0    0  501 -0.00000000000E+00  0.00000000000E+00  0.10525485777E+02  0.10525486984E+02  0.50400000000E-02 0.  1.
          2   -1    0    0  501    0  0.00000000000E+00 -0.00000000000E+00 -0.15178646064E+03  0.15178646067E+03  0.25500000000E-02 0. -1.
         24    2    1    2    0    0  0.00000000000E+00  0.00000000000E+00 -0.14126097487E+03  0.16231194765E+03  0.79940636284E+02 0.  0.
         66    2    3    3    0    0 -0.10629288890E+02  0.21426345414E+02 -0.13563332919E+03  0.13774058993E+03  0.20000171575E+01 0.  0.
        -13    1    3    3    0    0  0.10629288890E+02 -0.21426345414E+02 -0.56276456803E+01  0.24571357717E+02  0.10566000000E+00 0.  1.
         13    1    4    4    0    0 -0.42411645407E+01  0.10057121933E+02 -0.60749740742E+02  0.61722567530E+02  0.10566000000E+00 0. -1.
        -13    1    4    4    0    0 -0.98509094241E+00  0.15134314095E+01 -0.12462777969E+02  0.12593366410E+02  0.10566000000E+00 0.  1.
         14    1    4    4    0    0 -0.54030334068E+01  0.98557920721E+01 -0.62420810476E+02  0.63424655993E+02  0.00000000000E+00 0. -1.
<mgrwt>
<rscale>  0 0.79940636E+02</rscale>
<asrwt>0</asrwt>
<pdfrwt beam="1">  1        2 0.23351762E-01 0.79940636E+02</pdfrwt>
<pdfrwt beam="2">  1       -1 0.16193057E-02 0.79940636E+02</pdfrwt>
<totfact> 0.20146333E+05</totfact>
</mgrwt>
</event>
<event>
 8    1  0.2603554E-020  0.8259373E+02  0.7818608E-02  0.1321848E+00
          2   -1    0    0  501    0  0.00000000000E+00  0.00000000000E+00  0.53576226602E+02  0.53576226663E+02  0.25500000000E-02 0. -1.
         -1   -1    0    0    0  501 -0.00000000000E+00 -0.00000000000E+00 -0.31831862015E+02  0.31831862414E+02  0.50400000000E-02 0.  1.
         24    2    1    2    0    0  0.35527136788E-14 -0.71054273576E-14  0.21744364587E+02  0.85408089077E+02  0.82593730322E+02 0.  0.
         66    2    3    3    0    0  0.23241699781E+02 -0.33670252814E+02  0.52560305677E+01  0.41297559086E+02  0.19999989619E+01 0.  0.
        -13    1    3    3    0    0 -0.23241699781E+02  0.33670252814E+02  0.16488334019E+02  0.44110529991E+02  0.10566000000E+00 0.  1.
         13    1    4    4    0    0  0.13113239413E+02 -0.19171253215E+02  0.36563513234E+01  0.23513274267E+02  0.10566000000E+00 0. -1.
        -13    1    4    4    0    0  0.49848436940E+01 -0.63289218042E+01  0.81338511904E+00  0.80979427786E+01  0.10566000000E+00 0.  1.
        -14    1    4    4    0    0  0.51436166743E+01 -0.81700777952E+01  0.78629412519E+00  0.96863420404E+01  0.00000000000E+00 0.  1.
<mgrwt>
<rscale>  0 0.82593730E+02</rscale>
<asrwt>0</asrwt>
<pdfrwt beam="1">  1        2 0.82424965E-02 0.82593730E+02</pdfrwt>
<pdfrwt beam="2">  1       -1 0.48972096E-02 0.82593730E+02</pdfrwt>
<totfact> 0.13902504E+05</totfact>
</mgrwt>
</event>
<event>
 8    1  0.2603554E-020  0.7925115E+02  0.7818608E-02  0.1331190E+00
          2   -1    0    0  501    0  0.00000000000E+00  0.00000000000E+00  0.17936085193E+03  0.17936085195E+03  0.25500000000E-02 0. -1.
         -1   -1    0    0    0  501 -0.00000000000E+00 -0.00000000000E+00 -0.87543418121E+01  0.87543432629E+01  0.50400000000E-02 0.  1.
         24    2    1    2    0    0  0.00000000000E+00  0.00000000000E+00  0.17060651012E+03  0.18811519521E+03  0.79251153775E+02 0.  0.
         66    2    3    3    0    0  0.14893571589E+02  0.57706269658E+01  0.17136982321E+03  0.17212418457E+03  0.19999999764E+01 0.  0.
        -13    1    3    3    0    0 -0.14893571589E+02 -0.57706269658E+01 -0.76331308714E+00  0.15991010636E+02  0.10566000000E+00 0.  1.
         13    1    4    4    0    0  0.82764492565E+00  0.18569210543E+00  0.57376997303E+01  0.58010205923E+01  0.10566000000E+00 0. -1.
        -13    1    4    4    0    0  0.46243538160E+01  0.18541072644E+01  0.51665333566E+02  0.51905107827E+02  0.10566000000E+00 0.  1.
         14    1    4    4    0    0  0.94415728477E+01  0.37308275959E+01  0.11396678991E+03  0.11441805616E+03  0.00000000000E+00 0. -1.
<mgrwt>
<rscale>  0 0.79251154E+02</rscale>
<asrwt>0</asrwt>
<pdfrwt beam="1">  1        2 0.27593977E-01 0.79251154E+02</pdfrwt>
<pdfrwt beam="2">  1       -1 0.13468220E-02 0.79251154E+02</pdfrwt>
<totfact> 0.21783465E+05</totfact>
</mgrwt>
</event>
<event>
 8    1  0.2603554E-020  0.7899957E+02  0.7818608E-02  0.1331915E+00
          2   -1    0    0  501    0  0.00000000000E+00  0.00000000000E+00  0.14023782423E+02  0.14023782655E+02  0.25500000000E-02 0. -1.
         -1   -1    0    0    0  501 -0.00000000000E+00 -0.00000000000E+00 -0.11125623133E+03  0.11125623145E+03  0.50400000000E-02 0.  1.
         24    2    1    2    0    0  0.35527136788E-14  0.35527136788E-14 -0.97232448910E+02  0.12528001410E+03  0.78999574760E+02 0.  0.
         66    2    3    3    0    0  0.26701457043E+02  0.28698357353E+02 -0.41265982161E+02  0.56951249387E+02  0.20000000105E+01 0.  0.
        -13    1    3    3    0    0 -0.26701457043E+02 -0.28698357353E+02 -0.55966466750E+02  0.68328764715E+02  0.10566000000E+00 0.  1.
         13    1    4    4    0    0  0.29934109663E+01  0.36832605163E+01 -0.50197796581E+01  0.69091438757E+01  0.10566000000E+00 0. -1.
        -13    1    4    4    0    0  0.36273182922E+01  0.39658582990E+01 -0.48530232641E+01  0.72421315148E+01  0.10566000000E+00 0. -1.
         14    1    4    4    0    0  0.20080727785E+02  0.21049238538E+02 -0.31393179238E+02  0.42799973996E+02  0.00000000000E+00 0. -1.
<mgrwt>
<rscale>  0 0.78999575E+02</rscale>
<asrwt>0</asrwt>
<pdfrwt beam="1">  1        2 0.21575051E-02 0.78999575E+02</pdfrwt>
<pdfrwt beam="2">  1       -1 0.17116343E-01 0.78999575E+02</pdfrwt>
<totfact> 0.11950974E+05</totfact>
</mgrwt>
</event>
<event>
 8    1  0.2603554E-020  0.8004343E+02  0.7818608E-02  0.1328928E+00
          2   -1    0    0  501    0  0.00000000000E+00  0.00000000000E+00  0.21015118743E+02  0.21015118898E+02  0.25500000000E-02 0. -1.
         -1   -1    0    0    0  501 -0.00000000000E+00 -0.00000000000E+00 -0.76218353686E+02  0.76218353853E+02  0.50400000000E-02 0.  1.
         24    2    1    2    0    0 -0.35527136788E-14  0.00000000000E+00 -0.55203234943E+02  0.97233472751E+02  0.80043432429E+02 0.  0.
         66    2    3    3    0    0  0.25703806881E+02 -0.24907954844E+02 -0.59347280315E+01  0.36336109590E+02  0.19999901655E+01 0.  0.
        -13    1    3    3    0    0 -0.25703806881E+02  0.24907954844E+02 -0.49268506911E+02  0.60897363161E+02  0.10566000000E+00 0.  1.
         13    1    4    4    0    0  0.87404339408E+01 -0.74147869573E+01 -0.19529543300E+01  0.11627529649E+02  0.10566000000E+00 0. -1.
        -13    1    4    4    0    0  0.13198649939E+02 -0.13085684950E+02 -0.31962539195E+01  0.18859128134E+02  0.10566000000E+00 0.  1.
        -14    1    4    4    0    0  0.37647230010E+01 -0.44074829366E+01 -0.78551978200E+00  0.58494518067E+01  0.00000000000E+00 0.  1.
<mgrwt>
<rscale>  0 0.80043432E+02</rscale>
<asrwt>0</asrwt>
<pdfrwt beam="1">  1        2 0.32330952E-02 0.80043432E+02</pdfrwt>
<pdfrwt beam="2">  1       -1 0.11725901E-01 0.80043432E+02</pdfrwt>
<totfact> 0.12520720E+05</totfact>
</mgrwt>
</event>
<event>
 8    1  0.2603554E-020  0.7890653E+02  0.7818608E-02  0.1332183E+00
          2   -1    0    0  501    0  0.00000000000E+00  0.00000000000E+00  0.34673396309E+02  0.34673396403E+02  0.25500000000E-02 0. -1.
         -1   -1    0    0    0  501 -0.00000000000E+00 -0.00000000000E+00 -0.44892062532E+02  0.44892062815E+02  0.50400000000E-02 0.  1.
         24    2    1    2    0    0  0.00000000000E+00  0.00000000000E+00 -0.10218666223E+02  0.79565459218E+02  0.78906534338E+02 0.  0.
         66    2    3    3    0    0  0.16182090885E+00  0.10516982385E+02  0.33203688475E+02  0.34887218921E+02  0.20000027976E+01 0.  0.
        -13    1    3    3    0    0 -0.16182090885E+00 -0.10516982385E+02 -0.43422354698E+02  0.44678240297E+02  0.10566000000E+00 0.  1.
         13    1    4    4    0    0  0.42935172600E-01  0.65702367382E+01  0.21279340521E+02  0.22270863281E+02  0.10566000000E+00 0. -1.
        -13    1    4    4    0    0  0.13857695353E+00  0.21410434993E+01  0.46657384287E+01  0.51364919895E+01  0.10566000000E+00 0.  1.
        -14    1    4    4    0    0 -0.19691217280E-01  0.18057021473E+01  0.72586095253E+01  0.74798636505E+01  0.00000000000E+00 0.  1.
<mgrwt>
<rscale>  0 0.78906534E+02</rscale>
<asrwt>0</asrwt>
<pdfrwt beam="1">  1        2 0.53343687E-02 0.78906534E+02</pdfrwt>
<pdfrwt beam="2">  1       -1 0.69064712E-02 0.78906534E+02</pdfrwt>
<totfact> 0.14387963E+05</totfact>
</mgrwt>
</event>
<event>
 8    1  0.2603554E-020  0.8022007E+02  0.7818608E-02  0.1328428E+00
          2   -1    0    0  501    0  0.00000000000E+00  0.00000000000E+00  0.88726890389E+03  0.88726890389E+03  0.25500000000E-02 0. -1.
         -1   -1    0    0    0  501 -0.00000000000E+00 -0.00000000000E+00 -0.18132177480E+01  0.18132247526E+01  0.50400000000E-02 0.  1.
         24    2    1    2    0    0 -0.11102230246E-15  0.00000000000E+00  0.88545568614E+03  0.88908212865E+03  0.80220068294E+02 0.  0.
         66    2    3    3    0    0  0.53811281755E+00  0.32335766501E+02  0.70548983342E+03  0.70623352824E+03  0.19999976155E+01 0.  0.
        -13    1    3    3    0    0 -0.53811281755E+00 -0.32335766501E+02  0.17996585272E+03  0.18284860040E+03  0.10566000000E+00 0.  1.
         13    1    4    4    0    0  0.14718705712E+00  0.69138607650E+00  0.13790453461E+02  0.13808962648E+02  0.10566000000E+00 0. -1.
        -13    1    4    4    0    0  0.61947952923E+00  0.14194639858E+02  0.29759110347E+03  0.29793010520E+03  0.10566000000E+00 0.  1.
         14    1    4    4    0    0 -0.22855376880E+00  0.17449740567E+02  0.39410827649E+03  0.39449446040E+03  0.00000000000E+00 0. -1.
<mgrwt>
<rscale>  0 0.80220068E+02</rscale>
<asrwt>0</asrwt>
<pdfrwt beam="1">  1        2 0.13650303E+00 0.80220068E+02</pdfrwt>
<pdfrwt beam="2">  1       -1 0.27895687E-03 0.80220068E+02</pdfrwt>
<totfact> 0.34641748E+05</totfact>
</mgrwt>
</event>
<event>
 8    1  0.2603554E-020  0.7773659E+02  0.7818608E-02  0.1335600E+00
         -1   -1    0    0    0  501 -0.00000000000E+00  0.00000000000E+00  0.19567121715E+02  0.19567122364E+02  0.50400000000E-02 0.  1.
          2   -1    0    0  501    0  0.00000000000E+00 -0.00000000000E+00 -0.77208304905E+02  0.77208304947E+02  0.25500000000E-02 0. -1.
         24    2    1    2    0    0 -0.17763568394E-14 -0.35527136788E-14 -0.57641183190E+02  0.96775427310E+02  0.77736589400E+02 0.  0.
         66    2    3    3    0    0  0.12683025059E+02  0.30057796417E+02 -0.55083681035E+02  0.64051090321E+02  0.20000012243E+01 0.  0.
        -13    1    3    3    0    0 -0.12683025059E+02 -0.30057796417E+02 -0.25575021554E+01  0.32724336989E+02  0.10566000000E+00 0.  1.
         13    1    4    4    0    0  0.44165334013E+01  0.97539811122E+01 -0.18371282244E+02  0.21264079810E+02  0.10566000000E+00 0. -1.
        -13    1    4    4    0    0  0.37197691030E+01  0.84071426738E+01 -0.14041226230E+02  0.16783442084E+02  0.10566000000E+00 0.  1.
        -14    1    4    4    0    0  0.45467225548E+01  0.11896672631E+02 -0.22671172560E+02  0.26003568427E+02  0.00000000000E+00 0.  1.
<mgrwt>
<rscale>  0 0.77736589E+02</rscale>
<asrwt>0</asrwt>
<pdfrwt beam="1">  1        2 0.11878201E-01 0.77736589E+02</pdfrwt>
<pdfrwt beam="2">  1       -1 0.30103265E-02 0.77736589E+02</pdfrwt>
<totfact> 0.17874958E+05</totfact>
</mgrwt>
</event>
<event>
 8    1  0.2603554E-020  0.7754858E+02  0.7818608E-02  0.1336156E+00
          2   -1    0    0  501    0  0.00000000000E+00  0.00000000000E+00  0.14017918943E+02  0.14017919174E+02  0.25500000000E-02 0. -1.
         -1   -1    0    0    0  501 -0.00000000000E+00 -0.00000000000E+00 -0.10725168427E+03  0.10725168439E+03  0.50400000000E-02 0.  1.
         24    2    1    2    0    0  0.00000000000E+00  0.00000000000E+00 -0.93233765328E+02  0.12126960356E+03  0.77548576719E+02 0.  0.
         66    2    3    3    0    0  0.31452076299E+01  0.18673917616E+02  0.62173523245E+01  0.20031549964E+02  0.19999984734E+01 0.  0.
        -13    1    3    3    0    0 -0.31452076299E+01 -0.18673917616E+02 -0.99451117653E+02  0.10123805360E+03  0.10566000000E+00 0.  1.
         13    1    4    4    0    0  0.15170375887E+01  0.75830130032E+01  0.23199768973E+01  0.80744625885E+01  0.10566000000E+00 0. -1.
        -13    1    4    4    0    0  0.12498582742E+01  0.79289056607E+01  0.34646834719E+01  0.87432766329E+01  0.10566000000E+00 0.  1.
        -14    1    4    4    0    0  0.37831176699E+00  0.31619989518E+01  0.43269195525E+00  0.32138107431E+01  0.00000000000E+00 0.  1.
<mgrwt>
<rscale>  0 0.77548577E+02</rscale>
<asrwt>0</asrwt>
<pdfrwt beam="1">  1        2 0.21566030E-02 0.77548577E+02</pdfrwt>
<pdfrwt beam="2">  1       -1 0.16500259E-01 0.77548577E+02</pdfrwt>
<totfact> 0.12618928E+05</totfact>
</mgrwt>
</event>
<event>
 8    1  0.2603554E-020  0.7937003E+02  0.7818608E-02  0.1330849E+00
         -1   -1    0    0    0  501 -0.00000000000E+00  0.00000000000E+00  0.10290865895E+02  0.10290867129E+02  0.50400000000E-02 0.  1.
          2   -1    0    0  501    0  0.00000000000E+00 -0.00000000000E+00 -0.15303863960E+03  0.15303863962E+03  0.25500000000E-02 0. -1.
         24    2    1    2    0    0  0.00000000000E+00 -0.35527136788E-14 -0.14274777370E+03  0.16332950675E+03  0.79370025058E+02 0.  0.
         66    2    3    3    0    0  0.24639250294E+02 -0.22176691006E+02 -0.11622092754E+03  0.12087266972E+03  0.20000019618E+01 0.  0.
        -13    1    3    3    0    0 -0.24639250294E+02  0.22176691006E+02 -0.26526846159E+02  0.42456837025E+02  0.10566000000E+00 0.  1.
         13    1    4    4    0    0  0.10638255196E+02 -0.88334677169E+01 -0.47031627536E+02  0.49022319185E+02  0.10566000000E+00 0. -1.
        -13    1    4    4    0    0  0.27678755064E+01 -0.31976957068E+01 -0.14391218652E+02  0.15000157698E+02  0.10566000000E+00 0.  1.
        -14    1    4    4    0    0  0.11233119592E+02 -0.10145527582E+02 -0.54798081356E+02  0.56850192841E+02  0.00000000000E+00 0.  1.
<mgrwt>
<rscale>  0 0.79370025E+02</rscale>
<asrwt>0</asrwt>
<pdfrwt beam="1">  1        2 0.23544404E-01 0.79370025E+02</pdfrwt>
<pdfrwt beam="2">  1       -1 0.15832104E-02 0.79370025E+02</pdfrwt>
<totfact> 0.20587273E+05</totfact>
</mgrwt>
</event>
<event>
 8    1  0.2603554E-020  0.7954342E+02  0.7818608E-02  0.1330352E+00
          2   -1    0    0  501    0  0.00000000000E+00  0.00000000000E+00  0.13693920288E+03  0.13693920290E+03  0.25500000000E-02 0. -1.
         -1   -1    0    0    0  501 -0.00000000000E+00 -0.00000000000E+00 -0.11551029508E+02  0.11551030607E+02  0.50400000000E-02 0.  1.
         24    2    1    2    0    0  0.00000000000E+00 -0.17763568394E-14  0.12538817337E+03  0.14849023351E+03  0.79543418499E+02 0.  0.
         66    2    3    3    0    0 -0.17710911782E+02 -0.13230146265E+02  0.12439596393E+03  0.12636086818E+03  0.19999997123E+01 0.  0.
        -13    1    3    3    0    0  0.17710911782E+02  0.13230146265E+02  0.99220944309E+00  0.22129365331E+02  0.10566000000E+00 0.  1.
         13    1    4    4    0    0 -0.12873641186E+02 -0.93464869902E+01  0.89421207619E+02  0.90825387379E+02  0.10566000000E+00 0. -1.
        -13    1    4    4    0    0 -0.33368955609E+00 -0.20639271470E+00  0.39315060310E+01  0.39524486562E+01  0.10566000000E+00 0.  1.
        -14    1    4    4    0    0 -0.45035810404E+01 -0.36772665600E+01  0.31043250279E+02  0.31583032144E+02  0.00000000000E+00 0.  1.
<mgrwt>
<rscale>  0 0.79543418E+02</rscale>
<asrwt>0</asrwt>
<pdfrwt beam="1">  1        2 0.21067569E-01 0.79543418E+02</pdfrwt>
<pdfrwt beam="2">  1       -1 0.17770816E-02 0.79543418E+02</pdfrwt>
<totfact> 0.19756676E+05</totfact>
</mgrwt>
</event>
<event>
 8    1  0.2603554E-020  0.8196072E+02  0.7818608E-02  0.1323578E+00
          2   -1    0    0  501    0  0.00000000000E+00  0.00000000000E+00  0.40169631211E+02  0.40169631292E+02  0.25500000000E-02 0. -1.
         -1   -1    0    0    0  501 -0.00000000000E+00 -0.00000000000E+00 -0.41807446139E+02  0.41807446442E+02  0.50400000000E-02 0.  1.
         24    2    1    2    0    0  0.00000000000E+00 -0.17763568394E-14 -0.16378149272E+01  0.81977077735E+02  0.81960715201E+02 0.  0.
         66    2    3    3    0    0 -0.39298306615E+02  0.11529415399E+02 -0.11363098522E+01  0.41019209216E+02  0.20000005974E+01 0.  0.
        -13    1    3    3    0    0  0.39298306615E+02 -0.11529415399E+02 -0.50150507493E+00  0.40957868519E+02  0.10566000000E+00 0.  1.
         13    1    4    4    0    0 -0.18615077465E+02  0.58827082122E+01  0.26790802268E+00  0.19524607645E+02  0.10566000000E+00 0. -1.
        -13    1    4    4    0    0 -0.11471957262E+02  0.29151000052E+01 -0.97910060734E+00  0.11877432951E+02  0.10566000000E+00 0.  1.
         14    1    4    4    0    0 -0.92112718875E+01  0.27316071818E+01 -0.42511726759E+00  0.96171686203E+01  0.00000000000E+00 0. -1.
<mgrwt>
<rscale>  0 0.81960715E+02</rscale>
<asrwt>0</asrwt>
<pdfrwt beam="1">  1        2 0.61799433E-02 0.81960715E+02</pdfrwt>
<pdfrwt beam="2">  1       -1 0.64319149E-02 0.81960715E+02</pdfrwt>
<totfact> 0.13342318E+05</totfact>
</mgrwt>
</event>
<event>
 8    1  0.2603554E-020  0.8634941E+02  0.7818608E-02  0.1311941E+00
         -1   -1    0    0    0  501 -0.00000000000E+00  0.00000000000E+00  0.10477888406E+02  0.10477889618E+02  0.50400000000E-02 0.  1.
          2   -1    0    0  501    0  0.00000000000E+00 -0.00000000000E+00 -0.17790369630E+03  0.17790369632E+03  0.25500000000E-02 0. -1.
         24    2    1    2    0    0 -0.71054273576E-14 -0.88817841970E-15 -0.16742580790E+03  0.18838158594E+03  0.86349410947E+02 0.  0.
         66    2    3    3    0    0 -0.40686118869E+02 -0.51888457208E+01 -0.11300813711E+03  0.12023777883E+03  0.20000045034E+01 0.  0.
        -13    1    3    3    0    0  0.40686118869E+02  0.51888457208E+01 -0.54417670790E+02  0.68143807105E+02  0.10566000000E+00 0.  1.
         13    1    4    4    0    0 -0.25569187327E+01 -0.17612400479E+00 -0.80477531893E+01  0.84466767727E+01  0.10566000000E+00 0.  1.
        -13    1    4    4    0    0 -0.28740844809E+02 -0.32355600120E+01 -0.78652343929E+02  0.83801595322E+02  0.10566000000E+00 0. -1.
         14    1    4    4    0    0 -0.93883553267E+01 -0.17771617040E+01 -0.26308039988E+02  0.27989506739E+02  0.00000000000E+00 0. -1.
<mgrwt>
<rscale>  0 0.86349411E+02</rscale>
<asrwt>0</asrwt>
<pdfrwt beam="1">  1        2 0.27369797E-01 0.86349411E+02</pdfrwt>
<pdfrwt beam="2">  1       -1 0.16119831E-02 0.86349411E+02</pdfrwt>
<totfact> 0.17300524E+05</totfact>
</mgrwt>
</event>
<event>
 8    1  0.2603554E-020  0.7953574E+02  0.7818608E-02  0.1330374E+00
         -1   -1    0    0    0  501 -0.00000000000E+00  0.00000000000E+00  0.39073511137E+01  0.39073543642E+01  0.50400000000E-02 0.  1.
          2   -1    0    0  501    0  0.00000000000E+00 -0.00000000000E+00 -0.40474552211E+03  0.40474552212E+03  0.25500000000E-02 0. -1.
         24    2    1    2    0    0  0.00000000000E+00  0.00000000000E+00 -0.40083817099E+03  0.40865287648E+03  0.79535741209E+02 0.  0.
         66    2    3    3    0    0 -0.29996997223E+02  0.25677301656E+02 -0.22371478679E+03  0.22718153423E+03  0.20000007755E+01 0.  0.
        -13    1    3    3    0    0  0.29996997223E+02 -0.25677301656E+02 -0.17712338421E+03  0.18147134225E+03  0.10566000000E+00 0.  1.
         13    1    4    4    0    0 -0.17981802954E+02  0.15129615091E+02 -0.13326253397E+03  0.13531875189E+03  0.10566000000E+00 0. -1.
        -13    1    4    4    0    0 -0.30515385668E+01  0.20521282118E+01 -0.21954108373E+02  0.22260214651E+02  0.10566000000E+00 0.  1.
         14    1    4    4    0    0 -0.89636557022E+01  0.84955583531E+01 -0.68498144447E+02  0.69602567683E+02  0.00000000000E+00 0. -1.
<mgrwt>
<rscale>  0 0.79535741E+02</rscale>
<asrwt>0</asrwt>
<pdfrwt beam="1">  1        2 0.62268509E-01 0.79535741E+02</pdfrwt>
<pdfrwt beam="2">  1       -1 0.60113151E-03 0.79535741E+02</pdfrwt>
<totfact> 0.28804565E+05</totfact>
</mgrwt>
</event>
<event>
 8    1  0.2603554E-020  0.7614042E+02  0.7818608E-02  0.1340375E+00
         -1   -1    0    0    0  501 -0.00000000000E+00  0.00000000000E+00  0.59189843336E+01  0.59189864794E+01  0.50400000000E-02 0.  1.
          2   -1    0    0  501    0  0.00000000000E+00 -0.00000000000E+00 -0.24486308343E+03  0.24486308345E+03  0.25500000000E-02 0. -1.
         24    2    1    2    0    0 -0.17763568394E-14  0.00000000000E+00 -0.23894409910E+03  0.25078206992E+03  0.76140423572E+02 0.  0.
         66    2    3    3    0    0  0.14516386758E+02  0.23952480225E+02 -0.20435539548E+03  0.20627548192E+03  0.19999969731E+01 0.  0.
        -13    1    3    3    0    0 -0.14516386758E+02 -0.23952480225E+02 -0.34588703620E+02  0.44506588002E+02  0.10566000000E+00 0.  1.
         13    1    4    4    0    0  0.78769024261E+00  0.21996474870E+01 -0.16870978613E+02  0.17032321873E+02  0.10566000000E+00 0. -1.
        -13    1    4    4    0    0  0.18518557996E+01  0.23919697297E+01 -0.22086659159E+02  0.22293105793E+02  0.10566000000E+00 0.  1.
         14    1    4    4    0    0  0.11876840715E+02  0.19360863008E+02 -0.16539775771E+03  0.16695005426E+03  0.00000000000E+00 0. -1.
<mgrwt>
<rscale>  0 0.76140424E+02</rscale>
<asrwt>0</asrwt>
<pdfrwt beam="1">  1        2 0.37671236E-01 0.76140424E+02</pdfrwt>
<pdfrwt beam="2">  1       -1 0.91061333E-03 0.76140424E+02</pdfrwt>
<totfact> 0.26972881E+05</totfact>
</mgrwt>
</event>
<event>
 8    1  0.2603554E-020  0.7968417E+02  0.7818608E-02  0.1329950E+00
         -1   -1    0    0    0  501 -0.00000000000E+00  0.00000000000E+00  0.22326441635E+03  0.22326441641E+03  0.50400000000E-02 0.  1.
          2   -1    0    0  501    0  0.00000000000E+00 -0.00000000000E+00 -0.71099187454E+01  0.71099192027E+01  0.25500000000E-02 0. -1.
         24    2    1    2    0    0  0.00000000000E+00  0.00000000000E+00  0.21615449760E+03  0.23037433561E+03  0.79684174544E+02 0.  0.
         66    2    3    3    0    0 -0.12045233725E+02  0.35189020762E+02  0.67051727507E+02  0.76702600888E+02  0.19999958796E+01 0.  0.
        -13    1    3    3    0    0  0.12045233725E+02 -0.35189020762E+02  0.14910277010E+03  0.15367173472E+03  0.10566000000E+00 0.  1.
         13    1    4    4    0    0 -0.54783501620E+01  0.15747649946E+02  0.29490527286E+02  0.33877767975E+02  0.10566000000E+00 0. -1.
        -13    1    4    4    0    0 -0.19684072283E+01  0.77240979595E+01  0.13887577555E+02  0.16012878901E+02  0.10566000000E+00 0.  1.
        -14    1    4    4    0    0 -0.45984763348E+01  0.11717272857E+02  0.23673622667E+02  0.26811954012E+02  0.00000000000E+00 0.  1.
<mgrwt>
<rscale>  0 0.79684175E+02</rscale>
<asrwt>0</asrwt>
<pdfrwt beam="1">  1        2 0.10938338E-02 0.79684175E+02</pdfrwt>
<pdfrwt beam="2">  1       -1 0.34348367E-01 0.79684175E+02</pdfrwt>
<totfact> 0.97199253E+04</totfact>
</mgrwt>
</event>
<event>
 8    1  0.2603554E-020  0.7982374E+02  0.7818608E-02  0.1329552E+00
         -1   -1    0    0    0  501 -0.00000000000E+00  0.00000000000E+00  0.53142771991E+01  0.53142795890E+01  0.50400000000E-02 0.  1.
          2   -1    0    0  501    0  0.00000000000E+00 -0.00000000000E+00 -0.29975042904E+03  0.29975042905E+03  0.25500000000E-02 0. -1.
         24    2    1    2    0    0  0.00000000000E+00  0.00000000000E+00 -0.29443615184E+03  0.30506470864E+03  0.79823736737E+02 0.  0.
         66    2    3    3    0    0  0.21553410491E+01  0.38524237341E+02 -0.18594372683E+03  0.18991532824E+03  0.19999988371E+01 0.  0.
        -13    1    3    3    0    0 -0.21553410491E+01 -0.38524237341E+02 -0.10849242501E+03  0.11514938040E+03  0.10566000000E+00 0.  1.
         13    1    4    4    0    0  0.16032217956E+01  0.15840331421E+02 -0.74184839924E+02  0.75874159358E+02  0.10566000000E+00 0. -1.
        -13    1    4    4    0    0 -0.70419097988E-01  0.40504445556E+01 -0.20867619755E+02  0.21257464059E+02  0.10566000000E+00 0.  1.
         14    1    4    4    0    0  0.62253835144E+00  0.18633461364E+02 -0.90891267149E+02  0.92783704821E+02  0.00000000000E+00 0. -1.
<mgrwt>
<rscale>  0 0.79823737E+02</rscale>
<asrwt>0</asrwt>
<pdfrwt beam="1">  1        2 0.46115438E-01 0.79823737E+02</pdfrwt>
<pdfrwt beam="2">  1       -1 0.81758153E-03 0.79823737E+02</pdfrwt>
<totfact> 0.25634607E+05</totfact>
</mgrwt>
</event>
<event>
 8    1  0.2603554E-020  0.8003460E+02  0.7818608E-02  0.1328953E+00
          2   -1    0    0  501    0  0.00000000000E+00  0.00000000000E+00  0.33296244094E+03  0.33296244095E+03  0.25500000000E-02 0. -1.
         -1   -1    0    0    0  501 -0.00000000000E+00 -0.00000000000E+00 -0.48095025254E+01  0.48095051661E+01  0.50400000000E-02 0.  1.
         24    2    1    2    0    0  0.88817841970E-15 -0.35527136788E-14  0.32815293841E+03  0.33777194611E+03  0.80034596224E+02 0.  0.
         66    2    3    3    0    0 -0.53159601639E+01  0.14783881710E+02  0.31939001558E+03  0.31978243330E+03  0.19999996503E+01 0.  0.
        -13    1    3    3    0    0  0.53159601639E+01 -0.14783881710E+02  0.87629228268E+01  0.17989512817E+02  0.10566000000E+00 0.  1.
         13    1    4    4    0    0 -0.14649198112E+01  0.62337815157E+01  0.12974829197E+03  0.12990626026E+03  0.10566000000E+00 0. -1.
        -13    1    4    4    0    0 -0.99013173601E+00  0.17722294536E+01  0.49026183654E+02  0.49068309587E+02  0.10566000000E+00 0.  1.
        -14    1    4    4    0    0 -0.28609086167E+01  0.67778707407E+01  0.14061553996E+03  0.14080786345E+03  0.00000000000E+00 0.  1.
<mgrwt>
<rscale>  0 0.80034596E+02</rscale>
<asrwt>0</asrwt>
<pdfrwt beam="1">  1        2 0.51224991E-01 0.80034596E+02</pdfrwt>
<pdfrwt beam="2">  1       -1 0.73992367E-03 0.80034596E+02</pdfrwt>
<totfact> 0.26442098E+05</totfact>
</mgrwt>
</event>
<event>
 8    1  0.2603554E-020  0.7487598E+02  0.7818608E-02  0.1344256E+00
         -1   -1    0    0    0  501 -0.00000000000E+00  0.00000000000E+00  0.40717693125E+02  0.40717693437E+02  0.50400000000E-02 0.  1.
          2   -1    0    0  501    0  0.00000000000E+00 -0.00000000000E+00 -0.34422453369E+02  0.34422453463E+02  0.25500000000E-02 0. -1.
         24    2    1    2    0    0  0.00000000000E+00  0.00000000000E+00  0.62952397564E+01  0.75140146901E+02  0.74875975003E+02 0.  0.
         66    2    3    3    0    0  0.23430874404E+02  0.20150788594E+02 -0.18008594711E+02  0.35824149010E+02  0.20000031237E+01 0.  0.
        -13    1    3    3    0    0 -0.23430874404E+02 -0.20150788594E+02  0.24303834467E+02  0.39315997891E+02  0.10566000000E+00 0.  1.
         13    1    4    4    0    0  0.16460381607E+02  0.14142982161E+02 -0.12190585177E+02  0.24891557566E+02  0.10566000000E+00 0. -1.
        -13    1    4    4    0    0  0.17021491144E+01  0.20147979331E+01 -0.18349574945E+01  0.32148025384E+01  0.10566000000E+00 0.  1.
        -14    1    4    4    0    0  0.52683436827E+01  0.39930085001E+01 -0.39830520399E+01  0.77177889057E+01  0.00000000000E+00 0.  1.
<mgrwt>
<rscale>  0 0.74875975E+02</rscale>
<asrwt>0</asrwt>
<pdfrwt beam="1">  1        2 0.52957621E-02 0.74875975E+02</pdfrwt>
<pdfrwt beam="2">  1       -1 0.62642605E-02 0.74875975E+02</pdfrwt>
<totfact> 0.16608687E+05</totfact>
</mgrwt>
</event>
<event>
 8    1  0.2603554E-020  0.7978270E+02  0.7818608E-02  0.1329669E+00
         -1   -1    0    0    0  501 -0.00000000000E+00  0.00000000000E+00  0.59065877802E+00  0.59068028040E+00  0.50400000000E-02 0.  1.
          2   -1    0    0  501    0  0.00000000000E+00 -0.00000000000E+00 -0.26940946489E+04  0.26940946489E+04  0.25500000000E-02 0. -1.
         24    2    1    2    0    0  0.00000000000E+00  0.17763568394E-14 -0.26935039902E+04  0.26946853292E+04  0.79782695515E+02 0.  0.
         66    2    3    3    0    0  0.88867851481E+01 -0.89708225437E+01 -0.26247601199E+04  0.26247912560E+04  0.20000022133E+01 0.  0.
        -13    1    3    3    0    0 -0.88867851481E+01  0.89708225437E+01 -0.68743870301E+02  0.69894073250E+02  0.10566000000E+00 0.  1.
         13    1    4    4    0    0  0.28942153653E+01 -0.35242295720E+01 -0.92437060515E+03  0.92438186022E+03  0.10566000000E+00 0. -1.
        -13    1    4    4    0    0  0.17180907624E+01 -0.19610138186E+01 -0.43096829500E+03  0.43097619409E+03  0.10566000000E+00 0.  1.
        -14    1    4    4    0    0  0.42744790204E+01 -0.34855791531E+01 -0.12694212197E+04  0.12694332017E+04  0.00000000000E+00 0.  1.
<mgrwt>
<rscale>  0 0.79782696E+02</rscale>
<asrwt>0</asrwt>
<pdfrwt beam="1">  1        2 0.41446626E+00 0.79782696E+02</pdfrwt>
<pdfrwt beam="2">  1       -1 0.90874393E-04 0.79782696E+02</pdfrwt>
<totfact> 0.18487605E+05</totfact>
</mgrwt>
</event>
<event>
 8    1  0.2603554E-020  0.7750819E+02  0.7818608E-02  0.1336275E+00
         -1   -1    0    0    0  501 -0.00000000000E+00  0.00000000000E+00  0.11117017873E+03  0.11117017885E+03  0.50400000000E-02 0.  1.
          2   -1    0    0  501    0  0.00000000000E+00 -0.00000000000E+00 -0.13509737453E+02  0.13509737694E+02  0.25500000000E-02 0. -1.
         24    2    1    2    0    0  0.00000000000E+00  0.00000000000E+00  0.97660441281E+02  0.12467991654E+03  0.77508191810E+02 0.  0.
         66    2    3    3    0    0 -0.21225545780E+02  0.24731365361E+02  0.15208190029E+02  0.36020178628E+02  0.19999995335E+01 0.  0.
        -13    1    3    3    0    0  0.21225545780E+02 -0.24731365361E+02  0.82452251252E+02  0.88659737914E+02  0.10566000000E+00 0.  1.
         13    1    4    4    0    0 -0.23484776310E+01  0.32858512980E+01  0.18248226425E+01  0.44332051213E+01  0.10566000000E+00 0.  1.
        -13    1    4    4    0    0 -0.49862783881E+01  0.67098787908E+01  0.38343173315E+01  0.91977496696E+01  0.10566000000E+00 0. -1.
         14    1    4    4    0    0 -0.13890789761E+02  0.14735635273E+02  0.95490500546E+01  0.22389223837E+02  0.00000000000E+00 0. -1.
<mgrwt>
<rscale>  0 0.77508192E+02</rscale>
<asrwt>0</asrwt>
<pdfrwt beam="1">  1        2 0.20784212E-02 0.77508192E+02</pdfrwt>
<pdfrwt beam="2">  1       -1 0.17103105E-01 0.77508192E+02</pdfrwt>
<totfact> 0.12536996E+05</totfact>
</mgrwt>
</event>
<event>
 8    1  0.2603554E-020  0.7933459E+02  0.7818608E-02  0.1330950E+00
          2   -1    0    0  501    0  0.00000000000E+00  0.00000000000E+00  0.77659102628E+03  0.77659102628E+03  0.25500000000E-02 0. -1.
         -1   -1    0    0    0  501 -0.00000000000E+00 -0.00000000000E+00 -0.20261526551E+01  0.20261589235E+01  0.50400000000E-02 0.  1.
         24    2    1    2    0    0  0.00000000000E+00  0.00000000000E+00  0.77456487363E+03  0.77861718521E+03  0.79334593004E+02 0.  0.
         66    2    3    3    0    0 -0.22689476441E+02  0.12222700439E+02  0.68314712504E+03  0.68363601514E+03  0.19999994521E+01 0.  0.
        -13    1    3    3    0    0  0.22689476441E+02 -0.12222700439E+02  0.91417748582E+02  0.94981170066E+02  0.10566000000E+00 0.  1.
         13    1    4    4    0    0 -0.14336430390E+01  0.48104392410E+00  0.45431447761E+02  0.45456730473E+02  0.10566000000E+00 0. -1.
        -13    1    4    4    0    0 -0.80335569424E+01  0.50478600937E+01  0.25899136228E+03  0.25916511306E+03  0.10566000000E+00 0. -1.
         14    1    4    4    0    0 -0.13222276460E+02  0.66937964209E+01  0.37872431500E+03  0.37901417161E+03  0.00000000000E+00 0. -1.
<mgrwt>
<rscale>  0 0.79334593E+02</rscale>
<asrwt>0</asrwt>
<pdfrwt beam="1">  1        2 0.11947548E+00 0.79334593E+02</pdfrwt>
<pdfrwt beam="2">  1       -1 0.31171644E-03 0.79334593E+02</pdfrwt>
<totfact> 0.34932609E+05</totfact>
</mgrwt>
</event>
<event>
 8    1  0.2603554E-020  0.7965008E+02  0.7818608E-02  0.1330047E+00
          2   -1    0    0  501    0  0.00000000000E+00  0.00000000000E+00  0.20342557020E+02  0.20342557180E+02  0.25500000000E-02 0. -1.
         -1   -1    0    0    0  501 -0.00000000000E+00 -0.00000000000E+00 -0.77966285938E+02  0.77966286101E+02  0.50400000000E-02 0.  1.
         24    2    1    2    0    0  0.35527136788E-14  0.00000000000E+00 -0.57623728917E+02  0.98308843281E+02  0.79650075536E+02 0.  0.
         66    2    3    3    0    0  0.26730312251E+02  0.22346698435E+02 -0.52576055184E+02  0.63104089367E+02  0.19999980210E+01 0.  0.
        -13    1    3    3    0    0 -0.26730312251E+02 -0.22346698435E+02 -0.50476737331E+01  0.35204753914E+02  0.10566000000E+00 0.  1.
         13    1    4    4    0    0  0.24850220918E+02  0.20940729971E+02 -0.48973880265E+02  0.58774992672E+02  0.10566000000E+00 0. -1.
        -13    1    4    4    0    0  0.13416537105E+01  0.72745059336E+00 -0.24332934913E+01  0.28742477790E+01  0.10566000000E+00 0.  1.
         14    1    4    4    0    0  0.53843762309E+00  0.67851787022E+00 -0.11688814281E+01  0.14548489156E+01  0.00000000000E+00 0. -1.
<mgrwt>
<rscale>  0 0.79650076E+02</rscale>
<asrwt>0</asrwt>
<pdfrwt beam="1">  1        2 0.31296242E-02 0.79650076E+02</pdfrwt>
<pdfrwt beam="2">  1       -1 0.11994813E-01 0.79650076E+02</pdfrwt>
<totfact> 0.12615994E+05</totfact>
</mgrwt>
</event>
<event>
 8    1  0.2603554E-020  0.7447099E+02  0.7818608E-02  0.1345517E+00
          2   -1    0    0  501    0  0.00000000000E+00  0.00000000000E+00  0.25326565384E+03  0.25326565386E+03  0.25500000000E-02 0. -1.
         -1   -1    0    0    0  501 -0.00000000000E+00 -0.00000000000E+00 -0.54744173153E+01  0.54744196354E+01  0.50400000000E-02 0.  1.
         24    2    1    2    0    0 -0.55511151231E-16  0.00000000000E+00  0.24779123653E+03  0.25874007349E+03  0.74470992543E+02 0.  0.
         66    2    3    3    0    0 -0.11435816065E+00  0.10076469747E+02  0.24842984710E+03  0.24864218719E+03  0.19999998872E+01 0.  0.
        -13    1    3    3    0    0  0.11435816065E+00 -0.10076469747E+02 -0.63861056892E+00  0.10097886306E+02  0.10566000000E+00 0.  1.
         13    1    4    4    0    0 -0.80893029991E-01  0.43638624763E+01  0.11703279677E+03  0.11711420291E+03  0.10566000000E+00 0. -1.
        -13    1    4    4    0    0  0.26354099793E+00  0.19319832517E+01  0.32844063163E+02  0.32902061672E+02  0.10566000000E+00 0.  1.
        -14    1    4    4    0    0 -0.29700612859E+00  0.37806240190E+01  0.98552987165E+02  0.98625922606E+02  0.00000000000E+00 0.  1.
<mgrwt>
<rscale>  0 0.74470993E+02</rscale>
<asrwt>0</asrwt>
<pdfrwt beam="1">  1        2 0.38963941E-01 0.74470993E+02</pdfrwt>
<pdfrwt beam="2">  1       -1 0.84221835E-03 0.74470993E+02</pdfrwt>
<totfact> 0.28924946E+05</totfact>
</mgrwt>
</event>
<event>
 8    1  0.2603554E-020  0.8130227E+02  0.7818608E-02  0.1325396E+00
          2   -1    0    0  501    0  0.00000000000E+00  0.00000000000E+00  0.22895033071E+02  0.22895033213E+02  0.25500000000E-02 0. -1.
         -1   -1    0    0    0  501 -0.00000000000E+00 -0.00000000000E+00 -0.72177874448E+02  0.72177874624E+02  0.50400000000E-02 0.  1.
         24    2    1    2    0    0  0.00000000000E+00  0.00000000000E+00 -0.49282841377E+02  0.95072907838E+02  0.81302271497E+02 0.  0.
         66    2    3    3    0    0  0.70627479844E+00 -0.33423725233E+02  0.23374425968E+01  0.33572427237E+02  0.20000000368E+01 0.  0.
        -13    1    3    3    0    0 -0.70627479844E+00  0.33423725233E+02 -0.51620283974E+02  0.61500480600E+02  0.10566000000E+00 0.  1.
         13    1    4    4    0    0  0.10960598465E+00 -0.15217060140E+02  0.21871052781E+00  0.15219393257E+02  0.10566000000E+00 0. -1.
        -13    1    4    4    0    0  0.73001511621E+00 -0.16273541377E+02  0.19843280718E+01  0.16410660954E+02  0.10566000000E+00 0.  1.
        -14    1    4    4    0    0 -0.13334630242E+00 -0.19331237168E+01  0.13440399722E+00  0.19423730268E+01  0.00000000000E+00 0.  1.
<mgrwt>
<rscale>  0 0.81302271E+02</rscale>
<asrwt>0</asrwt>
<pdfrwt beam="1">  1        2 0.35223128E-02 0.81302271E+02</pdfrwt>
<pdfrwt beam="2">  1       -1 0.11104288E-01 0.81302271E+02</pdfrwt>
<totfact> 0.12182424E+05</totfact>
</mgrwt>
</event>
<event>
 8    1  0.2603554E-020  0.8305304E+02  0.7818608E-02  0.1320604E+00
         -1   -1    0    0    0  501 -0.00000000000E+00  0.00000000000E+00  0.28135703522E+02  0.28135703973E+02  0.50400000000E-02 0.  1.
          2   -1    0    0  501    0  0.00000000000E+00 -0.00000000000E+00 -0.61290510904E+02  0.61290510957E+02  0.25500000000E-02 0. -1.
         24    2    1    2    0    0  0.88817841970E-15  0.00000000000E+00 -0.33154807382E+02  0.89426214930E+02  0.83053035250E+02 0.  0.
         66    2    3    3    0    0  0.45066623358E+01 -0.38981259544E+02 -0.31136803274E+02  0.50133313464E+02  0.19999999462E+01 0.  0.
        -13    1    3    3    0    0 -0.45066623358E+01  0.38981259544E+02 -0.20180041079E+01  0.39292901466E+02  0.10566000000E+00 0.  1.
         13    1    4    4    0    0  0.21917425954E+01 -0.15588012746E+02 -0.11676753563E+02  0.19599684048E+02  0.10566000000E+00 0. -1.
        -13    1    4    4    0    0  0.81696967861E-01 -0.30136056710E+01 -0.21946029542E+01  0.37304074438E+01  0.10566000000E+00 0. -1.
         14    1    4    4    0    0  0.22332227725E+01 -0.20379641127E+02 -0.17265446757E+02  0.26803221973E+02  0.00000000000E+00 0. -1.
<mgrwt>
<rscale>  0 0.83053035E+02</rscale>
<asrwt>0</asrwt>
<pdfrwt beam="1">  1        2 0.94293094E-02 0.83053035E+02</pdfrwt>
<pdfrwt beam="2">  1       -1 0.43285698E-02 0.83053035E+02</pdfrwt>
<totfact> 0.14125027E+05</totfact>
</mgrwt>
</event>
<event>
 8    1  0.2603554E-020  0.7938376E+02  0.7818608E-02  0.1330809E+00
          2   -1    0    0  501    0  0.00000000000E+00  0.00000000000E+00  0.33665610053E+03  0.33665610054E+03  0.25500000000E-02 0. -1.
         -1   -1    0    0    0  501 -0.00000000000E+00 -0.00000000000E+00 -0.46796866850E+01  0.46796893990E+01  0.50400000000E-02 0.  1.
         24    2    1    2    0    0 -0.35527136788E-14  0.17763568394E-14  0.33197641384E+03  0.34133578994E+03  0.79383764988E+02 0.  0.
         66    2    3    3    0    0  0.23085611762E+02  0.89844299269E+01  0.29930267537E+03  0.30033274369E+03  0.19999994715E+01 0.  0.
        -13    1    3    3    0    0 -0.23085611762E+02 -0.89844299269E+01  0.32673738469E+02  0.41003046242E+02  0.10566000000E+00 0.  1.
         13    1    4    4    0    0  0.19032616761E+01  0.89807765091E+00  0.20606178858E+02  0.20713636080E+02  0.10566000000E+00 0.  1.
        -13    1    4    4    0    0  0.77901655439E+01  0.26106200953E+01  0.10516000984E+03  0.10548052356E+03  0.10566000000E+00 0. -1.
         14    1    4    4    0    0  0.13392184542E+02  0.54757321806E+01  0.17353648667E+03  0.17413858406E+03  0.00000000000E+00 0. -1.
<mgrwt>
<rscale>  0 0.79383765E+02</rscale>
<asrwt>0</asrwt>
<pdfrwt beam="1">  1        2 0.51793223E-01 0.79383765E+02</pdfrwt>
<pdfrwt beam="2">  1       -1 0.71995233E-03 0.79383765E+02</pdfrwt>
<totfact> 0.27120401E+05</totfact>
</mgrwt>
</event>
<event>
 8    1  0.2603554E-020  0.7687071E+02  0.7818608E-02  0.1338174E+00
         -1   -1    0    0    0  501 -0.00000000000E+00  0.00000000000E+00  0.18051016228E+03  0.18051016235E+03  0.50400000000E-02 0.  1.
          2   -1    0    0  501    0  0.00000000000E+00 -0.00000000000E+00 -0.81838963060E+01  0.81838967032E+01  0.25500000000E-02 0. -1.
         24    2    1    2    0    0  0.00000000000E+00  0.00000000000E+00  0.17232626598E+03  0.18869405906E+03  0.76870709491E+02 0.  0.
         66    2    3    3    0    0  0.24386935079E+02 -0.87650978619E+01  0.16630746220E+02  0.30856625032E+02  0.20000113600E+01 0.  0.
        -13    1    3    3    0    0 -0.24386935079E+02  0.87650978619E+01  0.15569551976E+03  0.15783743402E+03  0.10566000000E+00 0.  1.
         13    1    4    4    0    0  0.61928763147E+01 -0.26581978781E+01  0.49856606301E+01  0.83836572546E+01  0.10566000000E+00 0. -1.
        -13    1    4    4    0    0  0.12383076868E+02 -0.40002563945E+01  0.73455081045E+01  0.14943570433E+02  0.10566000000E+00 0.  1.
        -14    1    4    4    0    0  0.58109818965E+01 -0.21066435893E+01  0.42995774857E+01  0.75293973444E+01  0.00000000000E+00 0.  1.
<mgrwt>
<rscale>  0 0.76870709E+02</rscale>
<asrwt>0</asrwt>
<pdfrwt beam="1">  1        2 0.12590610E-02 0.76870709E+02</pdfrwt>
<pdfrwt beam="2">  1       -1 0.27770794E-01 0.76870709E+02</pdfrwt>
<totfact> 0.11357937E+05</totfact>
</mgrwt>
</event>
<event>
 8    1  0.2603554E-020  0.7815149E+02  0.7818608E-02  0.1334381E+00
         -1   -1    0    0    0  501 -0.00000000000E+00  0.00000000000E+00  0.49118509960E+02  0.49118510218E+02  0.50400000000E-02 0.  1.
          2   -1    0    0  501    0  0.00000000000E+00 -0.00000000000E+00 -0.31086322618E+02  0.31086322723E+02  0.25500000000E-02 0. -1.
         24    2    1    2    0    0 -0.71054273576E-14 -0.44408920985E-15  0.18032187342E+02  0.80204832941E+02  0.78151490368E+02 0.  0.
         66    2    3    3    0    0  0.35333845588E+02  0.33391479176E+01  0.25737282973E+02  0.43886652705E+02  0.19999994898E+01 0.  0.
        -13    1    3    3    0    0 -0.35333845588E+02 -0.33391479176E+01 -0.77050956319E+01  0.36318180235E+02  0.10566000000E+00 0.  1.
         13    1    4    4    0    0  0.18682772147E+02  0.19169782854E+01  0.13625434372E+02  0.23203112005E+02  0.10566000000E+00 0. -1.
        -13    1    4    4    0    0  0.11469276091E+02  0.14175050214E+01  0.78065102817E+01  0.13946554462E+02  0.10566000000E+00 0.  1.
        -14    1    4    4    0    0  0.51817973504E+01  0.46646108134E-02  0.43053383193E+01  0.67369862389E+01  0.00000000000E+00 0.  1.
<mgrwt>
<rscale>  0 0.78151490E+02</rscale>
<asrwt>0</asrwt>
<pdfrwt beam="1">  1        2 0.47825112E-02 0.78151490E+02</pdfrwt>
<pdfrwt beam="2">  1       -1 0.75566939E-02 0.78151490E+02</pdfrwt>
<totfact> 0.14464156E+05</totfact>
</mgrwt>
</event>
<event>
 8    1  0.2603554E-020  0.8110436E+02  0.7818608E-02  0.1325946E+00
          2   -1    0    0  501    0  0.00000000000E+00  0.00000000000E+00  0.54566058625E+02  0.54566058684E+02  0.25500000000E-02 0. -1.
         -1   -1    0    0    0  501 -0.00000000000E+00 -0.00000000000E+00 -0.30137402072E+02  0.30137402494E+02  0.50400000000E-02 0.  1.
         24    2    1    2    0    0 -0.35527136788E-14 -0.35527136788E-14  0.24428656552E+02  0.84703461178E+02  0.81104359159E+02 0.  0.
         66    2    3    3    0    0 -0.25065207995E+02 -0.24780623339E+02  0.33112661698E+02  0.48402399839E+02  0.20000001359E+01 0.  0.
        -13    1    3    3    0    0  0.25065207995E+02  0.24780623339E+02 -0.86840051456E+01  0.36301061339E+02  0.10566000000E+00 0.  1.
         13    1    4    4    0    0 -0.13111784002E+02 -0.11905421902E+02  0.15783515597E+02  0.23723163344E+02  0.10566000000E+00 0. -1.
        -13    1    4    4    0    0 -0.69294170362E+01 -0.76770649728E+01  0.10154283633E+02  0.14493956920E+02  0.10566000000E+00 0.  1.
         14    1    4    4    0    0 -0.50240069567E+01 -0.51981364638E+01  0.71748624680E+01  0.10185279576E+02  0.00000000000E+00 0. -1.
<mgrwt>
<rscale>  0 0.81104359E+02</rscale>
<asrwt>0</asrwt>
<pdfrwt beam="1">  1        2 0.83947782E-02 0.81104359E+02</pdfrwt>
<pdfrwt beam="2">  1       -1 0.46365235E-02 0.81104359E+02</pdfrwt>
<totfact> 0.14673678E+05</totfact>
</mgrwt>
</event>
<event>
 8    1  0.2603554E-020  0.8448728E+02  0.7818608E-02  0.1316779E+00
          2   -1    0    0  501    0  0.00000000000E+00  0.00000000000E+00  0.20079340960E+03  0.20079340962E+03  0.25500000000E-02 0. -1.
         -1   -1    0    0    0  501 -0.00000000000E+00 -0.00000000000E+00 -0.88873677289E+01  0.88873691580E+01  0.50400000000E-02 0.  1.
         24    2    1    2    0    0  0.00000000000E+00  0.00000000000E+00  0.19190604187E+03  0.20968077878E+03  0.84487277627E+02 0.  0.
         66    2    3    3    0    0  0.19546163527E+02  0.56344717174E+01  0.18782396733E+03  0.18893290475E+03  0.20000032496E+01 0.  0.
        -13    1    3    3    0    0 -0.19546163527E+02 -0.56344717174E+01  0.40820745461E+01  0.20747874031E+02  0.10566000000E+00 0.  1.
         13    1    4    4    0    0  0.97337440283E+00  0.49065468333E+00  0.10178344124E+02  0.10237092013E+02  0.10566000000E+00 0. -1.
        -13    1    4    4    0    0  0.11110631275E+02  0.23019897240E+01  0.10745769666E+03  0.10805513879E+03  0.10566000000E+00 0.  1.
        -14    1    4    4    0    0  0.74621578496E+01  0.28418273101E+01  0.70187926544E+02  0.70640673940E+02  0.00000000000E+00 0.  1.
<mgrwt>
<rscale>  0 0.84487278E+02</rscale>
<asrwt>0</asrwt>
<pdfrwt beam="1">  1        2 0.30891291E-01 0.84487278E+02</pdfrwt>
<pdfrwt beam="2">  1       -1 0.13672876E-02 0.84487278E+02</pdfrwt>
<totfact> 0.19118850E+05</totfact>
</mgrwt>
</event>
<event>
 8    1  0.2603554E-020  0.8079051E+02  0.7818608E-02  0.1326823E+00
          2   -1    0    0  501    0  0.00000000000E+00  0.00000000000E+00  0.17225257012E+03  0.17225257014E+03  0.25500000000E-02 0. -1.
         -1   -1    0    0    0  501 -0.00000000000E+00 -0.00000000000E+00 -0.94731616537E+01  0.94731629944E+01  0.50400000000E-02 0.  1.
         24    2    1    2    0    0  0.00000000000E+00  0.00000000000E+00  0.16277940846E+03  0.18172573313E+03  0.80790508490E+02 0.  0.
         66    2    3    3    0    0  0.32535281533E+02  0.10612415799E+02  0.12960924436E+03  0.13406611853E+03  0.19999999286E+01 0.  0.
        -13    1    3    3    0    0 -0.32535281533E+02 -0.10612415799E+02  0.33170164104E+02  0.47659614605E+02  0.10566000000E+00 0.  1.
         13    1    4    4    0    0  0.10542972768E+02  0.38497348447E+01  0.39571199549E+02  0.41132295474E+02  0.10566000000E+00 0. -1.
        -13    1    4    4    0    0  0.58105852390E+01  0.16715587342E+01  0.22631093547E+02  0.23425084174E+02  0.10566000000E+00 0.  1.
         14    1    4    4    0    0  0.16181723526E+02  0.50911222204E+01  0.67406951264E+02  0.69508738878E+02  0.00000000000E+00 0. -1.
<mgrwt>
<rscale>  0 0.80790508E+02</rscale>
<asrwt>0</asrwt>
<pdfrwt beam="1">  1        2 0.26500394E-01 0.80790508E+02</pdfrwt>
<pdfrwt beam="2">  1       -1 0.14574097E-02 0.80790508E+02</pdfrwt>
<totfact> 0.20422663E+05</totfact>
</mgrwt>
</event>
<event>
 8    1  0.2603554E-020  0.8022683E+02  0.7818608E-02  0.1328409E+00
         -1   -1    0    0    0  501 -0.00000000000E+00  0.00000000000E+00  0.13434481252E+02  0.13434482198E+02  0.50400000000E-02 0.  1.
          2   -1    0    0  501    0  0.00000000000E+00 -0.00000000000E+00 -0.11977283684E+03  0.11977283687E+03  0.25500000000E-02 0. -1.
         24    2    1    2    0    0  0.00000000000E+00  0.00000000000E+00 -0.10633835559E+03  0.13320731907E+03  0.80226828328E+02 0.  0.
         66    2    3    3    0    0  0.18627369637E+02 -0.17318731245E+02 -0.10465162192E+03  0.10771666223E+03  0.20000001062E+01 0.  0.
        -13    1    3    3    0    0 -0.18627369637E+02  0.17318731245E+02 -0.16867336725E+01  0.25490656838E+02  0.10566000000E+00 0.  1.
         13    1    4    4    0    0  0.90660372945E+01 -0.89354467933E+01 -0.54767805408E+02  0.56227741506E+02  0.10566000000E+00 0.  1.
        -13    1    4    4    0    0  0.58013720820E+01 -0.50397523240E+01 -0.32081070093E+02  0.32988804826E+02  0.10566000000E+00 0. -1.
         14    1    4    4    0    0  0.37599602601E+01 -0.33435321274E+01 -0.17802746418E+02  0.18500115899E+02  0.00000000000E+00 0. -1.
<mgrwt>
<rscale>  0 0.80226828E+02</rscale>
<asrwt>0</asrwt>
<pdfrwt beam="1">  1        2 0.18426590E-01 0.80226828E+02</pdfrwt>
<pdfrwt beam="2">  1       -1 0.20668434E-02 0.80226828E+02</pdfrwt>
<totfact> 0.18535451E+05</totfact>
</mgrwt>
</event>
<event>
 8    1  0.2603554E-020  0.8089675E+02  0.7818608E-02  0.1326526E+00
         -1   -1    0    0    0  501 -0.00000000000E+00  0.00000000000E+00  0.65578737668E+01  0.65578757035E+01  0.50400000000E-02 0.  1.
          2   -1    0    0  501    0  0.00000000000E+00 -0.00000000000E+00 -0.24948190331E+03  0.24948190333E+03  0.25500000000E-02 0. -1.
         24    2    1    2    0    0  0.00000000000E+00  0.00000000000E+00 -0.24292402955E+03  0.25603977903E+03  0.80896750951E+02 0.  0.
         66    2    3    3    0    0  0.32264057991E+02 -0.11888254327E+02 -0.18880786664E+03  0.19192371021E+03  0.20000017857E+01 0.  0.
        -13    1    3    3    0    0 -0.32264057991E+02  0.11888254327E+02 -0.54116162906E+02  0.64116068818E+02  0.10566000000E+00 0.  1.
         13    1    4    4    0    0  0.13260531996E+02 -0.55993222166E+01 -0.82011406089E+02  0.83265094793E+02  0.10566000000E+00 0. -1.
        -13    1    4    4    0    0  0.12398618435E+02 -0.37616889070E+01 -0.69658826836E+02  0.70853647491E+02  0.10566000000E+00 0.  1.
         14    1    4    4    0    0  0.66049075605E+01 -0.25272432031E+01 -0.37137633714E+02  0.37804967927E+02  0.00000000000E+00 0. -1.
<mgrwt>
<rscale>  0 0.80896751E+02</rscale>
<asrwt>0</asrwt>
<pdfrwt beam="1">  1        2 0.38381824E-01 0.80896751E+02</pdfrwt>
<pdfrwt beam="2">  1       -1 0.10089040E-02 0.80896751E+02</pdfrwt>
<totfact> 0.23161424E+05</totfact>
</mgrwt>
</event>
<event>
 8    1  0.2603554E-020  0.7762217E+02  0.7818608E-02  0.1335938E+00
          2   -1    0    0  501    0  0.00000000000E+00  0.00000000000E+00  0.14744126360E+03  0.14744126362E+03  0.25500000000E-02 0. -1.
         -1   -1    0    0    0  501 -0.00000000000E+00 -0.00000000000E+00 -0.10216273514E+02  0.10216274757E+02  0.50400000000E-02 0.  1.
         24    2    1    2    0    0  0.00000000000E+00  0.55511151231E-16  0.13722499009E+03  0.15765753838E+03  0.77622171470E+02 0.  0.
         66    2    3    3    0    0 -0.26085512344E+02 -0.30143266361E+00  0.12695231803E+03  0.12962035287E+03  0.20000025492E+01 0.  0.
        -13    1    3    3    0    0  0.26085512344E+02  0.30143266361E+00  0.10272672058E+02  0.28037185507E+02  0.10566000000E+00 0.  1.
         13    1    4    4    0    0 -0.22054438709E+02  0.12706451436E+00  0.10502673559E+03  0.10731747651E+03  0.10566000000E+00 0. -1.
        -13    1    4    4    0    0 -0.15690752076E+01 -0.22273867668E+00  0.98386685094E+01  0.99660509530E+01  0.10566000000E+00 0.  1.
        -14    1    4    4    0    0 -0.24619984278E+01 -0.20575850130E+00  0.12086913935E+02  0.12336825413E+02  0.00000000000E+00 0.  1.
<mgrwt>
<rscale>  0 0.77622171E+02</rscale>
<asrwt>0</asrwt>
<pdfrwt beam="1">  1        2 0.22683272E-01 0.77622171E+02</pdfrwt>
<pdfrwt beam="2">  1       -1 0.15717344E-02 0.77622171E+02</pdfrwt>
<totfact> 0.21577779E+05</totfact>
</mgrwt>
</event>
<event>
 8    1  0.2603554E-020  0.7979609E+02  0.7818608E-02  0.1329631E+00
          2   -1    0    0  501    0  0.00000000000E+00  0.00000000000E+00  0.51457697277E+03  0.51457697278E+03  0.25500000000E-02 0. -1.
         -1   -1    0    0    0  501 -0.00000000000E+00 -0.00000000000E+00 -0.30935179598E+01  0.30935220654E+01  0.50400000000E-02 0.  1.
         24    2    1    2    0    0  0.00000000000E+00  0.00000000000E+00  0.51148345481E+03  0.51767049484E+03  0.79796094423E+02 0.  0.
         66    2    3    3    0    0  0.89258999683E+01  0.13054296979E+02  0.49335935467E+03  0.49361679389E+03  0.20000008180E+01 0.  0.
        -13    1    3    3    0    0 -0.89258999683E+01 -0.13054296979E+02  0.18124100139E+02  0.24053700957E+02  0.10566000000E+00 0.  1.
         13    1    4    4    0    0  0.51149841410E+00  0.56390811473E+00  0.31519129256E+02  0.31528499743E+02  0.10566000000E+00 0. -1.
        -13    1    4    4    0    0  0.60253644375E+01  0.84676289366E+01  0.29751663676E+03  0.29769811231E+03  0.10566000000E+00 0.  1.
        -14    1    4    4    0    0  0.23890371166E+01  0.40227599276E+01  0.16432358865E+03  0.16439018184E+03  0.00000000000E+00 0.  1.
<mgrwt>
<rscale>  0 0.79796094E+02</rscale>
<asrwt>0</asrwt>
<pdfrwt beam="1">  1        2 0.79165607E-01 0.79796094E+02</pdfrwt>
<pdfrwt beam="2">  1       -1 0.47592664E-03 0.79796094E+02</pdfrwt>
<totfact> 0.30934078E+05</totfact>
</mgrwt>
</event>
<event>
 8    1  0.2603554E-020  0.7883624E+02  0.7818608E-02  0.1332387E+00
         -1   -1    0    0    0  501 -0.00000000000E+00  0.00000000000E+00  0.26000185026E+02  0.26000185514E+02  0.50400000000E-02 0.  1.
          2   -1    0    0  501    0  0.00000000000E+00 -0.00000000000E+00 -0.59760661299E+02  0.59760661353E+02  0.25500000000E-02 0. -1.
         24    2    1    2    0    0 -0.17763568394E-14 -0.35527136788E-14 -0.33760476273E+02  0.85760846867E+02  0.78836242282E+02 0.  0.
         66    2    3    3    0    0  0.10931342805E+02  0.21226530271E+02 -0.50975635275E+02  0.56325617866E+02  0.19999983467E+01 0.  0.
        -13    1    3    3    0    0 -0.10931342805E+02 -0.21226530271E+02  0.17215159002E+02  0.29435229001E+02  0.10566000000E+00 0.  1.
         13    1    4    4    0    0  0.33612954494E+01  0.62126878381E+01 -0.17090088199E+02  0.18492649241E+02  0.10566000000E+00 0. -1.
        -13    1    4    4    0    0  0.97147019727E+00  0.16152908301E+01 -0.35998440358E+01  0.40648443916E+01  0.10566000000E+00 0.  1.
        -14    1    4    4    0    0  0.65985771582E+01  0.13398551603E+02 -0.30285703040E+02  0.33768124233E+02  0.00000000000E+00 0.  1.
<mgrwt>
<rscale>  0 0.78836242E+02</rscale>
<asrwt>0</asrwt>
<pdfrwt beam="1">  1        2 0.91939478E-02 0.78836242E+02</pdfrwt>
<pdfrwt beam="2">  1       -1 0.40000286E-02 0.78836242E+02</pdfrwt>
<totfact> 0.16183842E+05</totfact>
</mgrwt>
</event>
<event>
 8    1  0.2603554E-020  0.7920507E+02  0.7818608E-02  0.1331323E+00
         -1   -1    0    0    0  501 -0.00000000000E+00  0.00000000000E+00  0.34442827663E+01  0.34442864538E+01  0.50400000000E-02 0.  1.
          2   -1    0    0  501    0  0.00000000000E+00 -0.00000000000E+00 -0.45535165800E+03  0.45535165801E+03  0.25500000000E-02 0. -1.
         24    2    1    2    0    0 -0.35527136788E-14  0.00000000000E+00 -0.45190737523E+03  0.45879594446E+03  0.79205068418E+02 0.  0.
         66    2    3    3    0    0  0.30336420151E+02  0.25410431686E+02 -0.22258660060E+03  0.22608578725E+03  0.20000010548E+01 0.  0.
        -13    1    3    3    0    0 -0.30336420151E+02 -0.25410431686E+02 -0.22932077464E+03  0.23271015721E+03  0.10566000000E+00 0.  1.
         13    1    4    4    0    0  0.16293523421E+02  0.14176577989E+02 -0.12032429258E+03  0.12224729371E+03  0.10566000000E+00 0. -1.
        -13    1    4    4    0    0  0.60537227306E+01  0.45723328077E+01 -0.46330928488E+02  0.46948055176E+02  0.10566000000E+00 0.  1.
        -14    1    4    4    0    0  0.79891739990E+01  0.66615208891E+01 -0.55931379524E+02  0.56890438363E+02  0.00000000000E+00 0.  1.
<mgrwt>
<rscale>  0 0.79205068E+02</rscale>
<asrwt>0</asrwt>
<pdfrwt beam="1">  1        2 0.70054054E-01 0.79205068E+02</pdfrwt>
<pdfrwt beam="2">  1       -1 0.52989030E-03 0.79205068E+02</pdfrwt>
<totfact> 0.30314284E+05</totfact>
</mgrwt>
</event>
<event>
 8    1  0.2603554E-020  0.8300768E+02  0.7818608E-02  0.1320726E+00
          2   -1    0    0  501    0  0.00000000000E+00  0.00000000000E+00  0.14762778575E+03  0.14762778577E+03  0.25500000000E-02 0. -1.
         -1   -1    0    0    0  501 -0.00000000000E+00 -0.00000000000E+00 -0.11668322679E+02  0.11668323767E+02  0.50400000000E-02 0.  1.
         24    2    1    2    0    0  0.00000000000E+00  0.00000000000E+00  0.13595946307E+03  0.15929610954E+03  0.83007679859E+02 0.  0.
         66    2    3    3    0    0 -0.27116609830E+02  0.30318945364E+02  0.83611285100E+02  0.93002128834E+02  0.19999987726E+01 0.  0.
        -13    1    3    3    0    0  0.27116609830E+02 -0.30318945364E+02  0.52348177967E+02  0.66293980701E+02  0.10566000000E+00 0.  1.
         13    1    4    4    0    0 -0.10086615083E+02  0.11200398598E+02  0.31435494864E+02  0.34862447332E+02  0.10566000000E+00 0. -1.
        -13    1    4    4    0    0 -0.15827655147E+02  0.17990854705E+02  0.47959198468E+02  0.53612325096E+02  0.10566000000E+00 0.  1.
        -14    1    4    4    0    0 -0.12023395999E+01  0.11276920605E+01  0.42165917675E+01  0.45273564064E+01  0.00000000000E+00 0.  1.
<mgrwt>
<rscale>  0 0.83007680E+02</rscale>
<asrwt>0</asrwt>
<pdfrwt beam="1">  1        2 0.22711967E-01 0.83007680E+02</pdfrwt>
<pdfrwt beam="2">  1       -1 0.17951267E-02 0.83007680E+02</pdfrwt>
<totfact> 0.18064480E+05</totfact>
</mgrwt>
</event>
<event>
 8    1  0.2603554E-020  0.8021484E+02  0.7818608E-02  0.1328443E+00
          2   -1    0    0  501    0  0.00000000000E+00  0.00000000000E+00  0.45756588116E+03  0.45756588117E+03  0.25500000000E-02 0. -1.
         -1   -1    0    0    0  501 -0.00000000000E+00 -0.00000000000E+00 -0.35155688272E+01  0.35155724399E+01  0.50400000000E-02 0.  1.
         24    2    1    2    0    0  0.71054273576E-14  0.00000000000E+00  0.45405031234E+03  0.46108145361E+03  0.80214841089E+02 0.  0.
         66    2    3    3    0    0  0.34497733628E+02  0.17800143011E+02  0.28454934204E+03  0.28719203814E+03  0.19999999879E+01 0.  0.
        -13    1    3    3    0    0 -0.34497733628E+02 -0.17800143011E+02  0.16950097029E+03  0.17388941547E+03  0.10566000000E+00 0.  1.
         13    1    4    4    0    0  0.98530411994E+01  0.52758570718E+01  0.78908948093E+02  0.79696614369E+02  0.10566000000E+00 0. -1.
        -13    1    4    4    0    0  0.48792625640E+01  0.28345871065E+01  0.45771149085E+02  0.46117798515E+02  0.10566000000E+00 0.  1.
        -14    1    4    4    0    0  0.19765429864E+02  0.96896988326E+01  0.15986924487E+03  0.16137762526E+03  0.00000000000E+00 0.  1.
<mgrwt>
<rscale>  0 0.80214841E+02</rscale>
<asrwt>0</asrwt>
<pdfrwt beam="1">  1        2 0.70394753E-01 0.80214841E+02</pdfrwt>
<pdfrwt beam="2">  1       -1 0.54085701E-03 0.80214841E+02</pdfrwt>
<totfact> 0.29376745E+05</totfact>
</mgrwt>
</event>
<event>
 8    1  0.2603554E-020  0.7911058E+02  0.7818608E-02  0.1331595E+00
         -1   -1    0    0    0  501 -0.00000000000E+00  0.00000000000E+00  0.41312245479E+01  0.41312276223E+01  0.50400000000E-02 0.  1.
          2   -1    0    0  501    0  0.00000000000E+00 -0.00000000000E+00 -0.37873038617E+03  0.37873038618E+03  0.25500000000E-02 0. -1.
         24    2    1    2    0    0  0.35527136788E-14  0.35527136788E-14 -0.37459916162E+03  0.38286161380E+03  0.79110577259E+02 0.  0.
         66    2    3    3    0    0  0.18045949906E+02  0.31014336856E+02 -0.26768452543E+03  0.27008619097E+03  0.19999998508E+01 0.  0.
        -13    1    3    3    0    0 -0.18045949906E+02 -0.31014336856E+02 -0.10691463620E+03  0.11277542284E+03  0.10566000000E+00 0.  1.
         13    1    4    4    0    0  0.70923375284E+01  0.12831974160E+02 -0.10603969028E+03  0.10704853054E+03  0.10566000000E+00 0. -1.
        -13    1    4    4    0    0  0.57042208809E+01  0.10682407225E+02 -0.91440338125E+02  0.92238812657E+02  0.10566000000E+00 0.  1.
         14    1    4    4    0    0  0.52493914963E+01  0.74999554714E+01 -0.70204497027E+02  0.70798847773E+02  0.00000000000E+00 0. -1.
<mgrwt>
<rscale>  0 0.79110577E+02</rscale>
<asrwt>0</asrwt>
<pdfrwt beam="1">  1        2 0.58266186E-01 0.79110577E+02</pdfrwt>
<pdfrwt beam="2">  1       -1 0.63557355E-03 0.79110577E+02</pdfrwt>
<totfact> 0.28536865E+05</totfact>
</mgrwt>
</event>
<event>
 8    1  0.2603554E-020  0.8087281E+02  0.7818608E-02  0.1326593E+00
         -1   -1    0    0    0  501 -0.00000000000E+00  0.00000000000E+00  0.42574684264E+02  0.42574684563E+02  0.50400000000E-02 0.  1.
          2   -1    0    0  501    0  0.00000000000E+00 -0.00000000000E+00 -0.38405518138E+02  0.38405518222E+02  0.25500000000E-02 0. -1.
         24    2    1    2    0    0  0.00000000000E+00  0.00000000000E+00  0.41691661266E+01  0.80980202785E+02  0.80872809380E+02 0.  0.
         66    2    3    3    0    0 -0.30273243529E+02  0.59680720924E+01 -0.24044981093E+02  0.39169481366E+02  0.19999991203E+01 0.  0.
        -13    1    3    3    0    0  0.30273243529E+02 -0.59680720924E+01  0.28214147219E+02  0.41810721419E+02  0.10566000000E+00 0.  1.
         13    1    4    4    0    0 -0.17518316356E+02  0.27730632463E+01 -0.14288309647E+02  0.22776045405E+02  0.10566000000E+00 0. -1.
        -13    1    4    4    0    0 -0.90447520321E+00  0.28550460538E+00 -0.93649573557E+00  0.13370776235E+01  0.10566000000E+00 0. -1.
         14    1    4    4    0    0 -0.11850451970E+02  0.29095042407E+01 -0.88201757101E+01  0.15056358337E+02  0.00000000000E+00 0. -1.
<mgrwt>
<rscale>  0 0.80872809E+02</rscale>
<asrwt>0</asrwt>
<pdfrwt beam="1">  1        2 0.59085413E-02 0.80872809E+02</pdfrwt>
<pdfrwt beam="2">  1       -1 0.65499514E-02 0.80872809E+02</pdfrwt>
<totfact> 0.13718110E+05</totfact>
</mgrwt>
</event>
<event>
 8    1  0.2603554E-020  0.7870077E+02  0.7818608E-02  0.1332779E+00
          2   -1    0    0  501    0  0.00000000000E+00  0.00000000000E+00  0.52915607566E+02  0.52915607628E+02  0.25500000000E-02 0. -1.
         -1   -1    0    0    0  501 -0.00000000000E+00 -0.00000000000E+00 -0.29262683164E+02  0.29262683598E+02  0.50400000000E-02 0.  1.
         24    2    1    2    0    0  0.00000000000E+00 -0.35527136788E-14  0.23652924402E+02  0.82178291226E+02  0.78700766934E+02 0.  0.
         66    2    3    3    0    0  0.27408801317E+02 -0.21132748342E+02 -0.76621000186E+01  0.35504129631E+02  0.20000005035E+01 0.  0.
        -13    1    3    3    0    0 -0.27408801317E+02  0.21132748342E+02  0.31315024421E+02  0.46674161595E+02  0.10566000000E+00 0.  1.
         13    1    4    4    0    0  0.30192516996E+01 -0.19027263885E+01 -0.75379661381E+00  0.36490576737E+01  0.10566000000E+00 0. -1.
        -13    1    4    4    0    0  0.18899488408E+01 -0.20316265288E+01 -0.57934747980E+00  0.28365860663E+01  0.10566000000E+00 0.  1.
         14    1    4    4    0    0  0.22499600777E+02 -0.17198395424E+02 -0.63289559249E+01  0.29018485891E+02  0.00000000000E+00 0. -1.
<mgrwt>
<rscale>  0 0.78700767E+02</rscale>
<asrwt>0</asrwt>
<pdfrwt beam="1">  1        2 0.81408627E-02 0.78700767E+02</pdfrwt>
<pdfrwt beam="2">  1       -1 0.45019513E-02 0.78700767E+02</pdfrwt>
<totfact> 0.15821854E+05</totfact>
</mgrwt>
</event>
<event>
 8    1  0.2603554E-020  0.8635717E+02  0.7818608E-02  0.1311921E+00
         -1   -1    0    0    0  501 -0.00000000000E+00  0.00000000000E+00  0.10630802231E+01  0.10630921702E+01  0.50400000000E-02 0.  1.
          2   -1    0    0  501    0  0.00000000000E+00 -0.00000000000E+00 -0.17537524885E+04  0.17537524885E+04  0.25500000000E-02 0. -1.
         24    2    1    2    0    0  0.88817841970E-15 -0.35527136788E-14 -0.17526894083E+04  0.17548155807E+04  0.86357166947E+02 0.  0.
         66    2    3    3    0    0  0.51522732455E+01 -0.19105431137E+02 -0.16561285437E+04  0.16562479635E+04  0.19999994867E+01 0.  0.
        -13    1    3    3    0    0 -0.51522732455E+01  0.19105431137E+02 -0.96560864579E+02  0.98567617151E+02  0.10566000000E+00 0.  1.
         13    1    4    4    0    0  0.29445768398E+01 -0.10934265272E+02 -0.88264516658E+03  0.88271780878E+03  0.10566000000E+00 0. -1.
        -13    1    4    4    0    0  0.36111880046E-01 -0.62842369775E+00 -0.73517751541E+02  0.73520522142E+02  0.10566000000E+00 0.  1.
        -14    1    4    4    0    0  0.21715845256E+01 -0.75427421681E+01 -0.69996562558E+03  0.70000963260E+03  0.00000000000E+00 0.  1.
<mgrwt>
<rscale>  0 0.86357167E+02</rscale>
<asrwt>0</asrwt>
<pdfrwt beam="1">  1        2 0.26980576E+00 0.86357167E+02</pdfrwt>
<pdfrwt beam="2">  1       -1 0.16355313E-03 0.86357167E+02</pdfrwt>
<totfact> 0.25176104E+05</totfact>
</mgrwt>
</event>
<event>
 8    1  0.2603554E-020  0.8132908E+02  0.7818608E-02  0.1325321E+00
          2   -1    0    0  501    0  0.00000000000E+00  0.00000000000E+00  0.40343553256E+03  0.40343553257E+03  0.25500000000E-02 0. -1.
         -1   -1    0    0    0  501 -0.00000000000E+00 -0.00000000000E+00 -0.40988059895E+01  0.40988090881E+01  0.50400000000E-02 0.  1.
         24    2    1    2    0    0  0.00000000000E+00  0.00000000000E+00  0.39933672657E+03  0.40753434166E+03  0.81329075005E+02 0.  0.
         66    2    3    3    0    0 -0.40490695825E+02  0.11295857547E+01  0.21627710925E+03  0.22004672322E+03  0.19999995884E+01 0.  0.
        -13    1    3    3    0    0  0.40490695825E+02 -0.11295857547E+01  0.18305961732E+03  0.18748761844E+03  0.10566000000E+00 0.  1.
         13    1    4    4    0    0 -0.25144990209E+01 -0.13590780450E+00  0.12301184158E+02  0.12556730147E+02  0.10566000000E+00 0. -1.
        -13    1    4    4    0    0 -0.11385660486E+02  0.23522645693E+00  0.64716152472E+02  0.65710578684E+02  0.10566000000E+00 0.  1.
        -14    1    4    4    0    0 -0.26590536318E+02  0.10302671023E+01  0.13925977262E+03  0.14177941438E+03  0.00000000000E+00 0.  1.
<mgrwt>
<rscale>  0 0.81329075E+02</rscale>
<asrwt>0</asrwt>
<pdfrwt beam="1">  1        2 0.62067013E-01 0.81329075E+02</pdfrwt>
<pdfrwt beam="2">  1       -1 0.63058569E-03 0.81329075E+02</pdfrwt>
<totfact> 0.27143438E+05</totfact>
</mgrwt>
</event>
<event>
 8    1  0.2603554E-020  0.8244219E+02  0.7818608E-02  0.1322260E+00
          2   -1    0    0  501    0  0.00000000000E+00  0.00000000000E+00  0.12970963016E+03  0.12970963019E+03  0.25500000000E-02 0. -1.
         -1   -1    0    0    0  501 -0.00000000000E+00 -0.00000000000E+00 -0.13099865644E+02  0.13099866613E+02  0.50400000000E-02 0.  1.
         24    2    1    2    0    0  0.00000000000E+00  0.00000000000E+00  0.11660976452E+03  0.14280949680E+03  0.82442193052E+02 0.  0.
         66    2    3    3    0    0 -0.11510296574E+02 -0.58501902556E+01  0.12610619202E+03  0.12678124198E+03  0.19999998640E+01 0.  0.
        -13    1    3    3    0    0  0.11510296574E+02  0.58501902556E+01 -0.94964275006E+01  0.16028254819E+02  0.10566000000E+00 0.  1.
         13    1    4    4    0    0 -0.28490619454E+01 -0.84713938845E+00  0.26270815050E+02  0.26438640029E+02  0.10566000000E+00 0. -1.
        -13    1    4    4    0    0 -0.24883151597E+00 -0.34200120485E+00  0.31379111163E+01  0.31680486355E+01  0.10566000000E+00 0.  1.
        -14    1    4    4    0    0 -0.84124031122E+01 -0.46610496623E+01  0.96697465852E+02  0.97174553317E+02  0.00000000000E+00 0.  1.
<mgrwt>
<rscale>  0 0.82442193E+02</rscale>
<asrwt>0</asrwt>
<pdfrwt beam="1">  1        2 0.19955328E-01 0.82442193E+02</pdfrwt>
<pdfrwt beam="2">  1       -1 0.20153640E-02 0.82442193E+02</pdfrwt>
<totfact> 0.17659201E+05</totfact>
</mgrwt>
</event>
<event>
 8    1  0.2603554E-020  0.8049802E+02  0.7818608E-02  0.1327644E+00
         -1   -1    0    0    0  501 -0.00000000000E+00  0.00000000000E+00  0.23732773601E+02  0.23732774136E+02  0.50400000000E-02 0.  1.
          2   -1    0    0  501    0  0.00000000000E+00 -0.00000000000E+00 -0.68259313804E+02  0.68259313852E+02  0.25500000000E-02 0. -1.
         24    2    1    2    0    0 -0.35527136788E-14  0.00000000000E+00 -0.44526540203E+02  0.91992087988E+02  0.80498021528E+02 0.  0.
         66    2    3    3    0    0  0.23344623153E+02 -0.49165141484E+01 -0.59286943752E+02  0.63938136065E+02  0.20000006348E+01 0.  0.
        -13    1    3    3    0    0 -0.23344623153E+02  0.49165141484E+01  0.14760403549E+02  0.28053951923E+02  0.10566000000E+00 0.  1.
         13    1    4    4    0    0  0.11032673793E+02 -0.14648187243E+01 -0.27275106326E+02  0.29458584047E+02  0.10566000000E+00 0. -1.
        -13    1    4    4    0    0  0.10436396556E+01 -0.47788538220E+00 -0.26867988689E+01  0.29236296562E+01  0.10566000000E+00 0.  1.
        -14    1    4    4    0    0  0.11268309704E+02 -0.29738100418E+01 -0.29325038557E+02  0.31555922362E+02  0.00000000000E+00 0.  1.
<mgrwt>
<rscale>  0 0.80498022E+02</rscale>
<asrwt>0</asrwt>
<pdfrwt beam="1">  1        2 0.10501433E-01 0.80498022E+02</pdfrwt>
<pdfrwt beam="2">  1       -1 0.36511960E-02 0.80498022E+02</pdfrwt>
<totfact> 0.15780322E+05</totfact>
</mgrwt>
</event>
<event>
 8    1  0.2603554E-020  0.7832072E+02  0.7818608E-02  0.1333886E+00
          2   -1    0    0  501    0  0.00000000000E+00  0.00000000000E+00  0.48613057877E+03  0.48613057878E+03  0.25500000000E-02 0. -1.
         -1   -1    0    0    0  501 -0.00000000000E+00 -0.00000000000E+00 -0.31545693487E+01  0.31545733748E+01  0.50400000000E-02 0.  1.
         24    2    1    2    0    0  0.00000000000E+00  0.00000000000E+00  0.48297600942E+03  0.48928515215E+03  0.78320715264E+02 0.  0.
         66    2    3    3    0    0 -0.77667101570E+01  0.28320575455E+02  0.40324741502E+03  0.40432023757E+03  0.20000018074E+01 0.  0.
        -13    1    3    3    0    0  0.77667101570E+01 -0.28320575455E+02  0.79728594408E+02  0.84964914589E+02  0.10566000000E+00 0.  1.
         13    1    4    4    0    0 -0.46310191638E+01  0.14076747377E+02  0.20102301167E+03  0.20156850831E+03  0.10566000000E+00 0. -1.
        -13    1    4    4    0    0 -0.19172493417E+01  0.85125047221E+01  0.12703022230E+03  0.12732960034E+03  0.10566000000E+00 0.  1.
         14    1    4    4    0    0 -0.12184416514E+01  0.57313233554E+01  0.75194181044E+02  0.75422128917E+02  0.00000000000E+00 0. -1.
<mgrwt>
<rscale>  0 0.78320715E+02</rscale>
<asrwt>0</asrwt>
<pdfrwt beam="1">  1        2 0.74789352E-01 0.78320715E+02</pdfrwt>
<pdfrwt beam="2">  1       -1 0.48531846E-03 0.78320715E+02</pdfrwt>
<totfact> 0.31891589E+05</totfact>
</mgrwt>
</event>
<event>
 8    1  0.2603554E-020  0.7977048E+02  0.7818608E-02  0.1329704E+00
          2   -1    0    0  501    0  0.00000000000E+00  0.00000000000E+00  0.18109252829E+02  0.18109253008E+02  0.25500000000E-02 0. -1.
         -1   -1    0    0    0  501 -0.00000000000E+00 -0.00000000000E+00 -0.87846380564E+02  0.87846380709E+02  0.50400000000E-02 0.  1.
         24    2    1    2    0    0  0.00000000000E+00  0.00000000000E+00 -0.69737127736E+02  0.10595563372E+03  0.79770479073E+02 0.  0.
         66    2    3    3    0    0 -0.33287901723E+02 -0.25538339232E+01 -0.59654978303E+01  0.33973424709E+02  0.19999883174E+01 0.  0.
        -13    1    3    3    0    0  0.33287901723E+02  0.25538339232E+01 -0.63771629905E+02  0.71982209008E+02  0.10566000000E+00 0.  1.
         13    1    4    4    0    0 -0.10569793188E+02 -0.94556067066E+00 -0.23351960522E+01  0.10866412364E+02  0.10566000000E+00 0. -1.
        -13    1    4    4    0    0 -0.12890179003E+02 -0.15257540040E+01 -0.24240080585E+01  0.13204984631E+02  0.10566000000E+00 0.  1.
         14    1    4    4    0    0 -0.98279295317E+01 -0.82519248484E-01 -0.12062937196E+01  0.99020277138E+01  0.00000000000E+00 0. -1.
<mgrwt>
<rscale>  0 0.79770479E+02</rscale>
<asrwt>0</asrwt>
<pdfrwt beam="1">  1        2 0.27860390E-02 0.79770479E+02</pdfrwt>
<pdfrwt beam="2">  1       -1 0.13514828E-01 0.79770479E+02</pdfrwt>
<totfact> 0.12267551E+05</totfact>
</mgrwt>
</event>
<event>
 8    1  0.2603554E-020  0.7975733E+02  0.7818608E-02  0.1329742E+00
         -1   -1    0    0    0  501 -0.00000000000E+00  0.00000000000E+00  0.16336224774E+02  0.16336225552E+02  0.50400000000E-02 0.  1.
          2   -1    0    0  501    0  0.00000000000E+00 -0.00000000000E+00 -0.97348553857E+02  0.97348553891E+02  0.25500000000E-02 0. -1.
         24    2    1    2    0    0 -0.71054273576E-14  0.00000000000E+00 -0.81012329083E+02  0.11368477944E+03  0.79757329527E+02 0.  0.
         66    2    3    3    0    0 -0.38830526174E+02 -0.73082480915E+01 -0.47949407082E+02  0.62164024126E+02  0.20000007204E+01 0.  0.
        -13    1    3    3    0    0  0.38830526174E+02  0.73082480915E+01 -0.33062922001E+02  0.51520755317E+02  0.10566000000E+00 0.  1.
         13    1    4    4    0    0 -0.16299400987E+02 -0.37513819205E+01 -0.20783350253E+02  0.26677746356E+02  0.10566000000E+00 0. -1.
        -13    1    4    4    0    0 -0.17242455588E+02 -0.31197350710E+01 -0.20644363258E+02  0.27078329342E+02  0.10566000000E+00 0. -1.
         14    1    4    4    0    0 -0.52886695987E+01 -0.43713109997E+00 -0.65216935712E+01  0.84079484275E+01  0.00000000000E+00 0. -1.
<mgrwt>
<rscale>  0 0.79757330E+02</rscale>
<asrwt>0</asrwt>
<pdfrwt beam="1">  1        2 0.14976700E-01 0.79757330E+02</pdfrwt>
<pdfrwt beam="2">  1       -1 0.25132655E-02 0.79757330E+02</pdfrwt>
<totfact> 0.17737535E+05</totfact>
</mgrwt>
</event>
<event>
 8    1  0.2603554E-020  0.7799759E+02  0.7818608E-02  0.1334832E+00
          2   -1    0    0  501    0  0.00000000000E+00  0.00000000000E+00  0.28966556685E+03  0.28966556686E+03  0.25500000000E-02 0. -1.
         -1   -1    0    0    0  501 -0.00000000000E+00 -0.00000000000E+00 -0.52505571228E+01  0.52505595417E+01  0.50400000000E-02 0.  1.
         24    2    1    2    0    0 -0.22204460493E-15 -0.71054273576E-14  0.28441500973E+03  0.29491612641E+03  0.77997588773E+02 0.  0.
         66    2    3    3    0    0 -0.17240869390E+01 -0.36263526859E+02  0.19589167575E+03  0.19923745753E+03  0.19999991166E+01 0.  0.
        -13    1    3    3    0    0  0.17240869390E+01  0.36263526859E+02  0.88523333978E+02  0.95678668880E+02  0.10566000000E+00 0.  1.
         13    1    4    4    0    0 -0.47348809784E+00 -0.13666585518E+02  0.76428229430E+02  0.77642032228E+02  0.10566000000E+00 0. -1.
        -13    1    4    4    0    0  0.30742752936E-01 -0.85004988860E+00  0.58286069618E+01  0.58912946863E+01  0.10566000000E+00 0.  1.
        -14    1    4    4    0    0 -0.12813415941E+01 -0.21746891452E+02  0.11363483936E+03  0.11570413061E+03  0.00000000000E+00 0.  1.
<mgrwt>
<rscale>  0 0.77997589E+02</rscale>
<asrwt>0</asrwt>
<pdfrwt beam="1">  1        2 0.44563950E-01 0.77997589E+02</pdfrwt>
<pdfrwt beam="2">  1       -1 0.80777792E-03 0.77997589E+02</pdfrwt>
<totfact> 0.26901241E+05</totfact>
</mgrwt>
</event>
<event>
 8    1  0.2603554E-020  0.7982648E+02  0.7818608E-02  0.1329545E+00
          2   -1    0    0  501    0  0.00000000000E+00  0.00000000000E+00  0.73635945954E+03  0.73635945955E+03  0.25500000000E-02 0. -1.
         -1   -1    0    0    0  501 -0.00000000000E+00 -0.00000000000E+00 -0.21634332719E+01  0.21634391426E+01  0.50400000000E-02 0.  1.
         24    2    1    2    0    0  0.44408920985E-15  0.00000000000E+00  0.73419602627E+03  0.73852289869E+03  0.79826479925E+02 0.  0.
         66    2    3    3    0    0  0.27431100177E+01  0.16909920445E+02  0.70058997418E+03  0.70080224171E+03  0.19999994445E+01 0.  0.
        -13    1    3    3    0    0 -0.27431100177E+01 -0.16909920445E+02  0.33606052086E+02  0.37720656979E+02  0.10566000000E+00 0.  1.
         13    1    4    4    0    0  0.13328082036E+01  0.52134920340E+01  0.19296621340E+03  0.19304125868E+03  0.10566000000E+00 0. -1.
        -13    1    4    4    0    0  0.11957452723E+01  0.69673005131E+01  0.30372701303E+03  0.30380928671E+03  0.10566000000E+00 0.  1.
         14    1    4    4    0    0  0.21455654178E+00  0.47291278977E+01  0.20389674776E+03  0.20395169632E+03  0.00000000000E+00 0. -1.
<mgrwt>
<rscale>  0 0.79826480E+02</rscale>
<asrwt>0</asrwt>
<pdfrwt beam="1">  1        2 0.11328614E+00 0.79826480E+02</pdfrwt>
<pdfrwt beam="2">  1       -1 0.33283613E-03 0.79826480E+02</pdfrwt>
<totfact> 0.34016404E+05</totfact>
</mgrwt>
</event>
<event>
 8    1  0.2603554E-020  0.7845447E+02  0.7818608E-02  0.1333496E+00
          2   -1    0    0  501    0  0.00000000000E+00  0.00000000000E+00  0.13421485400E+04  0.13421485400E+04  0.25500000000E-02 0. -1.
         -1   -1    0    0    0  501 -0.00000000000E+00 -0.00000000000E+00 -0.11464964185E+01  0.11465074964E+01  0.50400000000E-02 0.  1.
         24    2    1    2    0    0  0.00000000000E+00  0.00000000000E+00  0.13410020436E+04  0.13432950475E+04  0.78454469248E+02 0.  0.
         66    2    3    3    0    0  0.13439900020E+02 -0.17089905528E+02  0.12294570338E+04  0.12296508829E+04  0.19999978686E+01 0.  0.
        -13    1    3    3    0    0 -0.13439900020E+02  0.17089905528E+02  0.11154500974E+03  0.11364416459E+03  0.10566000000E+00 0.  1.
         13    1    4    4    0    0  0.49664614069E+01 -0.57845549336E+01  0.45851982932E+03  0.45858322239E+03  0.10566000000E+00 0. -1.
        -13    1    4    4    0    0  0.66885810759E+01 -0.81090910815E+01  0.58434453933E+03  0.58443908688E+03  0.10566000000E+00 0. -1.
         14    1    4    4    0    0  0.17848575373E+01 -0.31962595129E+01  0.18659266520E+03  0.18662857363E+03  0.00000000000E+00 0. -1.
<mgrwt>
<rscale>  0 0.78454469E+02</rscale>
<asrwt>0</asrwt>
<pdfrwt beam="1">  1        2 0.20648423E+00 0.78454469E+02</pdfrwt>
<pdfrwt beam="2">  1       -1 0.17638505E-03 0.78454469E+02</pdfrwt>
<totfact> 0.36168814E+05</totfact>
</mgrwt>
</event>
<event>
 8    1  0.2603554E-020  0.7928117E+02  0.7818608E-02  0.1331104E+00
          2   -1    0    0  501    0  0.00000000000E+00  0.00000000000E+00  0.48040898499E+03  0.48040898499E+03  0.25500000000E-02 0. -1.
         -1   -1    0    0    0  501 -0.00000000000E+00 -0.00000000000E+00 -0.32709110403E+01  0.32709149233E+01  0.50400000000E-02 0.  1.
         24    2    1    2    0    0 -0.17763568394E-14  0.22204460493E-15  0.47713807395E+03  0.48367989992E+03  0.79281170363E+02 0.  0.
         66    2    3    3    0    0 -0.11104091477E+02  0.17560888616E+01  0.47047009117E+03  0.47060863931E+03  0.20000019172E+01 0.  0.
        -13    1    3    3    0    0  0.11104091477E+02 -0.17560888616E+01  0.66679827759E+01  0.13071260611E+02  0.10566000000E+00 0.  1.
         13    1    4    4    0    0 -0.27575676142E+01  0.17988086473E+00  0.13805461290E+03  0.13808230822E+03  0.10566000000E+00 0. -1.
        -13    1    4    4    0    0 -0.51562122818E+01  0.10682050658E+01  0.18212641800E+03  0.18220255455E+03  0.10566000000E+00 0.  1.
        -14    1    4    4    0    0 -0.31903115812E+01  0.50800293107E+00  0.15028906027E+03  0.15032377653E+03  0.00000000000E+00 0.  1.
<mgrwt>
<rscale>  0 0.79281170E+02</rscale>
<asrwt>0</asrwt>
<pdfrwt beam="1">  1        2 0.73909059E-01 0.79281170E+02</pdfrwt>
<pdfrwt beam="2">  1       -1 0.50321749E-03 0.79281170E+02</pdfrwt>
<totfact> 0.30777208E+05</totfact>
</mgrwt>
</event>
<event>
 8    1  0.2603554E-020  0.8252096E+02  0.7818608E-02  0.1322046E+00
          2   -1    0    0  501    0  0.00000000000E+00  0.00000000000E+00  0.78292647898E+03  0.78292647898E+03  0.25500000000E-02 0. -1.
         -1   -1    0    0    0  501 -0.00000000000E+00 -0.00000000000E+00 -0.21744378886E+01  0.21744437295E+01  0.50400000000E-02 0.  1.
         24    2    1    2    0    0  0.00000000000E+00  0.00000000000E+00  0.78075204109E+03  0.78510092271E+03  0.82520962048E+02 0.  0.
         66    2    3    3    0    0  0.11809426772E+02  0.86097864263E+01  0.75745766911E+03  0.75760128793E+03  0.20000003711E+01 0.  0.
        -13    1    3    3    0    0 -0.11809426772E+02 -0.86097864263E+01  0.23294371979E+02  0.27499634778E+02  0.10566000000E+00 0.  1.
         13    1    4    4    0    0  0.44641529395E+01  0.31233292969E+01  0.27141165012E+03  0.27146634936E+03  0.10566000000E+00 0. -1.
        -13    1    4    4    0    0  0.11580724756E+01  0.32986208436E+00  0.50589868652E+02  0.50604307278E+02  0.10566000000E+00 0. -1.
        -14    1    4    4    0    0  0.61872013570E+01  0.51565950451E+01  0.43545615034E+03  0.43553063130E+03  0.00000000000E+00 0.  1.
<mgrwt>
<rscale>  0 0.82520962E+02</rscale>
<asrwt>0</asrwt>
<pdfrwt beam="1">  1        2 0.12045006E+00 0.82520962E+02</pdfrwt>
<pdfrwt beam="2">  1       -1 0.33452982E-03 0.82520962E+02</pdfrwt>
<totfact> 0.31579157E+05</totfact>
</mgrwt>
</event>
<event>
 8    1  0.2603554E-020  0.8019456E+02  0.7818608E-02  0.1328500E+00
         -1   -1    0    0    0  501 -0.00000000000E+00  0.00000000000E+00  0.17110338798E+02  0.17110339540E+02  0.50400000000E-02 0.  1.
          2   -1    0    0  501    0  0.00000000000E+00 -0.00000000000E+00 -0.93966099994E+02  0.93966100029E+02  0.25500000000E-02 0. -1.
         24    2    1    2    0    0 -0.35527136788E-14 -0.17763568394E-14 -0.76855761196E+02  0.11107643957E+03  0.80194559655E+02 0.  0.
         66    2    3    3    0    0 -0.17063330319E+02 -0.97405876980E+01 -0.86825777601E+02  0.89043539592E+02  0.19999991834E+01 0.  0.
        -13    1    3    3    0    0  0.17063330319E+02  0.97405876980E+01  0.99700164048E+01  0.22032899978E+02  0.10566000000E+00 0.  1.
         13    1    4    4    0    0 -0.38956163299E+01 -0.29758348317E+01 -0.21972083153E+02  0.22512552536E+02  0.10566000000E+00 0. -1.
        -13    1    4    4    0    0 -0.15544573461E+01 -0.67538664341E+00 -0.89850120864E+01  0.91440740913E+01  0.10566000000E+00 0.  1.
         14    1    4    4    0    0 -0.11613256643E+02 -0.60893662228E+01 -0.55868682361E+02  0.57386912965E+02  0.00000000000E+00 0. -1.
<mgrwt>
<rscale>  0 0.80194560E+02</rscale>
<asrwt>0</asrwt>
<pdfrwt beam="1">  1        2 0.14456323E-01 0.80194560E+02</pdfrwt>
<pdfrwt beam="2">  1       -1 0.26323599E-02 0.80194560E+02</pdfrwt>
<totfact> 0.17310066E+05</totfact>
</mgrwt>
</event>
<event>
 8    1  0.2603554E-020  0.8113982E+02  0.7818608E-02  0.1325848E+00
          2   -1    0    0  501    0  0.00000000000E+00  0.00000000000E+00  0.25887412665E+02  0.25887412790E+02  0.25500000000E-02 0. -1.
         -1   -1    0    0    0  501 -0.00000000000E+00 -0.00000000000E+00 -0.63579847814E+02  0.63579848014E+02  0.50400000000E-02 0.  1.
         24    2    1    2    0    0 -0.22204460493E-15  0.00000000000E+00 -0.37692435150E+02  0.89467260804E+02  0.81139824305E+02 0.  0.
         66    2    3    3    0    0  0.16588424162E+01 -0.30943787891E+02  0.99723726138E+01  0.32614689795E+02  0.20000019206E+01 0.  0.
        -13    1    3    3    0    0 -0.16588424162E+01  0.30943787891E+02 -0.47664807763E+02  0.56852571009E+02  0.10566000000E+00 0.  1.
         13    1    4    4    0    0  0.62632533618E+00 -0.33381185696E+01  0.70728016814E+00  0.34708397087E+01  0.10566000000E+00 0. -1.
        -13    1    4    4    0    0  0.10107079246E+01 -0.27179731530E+02  0.90405540381E+01  0.28661858242E+02  0.10566000000E+00 0.  1.
        -14    1    4    4    0    0  0.21809155389E-01 -0.42593779142E+00  0.22453840750E+00  0.48199184418E+00  0.00000000000E+00 0.  1.
<mgrwt>
<rscale>  0 0.81139824E+02</rscale>
<asrwt>0</asrwt>
<pdfrwt beam="1">  1        2 0.39826789E-02 0.81139824E+02</pdfrwt>
<pdfrwt beam="2">  1       -1 0.97815151E-02 0.81139824E+02</pdfrwt>
<totfact> 0.12557115E+05</totfact>
</mgrwt>
</event>
<event>
 8    1  0.2603554E-020  0.8082877E+02  0.7818608E-02  0.1326716E+00
         -1   -1    0    0    0  501 -0.00000000000E+00  0.00000000000E+00  0.36161666141E+01  0.36161701263E+01  0.50400000000E-02 0.  1.
          2   -1    0    0  501    0  0.00000000000E+00 -0.00000000000E+00 -0.45167209034E+03  0.45167209035E+03  0.25500000000E-02 0. -1.
         24    2    1    2    0    0  0.00000000000E+00  0.00000000000E+00 -0.44805592373E+03  0.45528826048E+03  0.80828765543E+02 0.  0.
         66    2    3    3    0    0  0.34345906610E+02  0.78756421519E+01 -0.33535276759E+03  0.33720490175E+03  0.19999986200E+01 0.  0.
        -13    1    3    3    0    0 -0.34345906610E+02 -0.78756421519E+01 -0.11270315614E+03  0.11808335873E+03  0.10566000000E+00 0.  1.
         13    1    4    4    0    0  0.83487371849E+01  0.27020745328E+01 -0.85180363778E+02  0.85631233535E+02  0.10566000000E+00 0. -1.
        -13    1    4    4    0    0  0.12279277948E+02  0.24278003236E+01 -0.12126804443E+03  0.12191236461E+03  0.10566000000E+00 0.  1.
         14    1    4    4    0    0  0.13717891477E+02  0.27457672956E+01 -0.12890435939E+03  0.12966130361E+03  0.00000000000E+00 0. -1.
<mgrwt>
<rscale>  0 0.80828766E+02</rscale>
<asrwt>0</asrwt>
<pdfrwt beam="1">  1        2 0.69487969E-01 0.80828766E+02</pdfrwt>
<pdfrwt beam="2">  1       -1 0.55633395E-03 0.80828766E+02</pdfrwt>
<totfact> 0.28673306E+05</totfact>
</mgrwt>
</event>
<event>
 8    1  0.2603554E-020  0.8042882E+02  0.7818608E-02  0.1327839E+00
         -1   -1    0    0    0  501 -0.00000000000E+00  0.00000000000E+00  0.47261316814E+01  0.47261343687E+01  0.50400000000E-02 0.  1.
          2   -1    0    0  501    0  0.00000000000E+00 -0.00000000000E+00 -0.34218225246E+03  0.34218225247E+03  0.25500000000E-02 0. -1.
         24    2    1    2    0    0 -0.35527136788E-14  0.17763568394E-14 -0.33745612078E+03  0.34690838684E+03  0.80428821997E+02 0.  0.
         66    2    3    3    0    0 -0.19905071422E+02  0.94136248651E+01 -0.31384698483E+03  0.31462478937E+03  0.19999992730E+01 0.  0.
        -13    1    3    3    0    0  0.19905071422E+02 -0.94136248651E+01 -0.23609135955E+02  0.32283597475E+02  0.10566000000E+00 0.  1.
         13    1    4    4    0    0 -0.11513958414E+02  0.57984928700E+01 -0.18508398026E+03  0.18553243563E+03  0.10566000000E+00 0. -1.
        -13    1    4    4    0    0 -0.36235655079E+01  0.14450445021E+01 -0.63242735667E+02  0.63363026753E+02  0.10566000000E+00 0.  1.
         14    1    4    4    0    0 -0.47675475000E+01  0.21700874930E+01 -0.65520268903E+02  0.65729326986E+02  0.00000000000E+00 0. -1.
<mgrwt>
<rscale>  0 0.80428822E+02</rscale>
<asrwt>0</asrwt>
<pdfrwt beam="1">  1        2 0.52643404E-01 0.80428822E+02</pdfrwt>
<pdfrwt beam="2">  1       -1 0.72709766E-03 0.80428822E+02</pdfrwt>
<totfact> 0.26361213E+05</totfact>
</mgrwt>
</event>
<event>
 8    1  0.2603554E-020  0.7758660E+02  0.7818608E-02  0.1336043E+00
         -1   -1    0    0    0  501 -0.00000000000E+00  0.00000000000E+00  0.14913424392E+01  0.14913509555E+01  0.50400000000E-02 0.  1.
          2   -1    0    0  501    0  0.00000000000E+00 -0.00000000000E+00 -0.10091015806E+04  0.10091015806E+04  0.25500000000E-02 0. -1.
         24    2    1    2    0    0  0.00000000000E+00 -0.17763568394E-14 -0.10076102382E+04  0.10105929316E+04  0.77586604966E+02 0.  0.
         66    2    3    3    0    0  0.10794442363E+02 -0.14274381954E+02 -0.95207428669E+03  0.95224457223E+03  0.20000023781E+01 0.  0.
        -13    1    3    3    0    0 -0.10794442363E+02  0.14274381954E+02 -0.55535951500E+02  0.58348359353E+02  0.10566000000E+00 0.  1.
         13    1    4    4    0    0  0.58715589590E+01 -0.80840302602E+01 -0.55967463440E+03  0.55976382011E+03  0.10566000000E+00 0. -1.
        -13    1    4    4    0    0  0.13362260009E+01 -0.11970723896E+01 -0.74643947843E+02  0.74665578387E+02  0.10566000000E+00 0.  1.
         14    1    4    4    0    0  0.35866574030E+01 -0.49932793039E+01 -0.31775570444E+03  0.31781517373E+03  0.00000000000E+00 0. -1.
<mgrwt>
<rscale>  0 0.77586605E+02</rscale>
<asrwt>0</asrwt>
<pdfrwt beam="1">  1        2 0.15524585E+00 0.77586605E+02</pdfrwt>
<pdfrwt beam="2">  1       -1 0.22943876E-03 0.77586605E+02</pdfrwt>
<totfact> 0.38155925E+05</totfact>
</mgrwt>
</event>
<event>
 8    1  0.2603554E-020  0.7562755E+02  0.7818608E-02  0.1341939E+00
          2   -1    0    0  501    0  0.00000000000E+00  0.00000000000E+00  0.44620641076E+03  0.44620641076E+03  0.25500000000E-02 0. -1.
         -1   -1    0    0    0  501 -0.00000000000E+00 -0.00000000000E+00 -0.32045270993E+01  0.32045310627E+01  0.50400000000E-02 0.  1.
         24    2    1    2    0    0  0.00000000000E+00  0.00000000000E+00  0.44300188366E+03  0.44941094183E+03  0.75627545971E+02 0.  0.
         66    2    3    3    0    0  0.11726494347E+02 -0.35832187427E+02  0.23671241654E+03  0.23970445234E+03  0.20000004160E+01 0.  0.
        -13    1    3    3    0    0 -0.11726494347E+02  0.35832187427E+02  0.20628946711E+03  0.20970648948E+03  0.10566000000E+00 0.  1.
         13    1    4    4    0    0  0.23968965477E+01 -0.71914920530E+01  0.47833466353E+02  0.48430510408E+02  0.10566000000E+00 0. -1.
        -13    1    4    4    0    0  0.53655912455E+01 -0.15816193708E+02  0.11009195995E+03  0.11135166080E+03  0.10566000000E+00 0.  1.
        -14    1    4    4    0    0  0.39640065537E+01 -0.12824501666E+02  0.78786990239E+02  0.79922281135E+02  0.00000000000E+00 0.  1.
<mgrwt>
<rscale>  0 0.75627546E+02</rscale>
<asrwt>0</asrwt>
<pdfrwt beam="1">  1        2 0.68647112E-01 0.75627546E+02</pdfrwt>
<pdfrwt beam="2">  1       -1 0.49300468E-03 0.75627546E+02</pdfrwt>
<totfact> 0.33954425E+05</totfact>
</mgrwt>
</event>
<event>
 8    1  0.2603554E-020  0.8415549E+02  0.7818608E-02  0.1317656E+00
         -1   -1    0    0    0  501 -0.00000000000E+00  0.00000000000E+00  0.60093360412E+02  0.60093360624E+02  0.50400000000E-02 0.  1.
          2   -1    0    0  501    0  0.00000000000E+00 -0.00000000000E+00 -0.29463098855E+02  0.29463098965E+02  0.25500000000E-02 0. -1.
         24    2    1    2    0    0 -0.35527136788E-14  0.00000000000E+00  0.30630261557E+02  0.89556459589E+02  0.84155490201E+02 0.  0.
         66    2    3    3    0    0  0.25593697072E+02  0.10007320424E+02 -0.18552368763E+02  0.33217076550E+02  0.19999989868E+01 0.  0.
        -13    1    3    3    0    0 -0.25593697072E+02 -0.10007320424E+02  0.49182630321E+02  0.56339383039E+02  0.10566000000E+00 0.  1.
         13    1    4    4    0    0  0.90582017228E+01  0.35853487796E+01 -0.56094670622E+01  0.11242020685E+02  0.10566000000E+00 0. -1.
        -13    1    4    4    0    0  0.11025513514E+02  0.43021956769E+01 -0.81421523341E+01  0.14365815137E+02  0.10566000000E+00 0. -1.
         14    1    4    4    0    0  0.55099818350E+01  0.21197759676E+01 -0.48007493671E+01  0.76092407282E+01  0.00000000000E+00 0. -1.
<mgrwt>
<rscale>  0 0.84155490E+02</rscale>
<asrwt>0</asrwt>
<pdfrwt beam="1">  1        2 0.45327845E-02 0.84155490E+02</pdfrwt>
<pdfrwt beam="2">  1       -1 0.92451324E-02 0.84155490E+02</pdfrwt>
<totfact> 0.11624336E+05</totfact>
</mgrwt>
</event>
<event>
 8    1  0.2603554E-020  0.7824079E+02  0.7818608E-02  0.1334119E+00
         -1   -1    0    0    0  501 -0.00000000000E+00  0.00000000000E+00  0.15313530784E+01  0.15313613722E+01  0.50400000000E-02 0.  1.
          2   -1    0    0  501    0  0.00000000000E+00 -0.00000000000E+00 -0.99937828780E+03  0.99937828781E+03  0.25500000000E-02 0. -1.
         24    2    1    2    0    0  0.00000000000E+00  0.00000000000E+00 -0.99784693472E+03  0.10009096492E+04  0.78240786546E+02 0.  0.
         66    2    3    3    0    0 -0.11162291385E+02  0.18078010597E+02 -0.91907260760E+03  0.91932033006E+03  0.20000017408E+01 0.  0.
        -13    1    3    3    0    0  0.11162291385E+02 -0.18078010597E+02 -0.78774327127E+02  0.81589319120E+02  0.10566000000E+00 0.  1.
         13    1    4    4    0    0 -0.58669238855E+01  0.82291170554E+01 -0.42669635138E+03  0.42681603368E+03  0.10566000000E+00 0. -1.
        -13    1    4    4    0    0 -0.33609273779E+01  0.57898723563E+01 -0.27446285303E+03  0.27454450880E+03  0.10566000000E+00 0.  1.
        -14    1    4    4    0    0 -0.19344401211E+01  0.40590211849E+01 -0.21791340318E+03  0.21795978757E+03  0.00000000000E+00 0.  1.
<mgrwt>
<rscale>  0 0.78240787E+02</rscale>
<asrwt>0</asrwt>
<pdfrwt beam="1">  1        2 0.15374998E+00 0.78240787E+02</pdfrwt>
<pdfrwt beam="2">  1       -1 0.23559422E-03 0.78240787E+02</pdfrwt>
<totfact> 0.37321394E+05</totfact>
</mgrwt>
</event>
<event>
 8    1  0.2603554E-020  0.8085684E+02  0.7818608E-02  0.1326637E+00
          2   -1    0    0  501    0  0.00000000000E+00  0.00000000000E+00  0.57615530672E+03  0.57615530673E+03  0.25500000000E-02 0. -1.
         -1   -1    0    0    0  501 -0.00000000000E+00 -0.00000000000E+00 -0.28368320635E+01  0.28368365406E+01  0.50400000000E-02 0.  1.
         24    2    1    2    0    0  0.35527136788E-14  0.00000000000E+00  0.57331847466E+03  0.57899214327E+03  0.80856840042E+02 0.  0.
         66    2    3    3    0    0 -0.31755237334E+02 -0.79945900266E+01  0.45630911476E+03  0.45748695805E+03  0.20000005082E+01 0.  0.
        -13    1    3    3    0    0  0.31755237334E+02  0.79945900266E+01  0.11700935990E+03  0.12150518522E+03  0.10566000000E+00 0.  1.
         13    1    4    4    0    0 -0.61124231330E+01 -0.13930218559E+01  0.89817282896E+02  0.90035868949E+02  0.10566000000E+00 0. -1.
        -13    1    4    4    0    0 -0.97544347274E+01 -0.31912789020E+01  0.13502685058E+03  0.13541637567E+03  0.10566000000E+00 0.  1.
        -14    1    4    4    0    0 -0.15888379473E+02 -0.34102892687E+01  0.23146498128E+03  0.23203471342E+03  0.00000000000E+00 0.  1.
<mgrwt>
<rscale>  0 0.80856840E+02</rscale>
<asrwt>0</asrwt>
<pdfrwt beam="1">  1        2 0.88639232E-01 0.80856840E+02</pdfrwt>
<pdfrwt beam="2">  1       -1 0.43643628E-03 0.80856840E+02</pdfrwt>
<totfact> 0.30925486E+05</totfact>
</mgrwt>
</event>
<event>
 8    1  0.2603554E-020  0.7833158E+02  0.7818608E-02  0.1333854E+00
          2   -1    0    0  501    0  0.00000000000E+00  0.00000000000E+00  0.93691445864E+03  0.93691445864E+03  0.25500000000E-02 0. -1.
         -1   -1    0    0    0  501 -0.00000000000E+00 -0.00000000000E+00 -0.16372416696E+01  0.16372494271E+01  0.50400000000E-02 0.  1.
         24    2    1    2    0    0  0.00000000000E+00  0.35527136788E-14  0.93527721697E+03  0.93855170807E+03  0.78331578168E+02 0.  0.
         66    2    3    3    0    0  0.38674685962E+01 -0.22117365748E+02  0.85207385803E+03  0.85237198143E+03  0.20000016034E+01 0.  0.
        -13    1    3    3    0    0 -0.38674685962E+01  0.22117365748E+02  0.83203358939E+02  0.86179726640E+02  0.10566000000E+00 0.  1.
         13    1    4    4    0    0  0.18453298375E+01 -0.86248617407E+01  0.31091460141E+03  0.31103969846E+03  0.10566000000E+00 0. -1.
        -13    1    4    4    0    0 -0.11322442088E+00 -0.90941320087E+00  0.35672421246E+02  0.35684347462E+02  0.10566000000E+00 0.  1.
        -14    1    4    4    0    0  0.21353631796E+01 -0.12583090807E+02  0.50548683537E+03  0.50564793551E+03  0.00000000000E+00 0.  1.
<mgrwt>
<rscale>  0 0.78331578E+02</rscale>
<asrwt>0</asrwt>
<pdfrwt beam="1">  1        2 0.14414132E+00 0.78331578E+02</pdfrwt>
<pdfrwt beam="2">  1       -1 0.25188282E-03 0.78331578E+02</pdfrwt>
<totfact> 0.37055550E+05</totfact>
</mgrwt>
</event>
<event>
 8    1  0.2603554E-020  0.8036359E+02  0.7818608E-02  0.1328023E+00
          2   -1    0    0  501    0  0.00000000000E+00  0.00000000000E+00  0.40582246963E+02  0.40582247043E+02  0.25500000000E-02 0. -1.
         -1   -1    0    0    0  501 -0.00000000000E+00 -0.00000000000E+00 -0.39785298961E+02  0.39785299280E+02  0.50400000000E-02 0.  1.
         24    2    1    2    0    0  0.00000000000E+00  0.71054273576E-14  0.79694800175E+00  0.80367546323E+02  0.80363594841E+02 0.  0.
         66    2    3    3    0    0 -0.33616855552E+02 -0.20333516696E+02  0.87073775296E+01  0.40290982876E+02  0.19999998091E+01 0.  0.
        -13    1    3    3    0    0  0.33616855552E+02  0.20333516696E+02 -0.79104295279E+01  0.40076563447E+02  0.10566000000E+00 0.  1.
         13    1    4    4    0    0 -0.36643016608E+01 -0.17487944597E+01  0.65626694982E+00  0.41142726050E+01  0.10566000000E+00 0.  1.
        -13    1    4    4    0    0 -0.40744527586E+01 -0.26396813375E+01  0.71968224289E+00  0.49089906715E+01  0.10566000000E+00 0.  1.
         14    1    4    4    0    0 -0.25878101132E+02 -0.15945040899E+02  0.73314283369E+01  0.31267719599E+02  0.00000000000E+00 0. -1.
<mgrwt>
<rscale>  0 0.80363595E+02</rscale>
<asrwt>0</asrwt>
<pdfrwt beam="1">  1        2 0.62434226E-02 0.80363595E+02</pdfrwt>
<pdfrwt beam="2">  1       -1 0.61208153E-02 0.80363595E+02</pdfrwt>
<totfact> 0.14119654E+05</totfact>
</mgrwt>
</event>
<event>
 8    1  0.2603554E-020  0.7910723E+02  0.7818608E-02  0.1331604E+00
         -1   -1    0    0    0  501 -0.00000000000E+00  0.00000000000E+00  0.22871048563E+03  0.22871048568E+03  0.50400000000E-02 0.  1.
          2   -1    0    0  501    0  0.00000000000E+00 -0.00000000000E+00 -0.68404760066E+01  0.68404764819E+01  0.25500000000E-02 0. -1.
         24    2    1    2    0    0 -0.35527136788E-14 -0.35527136788E-14  0.22187000962E+03  0.23555096217E+03  0.79107234863E+02 0.  0.
         66    2    3    3    0    0 -0.25311999972E+02 -0.23982956364E+02  0.55570521971E+02  0.65635070338E+02  0.20000019204E+01 0.  0.
        -13    1    3    3    0    0  0.25311999972E+02  0.23982956364E+02  0.16629948765E+03  0.16991589183E+03  0.10566000000E+00 0.  1.
         13    1    4    4    0    0 -0.11103655451E+02 -0.10472507478E+02  0.23055088806E+02  0.27649825698E+02  0.10566000000E+00 0.  1.
        -13    1    4    4    0    0 -0.60393201251E+01 -0.50288877631E+01  0.12758936093E+02  0.14985483441E+02  0.10566000000E+00 0. -1.
        -14    1    4    4    0    0 -0.81690243958E+01 -0.84815611230E+01  0.19756497072E+02  0.22999761199E+02  0.00000000000E+00 0.  1.
<mgrwt>
<rscale>  0 0.79107235E+02</rscale>
<asrwt>0</asrwt>
<pdfrwt beam="1">  1        2 0.10523809E-02 0.79107235E+02</pdfrwt>
<pdfrwt beam="2">  1       -1 0.35186230E-01 0.79107235E+02</pdfrwt>
<totfact> 0.98238621E+04</totfact>
</mgrwt>
</event>
<event>
 8    1  0.2603554E-020  0.8050582E+02  0.7818608E-02  0.1327622E+00
         -1   -1    0    0    0  501 -0.00000000000E+00  0.00000000000E+00  0.51750957552E+02  0.51750957798E+02  0.50400000000E-02 0.  1.
          2   -1    0    0  501    0  0.00000000000E+00 -0.00000000000E+00 -0.31309499314E+02  0.31309499418E+02  0.25500000000E-02 0. -1.
         24    2    1    2    0    0  0.00000000000E+00  0.35527136788E-14  0.20441458238E+02  0.83060457216E+02  0.80505815554E+02 0.  0.
         66    2    3    3    0    0 -0.29374682270E+02 -0.26333927209E+02  0.21068245043E+01  0.39557381015E+02  0.20000006404E+01 0.  0.
        -13    1    3    3    0    0  0.29374682270E+02  0.26333927209E+02  0.18334633734E+02  0.43503076201E+02  0.10566000000E+00 0.  1.
         13    1    4    4    0    0 -0.13188352617E+01 -0.12049456280E+01  0.44157272818E+00  0.18431958452E+01  0.10566000000E+00 0. -1.
        -13    1    4    4    0    0 -0.10554333629E+02 -0.88812951451E+01  0.40645489518E+00  0.13800280121E+02  0.10566000000E+00 0.  1.
         14    1    4    4    0    0 -0.17501513380E+02 -0.16247686436E+02  0.12587968809E+01  0.23913905049E+02  0.00000000000E+00 0. -1.
<mgrwt>
<rscale>  0 0.80505816E+02</rscale>
<asrwt>0</asrwt>
<pdfrwt beam="1">  1        2 0.48168460E-02 0.80505816E+02</pdfrwt>
<pdfrwt beam="2">  1       -1 0.79616859E-02 0.80505816E+02</pdfrwt>
<totfact> 0.13332140E+05</totfact>
</mgrwt>
</event>
<event>
 8    1  0.2603554E-020  0.7810629E+02  0.7818608E-02  0.1334513E+00
         -1   -1    0    0    0  501 -0.00000000000E+00  0.00000000000E+00  0.19683542932E+01  0.19683607457E+01  0.50400000000E-02 0.  1.
          2   -1    0    0  501    0  0.00000000000E+00 -0.00000000000E+00 -0.77483287699E+03  0.77483287699E+03  0.25500000000E-02 0. -1.
         24    2    1    2    0    0  0.00000000000E+00  0.00000000000E+00 -0.77286452269E+03  0.77680123774E+03  0.78106289828E+02 0.  0.
         66    2    3    3    0    0 -0.82461396746E+01 -0.95777362206E+01 -0.75391425104E+03  0.75402283106E+03  0.19999996762E+01 0.  0.
        -13    1    3    3    0    0  0.82461396746E+01  0.95777362206E+01 -0.18950271657E+02  0.22778406673E+02  0.10566000000E+00 0.  1.
         13    1    4    4    0    0 -0.12027143419E+01 -0.16069540981E+01 -0.10285114293E+03  0.10287078103E+03  0.10566000000E+00 0.  1.
        -13    1    4    4    0    0 -0.13541614255E+01 -0.20235699691E+01 -0.18814800879E+03  0.18816379292E+03  0.10566000000E+00 0. -1.
         14    1    4    4    0    0 -0.56892639072E+01 -0.59472121533E+01 -0.46291509932E+03  0.46298825712E+03  0.00000000000E+00 0. -1.
<mgrwt>
<rscale>  0 0.78106290E+02</rscale>
<asrwt>0</asrwt>
<pdfrwt beam="1">  1        2 0.11920482E+00 0.78106290E+02</pdfrwt>
<pdfrwt beam="2">  1       -1 0.30282485E-03 0.78106290E+02</pdfrwt>
<totfact> 0.36360024E+05</totfact>
</mgrwt>
</event>
<event>
 8    1  0.2603554E-020  0.8031685E+02  0.7818608E-02  0.1328155E+00
          2   -1    0    0  501    0  0.00000000000E+00  0.00000000000E+00  0.66106630386E+02  0.66106630435E+02  0.25500000000E-02 0. -1.
         -1   -1    0    0    0  501 -0.00000000000E+00 -0.00000000000E+00 -0.24395422201E+02  0.24395422722E+02  0.50400000000E-02 0.  1.
         24    2    1    2    0    0 -0.35527136788E-14  0.00000000000E+00  0.41711208185E+02  0.90502053157E+02  0.80316852138E+02 0.  0.
         66    2    3    3    0    0  0.29823734442E+02  0.26700090485E+02  0.17613541028E+02  0.43778839500E+02  0.19999981255E+01 0.  0.
        -13    1    3    3    0    0 -0.29823734442E+02 -0.26700090485E+02  0.24097667157E+02  0.46723213657E+02  0.10566000000E+00 0.  1.
         13    1    4    4    0    0  0.18760640868E+02  0.17706303069E+02  0.11891536152E+02  0.28405890415E+02  0.10566000000E+00 0. -1.
        -13    1    4    4    0    0  0.65837896151E+01  0.51772994569E+01  0.31167594305E+01  0.89373412571E+01  0.10566000000E+00 0.  1.
        -14    1    4    4    0    0  0.44793039587E+01  0.38164879590E+01  0.26052454446E+01  0.64356078285E+01  0.00000000000E+00 0.  1.
<mgrwt>
<rscale>  0 0.80316852E+02</rscale>
<asrwt>0</asrwt>
<pdfrwt beam="1">  1        2 0.10170251E-01 0.80316852E+02</pdfrwt>
<pdfrwt beam="2">  1       -1 0.37531420E-02 0.80316852E+02</pdfrwt>
<totfact> 0.15754931E+05</totfact>
</mgrwt>
</event>
<event>
 8    1  0.2603554E-020  0.8132772E+02  0.7818608E-02  0.1325325E+00
          2   -1    0    0  501    0  0.00000000000E+00  0.00000000000E+00  0.83752921254E+03  0.83752921255E+03  0.25500000000E-02 0. -1.
         -1   -1    0    0    0  501 -0.00000000000E+00 -0.00000000000E+00 -0.19743154650E+01  0.19743218980E+01  0.50400000000E-02 0.  1.
         24    2    1    2    0    0  0.00000000000E+00  0.00000000000E+00  0.83555489708E+03  0.83950353444E+03  0.81327721684E+02 0.  0.
         66    2    3    3    0    0 -0.31745482584E+02  0.43824875680E+01  0.67600103386E+03  0.67676316363E+03  0.20000005256E+01 0.  0.
        -13    1    3    3    0    0  0.31745482584E+02 -0.43824875680E+01  0.15955386322E+03  0.16274037082E+03  0.10566000000E+00 0.  1.
         13    1    4    4    0    0 -0.63699545350E+01  0.11474911701E+01  0.14283449359E+03  0.14298110637E+03  0.10566000000E+00 0. -1.
        -13    1    4    4    0    0 -0.86650719362E+00 -0.86890011665E-01  0.22053830999E+02  0.22071271154E+02  0.10566000000E+00 0.  1.
         14    1    4    4    0    0 -0.24509020856E+02  0.33218864096E+01  0.51111270927E+03  0.51171078610E+03  0.00000000000E+00 0. -1.
<mgrwt>
<rscale>  0 0.81327722E+02</rscale>
<asrwt>0</asrwt>
<pdfrwt beam="1">  1        2 0.12885087E+00 0.81327722E+02</pdfrwt>
<pdfrwt beam="2">  1       -1 0.30374080E-03 0.81327722E+02</pdfrwt>
<totfact> 0.33170563E+05</totfact>
</mgrwt>
</event>
<event>
 8    1  0.2603554E-020  0.7885430E+02  0.7818608E-02  0.1332335E+00
          2   -1    0    0  501    0  0.00000000000E+00  0.00000000000E+00  0.39438052581E+03  0.39438052582E+03  0.25500000000E-02 0. -1.
         -1   -1    0    0    0  501 -0.00000000000E+00 -0.00000000000E+00 -0.39416238492E+01  0.39416270714E+01  0.50400000000E-02 0.  1.
         24    2    1    2    0    0 -0.17763568394E-14  0.00000000000E+00  0.39043890196E+03  0.39832215289E+03  0.78854304374E+02 0.  0.
         66    2    3    3    0    0  0.15851438612E+02  0.52903084529E+01  0.37559007919E+03  0.37596697069E+03  0.19999980382E+01 0.  0.
        -13    1    3    3    0    0 -0.15851438612E+02 -0.52903084529E+01  0.14848822770E+02  0.22355182202E+02  0.10566000000E+00 0.  1.
         13    1    4    4    0    0  0.57171871405E+01  0.24476021082E+01  0.14822465956E+03  0.14835510726E+03  0.10566000000E+00 0. -1.
        -13    1    4    4    0    0  0.91847413939E+01  0.28441814608E+01  0.21089864611E+03  0.21111773715E+03  0.10566000000E+00 0.  1.
        -14    1    4    4    0    0  0.94951007715E+00 -0.14751160473E-02  0.16466773523E+02  0.16494126282E+02  0.00000000000E+00 0.  1.
<mgrwt>
<rscale>  0 0.78854304E+02</rscale>
<asrwt>0</asrwt>
<pdfrwt beam="1">  1        2 0.60673915E-01 0.78854304E+02</pdfrwt>
<pdfrwt beam="2">  1       -1 0.60640404E-03 0.78854304E+02</pdfrwt>
<totfact> 0.29192921E+05</totfact>
</mgrwt>
</event>
<event>
 8    1  0.2603554E-020  0.8043557E+02  0.7818608E-02  0.1327820E+00
          2   -1    0    0  501    0  0.00000000000E+00  0.00000000000E+00  0.42949197099E+03  0.42949197100E+03  0.25500000000E-02 0. -1.
         -1   -1    0    0    0  501 -0.00000000000E+00 -0.00000000000E+00 -0.37660063359E+01  0.37660097083E+01  0.50400000000E-02 0.  1.
         24    2    1    2    0    0 -0.88817841970E-15  0.00000000000E+00  0.42572596465E+03  0.43325798071E+03  0.80435569648E+02 0.  0.
         66    2    3    3    0    0 -0.72844951175E+01  0.38677284172E+02  0.25690874630E+03  0.25991363971E+03  0.19999998302E+01 0.  0.
        -13    1    3    3    0    0  0.72844951175E+01 -0.38677284172E+02  0.16881721835E+03  0.17334434100E+03  0.10566000000E+00 0.  1.
         13    1    4    4    0    0 -0.48319178264E+01  0.26417737544E+02  0.16987023240E+03  0.17198008986E+03  0.10566000000E+00 0. -1.
        -13    1    4    4    0    0 -0.16406622515E+00  0.66035027943E+00  0.43788810432E+01  0.44326903167E+01  0.10566000000E+00 0. -1.
         14    1    4    4    0    0 -0.22885110660E+01  0.11599196349E+02  0.82659632854E+02  0.83500859531E+02  0.00000000000E+00 0. -1.
<mgrwt>
<rscale>  0 0.80435570E+02</rscale>
<asrwt>0</asrwt>
<pdfrwt beam="1">  1        2 0.66075659E-01 0.80435570E+02</pdfrwt>
<pdfrwt beam="2">  1       -1 0.57938611E-03 0.80435570E+02</pdfrwt>
<totfact> 0.28549659E+05</totfact>
</mgrwt>
</event>
<event>
 8    1  0.2603554E-020  0.7991850E+02  0.7818608E-02  0.1329283E+00
         -1   -1    0    0    0  501 -0.00000000000E+00  0.00000000000E+00  0.16217429374E+02  0.16217430157E+02  0.50400000000E-02 0.  1.
          2   -1    0    0  501    0  0.00000000000E+00 -0.00000000000E+00 -0.98458367658E+02  0.98458367691E+02  0.25500000000E-02 0. -1.
         24    2    1    2    0    0 -0.71054273576E-14  0.17763568394E-14 -0.82240938284E+02  0.11467579785E+03  0.79918500251E+02 0.  0.
         66    2    3    3    0    0  0.37770442409E+02 -0.10749611454E+02 -0.30741699016E+02  0.49912048147E+02  0.20000064222E+01 0.  0.
        -13    1    3    3    0    0 -0.37770442409E+02  0.10749611454E+02 -0.51499239267E+02  0.64763749701E+02  0.10566000000E+00 0.  1.
         13    1    4    4    0    0  0.30137657807E+01 -0.78294284330E+00 -0.29189723037E+01  0.42693497188E+01  0.10566000000E+00 0.  1.
        -13    1    4    4    0    0  0.22462922444E+02 -0.61941373239E+01 -0.17177522572E+02  0.28948724802E+02  0.10566000000E+00 0.  1.
         14    1    4    4    0    0  0.12293754184E+02 -0.37725312865E+01 -0.10645204140E+02  0.16693973627E+02  0.00000000000E+00 0. -1.
<mgrwt>
<rscale>  0 0.79918500E+02</rscale>
<asrwt>0</asrwt>
<pdfrwt beam="1">  1        2 0.15147441E-01 0.79918500E+02</pdfrwt>
<pdfrwt beam="2">  1       -1 0.24949893E-02 0.79918500E+02</pdfrwt>
<totfact> 0.17697432E+05</totfact>
</mgrwt>
</event>
<event>
 8    1  0.2603554E-020  0.8318354E+02  0.7818608E-02  0.1320252E+00
          2   -1    0    0  501    0  0.00000000000E+00  0.00000000000E+00  0.74198293013E+03  0.74198293014E+03  0.25500000000E-02 0. -1.
         -1   -1    0    0    0  501 -0.00000000000E+00 -0.00000000000E+00 -0.23314191383E+01  0.23314245860E+01  0.50400000000E-02 0.  1.
         24    2    1    2    0    0 -0.22204460493E-15  0.35527136788E-14  0.73965151100E+03  0.74431435473E+03  0.83183537618E+02 0.  0.
         66    2    3    3    0    0  0.14043260748E+01  0.25561411330E+02  0.66307439359E+03  0.66357140484E+03  0.20000033804E+01 0.  0.
        -13    1    3    3    0    0 -0.14043260748E+01 -0.25561411330E+02  0.76577117411E+02  0.80742949884E+02  0.10566000000E+00 0.  1.
         13    1    4    4    0    0  0.60224835281E+00  0.13916591009E+02  0.34488194406E+03  0.34516315086E+03  0.10566000000E+00 0. -1.
        -13    1    4    4    0    0 -0.18765816753E+00  0.26327738158E+01  0.65676104855E+02  0.65729206799E+02  0.10566000000E+00 0.  1.
         14    1    4    4    0    0  0.98973588953E+00  0.90120465056E+01  0.25251634467E+03  0.25267904718E+03  0.00000000000E+00 0. -1.
<mgrwt>
<rscale>  0 0.83183538E+02</rscale>
<asrwt>0</asrwt>
<pdfrwt beam="1">  1        2 0.11415138E+00 0.83183538E+02</pdfrwt>
<pdfrwt beam="2">  1       -1 0.35867978E-03 0.83183538E+02</pdfrwt>
<totfact> 0.30605349E+05</totfact>
</mgrwt>
</event>
<event>
 8    1  0.2603554E-020  0.7694060E+02  0.7818608E-02  0.1337965E+00
         -1   -1    0    0    0  501 -0.00000000000E+00  0.00000000000E+00  0.32822463271E+01  0.32822501967E+01  0.50400000000E-02 0.  1.
          2   -1    0    0  501    0  0.00000000000E+00 -0.00000000000E+00 -0.45089943730E+03  0.45089943730E+03  0.25500000000E-02 0. -1.
         24    2    1    2    0    0  0.88817841970E-15  0.71054273576E-14 -0.44761719097E+03  0.45418168750E+03  0.76940597927E+02 0.  0.
         66    2    3    3    0    0  0.63825744098E+01  0.32894272015E+02 -0.33521030978E+03  0.33688680913E+03  0.20000000877E+01 0.  0.
        -13    1    3    3    0    0 -0.63825744098E+01 -0.32894272015E+02 -0.11240688119E+03  0.11729487837E+03  0.10566000000E+00 0.  1.
         13    1    4    4    0    0  0.19226775448E+01  0.10066191697E+02 -0.10336170097E+03  0.10386855778E+03  0.10566000000E+00 0. -1.
        -13    1    4    4    0    0  0.45640880506E+00  0.19053278655E+01 -0.24404990109E+02  0.24483735204E+02  0.10566000000E+00 0.  1.
        -14    1    4    4    0    0  0.40034880600E+01  0.20922752452E+02 -0.20744361870E+03  0.20853451615E+03  0.00000000000E+00 0.  1.
<mgrwt>
<rscale>  0 0.76940598E+02</rscale>
<asrwt>0</asrwt>
<pdfrwt beam="1">  1        2 0.69369095E-01 0.76940598E+02</pdfrwt>
<pdfrwt beam="2">  1       -1 0.50496163E-03 0.76940598E+02</pdfrwt>
<totfact> 0.32584109E+05</totfact>
</mgrwt>
</event>
<event>
 8    1  0.2603554E-020  0.7947060E+02  0.7818608E-02  0.1330561E+00
         -1   -1    0    0    0  501 -0.00000000000E+00  0.00000000000E+00  0.14847478083E+01  0.14847563624E+01  0.50400000000E-02 0.  1.
          2   -1    0    0  501    0  0.00000000000E+00 -0.00000000000E+00 -0.10634057900E+04  0.10634057900E+04  0.25500000000E-02 0. -1.
         24    2    1    2    0    0  0.00000000000E+00  0.00000000000E+00 -0.10619210422E+04  0.10648905464E+04  0.79470597638E+02 0.  0.
         66    2    3    3    0    0  0.48784225197E+01  0.94920278738E+01 -0.10438259764E+04  0.10438824486E+04  0.20000005628E+01 0.  0.
        -13    1    3    3    0    0 -0.48784225197E+01 -0.94920278738E+01 -0.18095065800E+02  0.21008097720E+02  0.10566000000E+00 0.  1.
         13    1    4    4    0    0  0.76329809635E+00  0.10192972829E+01 -0.10836890316E+03  0.10837643622E+03  0.10566000000E+00 0. -1.
        -13    1    4    4    0    0  0.11201397950E+01  0.14026600682E+01 -0.13190921354E+03  0.13192146887E+03  0.10566000000E+00 0.  1.
         14    1    4    4    0    0  0.29949846283E+01  0.70700705226E+01 -0.80354785968E+03  0.80358454355E+03  0.00000000000E+00 0. -1.
<mgrwt>
<rscale>  0 0.79470598E+02</rscale>
<asrwt>0</asrwt>
<pdfrwt beam="1">  1        2 0.16360028E+00 0.79470598E+02</pdfrwt>
<pdfrwt beam="2">  1       -1 0.22842425E-03 0.79470598E+02</pdfrwt>
<totfact> 0.35886104E+05</totfact>
</mgrwt>
</event>
<event>
 8    1  0.2603554E-020  0.7998907E+02  0.7818608E-02  0.1329082E+00
          2   -1    0    0  501    0  0.00000000000E+00  0.00000000000E+00  0.26531203407E+03  0.26531203408E+03  0.25500000000E-02 0. -1.
         -1   -1    0    0    0  501 -0.00000000000E+00 -0.00000000000E+00 -0.60289865622E+01  0.60289886688E+01  0.50400000000E-02 0.  1.
         24    2    1    2    0    0  0.00000000000E+00  0.00000000000E+00  0.25928304751E+03  0.27134102275E+03  0.79989073645E+02 0.  0.
         66    2    3    3    0    0 -0.12162189294E+02 -0.18640451208E+02  0.24234081599E+03  0.24336897165E+03  0.20000002518E+01 0.  0.
        -13    1    3    3    0    0  0.12162189294E+02  0.18640451208E+02  0.16942231522E+02  0.27972051098E+02  0.10566000000E+00 0.  1.
         13    1    4    4    0    0 -0.41443935726E+01 -0.51360985187E+01  0.66752625071E+02  0.67078160559E+02  0.10566000000E+00 0. -1.
        -13    1    4    4    0    0 -0.35605010491E+01 -0.62935299920E+01  0.77022383082E+02  0.77361129433E+02  0.10566000000E+00 0.  1.
         14    1    4    4    0    0 -0.44572946726E+01 -0.72108226971E+01  0.98565807833E+02  0.98929681661E+02  0.00000000000E+00 0. -1.
<mgrwt>
<rscale>  0 0.79989074E+02</rscale>
<asrwt>0</asrwt>
<pdfrwt beam="1">  1        2 0.40817231E-01 0.79989074E+02</pdfrwt>
<pdfrwt beam="2">  1       -1 0.92753667E-03 0.79989074E+02</pdfrwt>
<totfact> 0.24393598E+05</totfact>
</mgrwt>
</event>
<event>
 8    1  0.2603554E-020  0.7873902E+02  0.7818608E-02  0.1332668E+00
         -1   -1    0    0    0  501 -0.00000000000E+00  0.00000000000E+00  0.20183761686E+03  0.20183761692E+03  0.50400000000E-02 0.  1.
          2   -1    0    0  501    0  0.00000000000E+00 -0.00000000000E+00 -0.76792346694E+01  0.76792350928E+01  0.25500000000E-02 0. -1.
         24    2    1    2    0    0  0.00000000000E+00  0.00000000000E+00  0.19415838219E+03  0.20951685201E+03  0.78739024020E+02 0.  0.
         66    2    3    3    0    0  0.26052318115E+02  0.23542743257E+02  0.49917604717E+02  0.61063502139E+02  0.19999984004E+01 0.  0.
        -13    1    3    3    0    0 -0.26052318115E+02 -0.23542743257E+02  0.14424077747E+03  0.14845334988E+03  0.10566000000E+00 0.  1.
         13    1    4    4    0    0  0.14762562948E+02  0.13204916788E+02  0.28891710129E+02  0.35029204536E+02  0.10566000000E+00 0. -1.
        -13    1    4    4    0    0  0.29290000154E+01  0.32901405946E+01  0.64961702199E+01  0.78495514384E+01  0.10566000000E+00 0.  1.
        -14    1    4    4    0    0  0.83607551511E+01  0.70476858744E+01  0.14529724367E+02  0.18184746165E+02  0.00000000000E+00 0.  1.
<mgrwt>
<rscale>  0 0.78739024E+02</rscale>
<asrwt>0</asrwt>
<pdfrwt beam="1">  1        2 0.11814207E-02 0.78739024E+02</pdfrwt>
<pdfrwt beam="2">  1       -1 0.31051943E-01 0.78739024E+02</pdfrwt>
<totfact> 0.10342652E+05</totfact>
</mgrwt>
</event>
<event>
 8    1  0.2603554E-020  0.8063211E+02  0.7818608E-02  0.1327267E+00
          2   -1    0    0  501    0  0.00000000000E+00  0.00000000000E+00  0.45316753295E+02  0.45316753367E+02  0.25500000000E-02 0. -1.
         -1   -1    0    0    0  501 -0.00000000000E+00 -0.00000000000E+00 -0.35867184459E+02  0.35867184813E+02  0.50400000000E-02 0.  1.
         24    2    1    2    0    0  0.00000000000E+00  0.00000000000E+00  0.94495688364E+01  0.81183938180E+02  0.80632111887E+02 0.  0.
         66    2    3    3    0    0 -0.10005936677E+01 -0.10265505406E+02  0.43942891627E+02  0.45181406740E+02  0.20000003672E+01 0.  0.
        -13    1    3    3    0    0  0.10005936677E+01  0.10265505406E+02 -0.34493322791E+02  0.36002531441E+02  0.10566000000E+00 0.  1.
         13    1    4    4    0    0 -0.50639336015E+00 -0.33567179747E+01  0.17534603897E+02  0.17860500767E+02  0.10566000000E+00 0. -1.
        -13    1    4    4    0    0 -0.49665047511E+00 -0.15325316388E+01  0.54559866430E+01  0.56898391192E+01  0.10566000000E+00 0.  1.
         14    1    4    4    0    0  0.24501675766E-02 -0.53762557929E+01  0.20952301087E+02  0.21631066853E+02  0.00000000000E+00 0. -1.
<mgrwt>
<rscale>  0 0.80632112E+02</rscale>
<asrwt>0</asrwt>
<pdfrwt beam="1">  1        2 0.69718082E-02 0.80632112E+02</pdfrwt>
<pdfrwt beam="2">  1       -1 0.55180284E-02 0.80632112E+02</pdfrwt>
<totfact> 0.14317496E+05</totfact>
</mgrwt>
</event>
<event>
 8    1  0.2603554E-020  0.7989266E+02  0.7818608E-02  0.1329356E+00
          2   -1    0    0  501    0  0.00000000000E+00  0.00000000000E+00  0.20743911241E+03  0.20743911243E+03  0.25500000000E-02 0. -1.
         -1   -1    0    0    0  501 -0.00000000000E+00 -0.00000000000E+00 -0.76924217482E+01  0.76924233993E+01  0.50400000000E-02 0.  1.
         24    2    1    2    0    0  0.35527136788E-14  0.00000000000E+00  0.19974669066E+03  0.21513153583E+03  0.79892660965E+02 0.  0.
         66    2    3    3    0    0  0.21972441884E+02 -0.81808770803E+01  0.18694096488E+03  0.18841613336E+03  0.20000017478E+01 0.  0.
        -13    1    3    3    0    0 -0.21972441884E+02  0.81808770803E+01  0.12805725781E+02  0.26715402467E+02  0.10566000000E+00 0.  1.
         13    1    4    4    0    0  0.12354572090E+02 -0.52449830007E+01  0.10781602158E+03  0.10864829024E+03  0.10566000000E+00 0. -1.
        -13    1    4    4    0    0  0.86380872218E+01 -0.24964654165E+01  0.68201874140E+02  0.68792119393E+02  0.10566000000E+00 0.  1.
        -14    1    4    4    0    0  0.97978257156E+00 -0.43942866309E+00  0.10923069157E+02  0.10975723723E+02  0.00000000000E+00 0.  1.
<mgrwt>
<rscale>  0 0.79892661E+02</rscale>
<asrwt>0</asrwt>
<pdfrwt beam="1">  1        2 0.31913707E-01 0.79892661E+02</pdfrwt>
<pdfrwt beam="2">  1       -1 0.11834497E-02 0.79892661E+02</pdfrwt>
<totfact> 0.22420287E+05</totfact>
</mgrwt>
</event>
<event>
 8    1  0.2603554E-020  0.7922573E+02  0.7818608E-02  0.1331263E+00
          2   -1    0    0  501    0  0.00000000000E+00  0.00000000000E+00  0.13365761770E+03  0.13365761772E+03  0.25500000000E-02 0. -1.
         -1   -1    0    0    0  501 -0.00000000000E+00 -0.00000000000E+00 -0.11740288481E+02  0.11740289563E+02  0.50400000000E-02 0.  1.
         24    2    1    2    0    0  0.00000000000E+00  0.00000000000E+00  0.12191732921E+03  0.14539790728E+03  0.79225729908E+02 0.  0.
         66    2    3    3    0    0  0.17191022726E+02 -0.30347163408E+02  0.95365475443E+02  0.10156306165E+03  0.19999987759E+01 0.  0.
        -13    1    3    3    0    0 -0.17191022726E+02  0.30347163408E+02  0.26551853772E+02  0.43834845638E+02  0.10566000000E+00 0.  1.
         13    1    4    4    0    0  0.10361051680E+01 -0.11840057080E+01  0.45893202202E+01  0.48526701469E+01  0.10566000000E+00 0.  1.
        -13    1    4    4    0    0  0.31813837219E+01 -0.66044812028E+01  0.20225714867E+02  0.21513509250E+02  0.10566000000E+00 0. -1.
        -14    1    4    4    0    0  0.12973533836E+02 -0.22558676497E+02  0.70550440355E+02  0.75196882248E+02  0.00000000000E+00 0.  1.
<mgrwt>
<rscale>  0 0.79225730E+02</rscale>
<asrwt>0</asrwt>
<pdfrwt beam="1">  1        2 0.20562711E-01 0.79225730E+02</pdfrwt>
<pdfrwt beam="2">  1       -1 0.18061983E-02 0.79225730E+02</pdfrwt>
<totfact> 0.19817489E+05</totfact>
</mgrwt>
</event>
<event>
 8    1  0.2603554E-020  0.7901288E+02  0.7818608E-02  0.1331876E+00
          2   -1    0    0  501    0  0.00000000000E+00  0.00000000000E+00  0.57449963307E+01  0.57449968967E+01  0.25500000000E-02 0. -1.
         -1   -1    0    0    0  501 -0.00000000000E+00 -0.00000000000E+00 -0.27167268644E+03  0.27167268649E+03  0.50400000000E-02 0.  1.
         24    2    1    2    0    0 -0.71054273576E-14  0.00000000000E+00 -0.26592769011E+03  0.27741768339E+03  0.79012876717E+02 0.  0.
         66    2    3    3    0    0 -0.37385978220E+02 -0.12620088506E+02 -0.13772748713E+03  0.14328237406E+03  0.20000004053E+01 0.  0.
        -13    1    3    3    0    0  0.37385978220E+02  0.12620088506E+02 -0.12820020298E+03  0.13413530933E+03  0.10566000000E+00 0.  1.
         13    1    4    4    0    0 -0.28957843283E+02 -0.93974744711E+01 -0.10633238340E+03  0.11060495531E+03  0.10566000000E+00 0.  1.
        -13    1    4    4    0    0 -0.74124253095E+01 -0.26329665626E+01 -0.28041764557E+02  0.29124358970E+02  0.10566000000E+00 0. -1.
        -14    1    4    4    0    0 -0.10157096276E+01 -0.58964747277E+00 -0.33533391713E+01  0.35530597782E+01  0.00000000000E+00 0.  1.
<mgrwt>
<rscale>  0 0.79012877E+02</rscale>
<asrwt>0</asrwt>
<pdfrwt beam="1">  1        2 0.88384585E-03 0.79012877E+02</pdfrwt>
<pdfrwt beam="2">  1       -1 0.41795788E-01 0.79012877E+02</pdfrwt>
<totfact> 0.92745722E+04</totfact>
</mgrwt>
</event>
<event>
 8    1  0.2603554E-020  0.7961183E+02  0.7818608E-02  0.1330157E+00
         -1   -1    0    0    0  501 -0.00000000000E+00  0.00000000000E+00  0.20155349781E+03  0.20155349787E+03  0.50400000000E-02 0.  1.
          2   -1    0    0  501    0  0.00000000000E+00 -0.00000000000E+00 -0.78614899141E+01  0.78614903277E+01  0.25500000000E-02 0. -1.
         24    2    1    2    0    0  0.00000000000E+00 -0.17763568394E-14  0.19369200790E+03  0.20941498820E+03  0.79611829274E+02 0.  0.
         66    2    3    3    0    0  0.38897558032E+02  0.82892937770E+01  0.94593537593E+02  0.10263366777E+03  0.19999984339E+01 0.  0.
        -13    1    3    3    0    0 -0.38897558032E+02 -0.82892937770E+01  0.99098470303E+02  0.10678132043E+03  0.10566000000E+00 0.  1.
         13    1    4    4    0    0  0.24034814438E+02  0.54485755138E+01  0.59328872284E+02  0.64243953262E+02  0.10566000000E+00 0. -1.
        -13    1    4    4    0    0  0.78852033835E+01  0.15027439318E+01  0.17329721926E+02  0.19098824513E+02  0.10566000000E+00 0.  1.
        -14    1    4    4    0    0  0.69775402106E+01  0.13379743314E+01  0.17934943383E+02  0.19290889997E+02  0.00000000000E+00 0.  1.
<mgrwt>
<rscale>  0 0.79611829E+02</rscale>
<asrwt>0</asrwt>
<pdfrwt beam="1">  1        2 0.12094601E-02 0.79611829E+02</pdfrwt>
<pdfrwt beam="2">  1       -1 0.31008228E-01 0.79611829E+02</pdfrwt>
<totfact> 0.10060836E+05</totfact>
</mgrwt>
</event>
<event>
 8    1  0.2603554E-020  0.8218661E+02  0.7818608E-02  0.1322958E+00
         -1   -1    0    0    0  501 -0.00000000000E+00  0.00000000000E+00  0.71336807801E+02  0.71336807979E+02  0.50400000000E-02 0.  1.
          2   -1    0    0  501    0  0.00000000000E+00 -0.00000000000E+00 -0.23671644019E+02  0.23671644157E+02  0.25500000000E-02 0. -1.
         24    2    1    2    0    0  0.00000000000E+00  0.00000000000E+00  0.47665163782E+02  0.95008452136E+02  0.82186605593E+02 0.  0.
         66    2    3    3    0    0  0.89398543462E+01  0.28804495836E+02 -0.83774865860E+01  0.31365622214E+02  0.19999998213E+01 0.  0.
        -13    1    3    3    0    0 -0.89398543462E+01 -0.28804495836E+02  0.56042650368E+02  0.63642829921E+02  0.10566000000E+00 0.  1.
         13    1    4    4    0    0  0.31039434320E+01  0.10334379457E+02 -0.31247690239E+01  0.11234287208E+02  0.10566000000E+00 0. -1.
        -13    1    4    4    0    0  0.55664562324E+01  0.17889827069E+02 -0.47811929472E+01  0.19336553922E+02  0.10566000000E+00 0.  1.
        -14    1    4    4    0    0  0.26945468179E+00  0.58028931034E+00 -0.47152461488E+00  0.79478108412E+00  0.00000000000E+00 0.  1.
<mgrwt>
<rscale>  0 0.82186606E+02</rscale>
<asrwt>0</asrwt>
<pdfrwt beam="1">  1        2 0.36417914E-02 0.82186606E+02</pdfrwt>
<pdfrwt beam="2">  1       -1 0.10974894E-01 0.82186606E+02</pdfrwt>
<totfact> 0.11891724E+05</totfact>
</mgrwt>
</event>
<event>
 8    1  0.2603554E-020  0.7669674E+02  0.7818608E-02  0.1338696E+00
          2   -1    0    0  501    0  0.00000000000E+00  0.00000000000E+00  0.63095198019E+02  0.63095198070E+02  0.25500000000E-02 0. -1.
         -1   -1    0    0    0  501 -0.00000000000E+00 -0.00000000000E+00 -0.23307598495E+02  0.23307599040E+02  0.50400000000E-02 0.  1.
         24    2    1    2    0    0  0.00000000000E+00  0.00000000000E+00  0.39787599524E+02  0.86402797110E+02  0.76696742255E+02 0.  0.
         66    2    3    3    0    0 -0.18627334598E+02 -0.13852367139E+02  0.54257437076E+02  0.59048582948E+02  0.20000001157E+01 0.  0.
        -13    1    3    3    0    0  0.18627334598E+02  0.13852367139E+02 -0.14469837553E+02  0.27354214162E+02  0.10566000000E+00 0.  1.
         13    1    4    4    0    0 -0.65365172603E+01 -0.56375906496E+01  0.19341417032E+02  0.21180416971E+02  0.10566000000E+00 0. -1.
        -13    1    4    4    0    0 -0.22693530323E+01 -0.17074766241E+01  0.58016084582E+01  0.64602836118E+01  0.10566000000E+00 0.  1.
         14    1    4    4    0    0 -0.98214643054E+01 -0.65072998655E+01  0.29114411586E+02  0.31407882365E+02  0.00000000000E+00 0. -1.
<mgrwt>
<rscale>  0 0.76696742E+02</rscale>
<asrwt>0</asrwt>
<pdfrwt beam="1">  1        2 0.97069534E-02 0.76696742E+02</pdfrwt>
<pdfrwt beam="2">  1       -1 0.35857845E-02 0.76696742E+02</pdfrwt>
<totfact> 0.17655186E+05</totfact>
</mgrwt>
</event>
<event>
 8    1  0.2603554E-020  0.8326419E+02  0.7818608E-02  0.1320035E+00
         -1   -1    0    0    0  501 -0.00000000000E+00  0.00000000000E+00  0.38913051237E+02  0.38913051564E+02  0.50400000000E-02 0.  1.
          2   -1    0    0  501    0  0.00000000000E+00 -0.00000000000E+00 -0.44541134752E+02  0.44541134825E+02  0.25500000000E-02 0. -1.
         24    2    1    2    0    0  0.35527136788E-14  0.00000000000E+00 -0.56280835142E+01  0.83454186389E+02  0.83264193395E+02 0.  0.
         66    2    3    3    0    0 -0.29165235794E+02  0.13608947544E+02  0.23615178175E+02  0.39968626137E+02  0.20000007265E+01 0.  0.
        -13    1    3    3    0    0  0.29165235794E+02 -0.13608947544E+02 -0.29243261689E+02  0.43485560252E+02  0.10566000000E+00 0.  1.
         13    1    4    4    0    0 -0.22279556475E+01  0.11877913754E+01  0.15773944042E+01  0.29789212579E+01  0.10566000000E+00 0.  1.
        -13    1    4    4    0    0 -0.39535316521E+01  0.16186675602E+01  0.38608679738E+01  0.57591633717E+01  0.10566000000E+00 0. -1.
         14    1    4    4    0    0 -0.22983748494E+02  0.10802488609E+02  0.18176915797E+02  0.31230541507E+02  0.00000000000E+00 0. -1.
<mgrwt>
<rscale>  0 0.83264193E+02</rscale>
<asrwt>0</asrwt>
<pdfrwt beam="1">  1        2 0.68524822E-02 0.83264193E+02</pdfrwt>
<pdfrwt beam="2">  1       -1 0.59866234E-02 0.83264193E+02</pdfrwt>
<totfact> 0.13054234E+05</totfact>
</mgrwt>
</event>
<event>
 8    1  0.2603554E-020  0.7937197E+02  0.7818608E-02  0.1330843E+00
         -1   -1    0    0    0  501 -0.00000000000E+00  0.00000000000E+00  0.52046378053E+01  0.52046402456E+01  0.50400000000E-02 0.  1.
          2   -1    0    0  501    0  0.00000000000E+00 -0.00000000000E+00 -0.30261028489E+03  0.30261028490E+03  0.25500000000E-02 0. -1.
         24    2    1    2    0    0  0.00000000000E+00  0.00000000000E+00 -0.29740564709E+03  0.30781492515E+03  0.79371967501E+02 0.  0.
         66    2    3    3    0    0  0.23650203308E+02 -0.26726606679E+02 -0.21589299171E+03  0.21883196177E+03  0.20000003662E+01 0.  0.
        -13    1    3    3    0    0 -0.23650203308E+02  0.26726606679E+02 -0.81512655379E+02  0.88982963381E+02  0.10566000000E+00 0.  1.
         13    1    4    4    0    0  0.14475234179E+02 -0.16598864953E+02 -0.13616920680E+03  0.13793882255E+03  0.10566000000E+00 0. -1.
        -13    1    4    4    0    0  0.24822097708E+01 -0.32251480991E+01 -0.25709352905E+02  0.26029693361E+02  0.10566000000E+00 0.  1.
         14    1    4    4    0    0  0.66927593586E+01 -0.69025936263E+01 -0.54014432002E+02  0.54863445855E+02  0.00000000000E+00 0. -1.
<mgrwt>
<rscale>  0 0.79371968E+02</rscale>
<asrwt>0</asrwt>
<pdfrwt beam="1">  1        2 0.46555415E-01 0.79371968E+02</pdfrwt>
<pdfrwt beam="2">  1       -1 0.80071394E-03 0.79371968E+02</pdfrwt>
<totfact> 0.26108242E+05</totfact>
</mgrwt>
</event>
<event>
 8    1  0.2603554E-020  0.8063901E+02  0.7818608E-02  0.1327248E+00
         -1   -1    0    0    0  501 -0.00000000000E+00  0.00000000000E+00  0.70074928934E+02  0.70074929116E+02  0.50400000000E-02 0.  1.
          2   -1    0    0  501    0  0.00000000000E+00 -0.00000000000E+00 -0.23198916195E+02  0.23198916335E+02  0.25500000000E-02 0. -1.
         24    2    1    2    0    0  0.17763568394E-14  0.00000000000E+00  0.46876012739E+02  0.93273845451E+02  0.80639008395E+02 0.  0.
         66    2    3    3    0    0 -0.10497250344E+02 -0.28793909800E+02 -0.68071388528E+01  0.31458204750E+02  0.20000000976E+01 0.  0.
        -13    1    3    3    0    0  0.10497250344E+02  0.28793909800E+02  0.53683151592E+02  0.61815640701E+02  0.10566000000E+00 0.  1.
         13    1    4    4    0    0 -0.49843737017E+01 -0.14277113898E+02 -0.29504484082E+01  0.15407669269E+02  0.10566000000E+00 0. -1.
        -13    1    4    4    0    0 -0.24647916094E+01 -0.51907475468E+01 -0.18336275697E+01  0.60326123589E+01  0.10566000000E+00 0.  1.
        -14    1    4    4    0    0 -0.30480850325E+01 -0.93260483554E+01 -0.20230628749E+01  0.10017923122E+02  0.00000000000E+00 0.  1.
<mgrwt>
<rscale>  0 0.80639008E+02</rscale>
<asrwt>0</asrwt>
<pdfrwt beam="1">  1        2 0.35690642E-02 0.80639008E+02</pdfrwt>
<pdfrwt beam="2">  1       -1 0.10780758E-01 0.80639008E+02</pdfrwt>
<totfact> 0.12503435E+05</totfact>
</mgrwt>
</event>
<event>
 8    1  0.2603554E-020  0.8289898E+02  0.7818608E-02  0.1321020E+00
         -1   -1    0    0    0  501 -0.00000000000E+00  0.00000000000E+00  0.17538812550E+02  0.17538813274E+02  0.50400000000E-02 0.  1.
          2   -1    0    0  501    0  0.00000000000E+00 -0.00000000000E+00 -0.97957622304E+02  0.97957622337E+02  0.25500000000E-02 0. -1.
         24    2    1    2    0    0  0.00000000000E+00  0.35527136788E-14 -0.80418809754E+02  0.11549643561E+03  0.82898984774E+02 0.  0.
         66    2    3    3    0    0 -0.65710562933E+01  0.21191639363E+02 -0.88971338663E+02  0.91717847039E+02  0.20000005888E+01 0.  0.
        -13    1    3    3    0    0  0.65710562933E+01 -0.21191639363E+02  0.85525289091E+01  0.23778588572E+02  0.10566000000E+00 0.  1.
         13    1    4    4    0    0 -0.56556562779E+01  0.15937966775E+02 -0.66521391262E+02  0.68637539965E+02  0.10566000000E+00 0. -1.
        -13    1    4    4    0    0 -0.28868361522E+00  0.91889969977E+00 -0.45899705340E+01  0.46911308260E+01  0.10566000000E+00 0. -1.
        -14    1    4    4    0    0 -0.62671640014E+00  0.43347728879E+01 -0.17859976866E+02  0.18389176249E+02  0.00000000000E+00 0.  1.
<mgrwt>
<rscale>  0 0.82898985E+02</rscale>
<asrwt>0</asrwt>
<pdfrwt beam="1">  1        2 0.15070403E-01 0.82898985E+02</pdfrwt>
<pdfrwt beam="2">  1       -1 0.26982790E-02 0.82898985E+02</pdfrwt>
<totfact> 0.16017142E+05</totfact>
</mgrwt>
</event>
<event>
 8    1  0.2603554E-020  0.7883911E+02  0.7818608E-02  0.1332379E+00
          2   -1    0    0  501    0  0.00000000000E+00  0.00000000000E+00  0.95039197133E+02  0.95039197168E+02  0.25500000000E-02 0. -1.
         -1   -1    0    0    0  501 -0.00000000000E+00 -0.00000000000E+00 -0.16350110846E+02  0.16350111623E+02  0.50400000000E-02 0.  1.
         24    2    1    2    0    0  0.00000000000E+00 -0.35527136788E-14  0.78689086288E+02  0.11138930879E+03  0.78839113465E+02 0.  0.
         66    2    3    3    0    0  0.69801384348E+01 -0.17570763491E+02  0.88199530024E+02  0.90225335479E+02  0.20000009087E+01 0.  0.
        -13    1    3    3    0    0 -0.69801384348E+01  0.17570763491E+02 -0.95104437359E+01  0.21163973311E+02  0.10566000000E+00 0.  1.
         13    1    4    4    0    0  0.19438376448E+01 -0.59446203930E+01  0.30782884794E+02  0.31412006887E+02  0.10566000000E+00 0. -1.
        -13    1    4    4    0    0  0.11450224372E+01 -0.39459545212E+01  0.16995644908E+02  0.17485558136E+02  0.10566000000E+00 0.  1.
         14    1    4    4    0    0  0.38912783528E+01 -0.76801885772E+01  0.40421000322E+02  0.41327770456E+02  0.00000000000E+00 0. -1.
<mgrwt>
<rscale>  0 0.78839113E+02</rscale>
<asrwt>0</asrwt>
<pdfrwt beam="1">  1        2 0.14621415E-01 0.78839113E+02</pdfrwt>
<pdfrwt beam="2">  1       -1 0.25154017E-02 0.78839113E+02</pdfrwt>
<totfact> 0.18175856E+05</totfact>
</mgrwt>
</event>
<event>
 8    1  0.2603554E-020  0.7992706E+02  0.7818608E-02  0.1329259E+00
          2   -1    0    0  501    0  0.00000000000E+00  0.00000000000E+00  0.34330300811E+03  0.34330300812E+03  0.25500000000E-02 0. -1.
         -1   -1    0    0    0  501 -0.00000000000E+00 -0.00000000000E+00 -0.46521096922E+01  0.46521124224E+01  0.50400000000E-02 0.  1.
         24    2    1    2    0    0  0.00000000000E+00  0.00000000000E+00  0.33865089842E+03  0.34795512054E+03  0.79927059949E+02 0.  0.
         66    2    3    3    0    0 -0.11573937320E+02  0.34830195488E+02  0.23798598312E+03  0.24080786263E+03  0.19999996140E+01 0.  0.
        -13    1    3    3    0    0  0.11573937320E+02 -0.34830195488E+02  0.10066491530E+03  0.10714725792E+03  0.10566000000E+00 0.  1.
         13    1    4    4    0    0 -0.26553882763E+01  0.92492940455E+01  0.60173322309E+02  0.60938004636E+02  0.10566000000E+00 0. -1.
        -13    1    4    4    0    0 -0.84074596948E+01  0.23858844616E+02  0.16804291712E+03  0.16993634986E+03  0.10566000000E+00 0.  1.
        -14    1    4    4    0    0 -0.51108934912E+00  0.17220568265E+01  0.97697436909E+01  0.99335081327E+01  0.00000000000E+00 0.  1.
<mgrwt>
<rscale>  0 0.79927060E+02</rscale>
<asrwt>0</asrwt>
<pdfrwt beam="1">  1        2 0.52815856E-01 0.79927060E+02</pdfrwt>
<pdfrwt beam="2">  1       -1 0.71570928E-03 0.79927060E+02</pdfrwt>
<totfact> 0.26828035E+05</totfact>
</mgrwt>
</event>
<event>
 8    1  0.2603554E-020  0.8039800E+02  0.7818608E-02  0.1327926E+00
         -1   -1    0    0    0  501 -0.00000000000E+00  0.00000000000E+00  0.11748296137E+02  0.11748297218E+02  0.50400000000E-02 0.  1.
          2   -1    0    0  501    0  0.00000000000E+00 -0.00000000000E+00 -0.13754843108E+03  0.13754843111E+03  0.25500000000E-02 0. -1.
         24    2    1    2    0    0 -0.44408920985E-15  0.35527136788E-14 -0.12580013495E+03  0.14929672832E+03  0.80398004551E+02 0.  0.
         66    2    3    3    0    0  0.30153653147E+01 -0.27631497435E+02 -0.90751237861E+01  0.29307847703E+02  0.19999966886E+01 0.  0.
        -13    1    3    3    0    0 -0.30153653147E+01  0.27631497435E+02 -0.11672501116E+03  0.11998888062E+03  0.10566000000E+00 0.  1.
         13    1    4    4    0    0  0.19751522983E+01 -0.16805707131E+02 -0.50838964194E+01  0.17668904483E+02  0.10566000000E+00 0. -1.
        -13    1    4    4    0    0  0.23294571215E+00 -0.68962824423E+01 -0.28665175293E+01  0.74726877367E+01  0.10566000000E+00 0.  1.
        -14    1    4    4    0    0  0.80726730431E+00 -0.39295078612E+01 -0.11247098373E+01  0.41662554830E+01  0.00000000000E+00 0.  1.
<mgrwt>
<rscale>  0 0.80398005E+02</rscale>
<asrwt>0</asrwt>
<pdfrwt beam="1">  1        2 0.21161296E-01 0.80398005E+02</pdfrwt>
<pdfrwt beam="2">  1       -1 0.18074304E-02 0.80398005E+02</pdfrwt>
<totfact> 0.19230072E+05</totfact>
</mgrwt>
</event>
<event>
 8    1  0.2603554E-020  0.7888916E+02  0.7818608E-02  0.1332234E+00
         -1   -1    0    0    0  501 -0.00000000000E+00  0.00000000000E+00  0.26015692931E+02  0.26015693419E+02  0.50400000000E-02 0.  1.
          2   -1    0    0  501    0  0.00000000000E+00 -0.00000000000E+00 -0.59805246027E+02  0.59805246081E+02  0.25500000000E-02 0. -1.
         24    2    1    2    0    0  0.00000000000E+00  0.00000000000E+00 -0.33789553096E+02  0.85820939500E+02  0.78889161222E+02 0.  0.
         66    2    3    3    0    0  0.56944593893E+01  0.38930645510E+02 -0.19536348167E+02  0.43973752709E+02  0.20000000095E+01 0.  0.
        -13    1    3    3    0    0 -0.56944593893E+01 -0.38930645510E+02 -0.14253204929E+02  0.41847186791E+02  0.10566000000E+00 0.  1.
         13    1    4    4    0    0  0.74522773002E+00  0.32717099309E+01 -0.21491224576E+01  0.39861437023E+01  0.10566000000E+00 0. -1.
        -13    1    4    4    0    0  0.30806935767E+01  0.24504403753E+02 -0.11722581093E+02  0.27338371343E+02  0.10566000000E+00 0. -1.
        -14    1    4    4    0    0  0.18685380826E+01  0.11154531826E+02 -0.56646446167E+01  0.12649237663E+02  0.00000000000E+00 0.  1.
<mgrwt>
<rscale>  0 0.78889161E+02</rscale>
<asrwt>0</asrwt>
<pdfrwt beam="1">  1        2 0.92008070E-02 0.78889161E+02</pdfrwt>
<pdfrwt beam="2">  1       -1 0.40024144E-02 0.78889161E+02</pdfrwt>
<totfact> 0.16157140E+05</totfact>
</mgrwt>
</event>
<event>
 8    1  0.2603554E-020  0.8072212E+02  0.7818608E-02  0.1327015E+00
         -1   -1    0    0    0  501 -0.00000000000E+00  0.00000000000E+00  0.73067167896E+00  0.73068906112E+00  0.50400000000E-02 0.  1.
          2   -1    0    0  501    0  0.00000000000E+00 -0.00000000000E+00 -0.22294497248E+04  0.22294497248E+04  0.25500000000E-02 0. -1.
         24    2    1    2    0    0  0.17763568394E-14  0.35527136788E-14 -0.22287190531E+04  0.22301804138E+04  0.80722119840E+02 0.  0.
         66    2    3    3    0    0 -0.11214041003E+02 -0.12693340556E+02 -0.21264386498E+04  0.21265070437E+04  0.19999989269E+01 0.  0.
        -13    1    3    3    0    0  0.11214041003E+02  0.12693340556E+02 -0.10228040327E+03  0.10367337010E+03  0.10566000000E+00 0.  1.
         13    1    4    4    0    0 -0.25403684970E+01 -0.38512690050E+01 -0.63294482148E+03  0.63296164493E+03  0.10566000000E+00 0. -1.
        -13    1    4    4    0    0 -0.39458933872E+00 -0.61153860336E+00 -0.82576714001E+02  0.82579988734E+02  0.10566000000E+00 0. -1.
         14    1    4    4    0    0 -0.82790831675E+01 -0.82305329477E+01 -0.14109171143E+04  0.14109654101E+04  0.00000000000E+00 0. -1.
<mgrwt>
<rscale>  0 0.80722120E+02</rscale>
<asrwt>0</asrwt>
<pdfrwt beam="1">  1        2 0.34298682E+00 0.80722120E+02</pdfrwt>
<pdfrwt beam="2">  1       -1 0.11241415E-03 0.80722120E+02</pdfrwt>
<totfact> 0.24132651E+05</totfact>
</mgrwt>
</event>
<event>
 8    1  0.2603554E-020  0.7867993E+02  0.7818608E-02  0.1332840E+00
          2   -1    0    0  501    0  0.00000000000E+00  0.00000000000E+00  0.20217450493E+03  0.20217450495E+03  0.25500000000E-02 0. -1.
         -1   -1    0    0    0  501 -0.00000000000E+00 -0.00000000000E+00 -0.76549350311E+01  0.76549366903E+01  0.50400000000E-02 0.  1.
         24    2    1    2    0    0 -0.17763568394E-14  0.17763568394E-14  0.19451956990E+03  0.20982944164E+03  0.78679930757E+02 0.  0.
         66    2    3    3    0    0 -0.90237763951E+01  0.14191379077E+02  0.19209236129E+03  0.19283749395E+03  0.20000069583E+01 0.  0.
        -13    1    3    3    0    0  0.90237763951E+01 -0.14191379077E+02  0.24272086139E+01  0.16991947688E+02  0.10566000000E+00 0.  1.
         13    1    4    4    0    0 -0.13837904546E+00  0.11151246092E+00  0.28339613596E+01  0.28414934124E+01  0.10566000000E+00 0.  1.
        -13    1    4    4    0    0 -0.91229124417E+00  0.25162813068E+01  0.31022009653E+02  0.31137440387E+02  0.10566000000E+00 0.  1.
         14    1    4    4    0    0 -0.79731061055E+01  0.11563585309E+02  0.15823639028E+03  0.15885856015E+03  0.00000000000E+00 0. -1.
<mgrwt>
<rscale>  0 0.78679931E+02</rscale>
<asrwt>0</asrwt>
<pdfrwt beam="1">  1        2 0.31103773E-01 0.78679931E+02</pdfrwt>
<pdfrwt beam="2">  1       -1 0.11776823E-02 0.78679931E+02</pdfrwt>
<totfact> 0.23134325E+05</totfact>
</mgrwt>
</event>
<event>
 8    1  0.2603554E-020  0.7828213E+02  0.7818608E-02  0.1333998E+00
          2   -1    0    0  501    0  0.00000000000E+00  0.00000000000E+00  0.10675692373E+03  0.10675692376E+03  0.25500000000E-02 0. -1.
         -1   -1    0    0    0  501 -0.00000000000E+00 -0.00000000000E+00 -0.14350571547E+02  0.14350572432E+02  0.50400000000E-02 0.  1.
         24    2    1    2    0    0  0.00000000000E+00  0.00000000000E+00  0.92406352178E+02  0.12110749619E+03  0.78282128932E+02 0.  0.
         66    2    3    3    0    0  0.89124537533E+01 -0.38084418774E+02  0.45608314344E+02  0.60116330480E+02  0.20000169762E+01 0.  0.
        -13    1    3    3    0    0 -0.89124537533E+01  0.38084418774E+02  0.46798037834E+02  0.60991165708E+02  0.10566000000E+00 0.  1.
         13    1    4    4    0    0  0.54485548536E+01 -0.24648142198E+02  0.29183712258E+02  0.38586498792E+02  0.10566000000E+00 0. -1.
        -13    1    4    4    0    0  0.14157950425E+00 -0.20347288745E+01  0.25366405693E+01  0.32566663572E+01  0.10566000000E+00 0.  1.
         14    1    4    4    0    0  0.33223193954E+01 -0.11401547701E+02  0.13887961516E+02  0.18273165331E+02  0.00000000000E+00 0. -1.
<mgrwt>
<rscale>  0 0.78282129E+02</rscale>
<asrwt>0</asrwt>
<pdfrwt beam="1">  1        2 0.16424142E-01 0.78282129E+02</pdfrwt>
<pdfrwt beam="2">  1       -1 0.22077803E-02 0.78282129E+02</pdfrwt>
<totfact> 0.19135222E+05</totfact>
</mgrwt>
</event>
<event>
 8    1  0.2603554E-020  0.8069863E+02  0.7818608E-02  0.1327080E+00
          2   -1    0    0  501    0  0.00000000000E+00  0.00000000000E+00  0.97697669738E+01  0.97697673065E+01  0.25500000000E-02 0. -1.
         -1   -1    0    0    0  501 -0.00000000000E+00 -0.00000000000E+00 -0.16664338558E+03  0.16664338566E+03  0.50400000000E-02 0.  1.
         24    2    1    2    0    0  0.00000000000E+00  0.00000000000E+00 -0.15687361861E+03  0.17641315296E+03  0.80698626529E+02 0.  0.
         66    2    3    3    0    0 -0.36445917512E+02 -0.41219092141E+01 -0.11511493565E+03  0.12083353615E+03  0.20000025051E+01 0.  0.
        -13    1    3    3    0    0  0.36445917512E+02  0.41219092141E+01 -0.41758682960E+02  0.55579616816E+02  0.10566000000E+00 0.  1.
         13    1    4    4    0    0 -0.15337578844E+02 -0.21360608960E+01 -0.47086660552E+02  0.49567820680E+02  0.10566000000E+00 0. -1.
        -13    1    4    4    0    0 -0.58033160430E+00 -0.18754863229E+00 -0.23860858336E+01  0.24650616425E+01  0.10566000000E+00 0.  1.
         14    1    4    4    0    0 -0.20528007063E+02 -0.17982996857E+01 -0.65642189262E+02  0.68800653826E+02  0.00000000000E+00 0. -1.
<mgrwt>
<rscale>  0 0.80698627E+02</rscale>
<asrwt>0</asrwt>
<pdfrwt beam="1">  1        2 0.15030412E-02 0.80698627E+02</pdfrwt>
<pdfrwt beam="2">  1       -1 0.25637442E-01 0.80698627E+02</pdfrwt>
<totfact> 0.10264855E+05</totfact>
</mgrwt>
</event>
<event>
 8    1  0.2603554E-020  0.7922275E+02  0.7818608E-02  0.1331272E+00
          2   -1    0    0  501    0  0.00000000000E+00  0.00000000000E+00  0.14494801590E+03  0.14494801592E+03  0.25500000000E-02 0. -1.
         -1   -1    0    0    0  501 -0.00000000000E+00 -0.00000000000E+00 -0.10824990627E+02  0.10824991801E+02  0.50400000000E-02 0.  1.
         24    2    1    2    0    0  0.00000000000E+00  0.00000000000E+00  0.13412302527E+03  0.15577300772E+03  0.79222749427E+02 0.  0.
         66    2    3    3    0    0  0.35281878636E+02 -0.84158140593E+01  0.98281647679E+02  0.10478033768E+03  0.20000018219E+01 0.  0.
        -13    1    3    3    0    0 -0.35281878636E+02  0.84158140593E+01  0.35841377593E+02  0.50992670044E+02  0.10566000000E+00 0.  1.
         13    1    4    4    0    0  0.16902705258E+02 -0.41336217386E+01  0.46895346448E+02  0.50019725671E+02  0.10566000000E+00 0. -1.
        -13    1    4    4    0    0  0.12601679399E+02 -0.35927417093E+01  0.35154620049E+02  0.37517577100E+02  0.10566000000E+00 0.  1.
        -14    1    4    4    0    0  0.57774939787E+01 -0.68945061139E+00  0.16231681181E+02  0.17243034907E+02  0.00000000000E+00 0.  1.
<mgrwt>
<rscale>  0 0.79222749E+02</rscale>
<asrwt>0</asrwt>
<pdfrwt beam="1">  1        2 0.22299694E-01 0.79222749E+02</pdfrwt>
<pdfrwt beam="2">  1       -1 0.16653833E-02 0.79222749E+02</pdfrwt>
<totfact> 0.20331261E+05</totfact>
</mgrwt>
</event>
<event>
 8    1  0.2603554E-020  0.7879333E+02  0.7818608E-02  0.1332511E+00
         -1   -1    0    0    0  501 -0.00000000000E+00  0.00000000000E+00  0.22942562707E+01  0.22942618066E+01  0.50400000000E-02 0.  1.
          2   -1    0    0  501    0  0.00000000000E+00 -0.00000000000E+00 -0.67651354414E+03  0.67651354414E+03  0.25500000000E-02 0. -1.
         24    2    1    2    0    0  0.44408920985E-15  0.00000000000E+00 -0.67421928787E+03  0.67880780595E+03  0.78793332748E+02 0.  0.
         66    2    3    3    0    0 -0.20233017758E+01 -0.24672488407E+02 -0.60107413248E+03  0.60158701629E+03  0.20000008043E+01 0.  0.
        -13    1    3    3    0    0  0.20233017758E+01  0.24672488407E+02 -0.73145155388E+02  0.77220789656E+02  0.10566000000E+00 0.  1.
         13    1    4    4    0    0 -0.41469036537E+00 -0.91728337514E+01 -0.20336259199E+03  0.20356981071E+03  0.10566000000E+00 0. -1.
        -13    1    4    4    0    0 -0.42152329945E-01 -0.43361563807E+00 -0.11752820218E+02  0.11761366691E+02  0.10566000000E+00 0. -1.
         14    1    4    4    0    0 -0.15664590805E+01 -0.15066039017E+02 -0.38595872027E+03  0.38625583890E+03  0.00000000000E+00 0. -1.
<mgrwt>
<rscale>  0 0.78793333E+02</rscale>
<asrwt>0</asrwt>
<pdfrwt beam="1">  1        2 0.10407885E+00 0.78793333E+02</pdfrwt>
<pdfrwt beam="2">  1       -1 0.35296347E-03 0.78793333E+02</pdfrwt>
<totfact> 0.34521010E+05</totfact>
</mgrwt>
</event>
<event>
 8    1  0.2603554E-020  0.7984913E+02  0.7818608E-02  0.1329480E+00
         -1   -1    0    0    0  501 -0.00000000000E+00  0.00000000000E+00  0.54100258224E+01  0.54100281700E+01  0.50400000000E-02 0.  1.
          2   -1    0    0  501    0  0.00000000000E+00 -0.00000000000E+00 -0.29463267345E+03  0.29463267346E+03  0.25500000000E-02 0. -1.
         24    2    1    2    0    0  0.00000000000E+00  0.00000000000E+00 -0.28922264763E+03  0.30004270163E+03  0.79849125865E+02 0.  0.
         66    2    3    3    0    0  0.20295335941E+02 -0.32928164312E+02 -0.10792294500E+03  0.11466266495E+03  0.20000020854E+01 0.  0.
        -13    1    3    3    0    0 -0.20295335941E+02  0.32928164312E+02 -0.18129970262E+03  0.18538003669E+03  0.10566000000E+00 0.  1.
         13    1    4    4    0    0  0.77049813949E+01 -0.12099746465E+02 -0.41600352023E+02  0.44004216335E+02  0.10566000000E+00 0.  1.
        -13    1    4    4    0    0  0.55779424924E+01 -0.80785246392E+01 -0.26287101394E+02  0.28060628405E+02  0.10566000000E+00 0. -1.
        -14    1    4    4    0    0  0.70124120533E+01 -0.12749893208E+02 -0.40035491587E+02  0.42597820205E+02  0.00000000000E+00 0.  1.
<mgrwt>
<rscale>  0 0.79849126E+02</rscale>
<asrwt>0</asrwt>
<pdfrwt beam="1">  1        2 0.45328091E-01 0.79849126E+02</pdfrwt>
<pdfrwt beam="2">  1       -1 0.83231208E-03 0.79849126E+02</pdfrwt>
<totfact> 0.25454036E+05</totfact>
</mgrwt>
</event>
<event>
 8    1  0.2603554E-020  0.7948095E+02  0.7818608E-02  0.1330531E+00
          2   -1    0    0  501    0  0.00000000000E+00  0.00000000000E+00  0.20067357599E+02  0.20067357761E+02  0.25500000000E-02 0. -1.
         -1   -1    0    0    0  501 -0.00000000000E+00 -0.00000000000E+00 -0.78700223223E+02  0.78700223385E+02  0.50400000000E-02 0.  1.
         24    2    1    2    0    0  0.35527136788E-14  0.35527136788E-14 -0.58632865624E+02  0.98767581146E+02  0.79480954663E+02 0.  0.
         66    2    3    3    0    0  0.20491347410E+02  0.29099321800E+02 -0.74333180926E+01  0.36413185315E+02  0.19999997542E+01 0.  0.
        -13    1    3    3    0    0 -0.20491347410E+02 -0.29099321800E+02 -0.51199547532E+02  0.62354395831E+02  0.10566000000E+00 0.  1.
         13    1    4    4    0    0  0.11241527282E+02  0.16285881392E+02 -0.43779207396E+01  0.20267689123E+02  0.10566000000E+00 0. -1.
        -13    1    4    4    0    0  0.87674045363E+01  0.12233660960E+02 -0.26292536783E+01  0.15279200952E+02  0.10566000000E+00 0.  1.
        -14    1    4    4    0    0  0.48241559223E+00  0.57977944741E+00 -0.42614367469E+00  0.86629523994E+00  0.00000000000E+00 0.  1.
<mgrwt>
<rscale>  0 0.79480955E+02</rscale>
<asrwt>0</asrwt>
<pdfrwt beam="1">  1        2 0.30872858E-02 0.79480955E+02</pdfrwt>
<pdfrwt beam="2">  1       -1 0.12107727E-01 0.79480955E+02</pdfrwt>
<totfact> 0.12658427E+05</totfact>
</mgrwt>
</event>
<event>
 8    1  0.2603554E-020  0.7926044E+02  0.7818608E-02  0.1331163E+00
         -1   -1    0    0    0  501 -0.00000000000E+00  0.00000000000E+00  0.38358366691E+01  0.38358399802E+01  0.50400000000E-02 0.  1.
          2   -1    0    0  501    0  0.00000000000E+00 -0.00000000000E+00 -0.40944227587E+03  0.40944227588E+03  0.25500000000E-02 0. -1.
         24    2    1    2    0    0  0.00000000000E+00  0.00000000000E+00 -0.40560643920E+03  0.41327811586E+03  0.79260441117E+02 0.  0.
         66    2    3    3    0    0 -0.20565116621E+02  0.24633937794E+02 -0.32396323407E+03  0.32555480641E+03  0.20000083667E+01 0.  0.
        -13    1    3    3    0    0  0.20565116621E+02 -0.24633937794E+02 -0.81643205136E+02  0.87723309456E+02  0.10566000000E+00 0.  1.
         13    1    4    4    0    0 -0.94149249803E+01  0.10815410684E+02 -0.13707488460E+03  0.13782289024E+03  0.10566000000E+00 0. -1.
        -13    1    4    4    0    0 -0.10551065523E+02  0.12765308305E+02 -0.17317743109E+03  0.17396755986E+03  0.10566000000E+00 0.  1.
         14    1    4    4    0    0 -0.59912611797E+00  0.10532188054E+01 -0.13710918374E+02  0.13764356310E+02  0.00000000000E+00 0. -1.
<mgrwt>
<rscale>  0 0.79260441E+02</rscale>
<asrwt>0</asrwt>
<pdfrwt beam="1">  1        2 0.62991085E-01 0.79260441E+02</pdfrwt>
<pdfrwt beam="2">  1       -1 0.59012930E-03 0.79260441E+02</pdfrwt>
<totfact> 0.29183190E+05</totfact>
</mgrwt>
</event>
<event>
 8    1  0.2603554E-020  0.8017371E+02  0.7818608E-02  0.1328559E+00
         -1   -1    0    0    0  501 -0.00000000000E+00  0.00000000000E+00  0.19024164927E+02  0.19024165594E+02  0.50400000000E-02 0.  1.
          2   -1    0    0  501    0  0.00000000000E+00 -0.00000000000E+00 -0.84469196668E+02  0.84469196707E+02  0.25500000000E-02 0. -1.
         24    2    1    2    0    0  0.00000000000E+00  0.00000000000E+00 -0.65445031742E+02  0.10349336230E+03  0.80173710533E+02 0.  0.
         66    2    3    3    0    0 -0.11695382519E+02 -0.33333415714E+02 -0.57134771340E+02  0.67203278704E+02  0.19999992738E+01 0.  0.
        -13    1    3    3    0    0  0.11695382519E+02  0.33333415714E+02 -0.83102604018E+01  0.36290083596E+02  0.10566000000E+00 0.  1.
         13    1    4    4    0    0 -0.66571887406E+01 -0.18929425866E+02 -0.31617077794E+02  0.37447190787E+02  0.10566000000E+00 0. -1.
        -13    1    4    4    0    0 -0.38004303857E+01 -0.11125573458E+02 -0.18664631629E+02  0.22059041089E+02  0.10566000000E+00 0.  1.
        -14    1    4    4    0    0 -0.12377633926E+01 -0.32784163905E+01 -0.68530619175E+01  0.76970468292E+01  0.00000000000E+00 0.  1.
<mgrwt>
<rscale>  0 0.80173711E+02</rscale>
<asrwt>0</asrwt>
<pdfrwt beam="1">  1        2 0.12995261E-01 0.80173711E+02</pdfrwt>
<pdfrwt beam="2">  1       -1 0.29267947E-02 0.80173711E+02</pdfrwt>
<totfact> 0.16834363E+05</totfact>
</mgrwt>
</event>
<event>
 8    1  0.2603554E-020  0.8029571E+02  0.7818608E-02  0.1328214E+00
         -1   -1    0    0    0  501 -0.00000000000E+00  0.00000000000E+00  0.99227328440E+02  0.99227328568E+02  0.50400000000E-02 0.  1.
          2   -1    0    0  501    0  0.00000000000E+00 -0.00000000000E+00 -0.16244016732E+02  0.16244016933E+02  0.25500000000E-02 0. -1.
         24    2    1    2    0    0 -0.71054273576E-14 -0.17763568394E-14  0.82983311708E+02  0.11547134550E+03  0.80295713521E+02 0.  0.
         66    2    3    3    0    0 -0.38852695753E+02 -0.98506850491E+01  0.44120789307E+02  0.59642367590E+02  0.19999998480E+01 0.  0.
        -13    1    3    3    0    0  0.38852695753E+02  0.98506850491E+01  0.38862522401E+02  0.55828977911E+02  0.10566000000E+00 0.  1.
         13    1    4    4    0    0 -0.12291218142E+02 -0.25926537057E+01  0.13220705653E+02  0.18237163119E+02  0.10566000000E+00 0.  1.
        -13    1    4    4    0    0 -0.10340842876E+02 -0.23295386347E+01  0.11434638037E+02  0.15592366488E+02  0.10566000000E+00 0. -1.
        -14    1    4    4    0    0 -0.16220634735E+02 -0.49284927086E+01  0.19465445618E+02  0.25812837982E+02  0.00000000000E+00 0.  1.
<mgrwt>
<rscale>  0 0.80295714E+02</rscale>
<asrwt>0</asrwt>
<pdfrwt beam="1">  1        2 0.24990795E-02 0.80295714E+02</pdfrwt>
<pdfrwt beam="2">  1       -1 0.15265743E-01 0.80295714E+02</pdfrwt>
<totfact> 0.11764042E+05</totfact>
</mgrwt>
</event>
<event>
 8    1  0.2603554E-020  0.8901137E+02  0.7818608E-02  0.1305264E+00
          2   -1    0    0  501    0  0.00000000000E+00  0.00000000000E+00  0.55836828696E+03  0.55836828696E+03  0.25500000000E-02 0. -1.
         -1   -1    0    0    0  501 -0.00000000000E+00 -0.00000000000E+00 -0.35473988866E+01  0.35474024669E+01  0.50400000000E-02 0.  1.
         24    2    1    2    0    0  0.00000000000E+00  0.00000000000E+00  0.55482088807E+03  0.56191568943E+03  0.89011371117E+02 0.  0.
         66    2    3    3    0    0 -0.15612909427E+02 -0.37153019547E+02  0.39643323850E+03  0.39848139528E+03  0.19999995912E+01 0.  0.
        -13    1    3    3    0    0  0.15612909427E+02  0.37153019547E+02  0.15838764957E+03  0.16343429415E+03  0.10566000000E+00 0.  1.
         13    1    4    4    0    0 -0.44070599231E+01 -0.11426105332E+02  0.12775645183E+03  0.12834212172E+03  0.10566000000E+00 0. -1.
        -13    1    4    4    0    0 -0.21666096776E+01 -0.52742717319E+01  0.52123202381E+02  0.52434259128E+02  0.10566000000E+00 0.  1.
         14    1    4    4    0    0 -0.90392398259E+01 -0.20452642482E+02  0.21655358429E+03  0.21770501443E+03  0.00000000000E+00 0. -1.
<mgrwt>
<rscale>  0 0.89011371E+02</rscale>
<asrwt>0</asrwt>
<pdfrwt beam="1">  1        2 0.85902745E-01 0.89011371E+02</pdfrwt>
<pdfrwt beam="2">  1       -1 0.54575439E-03 0.89011371E+02</pdfrwt>
<totfact> 0.23826015E+05</totfact>
</mgrwt>
</event>
<event>
 8    1  0.2603554E-020  0.7456006E+02  0.7818608E-02  0.1345239E+00
         -1   -1    0    0    0  501 -0.00000000000E+00  0.00000000000E+00  0.31881033324E+01  0.31881073162E+01  0.50400000000E-02 0.  1.
          2   -1    0    0  501    0  0.00000000000E+00 -0.00000000000E+00 -0.43593313459E+03  0.43593313460E+03  0.25500000000E-02 0. -1.
         24    2    1    2    0    0  0.00000000000E+00  0.00000000000E+00 -0.43274503126E+03  0.43912124191E+03  0.74560063182E+02 0.  0.
         66    2    3    3    0    0 -0.26140795955E+02  0.23633301812E+01 -0.37222330805E+03  0.37315294130E+03  0.19999992810E+01 0.  0.
        -13    1    3    3    0    0  0.26140795955E+02 -0.23633301812E+01 -0.60521723206E+02  0.65968300619E+02  0.10566000000E+00 0.  1.
         13    1    4    4    0    0 -0.27453284741E+01  0.50762162829E+00 -0.44344079420E+02  0.44432004814E+02  0.10566000000E+00 0.  1.
        -13    1    4    4    0    0 -0.38655744445E+01 -0.19139381062E+00 -0.53499184546E+02  0.53639101489E+02  0.10566000000E+00 0.  1.
         14    1    4    4    0    0 -0.19529893037E+02  0.20471023635E+01 -0.27438004409E+03  0.27508183499E+03  0.00000000000E+00 0. -1.
<mgrwt>
<rscale>  0 0.74560063E+02</rscale>
<asrwt>0</asrwt>
<pdfrwt beam="1">  1        2 0.67066589E-01 0.74560063E+02</pdfrwt>
<pdfrwt beam="2">  1       -1 0.49047809E-03 0.74560063E+02</pdfrwt>
<totfact> 0.34953233E+05</totfact>
</mgrwt>
</event>
<event>
 8    1  0.2603554E-020  0.8288876E+02  0.7818608E-02  0.1321048E+00
          2   -1    0    0  501    0  0.00000000000E+00  0.00000000000E+00  0.39202580514E+03  0.39202580514E+03  0.25500000000E-02 0. -1.
         -1   -1    0    0    0  501 -0.00000000000E+00 -0.00000000000E+00 -0.43814360808E+01  0.43814389796E+01  0.50400000000E-02 0.  1.
         24    2    1    2    0    0  0.00000000000E+00  0.71054273576E-14  0.38764436905E+03  0.39640724412E+03  0.82888758789E+02 0.  0.
         66    2    3    3    0    0  0.18180659120E+01 -0.39924972208E+02  0.24595589020E+03  0.24918990489E+03  0.20000001982E+01 0.  0.
        -13    1    3    3    0    0 -0.18180659120E+01  0.39924972208E+02  0.14168847885E+03  0.14721733924E+03  0.10566000000E+00 0.  1.
         13    1    4    4    0    0  0.34206893041E+00 -0.16786766922E+02  0.99977824532E+02  0.10137795183E+03  0.10566000000E+00 0. -1.
        -13    1    4    4    0    0  0.19813208372E+00 -0.22101139926E+01  0.12160899490E+02  0.12362139808E+02  0.10566000000E+00 0.  1.
         14    1    4    4    0    0  0.12778648979E+01 -0.20928091294E+02  0.13381716618E+03  0.13544981325E+03  0.00000000000E+00 0. -1.
<mgrwt>
<rscale>  0 0.82888759E+02</rscale>
<asrwt>0</asrwt>
<pdfrwt beam="1">  1        2 0.60311665E-01 0.82888759E+02</pdfrwt>
<pdfrwt beam="2">  1       -1 0.67406729E-03 0.82888759E+02</pdfrwt>
<totfact> 0.25567383E+05</totfact>
</mgrwt>
</event>
<event>
 8    1  0.2603554E-020  0.8017432E+02  0.7818608E-02  0.1328557E+00
          2   -1    0    0  501    0  0.00000000000E+00  0.00000000000E+00  0.87704347133E+03  0.87704347133E+03  0.25500000000E-02 0. -1.
         -1   -1    0    0    0  501 -0.00000000000E+00 -0.00000000000E+00 -0.18322666894E+01  0.18322736211E+01  0.50400000000E-02 0.  1.
         24    2    1    2    0    0  0.00000000000E+00  0.00000000000E+00  0.87521120464E+03  0.87887574495E+03  0.80174324702E+02 0.  0.
         66    2    3    3    0    0 -0.80646914917E+01  0.15718928469E+02  0.83203168337E+03  0.83222163279E+03  0.19999959236E+01 0.  0.
        -13    1    3    3    0    0  0.80646914917E+01 -0.15718928469E+02  0.43179521266E+02  0.46654112165E+02  0.10566000000E+00 0.  1.
         13    1    4    4    0    0 -0.28556414944E+01  0.42432554214E+01  0.21665431188E+03  0.21671470169E+03  0.10566000000E+00 0. -1.
        -13    1    4    4    0    0 -0.44410709044E+00  0.62153017090E+00  0.34451134531E+02  0.34459764441E+02  0.10566000000E+00 0.  1.
         14    1    4    4    0    0 -0.47649429068E+01  0.10854142877E+02  0.58092623695E+03  0.58104716666E+03  0.00000000000E+00 0. -1.
<mgrwt>
<rscale>  0 0.80174325E+02</rscale>
<asrwt>0</asrwt>
<pdfrwt beam="1">  1        2 0.13492966E+00 0.80174325E+02</pdfrwt>
<pdfrwt beam="2">  1       -1 0.28188794E-03 0.80174325E+02</pdfrwt>
<totfact> 0.34644241E+05</totfact>
</mgrwt>
</event>
<event>
 8    1  0.2603554E-020  0.7746955E+02  0.7818608E-02  0.1336390E+00
          2   -1    0    0  501    0  0.00000000000E+00  0.00000000000E+00  0.24020091501E+03  0.24020091502E+03  0.25500000000E-02 0. -1.
         -1   -1    0    0    0  501 -0.00000000000E+00 -0.00000000000E+00 -0.62463642955E+01  0.62463663288E+01  0.50400000000E-02 0.  1.
         24    2    1    2    0    0 -0.35527136788E-14  0.00000000000E+00  0.23395455072E+03  0.24644728135E+03  0.77469546829E+02 0.  0.
         66    2    3    3    0    0 -0.31261148793E+02  0.32968543116E+01  0.18891451286E+03  0.19152237948E+03  0.19999995710E+01 0.  0.
        -13    1    3    3    0    0  0.31261148793E+02 -0.32968543116E+01  0.45040037851E+02  0.54924901874E+02  0.10566000000E+00 0.  1.
         13    1    4    4    0    0 -0.11849496670E+02  0.13858473178E+01  0.75250989446E+02  0.76190903137E+02  0.10566000000E+00 0. -1.
        -13    1    4    4    0    0 -0.27037724572E+01  0.38524790938E+00  0.13728338275E+02  0.13997758295E+02  0.10566000000E+00 0.  1.
        -14    1    4    4    0    0 -0.16707879666E+02  0.15257590845E+01  0.99935185143E+02  0.10133371805E+03  0.00000000000E+00 0.  1.
<mgrwt>
<rscale>  0 0.77469547E+02</rscale>
<asrwt>0</asrwt>
<pdfrwt beam="1">  1        2 0.36953988E-01 0.77469547E+02</pdfrwt>
<pdfrwt beam="2">  1       -1 0.96097926E-03 0.77469547E+02</pdfrwt>
<totfact> 0.25602081E+05</totfact>
</mgrwt>
</event>
<event>
 8    1  0.2603554E-020  0.7920584E+02  0.7818608E-02  0.1331320E+00
         -1   -1    0    0    0  501 -0.00000000000E+00  0.00000000000E+00  0.68283543984E+02  0.68283544170E+02  0.50400000000E-02 0.  1.
          2   -1    0    0  501    0  0.00000000000E+00 -0.00000000000E+00 -0.22968802782E+02  0.22968802924E+02  0.25500000000E-02 0. -1.
         24    2    1    2    0    0  0.00000000000E+00 -0.88817841970E-15  0.45314741202E+02  0.91252347094E+02  0.79205839936E+02 0.  0.
         66    2    3    3    0    0 -0.39385178740E+02 -0.38910996893E+01  0.22937913971E+02  0.45787343825E+02  0.19999990181E+01 0.  0.
        -13    1    3    3    0    0  0.39385178740E+02  0.38910996893E+01  0.22376827232E+02  0.45465003268E+02  0.10566000000E+00 0.  1.
         13    1    4    4    0    0 -0.28651735251E+01 -0.51799831825E+00  0.14726164450E+01  0.32645527743E+01  0.10566000000E+00 0. -1.
        -13    1    4    4    0    0 -0.71684432097E+01 -0.12271251878E+01  0.40065411909E+01  0.83039719790E+01  0.10566000000E+00 0.  1.
         14    1    4    4    0    0 -0.29351562005E+02 -0.21459761833E+01  0.17458756335E+02  0.34218819072E+02  0.00000000000E+00 0. -1.
<mgrwt>
<rscale>  0 0.79205840E+02</rscale>
<asrwt>0</asrwt>
<pdfrwt beam="1">  1        2 0.35336620E-02 0.79205840E+02</pdfrwt>
<pdfrwt beam="2">  1       -1 0.10505161E-01 0.79205840E+02</pdfrwt>
<totfact> 0.13131874E+05</totfact>
</mgrwt>
</event>
<event>
 8    1  0.2603554E-020  0.8192612E+02  0.7818608E-02  0.1323673E+00
          2   -1    0    0  501    0  0.00000000000E+00  0.00000000000E+00  0.59702277879E+03  0.59702277879E+03  0.25500000000E-02 0. -1.
         -1   -1    0    0    0  501 -0.00000000000E+00 -0.00000000000E+00 -0.28105640863E+01  0.28105686053E+01  0.50400000000E-02 0.  1.
         24    2    1    2    0    0  0.00000000000E+00  0.35527136788E-14  0.59421221470E+03  0.59983334740E+03  0.81926116415E+02 0.  0.
         66    2    3    3    0    0  0.18941201408E+02 -0.30522904023E+02  0.44104622910E+03  0.44251123487E+03  0.20000007511E+01 0.  0.
        -13    1    3    3    0    0 -0.18941201408E+02  0.30522904023E+02  0.15316598560E+03  0.15732211253E+03  0.10566000000E+00 0.  1.
         13    1    4    4    0    0  0.42498377072E+01 -0.71111667189E+01  0.10187169144E+03  0.10220803536E+03  0.10566000000E+00 0. -1.
        -13    1    4    4    0    0  0.47632428965E+01 -0.89339948660E+01  0.12915284263E+03  0.12954911297E+03  0.10566000000E+00 0.  1.
        -14    1    4    4    0    0  0.99281208045E+01 -0.14477742438E+02  0.21002169503E+03  0.21075408653E+03  0.00000000000E+00 0.  1.
<mgrwt>
<rscale>  0 0.81926116E+02</rscale>
<asrwt>0</asrwt>
<pdfrwt beam="1">  1        2 0.91849675E-01 0.81926116E+02</pdfrwt>
<pdfrwt beam="2">  1       -1 0.43239475E-03 0.81926116E+02</pdfrwt>
<totfact> 0.30188527E+05</totfact>
</mgrwt>
</event>
<event>
 8    1  0.2656745E-020  0.7930061E+02  0.7818608E-02  0.1331048E+00
         -1   -1    0    0    0  501 -0.00000000000E+00  0.00000000000E+00  0.91025038856E+01  0.91025052809E+01  0.50400000000E-02 0.  1.
          2   -1    0    0  501    0  0.00000000000E+00 -0.00000000000E+00 -0.17271581439E+03  0.17271581441E+03  0.25500000000E-02 0. -1.
         24    2    1    2    0    0  0.00000000000E+00  0.17763568394E-14 -0.16361331051E+03  0.18181831969E+03  0.79300605299E+02 0.  0.
         66    2    3    3    0    0 -0.72530928940E+01 -0.13154399165E+02 -0.16592851476E+03  0.16661907930E+03  0.20000002033E+01 0.  0.
        -13    1    3    3    0    0  0.72530928940E+01  0.13154399165E+02  0.23152042522E+01  0.15199240398E+02  0.10566000000E+00 0.  1.
         13    1    4    4    0    0 -0.25891352705E+01 -0.50886140921E+01 -0.64714099221E+02  0.64965555619E+02  0.10566000000E+00 0. -1.
        -13    1    4    4    0    0 -0.26966693648E+01 -0.60179480376E+01 -0.71953797244E+02  0.72255434579E+02  0.10566000000E+00 0.  1.
        -14    1    4    4    0    0 -0.19672882586E+01 -0.20478370349E+01 -0.29260618295E+02  0.29398089098E+02  0.00000000000E+00 0.  1.
<mgrwt>
<rscale>  0 0.79300605E+02</rscale>
<asrwt>0</asrwt>
<pdfrwt beam="1">  1        2 0.26571661E-01 0.79300605E+02</pdfrwt>
<pdfrwt beam="2">  1       -1 0.14003855E-02 0.79300605E+02</pdfrwt>
<totfact> 0.21473106E+05</totfact>
</mgrwt>
</event>
<event>
 8    1  0.2603554E-020  0.8010597E+02  0.7818608E-02  0.1328751E+00
          2   -1    0    0  501    0  0.00000000000E+00  0.00000000000E+00  0.72604202608E+02  0.72604202652E+02  0.25500000000E-02 0. -1.
         -1   -1    0    0    0  501 -0.00000000000E+00 -0.00000000000E+00 -0.22095714184E+02  0.22095714758E+02  0.50400000000E-02 0.  1.
         24    2    1    2    0    0  0.00000000000E+00 -0.17763568394E-14  0.50508488424E+02  0.94699917411E+02  0.80105973277E+02 0.  0.
         66    2    3    3    0    0 -0.19321848232E+02  0.98749426860E+01  0.65033988985E+02  0.68587666594E+02  0.19999933148E+01 0.  0.
        -13    1    3    3    0    0  0.19321848232E+02 -0.98749426860E+01 -0.14525500561E+02  0.26112250817E+02  0.10566000000E+00 0.  1.
         13    1    4    4    0    0 -0.11138238405E+02  0.60666708467E+01  0.40121756521E+02  0.42078870711E+02  0.10566000000E+00 0. -1.
        -13    1    4    4    0    0 -0.48149638821E+01  0.18205289459E+01  0.14002121977E+02  0.14918739448E+02  0.10566000000E+00 0.  1.
        -14    1    4    4    0    0 -0.33686459443E+01  0.19877428933E+01  0.10910110488E+02  0.11590056435E+02  0.00000000000E+00 0.  1.
<mgrwt>
<rscale>  0 0.80105973E+02</rscale>
<asrwt>0</asrwt>
<pdfrwt beam="1">  1        2 0.11169878E-01 0.80105973E+02</pdfrwt>
<pdfrwt beam="2">  1       -1 0.33993406E-02 0.80105973E+02</pdfrwt>
<totfact> 0.16233966E+05</totfact>
</mgrwt>
</event>
<event>
 8    1  0.2603554E-020  0.7949146E+02  0.7818608E-02  0.1330501E+00
         -1   -1    0    0    0  501 -0.00000000000E+00  0.00000000000E+00  0.92734971182E+02  0.92734971319E+02  0.50400000000E-02 0.  1.
          2   -1    0    0  501    0  0.00000000000E+00 -0.00000000000E+00 -0.17034816594E+02  0.17034816785E+02  0.25500000000E-02 0. -1.
         24    2    1    2    0    0  0.00000000000E+00  0.17763568394E-14  0.75700154588E+02  0.10976978810E+03  0.79491464799E+02 0.  0.
         66    2    3    3    0    0 -0.14793339688E+02  0.15862969206E+02 -0.80758187770E+01  0.23231348273E+02  0.20000006229E+01 0.  0.
        -13    1    3    3    0    0  0.14793339688E+02 -0.15862969206E+02  0.83775973365E+02  0.86538439831E+02  0.10566000000E+00 0.  1.
         13    1    4    4    0    0 -0.10400262754E+02  0.11644005618E+02 -0.54055675762E+01  0.16522096024E+02  0.10566000000E+00 0. -1.
        -13    1    4    4    0    0 -0.33153129081E+01  0.36337072877E+01 -0.22768268684E+01  0.54212759527E+01  0.10566000000E+00 0.  1.
        -14    1    4    4    0    0 -0.10777640263E+01  0.58525630079E+00 -0.39342433244E+00  0.12879762961E+01  0.00000000000E+00 0.  1.
<mgrwt>
<rscale>  0 0.79491465E+02</rscale>
<asrwt>0</asrwt>
<pdfrwt beam="1">  1        2 0.26207410E-02 0.79491465E+02</pdfrwt>
<pdfrwt beam="2">  1       -1 0.14266919E-01 0.79491465E+02</pdfrwt>
<totfact> 0.12236302E+05</totfact>
</mgrwt>
</event>
<event>
 8    1  0.2603554E-020  0.8041480E+02  0.7818608E-02  0.1327878E+00
          2   -1    0    0  501    0  0.00000000000E+00  0.00000000000E+00  0.31518570283E+02  0.31518570386E+02  0.25500000000E-02 0. -1.
         -1   -1    0    0    0  501 -0.00000000000E+00 -0.00000000000E+00 -0.51291506663E+02  0.51291506911E+02  0.50400000000E-02 0.  1.
         24    2    1    2    0    0 -0.71054273576E-14  0.35527136788E-14 -0.19772936380E+02  0.82810077297E+02  0.80414798942E+02 0.  0.
         66    2    3    3    0    0  0.24377486469E+02 -0.31897490079E+02 -0.11651749708E+02  0.41850627144E+02  0.20000002924E+01 0.  0.
        -13    1    3    3    0    0 -0.24377486469E+02  0.31897490079E+02 -0.81211866723E+01  0.40959450154E+02  0.10566000000E+00 0.  1.
         13    1    4    4    0    0  0.14251675536E+02 -0.17251973883E+02 -0.63059212078E+01  0.23249014275E+02  0.10566000000E+00 0. -1.
        -13    1    4    4    0    0  0.45637611369E+01 -0.60564167265E+01 -0.22882685461E+01  0.79218328848E+01  0.10566000000E+00 0.  1.
        -14    1    4    4    0    0  0.55620497962E+01 -0.85890994694E+01 -0.30575599542E+01  0.10679779984E+02  0.00000000000E+00 0.  1.
<mgrwt>
<rscale>  0 0.80414799E+02</rscale>
<asrwt>0</asrwt>
<pdfrwt beam="1">  1        2 0.48490108E-02 0.80414799E+02</pdfrwt>
<pdfrwt beam="2">  1       -1 0.78910011E-02 0.80414799E+02</pdfrwt>
<totfact> 0.13392136E+05</totfact>
</mgrwt>
</event>
<event>
 8    1  0.2603554E-020  0.8186572E+02  0.7818608E-02  0.1323839E+00
         -1   -1    0    0    0  501 -0.00000000000E+00  0.00000000000E+00  0.23369613281E+01  0.23369667628E+01  0.50400000000E-02 0.  1.
          2   -1    0    0  501    0  0.00000000000E+00 -0.00000000000E+00 -0.71695536798E+03  0.71695536798E+03  0.25500000000E-02 0. -1.
         24    2    1    2    0    0  0.00000000000E+00  0.44408920985E-15 -0.71461840665E+03  0.71929233474E+03  0.81865717492E+02 0.  0.
         66    2    3    3    0    0  0.10120661644E+02 -0.27961317604E+01 -0.70491183075E+03  0.70499286186E+03  0.20000007718E+01 0.  0.
        -13    1    3    3    0    0 -0.10120661644E+02  0.27961317604E+01 -0.97065758998E+01  0.14299472881E+02  0.10566000000E+00 0.  1.
         13    1    4    4    0    0  0.44883470322E+01 -0.98545817732E+00 -0.32300914516E+03  0.32304184777E+03  0.10566000000E+00 0. -1.
        -13    1    4    4    0    0  0.19878809632E+01 -0.45744986073E+00 -0.17396901042E+03  0.17398100092E+03  0.10566000000E+00 0.  1.
         14    1    4    4    0    0  0.36444336490E+01 -0.13532237224E+01 -0.20793367517E+03  0.20797001318E+03  0.00000000000E+00 0. -1.
<mgrwt>
<rscale>  0 0.81865717E+02</rscale>
<asrwt>0</asrwt>
<pdfrwt beam="1">  1        2 0.11030065E+00 0.81865717E+02</pdfrwt>
<pdfrwt beam="2">  1       -1 0.35953350E-03 0.81865717E+02</pdfrwt>
<totfact> 0.31673565E+05</totfact>
</mgrwt>
</event>
<event>
 8    1  0.2603554E-020  0.7623217E+02  0.7818608E-02  0.1340097E+00
         -1   -1    0    0    0  501 -0.00000000000E+00  0.00000000000E+00  0.32718837694E+01  0.32718876512E+01  0.50400000000E-02 0.  1.
          2   -1    0    0  501    0  0.00000000000E+00 -0.00000000000E+00 -0.44403629509E+03  0.44403629510E+03  0.25500000000E-02 0. -1.
         24    2    1    2    0    0 -0.35527136788E-14 -0.44408920985E-15 -0.44076441132E+03  0.44730818275E+03  0.76232172126E+02 0.  0.
         66    2    3    3    0    0 -0.29995045251E+02 -0.31699147527E+01 -0.35702299033E+03  0.35830038617E+03  0.20000006047E+01 0.  0.
        -13    1    3    3    0    0  0.29995045251E+02  0.31699147527E+01 -0.83741420986E+02  0.89007796580E+02  0.10566000000E+00 0.  1.
         13    1    4    4    0    0 -0.18733464802E+02 -0.26373251219E+01 -0.22022040161E+03  0.22103152408E+03  0.10566000000E+00 0. -1.
        -13    1    4    4    0    0 -0.59444544021E+00 -0.13072245932E+00 -0.61659115785E+01  0.61967800810E+01  0.10566000000E+00 0. -1.
        -14    1    4    4    0    0 -0.10667135008E+02 -0.40186717148E+00 -0.13063667714E+03  0.13107208201E+03  0.00000000000E+00 0.  1.
<mgrwt>
<rscale>  0 0.76232172E+02</rscale>
<asrwt>0</asrwt>
<pdfrwt beam="1">  1        2 0.68313228E-01 0.76232172E+02</pdfrwt>
<pdfrwt beam="2">  1       -1 0.50336739E-03 0.76232172E+02</pdfrwt>
<totfact> 0.33205402E+05</totfact>
</mgrwt>
</event>
<event>
 8    1  0.2603554E-020  0.8276464E+02  0.7818608E-02  0.1321384E+00
         -1   -1    0    0    0  501 -0.00000000000E+00  0.00000000000E+00  0.36464914915E+01  0.36464949745E+01  0.50400000000E-02 0.  1.
          2   -1    0    0  501    0  0.00000000000E+00 -0.00000000000E+00 -0.46962833910E+03  0.46962833911E+03  0.25500000000E-02 0. -1.
         24    2    1    2    0    0  0.00000000000E+00  0.00000000000E+00 -0.46598184761E+03  0.47327483408E+03  0.82764643866E+02 0.  0.
         66    2    3    3    0    0  0.10015333441E+02 -0.13588622981E+02 -0.44902893755E+03  0.44935058066E+03  0.20000001941E+01 0.  0.
        -13    1    3    3    0    0 -0.10015333441E+02  0.13588622981E+02 -0.16952910060E+02  0.23924253426E+02  0.10566000000E+00 0.  1.
         13    1    4    4    0    0  0.59571134718E+01 -0.76024416265E+01 -0.23632203677E+03  0.23651934497E+03  0.10566000000E+00 0. -1.
        -13    1    4    4    0    0  0.21550742605E+01 -0.38204376380E+01 -0.13139285184E+03  0.13146608980E+03  0.10566000000E+00 0.  1.
         14    1    4    4    0    0  0.19031457088E+01 -0.21657437167E+01 -0.81314048941E+02  0.81365145883E+02  0.00000000000E+00 0. -1.
<mgrwt>
<rscale>  0 0.82764644E+02</rscale>
<asrwt>0</asrwt>
<pdfrwt beam="1">  1        2 0.72250466E-01 0.82764644E+02</pdfrwt>
<pdfrwt beam="2">  1       -1 0.56099933E-03 0.82764644E+02</pdfrwt>
<totfact> 0.27305129E+05</totfact>
</mgrwt>
</event>
<event>
 8    1  0.2603554E-020  0.7996662E+02  0.7818608E-02  0.1329146E+00
          2   -1    0    0  501    0  0.00000000000E+00  0.00000000000E+00  0.33485775156E+02  0.33485775253E+02  0.25500000000E-02 0. -1.
         -1   -1    0    0    0  501 -0.00000000000E+00 -0.00000000000E+00 -0.47741622820E+02  0.47741623086E+02  0.50400000000E-02 0.  1.
         24    2    1    2    0    0  0.00000000000E+00 -0.17763568394E-14 -0.14255847664E+02  0.81227398339E+02  0.79966624590E+02 0.  0.
         66    2    3    3    0    0 -0.97867486990E+01 -0.11010924776E+02  0.30596740814E+02  0.34017370043E+02  0.20000004148E+01 0.  0.
        -13    1    3    3    0    0  0.97867486990E+01  0.11010924776E+02 -0.44852588478E+02  0.47210028296E+02  0.10566000000E+00 0.  1.
         13    1    4    4    0    0 -0.63546563495E+01 -0.68810002203E+01  0.20240002818E+02  0.22302437074E+02  0.10566000000E+00 0. -1.
        -13    1    4    4    0    0 -0.25336939996E+01 -0.36009009420E+01  0.78712889253E+01  0.90196699640E+01  0.10566000000E+00 0.  1.
         14    1    4    4    0    0 -0.89839835000E+00 -0.52902361387E+00  0.24854490708E+01  0.26952630044E+01  0.00000000000E+00 0. -1.
<mgrwt>
<rscale>  0 0.79966625E+02</rscale>
<asrwt>0</asrwt>
<pdfrwt beam="1">  1        2 0.51516577E-02 0.79966625E+02</pdfrwt>
<pdfrwt beam="2">  1       -1 0.73448651E-02 0.79966625E+02</pdfrwt>
<totfact> 0.13767781E+05</totfact>
</mgrwt>
</event>
<event>
 8    1  0.2603554E-020  0.7920657E+02  0.7818608E-02  0.1331318E+00
          2   -1    0    0  501    0  0.00000000000E+00  0.00000000000E+00  0.41002944078E+02  0.41002944157E+02  0.25500000000E-02 0. -1.
         -1   -1    0    0    0  501 -0.00000000000E+00 -0.00000000000E+00 -0.38251406115E+02  0.38251406447E+02  0.50400000000E-02 0.  1.
         24    2    1    2    0    0 -0.88817841970E-15 -0.71054273576E-14  0.27515379626E+01  0.79254350604E+02  0.79206572508E+02 0.  0.
         66    2    3    3    0    0  0.64447037480E+01  0.35115770856E+02  0.18468040964E+02  0.40245746427E+02  0.19999998212E+01 0.  0.
        -13    1    3    3    0    0 -0.64447037480E+01 -0.35115770856E+02 -0.15716503001E+02  0.39008604176E+02  0.10566000000E+00 0.  1.
         13    1    4    4    0    0  0.91059699146E-01  0.19033833174E+01  0.68607250817E+00  0.20280580475E+01  0.10566000000E+00 0.  1.
        -13    1    4    4    0    0  0.49463944577E+01  0.27289504266E+02  0.14872414203E+02  0.31470362716E+02  0.10566000000E+00 0. -1.
        -14    1    4    4    0    0  0.14072495912E+01  0.59228832721E+01  0.29095542525E+01  0.67473256639E+01  0.00000000000E+00 0.  1.
<mgrwt>
<rscale>  0 0.79206573E+02</rscale>
<asrwt>0</asrwt>
<pdfrwt beam="1">  1        2 0.63081452E-02 0.79206573E+02</pdfrwt>
<pdfrwt beam="2">  1       -1 0.58848318E-02 0.79206573E+02</pdfrwt>
<totfact> 0.14727692E+05</totfact>
</mgrwt>
</event>
<event>
 8    1  0.2603554E-020  0.8191840E+02  0.7818608E-02  0.1323694E+00
         -1   -1    0    0    0  501 -0.00000000000E+00  0.00000000000E+00  0.32346184006E+01  0.32346223271E+01  0.50400000000E-02 0.  1.
          2   -1    0    0  501    0  0.00000000000E+00 -0.00000000000E+00 -0.51865619437E+03  0.51865619437E+03  0.25500000000E-02 0. -1.
         24    2    1    2    0    0 -0.22204460493E-15 -0.35527136788E-14 -0.51542157597E+03  0.52189081670E+03  0.81918395885E+02 0.  0.
         66    2    3    3    0    0 -0.17897876597E+01 -0.24807199136E+02 -0.46499543488E+03  0.46566442310E+03  0.20000023884E+01 0.  0.
        -13    1    3    3    0    0  0.17897876597E+01  0.24807199136E+02 -0.50426141088E+02  0.56226393606E+02  0.10566000000E+00 0.  1.
         13    1    4    4    0    0 -0.68122032934E+00 -0.66609519477E+01 -0.12679739052E+03  0.12697409874E+03  0.10566000000E+00 0. -1.
        -13    1    4    4    0    0 -0.88100223782E+00 -0.39992292042E+01 -0.71599241117E+02  0.71716333508E+02  0.10566000000E+00 0.  1.
        -14    1    4    4    0    0 -0.22756509251E+00 -0.14147017984E+02 -0.26659880324E+03  0.26697399085E+03  0.00000000000E+00 0.  1.
<mgrwt>
<rscale>  0 0.81918396E+02</rscale>
<asrwt>0</asrwt>
<pdfrwt beam="1">  1        2 0.79793195E-01 0.81918396E+02</pdfrwt>
<pdfrwt beam="2">  1       -1 0.49763432E-03 0.81918396E+02</pdfrwt>
<totfact> 0.28958574E+05</totfact>
</mgrwt>
</event>
<event>
 8    1  0.2603554E-020  0.7717830E+02  0.7818608E-02  0.1337255E+00
         -1   -1    0    0    0  501 -0.00000000000E+00  0.00000000000E+00  0.10629740532E+02  0.10629741727E+02  0.50400000000E-02 0.  1.
          2   -1    0    0  501    0  0.00000000000E+00 -0.00000000000E+00 -0.14009020771E+03  0.14009020773E+03  0.25500000000E-02 0. -1.
         24    2    1    2    0    0  0.00000000000E+00  0.00000000000E+00 -0.12946046717E+03  0.15071994946E+03  0.77178303966E+02 0.  0.
         66    2    3    3    0    0 -0.31775663408E+02  0.22137720862E+01 -0.10722454161E+03  0.11187357097E+03  0.19999964472E+01 0.  0.
        -13    1    3    3    0    0  0.31775663408E+02 -0.22137720862E+01 -0.22235925563E+02  0.38846378487E+02  0.10566000000E+00 0.  1.
         13    1    4    4    0    0 -0.96826113460E+01  0.30291993100E+00 -0.35176522621E+02  0.36486211515E+02  0.10566000000E+00 0. -1.
        -13    1    4    4    0    0 -0.12794222642E+01 -0.12635328005E-01 -0.44410516837E+01  0.46228979088E+01  0.10566000000E+00 0.  1.
        -14    1    4    4    0    0 -0.20813629798E+02  0.19234874832E+01 -0.67606967307E+02  0.70764461546E+02  0.00000000000E+00 0.  1.
<mgrwt>
<rscale>  0 0.77178304E+02</rscale>
<asrwt>0</asrwt>
<pdfrwt beam="1">  1        2 0.21552338E-01 0.77178304E+02</pdfrwt>
<pdfrwt beam="2">  1       -1 0.16353449E-02 0.77178304E+02</pdfrwt>
<totfact> 0.21556214E+05</totfact>
</mgrwt>
</event>
<event>
 8    1  0.2603554E-020  0.7923616E+02  0.7818608E-02  0.1331233E+00
         -1   -1    0    0    0  501 -0.00000000000E+00  0.00000000000E+00  0.22549533242E+01  0.22549589566E+01  0.50400000000E-02 0.  1.
          2   -1    0    0  501    0  0.00000000000E+00 -0.00000000000E+00 -0.69606332180E+03  0.69606332180E+03  0.25500000000E-02 0. -1.
         24    2    1    2    0    0  0.00000000000E+00  0.00000000000E+00 -0.69380836847E+03  0.69831828076E+03  0.79236160169E+02 0.  0.
         66    2    3    3    0    0  0.35129538059E+02 -0.93255211961E+01 -0.48550400417E+03  0.48686670441E+03  0.20000012917E+01 0.  0.
        -13    1    3    3    0    0 -0.35129538059E+02  0.93255211961E+01 -0.20830436430E+03  0.21145157635E+03  0.10566000000E+00 0.  1.
         13    1    4    4    0    0  0.17861715549E+02 -0.43687736294E+01 -0.25302127640E+03  0.25368859757E+03  0.10566000000E+00 0. -1.
        -13    1    4    4    0    0  0.19863615603E+01 -0.26441346862E+00 -0.24747534067E+02  0.24828756577E+02  0.10566000000E+00 0.  1.
         14    1    4    4    0    0  0.15281460950E+02 -0.46923340981E+01 -0.20773519371E+03  0.20834935026E+03  0.00000000000E+00 0. -1.
<mgrwt>
<rscale>  0 0.79236160E+02</rscale>
<asrwt>0</asrwt>
<pdfrwt beam="1">  1        2 0.10708649E+00 0.79236160E+02</pdfrwt>
<pdfrwt beam="2">  1       -1 0.34691689E-03 0.79236160E+02</pdfrwt>
<totfact> 0.34251632E+05</totfact>
</mgrwt>
</event>
<event>
 8    1  0.2603554E-020  0.8091349E+02  0.7818608E-02  0.1326479E+00
          2   -1    0    0  501    0  0.00000000000E+00  0.00000000000E+00  0.18591225720E+03  0.18591225722E+03  0.25500000000E-02 0. -1.
         -1   -1    0    0    0  501 -0.00000000000E+00 -0.00000000000E+00 -0.88038729939E+01  0.88038744365E+01  0.50400000000E-02 0.  1.
         24    2    1    2    0    0  0.00000000000E+00 -0.44408920985E-15  0.17710838421E+03  0.19471613166E+03  0.80913485714E+02 0.  0.
         66    2    3    3    0    0 -0.31846699239E+02  0.32655187590E+01  0.14803717745E+03  0.15147237960E+03  0.20000026815E+01 0.  0.
        -13    1    3    3    0    0  0.31846699239E+02 -0.32655187590E+01  0.29071206764E+02  0.43243752057E+02  0.10566000000E+00 0.  1.
         13    1    4    4    0    0 -0.29038113186E+02  0.27170814387E+01  0.13599368469E+03  0.13908590148E+03  0.10566000000E+00 0. -1.
        -13    1    4    4    0    0 -0.21518763803E+01  0.35850011533E+00  0.98351577052E+01  0.10074749893E+02  0.10566000000E+00 0. -1.
         14    1    4    4    0    0 -0.65670967306E+00  0.18993720504E+00  0.22083350461E+01  0.23117282306E+01  0.00000000000E+00 0. -1.
<mgrwt>
<rscale>  0 0.80913486E+02</rscale>
<asrwt>0</asrwt>
<pdfrwt beam="1">  1        2 0.28601885E-01 0.80913486E+02</pdfrwt>
<pdfrwt beam="2">  1       -1 0.13544421E-02 0.80913486E+02</pdfrwt>
<totfact> 0.20873999E+05</totfact>
</mgrwt>
</event>
<event>
 8    1  0.2603554E-020  0.7909025E+02  0.7818608E-02  0.1331653E+00
         -1   -1    0    0    0  501 -0.00000000000E+00  0.00000000000E+00  0.27559448343E+01  0.27559494429E+01  0.50400000000E-02 0.  1.
          2   -1    0    0  501    0  0.00000000000E+00 -0.00000000000E+00 -0.56743362227E+03  0.56743362228E+03  0.25500000000E-02 0. -1.
         24    2    1    2    0    0  0.35527136788E-14 -0.17763568394E-14 -0.56467767744E+03  0.57018957172E+03  0.79090254157E+02 0.  0.
         66    2    3    3    0    0 -0.22460617525E+02  0.11396743125E+02 -0.50207262870E+03  0.50270795656E+03  0.20000008752E+01 0.  0.
        -13    1    3    3    0    0  0.22460617525E+02 -0.11396743125E+02 -0.62605048737E+02  0.67481615162E+02  0.10566000000E+00 0.  1.
         13    1    4    4    0    0 -0.16005267192E+02  0.82464853005E+01 -0.34802900741E+03  0.34849443935E+03  0.10566000000E+00 0. -1.
        -13    1    4    4    0    0 -0.15384142025E+01  0.39395334751E+00 -0.30927614513E+02  0.30968539213E+02  0.10566000000E+00 0.  1.
        -14    1    4    4    0    0 -0.49169361306E+01  0.27563044769E+01 -0.12311600678E+03  0.12324497800E+03  0.00000000000E+00 0.  1.
<mgrwt>
<rscale>  0 0.79090254E+02</rscale>
<asrwt>0</asrwt>
<pdfrwt beam="1">  1        2 0.87297387E-01 0.79090254E+02</pdfrwt>
<pdfrwt beam="2">  1       -1 0.42399232E-03 0.79090254E+02</pdfrwt>
<totfact> 0.32610820E+05</totfact>
</mgrwt>
</event>
<event>
 8    1  0.2603554E-020  0.7948233E+02  0.7818608E-02  0.1330527E+00
          2   -1    0    0  501    0  0.00000000000E+00  0.00000000000E+00  0.43719626569E+03  0.43719626569E+03  0.25500000000E-02 0. -1.
         -1   -1    0    0    0  501 -0.00000000000E+00 -0.00000000000E+00 -0.36124723014E+01  0.36124758172E+01  0.50400000000E-02 0.  1.
         24    2    1    2    0    0  0.00000000000E+00  0.00000000000E+00  0.43358379338E+03  0.44080874151E+03  0.79482329523E+02 0.  0.
         66    2    3    3    0    0 -0.17898512205E+02  0.35423098807E+02  0.22515960265E+03  0.22863945270E+03  0.19999989817E+01 0.  0.
        -13    1    3    3    0    0  0.17898512205E+02 -0.35423098807E+02  0.20842419074E+03  0.21216928881E+03  0.10566000000E+00 0.  1.
         13    1    4    4    0    0 -0.10212683942E+02  0.20268717330E+02  0.12918979217E+03  0.13116833986E+03  0.10566000000E+00 0. -1.
        -13    1    4    4    0    0 -0.36583825212E+01  0.60038801647E+01  0.37804731922E+02  0.38453078673E+02  0.10566000000E+00 0.  1.
        -14    1    4    4    0    0 -0.40274457417E+01  0.91505013124E+01  0.58165078553E+02  0.59018034164E+02  0.00000000000E+00 0.  1.
<mgrwt>
<rscale>  0 0.79482330E+02</rscale>
<asrwt>0</asrwt>
<pdfrwt beam="1">  1        2 0.67260915E-01 0.79482330E+02</pdfrwt>
<pdfrwt beam="2">  1       -1 0.55576564E-03 0.79482330E+02</pdfrwt>
<totfact> 0.29630808E+05</totfact>
</mgrwt>
</event>
<event>
 8    1  0.2603554E-020  0.8162652E+02  0.7818608E-02  0.1324498E+00
         -1   -1    0    0    0  501 -0.00000000000E+00  0.00000000000E+00  0.18233683854E+02  0.18233684550E+02  0.50400000000E-02 0.  1.
          2   -1    0    0  501    0  0.00000000000E+00 -0.00000000000E+00 -0.91354120194E+02  0.91354120230E+02  0.25500000000E-02 0. -1.
         24    2    1    2    0    0  0.00000000000E+00  0.00000000000E+00 -0.73120436341E+02  0.10958780478E+03  0.81626519869E+02 0.  0.
         66    2    3    3    0    0  0.26260014783E+02 -0.27438831069E+02 -0.16612836424E+02  0.41502579957E+02  0.19999955380E+01 0.  0.
        -13    1    3    3    0    0 -0.26260014783E+02  0.27438831069E+02 -0.56507599917E+02  0.68085224824E+02  0.10566000000E+00 0.  1.
         13    1    4    4    0    0  0.12799642913E+02 -0.13939041828E+02 -0.87790917967E+01  0.20861720030E+02  0.10566000000E+00 0. -1.
        -13    1    4    4    0    0  0.26444221941E+01 -0.29825421785E+01 -0.20530499577E+01  0.44849420010E+01  0.10566000000E+00 0.  1.
         14    1    4    4    0    0  0.10815949676E+02 -0.10517247063E+02 -0.57806946694E+01  0.16155917926E+02  0.00000000000E+00 0. -1.
<mgrwt>
<rscale>  0 0.81626520E+02</rscale>
<asrwt>0</asrwt>
<pdfrwt beam="1">  1        2 0.14054480E-01 0.81626520E+02</pdfrwt>
<pdfrwt beam="2">  1       -1 0.28051822E-02 0.81626520E+02</pdfrwt>
<totfact> 0.16379430E+05</totfact>
</mgrwt>
</event>
<event>
 8    1  0.2603554E-020  0.8099654E+02  0.7818608E-02  0.1326247E+00
          2   -1    0    0  501    0  0.00000000000E+00  0.00000000000E+00  0.23471179805E+03  0.23471179806E+03  0.25500000000E-02 0. -1.
         -1   -1    0    0    0  501 -0.00000000000E+00 -0.00000000000E+00 -0.69877599334E+01  0.69877617510E+01  0.50400000000E-02 0.  1.
         24    2    1    2    0    0 -0.35527136788E-14 -0.35527136788E-14  0.22772403811E+03  0.24169955981E+03  0.80996541151E+02 0.  0.
         66    2    3    3    0    0 -0.16240250424E+02 -0.23216577230E+02  0.20017816121E+03  0.20218321268E+03  0.20000180376E+01 0.  0.
        -13    1    3    3    0    0  0.16240250424E+02  0.23216577230E+02  0.27545876901E+02  0.39516347129E+02  0.10566000000E+00 0.  1.
         13    1    4    4    0    0 -0.10634082748E+02 -0.14748700341E+02  0.12826044249E+03  0.12954288923E+03  0.10566000000E+00 0. -1.
        -13    1    4    4    0    0 -0.29621521483E+01 -0.36055573399E+01  0.35076688964E+02  0.35385868109E+02  0.10566000000E+00 0.  1.
         14    1    4    4    0    0 -0.26440155276E+01 -0.48623195491E+01  0.36841029762E+02  0.37254455350E+02  0.00000000000E+00 0. -1.
<mgrwt>
<rscale>  0 0.80996541E+02</rscale>
<asrwt>0</asrwt>
<pdfrwt beam="1">  1        2 0.36109502E-01 0.80996541E+02</pdfrwt>
<pdfrwt beam="2">  1       -1 0.10750403E-02 0.80996541E+02</pdfrwt>
<totfact> 0.22588050E+05</totfact>
</mgrwt>
</event>
<event>
 8    1  0.2603554E-020  0.8042230E+02  0.7818608E-02  0.1327857E+00
         -1   -1    0    0    0  501 -0.00000000000E+00  0.00000000000E+00  0.69517500265E+01  0.69517518535E+01  0.50400000000E-02 0.  1.
          2   -1    0    0  501    0  0.00000000000E+00 -0.00000000000E+00 -0.23259413445E+03  0.23259413447E+03  0.25500000000E-02 0. -1.
         24    2    1    2    0    0 -0.35527136788E-14  0.00000000000E+00 -0.22564238443E+03  0.23954588632E+03  0.80422297924E+02 0.  0.
         66    2    3    3    0    0 -0.18709949730E+02 -0.34672293547E+02 -0.13647658104E+03  0.14206367350E+03  0.19999993208E+01 0.  0.
        -13    1    3    3    0    0  0.18709949730E+02  0.34672293547E+02 -0.89165803386E+02  0.97482212820E+02  0.10566000000E+00 0.  1.
         13    1    4    4    0    0 -0.58421945979E+01 -0.10745333605E+02 -0.44346215073E+02  0.46002080251E+02  0.10566000000E+00 0. -1.
        -13    1    4    4    0    0 -0.79265292668E+01 -0.13460264266E+02 -0.53749194715E+02  0.55973169259E+02  0.10566000000E+00 0.  1.
        -14    1    4    4    0    0 -0.49412258657E+01 -0.10466695676E+02 -0.38381171253E+02  0.40088423993E+02  0.00000000000E+00 0.  1.
<mgrwt>
<rscale>  0 0.80422298E+02</rscale>
<asrwt>0</asrwt>
<pdfrwt beam="1">  1        2 0.35783707E-01 0.80422298E+02</pdfrwt>
<pdfrwt beam="2">  1       -1 0.10695003E-02 0.80422298E+02</pdfrwt>
<totfact> 0.22941230E+05</totfact>
</mgrwt>
</event>
<event>
 8    1  0.2603554E-020  0.8122088E+02  0.7818608E-02  0.1325622E+00
          2   -1    0    0  501    0  0.00000000000E+00  0.00000000000E+00  0.10664370153E+02  0.10664370458E+02  0.25500000000E-02 0. -1.
         -1   -1    0    0    0  501 -0.00000000000E+00 -0.00000000000E+00 -0.15464652142E+03  0.15464652150E+03  0.50400000000E-02 0.  1.
         24    2    1    2    0    0  0.00000000000E+00  0.00000000000E+00 -0.14398215127E+03  0.16531089196E+03  0.81220878578E+02 0.  0.
         66    2    3    3    0    0  0.35679744879E+02  0.18301980256E+02 -0.59292085641E+02  0.71606969652E+02  0.20000018187E+01 0.  0.
        -13    1    3    3    0    0 -0.35679744879E+02 -0.18301980256E+02 -0.84690065626E+02  0.93703922307E+02  0.10566000000E+00 0.  1.
         13    1    4    4    0    0  0.19928660678E+02  0.11193762798E+02 -0.33215704940E+02  0.40320541424E+02  0.10566000000E+00 0. -1.
        -13    1    4    4    0    0  0.78978343143E+01  0.34122879317E+01 -0.12642222798E+02  0.15292365974E+02  0.10566000000E+00 0.  1.
        -14    1    4    4    0    0  0.78532498866E+01  0.36959295257E+01 -0.13434157903E+02  0.15994062254E+02  0.00000000000E+00 0.  1.
<mgrwt>
<rscale>  0 0.81220879E+02</rscale>
<asrwt>0</asrwt>
<pdfrwt beam="1">  1        2 0.16406725E-02 0.81220879E+02</pdfrwt>
<pdfrwt beam="2">  1       -1 0.23791771E-01 0.81220879E+02</pdfrwt>
<totfact> 0.10300647E+05</totfact>
</mgrwt>
</event>
<event>
 8    1  0.2603554E-020  0.7924623E+02  0.7818608E-02  0.1331204E+00
         -1   -1    0    0    0  501 -0.00000000000E+00  0.00000000000E+00  0.44969506536E+01  0.44969534779E+01  0.50400000000E-02 0.  1.
          2   -1    0    0  501    0  0.00000000000E+00 -0.00000000000E+00 -0.34912343370E+03  0.34912343371E+03  0.25500000000E-02 0. -1.
         24    2    1    2    0    0  0.44408920985E-15  0.00000000000E+00 -0.34462648304E+03  0.35362038719E+03  0.79246232828E+02 0.  0.
         66    2    3    3    0    0  0.18363368474E+01 -0.20282829161E+02 -0.32395839023E+03  0.32460407253E+03  0.20000020212E+01 0.  0.
        -13    1    3    3    0    0 -0.18363368474E+01  0.20282829161E+02 -0.20668092813E+02  0.29016314658E+02  0.10566000000E+00 0.  1.
         13    1    4    4    0    0 -0.11584373176E+00 -0.10267550679E+01 -0.21650602662E+02  0.21675502426E+02  0.10566000000E+00 0.  1.
        -13    1    4    4    0    0  0.44159133661E+00 -0.19449028756E+01 -0.28416838571E+02  0.28486936102E+02  0.10566000000E+00 0. -1.
         14    1    4    4    0    0  0.15105892425E+01 -0.17311171217E+02 -0.27389094900E+03  0.27444163400E+03  0.00000000000E+00 0. -1.
<mgrwt>
<rscale>  0 0.79246233E+02</rscale>
<asrwt>0</asrwt>
<pdfrwt beam="1">  1        2 0.53711276E-01 0.79246233E+02</pdfrwt>
<pdfrwt beam="2">  1       -1 0.69183906E-03 0.79246233E+02</pdfrwt>
<totfact> 0.27600427E+05</totfact>
</mgrwt>
</event>
<event>
 8    1  0.2603554E-020  0.8020259E+02  0.7818608E-02  0.1328477E+00
          2   -1    0    0  501    0  0.00000000000E+00  0.00000000000E+00  0.51481918777E+02  0.51481918840E+02  0.25500000000E-02 0. -1.
         -1   -1    0    0    0  501 -0.00000000000E+00 -0.00000000000E+00 -0.31236478123E+02  0.31236478529E+02  0.50400000000E-02 0.  1.
         24    2    1    2    0    0 -0.17763568394E-14  0.00000000000E+00  0.20245440655E+02  0.82718397370E+02  0.80202589709E+02 0.  0.
         66    2    3    3    0    0  0.11962728467E+02 -0.13080723680E+02  0.47199426532E+02  0.50457883996E+02  0.19999970021E+01 0.  0.
        -13    1    3    3    0    0 -0.11962728467E+02  0.13080723680E+02 -0.26953985878E+02  0.32260513373E+02  0.10566000000E+00 0.  1.
         13    1    4    4    0    0  0.64359603461E+01 -0.67568353988E+01  0.23729307321E+02  0.25498384265E+02  0.10566000000E+00 0. -1.
        -13    1    4    4    0    0  0.41707738904E+01 -0.55099547355E+01  0.19047403396E+02  0.20262519493E+02  0.10566000000E+00 0.  1.
         14    1    4    4    0    0  0.13559942306E+01 -0.81393354605E+00  0.44227158152E+01  0.46969802376E+01  0.00000000000E+00 0. -1.
<mgrwt>
<rscale>  0 0.80202590E+02</rscale>
<asrwt>0</asrwt>
<pdfrwt beam="1">  1        2 0.79202951E-02 0.80202590E+02</pdfrwt>
<pdfrwt beam="2">  1       -1 0.48056121E-02 0.80202590E+02</pdfrwt>
<totfact> 0.14934995E+05</totfact>
</mgrwt>
</event>
<event>
 8    1  0.2603554E-020  0.7987961E+02  0.7818608E-02  0.1329393E+00
         -1   -1    0    0    0  501 -0.00000000000E+00  0.00000000000E+00  0.42355003179E+02  0.42355003479E+02  0.50400000000E-02 0.  1.
          2   -1    0    0  501    0  0.00000000000E+00 -0.00000000000E+00 -0.37662324802E+02  0.37662324888E+02  0.25500000000E-02 0. -1.
         24    2    1    2    0    0  0.00000000000E+00  0.00000000000E+00  0.46926783774E+01  0.80017328368E+02  0.79879606964E+02 0.  0.
         66    2    3    3    0    0 -0.20050975844E+02 -0.28928739256E+01 -0.32102949740E+02  0.38013283748E+02  0.20000018684E+01 0.  0.
        -13    1    3    3    0    0  0.20050975844E+02  0.28928739256E+01  0.36795628117E+02  0.42004044620E+02  0.10566000000E+00 0.  1.
         13    1    4    4    0    0 -0.10513157282E+02 -0.17507655812E+01 -0.18159117537E+02  0.21056029301E+02  0.10566000000E+00 0. -1.
        -13    1    4    4    0    0 -0.25742166293E+01 -0.39022528209E+00 -0.31215377704E+01  0.40662057392E+01  0.10566000000E+00 0.  1.
         14    1    4    4    0    0 -0.69636019324E+01 -0.75188306229E+00 -0.10822294432E+02  0.12891048708E+02  0.00000000000E+00 0. -1.
<mgrwt>
<rscale>  0 0.79879607E+02</rscale>
<asrwt>0</asrwt>
<pdfrwt beam="1">  1        2 0.57942038E-02 0.79879607E+02</pdfrwt>
<pdfrwt beam="2">  1       -1 0.65161544E-02 0.79879607E+02</pdfrwt>
<totfact> 0.14139790E+05</totfact>
</mgrwt>
</event>
<event>
 8    1  0.2603554E-020  0.8095890E+02  0.7818608E-02  0.1326352E+00
          2   -1    0    0  501    0  0.00000000000E+00  0.00000000000E+00  0.18140634251E+03  0.18140634253E+03  0.25500000000E-02 0. -1.
         -1   -1    0    0    0  501 -0.00000000000E+00 -0.00000000000E+00 -0.90326821160E+01  0.90326835220E+01  0.50400000000E-02 0.  1.
         24    2    1    2    0    0 -0.35527136788E-14 -0.35527136788E-14  0.17237366039E+03  0.19043902605E+03  0.80958902199E+02 0.  0.
         66    2    3    3    0    0  0.24803194200E+02  0.26482993877E+02  0.12832057857E+03  0.13336685604E+03  0.19999996396E+01 0.  0.
        -13    1    3    3    0    0 -0.24803194200E+02 -0.26482993877E+02  0.44053081821E+02  0.57072170006E+02  0.10566000000E+00 0.  1.
         13    1    4    4    0    0  0.95431628556E+01  0.10448628175E+02  0.52890436471E+02  0.54750846771E+02  0.10566000000E+00 0. -1.
        -13    1    4    4    0    0  0.76096380695E+01  0.86139121567E+01  0.38733705111E+02  0.40403182422E+02  0.10566000000E+00 0.  1.
         14    1    4    4    0    0  0.76503932747E+01  0.74204535453E+01  0.36696436991E+02  0.38212826851E+02  0.00000000000E+00 0. -1.
<mgrwt>
<rscale>  0 0.80958902E+02</rscale>
<asrwt>0</asrwt>
<pdfrwt beam="1">  1        2 0.27908667E-01 0.80958902E+02</pdfrwt>
<pdfrwt beam="2">  1       -1 0.13896436E-02 0.80958902E+02</pdfrwt>
<totfact> 0.20669012E+05</totfact>
</mgrwt>
</event>
<event>
 8    1  0.2603554E-020  0.8090547E+02  0.7818608E-02  0.1326501E+00
          2   -1    0    0  501    0  0.00000000000E+00  0.00000000000E+00  0.11184283013E+04  0.11184283013E+04  0.25500000000E-02 0. -1.
         -1   -1    0    0    0  501 -0.00000000000E+00 -0.00000000000E+00 -0.14631415505E+01  0.14631502310E+01  0.50400000000E-02 0.  1.
         24    2    1    2    0    0  0.00000000000E+00 -0.35527136788E-14  0.11169651597E+04  0.11198914515E+04  0.80905470300E+02 0.  0.
         66    2    3    3    0    0  0.15693073746E+02 -0.23610800516E+02  0.95776877009E+03  0.95819035658E+03  0.20000046966E+01 0.  0.
        -13    1    3    3    0    0 -0.15693073746E+02  0.23610800516E+02  0.15919638965E+03  0.16170109495E+03  0.10566000000E+00 0.  1.
         13    1    4    4    0    0  0.70720415645E+00 -0.15453527217E+01  0.55598189566E+02  0.55624258196E+02  0.10566000000E+00 0.  1.
        -13    1    4    4    0    0  0.12869048826E+02 -0.19042338299E+02  0.75853669707E+03  0.75888481012E+03  0.10566000000E+00 0. -1.
        -14    1    4    4    0    0  0.21168207632E+01 -0.30231094949E+01  0.14363388346E+03  0.14368128827E+03  0.00000000000E+00 0.  1.
<mgrwt>
<rscale>  0 0.80905470E+02</rscale>
<asrwt>0</asrwt>
<pdfrwt beam="1">  1        2 0.17206633E+00 0.80905470E+02</pdfrwt>
<pdfrwt beam="2">  1       -1 0.22509879E-03 0.80905470E+02</pdfrwt>
<totfact> 0.34214195E+05</totfact>
</mgrwt>
</event>
<event>
 8    1  0.2603554E-020  0.8031470E+02  0.7818608E-02  0.1328161E+00
         -1   -1    0    0    0  501 -0.00000000000E+00  0.00000000000E+00  0.21274798281E+02  0.21274798878E+02  0.50400000000E-02 0.  1.
          2   -1    0    0  501    0  0.00000000000E+00 -0.00000000000E+00 -0.75799206878E+02  0.75799206921E+02  0.25500000000E-02 0. -1.
         24    2    1    2    0    0  0.00000000000E+00  0.17763568394E-14 -0.54524408597E+02  0.97074005799E+02  0.80314702696E+02 0.  0.
         66    2    3    3    0    0  0.37134530711E+02 -0.14086604999E+02 -0.34243573369E+02  0.52478835062E+02  0.20000002029E+01 0.  0.
        -13    1    3    3    0    0 -0.37134530711E+02  0.14086604999E+02 -0.20280835228E+02  0.44595170738E+02  0.10566000000E+00 0.  1.
         13    1    4    4    0    0  0.23406541230E+02 -0.80581367345E+01 -0.21018279032E+02  0.32474281478E+02  0.10566000000E+00 0. -1.
        -13    1    4    4    0    0  0.12854223675E+02 -0.56953809079E+01 -0.12178883457E+02  0.18601204162E+02  0.10566000000E+00 0. -1.
         14    1    4    4    0    0  0.87376580603E+00 -0.33308735676E+00 -0.10464108802E+01  0.14033494223E+01  0.00000000000E+00 0. -1.
<mgrwt>
<rscale>  0 0.80314703E+02</rscale>
<asrwt>0</asrwt>
<pdfrwt beam="1">  1        2 0.11661416E-01 0.80314703E+02</pdfrwt>
<pdfrwt beam="2">  1       -1 0.32730460E-02 0.80314703E+02</pdfrwt>
<totfact> 0.16294547E+05</totfact>
</mgrwt>
</event>
<event>
 8    1  0.2603554E-020  0.7736178E+02  0.7818608E-02  0.1336710E+00
         -1   -1    0    0    0  501 -0.00000000000E+00  0.00000000000E+00  0.50203349897E+02  0.50203350150E+02  0.50400000000E-02 0.  1.
          2   -1    0    0  501    0  0.00000000000E+00 -0.00000000000E+00 -0.29803012808E+02  0.29803012917E+02  0.25500000000E-02 0. -1.
         24    2    1    2    0    0  0.00000000000E+00  0.00000000000E+00  0.20400337089E+02  0.80006363067E+02  0.77361775948E+02 0.  0.
         66    2    3    3    0    0  0.19692092541E+02 -0.10171846150E+02 -0.22545209763E+02  0.31678564429E+02  0.19999995751E+01 0.  0.
        -13    1    3    3    0    0 -0.19692092541E+02  0.10171846150E+02  0.42945546852E+02  0.48327798638E+02  0.10566000000E+00 0.  1.
         13    1    4    4    0    0  0.78701927454E+01 -0.36930413026E+01 -0.88730245651E+01  0.12422568852E+02  0.10566000000E+00 0. -1.
        -13    1    4    4    0    0  0.78942078956E+01 -0.44884977298E+01 -0.82336027328E+01  0.12258405613E+02  0.10566000000E+00 0.  1.
        -14    1    4    4    0    0  0.39276919002E+01 -0.19903071176E+01 -0.54385824647E+01  0.69975899645E+01  0.00000000000E+00 0.  1.
<mgrwt>
<rscale>  0 0.77361776E+02</rscale>
<asrwt>0</asrwt>
<pdfrwt beam="1">  1        2 0.45850789E-02 0.77361776E+02</pdfrwt>
<pdfrwt beam="2">  1       -1 0.77235923E-02 0.77361776E+02</pdfrwt>
<totfact> 0.14758547E+05</totfact>
</mgrwt>
</event>
<event>
 8    1  0.2603554E-020  0.8025192E+02  0.7818608E-02  0.1328338E+00
         -1   -1    0    0    0  501 -0.00000000000E+00  0.00000000000E+00  0.25404390637E+02  0.25404391137E+02  0.50400000000E-02 0.  1.
          2   -1    0    0  501    0  0.00000000000E+00 -0.00000000000E+00 -0.63378516892E+02  0.63378516943E+02  0.25500000000E-02 0. -1.
         24    2    1    2    0    0  0.00000000000E+00  0.00000000000E+00 -0.37974126255E+02  0.88782908081E+02  0.80251918995E+02 0.  0.
         66    2    3    3    0    0  0.17025622251E+02  0.24016488371E+01 -0.59077647816E+02  0.61561418105E+02  0.19999993562E+01 0.  0.
        -13    1    3    3    0    0 -0.17025622251E+02 -0.24016488371E+01  0.21103521562E+02  0.27221489976E+02  0.10566000000E+00 0.  1.
         13    1    4    4    0    0  0.65941198464E+00  0.80287034078E-01 -0.36450844367E+01  0.37066257917E+01  0.10566000000E+00 0. -1.
        -13    1    4    4    0    0  0.14012537248E+01 -0.80401981667E-01 -0.49135962914E+01  0.51112199160E+01  0.10566000000E+00 0.  1.
         14    1    4    4    0    0  0.14964956541E+02  0.24017637847E+01 -0.50518967088E+02  0.52743572397E+02  0.00000000000E+00 0. -1.
<mgrwt>
<rscale>  0 0.80251919E+02</rscale>
<asrwt>0</asrwt>
<pdfrwt beam="1">  1        2 0.97505410E-02 0.80251919E+02</pdfrwt>
<pdfrwt beam="2">  1       -1 0.39083679E-02 0.80251919E+02</pdfrwt>
<totfact> 0.15632250E+05</totfact>
</mgrwt>
</event>
<event>
 8    1  0.2603554E-020  0.8102790E+02  0.7818608E-02  0.1326159E+00
          2   -1    0    0  501    0  0.00000000000E+00  0.00000000000E+00  0.12081229766E+04  0.12081229766E+04  0.25500000000E-02 0. -1.
         -1   -1    0    0    0  501 -0.00000000000E+00 -0.00000000000E+00 -0.13586153638E+01  0.13586247121E+01  0.50400000000E-02 0.  1.
         24    2    1    2    0    0  0.00000000000E+00  0.17763568394E-14  0.12067643612E+04  0.12094816013E+04  0.81027898708E+02 0.  0.
         66    2    3    3    0    0  0.17941596320E+02 -0.14558112025E+02  0.11000565125E+04  0.11003009453E+04  0.20000016464E+01 0.  0.
        -13    1    3    3    0    0 -0.17941596320E+02  0.14558112025E+02  0.10670784874E+03  0.10918065603E+03  0.10566000000E+00 0.  1.
         13    1    4    4    0    0  0.71086720552E+01 -0.61499276337E+01  0.45718081699E+03  0.45727744905E+03  0.10566000000E+00 0. -1.
        -13    1    4    4    0    0  0.98740895522E+01 -0.80123196206E+01  0.60481220733E+03  0.60494587544E+03  0.10566000000E+00 0.  1.
        -14    1    4    4    0    0  0.95883471289E+00 -0.39586477036E+00  0.38063488168E+02  0.38077620782E+02  0.00000000000E+00 0.  1.
<mgrwt>
<rscale>  0 0.81027899E+02</rscale>
<asrwt>0</asrwt>
<pdfrwt beam="1">  1        2 0.18586517E+00 0.81027899E+02</pdfrwt>
<pdfrwt beam="2">  1       -1 0.20901836E-03 0.81027899E+02</pdfrwt>
<totfact> 0.33869000E+05</totfact>
</mgrwt>
</event>
<event>
 8    1  0.2603554E-020  0.8589252E+02  0.7818608E-02  0.1313115E+00
         -1   -1    0    0    0  501 -0.00000000000E+00  0.00000000000E+00  0.35210221764E+02  0.35210222125E+02  0.50400000000E-02 0.  1.
          2   -1    0    0  501    0  0.00000000000E+00 -0.00000000000E+00 -0.52381977657E+02  0.52381977719E+02  0.25500000000E-02 0. -1.
         24    2    1    2    0    0  0.35527136788E-14  0.00000000000E+00 -0.17171755893E+02  0.87592199844E+02  0.85892515815E+02 0.  0.
         66    2    3    3    0    0 -0.20765202986E+02 -0.11328504871E+01 -0.46882173089E+02  0.51326554127E+02  0.19999999484E+01 0.  0.
        -13    1    3    3    0    0  0.20765202986E+02  0.11328504871E+01  0.29710417196E+02  0.36265645716E+02  0.10566000000E+00 0.  1.
         13    1    4    4    0    0 -0.17792494858E+02 -0.10647225147E+01 -0.39651012251E+02  0.43473215246E+02  0.10566000000E+00 0. -1.
        -13    1    4    4    0    0 -0.10485424858E+01 -0.26306250119E+00 -0.32615154984E+01  0.34376286312E+01  0.10566000000E+00 0.  1.
        -14    1    4    4    0    0 -0.19241656422E+01  0.19493452875E+00 -0.39696453398E+01  0.44157102501E+01  0.00000000000E+00 0.  1.
<mgrwt>
<rscale>  0 0.85892516E+02</rscale>
<asrwt>0</asrwt>
<pdfrwt beam="1">  1        2 0.80587658E-02 0.85892516E+02</pdfrwt>
<pdfrwt beam="2">  1       -1 0.54169572E-02 0.85892516E+02</pdfrwt>
<totfact> 0.12417672E+05</totfact>
</mgrwt>
</event>
<event>
 8    1  0.2603554E-020  0.7549101E+02  0.7818608E-02  0.1342357E+00
         -1   -1    0    0    0  501 -0.00000000000E+00  0.00000000000E+00  0.50616139489E+01  0.50616164582E+01  0.50400000000E-02 0.  1.
          2   -1    0    0  501    0  0.00000000000E+00 -0.00000000000E+00 -0.28147595626E+03  0.28147595627E+03  0.25500000000E-02 0. -1.
         24    2    1    2    0    0 -0.35527136788E-14  0.00000000000E+00 -0.27641434231E+03  0.28653757273E+03  0.75491005759E+02 0.  0.
         66    2    3    3    0    0 -0.31487694323E+02 -0.18461351879E+02 -0.17439688248E+03  0.17818689353E+03  0.20000007250E+01 0.  0.
        -13    1    3    3    0    0  0.31487694323E+02  0.18461351879E+02 -0.10201745983E+03  0.10835067919E+03  0.10566000000E+00 0.  1.
         13    1    4    4    0    0 -0.43416157013E+01 -0.26058834483E+01 -0.24998612262E+02  0.25506509649E+02  0.10566000000E+00 0. -1.
        -13    1    4    4    0    0 -0.29451575537E+01 -0.11190852339E+01 -0.14701658251E+02  0.15035831342E+02  0.10566000000E+00 0.  1.
        -14    1    4    4    0    0 -0.24200921068E+02 -0.14736383197E+02 -0.13469661196E+03  0.13764455254E+03  0.00000000000E+00 0.  1.
<mgrwt>
<rscale>  0 0.75491006E+02</rscale>
<asrwt>0</asrwt>
<pdfrwt beam="1">  1        2 0.43303981E-01 0.75491006E+02</pdfrwt>
<pdfrwt beam="2">  1       -1 0.77871026E-03 0.75491006E+02</pdfrwt>
<totfact> 0.28996227E+05</totfact>
</mgrwt>
</event>
<event>
 8    1  0.2603554E-020  0.8090534E+02  0.7818608E-02  0.1326502E+00
         -1   -1    0    0    0  501 -0.00000000000E+00  0.00000000000E+00  0.28990003072E+01  0.28990046883E+01  0.50400000000E-02 0.  1.
          2   -1    0    0  501    0  0.00000000000E+00 -0.00000000000E+00 -0.56447646487E+03  0.56447646487E+03  0.25500000000E-02 0. -1.
         24    2    1    2    0    0 -0.71054273576E-14  0.44408920985E-15 -0.56157746456E+03  0.56737546956E+03  0.80905344435E+02 0.  0.
         66    2    3    3    0    0  0.33512704617E+02 -0.20908085206E+01 -0.43885615590E+03  0.44014338393E+03  0.19999985192E+01 0.  0.
        -13    1    3    3    0    0 -0.33512704617E+02  0.20908085206E+01 -0.12272130865E+03  0.12723208563E+03  0.10566000000E+00 0.  1.
         13    1    4    4    0    0  0.19676179578E+02 -0.10146806489E+01 -0.25265874264E+03  0.25342579390E+03  0.10566000000E+00 0. -1.
        -13    1    4    4    0    0  0.13408745964E+00 -0.69143434701E-01 -0.19931685942E+01  0.20016606461E+01  0.10566000000E+00 0. -1.
         14    1    4    4    0    0  0.13702437580E+02 -0.10069844370E+01 -0.18420424467E+03  0.18471592938E+03  0.00000000000E+00 0. -1.
<mgrwt>
<rscale>  0 0.80905344E+02</rscale>
<asrwt>0</asrwt>
<pdfrwt beam="1">  1        2 0.86842446E-01 0.80905344E+02</pdfrwt>
<pdfrwt beam="2">  1       -1 0.44600083E-03 0.80905344E+02</pdfrwt>
<totfact> 0.30693196E+05</totfact>
</mgrwt>
</event>
<event>
 8    1  0.2603554E-020  0.8186540E+02  0.7818608E-02  0.1323840E+00
          2   -1    0    0  501    0  0.00000000000E+00  0.00000000000E+00  0.83813581581E+03  0.83813581581E+03  0.25500000000E-02 0. -1.
         -1   -1    0    0    0  501 -0.00000000000E+00 -0.00000000000E+00 -0.19990591972E+01  0.19990655506E+01  0.50400000000E-02 0.  1.
         24    2    1    2    0    0  0.35527136788E-14  0.00000000000E+00  0.83613675661E+03  0.84013488136E+03  0.81865396391E+02 0.  0.
         66    2    3    3    0    0 -0.23586734410E+02  0.15092164323E+02  0.72436601485E+03  0.72490980882E+03  0.19999982718E+01 0.  0.
        -13    1    3    3    0    0  0.23586734410E+02 -0.15092164323E+02  0.11177074176E+03  0.11522507254E+03  0.10566000000E+00 0.  1.
         13    1    4    4    0    0 -0.12470243025E+02  0.71960457021E+01  0.36753266774E+03  0.36781457700E+03  0.10566000000E+00 0. -1.
        -13    1    4    4    0    0 -0.10756216639E+02  0.76620379775E+01  0.33998153222E+03  0.34023794091E+03  0.10566000000E+00 0.  1.
        -14    1    4    4    0    0 -0.36027474573E+00  0.23408064356E+00  0.16851814892E+02  0.16857290909E+02  0.00000000000E+00 0.  1.
<mgrwt>
<rscale>  0 0.81865396E+02</rscale>
<asrwt>0</asrwt>
<pdfrwt beam="1">  1        2 0.12894382E+00 0.81865396E+02</pdfrwt>
<pdfrwt beam="2">  1       -1 0.30754841E-03 0.81865396E+02</pdfrwt>
<totfact> 0.32610120E+05</totfact>
</mgrwt>
</event>
<event>
 8    1  0.2603554E-020  0.7960745E+02  0.7818608E-02  0.1330169E+00
         -1   -1    0    0    0  501 -0.00000000000E+00  0.00000000000E+00  0.30948353090E+01  0.30948394129E+01  0.50400000000E-02 0.  1.
          2   -1    0    0  501    0  0.00000000000E+00 -0.00000000000E+00 -0.51192880090E+03  0.51192880090E+03  0.25500000000E-02 0. -1.
         24    2    1    2    0    0  0.17763568394E-14 -0.17763568394E-14 -0.50883396559E+03  0.51502364032E+03  0.79607446565E+02 0.  0.
         66    2    3    3    0    0  0.11430622163E+02 -0.10057625059E+02 -0.49232869937E+03  0.49256813048E+03  0.20000003874E+01 0.  0.
        -13    1    3    3    0    0 -0.11430622163E+02  0.10057625059E+02 -0.16505266222E+02  0.22455509835E+02  0.10566000000E+00 0.  1.
         13    1    4    4    0    0  0.91654853424E+01 -0.74411850688E+01 -0.36162142849E+03  0.36181410429E+03  0.10566000000E+00 0. -1.
        -13    1    4    4    0    0  0.22405546140E+01 -0.24668531141E+01 -0.12255093749E+03  0.12259628417E+03  0.10566000000E+00 0.  1.
         14    1    4    4    0    0  0.24582206151E-01 -0.14958687620E+00 -0.81563333881E+01  0.81577420195E+01  0.00000000000E+00 0. -1.
<mgrwt>
<rscale>  0 0.79607447E+02</rscale>
<asrwt>0</asrwt>
<pdfrwt beam="1">  1        2 0.78758210E-01 0.79607447E+02</pdfrwt>
<pdfrwt beam="2">  1       -1 0.47612923E-03 0.79607447E+02</pdfrwt>
<totfact> 0.31075047E+05</totfact>
</mgrwt>
</event>
<event>
 8    1  0.2603554E-020  0.7940393E+02  0.7818608E-02  0.1330752E+00
          2   -1    0    0  501    0  0.00000000000E+00  0.00000000000E+00  0.64858396061E+01  0.64858401074E+01  0.25500000000E-02 0. -1.
         -1   -1    0    0    0  501 -0.00000000000E+00 -0.00000000000E+00 -0.24302879264E+03  0.24302879269E+03  0.50400000000E-02 0.  1.
         24    2    1    2    0    0  0.00000000000E+00  0.00000000000E+00 -0.23654295303E+03  0.24951463280E+03  0.79403925288E+02 0.  0.
         66    2    3    3    0    0  0.39444539688E+02 -0.28825213730E+00 -0.10490892746E+03  0.11209744809E+03  0.20000017916E+01 0.  0.
        -13    1    3    3    0    0 -0.39444539688E+02  0.28825213730E+00 -0.13163402557E+03  0.13741718470E+03  0.10566000000E+00 0.  1.
         13    1    4    4    0    0  0.66830829393E+01 -0.32419627101E+00 -0.18703805476E+02  0.19864848455E+02  0.10566000000E+00 0. -1.
        -13    1    4    4    0    0  0.67582585277E+01  0.24587882645E+00 -0.19369870734E+02  0.20516763171E+02  0.10566000000E+00 0.  1.
         14    1    4    4    0    0  0.26003198221E+02 -0.20993469274E+00 -0.66835251253E+02  0.71715836469E+02  0.00000000000E+00 0. -1.
<mgrwt>
<rscale>  0 0.79403925E+02</rscale>
<asrwt>0</asrwt>
<pdfrwt beam="1">  1        2 0.99782170E-03 0.79403925E+02</pdfrwt>
<pdfrwt beam="2">  1       -1 0.37389038E-01 0.79403925E+02</pdfrwt>
<totfact> 0.95329874E+04</totfact>
</mgrwt>
</event>
<event>
 8    1  0.2603554E-020  0.7858529E+02  0.7818608E-02  0.1333115E+00
         -1   -1    0    0    0  501 -0.00000000000E+00  0.00000000000E+00  0.14583312597E+01  0.14583399689E+01  0.50400000000E-02 0.  1.
          2   -1    0    0  501    0  0.00000000000E+00 -0.00000000000E+00 -0.10586809315E+04  0.10586809315E+04  0.25500000000E-02 0. -1.
         24    2    1    2    0    0  0.00000000000E+00  0.00000000000E+00 -0.10572226002E+04  0.10601392714E+04  0.78585294159E+02 0.  0.
         66    2    3    3    0    0  0.10894151685E+02  0.50923310845E+01 -0.10332253044E+04  0.10332972196E+04  0.19999990555E+01 0.  0.
        -13    1    3    3    0    0 -0.10894151685E+02 -0.50923310845E+01 -0.23997295768E+02  0.26842051803E+02  0.10566000000E+00 0.  1.
         13    1    4    4    0    0  0.60433552524E+01  0.33582311185E+01 -0.63770314742E+03  0.63774063322E+03  0.10566000000E+00 0. -1.
        -13    1    4    4    0    0  0.18730091565E+01  0.43664482425E+00 -0.17303647510E+03  0.17304719501E+03  0.10566000000E+00 0.  1.
         14    1    4    4    0    0  0.29777872756E+01  0.12974551418E+01 -0.22248568191E+03  0.22250939141E+03  0.00000000000E+00 0. -1.
<mgrwt>
<rscale>  0 0.78585294E+02</rscale>
<asrwt>0</asrwt>
<pdfrwt beam="1">  1        2 0.16287337E+00 0.78585294E+02</pdfrwt>
<pdfrwt beam="2">  1       -1 0.22436017E-03 0.78585294E+02</pdfrwt>
<totfact> 0.36944136E+05</totfact>
</mgrwt>
</event>
<event>
 8    1  0.2603554E-020  0.7827297E+02  0.7818608E-02  0.1334025E+00
         -1   -1    0    0    0  501 -0.00000000000E+00  0.00000000000E+00  0.36104753386E+02  0.36104753738E+02  0.50400000000E-02 0.  1.
          2   -1    0    0  501    0  0.00000000000E+00 -0.00000000000E+00 -0.42422794412E+02  0.42422794489E+02  0.25500000000E-02 0. -1.
         24    2    1    2    0    0  0.00000000000E+00  0.00000000000E+00 -0.63180410259E+01  0.78527548227E+02  0.78272972271E+02 0.  0.
         66    2    3    3    0    0 -0.21689417638E+02  0.22396907754E+02 -0.26851588770E+02  0.41195389685E+02  0.19999993412E+01 0.  0.
        -13    1    3    3    0    0  0.21689417638E+02 -0.22396907754E+02  0.20533547745E+02  0.37332158542E+02  0.10566000000E+00 0.  1.
         13    1    4    4    0    0 -0.20523037164E+02  0.21508313855E+02 -0.25674842202E+02  0.39281182587E+02  0.10566000000E+00 0. -1.
        -13    1    4    4    0    0 -0.12659138066E+00  0.15178592219E+00 -0.98214636324E-01  0.24469265257E+00  0.10566000000E+00 0. -1.
         14    1    4    4    0    0 -0.10397890933E+01  0.73680797700E+00 -0.10785319324E+01  0.16695144452E+01  0.00000000000E+00 0. -1.
<mgrwt>
<rscale>  0 0.78272972E+02</rscale>
<asrwt>0</asrwt>
<pdfrwt beam="1">  1        2 0.65265838E-02 0.78272972E+02</pdfrwt>
<pdfrwt beam="2">  1       -1 0.55545775E-02 0.78272972E+02</pdfrwt>
<totfact> 0.15323149E+05</totfact>
</mgrwt>
</event>
<event>
 8    1  0.2603554E-020  0.7803548E+02  0.7818608E-02  0.1334721E+00
         -1   -1    0    0    0  501 -0.00000000000E+00  0.00000000000E+00  0.74831273066E+01  0.74831290039E+01  0.50400000000E-02 0.  1.
          2   -1    0    0  501    0  0.00000000000E+00 -0.00000000000E+00 -0.20344217112E+03  0.20344217114E+03  0.25500000000E-02 0. -1.
         24    2    1    2    0    0  0.44408920985E-15 -0.35527136788E-14 -0.19595904382E+03  0.21092530014E+03  0.78035475182E+02 0.  0.
         66    2    3    3    0    0  0.20139906685E+01  0.19868308688E+02 -0.18856491829E+03  0.18962999303E+03  0.19999998014E+01 0.  0.
        -13    1    3    3    0    0 -0.20139906685E+01 -0.19868308688E+02 -0.73941255246E+01  0.21295307109E+02  0.10566000000E+00 0.  1.
         13    1    4    4    0    0  0.82900007582E+00  0.10144492814E+02 -0.97467805965E+02  0.97997869055E+02  0.10566000000E+00 0. -1.
        -13    1    4    4    0    0 -0.51281485121E-01  0.11630220444E+01 -0.77959778619E+01  0.78831265958E+01  0.10566000000E+00 0.  1.
        -14    1    4    4    0    0  0.12362720778E+01  0.85607938300E+01 -0.83301134465E+02  0.83748997384E+02  0.00000000000E+00 0.  1.
<mgrwt>
<rscale>  0 0.78035475E+02</rscale>
<asrwt>0</asrwt>
<pdfrwt beam="1">  1        2 0.31298791E-01 0.78035475E+02</pdfrwt>
<pdfrwt beam="2">  1       -1 0.11512506E-02 0.78035475E+02</pdfrwt>
<totfact> 0.23692012E+05</totfact>
</mgrwt>
</event>
<event>
 8    1  0.2603554E-020  0.7866758E+02  0.7818608E-02  0.1332876E+00
          2   -1    0    0  501    0  0.00000000000E+00  0.00000000000E+00  0.22931978155E+02  0.22931978297E+02  0.25500000000E-02 0. -1.
         -1   -1    0    0    0  501 -0.00000000000E+00 -0.00000000000E+00 -0.67466800496E+02  0.67466800684E+02  0.50400000000E-02 0.  1.
         24    2    1    2    0    0 -0.35527136788E-14  0.00000000000E+00 -0.44534822341E+02  0.90398778981E+02  0.78667584432E+02 0.  0.
         66    2    3    3    0    0  0.19553426146E+02  0.22586440058E+02  0.70751069487E+01  0.30765904542E+02  0.19999988578E+01 0.  0.
        -13    1    3    3    0    0 -0.19553426146E+02 -0.22586440058E+02 -0.51609929290E+02  0.59632874439E+02  0.10566000000E+00 0.  1.
         13    1    4    4    0    0  0.12268032397E+02  0.13089051644E+02  0.41493975066E+01  0.18413488413E+02  0.10566000000E+00 0. -1.
        -13    1    4    4    0    0  0.20583080834E+01  0.27204914492E+01  0.44724439492E+00  0.34422227522E+01  0.10566000000E+00 0.  1.
        -14    1    4    4    0    0  0.52270856656E+01  0.67768969650E+01  0.24784650471E+01  0.89101933772E+01  0.00000000000E+00 0.  1.
<mgrwt>
<rscale>  0 0.78667584E+02</rscale>
<asrwt>0</asrwt>
<pdfrwt beam="1">  1        2 0.35279967E-02 0.78667584E+02</pdfrwt>
<pdfrwt beam="2">  1       -1 0.10379508E-01 0.78667584E+02</pdfrwt>
<totfact> 0.13384369E+05</totfact>
</mgrwt>
</event>
<event>
 8    1  0.2603554E-020  0.8138829E+02  0.7818608E-02  0.1325157E+00
         -1   -1    0    0    0  501 -0.00000000000E+00  0.00000000000E+00  0.92207393080E+03  0.92207393081E+03  0.50400000000E-02 0.  1.
          2   -1    0    0  501    0  0.00000000000E+00 -0.00000000000E+00 -0.17959651690E+01  0.17959669793E+01  0.25500000000E-02 0. -1.
         24    2    1    2    0    0  0.35527136788E-14 -0.17763568394E-14  0.92027796563E+03  0.92386989779E+03  0.81388291677E+02 0.  0.
         66    2    3    3    0    0  0.30810087937E+02 -0.13998489373E+02  0.71646199211E+03  0.71726355363E+03  0.19999998716E+01 0.  0.
        -13    1    3    3    0    0 -0.30810087937E+02  0.13998489373E+02  0.20381597351E+03  0.20660634416E+03  0.10566000000E+00 0.  1.
         13    1    4    4    0    0  0.14452712307E+02 -0.67016035427E+01  0.34486468826E+03  0.34523246770E+03  0.10566000000E+00 0. -1.
        -13    1    4    4    0    0  0.65569936912E+01 -0.22264920201E+01  0.14197392851E+03  0.14214274155E+03  0.10566000000E+00 0.  1.
        -14    1    4    4    0    0  0.98003819383E+01 -0.50703938100E+01  0.22962337534E+03  0.22988834438E+03  0.00000000000E+00 0.  1.
<mgrwt>
<rscale>  0 0.81388292E+02</rscale>
<asrwt>0</asrwt>
<pdfrwt beam="1">  1        2 0.27630163E-03 0.81388292E+02</pdfrwt>
<pdfrwt beam="2">  1       -1 0.14185796E+00 0.81388292E+02</pdfrwt>
<totfact> 0.38139084E+04</totfact>
</mgrwt>
</event>
<event>
 8    1  0.2603554E-020  0.7907212E+02  0.7818608E-02  0.1331705E+00
         -1   -1    0    0    0  501 -0.00000000000E+00  0.00000000000E+00  0.25359785948E+01  0.25359836031E+01  0.50400000000E-02 0.  1.
          2   -1    0    0  501    0  0.00000000000E+00 -0.00000000000E+00 -0.61636892284E+03  0.61636892285E+03  0.25500000000E-02 0. -1.
         24    2    1    2    0    0  0.00000000000E+00  0.44408920985E-15 -0.61383294425E+03  0.61890490645E+03  0.79072117622E+02 0.  0.
         66    2    3    3    0    0 -0.28813681600E+02 -0.37645972420E+01 -0.51665259878E+03  0.51747300245E+03  0.19999999751E+01 0.  0.
        -13    1    3    3    0    0  0.28813681600E+02  0.37645972420E+01 -0.97180345465E+02  0.10143190400E+03  0.10566000000E+00 0.  1.
         13    1    4    4    0    0 -0.14926578718E+02 -0.24056643302E+01 -0.26882131183E+03  0.26924616771E+03  0.10566000000E+00 0. -1.
        -13    1    4    4    0    0 -0.12113369927E+02 -0.10041676965E+01 -0.20857736432E+03  0.20893125701E+03  0.10566000000E+00 0.  1.
        -14    1    4    4    0    0 -0.17737329547E+01 -0.35476521536E+00 -0.39253922636E+02  0.39295577732E+02  0.00000000000E+00 0.  1.
<mgrwt>
<rscale>  0 0.79072118E+02</rscale>
<asrwt>0</asrwt>
<pdfrwt beam="1">  1        2 0.94825869E-01 0.79072118E+02</pdfrwt>
<pdfrwt beam="2">  1       -1 0.39015143E-03 0.79072118E+02</pdfrwt>
<totfact> 0.33399991E+05</totfact>
</mgrwt>
</event>
<event>
 8    1  0.2603554E-020  0.7986039E+02  0.7818608E-02  0.1329448E+00
          2   -1    0    0  501    0  0.00000000000E+00  0.00000000000E+00  0.32144302633E+03  0.32144302634E+03  0.25500000000E-02 0. -1.
         -1   -1    0    0    0  501 -0.00000000000E+00 -0.00000000000E+00 -0.49601953885E+01  0.49601979491E+01  0.50400000000E-02 0.  1.
         24    2    1    2    0    0  0.35527136788E-14  0.35527136788E-14  0.31648283094E+03  0.32640322429E+03  0.79860394099E+02 0.  0.
         66    2    3    3    0    0 -0.29317847730E+02 -0.19308763126E+02  0.23589454423E+03  0.23850073486E+03  0.20000003794E+01 0.  0.
        -13    1    3    3    0    0  0.29317847730E+02  0.19308763126E+02  0.80588286710E+02  0.87902489429E+02  0.10566000000E+00 0.  1.
         13    1    4    4    0    0 -0.32875509004E+01 -0.24109265126E+01  0.28386801908E+02  0.28678253855E+02  0.10566000000E+00 0. -1.
        -13    1    4    4    0    0 -0.20987575111E+02 -0.13096213714E+02  0.16168757714E+03  0.16356916851E+03  0.10566000000E+00 0.  1.
        -14    1    4    4    0    0 -0.50427217193E+01 -0.38016228987E+01  0.45820165184E+02  0.46253312492E+02  0.00000000000E+00 0.  1.
<mgrwt>
<rscale>  0 0.79860394E+02</rscale>
<asrwt>0</asrwt>
<pdfrwt beam="1">  1        2 0.49452779E-01 0.79860394E+02</pdfrwt>
<pdfrwt beam="2">  1       -1 0.76310709E-03 0.79860394E+02</pdfrwt>
<totfact> 0.26258470E+05</totfact>
</mgrwt>
</event>
<event>
 8    1  0.2603554E-020  0.7879498E+02  0.7818608E-02  0.1332506E+00
         -1   -1    0    0    0  501 -0.00000000000E+00  0.00000000000E+00  0.13600574853E+02  0.13600575786E+02  0.50400000000E-02 0.  1.
          2   -1    0    0  501    0  0.00000000000E+00 -0.00000000000E+00 -0.11412475295E+03  0.11412475298E+03  0.25500000000E-02 0. -1.
         24    2    1    2    0    0 -0.35527136788E-14 -0.88817841970E-15 -0.10052417810E+03  0.12772532877E+03  0.78794982240E+02 0.  0.
         66    2    3    3    0    0 -0.29413132580E+02 -0.72035884489E+01 -0.91081783348E+02  0.96004767024E+02  0.19999946628E+01 0.  0.
        -13    1    3    3    0    0  0.29413132580E+02  0.72035884489E+01 -0.94423947524E+01  0.31720561745E+02  0.10566000000E+00 0.  1.
         13    1    4    4    0    0 -0.87696804473E+01 -0.16948862905E+01 -0.26687198466E+02  0.28142452997E+02  0.10566000000E+00 0. -1.
        -13    1    4    4    0    0 -0.36407541111E+01 -0.15489801314E+01 -0.11899825493E+02  0.12540791073E+02  0.10566000000E+00 0.  1.
        -14    1    4    4    0    0 -0.17002698021E+02 -0.39597220270E+01 -0.52494759390E+02  0.55321522954E+02  0.00000000000E+00 0.  1.
<mgrwt>
<rscale>  0 0.78794982E+02</rscale>
<asrwt>0</asrwt>
<pdfrwt beam="1">  1        2 0.17557654E-01 0.78794982E+02</pdfrwt>
<pdfrwt beam="2">  1       -1 0.20923963E-02 0.78794982E+02</pdfrwt>
<totfact> 0.19171243E+05</totfact>
</mgrwt>
</event>
<event>
 8    1  0.2603554E-020  0.7850189E+02  0.7818608E-02  0.1333357E+00
         -1   -1    0    0    0  501 -0.00000000000E+00  0.00000000000E+00  0.22112891710E+01  0.22112949146E+01  0.50400000000E-02 0.  1.
          2   -1    0    0  501    0  0.00000000000E+00 -0.00000000000E+00 -0.69671340427E+03  0.69671340427E+03  0.25500000000E-02 0. -1.
         24    2    1    2    0    0  0.00000000000E+00  0.00000000000E+00 -0.69450211510E+03  0.69892469919E+03  0.78501893351E+02 0.  0.
         66    2    3    3    0    0 -0.24534742174E+02  0.78359167786E+01 -0.61088017348E+03  0.61142615378E+03  0.20000011536E+01 0.  0.
        -13    1    3    3    0    0  0.24534742174E+02 -0.78359167786E+01 -0.83621941617E+02  0.87498545411E+02  0.10566000000E+00 0.  1.
         13    1    4    4    0    0 -0.13531914267E+02  0.45061813607E+01 -0.32703150200E+03  0.32734237862E+03  0.10566000000E+00 0. -1.
        -13    1    4    4    0    0 -0.10263619138E+02  0.28277569365E+01 -0.25766185050E+03  0.25788171408E+03  0.10566000000E+00 0.  1.
         14    1    4    4    0    0 -0.73920876992E+00  0.50197848137E+00 -0.26186820978E+02  0.26202061082E+02  0.00000000000E+00 0. -1.
<mgrwt>
<rscale>  0 0.78501893E+02</rscale>
<asrwt>0</asrwt>
<pdfrwt beam="1">  1        2 0.10718650E+00 0.78501893E+02</pdfrwt>
<pdfrwt beam="2">  1       -1 0.34019933E-03 0.78501893E+02</pdfrwt>
<totfact> 0.35097051E+05</totfact>
</mgrwt>
</event>
<event>
 8    1  0.2603554E-020  0.7949867E+02  0.7818608E-02  0.1330480E+00
         -1   -1    0    0    0  501 -0.00000000000E+00  0.00000000000E+00  0.85557874082E+01  0.85557888927E+01  0.50400000000E-02 0.  1.
          2   -1    0    0  501    0  0.00000000000E+00 -0.00000000000E+00 -0.18467144871E+03  0.18467144873E+03  0.25500000000E-02 0. -1.
         24    2    1    2    0    0  0.00000000000E+00 -0.88817841970E-15 -0.17611566130E+03  0.19322723762E+03  0.79498674219E+02 0.  0.
         66    2    3    3    0    0  0.23121323662E+02 -0.63986469361E+01 -0.16506957097E+03  0.16681577106E+03  0.19999802708E+01 0.  0.
        -13    1    3    3    0    0 -0.23121323662E+02  0.63986469361E+01 -0.11046090327E+02  0.26411466564E+02  0.10566000000E+00 0.  1.
         13    1    4    4    0    0  0.11540139506E+01 -0.66522369837E+00 -0.10112381341E+02  0.10200278976E+02  0.10566000000E+00 0.  1.
        -13    1    4    4    0    0  0.41363762986E+01 -0.10569248095E+01 -0.26324799157E+02  0.26668950366E+02  0.10566000000E+00 0.  1.
         14    1    4    4    0    0  0.17830933413E+02 -0.46764984283E+01 -0.12863239048E+03  0.12994654171E+03  0.00000000000E+00 0. -1.
<mgrwt>
<rscale>  0 0.79498674E+02</rscale>
<asrwt>0</asrwt>
<pdfrwt beam="1">  1        2 0.28410989E-01 0.79498674E+02</pdfrwt>
<pdfrwt beam="2">  1       -1 0.13162752E-02 0.79498674E+02</pdfrwt>
<totfact> 0.21820222E+05</totfact>
</mgrwt>
</event>
<event>
 8    1  0.2603554E-020  0.7862375E+02  0.7818608E-02  0.1333003E+00
         -1   -1    0    0    0  501 -0.00000000000E+00  0.00000000000E+00  0.34572427860E+01  0.34572464597E+01  0.50400000000E-02 0.  1.
          2   -1    0    0  501    0  0.00000000000E+00 -0.00000000000E+00 -0.44701022161E+03  0.44701022162E+03  0.25500000000E-02 0. -1.
         24    2    1    2    0    0  0.35527136788E-14  0.00000000000E+00 -0.44355297883E+03  0.45046746808E+03  0.78623754502E+02 0.  0.
         66    2    3    3    0    0  0.21302315780E+02  0.16782661476E+02 -0.38477714837E+03  0.38573682778E+03  0.20000033605E+01 0.  0.
        -13    1    3    3    0    0 -0.21302315780E+02 -0.16782661476E+02 -0.58775830456E+02  0.64730640300E+02  0.10566000000E+00 0.  1.
         13    1    4    4    0    0  0.46360508658E+01  0.34041369932E+01 -0.74000205260E+02  0.74223464342E+02  0.10566000000E+00 0. -1.
        -13    1    4    4    0    0  0.30339014411E+01  0.19299039943E+01 -0.55481946159E+02  0.55598440635E+02  0.10566000000E+00 0.  1.
         14    1    4    4    0    0  0.13632363473E+02  0.11448620489E+02 -0.25529499695E+03  0.25591492280E+03  0.00000000000E+00 0. -1.
<mgrwt>
<rscale>  0 0.78623755E+02</rscale>
<asrwt>0</asrwt>
<pdfrwt beam="1">  1        2 0.68770758E-01 0.78623755E+02</pdfrwt>
<pdfrwt beam="2">  1       -1 0.53188414E-03 0.78623755E+02</pdfrwt>
<totfact> 0.30710946E+05</totfact>
</mgrwt>
</event>
<event>
 8    1  0.2603554E-020  0.8218835E+02  0.7818608E-02  0.1322953E+00
          2   -1    0    0  501    0  0.00000000000E+00  0.00000000000E+00  0.84309408011E+03  0.84309408012E+03  0.25500000000E-02 0. -1.
         -1   -1    0    0    0  501 -0.00000000000E+00 -0.00000000000E+00 -0.20030130663E+01  0.20030194072E+01  0.50400000000E-02 0.  1.
         24    2    1    2    0    0  0.00000000000E+00  0.71054273576E-14  0.84109106705E+03  0.84509709952E+03  0.82188348068E+02 0.  0.
         66    2    3    3    0    0  0.97646901666E+01 -0.33496163683E+02  0.64356581255E+03  0.64451400083E+03  0.20000052822E+01 0.  0.
        -13    1    3    3    0    0 -0.97646901666E+01  0.33496163683E+02  0.19752525449E+03  0.20058309870E+03  0.10566000000E+00 0.  1.
         13    1    4    4    0    0  0.38060318057E+01 -0.11902932911E+02  0.22236794759E+03  0.22271883838E+03  0.10566000000E+00 0. -1.
        -13    1    4    4    0    0  0.26719806434E+01 -0.95637303295E+01  0.19903171322E+03  0.19927929759E+03  0.10566000000E+00 0.  1.
         14    1    4    4    0    0  0.32866777174E+01 -0.12029500442E+02  0.22216615174E+03  0.22251586485E+03  0.00000000000E+00 0. -1.
<mgrwt>
<rscale>  0 0.82188348E+02</rscale>
<asrwt>0</asrwt>
<pdfrwt beam="1">  1        2 0.12970708E+00 0.82188348E+02</pdfrwt>
<pdfrwt beam="2">  1       -1 0.30815563E-03 0.82188348E+02</pdfrwt>
<totfact> 0.32305744E+05</totfact>
</mgrwt>
</event>
<event>
 8    1  0.2603554E-020  0.8053677E+02  0.7818608E-02  0.1327535E+00
         -1   -1    0    0    0  501 -0.00000000000E+00  0.00000000000E+00  0.21084542170E+02  0.21084542772E+02  0.50400000000E-02 0.  1.
          2   -1    0    0  501    0  0.00000000000E+00 -0.00000000000E+00 -0.76906718421E+02  0.76906718464E+02  0.25500000000E-02 0. -1.
         24    2    1    2    0    0 -0.88817841970E-15  0.35527136788E-14 -0.55822176252E+02  0.97991261236E+02  0.80536773694E+02 0.  0.
         66    2    3    3    0    0  0.73925692161E+01 -0.28705452852E+02 -0.61046587642E+02  0.67892112718E+02  0.20000008805E+01 0.  0.
        -13    1    3    3    0    0 -0.73925692161E+01  0.28705452852E+02  0.52244113907E+01  0.30099148517E+02  0.10566000000E+00 0.  1.
         13    1    4    4    0    0  0.26033678667E+01 -0.69711229972E+01 -0.15090942478E+02  0.16826223254E+02  0.10566000000E+00 0. -1.
        -13    1    4    4    0    0  0.37330649879E+01 -0.17533900526E+02 -0.36451552321E+02  0.40621426274E+02  0.10566000000E+00 0.  1.
        -14    1    4    4    0    0  0.10561363615E+01 -0.42004293290E+01 -0.95040928435E+01  0.10444463191E+02  0.00000000000E+00 0.  1.
<mgrwt>
<rscale>  0 0.80536774E+02</rscale>
<asrwt>0</asrwt>
<pdfrwt beam="1">  1        2 0.11831803E-01 0.80536774E+02</pdfrwt>
<pdfrwt beam="2">  1       -1 0.32437758E-02 0.80536774E+02</pdfrwt>
<totfact> 0.16232864E+05</totfact>
</mgrwt>
</event>
<event>
 8    1  0.2603554E-020  0.8111967E+02  0.7818608E-02  0.1325904E+00
          2   -1    0    0  501    0  0.00000000000E+00  0.00000000000E+00  0.11571326513E+04  0.11571326513E+04  0.25500000000E-02 0. -1.
         -1   -1    0    0    0  501 -0.00000000000E+00 -0.00000000000E+00 -0.14216995800E+01  0.14217085135E+01  0.50400000000E-02 0.  1.
         24    2    1    2    0    0 -0.17763568394E-14  0.00000000000E+00  0.11557109517E+04  0.11585543598E+04  0.81119669155E+02 0.  0.
         66    2    3    3    0    0 -0.15299842359E+02  0.18539994701E+02  0.10443516353E+04  0.10446301521E+04  0.20000003966E+01 0.  0.
        -13    1    3    3    0    0  0.15299842359E+02 -0.18539994701E+02  0.11135931640E+03  0.11392420767E+03  0.10566000000E+00 0.  1.
         13    1    4    4    0    0 -0.54939484431E-01  0.45698579532E-01  0.44333594870E+01  0.44351941428E+01  0.10566000000E+00 0. -1.
        -13    1    4    4    0    0 -0.11868771580E+02  0.13727556424E+02  0.78139687504E+03  0.78160757483E+03  0.10566000000E+00 0. -1.
         14    1    4    4    0    0 -0.33761312949E+01  0.47667396983E+01  0.25852140077E+03  0.25858738315E+03  0.00000000000E+00 0. -1.
<mgrwt>
<rscale>  0 0.81119669E+02</rscale>
<asrwt>0</asrwt>
<pdfrwt beam="1">  1        2 0.17802092E+00 0.81119669E+02</pdfrwt>
<pdfrwt beam="2">  1       -1 0.21872307E-03 0.81119669E+02</pdfrwt>
<totfact> 0.33909821E+05</totfact>
</mgrwt>
</event>
<event>
 8    1  0.2603554E-020  0.7957647E+02  0.7818608E-02  0.1330258E+00
          2   -1    0    0  501    0  0.00000000000E+00  0.00000000000E+00  0.66125344465E+03  0.66125344465E+03  0.25500000000E-02 0. -1.
         -1   -1    0    0    0  501 -0.00000000000E+00 -0.00000000000E+00 -0.23940925819E+01  0.23940978869E+01  0.50400000000E-02 0.  1.
         24    2    1    2    0    0  0.00000000000E+00  0.00000000000E+00  0.65885935207E+03  0.66364754254E+03  0.79576472114E+02 0.  0.
         66    2    3    3    0    0 -0.90095616819E+01 -0.22436731249E+02  0.59290377456E+03  0.59339991996E+03  0.20000005156E+01 0.  0.
        -13    1    3    3    0    0  0.90095616819E+01  0.22436731249E+02  0.65955577501E+02  0.70247622581E+02  0.10566000000E+00 0.  1.
         13    1    4    4    0    0 -0.17716560957E+01 -0.36160061977E+01  0.10527791556E+03  0.10535494737E+03  0.10566000000E+00 0. -1.
        -13    1    4    4    0    0 -0.70861601812E+01 -0.17511203125E+02  0.45131332071E+03  0.45170851278E+03  0.10566000000E+00 0.  1.
        -14    1    4    4    0    0 -0.15174540495E+00 -0.13095219258E+01  0.36312538293E+02  0.36336459811E+02  0.00000000000E+00 0.  1.
<mgrwt>
<rscale>  0 0.79576472E+02</rscale>
<asrwt>0</asrwt>
<pdfrwt beam="1">  1        2 0.10173140E+00 0.79576472E+02</pdfrwt>
<pdfrwt beam="2">  1       -1 0.36832200E-03 0.79576472E+02</pdfrwt>
<totfact> 0.33458095E+05</totfact>
</mgrwt>
</event>
<event>
 8    1  0.2603554E-020  0.7774498E+02  0.7818608E-02  0.1335575E+00
          2   -1    0    0  501    0  0.00000000000E+00  0.00000000000E+00  0.88879318368E+02  0.88879318404E+02  0.25500000000E-02 0. -1.
         -1   -1    0    0    0  501 -0.00000000000E+00 -0.00000000000E+00 -0.17001373629E+02  0.17001374376E+02  0.50400000000E-02 0.  1.
         24    2    1    2    0    0  0.88817841970E-15  0.00000000000E+00  0.71877944739E+02  0.10588069278E+03  0.77744981598E+02 0.  0.
         66    2    3    3    0    0  0.78298280930E+01  0.37998000815E+02  0.38656131643E+02  0.54803747851E+02  0.19999977491E+01 0.  0.
        -13    1    3    3    0    0 -0.78298280930E+01 -0.37998000815E+02  0.33221813096E+02  0.51076944929E+02  0.10566000000E+00 0.  1.
         13    1    4    4    0    0  0.34547620849E+01  0.17434131368E+02  0.17394437890E+02  0.24868895254E+02  0.10566000000E+00 0. -1.
        -13    1    4    4    0    0  0.21728723037E+01  0.69893564320E+01  0.73448388197E+01  0.10369681707E+02  0.10566000000E+00 0.  1.
         14    1    4    4    0    0  0.22021937043E+01  0.13574513015E+02  0.13916854934E+02  0.19565170890E+02  0.00000000000E+00 0. -1.
<mgrwt>
<rscale>  0 0.77744982E+02</rscale>
<asrwt>0</asrwt>
<pdfrwt beam="1">  1        2 0.13673741E-01 0.77744982E+02</pdfrwt>
<pdfrwt beam="2">  1       -1 0.26155961E-02 0.77744982E+02</pdfrwt>
<totfact> 0.18531185E+05</totfact>
</mgrwt>
</event>
<event>
 8    1  0.2603554E-020  0.8003120E+02  0.7818608E-02  0.1328963E+00
         -1   -1    0    0    0  501 -0.00000000000E+00  0.00000000000E+00  0.20401892160E+02  0.20401892783E+02  0.50400000000E-02 0.  1.
          2   -1    0    0  501    0  0.00000000000E+00 -0.00000000000E+00 -0.78485286064E+02  0.78485286106E+02  0.25500000000E-02 0. -1.
         24    2    1    2    0    0  0.00000000000E+00  0.00000000000E+00 -0.58083393904E+02  0.98887178889E+02  0.80031203297E+02 0.  0.
         66    2    3    3    0    0 -0.22380048086E+02  0.11661545805E+02 -0.67391220954E+02  0.71989130422E+02  0.20000086089E+01 0.  0.
        -13    1    3    3    0    0  0.22380048086E+02 -0.11661545805E+02  0.93078270499E+01  0.26898048466E+02  0.10566000000E+00 0.  1.
         13    1    4    4    0    0 -0.12171834963E+02  0.58263424122E+01 -0.34228426010E+02  0.36792609903E+02  0.10566000000E+00 0. -1.
        -13    1    4    4    0    0 -0.31226154863E+01  0.13623243924E+01 -0.99572606922E+01  0.10524488574E+02  0.10566000000E+00 0.  1.
         14    1    4    4    0    0 -0.70855976362E+01  0.44728790001E+01 -0.23205534251E+02  0.24672031945E+02  0.00000000000E+00 0. -1.
<mgrwt>
<rscale>  0 0.80031203E+02</rscale>
<asrwt>0</asrwt>
<pdfrwt beam="1">  1        2 0.12074659E-01 0.80031203E+02</pdfrwt>
<pdfrwt beam="2">  1       -1 0.31387527E-02 0.80031203E+02</pdfrwt>
<totfact> 0.16596701E+05</totfact>
</mgrwt>
</event>
<event>
 8    1  0.2603554E-020  0.7944744E+02  0.7818608E-02  0.1330627E+00
         -1   -1    0    0    0  501 -0.00000000000E+00  0.00000000000E+00  0.13852447582E+02  0.13852448499E+02  0.50400000000E-02 0.  1.
          2   -1    0    0  501    0  0.00000000000E+00 -0.00000000000E+00 -0.11391300587E+03  0.11391300590E+03  0.25500000000E-02 0. -1.
         24    2    1    2    0    0  0.00000000000E+00  0.88817841970E-15 -0.10006055829E+03  0.12776545440E+03  0.79447441826E+02 0.  0.
         66    2    3    3    0    0  0.38670677396E+02  0.64708337696E+01 -0.40060636210E+02  0.56090529959E+02  0.19999993936E+01 0.  0.
        -13    1    3    3    0    0 -0.38670677396E+02 -0.64708337696E+01 -0.59999922079E+02  0.71674924440E+02  0.10566000000E+00 0.  1.
         13    1    4    4    0    0  0.16465160512E+02  0.24443193692E+01 -0.18279741755E+02  0.24723194182E+02  0.10566000000E+00 0. -1.
        -13    1    4    4    0    0  0.64402815448E+01  0.11935872956E+01 -0.60689765801E+01  0.89300345897E+01  0.10566000000E+00 0.  1.
         14    1    4    4    0    0  0.15765235339E+02  0.28329271048E+01 -0.15711917875E+02  0.22437301188E+02  0.00000000000E+00 0. -1.
<mgrwt>
<rscale>  0 0.79447442E+02</rscale>
<asrwt>0</asrwt>
<pdfrwt beam="1">  1        2 0.17525077E-01 0.79447442E+02</pdfrwt>
<pdfrwt beam="2">  1       -1 0.21311459E-02 0.79447442E+02</pdfrwt>
<totfact> 0.18744051E+05</totfact>
</mgrwt>
</event>
<event>
 8    1  0.2603554E-020  0.8081622E+02  0.7818608E-02  0.1326751E+00
          2   -1    0    0  501    0  0.00000000000E+00  0.00000000000E+00  0.11112049112E+04  0.11112049112E+04  0.25500000000E-02 0. -1.
         -1   -1    0    0    0  501 -0.00000000000E+00 -0.00000000000E+00 -0.14694055175E+01  0.14694141610E+01  0.50400000000E-02 0.  1.
         24    2    1    2    0    0  0.00000000000E+00 -0.17763568394E-14  0.11097355057E+04  0.11126743254E+04  0.80816222083E+02 0.  0.
         66    2    3    3    0    0 -0.23200598881E+02 -0.15441363273E+02  0.95757668658E+03  0.95798424526E+03  0.19999989508E+01 0.  0.
        -13    1    3    3    0    0  0.23200598881E+02  0.15441363273E+02  0.15215881915E+03  0.15469008015E+03  0.10566000000E+00 0.  1.
         13    1    4    4    0    0 -0.91591106935E+01 -0.59455700099E+01  0.37168988458E+03  0.37185026634E+03  0.10566000000E+00 0. -1.
        -13    1    4    4    0    0 -0.30908592094E+01 -0.22358535437E+01  0.11159974783E+03  0.11166497809E+03  0.10566000000E+00 0.  1.
        -14    1    4    4    0    0 -0.10950628978E+02 -0.72599397200E+01  0.47428705417E+03  0.47446900083E+03  0.00000000000E+00 0.  1.
<mgrwt>
<rscale>  0 0.80816222E+02</rscale>
<asrwt>0</asrwt>
<pdfrwt beam="1">  1        2 0.17095444E+00 0.80816222E+02</pdfrwt>
<pdfrwt beam="2">  1       -1 0.22606326E-03 0.80816222E+02</pdfrwt>
<totfact> 0.34322045E+05</totfact>
</mgrwt>
</event>
<event>
 8    1  0.2603554E-020  0.7914782E+02  0.7818608E-02  0.1331487E+00
         -1   -1    0    0    0  501 -0.00000000000E+00  0.00000000000E+00  0.74455326491E+02  0.74455326661E+02  0.50400000000E-02 0.  1.
          2   -1    0    0  501    0  0.00000000000E+00 -0.00000000000E+00 -0.21034013960E+02  0.21034014115E+02  0.25500000000E-02 0. -1.
         24    2    1    2    0    0 -0.88817841970E-15  0.00000000000E+00  0.53421312531E+02  0.95489340776E+02  0.79147821002E+02 0.  0.
         66    2    3    3    0    0 -0.63533190825E+01  0.39017014785E+02  0.25301508630E+02  0.46977211968E+02  0.19999998063E+01 0.  0.
        -13    1    3    3    0    0  0.63533190825E+01 -0.39017014785E+02  0.28119803900E+02  0.48512128808E+02  0.10566000000E+00 0.  1.
         13    1    4    4    0    0 -0.12090002667E+00  0.33720604953E+01  0.24194456394E+01  0.41533468478E+01  0.10566000000E+00 0. -1.
        -13    1    4    4    0    0 -0.25368320602E+01  0.12518020534E+02  0.77453951513E+01  0.14937826652E+02  0.10566000000E+00 0.  1.
        -14    1    4    4    0    0 -0.36955869955E+01  0.23126933755E+02  0.15136667840E+02  0.27886038468E+02  0.00000000000E+00 0.  1.
<mgrwt>
<rscale>  0 0.79147821E+02</rscale>
<asrwt>0</asrwt>
<pdfrwt beam="1">  1        2 0.32360021E-02 0.79147821E+02</pdfrwt>
<pdfrwt beam="2">  1       -1 0.11454666E-01 0.79147821E+02</pdfrwt>
<totfact> 0.12932471E+05</totfact>
</mgrwt>
</event>
<event>
 8    1  0.2603554E-020  0.7776580E+02  0.7818608E-02  0.1335514E+00
          2   -1    0    0  501    0  0.00000000000E+00  0.00000000000E+00  0.60411326808E+03  0.60411326808E+03  0.25500000000E-02 0. -1.
         -1   -1    0    0    0  501 -0.00000000000E+00 -0.00000000000E+00 -0.25026402959E+01  0.25026453709E+01  0.50400000000E-02 0.  1.
         24    2    1    2    0    0  0.44408920985E-15 -0.71054273576E-14  0.60161062778E+03  0.60661591345E+03  0.77765795795E+02 0.  0.
         66    2    3    3    0    0  0.39380953544E+01 -0.34090962224E+02  0.44317341468E+03  0.44450464315E+03  0.20000003399E+01 0.  0.
        -13    1    3    3    0    0 -0.39380953544E+01  0.34090962224E+02  0.15843721310E+03  0.16211127030E+03  0.10566000000E+00 0.  1.
         13    1    4    4    0    0  0.28518393100E+01 -0.23262893745E+02  0.29893092435E+03  0.29984830149E+03  0.10566000000E+00 0. -1.
        -13    1    4    4    0    0  0.71434519747E-01 -0.79134648490E+00  0.14580892807E+02  0.14602908314E+02  0.10566000000E+00 0.  1.
        -14    1    4    4    0    0  0.10148215247E+01 -0.10036721995E+02  0.12966159753E+03  0.13005343335E+03  0.00000000000E+00 0.  1.
<mgrwt>
<rscale>  0 0.77765796E+02</rscale>
<asrwt>0</asrwt>
<pdfrwt beam="1">  1        2 0.92940468E-01 0.77765796E+02</pdfrwt>
<pdfrwt beam="2">  1       -1 0.38502212E-03 0.77765796E+02</pdfrwt>
<totfact> 0.34685664E+05</totfact>
</mgrwt>
</event>
<event>
 8    1  0.2603554E-020  0.7931926E+02  0.7818608E-02  0.1330994E+00
         -1   -1    0    0    0  501 -0.00000000000E+00  0.00000000000E+00  0.26105549516E+01  0.26105598168E+01  0.50400000000E-02 0.  1.
          2   -1    0    0  501    0  0.00000000000E+00 -0.00000000000E+00 -0.60250967904E+03  0.60250967904E+03  0.25500000000E-02 0. -1.
         24    2    1    2    0    0 -0.22204460493E-15  0.17763568394E-14 -0.59989912409E+03  0.60512023886E+03  0.79319256165E+02 0.  0.
         66    2    3    3    0    0 -0.10700109895E+01  0.10442997457E+02 -0.59170822260E+03  0.59180471594E+03  0.19999999383E+01 0.  0.
        -13    1    3    3    0    0  0.10700109895E+01 -0.10442997457E+02 -0.81909014885E+01  0.13315522920E+02  0.10566000000E+00 0.  1.
         13    1    4    4    0    0 -0.83598927664E+00  0.85314828834E+01 -0.45757760950E+03  0.45765791259E+03  0.10566000000E+00 0. -1.
        -13    1    4    4    0    0 -0.43337940584E+00  0.16099553277E+01 -0.11972559743E+03  0.11973725243E+03  0.10566000000E+00 0.  1.
         14    1    4    4    0    0  0.19935769293E+00  0.30155924584E+00 -0.14405015666E+02  0.14409550923E+02  0.00000000000E+00 0. -1.
<mgrwt>
<rscale>  0 0.79319256E+02</rscale>
<asrwt>0</asrwt>
<pdfrwt beam="1">  1        2 0.92693686E-01 0.79319256E+02</pdfrwt>
<pdfrwt beam="2">  1       -1 0.40162470E-03 0.79319256E+02</pdfrwt>
<totfact> 0.32924570E+05</totfact>
</mgrwt>
</event>
<event>
 8    1  0.2603554E-020  0.8016252E+02  0.7818608E-02  0.1328591E+00
          2   -1    0    0  501    0  0.00000000000E+00  0.00000000000E+00  0.84074039474E+03  0.84074039475E+03  0.25500000000E-02 0. -1.
         -1   -1    0    0    0  501 -0.00000000000E+00 -0.00000000000E+00 -0.19108212800E+01  0.19108279268E+01  0.50400000000E-02 0.  1.
         24    2    1    2    0    0 -0.35527136788E-14 -0.17763568394E-14  0.83882957346E+03  0.84265122267E+03  0.80162520902E+02 0.  0.
         66    2    3    3    0    0  0.30551426977E+02  0.10409730578E+02  0.66903947400E+03  0.66982055057E+03  0.20000027556E+01 0.  0.
        -13    1    3    3    0    0 -0.30551426977E+02 -0.10409730578E+02  0.16979009946E+03  0.17283067211E+03  0.10566000000E+00 0.  1.
         13    1    4    4    0    0  0.12365363457E+02  0.44239846891E+01  0.25753404028E+03  0.25786870093E+03  0.10566000000E+00 0.  1.
        -13    1    4    4    0    0  0.32577036008E+01  0.91534980502E+00  0.65585525426E+02  0.65672846805E+02  0.10566000000E+00 0. -1.
         14    1    4    4    0    0  0.14928359919E+02  0.50703960835E+01  0.34591990829E+03  0.34627900283E+03  0.00000000000E+00 0. -1.
<mgrwt>
<rscale>  0 0.80162521E+02</rscale>
<asrwt>0</asrwt>
<pdfrwt beam="1">  1        2 0.12934462E+00 0.80162521E+02</pdfrwt>
<pdfrwt beam="2">  1       -1 0.29397315E-03 0.80162521E+02</pdfrwt>
<totfact> 0.34458173E+05</totfact>
</mgrwt>
</event>
<event>
 8    1  0.2603554E-020  0.7945870E+02  0.7818608E-02  0.1330595E+00
          2   -1    0    0  501    0  0.00000000000E+00  0.00000000000E+00  0.14199332520E+03  0.14199332523E+03  0.25500000000E-02 0. -1.
         -1   -1    0    0    0  501 -0.00000000000E+00 -0.00000000000E+00 -0.11116164130E+02  0.11116165273E+02  0.50400000000E-02 0.  1.
         24    2    1    2    0    0  0.00000000000E+00  0.00000000000E+00  0.13087716107E+03  0.15310949050E+03  0.79458698645E+02 0.  0.
         66    2    3    3    0    0 -0.94741747128E+01  0.13901011748E+02  0.13477942860E+03  0.13583995171E+03  0.19999982855E+01 0.  0.
        -13    1    3    3    0    0  0.94741747128E+01 -0.13901011748E+02 -0.39022675252E+01  0.17269538789E+02  0.10566000000E+00 0.  1.
         13    1    4    4    0    0 -0.60329940041E+01  0.72481625035E+01  0.76345757862E+02  0.76926060499E+02  0.10566000000E+00 0. -1.
        -13    1    4    4    0    0 -0.20583589078E+01  0.41036945085E+01  0.37577414513E+02  0.37856972879E+02  0.10566000000E+00 0.  1.
        -14    1    4    4    0    0 -0.13828218010E+01  0.25491547363E+01  0.20856256224E+02  0.21056918333E+02  0.00000000000E+00 0.  1.
<mgrwt>
<rscale>  0 0.79458699E+02</rscale>
<asrwt>0</asrwt>
<pdfrwt beam="1">  1        2 0.21845126E-01 0.79458699E+02</pdfrwt>
<pdfrwt beam="2">  1       -1 0.17101793E-02 0.79458699E+02</pdfrwt>
<totfact> 0.20039996E+05</totfact>
</mgrwt>
</event>
<event>
 8    1  0.2603554E-020  0.8211661E+02  0.7818608E-02  0.1323150E+00
          2   -1    0    0  501    0  0.00000000000E+00  0.00000000000E+00  0.99313978282E+02  0.99313978315E+02  0.25500000000E-02 0. -1.
         -1   -1    0    0    0  501 -0.00000000000E+00 -0.00000000000E+00 -0.16974289133E+02  0.16974289881E+02  0.50400000000E-02 0.  1.
         24    2    1    2    0    0  0.35527136788E-14 -0.17763568394E-14  0.82339689150E+02  0.11628826820E+03  0.82116605572E+02 0.  0.
         66    2    3    3    0    0  0.22030880411E+02 -0.10693317715E+02  0.87820833614E+02  0.91193231951E+02  0.20000003946E+01 0.  0.
        -13    1    3    3    0    0 -0.22030880411E+02  0.10693317715E+02 -0.54811444646E+01  0.25095036245E+02  0.10566000000E+00 0.  1.
         13    1    4    4    0    0  0.56802222300E+01 -0.28595016670E+01  0.20824519575E+02  0.21774146457E+02  0.10566000000E+00 0. -1.
        -13    1    4    4    0    0  0.38364151141E+01 -0.19600880233E+01  0.18117471075E+02  0.18622941448E+02  0.10566000000E+00 0.  1.
        -14    1    4    4    0    0  0.12514243067E+02 -0.58737280249E+01  0.48878842965E+02  0.50796144047E+02  0.00000000000E+00 0.  1.
<mgrwt>
<rscale>  0 0.82116606E+02</rscale>
<asrwt>0</asrwt>
<pdfrwt beam="1">  1        2 0.15279073E-01 0.82116606E+02</pdfrwt>
<pdfrwt beam="2">  1       -1 0.26114292E-02 0.82116606E+02</pdfrwt>
<totfact> 0.16494450E+05</totfact>
</mgrwt>
</event>
<event>
 8    1  0.2603554E-020  0.8001865E+02  0.7818608E-02  0.1328999E+00
         -1   -1    0    0    0  501 -0.00000000000E+00  0.00000000000E+00  0.67641283129E+01  0.67641301905E+01  0.50400000000E-02 0.  1.
          2   -1    0    0  501    0  0.00000000000E+00 -0.00000000000E+00 -0.23665217718E+03  0.23665217720E+03  0.25500000000E-02 0. -1.
         24    2    1    2    0    0  0.00000000000E+00  0.00000000000E+00 -0.22988804887E+03  0.24341630739E+03  0.80018645881E+02 0.  0.
         66    2    3    3    0    0  0.14104257650E+02  0.86302604264E+01 -0.22575968050E+03  0.22637324228E+03  0.20000000072E+01 0.  0.
        -13    1    3    3    0    0 -0.14104257650E+02 -0.86302604264E+01 -0.41283683674E+01  0.17043065109E+02  0.10566000000E+00 0.  1.
         13    1    4    4    0    0  0.36020349058E+01  0.13933211789E+01 -0.54047663903E+02  0.54185580524E+02  0.10566000000E+00 0. -1.
        -13    1    4    4    0    0  0.29336416355E+01  0.22547602782E+01 -0.44888099166E+02  0.45040457457E+02  0.10566000000E+00 0.  1.
        -14    1    4    4    0    0  0.75685811090E+01  0.49821789693E+01 -0.12682391743E+03  0.12714720430E+03  0.00000000000E+00 0.  1.
<mgrwt>
<rscale>  0 0.80018646E+02</rscale>
<asrwt>0</asrwt>
<pdfrwt beam="1">  1        2 0.36408021E-01 0.80018646E+02</pdfrwt>
<pdfrwt beam="2">  1       -1 0.10406355E-02 0.80018646E+02</pdfrwt>
<totfact> 0.23390702E+05</totfact>
</mgrwt>
</event>
<event>
 8    1  0.2603554E-020  0.8012644E+02  0.7818608E-02  0.1328693E+00
         -1   -1    0    0    0  501 -0.00000000000E+00  0.00000000000E+00  0.50285168006E+01  0.50285193264E+01  0.50400000000E-02 0.  1.
          2   -1    0    0  501    0  0.00000000000E+00 -0.00000000000E+00 -0.31919180133E+03  0.31919180134E+03  0.25500000000E-02 0. -1.
         24    2    1    2    0    0  0.00000000000E+00  0.00000000000E+00 -0.31416328453E+03  0.32422032067E+03  0.80126443743E+02 0.  0.
         66    2    3    3    0    0 -0.94116563916E+01  0.11149364010E+02 -0.30804760361E+03  0.30839943855E+03  0.20000038223E+01 0.  0.
        -13    1    3    3    0    0  0.94116563916E+01 -0.11149364010E+02 -0.61156809245E+01  0.15820882120E+02  0.10566000000E+00 0.  1.
         13    1    4    4    0    0 -0.54201404542E+01  0.63624526398E+01 -0.19384235336E+03  0.19402249314E+03  0.10566000000E+00 0.  1.
        -13    1    4    4    0    0 -0.26548330769E+01  0.31532076183E+01 -0.70020216206E+02  0.70141519077E+02  0.10566000000E+00 0. -1.
         14    1    4    4    0    0 -0.13366828605E+01  0.16337037515E+01 -0.44185034044E+02  0.44235426328E+02  0.00000000000E+00 0. -1.
<mgrwt>
<rscale>  0 0.80126444E+02</rscale>
<asrwt>0</asrwt>
<pdfrwt beam="1">  1        2 0.49106415E-01 0.80126444E+02</pdfrwt>
<pdfrwt beam="2">  1       -1 0.77361842E-03 0.80126444E+02</pdfrwt>
<totfact> 0.25964792E+05</totfact>
</mgrwt>
</event>
<event>
 8    1  0.2603554E-020  0.7787877E+02  0.7818608E-02  0.1335181E+00
          2   -1    0    0  501    0  0.00000000000E+00  0.00000000000E+00  0.66169523874E+03  0.66169523875E+03  0.25500000000E-02 0. -1.
         -1   -1    0    0    0  501 -0.00000000000E+00 -0.00000000000E+00 -0.22914986812E+01  0.22915042237E+01  0.50400000000E-02 0.  1.
         24    2    1    2    0    0 -0.71054273576E-14  0.27755575616E-15  0.65940374006E+03  0.66398674297E+03  0.77878767546E+02 0.  0.
         66    2    3    3    0    0 -0.35555386951E+02  0.37496956457E+00  0.46471009838E+03  0.46607274292E+03  0.20000019232E+01 0.  0.
        -13    1    3    3    0    0  0.35555386951E+02 -0.37496956457E+00  0.19469364168E+03  0.19791400005E+03  0.10566000000E+00 0.  1.
         13    1    4    4    0    0 -0.10556503430E+02 -0.65639098753E+00  0.13240086081E+03  0.13282270032E+03  0.10566000000E+00 0. -1.
        -13    1    4    4    0    0 -0.18844739460E+01  0.71790278740E-01  0.25336117428E+02  0.25406424507E+02  0.10566000000E+00 0. -1.
         14    1    4    4    0    0 -0.23114409574E+02  0.95957027336E+00  0.30697312015E+03  0.30784361809E+03  0.00000000000E+00 0. -1.
<mgrwt>
<rscale>  0 0.77878768E+02</rscale>
<asrwt>0</asrwt>
<pdfrwt beam="1">  1        2 0.10179931E+00 0.77878768E+02</pdfrwt>
<pdfrwt beam="2">  1       -1 0.35253854E-03 0.77878768E+02</pdfrwt>
<totfact> 0.35390645E+05</totfact>
</mgrwt>
</event>
<event>
 8    1  0.2603554E-020  0.7932202E+02  0.7818608E-02  0.1330987E+00
          2   -1    0    0  501    0  0.00000000000E+00  0.00000000000E+00  0.64427406132E+03  0.64427406132E+03  0.25500000000E-02 0. -1.
         -1   -1    0    0    0  501 -0.00000000000E+00 -0.00000000000E+00 -0.24414984441E+01  0.24415036461E+01  0.50400000000E-02 0.  1.
         24    2    1    2    0    0  0.00000000000E+00  0.00000000000E+00  0.64183256288E+03  0.64671556497E+03  0.79322022214E+02 0.  0.
         66    2    3    3    0    0 -0.66707407424E+01 -0.18373169784E+02  0.60224223381E+03  0.60256267753E+03  0.20000038103E+01 0.  0.
        -13    1    3    3    0    0  0.66707407424E+01  0.18373169784E+02  0.39590329062E+02  0.44152887439E+02  0.10566000000E+00 0.  1.
         13    1    4    4    0    0 -0.61242046134E+00 -0.15706785200E+01  0.52896680375E+02  0.52923643569E+02  0.10566000000E+00 0. -1.
        -13    1    4    4    0    0 -0.56687663695E+01 -0.14107620773E+02  0.47700892455E+03  0.47725117616E+03  0.10566000000E+00 0.  1.
        -14    1    4    4    0    0 -0.38955391154E+00 -0.26948704905E+01  0.72336628887E+02  0.72387857807E+02  0.00000000000E+00 0.  1.
<mgrwt>
<rscale>  0 0.79322022E+02</rscale>
<asrwt>0</asrwt>
<pdfrwt beam="1">  1        2 0.99119064E-01 0.79322022E+02</pdfrwt>
<pdfrwt beam="2">  1       -1 0.37561563E-03 0.79322022E+02</pdfrwt>
<totfact> 0.33516501E+05</totfact>
</mgrwt>
</event>
<event>
 8    1  0.2603554E-020  0.7830127E+02  0.7818608E-02  0.1333942E+00
          2   -1    0    0  501    0  0.00000000000E+00  0.00000000000E+00  0.41483894196E+03  0.41483894196E+03  0.25500000000E-02 0. -1.
         -1   -1    0    0    0  501 -0.00000000000E+00 -0.00000000000E+00 -0.36948592024E+01  0.36948626398E+01  0.50400000000E-02 0.  1.
         24    2    1    2    0    0  0.00000000000E+00  0.00000000000E+00  0.41114408275E+03  0.41853380460E+03  0.78301269547E+02 0.  0.
         66    2    3    3    0    0  0.28384483707E+02 -0.23459837037E+02  0.27636007191E+03  0.27880984956E+03  0.19999995320E+01 0.  0.
        -13    1    3    3    0    0 -0.28384483707E+02  0.23459837037E+02  0.13478401085E+03  0.13972395504E+03  0.10566000000E+00 0.  1.
         13    1    4    4    0    0  0.52798547590E+01 -0.47128205574E+01  0.57150311562E+02  0.57586950081E+02  0.10566000000E+00 0. -1.
        -13    1    4    4    0    0  0.38452695389E+01 -0.25882586402E+01  0.33908767243E+02  0.34224272682E+02  0.10566000000E+00 0.  1.
         14    1    4    4    0    0  0.19259359409E+02 -0.16158757839E+02  0.18530099310E+03  0.18699862680E+03  0.00000000000E+00 0. -1.
<mgrwt>
<rscale>  0 0.78301270E+02</rscale>
<asrwt>0</asrwt>
<pdfrwt beam="1">  1        2 0.63821364E-01 0.78301270E+02</pdfrwt>
<pdfrwt beam="2">  1       -1 0.56844025E-03 0.78301270E+02</pdfrwt>
<totfact> 0.30261318E+05</totfact>
</mgrwt>
</event>
<event>
 8    1  0.2603554E-020  0.7982878E+02  0.7818608E-02  0.1329538E+00
          2   -1    0    0  501    0  0.00000000000E+00  0.00000000000E+00  0.54651571169E+01  0.54651577118E+01  0.25500000000E-02 0. -1.
         -1   -1    0    0    0  501 -0.00000000000E+00 -0.00000000000E+00 -0.29151189459E+03  0.29151189464E+03  0.50400000000E-02 0.  1.
         24    2    1    2    0    0  0.00000000000E+00  0.35527136788E-14 -0.28604673747E+03  0.29697705235E+03  0.79828776771E+02 0.  0.
         66    2    3    3    0    0  0.14003434440E+02  0.31547166529E+02 -0.21750091780E+03  0.22023162609E+03  0.19999988376E+01 0.  0.
        -13    1    3    3    0    0 -0.14003434440E+02 -0.31547166529E+02 -0.68545819677E+02  0.76745426257E+02  0.10566000000E+00 0.  1.
         13    1    4    4    0    0  0.88930592253E+01  0.20075235734E+02 -0.13939253527E+03  0.14111127398E+03  0.10566000000E+00 0. -1.
        -13    1    4    4    0    0  0.39448918808E+01  0.97803004160E+01 -0.66657577985E+02  0.67486741772E+02  0.10566000000E+00 0.  1.
        -14    1    4    4    0    0  0.11654833343E+01  0.16916303784E+01 -0.11450804543E+02  0.11633610335E+02  0.00000000000E+00 0.  1.
<mgrwt>
<rscale>  0 0.79828777E+02</rscale>
<asrwt>0</asrwt>
<pdfrwt beam="1">  1        2 0.84079367E-03 0.79828777E+02</pdfrwt>
<pdfrwt beam="2">  1       -1 0.44847972E-01 0.79828777E+02</pdfrwt>
<totfact> 0.87914358E+04</totfact>
</mgrwt>
</event>
<event>
 8    1  0.2603554E-020  0.7448853E+02  0.7818608E-02  0.1345462E+00
          2   -1    0    0  501    0  0.00000000000E+00  0.00000000000E+00  0.85138048402E+03  0.85138048402E+03  0.25500000000E-02 0. -1.
         -1   -1    0    0    0  501 -0.00000000000E+00 -0.00000000000E+00 -0.16292736237E+01  0.16292814190E+01  0.50400000000E-02 0.  1.
         24    2    1    2    0    0  0.00000000000E+00 -0.35527136788E-14  0.84975121039E+03  0.85300976544E+03  0.74488525095E+02 0.  0.
         66    2    3    3    0    0 -0.10015313849E+02  0.28936628175E+02  0.66742829455E+03  0.66813334248E+03  0.20000006717E+01 0.  0.
        -13    1    3    3    0    0  0.10015313849E+02 -0.28936628175E+02  0.18232291584E+03  0.18487642296E+03  0.10566000000E+00 0.  1.
         13    1    4    4    0    0 -0.78370178513E+01  0.21062159157E+02  0.47991224996E+03  0.48043814609E+03  0.10566000000E+00 0. -1.
        -13    1    4    4    0    0 -0.59089815862E+00  0.14669477648E+01  0.32379550448E+02  0.32418321172E+02  0.10566000000E+00 0.  1.
         14    1    4    4    0    0 -0.15873978387E+01  0.64075212534E+01  0.15513649415E+03  0.15527687522E+03  0.00000000000E+00 0. -1.
<mgrwt>
<rscale>  0 0.74488525E+02</rscale>
<asrwt>0</asrwt>
<pdfrwt beam="1">  1        2 0.13098175E+00 0.74488525E+02</pdfrwt>
<pdfrwt beam="2">  1       -1 0.25065781E-03 0.74488525E+02</pdfrwt>
<totfact> 0.41743248E+05</totfact>
</mgrwt>
</event>
<event>
 8    1  0.2603554E-020  0.8255214E+02  0.7818608E-02  0.1321961E+00
          2   -1    0    0  501    0  0.00000000000E+00  0.00000000000E+00  0.28227046809E+02  0.28227046924E+02  0.25500000000E-02 0. -1.
         -1   -1    0    0    0  501 -0.00000000000E+00 -0.00000000000E+00 -0.60357504650E+02  0.60357504860E+02  0.50400000000E-02 0.  1.
         24    2    1    2    0    0  0.00000000000E+00  0.44408920985E-15 -0.32130457840E+02  0.88584551784E+02  0.82552144090E+02 0.  0.
         66    2    3    3    0    0 -0.41015626453E+02 -0.30749361258E+01 -0.19463283912E+02  0.45547296936E+02  0.19999980118E+01 0.  0.
        -13    1    3    3    0    0  0.41015626453E+02  0.30749361258E+01 -0.12667173929E+02  0.43037254848E+02  0.10566000000E+00 0.  1.
         13    1    4    4    0    0 -0.24957672086E+02 -0.15608579138E+01 -0.11403654833E+02  0.27484107789E+02  0.10566000000E+00 0. -1.
        -13    1    4    4    0    0 -0.71796675941E+01 -0.47895259603E+00 -0.30441222215E+01  0.78137613533E+01  0.10566000000E+00 0.  1.
         14    1    4    4    0    0 -0.88782867728E+01 -0.10351256160E+01 -0.50155068573E+01  0.10249427794E+02  0.00000000000E+00 0. -1.
<mgrwt>
<rscale>  0 0.82552144E+02</rscale>
<asrwt>0</asrwt>
<pdfrwt beam="1">  1        2 0.43426226E-02 0.82552144E+02</pdfrwt>
<pdfrwt beam="2">  1       -1 0.92857699E-02 0.82552144E+02</pdfrwt>
<totfact> 0.12167938E+05</totfact>
</mgrwt>
</event>
<event>
 8    1  0.2603554E-020  0.8270827E+02  0.7818608E-02  0.1321537E+00
          2   -1    0    0  501    0  0.00000000000E+00  0.00000000000E+00  0.40322210577E+02  0.40322210658E+02  0.25500000000E-02 0. -1.
         -1   -1    0    0    0  501 -0.00000000000E+00 -0.00000000000E+00 -0.42412463434E+02  0.42412463734E+02  0.50400000000E-02 0.  1.
         24    2    1    2    0    0  0.00000000000E+00  0.00000000000E+00 -0.20902528576E+01  0.82734674391E+02  0.82708265546E+02 0.  0.
         66    2    3    3    0    0  0.14622965927E+02  0.33646472909E+02  0.17993024376E+02  0.40910453416E+02  0.20000002040E+01 0.  0.
        -13    1    3    3    0    0 -0.14622965927E+02 -0.33646472909E+02 -0.20083277234E+02  0.41824220975E+02  0.10566000000E+00 0.  1.
         13    1    4    4    0    0  0.34884640929E+01  0.88426506791E+01  0.39599738090E+01  0.10298272154E+02  0.10566000000E+00 0. -1.
        -13    1    4    4    0    0  0.11334991625E+00  0.35855895958E+00  0.22915520671E+00  0.45286739271E+00  0.10566000000E+00 0. -1.
         14    1    4    4    0    0  0.11021151918E+02  0.24445263270E+02  0.13803895360E+02  0.30159313869E+02  0.00000000000E+00 0. -1.
<mgrwt>
<rscale>  0 0.82708266E+02</rscale>
<asrwt>0</asrwt>
<pdfrwt beam="1">  1        2 0.62034170E-02 0.82708266E+02</pdfrwt>
<pdfrwt beam="2">  1       -1 0.65249944E-02 0.82708266E+02</pdfrwt>
<totfact> 0.13020534E+05</totfact>
</mgrwt>
</event>
<event>
 8    1  0.2603554E-020  0.7819513E+02  0.7818608E-02  0.1334253E+00
          2   -1    0    0  501    0  0.00000000000E+00  0.00000000000E+00  0.32870373217E+03  0.32870373218E+03  0.25500000000E-02 0. -1.
         -1   -1    0    0    0  501 -0.00000000000E+00 -0.00000000000E+00 -0.46504467406E+01  0.46504494717E+01  0.50400000000E-02 0.  1.
         24    2    1    2    0    0  0.00000000000E+00  0.00000000000E+00  0.32405328543E+03  0.33335418165E+03  0.78195131735E+02 0.  0.
         66    2    3    3    0    0 -0.12648585568E+02  0.20906912911E+02  0.29210669513E+03  0.29313376992E+03  0.20000001122E+01 0.  0.
        -13    1    3    3    0    0  0.12648585568E+02 -0.20906912911E+02  0.31946590291E+02  0.40220411728E+02  0.10566000000E+00 0.  1.
         13    1    4    4    0    0 -0.66708112925E+01  0.10857671409E+02  0.15078787309E+03  0.15132541950E+03  0.10566000000E+00 0. -1.
        -13    1    4    4    0    0 -0.21826250670E+01  0.43185207987E+01  0.51506322494E+02  0.51733218486E+02  0.10566000000E+00 0.  1.
         14    1    4    4    0    0 -0.37951492090E+01  0.57307207031E+01  0.89812499547E+02  0.90075131930E+02  0.00000000000E+00 0. -1.
<mgrwt>
<rscale>  0 0.78195132E+02</rscale>
<asrwt>0</asrwt>
<pdfrwt beam="1">  1        2 0.50569826E-01 0.78195132E+02</pdfrwt>
<pdfrwt beam="2">  1       -1 0.71545326E-03 0.78195132E+02</pdfrwt>
<totfact> 0.27970409E+05</totfact>
</mgrwt>
</event>
<event>
 8    1  0.2603554E-020  0.8175727E+02  0.7818608E-02  0.1324137E+00
         -1   -1    0    0    0  501 -0.00000000000E+00  0.00000000000E+00  0.32912171592E+02  0.32912171978E+02  0.50400000000E-02 0.  1.
          2   -1    0    0  501    0  0.00000000000E+00 -0.00000000000E+00 -0.50773400378E+02  0.50773400442E+02  0.25500000000E-02 0. -1.
         24    2    1    2    0    0  0.00000000000E+00  0.00000000000E+00 -0.17861228786E+02  0.83685572420E+02  0.81757272077E+02 0.  0.
         66    2    3    3    0    0  0.47488710286E+01 -0.40417885869E+02 -0.12612401350E+02  0.42652431818E+02  0.19999995169E+01 0.  0.
        -13    1    3    3    0    0 -0.47488710286E+01  0.40417885869E+02 -0.52488274354E+01  0.41033140601E+02  0.10566000000E+00 0.  1.
         13    1    4    4    0    0  0.11431176084E+01 -0.10568680897E+02 -0.36050062396E+01  0.11225460694E+02  0.10566000000E+00 0. -1.
        -13    1    4    4    0    0  0.15340070516E+01 -0.13707729649E+02 -0.33171725230E+01  0.14186959764E+02  0.10566000000E+00 0.  1.
        -14    1    4    4    0    0  0.20717463686E+01 -0.16141475322E+02 -0.56902225877E+01  0.17240011360E+02  0.00000000000E+00 0.  1.
<mgrwt>
<rscale>  0 0.81757272E+02</rscale>
<asrwt>0</asrwt>
<pdfrwt beam="1">  1        2 0.78112924E-02 0.81757272E+02</pdfrwt>
<pdfrwt beam="2">  1       -1 0.50634111E-02 0.81757272E+02</pdfrwt>
<totfact> 0.14125971E+05</totfact>
</mgrwt>
</event>
<event>
 8    1  0.2603554E-020  0.8572670E+02  0.7818608E-02  0.1313543E+00
         -1   -1    0    0    0  501 -0.00000000000E+00  0.00000000000E+00  0.12243561294E+01  0.12243665028E+01  0.50400000000E-02 0.  1.
          2   -1    0    0  501    0  0.00000000000E+00 -0.00000000000E+00 -0.15005921042E+04  0.15005921042E+04  0.25500000000E-02 0. -1.
         24    2    1    2    0    0  0.00000000000E+00  0.00000000000E+00 -0.14993677481E+04  0.15018164707E+04  0.85726703694E+02 0.  0.
         66    2    3    3    0    0 -0.10502567759E+02  0.15044456211E+02 -0.14282736754E+04  0.14283929192E+04  0.20000000505E+01 0.  0.
        -13    1    3    3    0    0  0.10502567759E+02 -0.15044456211E+02 -0.71094072649E+02  0.73423551549E+02  0.10566000000E+00 0.  1.
         13    1    4    4    0    0 -0.71842893530E+01  0.11079342173E+02 -0.10438900471E+04  0.10439735664E+04  0.10566000000E+00 0. -1.
        -13    1    4    4    0    0 -0.31595405268E+01  0.38503958851E+01 -0.37770264586E+03  0.37773550018E+03  0.10566000000E+00 0.  1.
        -14    1    4    4    0    0 -0.15873787898E+00  0.11471815317E+00 -0.66809824957E+01  0.66838525625E+01  0.00000000000E+00 0.  1.
<mgrwt>
<rscale>  0 0.85726704E+02</rscale>
<asrwt>0</asrwt>
<pdfrwt beam="1">  1        2 0.23085885E+00 0.85726704E+02</pdfrwt>
<pdfrwt beam="2">  1       -1 0.18836448E-03 0.85726704E+02</pdfrwt>
<totfact> 0.27760001E+05</totfact>
</mgrwt>
</event>
<event>
 8    1  0.2603554E-020  0.8391582E+02  0.7818608E-02  0.1318292E+00
         -1   -1    0    0    0  501 -0.00000000000E+00  0.00000000000E+00  0.14102842684E+02  0.14102843584E+02  0.50400000000E-02 0.  1.
          2   -1    0    0  501    0  0.00000000000E+00 -0.00000000000E+00 -0.12483058865E+03  0.12483058868E+03  0.25500000000E-02 0. -1.
         24    2    1    2    0    0  0.00000000000E+00  0.00000000000E+00 -0.11072774597E+03  0.13893343227E+03  0.83915820160E+02 0.  0.
         66    2    3    3    0    0 -0.83156392406E+01  0.22521369714E+02  0.15280430841E+01  0.24139114940E+02  0.20000011623E+01 0.  0.
        -13    1    3    3    0    0  0.83156392406E+01 -0.22521369714E+02 -0.11225578906E+03  0.11479431733E+03  0.10566000000E+00 0.  1.
         13    1    4    4    0    0 -0.34758146746E+01  0.96065803066E+01  0.87420333649E+00  0.10253929410E+02  0.10566000000E+00 0. -1.
        -13    1    4    4    0    0 -0.26088624525E+01  0.52209080940E+01  0.65811925410E+00  0.58743790830E+01  0.10566000000E+00 0.  1.
        -14    1    4    4    0    0 -0.22309621134E+01  0.76938813133E+01 -0.42795064559E-02  0.80108064468E+01  0.00000000000E+00 0.  1.
<mgrwt>
<rscale>  0 0.83915820E+02</rscale>
<asrwt>0</asrwt>
<pdfrwt beam="1">  1        2 0.19204705E-01 0.83915820E+02</pdfrwt>
<pdfrwt beam="2">  1       -1 0.21696683E-02 0.83915820E+02</pdfrwt>
<totfact> 0.16643816E+05</totfact>
</mgrwt>
</event>
<event>
 8    1  0.2603554E-020  0.7949629E+02  0.7818608E-02  0.1330487E+00
          2   -1    0    0  501    0  0.00000000000E+00  0.00000000000E+00  0.24794578372E+03  0.24794578373E+03  0.25500000000E-02 0. -1.
         -1   -1    0    0    0  501 -0.00000000000E+00 -0.00000000000E+00 -0.63720174443E+01  0.63720194376E+01  0.50400000000E-02 0.  1.
         24    2    1    2    0    0  0.71054273576E-14 -0.35527136788E-14  0.24157376627E+03  0.25431780317E+03  0.79496292095E+02 0.  0.
         66    2    3    3    0    0  0.36045298062E+02 -0.16164969705E+02  0.13418481746E+03  0.13989329859E+03  0.19999985463E+01 0.  0.
        -13    1    3    3    0    0 -0.36045298062E+02  0.16164969705E+02  0.10738894881E+03  0.11442450458E+03  0.10566000000E+00 0.  1.
         13    1    4    4    0    0  0.37926488094E+01 -0.16529721171E+01  0.14734900747E+02  0.15305063407E+02  0.10566000000E+00 0. -1.
        -13    1    4    4    0    0  0.24898699576E+01 -0.67349565037E+00  0.93703974542E+01  0.97194938799E+01  0.10566000000E+00 0.  1.
        -14    1    4    4    0    0  0.29762779295E+02 -0.13838501938E+02  0.11007951926E+03  0.11486874130E+03  0.00000000000E+00 0.  1.
<mgrwt>
<rscale>  0 0.79496292E+02</rscale>
<asrwt>0</asrwt>
<pdfrwt beam="1">  1        2 0.38145509E-01 0.79496292E+02</pdfrwt>
<pdfrwt beam="2">  1       -1 0.98031043E-03 0.79496292E+02</pdfrwt>
<totfact> 0.24196354E+05</totfact>
</mgrwt>
</event>
<event>
 8    1  0.2603554E-020  0.8242233E+02  0.7818608E-02  0.1322314E+00
          2   -1    0    0  501    0  0.00000000000E+00  0.00000000000E+00  0.20718623948E+04  0.20718623948E+04  0.25500000000E-02 0. -1.
         -1   -1    0    0    0  501 -0.00000000000E+00 -0.00000000000E+00 -0.81971854448E+00  0.81973403843E+00  0.50400000000E-02 0.  1.
         24    2    1    2    0    0  0.00000000000E+00  0.00000000000E+00  0.20710426763E+04  0.20726821288E+04  0.82422329142E+02 0.  0.
         66    2    3    3    0    0  0.40840820379E+01 -0.10611077955E+02  0.20316114599E+04  0.20316442599E+04  0.20000027241E+01 0.  0.
        -13    1    3    3    0    0 -0.40840820379E+01  0.10611077955E+02  0.39431216390E+02  0.41037868993E+02  0.10566000000E+00 0.  1.
         13    1    4    4    0    0  0.44711526573E+00 -0.20763888207E+01  0.38034917816E+03  0.38035512326E+03  0.10566000000E+00 0. -1.
        -13    1    4    4    0    0  0.79789697894E+00 -0.13111115917E+01  0.38450187910E+03  0.38450495686E+03  0.10566000000E+00 0. -1.
         14    1    4    4    0    0  0.28390697932E+01 -0.72235775425E+01  0.12667604026E+04  0.12667841797E+04  0.00000000000E+00 0. -1.
<mgrwt>
<rscale>  0 0.82422329E+02</rscale>
<asrwt>0</asrwt>
<pdfrwt beam="1">  1        2 0.31874818E+00 0.82422329E+02</pdfrwt>
<pdfrwt beam="2">  1       -1 0.12611169E-03 0.82422329E+02</pdfrwt>
<totfact> 0.24811865E+05</totfact>
</mgrwt>
</event>
<event>
 8    1  0.2603554E-020  0.8094368E+02  0.7818608E-02  0.1326395E+00
          2   -1    0    0  501    0  0.00000000000E+00  0.00000000000E+00  0.92524805275E+02  0.92524805310E+02  0.25500000000E-02 0. -1.
         -1   -1    0    0    0  501 -0.00000000000E+00 -0.00000000000E+00 -0.17703035121E+02  0.17703035838E+02  0.50400000000E-02 0.  1.
         24    2    1    2    0    0  0.00000000000E+00 -0.17763568394E-14  0.74821770154E+02  0.11022784115E+03  0.80943682121E+02 0.  0.
         66    2    3    3    0    0  0.25988329643E+02  0.11128699379E+02  0.76824876820E+02  0.81885914117E+02  0.20000012015E+01 0.  0.
        -13    1    3    3    0    0 -0.25988329643E+02 -0.11128699379E+02 -0.20031066665E+01  0.28341927031E+02  0.10566000000E+00 0.  1.
         13    1    4    4    0    0  0.11473774347E+02  0.49389424533E+01  0.33793319752E+02  0.36028325998E+02  0.10566000000E+00 0. -1.
        -13    1    4    4    0    0  0.81676404530E+01  0.29968714879E+01  0.25372849581E+02  0.26823203559E+02  0.10566000000E+00 0.  1.
        -14    1    4    4    0    0  0.63469148433E+01  0.31928854374E+01  0.17658707487E+02  0.19034384560E+02  0.00000000000E+00 0.  1.
<mgrwt>
<rscale>  0 0.80943682E+02</rscale>
<asrwt>0</asrwt>
<pdfrwt beam="1">  1        2 0.14234586E-01 0.80943682E+02</pdfrwt>
<pdfrwt beam="2">  1       -1 0.27235439E-02 0.80943682E+02</pdfrwt>
<totfact> 0.16811974E+05</totfact>
</mgrwt>
</event>
<event>
 8    1  0.2603554E-020  0.7981635E+02  0.7818608E-02  0.1329573E+00
         -1   -1    0    0    0  501 -0.00000000000E+00  0.00000000000E+00  0.95889204719E+01  0.95889217964E+01  0.50400000000E-02 0.  1.
          2   -1    0    0  501    0  0.00000000000E+00 -0.00000000000E+00 -0.16609403142E+03  0.16609403144E+03  0.25500000000E-02 0. -1.
         24    2    1    2    0    0 -0.88817841970E-15  0.35527136788E-14 -0.15650511094E+03  0.17568295323E+03  0.79816353617E+02 0.  0.
         66    2    3    3    0    0 -0.68319420240E+01  0.22192578354E+02 -0.14967497431E+03  0.15147865824E+03  0.20000001327E+01 0.  0.
        -13    1    3    3    0    0  0.68319420240E+01 -0.22192578354E+02 -0.68301366350E+01  0.24204294997E+02  0.10566000000E+00 0.  1.
         13    1    4    4    0    0 -0.20565001302E+01  0.55382867486E+01 -0.41189662040E+02  0.41611311394E+02  0.10566000000E+00 0. -1.
        -13    1    4    4    0    0 -0.19273672467E+01  0.88361529750E+01 -0.55026217365E+02  0.55764577515E+02  0.10566000000E+00 0.  1.
        -14    1    4    4    0    0 -0.28480746471E+01  0.78181386300E+01 -0.53459094904E+02  0.54102769327E+02  0.00000000000E+00 0.  1.
<mgrwt>
<rscale>  0 0.79816354E+02</rscale>
<asrwt>0</asrwt>
<pdfrwt beam="1">  1        2 0.25552926E-01 0.79816354E+02</pdfrwt>
<pdfrwt beam="2">  1       -1 0.14752188E-02 0.79816354E+02</pdfrwt>
<totfact> 0.20835041E+05</totfact>
</mgrwt>
</event>
<event>
 8    1  0.2603554E-020  0.8132917E+02  0.7818608E-02  0.1325321E+00
          2   -1    0    0  501    0  0.00000000000E+00  0.00000000000E+00  0.89036428594E+01  0.89036432246E+01  0.25500000000E-02 0. -1.
         -1   -1    0    0    0  501 -0.00000000000E+00 -0.00000000000E+00 -0.18572267806E+03  0.18572267813E+03  0.50400000000E-02 0.  1.
         24    2    1    2    0    0  0.00000000000E+00 -0.71054273576E-14 -0.17681903520E+03  0.19462632135E+03  0.81329169147E+02 0.  0.
         66    2    3    3    0    0 -0.73830317815E+00 -0.40624470385E+02 -0.86445296029E+02  0.95538902467E+02  0.19999983604E+01 0.  0.
        -13    1    3    3    0    0  0.73830317815E+00  0.40624470385E+02 -0.90373739173E+02  0.99087418888E+02  0.10566000000E+00 0.  1.
         13    1    4    4    0    0 -0.80137572943E+00 -0.71066976913E+01 -0.15521672532E+02  0.17090372651E+02  0.10566000000E+00 0. -1.
        -13    1    4    4    0    0  0.49493141465E-01 -0.14915631090E+01 -0.29242325849E+01  0.32847390041E+01  0.10566000000E+00 0. -1.
        -14    1    4    4    0    0  0.13579409808E-01 -0.32026209584E+02 -0.67999390912E+02  0.75163790811E+02  0.00000000000E+00 0.  1.
<mgrwt>
<rscale>  0 0.81329169E+02</rscale>
<asrwt>0</asrwt>
<pdfrwt beam="1">  1        2 0.13697914E-02 0.81329169E+02</pdfrwt>
<pdfrwt beam="2">  1       -1 0.28572717E-01 0.81329169E+02</pdfrwt>
<totfact> 0.97632335E+04</totfact>
</mgrwt>
</event>
<event>
 8    1  0.2603554E-020  0.7882028E+02  0.7818608E-02  0.1332433E+00
          2   -1    0    0  501    0  0.00000000000E+00  0.00000000000E+00  0.54107713255E+03  0.54107713255E+03  0.25500000000E-02 0. -1.
         -1   -1    0    0    0  501 -0.00000000000E+00 -0.00000000000E+00 -0.28704922914E+01  0.28704967160E+01  0.50400000000E-02 0.  1.
         24    2    1    2    0    0  0.35527136788E-14  0.00000000000E+00  0.53820664026E+03  0.54394762927E+03  0.78820275134E+02 0.  0.
         66    2    3    3    0    0  0.16836350223E+02 -0.31587612069E+02  0.38265491273E+03  0.38433061568E+03  0.19999980156E+01 0.  0.
        -13    1    3    3    0    0 -0.16836350223E+02  0.31587612069E+02  0.15555172753E+03  0.15961701359E+03  0.10566000000E+00 0.  1.
         13    1    4    4    0    0  0.33421982503E+01 -0.66049639925E+01  0.77406846594E+02  0.77760059813E+02  0.10566000000E+00 0. -1.
        -13    1    4    4    0    0  0.11911218513E+02 -0.20749070806E+02  0.25708960239E+03  0.25820045679E+03  0.10566000000E+00 0.  1.
        -14    1    4    4    0    0  0.15829334589E+01 -0.42335772704E+01  0.48158463744E+02  0.48370099080E+02  0.00000000000E+00 0.  1.
<mgrwt>
<rscale>  0 0.78820275E+02</rscale>
<asrwt>0</asrwt>
<pdfrwt beam="1">  1        2 0.83242706E-01 0.78820275E+02</pdfrwt>
<pdfrwt beam="2">  1       -1 0.44161417E-03 0.78820275E+02</pdfrwt>
<totfact> 0.32438674E+05</totfact>
</mgrwt>
</event>
<event>
 8    1  0.2603554E-020  0.7732499E+02  0.7818608E-02  0.1336819E+00
          2   -1    0    0  501    0  0.00000000000E+00  0.00000000000E+00  0.15466811589E+03  0.15466811592E+03  0.25500000000E-02 0. -1.
         -1   -1    0    0    0  501 -0.00000000000E+00 -0.00000000000E+00 -0.96644899682E+01  0.96644912823E+01  0.50400000000E-02 0.  1.
         24    2    1    2    0    0 -0.35527136788E-14  0.35527136788E-14  0.14500362593E+03  0.16433260720E+03  0.77324991152E+02 0.  0.
         66    2    3    3    0    0  0.24599108741E+02 -0.28401061901E+02  0.91682729336E+02  0.99103276026E+02  0.19999981395E+01 0.  0.
        -13    1    3    3    0    0 -0.24599108741E+02  0.28401061901E+02  0.53320896590E+02  0.65229331172E+02  0.10566000000E+00 0.  1.
         13    1    4    4    0    0  0.74302624695E+01 -0.90403429454E+01  0.27938670955E+02  0.30290544724E+02  0.10566000000E+00 0. -1.
        -13    1    4    4    0    0  0.16794547140E+02 -0.18524186573E+02  0.61462540060E+02  0.66354029995E+02  0.10566000000E+00 0.  1.
        -14    1    4    4    0    0  0.37429913098E+00 -0.83653238234E+00  0.22815183206E+01  0.24587013063E+01  0.00000000000E+00 0.  1.
<mgrwt>
<rscale>  0 0.77324991E+02</rscale>
<asrwt>0</asrwt>
<pdfrwt beam="1">  1        2 0.23795094E-01 0.77324991E+02</pdfrwt>
<pdfrwt beam="2">  1       -1 0.14868447E-02 0.77324991E+02</pdfrwt>
<totfact> 0.22135263E+05</totfact>
</mgrwt>
</event>
<event>
 8    1  0.2603554E-020  0.8077326E+02  0.7818608E-02  0.1326871E+00
          2   -1    0    0  501    0  0.00000000000E+00  0.00000000000E+00  0.30064620385E+03  0.30064620386E+03  0.25500000000E-02 0. -1.
         -1   -1    0    0    0  501 -0.00000000000E+00 -0.00000000000E+00 -0.54252462911E+01  0.54252486321E+01  0.50400000000E-02 0.  1.
         24    2    1    2    0    0 -0.71054273576E-14  0.35527136788E-14  0.29522095756E+03  0.30607145249E+03  0.80773264445E+02 0.  0.
         66    2    3    3    0    0  0.32777497778E+02 -0.22184903981E+02  0.17766727740E+03  0.18203350182E+03  0.19999998354E+01 0.  0.
        -13    1    3    3    0    0 -0.32777497778E+02  0.22184903981E+02  0.11755368015E+03  0.12403795067E+03  0.10566000000E+00 0.  1.
         13    1    4    4    0    0  0.36273811237E+01 -0.22606182433E+01  0.18099543709E+02  0.18597659401E+02  0.10566000000E+00 0. -1.
        -13    1    4    4    0    0  0.68453596364E+01 -0.51412103492E+01  0.36032442463E+02  0.37035645887E+02  0.10566000000E+00 0.  1.
         14    1    4    4    0    0  0.22304757018E+02 -0.14783075388E+02  0.12353529123E+03  0.12640019653E+03  0.00000000000E+00 0. -1.
<mgrwt>
<rscale>  0 0.80773264E+02</rscale>
<asrwt>0</asrwt>
<pdfrwt beam="1">  1        2 0.46253274E-01 0.80773264E+02</pdfrwt>
<pdfrwt beam="2">  1       -1 0.83465325E-03 0.80773264E+02</pdfrwt>
<totfact> 0.24878651E+05</totfact>
</mgrwt>
</event>
<event>
 8    1  0.2603554E-020  0.8013849E+02  0.7818608E-02  0.1328659E+00
         -1   -1    0    0    0  501 -0.00000000000E+00  0.00000000000E+00  0.70942589907E+02  0.70942590086E+02  0.50400000000E-02 0.  1.
          2   -1    0    0  501    0  0.00000000000E+00 -0.00000000000E+00 -0.22631602439E+02  0.22631602583E+02  0.25500000000E-02 0. -1.
         24    2    1    2    0    0  0.88817841970E-15  0.00000000000E+00  0.48310987468E+02  0.93574192669E+02  0.80138492771E+02 0.  0.
         66    2    3    3    0    0 -0.44573729806E+01  0.24880961322E+02 -0.12094747202E+02  0.28092940733E+02  0.19999997431E+01 0.  0.
        -13    1    3    3    0    0  0.44573729806E+01 -0.24880961322E+02  0.60405734669E+02  0.65481251936E+02  0.10566000000E+00 0.  1.
         13    1    4    4    0    0 -0.15512575156E+01  0.11297497556E+02 -0.61549538574E+01  0.12958953350E+02  0.10566000000E+00 0. -1.
        -13    1    4    4    0    0 -0.70154572183E+00  0.32683060767E+01 -0.10319912466E+01  0.35000229970E+01  0.10566000000E+00 0.  1.
        -14    1    4    4    0    0 -0.22045697431E+01  0.10315157689E+02 -0.49078020975E+01  0.11633964386E+02  0.00000000000E+00 0.  1.
<mgrwt>
<rscale>  0 0.80138493E+02</rscale>
<asrwt>0</asrwt>
<pdfrwt beam="1">  1        2 0.34817850E-02 0.80138493E+02</pdfrwt>
<pdfrwt beam="2">  1       -1 0.10914245E-01 0.80138493E+02</pdfrwt>
<totfact> 0.12664552E+05</totfact>
</mgrwt>
</event>
<event>
 8    1  0.2603554E-020  0.7491417E+02  0.7818608E-02  0.1344137E+00
          2   -1    0    0  501    0  0.00000000000E+00  0.00000000000E+00  0.42027877185E+02  0.42027877262E+02  0.25500000000E-02 0. -1.
         -1   -1    0    0    0  501 -0.00000000000E+00 -0.00000000000E+00 -0.33383397312E+02  0.33383397692E+02  0.50400000000E-02 0.  1.
         24    2    1    2    0    0  0.00000000000E+00 -0.35527136788E-14  0.86444798729E+01  0.75411274955E+02  0.74914173279E+02 0.  0.
         66    2    3    3    0    0 -0.16691618167E+02 -0.26149731312E+02  0.25407297936E+02  0.40149088434E+02  0.19999872379E+01 0.  0.
        -13    1    3    3    0    0  0.16691618167E+02  0.26149731312E+02 -0.16762818063E+02  0.35262186520E+02  0.10566000000E+00 0.  1.
         13    1    4    4    0    0 -0.15545146117E+01 -0.17850041431E+01  0.19882262867E+01  0.30930508033E+01  0.10566000000E+00 0. -1.
        -13    1    4    4    0    0 -0.24210864529E+01 -0.33616478845E+01  0.28966033390E+01  0.50560667570E+01  0.10566000000E+00 0.  1.
         14    1    4    4    0    0 -0.12716017102E+02 -0.21003079285E+02  0.20522468311E+02  0.31999970874E+02  0.00000000000E+00 0. -1.
<mgrwt>
<rscale>  0 0.74914173E+02</rscale>
<asrwt>0</asrwt>
<pdfrwt beam="1">  1        2 0.64658273E-02 0.74914173E+02</pdfrwt>
<pdfrwt beam="2">  1       -1 0.51359073E-02 0.74914173E+02</pdfrwt>
<totfact> 0.17246274E+05</totfact>
</mgrwt>
</event>
<event>
 8    1  0.2603554E-020  0.8128814E+02  0.7818608E-02  0.1325435E+00
          2   -1    0    0  501    0  0.00000000000E+00  0.00000000000E+00  0.52321284004E+03  0.52321284004E+03  0.25500000000E-02 0. -1.
         -1   -1    0    0    0  501 -0.00000000000E+00 -0.00000000000E+00 -0.31572988488E+01  0.31573028715E+01  0.50400000000E-02 0.  1.
         24    2    1    2    0    0 -0.35527136788E-14  0.00000000000E+00  0.52005554119E+03  0.52637014291E+03  0.81288138320E+02 0.  0.
         66    2    3    3    0    0  0.20671052865E+02 -0.26777651259E+02  0.40578687610E+03  0.40719936622E+03  0.19999998419E+01 0.  0.
        -13    1    3    3    0    0 -0.20671052865E+02  0.26777651259E+02  0.11426866508E+03  0.11917077669E+03  0.10566000000E+00 0.  1.
         13    1    4    4    0    0  0.29672196837E+01 -0.44075798368E+01  0.59718433521E+02  0.59954429519E+02  0.10566000000E+00 0. -1.
        -13    1    4    4    0    0  0.25704375303E+01 -0.28085323100E+01  0.42002703248E+02  0.42175031084E+02  0.10566000000E+00 0.  1.
         14    1    4    4    0    0  0.15133395651E+02 -0.19561539113E+02  0.30406573934E+03  0.30506990562E+03  0.00000000000E+00 0. -1.
<mgrwt>
<rscale>  0 0.81288138E+02</rscale>
<asrwt>0</asrwt>
<pdfrwt beam="1">  1        2 0.80494170E-01 0.81288138E+02</pdfrwt>
<pdfrwt beam="2">  1       -1 0.48573928E-03 0.81288138E+02</pdfrwt>
<totfact> 0.29628886E+05</totfact>
</mgrwt>
</event>
<event>
 8    1  0.2603554E-020  0.8003345E+02  0.7818608E-02  0.1328957E+00
          2   -1    0    0  501    0  0.00000000000E+00  0.00000000000E+00  0.11916912075E+04  0.11916912076E+04  0.25500000000E-02 0. -1.
         -1   -1    0    0    0  501 -0.00000000000E+00 -0.00000000000E+00 -0.13437479281E+01  0.13437573798E+01  0.50400000000E-02 0.  1.
         24    2    1    2    0    0  0.00000000000E+00  0.88817841970E-15  0.11903474596E+04  0.11930349649E+04  0.80033448777E+02 0.  0.
         66    2    3    3    0    0 -0.90477879882E+01  0.43239814125E+01  0.11726425570E+04  0.11726871389E+04  0.20000020998E+01 0.  0.
        -13    1    3    3    0    0  0.90477879882E+01 -0.43239814125E+01  0.17704902625E+02  0.20347826020E+02  0.10566000000E+00 0.  1.
         13    1    4    4    0    0 -0.56637593763E+01  0.21202428781E+01  0.66165354443E+03  0.66168119032E+03  0.10566000000E+00 0.  1.
        -13    1    4    4    0    0 -0.16590504641E+01  0.14594515731E+01  0.32198816137E+03  0.32199576034E+03  0.10566000000E+00 0. -1.
        -14    1    4    4    0    0 -0.17249781477E+01  0.74428696135E+00  0.18900085119E+03  0.18901018826E+03  0.00000000000E+00 0.  1.
<mgrwt>
<rscale>  0 0.80033449E+02</rscale>
<asrwt>0</asrwt>
<pdfrwt beam="1">  1        2 0.18333775E+00 0.80033449E+02</pdfrwt>
<pdfrwt beam="2">  1       -1 0.20673045E-03 0.80033449E+02</pdfrwt>
<totfact> 0.35026058E+05</totfact>
</mgrwt>
</event>
<event>
 8    1  0.2603554E-020  0.8150265E+02  0.7818608E-02  0.1324840E+00
          2   -1    0    0  501    0  0.00000000000E+00  0.00000000000E+00  0.19419170984E+02  0.19419171151E+02  0.25500000000E-02 0. -1.
         -1   -1    0    0    0  501 -0.00000000000E+00 -0.00000000000E+00 -0.85517053556E+02  0.85517053704E+02  0.50400000000E-02 0.  1.
         24    2    1    2    0    0  0.00000000000E+00  0.13877787808E-16 -0.66097882572E+02  0.10493622486E+03  0.81502645395E+02 0.  0.
         66    2    3    3    0    0  0.39168576434E+02 -0.31873115611E-01 -0.18703457047E+02  0.43451095510E+02  0.19999999391E+01 0.  0.
        -13    1    3    3    0    0 -0.39168576434E+02  0.31873115611E-01 -0.47394425525E+02  0.61485129345E+02  0.10566000000E+00 0.  1.
         13    1    4    4    0    0  0.19806902915E+02  0.29001692633E+00 -0.99218588124E+01  0.22155179061E+02  0.10566000000E+00 0.  1.
        -13    1    4    4    0    0  0.18672112788E+02 -0.52004574464E+00 -0.85358353704E+01  0.20537524025E+02  0.10566000000E+00 0. -1.
         14    1    4    4    0    0  0.68956073079E+00  0.19815570270E+00 -0.24576286394E+00  0.75839242431E+00  0.00000000000E+00 0. -1.
<mgrwt>
<rscale>  0 0.81502645E+02</rscale>
<asrwt>0</asrwt>
<pdfrwt beam="1">  1        2 0.29875648E-02 0.81502645E+02</pdfrwt>
<pdfrwt beam="2">  1       -1 0.13156470E-01 0.81502645E+02</pdfrwt>
<totfact> 0.11696831E+05</totfact>
</mgrwt>
</event>
<event>
 8    1  0.2603554E-020  0.7897445E+02  0.7818608E-02  0.1331987E+00
          2   -1    0    0  501    0  0.00000000000E+00  0.00000000000E+00  0.17635102129E+02  0.17635102313E+02  0.25500000000E-02 0. -1.
         -1   -1    0    0    0  501 -0.00000000000E+00 -0.00000000000E+00 -0.88416886928E+02  0.88416887072E+02  0.50400000000E-02 0.  1.
         24    2    1    2    0    0  0.00000000000E+00  0.00000000000E+00 -0.70781784799E+02  0.10605198939E+03  0.78974447723E+02 0.  0.
         66    2    3    3    0    0  0.17435508553E+02  0.32576913962E+02 -0.16807042443E+02  0.40641468380E+02  0.19999986479E+01 0.  0.
        -13    1    3    3    0    0 -0.17435508553E+02 -0.32576913962E+02 -0.53974742356E+02  0.65410521005E+02  0.10566000000E+00 0.  1.
         13    1    4    4    0    0  0.88738382928E+01  0.15493569327E+02 -0.80997068744E+01  0.19606430374E+02  0.10566000000E+00 0. -1.
        -13    1    4    4    0    0  0.10643083437E+01  0.27571421923E+01 -0.99249305076E+00  0.31194217109E+01  0.10566000000E+00 0.  1.
         14    1    4    4    0    0  0.74973619167E+01  0.14326202443E+02 -0.77148425183E+01  0.17915616295E+02  0.00000000000E+00 0. -1.
<mgrwt>
<rscale>  0 0.78974448E+02</rscale>
<asrwt>0</asrwt>
<pdfrwt beam="1">  1        2 0.27130927E-02 0.78974448E+02</pdfrwt>
<pdfrwt beam="2">  1       -1 0.13602598E-01 0.78974448E+02</pdfrwt>
<totfact> 0.12559617E+05</totfact>
</mgrwt>
</event>
<event>
 8    1  0.2603554E-020  0.7812727E+02  0.7818608E-02  0.1334452E+00
         -1   -1    0    0    0  501 -0.00000000000E+00  0.00000000000E+00  0.11969802564E+02  0.11969803625E+02  0.50400000000E-02 0.  1.
          2   -1    0    0  501    0  0.00000000000E+00 -0.00000000000E+00 -0.12748477256E+03  0.12748477259E+03  0.25500000000E-02 0. -1.
         24    2    1    2    0    0 -0.44408920985E-15  0.00000000000E+00 -0.11551497000E+03  0.13945457621E+03  0.78127271377E+02 0.  0.
         66    2    3    3    0    0 -0.26030897389E+01 -0.29982504675E+02 -0.10217727036E+03  0.10653600913E+03  0.20000003125E+01 0.  0.
        -13    1    3    3    0    0  0.26030897389E+01  0.29982504675E+02 -0.13337699638E+02  0.32918567078E+02  0.10566000000E+00 0.  1.
         13    1    4    4    0    0 -0.21623706489E+01 -0.21270675808E+02 -0.74086351174E+02  0.77109766505E+02  0.10566000000E+00 0. -1.
        -13    1    4    4    0    0 -0.39861525222E+00 -0.87026976708E+01 -0.27833136085E+02  0.29164884180E+02  0.10566000000E+00 0.  1.
         14    1    4    4    0    0 -0.42103837749E-01 -0.91311968871E-02 -0.25778310065E+00  0.26135844905E+00  0.00000000000E+00 0. -1.
<mgrwt>
<rscale>  0 0.78127271E+02</rscale>
<asrwt>0</asrwt>
<pdfrwt beam="1">  1        2 0.19613041E-01 0.78127271E+02</pdfrwt>
<pdfrwt beam="2">  1       -1 0.18415083E-02 0.78127271E+02</pdfrwt>
<totfact> 0.20269428E+05</totfact>
</mgrwt>
</event>
<event>
 8    1  0.2603554E-020  0.8015629E+02  0.7818608E-02  0.1328608E+00
         -1   -1    0    0    0  501 -0.00000000000E+00  0.00000000000E+00  0.53159558980E+01  0.53159582872E+01  0.50400000000E-02 0.  1.
          2   -1    0    0  501    0  0.00000000000E+00 -0.00000000000E+00 -0.30215777835E+03  0.30215777836E+03  0.25500000000E-02 0. -1.
         24    2    1    2    0    0 -0.17763568394E-14  0.00000000000E+00 -0.29684182245E+03  0.30747373665E+03  0.80156292152E+02 0.  0.
         66    2    3    3    0    0 -0.13463698572E+02  0.24464218745E+02 -0.25865720325E+03  0.26016786507E+03  0.20000111284E+01 0.  0.
        -13    1    3    3    0    0  0.13463698572E+02 -0.24464218745E+02 -0.38184619205E+02  0.47305871580E+02  0.10566000000E+00 0.  1.
         13    1    4    4    0    0 -0.54270201030E+01  0.81758719316E+01 -0.93057649059E+02  0.93573685625E+02  0.10566000000E+00 0. -1.
        -13    1    4    4    0    0 -0.66808761479E+00  0.16146506952E+01 -0.17330912270E+02  0.17419102217E+02  0.10566000000E+00 0.  1.
         14    1    4    4    0    0 -0.73685908538E+01  0.14673696119E+02 -0.14826864192E+03  0.14917507723E+03  0.00000000000E+00 0. -1.
<mgrwt>
<rscale>  0 0.80156292E+02</rscale>
<asrwt>0</asrwt>
<pdfrwt beam="1">  1        2 0.46485799E-01 0.80156292E+02</pdfrwt>
<pdfrwt beam="2">  1       -1 0.81783979E-03 0.80156292E+02</pdfrwt>
<totfact> 0.25430254E+05</totfact>
</mgrwt>
</event>
<event>
 8    1  0.2603554E-020  0.7926773E+02  0.7818608E-02  0.1331142E+00
          2   -1    0    0  501    0  0.00000000000E+00  0.00000000000E+00  0.84922843585E+03  0.84922843585E+03  0.25500000000E-02 0. -1.
         -1   -1    0    0    0  501 -0.00000000000E+00 -0.00000000000E+00 -0.18497266977E+01  0.18497335640E+01  0.50400000000E-02 0.  1.
         24    2    1    2    0    0  0.00000000000E+00 -0.17763568394E-14  0.84737870915E+03  0.85107816941E+03  0.79267734513E+02 0.  0.
         66    2    3    3    0    0  0.32336036636E+02  0.86177357082E+01  0.65145436974E+03  0.65231639600E+03  0.20000007016E+01 0.  0.
        -13    1    3    3    0    0 -0.32336036636E+02 -0.86177357082E+01  0.19592433941E+03  0.19876177342E+03  0.10566000000E+00 0.  1.
         13    1    4    4    0    0  0.22032326965E+02  0.58567265577E+01  0.43218522947E+03  0.43278610007E+03  0.10566000000E+00 0. -1.
        -13    1    4    4    0    0  0.52344159544E+01  0.99329147999E+00  0.11329799394E+03  0.11342324424E+03  0.10566000000E+00 0.  1.
        -14    1    4    4    0    0  0.50692937170E+01  0.17677176705E+01  0.10597114633E+03  0.10610705169E+03  0.00000000000E+00 0.  1.
<mgrwt>
<rscale>  0 0.79267735E+02</rscale>
<asrwt>0</asrwt>
<pdfrwt beam="1">  1        2 0.13065016E+00 0.79267735E+02</pdfrwt>
<pdfrwt beam="2">  1       -1 0.28457467E-03 0.79267735E+02</pdfrwt>
<totfact> 0.35528837E+05</totfact>
</mgrwt>
</event>
<event>
 8    1  0.2603554E-020  0.7884083E+02  0.7818608E-02  0.1332374E+00
         -1   -1    0    0    0  501 -0.00000000000E+00  0.00000000000E+00  0.39047777038E+01  0.39047809564E+01  0.50400000000E-02 0.  1.
          2   -1    0    0  501    0  0.00000000000E+00 -0.00000000000E+00 -0.39796587672E+03  0.39796587672E+03  0.25500000000E-02 0. -1.
         24    2    1    2    0    0 -0.35527136788E-14  0.00000000000E+00 -0.39406109901E+03  0.40187065768E+03  0.78840825401E+02 0.  0.
         66    2    3    3    0    0  0.20532995606E+02 -0.26905464017E+02 -0.29992121299E+03  0.30183147932E+03  0.20000013100E+01 0.  0.
        -13    1    3    3    0    0 -0.20532995606E+02  0.26905464017E+02 -0.94139886027E+02  0.10003917836E+03  0.10566000000E+00 0.  1.
         13    1    4    4    0    0  0.80798689892E+01 -0.10359898476E+02 -0.11506793439E+03  0.11581559683E+03  0.10566000000E+00 0. -1.
        -13    1    4    4    0    0  0.10650363030E+02 -0.13414989350E+02 -0.15585737350E+03  0.15679580419E+03  0.10566000000E+00 0.  1.
        -14    1    4    4    0    0  0.18027635870E+01 -0.31305761906E+01 -0.28995905088E+02  0.29220078298E+02  0.00000000000E+00 0.  1.
<mgrwt>
<rscale>  0 0.78840825E+02</rscale>
<asrwt>0</asrwt>
<pdfrwt beam="1">  1        2 0.61225487E-01 0.78840825E+02</pdfrwt>
<pdfrwt beam="2">  1       -1 0.60073560E-03 0.78840825E+02</pdfrwt>
<totfact> 0.29298599E+05</totfact>
</mgrwt>
</event>
<event>
 8    1  0.2603554E-020  0.8251175E+02  0.7818608E-02  0.1322071E+00
         -1   -1    0    0    0  501 -0.00000000000E+00  0.00000000000E+00  0.21344797587E+01  0.21344857090E+01  0.50400000000E-02 0.  1.
          2   -1    0    0  501    0  0.00000000000E+00 -0.00000000000E+00 -0.79740498424E+03  0.79740498425E+03  0.25500000000E-02 0. -1.
         24    2    1    2    0    0  0.00000000000E+00  0.00000000000E+00 -0.79527050449E+03  0.79953946996E+03  0.82511748951E+02 0.  0.
         66    2    3    3    0    0  0.35977175930E+02  0.14226842694E+01 -0.59255322621E+03  0.59364948163E+03  0.19999819950E+01 0.  0.
        -13    1    3    3    0    0 -0.35977175930E+02 -0.14226842694E+01 -0.20271727827E+03  0.20588998833E+03  0.10566000000E+00 0.  1.
         13    1    4    4    0    0  0.22793435381E+02  0.51371231432E+00 -0.37232917364E+03  0.37302657989E+03  0.10566000000E+00 0. -1.
        -13    1    4    4    0    0  0.12289602573E+02  0.10465755860E+01 -0.20801741102E+03  0.20838278265E+03  0.10566000000E+00 0.  1.
         14    1    4    4    0    0  0.89413797535E+00 -0.13760363099E+00 -0.12206641546E+02  0.12240119088E+02  0.00000000000E+00 0. -1.
<mgrwt>
<rscale>  0 0.82511749E+02</rscale>
<asrwt>0</asrwt>
<pdfrwt beam="1">  1        2 0.12267745E+00 0.82511749E+02</pdfrwt>
<pdfrwt beam="2">  1       -1 0.32838260E-03 0.82511749E+02</pdfrwt>
<totfact> 0.31691925E+05</totfact>
</mgrwt>
</event>
<event>
 8    1  0.2603554E-020  0.8078703E+02  0.7818608E-02  0.1326833E+00
         -1   -1    0    0    0  501 -0.00000000000E+00  0.00000000000E+00  0.16547528012E+03  0.16547528019E+03  0.50400000000E-02 0.  1.
          2   -1    0    0  501    0  0.00000000000E+00 -0.00000000000E+00 -0.98603007470E+01  0.98603010768E+01  0.25500000000E-02 0. -1.
         24    2    1    2    0    0  0.00000000000E+00  0.00000000000E+00  0.15561497937E+03  0.17533558127E+03  0.80787030241E+02 0.  0.
         66    2    3    3    0    0 -0.30229669024E+02  0.11738506117E+01  0.19844718240E+02  0.36235668309E+02  0.20000003018E+01 0.  0.
        -13    1    3    3    0    0  0.30229669024E+02 -0.11738506117E+01  0.13577026113E+03  0.13909991296E+03  0.10566000000E+00 0.  1.
         13    1    4    4    0    0 -0.11747028737E+01  0.17153548143E+00  0.56179790089E+00  0.13176236868E+01  0.10566000000E+00 0. -1.
        -13    1    4    4    0    0 -0.33364494510E+01  0.58311674810E+00  0.22032794843E+01  0.40419703862E+01  0.10566000000E+00 0.  1.
         14    1    4    4    0    0 -0.25718516700E+02  0.41919838213E+00  0.17079640855E+02  0.30876074236E+02  0.00000000000E+00 0. -1.
<mgrwt>
<rscale>  0 0.80787030E+02</rscale>
<asrwt>0</asrwt>
<pdfrwt beam="1">  1        2 0.15169696E-02 0.80787030E+02</pdfrwt>
<pdfrwt beam="2">  1       -1 0.25457732E-01 0.80787030E+02</pdfrwt>
<totfact> 0.10255871E+05</totfact>
</mgrwt>
</event>
<event>
 8    1  0.2603554E-020  0.7996031E+02  0.7818608E-02  0.1329164E+00
         -1   -1    0    0    0  501 -0.00000000000E+00  0.00000000000E+00  0.66288095093E+01  0.66288114253E+01  0.50400000000E-02 0.  1.
          2   -1    0    0  501    0  0.00000000000E+00 -0.00000000000E+00 -0.24113117004E+03  0.24113117006E+03  0.25500000000E-02 0. -1.
         24    2    1    2    0    0  0.00000000000E+00  0.35527136788E-14 -0.23450236053E+03  0.24775998148E+03  0.79960310955E+02 0.  0.
         66    2    3    3    0    0 -0.11479886510E+02 -0.24555192744E+02 -0.20827906342E+03  0.21004502741E+03  0.19999990486E+01 0.  0.
        -13    1    3    3    0    0  0.11479886510E+02  0.24555192744E+02 -0.26223297113E+02  0.37714954070E+02  0.10566000000E+00 0.  1.
         13    1    4    4    0    0 -0.34419344242E+01 -0.84766562192E+01 -0.68432130983E+02  0.69041062623E+02  0.10566000000E+00 0.  1.
        -13    1    4    4    0    0 -0.10081949321E+01 -0.20993070601E+01 -0.14944345906E+02  0.15125084653E+02  0.10566000000E+00 0. -1.
         14    1    4    4    0    0 -0.70297571540E+01 -0.13979229464E+02 -0.12490258653E+03  0.12587888014E+03  0.00000000000E+00 0. -1.
<mgrwt>
<rscale>  0 0.79960311E+02</rscale>
<asrwt>0</asrwt>
<pdfrwt beam="1">  1        2 0.37097096E-01 0.79960311E+02</pdfrwt>
<pdfrwt beam="2">  1       -1 0.10198172E-02 0.79960311E+02</pdfrwt>
<totfact> 0.23592837E+05</totfact>
</mgrwt>
</event>
<event>
 8    1  0.2603554E-020  0.7783132E+02  0.7818608E-02  0.1335321E+00
          2   -1    0    0  501    0  0.00000000000E+00  0.00000000000E+00  0.35689806623E+03  0.35689806624E+03  0.25500000000E-02 0. -1.
         -1   -1    0    0    0  501 -0.00000000000E+00 -0.00000000000E+00 -0.42433073967E+01  0.42433103899E+01  0.50400000000E-02 0.  1.
         24    2    1    2    0    0  0.00000000000E+00  0.00000000000E+00  0.35265475883E+03  0.36114137663E+03  0.77831323937E+02 0.  0.
         66    2    3    3    0    0 -0.16581055649E+02 -0.16297129590E+02  0.32109824451E+03  0.32194504262E+03  0.20000004885E+01 0.  0.
        -13    1    3    3    0    0  0.16581055649E+02  0.16297129590E+02  0.31556514323E+02  0.39196334007E+02  0.10566000000E+00 0.  1.
         13    1    4    4    0    0 -0.48749846336E+00 -0.45921705766E+00  0.11166909920E+02  0.11187474078E+02  0.10566000000E+00 0. -1.
        -13    1    4    4    0    0 -0.38236734217E+01 -0.39022381720E+01  0.65442684263E+02  0.65670419740E+02  0.10566000000E+00 0.  1.
        -14    1    4    4    0    0 -0.12269883764E+02 -0.11935674361E+02  0.24448865033E+03  0.24508714880E+03  0.00000000000E+00 0.  1.
<mgrwt>
<rscale>  0 0.77831324E+02</rscale>
<asrwt>0</asrwt>
<pdfrwt beam="1">  1        2 0.54907398E-01 0.77831324E+02</pdfrwt>
<pdfrwt beam="2">  1       -1 0.65281672E-03 0.77831324E+02</pdfrwt>
<totfact> 0.29157697E+05</totfact>
</mgrwt>
</event>
<event>
 8    1  0.2603554E-020  0.8022120E+02  0.7818608E-02  0.1328425E+00
         -1   -1    0    0    0  501 -0.00000000000E+00  0.00000000000E+00  0.23779844972E+01  0.23779898382E+01  0.50400000000E-02 0.  1.
          2   -1    0    0  501    0  0.00000000000E+00 -0.00000000000E+00 -0.67656387315E+03  0.67656387315E+03  0.25500000000E-02 0. -1.
         24    2    1    2    0    0  0.00000000000E+00  0.00000000000E+00 -0.67418588865E+03  0.67894186299E+03  0.80221199604E+02 0.  0.
         66    2    3    3    0    0  0.83817324161E+01  0.27548752119E+02 -0.57331740639E+03  0.57404358341E+03  0.20000004516E+01 0.  0.
        -13    1    3    3    0    0 -0.83817324161E+01 -0.27548752119E+02 -0.10086848226E+03  0.10489827958E+03  0.10566000000E+00 0.  1.
         13    1    4    4    0    0  0.24604847989E+01  0.10128188470E+02 -0.21751347490E+03  0.21776307564E+03  0.10566000000E+00 0.  1.
        -13    1    4    4    0    0  0.53874613847E+01  0.16231770181E+02 -0.33414924079E+03  0.33458664258E+03  0.10566000000E+00 0. -1.
        -14    1    4    4    0    0  0.53378623262E+00  0.11887934680E+01 -0.21654690703E+02  0.21693865195E+02  0.00000000000E+00 0.  1.
<mgrwt>
<rscale>  0 0.80221200E+02</rscale>
<asrwt>0</asrwt>
<pdfrwt beam="1">  1        2 0.10408660E+00 0.80221200E+02</pdfrwt>
<pdfrwt beam="2">  1       -1 0.36584472E-03 0.80221200E+02</pdfrwt>
<totfact> 0.32947646E+05</totfact>
</mgrwt>
</event>
<event>
 8    1  0.2603554E-020  0.7975624E+02  0.7818608E-02  0.1329745E+00
          2   -1    0    0  501    0  0.00000000000E+00  0.00000000000E+00  0.35097235198E+03  0.35097235199E+03  0.25500000000E-02 0. -1.
         -1   -1    0    0    0  501 -0.00000000000E+00 -0.00000000000E+00 -0.45310238210E+01  0.45310266240E+01  0.50400000000E-02 0.  1.
         24    2    1    2    0    0  0.00000000000E+00  0.88817841970E-15  0.34644132816E+03  0.35550337862E+03  0.79756243323E+02 0.  0.
         66    2    3    3    0    0  0.39023861186E+02 -0.67531172633E+01  0.19315998731E+03  0.19718835421E+03  0.20000011573E+01 0.  0.
        -13    1    3    3    0    0 -0.39023861186E+02  0.67531172633E+01  0.15328134085E+03  0.15831502441E+03  0.10566000000E+00 0.  1.
         13    1    4    4    0    0  0.57886779272E+01 -0.10664823123E+01  0.27615113983E+02  0.28235648762E+02  0.10566000000E+00 0. -1.
        -13    1    4    4    0    0  0.25960637130E+01 -0.11623063077E+00  0.11276201805E+02  0.11572249027E+02  0.10566000000E+00 0.  1.
         14    1    4    4    0    0  0.30639119546E+02 -0.55704043203E+01  0.15426867152E+03  0.15738045642E+03  0.00000000000E+00 0. -1.
<mgrwt>
<rscale>  0 0.79756243E+02</rscale>
<asrwt>0</asrwt>
<pdfrwt beam="1">  1        2 0.53995757E-01 0.79756243E+02</pdfrwt>
<pdfrwt beam="2">  1       -1 0.69708068E-03 0.79756243E+02</pdfrwt>
<totfact> 0.27192508E+05</totfact>
</mgrwt>
</event>
<event>
 8    1  0.2603554E-020  0.8185724E+02  0.7818608E-02  0.1323862E+00
         -1   -1    0    0    0  501 -0.00000000000E+00  0.00000000000E+00  0.74836866089E+01  0.74836883060E+01  0.50400000000E-02 0.  1.
          2   -1    0    0  501    0  0.00000000000E+00 -0.00000000000E+00 -0.22384045525E+03  0.22384045526E+03  0.25500000000E-02 0. -1.
         24    2    1    2    0    0  0.35527136788E-14  0.00000000000E+00 -0.21635676864E+03  0.23132414357E+03  0.81857241963E+02 0.  0.
         66    2    3    3    0    0  0.22197415442E+02 -0.93405525828E+01 -0.20167762746E+03  0.20312025156E+03  0.19999999941E+01 0.  0.
        -13    1    3    3    0    0 -0.22197415442E+02  0.93405525828E+01 -0.14679141182E+02  0.28203892014E+02  0.10566000000E+00 0.  1.
         13    1    4    4    0    0  0.10675187112E+02 -0.41983348132E+01 -0.90882793735E+02  0.91603924567E+02  0.10566000000E+00 0. -1.
        -13    1    4    4    0    0  0.26097896829E+00  0.76908912012E-02 -0.25451517970E+01  0.25606895315E+01  0.10566000000E+00 0.  1.
        -14    1    4    4    0    0  0.11261249362E+02 -0.51499086608E+01 -0.10824968193E+03  0.10895563746E+03  0.00000000000E+00 0.  1.
<mgrwt>
<rscale>  0 0.81857242E+02</rscale>
<asrwt>0</asrwt>
<pdfrwt beam="1">  1        2 0.34436988E-01 0.81857242E+02</pdfrwt>
<pdfrwt beam="2">  1       -1 0.11513367E-02 0.81857242E+02</pdfrwt>
<totfact> 0.21599678E+05</totfact>
</mgrwt>
</event>
<event>
 8    1  0.2603554E-020  0.8255170E+02  0.7818608E-02  0.1321962E+00
          2   -1    0    0  501    0  0.00000000000E+00  0.00000000000E+00  0.15585753072E+03  0.15585753074E+03  0.25500000000E-02 0. -1.
         -1   -1    0    0    0  501 -0.00000000000E+00 -0.00000000000E+00 -0.10931108322E+02  0.10931109484E+02  0.50400000000E-02 0.  1.
         24    2    1    2    0    0 -0.44408920985E-15  0.00000000000E+00  0.14492642240E+03  0.16678864022E+03  0.82551696524E+02 0.  0.
         66    2    3    3    0    0  0.23524231479E+01  0.22111403837E+02  0.14270572646E+03  0.14444158832E+03  0.19999994061E+01 0.  0.
        -13    1    3    3    0    0 -0.23524231479E+01 -0.22111403837E+02  0.22206959363E+01  0.22347051903E+02  0.10566000000E+00 0.  1.
         13    1    4    4    0    0  0.16122409283E+00  0.35003338549E+01  0.20810221637E+02  0.21103431449E+02  0.10566000000E+00 0. -1.
        -13    1    4    4    0    0  0.80111327796E+00  0.22866578146E+01  0.15418598317E+02  0.15608168520E+02  0.10566000000E+00 0.  1.
         14    1    4    4    0    0  0.13900857771E+01  0.16324412167E+02  0.10647690651E+03  0.10772998835E+03  0.00000000000E+00 0. -1.
<mgrwt>
<rscale>  0 0.82551697E+02</rscale>
<asrwt>0</asrwt>
<pdfrwt beam="1">  1        2 0.23978081E-01 0.82551697E+02</pdfrwt>
<pdfrwt beam="2">  1       -1 0.16817091E-02 0.82551697E+02</pdfrwt>
<totfact> 0.18657597E+05</totfact>
</mgrwt>
</event>
<event>
 8    1  0.2603554E-020  0.7870475E+02  0.7818608E-02  0.1332768E+00
          2   -1    0    0  501    0  0.00000000000E+00  0.00000000000E+00  0.12263728469E+03  0.12263728472E+03  0.25500000000E-02 0. -1.
         -1   -1    0    0    0  501 -0.00000000000E+00 -0.00000000000E+00 -0.12627555974E+02  0.12627556980E+02  0.50400000000E-02 0.  1.
         24    2    1    2    0    0  0.35527136788E-14  0.00000000000E+00  0.11000972872E+03  0.13526484170E+03  0.78704745645E+02 0.  0.
         66    2    3    3    0    0  0.19075142133E+02 -0.73546844741E+01  0.11277858672E+03  0.11463403537E+03  0.20000029136E+01 0.  0.
        -13    1    3    3    0    0 -0.19075142133E+02  0.73546844741E+01 -0.27688580012E+01  0.20630806328E+02  0.10566000000E+00 0.  1.
         13    1    4    4    0    0  0.54816550802E+01 -0.30018600235E+01  0.35684333100E+02  0.36227648266E+02  0.10566000000E+00 0. -1.
        -13    1    4    4    0    0  0.87265914410E+01 -0.30417107967E+01  0.49313492594E+02  0.50172075088E+02  0.10566000000E+00 0.  1.
         14    1    4    4    0    0  0.48668956113E+01 -0.13111136539E+01  0.27780761025E+02  0.28234312017E+02  0.00000000000E+00 0. -1.
<mgrwt>
<rscale>  0 0.78704746E+02</rscale>
<asrwt>0</asrwt>
<pdfrwt beam="1">  1        2 0.18867274E-01 0.78704746E+02</pdfrwt>
<pdfrwt beam="2">  1       -1 0.19427011E-02 0.78704746E+02</pdfrwt>
<totfact> 0.19644551E+05</totfact>
</mgrwt>
</event>
<event>
 8    1  0.2603554E-020  0.7927524E+02  0.7818608E-02  0.1331121E+00
         -1   -1    0    0    0  501 -0.00000000000E+00  0.00000000000E+00  0.22035197733E+01  0.22035255371E+01  0.50400000000E-02 0.  1.
          2   -1    0    0  501    0  0.00000000000E+00 -0.00000000000E+00 -0.71301324382E+03  0.71301324383E+03  0.25500000000E-02 0. -1.
         24    2    1    2    0    0 -0.17763568394E-14 -0.17763568394E-14 -0.71080972405E+03  0.71521676937E+03  0.79275238106E+02 0.  0.
         66    2    3    3    0    0 -0.11389165887E+02 -0.84258514403E+01 -0.68937260575E+03  0.68952106394E+03  0.19999977353E+01 0.  0.
        -13    1    3    3    0    0  0.11389165887E+02  0.84258514403E+01 -0.21437118304E+02  0.25695705425E+02  0.10566000000E+00 0.  1.
         13    1    4    4    0    0 -0.13737740975E+01 -0.15784681289E+01 -0.93243602913E+02  0.93267140329E+02  0.10566000000E+00 0.  1.
        -13    1    4    4    0    0 -0.61236877001E+01 -0.42230613433E+01 -0.33335902651E+03  0.33344202722E+03  0.10566000000E+00 0. -1.
        -14    1    4    4    0    0 -0.38917040896E+01 -0.26243219681E+01 -0.26276997632E+03  0.26281189639E+03  0.00000000000E+00 0.  1.
<mgrwt>
<rscale>  0 0.79275238E+02</rscale>
<asrwt>0</asrwt>
<pdfrwt beam="1">  1        2 0.10969416E+00 0.79275238E+02</pdfrwt>
<pdfrwt beam="2">  1       -1 0.33900405E-03 0.79275238E+02</pdfrwt>
<totfact> 0.34394556E+05</totfact>
</mgrwt>
</event>
<event>
 8    1  0.2603554E-020  0.7870850E+02  0.7818608E-02  0.1332757E+00
         -1   -1    0    0    0  501 -0.00000000000E+00  0.00000000000E+00  0.35557654035E+02  0.35557654393E+02  0.50400000000E-02 0.  1.
          2   -1    0    0  501    0  0.00000000000E+00 -0.00000000000E+00 -0.43556224750E+02  0.43556224824E+02  0.25500000000E-02 0. -1.
         24    2    1    2    0    0  0.35527136788E-14  0.55511151231E-16 -0.79985707144E+01  0.79113879217E+02  0.78708504949E+02 0.  0.
         66    2    3    3    0    0  0.29312680157E+02 -0.97905322527E-01 -0.30357304991E+02  0.42246997522E+02  0.20000074715E+01 0.  0.
        -13    1    3    3    0    0 -0.29312680157E+02  0.97905322527E-01  0.22358734277E+02  0.36866881695E+02  0.10566000000E+00 0.  1.
         13    1    4    4    0    0  0.13262065239E+01  0.24556011443E+00 -0.12118937037E+01  0.18163077654E+01  0.10566000000E+00 0. -1.
        -13    1    4    4    0    0  0.64475670364E+01  0.15150314709E+00 -0.74686720764E+01  0.98684497523E+01  0.10566000000E+00 0.  1.
         14    1    4    4    0    0  0.21538906597E+02 -0.49496858405E+00 -0.21676739211E+02  0.30562240004E+02  0.00000000000E+00 0. -1.
<mgrwt>
<rscale>  0 0.78708505E+02</rscale>
<asrwt>0</asrwt>
<pdfrwt beam="1">  1        2 0.67009576E-02 0.78708505E+02</pdfrwt>
<pdfrwt beam="2">  1       -1 0.54704084E-02 0.78708505E+02</pdfrwt>
<totfact> 0.15173737E+05</totfact>
</mgrwt>
</event>
<event>
 8    1  0.2603554E-020  0.8065384E+02  0.7818608E-02  0.1327206E+00
         -1   -1    0    0    0  501 -0.00000000000E+00  0.00000000000E+00  0.15306112842E+03  0.15306112850E+03  0.50400000000E-02 0.  1.
          2   -1    0    0  501    0  0.00000000000E+00 -0.00000000000E+00 -0.10624908403E+02  0.10624908709E+02  0.25500000000E-02 0. -1.
         24    2    1    2    0    0  0.44408920985E-15 -0.71054273576E-14  0.14243622002E+03  0.16368603721E+03  0.80653840613E+02 0.  0.
         66    2    3    3    0    0 -0.20316926039E+01  0.39429993028E+02  0.87674735129E+02  0.96175419409E+02  0.19999983814E+01 0.  0.
        -13    1    3    3    0    0  0.20316926039E+01 -0.39429993028E+02  0.54761484889E+02  0.67510617804E+02  0.10566000000E+00 0.  1.
         13    1    4    4    0    0 -0.16726534586E+01  0.35836184522E+02  0.80190463420E+02  0.87849595778E+02  0.10566000000E+00 0. -1.
        -13    1    4    4    0    0  0.10156270170E+00  0.12597562868E+01  0.26522526453E+01  0.29398824831E+01  0.10566000000E+00 0.  1.
         14    1    4    4    0    0 -0.46060184703E+00  0.23340522190E+01  0.48320190635E+01  0.53859411483E+01  0.00000000000E+00 0. -1.
<mgrwt>
<rscale>  0 0.80653841E+02</rscale>
<asrwt>0</asrwt>
<pdfrwt beam="1">  1        2 0.16346014E-02 0.80653841E+02</pdfrwt>
<pdfrwt beam="2">  1       -1 0.23547865E-01 0.80653841E+02</pdfrwt>
<totfact> 0.10512888E+05</totfact>
</mgrwt>
</event>
<event>
 8    1  0.2603554E-020  0.8183002E+02  0.7818608E-02  0.1323937E+00
         -1   -1    0    0    0  501 -0.00000000000E+00  0.00000000000E+00  0.16772037437E+03  0.16772037444E+03  0.50400000000E-02 0.  1.
          2   -1    0    0  501    0  0.00000000000E+00 -0.00000000000E+00 -0.99811253418E+01  0.99811256675E+01  0.25500000000E-02 0. -1.
         24    2    1    2    0    0  0.71054273576E-14  0.55511151231E-16  0.15773924903E+03  0.17770150011E+03  0.81830021743E+02 0.  0.
         66    2    3    3    0    0  0.40795326348E+02  0.65586770526E-01  0.72863285428E+02  0.83530361676E+02  0.20000012205E+01 0.  0.
        -13    1    3    3    0    0 -0.40795326348E+02 -0.65586770526E-01  0.84875963599E+02  0.94171138436E+02  0.10566000000E+00 0.  1.
         13    1    4    4    0    0  0.22565729192E+02  0.46142079980E+00  0.41108916474E+02  0.46897539603E+02  0.10566000000E+00 0. -1.
        -13    1    4    4    0    0  0.35615299543E+01 -0.37434736909E+00  0.56674052286E+01  0.67048696951E+01  0.10566000000E+00 0.  1.
        -14    1    4    4    0    0  0.14668067202E+02 -0.21486660185E-01  0.26086963726E+02  0.29927952378E+02  0.00000000000E+00 0.  1.
<mgrwt>
<rscale>  0 0.81830022E+02</rscale>
<asrwt>0</asrwt>
<pdfrwt beam="1">  1        2 0.15355579E-02 0.81830022E+02</pdfrwt>
<pdfrwt beam="2">  1       -1 0.25803133E-01 0.81830022E+02</pdfrwt>
<totfact> 0.98914356E+04</totfact>
</mgrwt>
</event>
<event>
 8    1  0.2603554E-020  0.7808621E+02  0.7818608E-02  0.1334572E+00
         -1   -1    0    0    0  501 -0.00000000000E+00  0.00000000000E+00  0.27314023977E+02  0.27314024442E+02  0.50400000000E-02 0.  1.
          2   -1    0    0  501    0  0.00000000000E+00 -0.00000000000E+00 -0.55808840432E+02  0.55808840491E+02  0.25500000000E-02 0. -1.
         24    2    1    2    0    0  0.35527136788E-14  0.00000000000E+00 -0.28494816456E+02  0.83122864932E+02  0.78086209472E+02 0.  0.
         66    2    3    3    0    0 -0.20745737565E+02  0.23995115339E+01 -0.49340334533E+02  0.53615407050E+02  0.19999946304E+01 0.  0.
        -13    1    3    3    0    0  0.20745737565E+02 -0.23995115339E+01  0.20845518077E+02  0.29507457882E+02  0.10566000000E+00 0.  1.
         13    1    4    4    0    0 -0.50175955673E+01  0.12233796615E+01 -0.11979574962E+02  0.13045853877E+02  0.10566000000E+00 0. -1.
        -13    1    4    4    0    0 -0.11474697643E+02  0.11786813239E+01 -0.28268434824E+02  0.30531517275E+02  0.10566000000E+00 0.  1.
        -14    1    4    4    0    0 -0.42534443548E+01 -0.25494514969E-02 -0.90923247473E+01  0.10038035898E+02  0.00000000000E+00 0.  1.
<mgrwt>
<rscale>  0 0.78086209E+02</rscale>
<asrwt>0</asrwt>
<pdfrwt beam="1">  1        2 0.85859755E-02 0.78086209E+02</pdfrwt>
<pdfrwt beam="2">  1       -1 0.42021576E-02 0.78086209E+02</pdfrwt>
<totfact> 0.16354863E+05</totfact>
</mgrwt>
</event>
<event>
 8    1  0.2603554E-020  0.7876084E+02  0.7818608E-02  0.1332605E+00
         -1   -1    0    0    0  501 -0.00000000000E+00  0.00000000000E+00  0.15224807901E+03  0.15224807909E+03  0.50400000000E-02 0.  1.
          2   -1    0    0  501    0  0.00000000000E+00 -0.00000000000E+00 -0.10186121406E+02  0.10186121725E+02  0.25500000000E-02 0. -1.
         24    2    1    2    0    0 -0.88817841970E-15  0.00000000000E+00  0.14206195760E+03  0.16243420081E+03  0.78760839234E+02 0.  0.
         66    2    3    3    0    0  0.63922683185E+01  0.25635643359E+02  0.10921616227E+02  0.28658838343E+02  0.20000023787E+01 0.  0.
        -13    1    3    3    0    0 -0.63922683185E+01 -0.25635643359E+02  0.13114034137E+03  0.13377536247E+03  0.10566000000E+00 0.  1.
         13    1    4    4    0    0  0.42010598980E+01  0.17662202376E+02  0.77736923823E+01  0.19749525420E+02  0.10566000000E+00 0. -1.
        -13    1    4    4    0    0  0.11518605805E+01  0.53878719192E+01  0.16878547019E+01  0.57633292588E+01  0.10566000000E+00 0.  1.
         14    1    4    4    0    0  0.10393478401E+01  0.25855690638E+01  0.14600691429E+01  0.31459836647E+01  0.00000000000E+00 0. -1.
<mgrwt>
<rscale>  0 0.78760839E+02</rscale>
<asrwt>0</asrwt>
<pdfrwt beam="1">  1        2 0.15670957E-02 0.78760839E+02</pdfrwt>
<pdfrwt beam="2">  1       -1 0.23422780E-01 0.78760839E+02</pdfrwt>
<totfact> 0.11178852E+05</totfact>
</mgrwt>
</event>
<event>
 8    1  0.2603554E-020  0.8035296E+02  0.7818608E-02  0.1328053E+00
          2   -1    0    0  501    0  0.00000000000E+00  0.00000000000E+00  0.22634351669E+03  0.22634351670E+03  0.25500000000E-02 0. -1.
         -1   -1    0    0    0  501 -0.00000000000E+00 -0.00000000000E+00 -0.71314139722E+01  0.71314157532E+01  0.50400000000E-02 0.  1.
         24    2    1    2    0    0  0.35527136788E-14  0.00000000000E+00  0.21921210272E+03  0.23347493246E+03  0.80352959548E+02 0.  0.
         66    2    3    3    0    0 -0.24322547620E+02  0.26188644609E+02  0.16283251485E+03  0.16672090246E+03  0.19999985713E+01 0.  0.
        -13    1    3    3    0    0  0.24322547620E+02 -0.26188644609E+02  0.56379587868E+02  0.66754030001E+02  0.10566000000E+00 0.  1.
         13    1    4    4    0    0 -0.76494136685E+00  0.10911271221E+01  0.59354380625E+01  0.60841008144E+01  0.10566000000E+00 0. -1.
        -13    1    4    4    0    0 -0.31887451321E+00  0.27585648942E+00  0.27465042686E+01  0.27806883125E+01  0.10566000000E+00 0.  1.
         14    1    4    4    0    0 -0.23238731740E+02  0.24821660998E+02  0.15415057252E+03  0.15785611333E+03  0.00000000000E+00 0. -1.
<mgrwt>
<rscale>  0 0.80352960E+02</rscale>
<asrwt>0</asrwt>
<pdfrwt beam="1">  1        2 0.34822085E-01 0.80352960E+02</pdfrwt>
<pdfrwt beam="2">  1       -1 0.10971406E-02 0.80352960E+02</pdfrwt>
<totfact> 0.22772052E+05</totfact>
</mgrwt>
</event>
<event>
 8    1  0.2603554E-020  0.8360369E+02  0.7818608E-02  0.1319125E+00
         -1   -1    0    0    0  501 -0.00000000000E+00  0.00000000000E+00  0.58605496013E+01  0.58605517685E+01  0.50400000000E-02 0.  1.
          2   -1    0    0  501    0  0.00000000000E+00 -0.00000000000E+00 -0.29816211548E+03  0.29816211549E+03  0.25500000000E-02 0. -1.
         24    2    1    2    0    0  0.00000000000E+00  0.00000000000E+00 -0.29230156588E+03  0.30402266726E+03  0.83603688869E+02 0.  0.
         66    2    3    3    0    0  0.72321546270E+01 -0.36270141683E+02 -0.21689435141E+03  0.22003405853E+03  0.20000004729E+01 0.  0.
        -13    1    3    3    0    0 -0.72321546270E+01  0.36270141683E+02 -0.75407214475E+02  0.83988608734E+02  0.10566000000E+00 0.  1.
         13    1    4    4    0    0  0.24025679239E+01 -0.11838183272E+02 -0.72720914257E+02  0.73717416193E+02  0.10566000000E+00 0. -1.
        -13    1    4    4    0    0  0.76327305446E+00 -0.71192622333E+01 -0.42959772604E+02  0.43552493691E+02  0.10566000000E+00 0.  1.
        -14    1    4    4    0    0  0.40663136487E+01 -0.17312696177E+02 -0.10121366455E+03  0.10276414865E+03  0.00000000000E+00 0.  1.
<mgrwt>
<rscale>  0 0.83603689E+02</rscale>
<asrwt>0</asrwt>
<pdfrwt beam="1">  1        2 0.45871083E-01 0.83603689E+02</pdfrwt>
<pdfrwt beam="2">  1       -1 0.90162342E-03 0.83603689E+02</pdfrwt>
<totfact> 0.22656701E+05</totfact>
</mgrwt>
</event>
<event>
 8    1  0.2603554E-020  0.7570091E+02  0.7818608E-02  0.1341714E+00
         -1   -1    0    0    0  501 -0.00000000000E+00  0.00000000000E+00  0.82953940010E+01  0.82953955321E+01  0.50400000000E-02 0.  1.
          2   -1    0    0  501    0  0.00000000000E+00 -0.00000000000E+00 -0.17270508887E+03  0.17270508889E+03  0.25500000000E-02 0. -1.
         24    2    1    2    0    0  0.35527136788E-14  0.17763568394E-14 -0.16440969487E+03  0.18100048442E+03  0.75700908804E+02 0.  0.
         66    2    3    3    0    0 -0.24486859755E+02 -0.15165016004E+02 -0.14088134222E+03  0.14380937589E+03  0.19999996587E+01 0.  0.
        -13    1    3    3    0    0  0.24486859755E+02  0.15165016004E+02 -0.23528352653E+02  0.37191108529E+02  0.10566000000E+00 0.  1.
         13    1    4    4    0    0 -0.17348961258E+02 -0.10055104536E+02 -0.94871872690E+02  0.96967906937E+02  0.10566000000E+00 0. -1.
        -13    1    4    4    0    0 -0.29299570015E+01 -0.18584113310E+01 -0.17993860108E+02  0.18325624310E+02  0.10566000000E+00 0.  1.
         14    1    4    4    0    0 -0.42079414954E+01 -0.32515001371E+01 -0.28015609417E+02  0.28515844644E+02  0.00000000000E+00 0. -1.
<mgrwt>
<rscale>  0 0.75700909E+02</rscale>
<asrwt>0</asrwt>
<pdfrwt beam="1">  1        2 0.26570011E-01 0.75700909E+02</pdfrwt>
<pdfrwt beam="2">  1       -1 0.12762147E-02 0.75700909E+02</pdfrwt>
<totfact> 0.24270866E+05</totfact>
</mgrwt>
</event>
<event>
 8    1  0.2603554E-020  0.7925736E+02  0.7818608E-02  0.1331172E+00
         -1   -1    0    0    0  501 -0.00000000000E+00  0.00000000000E+00  0.40745305076E+02  0.40745305388E+02  0.50400000000E-02 0.  1.
          2   -1    0    0  501    0  0.00000000000E+00 -0.00000000000E+00 -0.38542652872E+02  0.38542652957E+02  0.25500000000E-02 0. -1.
         24    2    1    2    0    0  0.00000000000E+00 -0.17763568394E-14  0.22026522036E+01  0.79287958345E+02  0.79257357146E+02 0.  0.
         66    2    3    3    0    0 -0.66798913217E+01  0.10772451016E+02 -0.36432596405E+02  0.38626425564E+02  0.20000055269E+01 0.  0.
        -13    1    3    3    0    0  0.66798913217E+01 -0.10772451016E+02  0.38635248608E+02  0.40661532780E+02  0.10566000000E+00 0.  1.
         13    1    4    4    0    0 -0.42250049566E+01  0.55848710760E+01 -0.20625549514E+02  0.21782238375E+02  0.10566000000E+00 0. -1.
        -13    1    4    4    0    0 -0.21357349827E+01  0.35869975837E+01 -0.11820993891E+02  0.12536944452E+02  0.10566000000E+00 0.  1.
        -14    1    4    4    0    0 -0.31915138249E+00  0.16005823566E+01 -0.39860530000E+01  0.43072427380E+01  0.00000000000E+00 0.  1.
<mgrwt>
<rscale>  0 0.79257357E+02</rscale>
<asrwt>0</asrwt>
<pdfrwt beam="1">  1        2 0.59296389E-02 0.79257357E+02</pdfrwt>
<pdfrwt beam="2">  1       -1 0.62685085E-02 0.79257357E+02</pdfrwt>
<totfact> 0.14517157E+05</totfact>
</mgrwt>
</event>
<event>
 8    1  0.2603554E-020  0.7426528E+02  0.7818608E-02  0.1346161E+00
         -1   -1    0    0    0  501 -0.00000000000E+00  0.00000000000E+00  0.12916319803E+03  0.12916319813E+03  0.50400000000E-02 0.  1.
          2   -1    0    0  501    0  0.00000000000E+00 -0.00000000000E+00 -0.10675123272E+02  0.10675123576E+02  0.25500000000E-02 0. -1.
         24    2    1    2    0    0 -0.35527136788E-14  0.11102230246E-15  0.11848807476E+03  0.13983832170E+03  0.74265283660E+02 0.  0.
         66    2    3    3    0    0  0.23915073013E+02 -0.50668868376E+00  0.58745722215E+01  0.24712305668E+02  0.20000005020E+01 0.  0.
        -13    1    3    3    0    0 -0.23915073013E+02  0.50668868376E+00  0.11261350254E+03  0.11512601604E+03  0.10566000000E+00 0.  1.
         13    1    4    4    0    0  0.18394681561E+01 -0.77270563090E-01  0.18762101196E-01  0.18442152503E+01  0.10566000000E+00 0. -1.
        -13    1    4    4    0    0  0.18231618990E+02 -0.11533925385E+00  0.44944899164E+01  0.18778094626E+02  0.10566000000E+00 0.  1.
        -14    1    4    4    0    0  0.38439858674E+01 -0.31407886682E+00  0.13613202039E+01  0.40899957923E+01  0.00000000000E+00 0.  1.
<mgrwt>
<rscale>  0 0.74265284E+02</rscale>
<asrwt>0</asrwt>
<pdfrwt beam="1">  1        2 0.16423267E-02 0.74265284E+02</pdfrwt>
<pdfrwt beam="2">  1       -1 0.19871261E-01 0.74265284E+02</pdfrwt>
<totfact> 0.13491274E+05</totfact>
</mgrwt>
</event>
<event>
 8    1  0.2603554E-020  0.8147466E+02  0.7818608E-02  0.1324918E+00
          2   -1    0    0  501    0  0.00000000000E+00  0.00000000000E+00  0.17269811518E+02  0.17269811706E+02  0.25500000000E-02 0. -1.
         -1   -1    0    0    0  501 -0.00000000000E+00 -0.00000000000E+00 -0.96094282541E+02  0.96094282673E+02  0.50400000000E-02 0.  1.
         24    2    1    2    0    0  0.00000000000E+00  0.00000000000E+00 -0.78824471023E+02  0.11336409438E+03  0.81474662702E+02 0.  0.
         66    2    3    3    0    0 -0.18957076317E+02  0.15815057962E+02  0.56085583995E+01  0.25395722664E+02  0.20000003617E+01 0.  0.
        -13    1    3    3    0    0  0.18957076317E+02 -0.15815057962E+02 -0.84433029422E+02  0.87968371716E+02  0.10566000000E+00 0.  1.
         13    1    4    4    0    0 -0.78914728196E+01  0.64712124296E+01  0.18965318915E+01  0.10380748086E+02  0.10566000000E+00 0. -1.
        -13    1    4    4    0    0 -0.65474073972E+01  0.63928129333E+01  0.22512586278E+01  0.94242204065E+01  0.10566000000E+00 0.  1.
        -14    1    4    4    0    0 -0.45181961006E+01  0.29510325988E+01  0.14607678802E+01  0.55907541712E+01  0.00000000000E+00 0.  1.
<mgrwt>
<rscale>  0 0.81474663E+02</rscale>
<asrwt>0</asrwt>
<pdfrwt beam="1">  1        2 0.26568942E-02 0.81474663E+02</pdfrwt>
<pdfrwt beam="2">  1       -1 0.14783736E-01 0.81474663E+02</pdfrwt>
<totfact> 0.11422891E+05</totfact>
</mgrwt>
</event>
<event>
 8    1  0.2603554E-020  0.7818449E+02  0.7818608E-02  0.1334284E+00
          2   -1    0    0  501    0  0.00000000000E+00  0.00000000000E+00  0.80585770898E+03  0.80585770899E+03  0.25500000000E-02 0. -1.
         -1   -1    0    0    0  501 -0.00000000000E+00 -0.00000000000E+00 -0.18963655171E+01  0.18963722145E+01  0.50400000000E-02 0.  1.
         24    2    1    2    0    0  0.00000000000E+00 -0.35527136788E-14  0.80396134347E+03  0.80775408120E+03  0.78184486379E+02 0.  0.
         66    2    3    3    0    0 -0.81505600508E+01  0.27012523654E+02  0.68139894734E+03  0.68198580153E+03  0.19999974130E+01 0.  0.
        -13    1    3    3    0    0  0.81505600508E+01 -0.27012523654E+02  0.12256239612E+03  0.12576827967E+03  0.10566000000E+00 0.  1.
         13    1    4    4    0    0 -0.39168334399E+01  0.11710044606E+02  0.30230394621E+03  0.30255603413E+03  0.10566000000E+00 0. -1.
        -13    1    4    4    0    0 -0.31354879187E+01  0.11056911529E+02  0.25951952679E+03  0.25977390655E+03  0.10566000000E+00 0.  1.
         14    1    4    4    0    0 -0.10982386922E+01  0.42455675183E+01  0.11957547434E+03  0.11965586085E+03  0.00000000000E+00 0. -1.
<mgrwt>
<rscale>  0 0.78184486E+02</rscale>
<asrwt>0</asrwt>
<pdfrwt beam="1">  1        2 0.12397814E+00 0.78184486E+02</pdfrwt>
<pdfrwt beam="2">  1       -1 0.29174899E-03 0.78184486E+02</pdfrwt>
<totfact> 0.36520064E+05</totfact>
</mgrwt>
</event>
<event>
 8    1  0.2603554E-020  0.7315114E+02  0.7818608E-02  0.1349694E+00
          2   -1    0    0  501    0  0.00000000000E+00  0.00000000000E+00  0.13473475498E+03  0.13473475500E+03  0.25500000000E-02 0. -1.
         -1   -1    0    0    0  501 -0.00000000000E+00 -0.00000000000E+00 -0.99289323523E+01  0.99289336314E+01  0.50400000000E-02 0.  1.
         24    2    1    2    0    0  0.35527136788E-14 -0.35527136788E-14  0.12480582263E+03  0.14466368863E+03  0.73151141124E+02 0.  0.
         66    2    3    3    0    0 -0.16290913047E+02  0.30138549402E+02  0.37275465658E+02  0.50667409117E+02  0.19999996622E+01 0.  0.
        -13    1    3    3    0    0  0.16290913047E+02 -0.30138549402E+02  0.87530356968E+02  0.93996279516E+02  0.10566000000E+00 0.  1.
         13    1    4    4    0    0 -0.33095239771E+01  0.62582937221E+01  0.85616123336E+01  0.11109975655E+02  0.10566000000E+00 0.  1.
        -13    1    4    4    0    0 -0.78530078148E+01  0.14634418759E+02  0.18397955916E+02  0.24785719478E+02  0.10566000000E+00 0. -1.
        -14    1    4    4    0    0 -0.51283812549E+01  0.92458369216E+01  0.10315897408E+02  0.14771713983E+02  0.00000000000E+00 0.  1.
<mgrwt>
<rscale>  0 0.73151141E+02</rscale>
<asrwt>0</asrwt>
<pdfrwt beam="1">  1        2 0.20728425E-01 0.73151141E+02</pdfrwt>
<pdfrwt beam="2">  1       -1 0.15275281E-02 0.73151141E+02</pdfrwt>
<totfact> 0.24530239E+05</totfact>
</mgrwt>
</event>
<event>
 8    1  0.2603554E-020  0.7896395E+02  0.7818608E-02  0.1332018E+00
         -1   -1    0    0    0  501 -0.00000000000E+00  0.00000000000E+00  0.50310981191E+01  0.50311006436E+01  0.50400000000E-02 0.  1.
          2   -1    0    0  501    0  0.00000000000E+00 -0.00000000000E+00 -0.30983809133E+03  0.30983809134E+03  0.25500000000E-02 0. -1.
         24    2    1    2    0    0 -0.35527136788E-14 -0.44408920985E-15 -0.30480699321E+03  0.31486919198E+03  0.78963947156E+02 0.  0.
         66    2    3    3    0    0 -0.24805430026E+02  0.28852993768E+01 -0.27431175283E+03  0.27545339361E+03  0.20000002650E+01 0.  0.
        -13    1    3    3    0    0  0.24805430026E+02 -0.28852993768E+01 -0.30495240379E+02  0.39415798369E+02  0.10566000000E+00 0.  1.
         13    1    4    4    0    0 -0.47228922084E+01  0.23301846275E+00 -0.47922231931E+02  0.48155077466E+02  0.10566000000E+00 0. -1.
        -13    1    4    4    0    0 -0.98678780444E+01  0.60511842248E+00 -0.11113984128E+03  0.11157874649E+03  0.10566000000E+00 0.  1.
         14    1    4    4    0    0 -0.10214659773E+02  0.20471624915E+01 -0.11524967962E+03  0.11571956965E+03  0.00000000000E+00 0. -1.
<mgrwt>
<rscale>  0 0.78963947E+02</rscale>
<asrwt>0</asrwt>
<pdfrwt beam="1">  1        2 0.47667384E-01 0.78963947E+02</pdfrwt>
<pdfrwt beam="2">  1       -1 0.77401553E-03 0.78963947E+02</pdfrwt>
<totfact> 0.26689637E+05</totfact>
</mgrwt>
</event>
<event>
 8    1  0.2603554E-020  0.7703222E+02  0.7818608E-02  0.1337691E+00
         -1   -1    0    0    0  501 -0.00000000000E+00  0.00000000000E+00  0.91999053366E+01  0.91999067171E+01  0.50400000000E-02 0.  1.
          2   -1    0    0  501    0  0.00000000000E+00 -0.00000000000E+00 -0.16125062185E+03  0.16125062187E+03  0.25500000000E-02 0. -1.
         24    2    1    2    0    0  0.00000000000E+00  0.35527136788E-14 -0.15205071651E+03  0.17045052858E+03  0.77032216009E+02 0.  0.
         66    2    3    3    0    0 -0.10673604608E+01  0.27353147185E+02 -0.13594884081E+03  0.13869182136E+03  0.20000190686E+01 0.  0.
        -13    1    3    3    0    0  0.10673604608E+01 -0.27353147185E+02 -0.16101875703E+02  0.31758707223E+02  0.10566000000E+00 0.  1.
         13    1    4    4    0    0 -0.32721778763E+00  0.13315993489E+01 -0.69310754635E+01  0.70662012017E+01  0.10566000000E+00 0. -1.
        -13    1    4    4    0    0 -0.70564204077E+00  0.11957701874E+02 -0.56284722479E+02  0.57545336157E+02  0.10566000000E+00 0.  1.
         14    1    4    4    0    0 -0.34500632422E-01  0.14063845962E+02 -0.72733042865E+02  0.74080284003E+02  0.00000000000E+00 0. -1.
<mgrwt>
<rscale>  0 0.77032216E+02</rscale>
<asrwt>0</asrwt>
<pdfrwt beam="1">  1        2 0.24807786E-01 0.77032216E+02</pdfrwt>
<pdfrwt beam="2">  1       -1 0.14153703E-02 0.77032216E+02</pdfrwt>
<totfact> 0.22663118E+05</totfact>
</mgrwt>
</event>
<event>
 8    1  0.2603554E-020  0.8116019E+02  0.7818608E-02  0.1325791E+00
         -1   -1    0    0    0  501 -0.00000000000E+00  0.00000000000E+00  0.35882711494E+01  0.35882746889E+01  0.50400000000E-02 0.  1.
          2   -1    0    0  501    0  0.00000000000E+00 -0.00000000000E+00 -0.45892389595E+03  0.45892389596E+03  0.25500000000E-02 0. -1.
         24    2    1    2    0    0  0.00000000000E+00  0.00000000000E+00 -0.45533562480E+03  0.46251217065E+03  0.81160192109E+02 0.  0.
         66    2    3    3    0    0 -0.29713369892E+02  0.12792285094E+02 -0.36718802709E+03  0.36861575402E+03  0.19999921294E+01 0.  0.
        -13    1    3    3    0    0  0.29713369892E+02 -0.12792285094E+02 -0.88147597715E+02  0.93896416626E+02  0.10566000000E+00 0.  1.
         13    1    4    4    0    0 -0.10406486661E+02  0.52753721009E+01 -0.12946002427E+03  0.12998474358E+03  0.10566000000E+00 0.  1.
        -13    1    4    4    0    0 -0.12516942648E+02  0.43963927739E+01 -0.15288122924E+03  0.15345580322E+03  0.10566000000E+00 0. -1.
         14    1    4    4    0    0 -0.67899405829E+01  0.31205202188E+01 -0.84846773572E+02  0.85175207221E+02  0.00000000000E+00 0. -1.
<mgrwt>
<rscale>  0 0.81160192E+02</rscale>
<asrwt>0</asrwt>
<pdfrwt beam="1">  1        2 0.70603630E-01 0.81160192E+02</pdfrwt>
<pdfrwt beam="2">  1       -1 0.55204235E-03 0.81160192E+02</pdfrwt>
<totfact> 0.28519952E+05</totfact>
</mgrwt>
</event>
<event>
 8    1  0.2603554E-020  0.7968792E+02  0.7818608E-02  0.1329939E+00
         -1   -1    0    0    0  501 -0.00000000000E+00  0.00000000000E+00  0.12899949696E+02  0.12899950681E+02  0.50400000000E-02 0.  1.
          2   -1    0    0  501    0  0.00000000000E+00 -0.00000000000E+00 -0.12306567046E+03  0.12306567049E+03  0.25500000000E-02 0. -1.
         24    2    1    2    0    0  0.00000000000E+00 -0.71054273576E-14 -0.11016572077E+03  0.13596562117E+03  0.79687916952E+02 0.  0.
         66    2    3    3    0    0 -0.11098845807E+02  0.34210392777E+02 -0.84273504592E+02  0.91649107604E+02  0.19999990604E+01 0.  0.
        -13    1    3    3    0    0  0.11098845807E+02 -0.34210392777E+02 -0.25892216177E+02  0.44316513568E+02  0.10566000000E+00 0.  1.
         13    1    4    4    0    0 -0.61628911940E+01  0.16367512802E+02 -0.40642280868E+02  0.44245710090E+02  0.10566000000E+00 0. -1.
        -13    1    4    4    0    0 -0.20421199128E+00  0.95570583893E+00 -0.19796745774E+01  0.22102831619E+01  0.10566000000E+00 0. -1.
        -14    1    4    4    0    0 -0.47317426220E+01  0.16887174136E+02 -0.41651549147E+02  0.45193114352E+02  0.00000000000E+00 0.  1.
<mgrwt>
<rscale>  0 0.79687917E+02</rscale>
<asrwt>0</asrwt>
<pdfrwt beam="1">  1        2 0.18933179E-01 0.79687917E+02</pdfrwt>
<pdfrwt beam="2">  1       -1 0.19846078E-02 0.79687917E+02</pdfrwt>
<totfact> 0.19025956E+05</totfact>
</mgrwt>
</event>
<event>
 8    1  0.2603554E-020  0.7958572E+02  0.7818608E-02  0.1330231E+00
         -1   -1    0    0    0  501 -0.00000000000E+00  0.00000000000E+00  0.21190756487E+01  0.21190816422E+01  0.50400000000E-02 0.  1.
          2   -1    0    0  501    0  0.00000000000E+00 -0.00000000000E+00 -0.74724527453E+03  0.74724527454E+03  0.25500000000E-02 0. -1.
         24    2    1    2    0    0  0.35527136788E-14  0.00000000000E+00 -0.74512619888E+03  0.74936435618E+03  0.79585715104E+02 0.  0.
         66    2    3    3    0    0  0.27612634048E+02  0.22104011354E+02 -0.54395374504E+03  0.54510615628E+03  0.19999981666E+01 0.  0.
        -13    1    3    3    0    0 -0.27612634048E+02 -0.22104011354E+02 -0.20117245384E+03  0.20425819990E+03  0.10566000000E+00 0.  1.
         13    1    4    4    0    0  0.72177132564E+01  0.67496580949E+01 -0.15206587436E+03  0.15238666141E+03  0.10566000000E+00 0.  1.
        -13    1    4    4    0    0  0.15211375439E+02  0.11699107958E+02 -0.28945521036E+03  0.29009064969E+03  0.10566000000E+00 0. -1.
         14    1    4    4    0    0  0.51835453525E+01  0.36552453012E+01 -0.10243266032E+03  0.10262884517E+03  0.00000000000E+00 0. -1.
<mgrwt>
<rscale>  0 0.79585715E+02</rscale>
<asrwt>0</asrwt>
<pdfrwt beam="1">  1        2 0.11496060E+00 0.79585715E+02</pdfrwt>
<pdfrwt beam="2">  1       -1 0.32601270E-03 0.79585715E+02</pdfrwt>
<totfact> 0.34388210E+05</totfact>
</mgrwt>
</event>
<event>
 8    1  0.2603554E-020  0.7994732E+02  0.7818608E-02  0.1329201E+00
          2   -1    0    0  501    0  0.00000000000E+00  0.00000000000E+00  0.60631593212E+02  0.60631593265E+02  0.25500000000E-02 0. -1.
         -1   -1    0    0    0  501 -0.00000000000E+00 -0.00000000000E+00 -0.26354138609E+02  0.26354139091E+02  0.50400000000E-02 0.  1.
         24    2    1    2    0    0  0.00000000000E+00  0.00000000000E+00  0.34277454603E+02  0.86985732356E+02  0.79947318526E+02 0.  0.
         66    2    3    3    0    0  0.12112668377E+02  0.14561573737E+02  0.55418871112E+02  0.58600404791E+02  0.20000003658E+01 0.  0.
        -13    1    3    3    0    0 -0.12112668377E+02 -0.14561573737E+02 -0.21141416510E+02  0.28385327565E+02  0.10566000000E+00 0.  1.
         13    1    4    4    0    0  0.30482296633E+01  0.39028755157E+01  0.14000460819E+02  0.14850865582E+02  0.10566000000E+00 0. -1.
        -13    1    4    4    0    0  0.28154315479E+01  0.23439736215E+01  0.11950529837E+02  0.12499887782E+02  0.10566000000E+00 0.  1.
        -14    1    4    4    0    0  0.62490071653E+01  0.83147245998E+01  0.29467880457E+02  0.31249651428E+02  0.00000000000E+00 0.  1.
<mgrwt>
<rscale>  0 0.79947319E+02</rscale>
<asrwt>0</asrwt>
<pdfrwt beam="1">  1        2 0.93279373E-02 0.79947319E+02</pdfrwt>
<pdfrwt beam="2">  1       -1 0.40544830E-02 0.79947319E+02</pdfrwt>
<totfact> 0.15631934E+05</totfact>
</mgrwt>
</event>
<event>
 8    1  0.2603554E-020  0.8000514E+02  0.7818608E-02  0.1329037E+00
          2   -1    0    0  501    0  0.00000000000E+00  0.00000000000E+00  0.58527260077E+02  0.58527260133E+02  0.25500000000E-02 0. -1.
         -1   -1    0    0    0  501 -0.00000000000E+00 -0.00000000000E+00 -0.27341200480E+02  0.27341200944E+02  0.50400000000E-02 0.  1.
         24    2    1    2    0    0 -0.35527136788E-14  0.00000000000E+00  0.31186059597E+02  0.85868461077E+02  0.80005139176E+02 0.  0.
         66    2    3    3    0    0  0.28344824733E+02  0.18346838536E+02  0.38576226038E+02  0.51304588356E+02  0.19999994177E+01 0.  0.
        -13    1    3    3    0    0 -0.28344824733E+02 -0.18346838536E+02 -0.73901664405E+01  0.34563872721E+02  0.10566000000E+00 0.  1.
         13    1    4    4    0    0  0.14223553253E+02  0.89458773847E+01  0.17859600198E+02  0.24521718386E+02  0.10566000000E+00 0.  1.
        -13    1    4    4    0    0  0.70945518185E+01  0.43909569468E+01  0.10312764271E+02  0.13265648848E+02  0.10566000000E+00 0. -1.
        -14    1    4    4    0    0  0.70267196617E+01  0.50100042045E+01  0.10403861569E+02  0.13517221123E+02  0.00000000000E+00 0.  1.
<mgrwt>
<rscale>  0 0.80005139E+02</rscale>
<asrwt>0</asrwt>
<pdfrwt beam="1">  1        2 0.90041937E-02 0.80005139E+02</pdfrwt>
<pdfrwt beam="2">  1       -1 0.42063387E-02 0.80005139E+02</pdfrwt>
<totfact> 0.15474784E+05</totfact>
</mgrwt>
</event>
<event>
 8    1  0.2603554E-020  0.7904919E+02  0.7818608E-02  0.1331772E+00
          2   -1    0    0  501    0  0.00000000000E+00  0.00000000000E+00  0.75733476850E+03  0.75733476850E+03  0.25500000000E-02 0. -1.
         -1   -1    0    0    0  501 -0.00000000000E+00 -0.00000000000E+00 -0.20627486101E+01  0.20627547673E+01  0.50400000000E-02 0.  1.
         24    2    1    2    0    0  0.35527136788E-14  0.00000000000E+00  0.75527201989E+03  0.75939752327E+03  0.79049189259E+02 0.  0.
         66    2    3    3    0    0  0.31327864735E+02  0.77237033865E+00  0.60886784577E+03  0.60967703359E+03  0.20000043740E+01 0.  0.
        -13    1    3    3    0    0 -0.31327864735E+02 -0.77237033865E+00  0.14640417412E+03  0.14972048968E+03  0.10566000000E+00 0.  1.
         13    1    4    4    0    0  0.61923058514E+01 -0.36619722661E-01  0.13156342156E+03  0.13170911528E+03  0.10566000000E+00 0.  1.
        -13    1    4    4    0    0  0.19324870759E+02  0.13252893312E+00  0.36561262396E+03  0.36612302599E+03  0.10566000000E+00 0. -1.
        -14    1    4    4    0    0  0.58106881246E+01  0.67646112819E+00  0.11169180025E+03  0.11184489232E+03  0.00000000000E+00 0.  1.
<mgrwt>
<rscale>  0 0.79049189E+02</rscale>
<asrwt>0</asrwt>
<pdfrwt beam="1">  1        2 0.11651301E+00 0.79049189E+02</pdfrwt>
<pdfrwt beam="2">  1       -1 0.31734649E-03 0.79049189E+02</pdfrwt>
<totfact> 0.35091556E+05</totfact>
</mgrwt>
</event>
<event>
 8    1  0.2603554E-020  0.7906687E+02  0.7818608E-02  0.1331721E+00
          2   -1    0    0  501    0  0.00000000000E+00  0.00000000000E+00  0.22106923267E+03  0.22106923268E+03  0.25500000000E-02 0. -1.
         -1   -1    0    0    0  501 -0.00000000000E+00 -0.00000000000E+00 -0.70696963057E+01  0.70696981022E+01  0.50400000000E-02 0.  1.
         24    2    1    2    0    0  0.00000000000E+00  0.00000000000E+00  0.21399953636E+03  0.22813893078E+03  0.79066871548E+02 0.  0.
         66    2    3    3    0    0 -0.26441217524E+02 -0.22705175202E+02  0.16075685593E+03  0.16450358566E+03  0.20000006638E+01 0.  0.
        -13    1    3    3    0    0  0.26441217524E+02  0.22705175202E+02  0.53242680435E+02  0.63635345123E+02  0.10566000000E+00 0.  1.
         13    1    4    4    0    0 -0.48504529131E+01 -0.46049404924E+01  0.28137257247E+02  0.28921424236E+02  0.10566000000E+00 0. -1.
        -13    1    4    4    0    0 -0.10229980516E+02 -0.80516332311E+01  0.62054809688E+02  0.63405771571E+02  0.10566000000E+00 0.  1.
        -14    1    4    4    0    0 -0.11360784095E+02 -0.10048601478E+02  0.70564788992E+02  0.72176389854E+02  0.00000000000E+00 0.  1.
<mgrwt>
<rscale>  0 0.79066872E+02</rscale>
<asrwt>0</asrwt>
<pdfrwt beam="1">  1        2 0.34010656E-01 0.79066872E+02</pdfrwt>
<pdfrwt beam="2">  1       -1 0.10876456E-02 0.79066872E+02</pdfrwt>
<totfact> 0.23562962E+05</totfact>
</mgrwt>
</event>
<event>
 8    1  0.2603554E-020  0.8019783E+02  0.7818608E-02  0.1328491E+00
          2   -1    0    0  501    0  0.00000000000E+00  0.00000000000E+00  0.50076431000E+03  0.50076431001E+03  0.25500000000E-02 0. -1.
         -1   -1    0    0    0  501 -0.00000000000E+00 -0.00000000000E+00 -0.32109356304E+01  0.32109395859E+01  0.50400000000E-02 0.  1.
         24    2    1    2    0    0  0.00000000000E+00  0.00000000000E+00  0.49755337437E+03  0.50397524960E+03  0.80197829492E+02 0.  0.
         66    2    3    3    0    0  0.32744320500E+02  0.10201478933E+02  0.37918996213E+03  0.38074307352E+03  0.19999898464E+01 0.  0.
        -13    1    3    3    0    0 -0.32744320500E+02 -0.10201478933E+02  0.11836341225E+03  0.12323217607E+03  0.10566000000E+00 0.  1.
         13    1    4    4    0    0  0.22916376004E+02  0.70841110009E+01  0.26425335665E+03  0.26533976819E+03  0.10566000000E+00 0. -1.
        -13    1    4    4    0    0  0.37150354330E+01  0.95975032841E+00  0.37560386610E+02  0.37756011644E+02  0.10566000000E+00 0.  1.
         14    1    4    4    0    0  0.61129090630E+01  0.21576176037E+01  0.77376218870E+02  0.77647293691E+02  0.00000000000E+00 0. -1.
<mgrwt>
<rscale>  0 0.80197829E+02</rscale>
<asrwt>0</asrwt>
<pdfrwt beam="1">  1        2 0.77040598E-01 0.80197829E+02</pdfrwt>
<pdfrwt beam="2">  1       -1 0.49399082E-03 0.80197829E+02</pdfrwt>
<totfact> 0.30270652E+05</totfact>
</mgrwt>
</event>
<event>
 8    1  0.2603554E-020  0.7911127E+02  0.7818608E-02  0.1331593E+00
         -1   -1    0    0    0  501 -0.00000000000E+00  0.00000000000E+00  0.10706191110E+02  0.10706192296E+02  0.50400000000E-02 0.  1.
          2   -1    0    0  501    0  0.00000000000E+00 -0.00000000000E+00 -0.14614425685E+03  0.14614425687E+03  0.25500000000E-02 0. -1.
         24    2    1    2    0    0  0.00000000000E+00  0.00000000000E+00 -0.13543806574E+03  0.15685044917E+03  0.79111274498E+02 0.  0.
         66    2    3    3    0    0  0.24500658873E+01 -0.18409088508E+02 -0.13694939423E+03  0.13821734313E+03  0.19999999102E+01 0.  0.
        -13    1    3    3    0    0 -0.24500658873E+01  0.18409088508E+02  0.15113284946E+01  0.18633106032E+02  0.10566000000E+00 0.  1.
         13    1    4    4    0    0  0.20306761093E+01 -0.12779013142E+02 -0.98827453261E+02  0.99670976239E+02  0.10566000000E+00 0. -1.
        -13    1    4    4    0    0  0.88673384993E-01 -0.21917182370E+01 -0.17479720094E+02  0.17617130027E+02  0.10566000000E+00 0.  1.
        -14    1    4    4    0    0  0.33071639296E+00 -0.34383571294E+01 -0.20642220878E+02  0.20929236867E+02  0.00000000000E+00 0.  1.
<mgrwt>
<rscale>  0 0.79111274E+02</rscale>
<asrwt>0</asrwt>
<pdfrwt beam="1">  1        2 0.22483730E-01 0.79111274E+02</pdfrwt>
<pdfrwt beam="2">  1       -1 0.16471065E-02 0.79111274E+02</pdfrwt>
<totfact> 0.20460861E+05</totfact>
</mgrwt>
</event>
<event>
 8    1  0.2603554E-020  0.8043428E+02  0.7818608E-02  0.1327824E+00
          2   -1    0    0  501    0  0.00000000000E+00  0.00000000000E+00  0.91625828533E+02  0.91625828568E+02  0.25500000000E-02 0. -1.
         -1   -1    0    0    0  501 -0.00000000000E+00 -0.00000000000E+00 -0.17652427204E+02  0.17652427924E+02  0.50400000000E-02 0.  1.
         24    2    1    2    0    0 -0.71054273576E-14 -0.17763568394E-14  0.73973401329E+02  0.10927825649E+03  0.80434278997E+02 0.  0.
         66    2    3    3    0    0  0.35009104671E+02  0.14610403126E+02  0.55049382182E+02  0.66884495700E+02  0.19999992896E+01 0.  0.
        -13    1    3    3    0    0 -0.35009104671E+02 -0.14610403126E+02  0.18924019147E+02  0.42393760792E+02  0.10566000000E+00 0.  1.
         13    1    4    4    0    0  0.24189031472E+00  0.22163707612E+00  0.42312400360E+00  0.54573975106E+00  0.10566000000E+00 0. -1.
        -13    1    4    4    0    0  0.13429837840E+02  0.50827726624E+01  0.20499482134E+02  0.25028684627E+02  0.10566000000E+00 0.  1.
         14    1    4    4    0    0  0.21337376515E+02  0.93059933877E+01  0.34126776044E+02  0.41310071322E+02  0.00000000000E+00 0. -1.
<mgrwt>
<rscale>  0 0.80434279E+02</rscale>
<asrwt>0</asrwt>
<pdfrwt beam="1">  1        2 0.14096281E-01 0.80434279E+02</pdfrwt>
<pdfrwt beam="2">  1       -1 0.27157581E-02 0.80434279E+02</pdfrwt>
<totfact> 0.17054313E+05</totfact>
</mgrwt>
</event>
<event>
 8    1  0.2603554E-020  0.8026373E+02  0.7818608E-02  0.1328305E+00
         -1   -1    0    0    0  501 -0.00000000000E+00  0.00000000000E+00  0.19268760676E+02  0.19268761336E+02  0.50400000000E-02 0.  1.
          2   -1    0    0  501    0  0.00000000000E+00 -0.00000000000E+00 -0.83584336102E+02  0.83584336141E+02  0.25500000000E-02 0. -1.
         24    2    1    2    0    0 -0.35527136788E-14  0.35527136788E-14 -0.64315575425E+02  0.10285309748E+03  0.80263730403E+02 0.  0.
         66    2    3    3    0    0  0.25597224478E+02 -0.22206680479E+02 -0.46877022192E+01  0.34268485602E+02  0.19999986217E+01 0.  0.
        -13    1    3    3    0    0 -0.25597224478E+02  0.22206680479E+02 -0.59627873206E+02  0.68584611874E+02  0.10566000000E+00 0.  1.
         13    1    4    4    0    0  0.83417234207E+01 -0.79566065157E+01 -0.20711256208E+01  0.11712927143E+02  0.10566000000E+00 0. -1.
        -13    1    4    4    0    0  0.65563230183E+01 -0.47858187465E+01 -0.10475780277E+01  0.81852316006E+01  0.10566000000E+00 0.  1.
         14    1    4    4    0    0  0.10699178039E+02 -0.94642552169E+01 -0.15689985706E+01  0.14370326859E+02  0.00000000000E+00 0. -1.
<mgrwt>
<rscale>  0 0.80263730E+02</rscale>
<asrwt>0</asrwt>
<pdfrwt beam="1">  1        2 0.12859128E-01 0.80263730E+02</pdfrwt>
<pdfrwt beam="2">  1       -1 0.29644248E-02 0.80263730E+02</pdfrwt>
<totfact> 0.16737287E+05</totfact>
</mgrwt>
</event>
<event>
 8    1  0.2603554E-020  0.7906803E+02  0.7818608E-02  0.1331717E+00
          2   -1    0    0  501    0  0.00000000000E+00  0.00000000000E+00  0.76517668998E+02  0.76517669041E+02  0.25500000000E-02 0. -1.
         -1   -1    0    0    0  501 -0.00000000000E+00 -0.00000000000E+00 -0.20425849922E+02  0.20425850544E+02  0.50400000000E-02 0.  1.
         24    2    1    2    0    0  0.00000000000E+00  0.00000000000E+00  0.56091819076E+02  0.96943519585E+02  0.79068032872E+02 0.  0.
         66    2    3    3    0    0  0.23364597904E+02  0.19064079839E+02  0.59360971497E+02  0.66611323870E+02  0.19999888231E+01 0.  0.
        -13    1    3    3    0    0 -0.23364597904E+02 -0.19064079839E+02 -0.32691524211E+01  0.30332195715E+02  0.10566000000E+00 0.  1.
         13    1    4    4    0    0  0.10945524888E+02  0.96235953755E+01  0.29218122606E+02  0.32651614901E+02  0.10566000000E+00 0. -1.
        -13    1    4    4    0    0  0.92221248944E+01  0.64801582486E+01  0.21103055504E+02  0.23924676678E+02  0.10566000000E+00 0.  1.
        -14    1    4    4    0    0  0.31969481215E+01  0.29603262144E+01  0.90397933870E+01  0.10035032290E+02  0.00000000000E+00 0.  1.
<mgrwt>
<rscale>  0 0.79068033E+02</rscale>
<asrwt>0</asrwt>
<pdfrwt beam="1">  1        2 0.11771949E-01 0.79068033E+02</pdfrwt>
<pdfrwt beam="2">  1       -1 0.31424385E-02 0.79068033E+02</pdfrwt>
<totfact> 0.17037578E+05</totfact>
</mgrwt>
</event>
<event>
 8    1  0.2603554E-020  0.8035419E+02  0.7818608E-02  0.1328049E+00
          2   -1    0    0  501    0  0.00000000000E+00  0.00000000000E+00  0.15439763744E+03  0.15439763746E+03  0.25500000000E-02 0. -1.
         -1   -1    0    0    0  501 -0.00000000000E+00 -0.00000000000E+00 -0.10454814664E+02  0.10454815879E+02  0.50400000000E-02 0.  1.
         24    2    1    2    0    0  0.00000000000E+00  0.00000000000E+00  0.14394282278E+03  0.16485245334E+03  0.80354185601E+02 0.  0.
         66    2    3    3    0    0  0.38060996061E+02 -0.87225106135E+01  0.91203530677E+02  0.99231071858E+02  0.20000003778E+01 0.  0.
        -13    1    3    3    0    0 -0.38060996061E+02  0.87225106135E+01  0.52739292099E+02  0.65621381483E+02  0.10566000000E+00 0.  1.
         13    1    4    4    0    0  0.17580490238E+02 -0.45321232437E+01  0.44091616094E+02  0.47683283779E+02  0.10566000000E+00 0. -1.
        -13    1    4    4    0    0  0.36517840447E+00 -0.60116480648E-01  0.87851767191E+00  0.95912803827E+00  0.10566000000E+00 0. -1.
        -14    1    4    4    0    0  0.20115327419E+02 -0.41302708891E+01  0.46233396911E+02  0.50588660041E+02  0.00000000000E+00 0.  1.
<mgrwt>
<rscale>  0 0.80354186E+02</rscale>
<asrwt>0</asrwt>
<pdfrwt beam="1">  1        2 0.23753482E-01 0.80354186E+02</pdfrwt>
<pdfrwt beam="2">  1       -1 0.16084332E-02 0.80354186E+02</pdfrwt>
<totfact> 0.19982640E+05</totfact>
</mgrwt>
</event>
<event>
 8    1  0.2603554E-020  0.8132882E+02  0.7818608E-02  0.1325322E+00
         -1   -1    0    0    0  501 -0.00000000000E+00  0.00000000000E+00  0.39849399815E+02  0.39849400133E+02  0.50400000000E-02 0.  1.
          2   -1    0    0  501    0  0.00000000000E+00 -0.00000000000E+00 -0.41496085973E+02  0.41496086051E+02  0.25500000000E-02 0. -1.
         24    2    1    2    0    0  0.35527136788E-14  0.00000000000E+00 -0.16466861585E+01  0.81345486185E+02  0.81328817447E+02 0.  0.
         66    2    3    3    0    0  0.19037587247E+02  0.32344756680E+02 -0.16414726309E+02  0.41012879192E+02  0.20000017236E+01 0.  0.
        -13    1    3    3    0    0 -0.19037587247E+02 -0.32344756680E+02  0.14768040151E+02  0.40332606993E+02  0.10566000000E+00 0.  1.
         13    1    4    4    0    0  0.91257387996E+01  0.14620337507E+02 -0.74842885925E+01  0.18789867409E+02  0.10566000000E+00 0. -1.
        -13    1    4    4    0    0  0.96296900614E+01  0.17380426593E+02 -0.85271544901E+01  0.21622527303E+02  0.10566000000E+00 0.  1.
        -14    1    4    4    0    0  0.28215838650E+00  0.34399258007E+00 -0.40328322678E+00  0.60048448041E+00  0.00000000000E+00 0.  1.
<mgrwt>
<rscale>  0 0.81328817E+02</rscale>
<asrwt>0</asrwt>
<pdfrwt beam="1">  1        2 0.63840133E-02 0.81328817E+02</pdfrwt>
<pdfrwt beam="2">  1       -1 0.61306769E-02 0.81328817E+02</pdfrwt>
<totfact> 0.13724411E+05</totfact>
</mgrwt>
</event>
<event>
 8    1  0.2603554E-020  0.8470198E+02  0.7818608E-02  0.1316214E+00
          2   -1    0    0  501    0  0.00000000000E+00  0.00000000000E+00  0.26243836602E+02  0.26243836726E+02  0.25500000000E-02 0. -1.
         -1   -1    0    0    0  501 -0.00000000000E+00 -0.00000000000E+00 -0.68343906404E+02  0.68343906589E+02  0.50400000000E-02 0.  1.
         24    2    1    2    0    0  0.71054273576E-14 -0.88817841970E-15 -0.42100069801E+02  0.94587743316E+02  0.84701979365E+02 0.  0.
         66    2    3    3    0    0 -0.24760018732E+02  0.55601879948E+01  0.16768728383E+02  0.30482199235E+02  0.20000001145E+01 0.  0.
        -13    1    3    3    0    0  0.24760018732E+02 -0.55601879948E+01 -0.58868798185E+02  0.64105544081E+02  0.10566000000E+00 0.  1.
         13    1    4    4    0    0 -0.16437189658E+02  0.37386780752E+01  0.10317594288E+02  0.19764180568E+02  0.10566000000E+00 0. -1.
        -13    1    4    4    0    0 -0.39019930611E+01  0.44389181690E+00  0.29440287047E+01  0.49092829257E+01  0.10566000000E+00 0.  1.
         14    1    4    4    0    0 -0.44208360127E+01  0.13776181027E+01  0.35071053905E+01  0.58087357410E+01  0.00000000000E+00 0. -1.
<mgrwt>
<rscale>  0 0.84701979E+02</rscale>
<asrwt>0</asrwt>
<pdfrwt beam="1">  1        2 0.40375134E-02 0.84701979E+02</pdfrwt>
<pdfrwt beam="2">  1       -1 0.10514447E-01 0.84701979E+02</pdfrwt>
<totfact> 0.11143960E+05</totfact>
</mgrwt>
</event>
<event>
 8    1  0.2603554E-020  0.8033327E+02  0.7818608E-02  0.1328108E+00
          2   -1    0    0  501    0  0.00000000000E+00  0.00000000000E+00  0.50075893604E+03  0.50075893605E+03  0.25500000000E-02 0. -1.
         -1   -1    0    0    0  501 -0.00000000000E+00 -0.00000000000E+00 -0.32218251315E+01  0.32218290736E+01  0.50400000000E-02 0.  1.
         24    2    1    2    0    0  0.00000000000E+00  0.00000000000E+00  0.49753711091E+03  0.50398076512E+03  0.80333273802E+02 0.  0.
         66    2    3    3    0    0 -0.20464702381E+01  0.26016717490E+02  0.44027259838E+03  0.44104990473E+03  0.19999887651E+01 0.  0.
        -13    1    3    3    0    0  0.20464702381E+01 -0.26016717490E+02  0.57264512534E+02  0.62930860388E+02  0.10566000000E+00 0.  1.
         13    1    4    4    0    0 -0.39785086476E+00  0.66352269444E+01  0.10316809219E+03  0.10338206291E+03  0.10566000000E+00 0.  1.
        -13    1    4    4    0    0 -0.12461190537E+01  0.14423810996E+02  0.24053452203E+03  0.24096984581E+03  0.10566000000E+00 0. -1.
        -14    1    4    4    0    0 -0.40250031964E+00  0.49576795502E+01  0.96569984158E+02  0.96697996015E+02  0.00000000000E+00 0.  1.
<mgrwt>
<rscale>  0 0.80333274E+02</rscale>
<asrwt>0</asrwt>
<pdfrwt beam="1">  1        2 0.77039772E-01 0.80333274E+02</pdfrwt>
<pdfrwt beam="2">  1       -1 0.49566613E-03 0.80333274E+02</pdfrwt>
<totfact> 0.30137673E+05</totfact>
</mgrwt>
</event>
<event>
 8    1  0.2603554E-020  0.8019491E+02  0.7818608E-02  0.1328499E+00
          2   -1    0    0  501    0  0.00000000000E+00  0.00000000000E+00  0.54629782055E+01  0.54629788007E+01  0.25500000000E-02 0. -1.
         -1   -1    0    0    0  501 -0.00000000000E+00 -0.00000000000E+00 -0.29430939280E+03  0.29430939284E+03  0.50400000000E-02 0.  1.
         24    2    1    2    0    0  0.00000000000E+00  0.00000000000E+00 -0.28884641459E+03  0.29977237164E+03  0.80194909919E+02 0.  0.
         66    2    3    3    0    0 -0.94867009136E+01  0.37650594416E+02 -0.10746343839E+03  0.11428016163E+03  0.19999995158E+01 0.  0.
        -13    1    3    3    0    0  0.94867009136E+01 -0.37650594416E+02 -0.18138297620E+03  0.18549221001E+03  0.10566000000E+00 0.  1.
         13    1    4    4    0    0 -0.19192486770E+01  0.77264684479E+01 -0.21969099909E+02  0.23367377795E+02  0.10566000000E+00 0. -1.
        -13    1    4    4    0    0 -0.19945771218E+01  0.52175223017E+01 -0.14987327700E+02  0.15994750154E+02  0.10566000000E+00 0.  1.
         14    1    4    4    0    0 -0.55728751148E+01  0.24706603666E+02 -0.70507010783E+02  0.74918033685E+02  0.00000000000E+00 0. -1.
<mgrwt>
<rscale>  0 0.80194910E+02</rscale>
<asrwt>0</asrwt>
<pdfrwt beam="1">  1        2 0.84045846E-03 0.80194910E+02</pdfrwt>
<pdfrwt beam="2">  1       -1 0.45278356E-01 0.80194910E+02</pdfrwt>
<totfact> 0.86559642E+04</totfact>
</mgrwt>
</event>
<event>
 8    1  0.2603554E-020  0.7277871E+02  0.7818608E-02  0.1350891E+00
          2   -1    0    0  501    0  0.00000000000E+00  0.00000000000E+00  0.22378199088E+03  0.22378199090E+03  0.25500000000E-02 0. -1.
         -1   -1    0    0    0  501 -0.00000000000E+00 -0.00000000000E+00 -0.59172984663E+01  0.59173006127E+01  0.50400000000E-02 0.  1.
         24    2    1    2    0    0  0.00000000000E+00  0.17763568394E-14  0.21786469241E+03  0.22969929151E+03  0.72778707864E+02 0.  0.
         66    2    3    3    0    0  0.21139947067E+02  0.10254051868E+02  0.19660132886E+03  0.19801041751E+03  0.19999977588E+01 0.  0.
        -13    1    3    3    0    0 -0.21139947067E+02 -0.10254051868E+02  0.21263363559E+02  0.31688874003E+02  0.10566000000E+00 0.  1.
         13    1    4    4    0    0  0.97335922611E+01  0.47187612326E+01  0.88274180339E+02  0.88934535499E+02  0.10566000000E+00 0. -1.
        -13    1    4    4    0    0  0.11407027468E+02  0.55415326726E+01  0.10832937982E+03  0.10906921911E+03  0.10566000000E+00 0.  1.
        -14    1    4    4    0    0 -0.67266194918E-03 -0.62420369465E-02 -0.22313052117E-02  0.66628989402E-02  0.00000000000E+00 0.  1.
<mgrwt>
<rscale>  0 0.72778708E+02</rscale>
<asrwt>0</asrwt>
<pdfrwt beam="1">  1        2 0.34427996E-01 0.72778708E+02</pdfrwt>
<pdfrwt beam="2">  1       -1 0.91035385E-03 0.72778708E+02</pdfrwt>
<totfact> 0.29397097E+05</totfact>
</mgrwt>
</event>
<event>
 8    1  0.2603554E-020  0.7958279E+02  0.7818608E-02  0.1330240E+00
         -1   -1    0    0    0  501 -0.00000000000E+00  0.00000000000E+00  0.12779004953E+02  0.12779005947E+02  0.50400000000E-02 0.  1.
          2   -1    0    0  501    0  0.00000000000E+00 -0.00000000000E+00 -0.12390282781E+03  0.12390282784E+03  0.25500000000E-02 0. -1.
         24    2    1    2    0    0 -0.71054273576E-14  0.00000000000E+00 -0.11112382286E+03  0.13668183379E+03  0.79582785075E+02 0.  0.
         66    2    3    3    0    0  0.38003113465E+02 -0.97886978941E+01 -0.44560213427E+02  0.59411008087E+02  0.20000054616E+01 0.  0.
        -13    1    3    3    0    0 -0.38003113465E+02  0.97886978941E+01 -0.66563609432E+02  0.77270825698E+02  0.10566000000E+00 0.  1.
         13    1    4    4    0    0  0.56068653199E+01 -0.18549639589E+01 -0.72412703673E+01  0.93447841373E+01  0.10566000000E+00 0. -1.
        -13    1    4    4    0    0  0.44952162022E+01 -0.14119676790E+01 -0.48641279919E+01  0.67728521753E+01  0.10566000000E+00 0.  1.
         14    1    4    4    0    0  0.27901031943E+02 -0.65217662562E+01 -0.32454815067E+02  0.43293371775E+02  0.00000000000E+00 0. -1.
<mgrwt>
<rscale>  0 0.79582785E+02</rscale>
<asrwt>0</asrwt>
<pdfrwt beam="1">  1        2 0.19061973E-01 0.79582785E+02</pdfrwt>
<pdfrwt beam="2">  1       -1 0.19660009E-02 0.79582785E+02</pdfrwt>
<totfact> 0.19132160E+05</totfact>
</mgrwt>
</event>
<event>
 8    1  0.2603554E-020  0.7827159E+02  0.7818608E-02  0.1334029E+00
          2   -1    0    0  501    0  0.00000000000E+00  0.00000000000E+00  0.20285287456E+03  0.20285287458E+03  0.25500000000E-02 0. -1.
         -1   -1    0    0    0  501 -0.00000000000E+00 -0.00000000000E+00 -0.75503511902E+01  0.75503528724E+01  0.50400000000E-02 0.  1.
         24    2    1    2    0    0 -0.88817841970E-15 -0.35527136788E-14  0.19530252337E+03  0.21040322745E+03  0.78271594376E+02 0.  0.
         66    2    3    3    0    0  0.76685105502E+01  0.29139001950E+02  0.16474110420E+03  0.16748587671E+03  0.19999989320E+01 0.  0.
        -13    1    3    3    0    0 -0.76685105502E+01 -0.29139001950E+02  0.30561419172E+02  0.42917350740E+02  0.10566000000E+00 0.  1.
         13    1    4    4    0    0  0.15019592630E+00  0.14417745486E+01  0.87252541704E+01  0.88454789039E+01  0.10566000000E+00 0.  1.
        -13    1    4    4    0    0  0.42691104859E+00  0.11543269359E+01  0.54214694217E+01  0.55604153122E+01  0.10566000000E+00 0. -1.
         14    1    4    4    0    0  0.70914035753E+01  0.26542900466E+02  0.15059438061E+03  0.15307998249E+03  0.00000000000E+00 0. -1.
<mgrwt>
<rscale>  0 0.78271594E+02</rscale>
<asrwt>0</asrwt>
<pdfrwt beam="1">  1        2 0.31208138E-01 0.78271594E+02</pdfrwt>
<pdfrwt beam="2">  1       -1 0.11615925E-02 0.78271594E+02</pdfrwt>
<totfact> 0.23480732E+05</totfact>
</mgrwt>
</event>
<event>
 8    1  0.2603554E-020  0.8124180E+02  0.7818608E-02  0.1325564E+00
          2   -1    0    0  501    0  0.00000000000E+00  0.00000000000E+00  0.78669165710E+01  0.78669169842E+01  0.25500000000E-02 0. -1.
         -1   -1    0    0    0  501 -0.00000000000E+00 -0.00000000000E+00 -0.20974640638E+03  0.20974640644E+03  0.50400000000E-02 0.  1.
         24    2    1    2    0    0  0.00000000000E+00 -0.35527136788E-14 -0.20187948981E+03  0.21761332343E+03  0.81241800365E+02 0.  0.
         66    2    3    3    0    0  0.15344599558E+02 -0.28545555731E+02 -0.35512304028E+02  0.48118907126E+02  0.19999995142E+01 0.  0.
        -13    1    3    3    0    0 -0.15344599558E+02  0.28545555731E+02 -0.16636718578E+03  0.16949441630E+03  0.10566000000E+00 0.  1.
         13    1    4    4    0    0  0.21059796484E+01 -0.32451759389E+01 -0.45290039321E+01  0.59572945039E+01  0.10566000000E+00 0. -1.
        -13    1    4    4    0    0  0.10258065388E+02 -0.20822055811E+02 -0.24919698218E+02  0.34055666738E+02  0.10566000000E+00 0.  1.
        -14    1    4    4    0    0  0.29805545213E+01 -0.44783239819E+01 -0.60636018782E+01  0.81059458842E+01  0.00000000000E+00 0.  1.
<mgrwt>
<rscale>  0 0.81241800E+02</rscale>
<asrwt>0</asrwt>
<pdfrwt beam="1">  1        2 0.12102950E-02 0.81241800E+02</pdfrwt>
<pdfrwt beam="2">  1       -1 0.32268674E-01 0.81241800E+02</pdfrwt>
<totfact> 0.94379170E+04</totfact>
</mgrwt>
</event>
<event>
 8    1  0.2603554E-020  0.8230182E+02  0.7818608E-02  0.1322643E+00
         -1   -1    0    0    0  501 -0.00000000000E+00  0.00000000000E+00  0.38386213463E+01  0.38386246550E+01  0.50400000000E-02 0.  1.
          2   -1    0    0  501    0  0.00000000000E+00 -0.00000000000E+00 -0.44114714841E+03  0.44114714842E+03  0.25500000000E-02 0. -1.
         24    2    1    2    0    0  0.00000000000E+00 -0.35527136788E-14 -0.43730852707E+03  0.44498577307E+03  0.82301824975E+02 0.  0.
         66    2    3    3    0    0 -0.27248163820E+02 -0.27853841603E+02 -0.28991703079E+03  0.29253065423E+03  0.19999995415E+01 0.  0.
        -13    1    3    3    0    0  0.27248163820E+02  0.27853841603E+02 -0.14739149628E+03  0.15245511884E+03  0.10566000000E+00 0.  1.
         13    1    4    4    0    0 -0.13084273537E+02 -0.13114570561E+02 -0.13886674577E+03  0.14009701788E+03  0.10566000000E+00 0. -1.
        -13    1    4    4    0    0 -0.10273138518E+02 -0.10623412089E+02 -0.10440849252E+03  0.10544922349E+03  0.10566000000E+00 0.  1.
         14    1    4    4    0    0 -0.38907517657E+01 -0.41158589532E+01 -0.46641792505E+02  0.46984412865E+02  0.00000000000E+00 0. -1.
<mgrwt>
<rscale>  0 0.82301825E+02</rscale>
<asrwt>0</asrwt>
<pdfrwt beam="1">  1        2 0.67868752E-01 0.82301825E+02</pdfrwt>
<pdfrwt beam="2">  1       -1 0.59055774E-03 0.82301825E+02</pdfrwt>
<totfact> 0.27134432E+05</totfact>
</mgrwt>
</event>
<event>
 8    1  0.2603554E-020  0.7926496E+02  0.7818608E-02  0.1331150E+00
          2   -1    0    0  501    0  0.00000000000E+00  0.00000000000E+00  0.92495302479E+03  0.92495302479E+03  0.25500000000E-02 0. -1.
         -1   -1    0    0    0  501 -0.00000000000E+00 -0.00000000000E+00 -0.16981726573E+01  0.16981801363E+01  0.50400000000E-02 0.  1.
         24    2    1    2    0    0  0.00000000000E+00  0.00000000000E+00  0.92325485213E+03  0.92665120493E+03  0.79264958281E+02 0.  0.
         66    2    3    3    0    0 -0.24628623214E+02  0.10024354133E+02  0.80508785847E+03  0.80552933939E+03  0.20000001214E+01 0.  0.
        -13    1    3    3    0    0  0.24628623214E+02 -0.10024354133E+02  0.11816699366E+03  0.12112186554E+03  0.10566000000E+00 0.  1.
         13    1    4    4    0    0 -0.10259072366E+02  0.46124526131E+01  0.35255166583E+03  0.35273107537E+03  0.10566000000E+00 0. -1.
        -13    1    4    4    0    0 -0.16939327274E+01  0.66434795967E+00  0.65967437093E+02  0.65992610851E+02  0.10566000000E+00 0.  1.
        -14    1    4    4    0    0 -0.12675618120E+02  0.47475535601E+01  0.38656875555E+03  0.38680565318E+03  0.00000000000E+00 0.  1.
<mgrwt>
<rscale>  0 0.79264958E+02</rscale>
<asrwt>0</asrwt>
<pdfrwt beam="1">  1        2 0.14230023E+00 0.79264958E+02</pdfrwt>
<pdfrwt beam="2">  1       -1 0.26125835E-03 0.79264958E+02</pdfrwt>
<totfact> 0.35893648E+05</totfact>
</mgrwt>
</event>
<event>
 8    1  0.2603554E-020  0.8267335E+02  0.7818608E-02  0.1321632E+00
          2   -1    0    0  501    0  0.00000000000E+00  0.00000000000E+00  0.52715645526E+03  0.52715645526E+03  0.25500000000E-02 0. -1.
         -1   -1    0    0    0  501 -0.00000000000E+00 -0.00000000000E+00 -0.32413896585E+01  0.32413935768E+01  0.50400000000E-02 0.  1.
         24    2    1    2    0    0  0.00000000000E+00  0.00000000000E+00  0.52391506560E+03  0.53039784884E+03  0.82673345723E+02 0.  0.
         66    2    3    3    0    0 -0.30371587401E+02  0.17241893115E+02  0.40368992583E+03  0.40520275470E+03  0.20000008082E+01 0.  0.
        -13    1    3    3    0    0  0.30371587401E+02 -0.17241893115E+02  0.12022513977E+03  0.12519509414E+03  0.10566000000E+00 0.  1.
         13    1    4    4    0    0 -0.21473506030E+02  0.12671496947E+02  0.28965975153E+03  0.29073090843E+03  0.10566000000E+00 0. -1.
        -13    1    4    4    0    0 -0.69025610886E+01  0.32386039712E+01  0.89817705919E+02  0.90140808548E+02  0.10566000000E+00 0.  1.
         14    1    4    4    0    0 -0.19955202828E+01  0.13317921960E+01  0.24212468378E+02  0.24331037721E+02  0.00000000000E+00 0. -1.
<mgrwt>
<rscale>  0 0.82673346E+02</rscale>
<asrwt>0</asrwt>
<pdfrwt beam="1">  1        2 0.81101028E-01 0.82673346E+02</pdfrwt>
<pdfrwt beam="2">  1       -1 0.49867542E-03 0.82673346E+02</pdfrwt>
<totfact> 0.28416007E+05</totfact>
</mgrwt>
</event>
<event>
 8    1  0.2603554E-020  0.8060313E+02  0.7818608E-02  0.1327349E+00
         -1   -1    0    0    0  501 -0.00000000000E+00  0.00000000000E+00  0.14809770860E+02  0.14809771718E+02  0.50400000000E-02 0.  1.
          2   -1    0    0  501    0  0.00000000000E+00 -0.00000000000E+00 -0.10967192714E+03  0.10967192717E+03  0.25500000000E-02 0. -1.
         24    2    1    2    0    0  0.00000000000E+00 -0.35527136788E-14 -0.94862156285E+02  0.12448169889E+03  0.80603130611E+02 0.  0.
         66    2    3    3    0    0  0.27467396149E+02 -0.25141565720E+02 -0.71168036652E+02  0.80345787808E+02  0.19999998930E+01 0.  0.
        -13    1    3    3    0    0 -0.27467396149E+02  0.25141565720E+02 -0.23694119632E+02  0.44135911084E+02  0.10566000000E+00 0.  1.
         13    1    4    4    0    0  0.97023700189E+01 -0.93399498743E+01 -0.26881159462E+02  0.30066235975E+02  0.10566000000E+00 0. -1.
        -13    1    4    4    0    0  0.49696193927E+01 -0.43255294889E+01 -0.13396652009E+02  0.14929459848E+02  0.10566000000E+00 0.  1.
         14    1    4    4    0    0  0.12795406737E+02 -0.11476086356E+02 -0.30890225181E+02  0.35350091985E+02  0.00000000000E+00 0. -1.
<mgrwt>
<rscale>  0 0.80603131E+02</rscale>
<asrwt>0</asrwt>
<pdfrwt beam="1">  1        2 0.16872604E-01 0.80603131E+02</pdfrwt>
<pdfrwt beam="2">  1       -1 0.22784264E-02 0.80603131E+02</pdfrwt>
<totfact> 0.17836203E+05</totfact>
</mgrwt>
</event>
<event>
 8    1  0.2603554E-020  0.7943163E+02  0.7818608E-02  0.1330672E+00
         -1   -1    0    0    0  501 -0.00000000000E+00  0.00000000000E+00  0.46469446663E+01  0.46469473994E+01  0.50400000000E-02 0.  1.
          2   -1    0    0  501    0  0.00000000000E+00 -0.00000000000E+00 -0.33943707788E+03  0.33943707789E+03  0.25500000000E-02 0. -1.
         24    2    1    2    0    0  0.00000000000E+00  0.35527136788E-14 -0.33479013321E+03  0.34408402529E+03  0.79431625703E+02 0.  0.
         66    2    3    3    0    0  0.25481361889E+02 -0.30354950022E+02 -0.17680983101E+03  0.18120827558E+03  0.20000006432E+01 0.  0.
        -13    1    3    3    0    0 -0.25481361889E+02  0.30354950022E+02 -0.15798030220E+03  0.16287574971E+03  0.10566000000E+00 0.  1.
         13    1    4    4    0    0  0.17881918044E+02 -0.20482823931E+02 -0.12321296617E+03  0.12617747527E+03  0.10566000000E+00 0. -1.
        -13    1    4    4    0    0  0.68179332545E+01 -0.85731230585E+01 -0.47783751679E+02  0.49023267347E+02  0.10566000000E+00 0.  1.
        -14    1    4    4    0    0  0.78151059094E+00 -0.12990030329E+01 -0.58131131602E+01  0.60075329626E+01  0.00000000000E+00 0.  1.
<mgrwt>
<rscale>  0 0.79431626E+02</rscale>
<asrwt>0</asrwt>
<pdfrwt beam="1">  1        2 0.52221069E-01 0.79431626E+02</pdfrwt>
<pdfrwt beam="2">  1       -1 0.71491505E-03 0.79431626E+02</pdfrwt>
<totfact> 0.27157652E+05</totfact>
</mgrwt>
</event>
<event>
 8    1  0.2603554E-020  0.8067871E+02  0.7818608E-02  0.1327136E+00
         -1   -1    0    0    0  501 -0.00000000000E+00  0.00000000000E+00  0.43370500314E+01  0.43370529598E+01  0.50400000000E-02 0.  1.
          2   -1    0    0  501    0  0.00000000000E+00 -0.00000000000E+00 -0.37520041345E+03  0.37520041345E+03  0.25500000000E-02 0. -1.
         24    2    1    2    0    0 -0.35527136788E-14  0.00000000000E+00 -0.37086336341E+03  0.37953746641E+03  0.80678709020E+02 0.  0.
         66    2    3    3    0    0 -0.25973392567E+02  0.15588457119E+02 -0.31068710074E+03  0.31216676900E+03  0.19999959865E+01 0.  0.
        -13    1    3    3    0    0  0.25973392567E+02 -0.15588457119E+02 -0.60176262676E+02  0.67370697417E+02  0.10566000000E+00 0.  1.
         13    1    4    4    0    0 -0.14316253711E+02  0.84466607113E+01 -0.16283924085E+03  0.16368546277E+03  0.10566000000E+00 0. -1.
        -13    1    4    4    0    0 -0.37997828864E+00  0.40070264967E+00 -0.61659528719E+01  0.61915333293E+01  0.10566000000E+00 0. -1.
        -14    1    4    4    0    0 -0.11277160567E+02  0.67410937584E+01 -0.14168190702E+03  0.14228977290E+03  0.00000000000E+00 0.  1.
<mgrwt>
<rscale>  0 0.80678709E+02</rscale>
<asrwt>0</asrwt>
<pdfrwt beam="1">  1        2 0.57723115E-01 0.80678709E+02</pdfrwt>
<pdfrwt beam="2">  1       -1 0.66723899E-03 0.80678709E+02</pdfrwt>
<totfact> 0.27019942E+05</totfact>
</mgrwt>
</event>
<event>
 8    1  0.2603554E-020  0.7876630E+02  0.7818608E-02  0.1332589E+00
         -1   -1    0    0    0  501 -0.00000000000E+00  0.00000000000E+00  0.25041408530E+01  0.25041459249E+01  0.50400000000E-02 0.  1.
          2   -1    0    0  501    0  0.00000000000E+00 -0.00000000000E+00 -0.61938646245E+03  0.61938646246E+03  0.25500000000E-02 0. -1.
         24    2    1    2    0    0  0.00000000000E+00  0.00000000000E+00 -0.61688232160E+03  0.62189060838E+03  0.78766300488E+02 0.  0.
         66    2    3    3    0    0 -0.34392178591E+02  0.50565211020E+01 -0.45435961586E+03  0.45569183763E+03  0.20000016592E+01 0.  0.
        -13    1    3    3    0    0  0.34392178591E+02 -0.50565211020E+01 -0.16252270574E+03  0.16619877075E+03  0.10566000000E+00 0.  1.
         13    1    4    4    0    0 -0.19694709576E+02  0.28403419268E+01 -0.26031520411E+03  0.26107463643E+03  0.10566000000E+00 0. -1.
        -13    1    4    4    0    0 -0.80281691217E+01  0.11503266024E+01 -0.97446171764E+02  0.97783139171E+02  0.10566000000E+00 0.  1.
        -14    1    4    4    0    0 -0.66692998940E+01  0.10658525728E+01 -0.96598239981E+02  0.96834062035E+02  0.00000000000E+00 0.  1.
<mgrwt>
<rscale>  0 0.78766300E+02</rscale>
<asrwt>0</asrwt>
<pdfrwt beam="1">  1        2 0.95290103E-01 0.78766300E+02</pdfrwt>
<pdfrwt beam="2">  1       -1 0.38525332E-03 0.78766300E+02</pdfrwt>
<totfact> 0.33782418E+05</totfact>
</mgrwt>
</event>
<event>
 8    1  0.2603554E-020  0.8044198E+02  0.7818608E-02  0.1327802E+00
          2   -1    0    0  501    0  0.00000000000E+00  0.00000000000E+00  0.24757556407E+03  0.24757556409E+03  0.25500000000E-02 0. -1.
         -1   -1    0    0    0  501 -0.00000000000E+00 -0.00000000000E+00 -0.65342786153E+01  0.65342805590E+01  0.50400000000E-02 0.  1.
         24    2    1    2    0    0  0.17763568394E-14  0.00000000000E+00  0.24104128546E+03  0.25410984465E+03  0.80441978161E+02 0.  0.
         66    2    3    3    0    0 -0.87212079276E+01 -0.13538500158E+02  0.23693471612E+03  0.23748981065E+03  0.20000009533E+01 0.  0.
        -13    1    3    3    0    0  0.87212079276E+01  0.13538500158E+02  0.41065693334E+01  0.16620033994E+02  0.10566000000E+00 0.  1.
         13    1    4    4    0    0 -0.37997839155E+01 -0.42050683592E+01  0.81527127164E+02  0.81723953559E+02  0.10566000000E+00 0. -1.
        -13    1    4    4    0    0 -0.49145953460E+01 -0.92521054592E+01  0.15416685393E+03  0.15452244082E+03  0.10566000000E+00 0.  1.
        -14    1    4    4    0    0 -0.68286660300E-02 -0.81326339614E-01  0.12407350335E+01  0.12434162728E+01  0.00000000000E+00 0.  1.
<mgrwt>
<rscale>  0 0.80441978E+02</rscale>
<asrwt>0</asrwt>
<pdfrwt beam="1">  1        2 0.38088549E-01 0.80441978E+02</pdfrwt>
<pdfrwt beam="2">  1       -1 0.10052738E-02 0.80441978E+02</pdfrwt>
<totfact> 0.23443055E+05</totfact>
</mgrwt>
</event>
<event>
 8    1  0.2603554E-020  0.7665326E+02  0.7818608E-02  0.1338827E+00
          2   -1    0    0  501    0  0.00000000000E+00  0.00000000000E+00  0.16387986259E+03  0.16387986261E+03  0.25500000000E-02 0. -1.
         -1   -1    0    0    0  501 -0.00000000000E+00 -0.00000000000E+00 -0.89634584291E+01  0.89634598460E+01  0.50400000000E-02 0.  1.
         24    2    1    2    0    0  0.35527136788E-14  0.35527136788E-14  0.15491640417E+03  0.17284332246E+03  0.76653257201E+02 0.  0.
         66    2    3    3    0    0 -0.20209937118E+02 -0.23648161414E+02  0.12789336071E+03  0.13163733821E+03  0.19999999470E+01 0.  0.
        -13    1    3    3    0    0  0.20209937118E+02  0.23648161414E+02  0.27023043451E+02  0.41205984249E+02  0.10566000000E+00 0.  1.
         13    1    4    4    0    0 -0.13436812897E+01 -0.13003440444E+01  0.69490710194E+01  0.71970220307E+01  0.10566000000E+00 0.  1.
        -13    1    4    4    0    0 -0.61641212450E+01 -0.83099038380E+01  0.41145992573E+02  0.42427052236E+02  0.10566000000E+00 0. -1.
         14    1    4    4    0    0 -0.12702134584E+02 -0.14037913531E+02  0.79798297122E+02  0.82013263945E+02  0.00000000000E+00 0. -1.
<mgrwt>
<rscale>  0 0.76653257E+02</rscale>
<asrwt>0</asrwt>
<pdfrwt beam="1">  1        2 0.25212287E-01 0.76653257E+02</pdfrwt>
<pdfrwt beam="2">  1       -1 0.13789937E-02 0.76653257E+02</pdfrwt>
<totfact> 0.23081797E+05</totfact>
</mgrwt>
</event>
<event>
 8    1  0.2603554E-020  0.8076485E+02  0.7818608E-02  0.1326895E+00
          2   -1    0    0  501    0  0.00000000000E+00  0.00000000000E+00  0.26190779181E+03  0.26190779182E+03  0.25500000000E-02 0. -1.
         -1   -1    0    0    0  501 -0.00000000000E+00 -0.00000000000E+00 -0.62263896773E+01  0.62263917172E+01  0.50400000000E-02 0.  1.
         24    2    1    2    0    0  0.35527136788E-14  0.00000000000E+00  0.25568140213E+03  0.26813418354E+03  0.80764849941E+02 0.  0.
         66    2    3    3    0    0 -0.25223161021E+02  0.27089198797E+02  0.74520222423E+02  0.83230379519E+02  0.19999954076E+01 0.  0.
        -13    1    3    3    0    0  0.25223161021E+02 -0.27089198797E+02  0.18116117971E+03  0.18490380402E+03  0.10566000000E+00 0.  1.
         13    1    4    4    0    0 -0.12999719104E+01  0.10536827959E+01  0.34891845693E+01  0.38711429057E+01  0.10566000000E+00 0.  1.
        -13    1    4    4    0    0 -0.19546652491E+02  0.20761833706E+02  0.56142852063E+02  0.62969487565E+02  0.10566000000E+00 0. -1.
        -14    1    4    4    0    0 -0.43765366200E+01  0.52736822943E+01  0.14888185791E+02  0.16389749049E+02  0.00000000000E+00 0.  1.
<mgrwt>
<rscale>  0 0.80764850E+02</rscale>
<asrwt>0</asrwt>
<pdfrwt beam="1">  1        2 0.40293510E-01 0.80764850E+02</pdfrwt>
<pdfrwt beam="2">  1       -1 0.95790619E-03 0.80764850E+02</pdfrwt>
<totfact> 0.23671831E+05</totfact>
</mgrwt>
</event>
<event>
 8    1  0.2603554E-020  0.7803310E+02  0.7818608E-02  0.1334728E+00
         -1   -1    0    0    0  501 -0.00000000000E+00  0.00000000000E+00  0.29715098222E+01  0.29715140964E+01  0.50400000000E-02 0.  1.
          2   -1    0    0  501    0  0.00000000000E+00 -0.00000000000E+00 -0.51229510103E+03  0.51229510104E+03  0.25500000000E-02 0. -1.
         24    2    1    2    0    0  0.00000000000E+00  0.00000000000E+00 -0.50932359121E+03  0.51526661514E+03  0.78033096246E+02 0.  0.
         66    2    3    3    0    0  0.31290562916E+02  0.21821272243E+02 -0.30807287882E+03  0.31043222434E+03  0.19999989530E+01 0.  0.
        -13    1    3    3    0    0 -0.31290562916E+02 -0.21821272243E+02 -0.20125071239E+03  0.20483439079E+03  0.10566000000E+00 0.  1.
         13    1    4    4    0    0  0.11827848512E+02  0.82382620255E+01 -0.12263826173E+03  0.12348247392E+03  0.10566000000E+00 0. -1.
        -13    1    4    4    0    0  0.67804234855E+01  0.42273080555E+01 -0.61130319512E+02  0.61650396623E+02  0.10566000000E+00 0.  1.
        -14    1    4    4    0    0  0.12682290918E+02  0.93557021621E+01 -0.12430429758E+03  0.12529935380E+03  0.00000000000E+00 0.  1.
<mgrwt>
<rscale>  0 0.78033096E+02</rscale>
<asrwt>0</asrwt>
<pdfrwt beam="1">  1        2 0.78814561E-01 0.78033096E+02</pdfrwt>
<pdfrwt beam="2">  1       -1 0.45715609E-03 0.78033096E+02</pdfrwt>
<totfact> 0.32740068E+05</totfact>
</mgrwt>
</event>
<event>
 8    1  0.2603554E-020  0.7955344E+02  0.7818608E-02  0.1330324E+00
          2   -1    0    0  501    0  0.00000000000E+00  0.00000000000E+00  0.72894326580E+03  0.72894326581E+03  0.25500000000E-02 0. -1.
         -1   -1    0    0    0  501 -0.00000000000E+00 -0.00000000000E+00 -0.21705191139E+01  0.21705249654E+01  0.50400000000E-02 0.  1.
         24    2    1    2    0    0  0.35527136788E-14  0.88817841970E-15  0.72677274669E+03  0.73111379077E+03  0.79553439450E+02 0.  0.
         66    2    3    3    0    0 -0.22153619064E+02 -0.79580113608E+01  0.65799957092E+03  0.65842353247E+03  0.19999998830E+01 0.  0.
        -13    1    3    3    0    0  0.22153619064E+02  0.79580113608E+01  0.68773175768E+02  0.72690258300E+02  0.10566000000E+00 0.  1.
         13    1    4    4    0    0 -0.70573577156E+00 -0.67263063995E-02  0.22506709278E+02  0.22518020223E+02  0.10566000000E+00 0.  1.
        -13    1    4    4    0    0 -0.16141406469E+02 -0.64186318154E+01  0.47374109004E+03  0.47405946398E+03  0.10566000000E+00 0. -1.
         14    1    4    4    0    0 -0.53064768233E+01 -0.15326532390E+01  0.16175177161E+03  0.16184604827E+03  0.00000000000E+00 0. -1.
<mgrwt>
<rscale>  0 0.79553439E+02</rscale>
<asrwt>0</asrwt>
<pdfrwt beam="1">  1        2 0.11214523E+00 0.79553439E+02</pdfrwt>
<pdfrwt beam="2">  1       -1 0.33392614E-03 0.79553439E+02</pdfrwt>
<totfact> 0.34247255E+05</totfact>
</mgrwt>
</event>
<event>
 8    1  0.2603554E-020  0.7756033E+02  0.7818608E-02  0.1336121E+00
          2   -1    0    0  501    0  0.00000000000E+00  0.00000000000E+00  0.13987874086E+02  0.13987874318E+02  0.25500000000E-02 0. -1.
         -1   -1    0    0    0  501 -0.00000000000E+00 -0.00000000000E+00 -0.10751462269E+03  0.10751462281E+03  0.50400000000E-02 0.  1.
         24    2    1    2    0    0  0.00000000000E+00  0.00000000000E+00 -0.93526748603E+02  0.12150249713E+03  0.77560325575E+02 0.  0.
         66    2    3    3    0    0 -0.23419050532E+01  0.35604045231E+02 -0.23100348391E+02  0.42553009686E+02  0.19999953501E+01 0.  0.
        -13    1    3    3    0    0  0.23419050532E+01 -0.35604045231E+02 -0.70426400212E+02  0.78949487439E+02  0.10566000000E+00 0.  1.
         13    1    4    4    0    0 -0.13116230277E+01  0.19237743557E+02 -0.12634094010E+02  0.23053039444E+02  0.10566000000E+00 0. -1.
        -13    1    4    4    0    0 -0.10169412204E+01  0.15988069166E+02 -0.10436666534E+02  0.19120347734E+02  0.10566000000E+00 0.  1.
        -14    1    4    4    0    0 -0.13340805149E-01  0.37823250827E+00 -0.29587847931E-01  0.37962250742E+00  0.00000000000E+00 0.  1.
<mgrwt>
<rscale>  0 0.77560326E+02</rscale>
<asrwt>0</asrwt>
<pdfrwt beam="1">  1        2 0.21519807E-02 0.77560326E+02</pdfrwt>
<pdfrwt beam="2">  1       -1 0.16540711E-01 0.77560326E+02</pdfrwt>
<totfact> 0.12607466E+05</totfact>
</mgrwt>
</event>
<event>
 8    1  0.2603554E-020  0.7961757E+02  0.7818608E-02  0.1330140E+00
         -1   -1    0    0    0  501 -0.00000000000E+00  0.00000000000E+00  0.13989611967E+01  0.13989702754E+01  0.50400000000E-02 0.  1.
          2   -1    0    0  501    0  0.00000000000E+00 -0.00000000000E+00 -0.11327934530E+04  0.11327934530E+04  0.25500000000E-02 0. -1.
         24    2    1    2    0    0  0.00000000000E+00  0.00000000000E+00 -0.11313944918E+04  0.11341924233E+04  0.79617566773E+02 0.  0.
         66    2    3    3    0    0 -0.74042190220E+01 -0.83924827561E+01 -0.11099028647E+04  0.11099610918E+04  0.19999989959E+01 0.  0.
        -13    1    3    3    0    0  0.74042190220E+01  0.83924827561E+01 -0.21491627123E+02  0.24231331507E+02  0.10566000000E+00 0.  1.
         13    1    4    4    0    0 -0.14623977955E+01 -0.16737801159E+01 -0.18200879494E+03  0.18202239628E+03  0.10566000000E+00 0. -1.
        -13    1    4    4    0    0 -0.24725580717E+01 -0.23027294784E+01 -0.28340797859E+03  0.28342813834E+03  0.10566000000E+00 0.  1.
         14    1    4    4    0    0 -0.34692631549E+01 -0.44159731618E+01 -0.64448609113E+03  0.64451055714E+03  0.00000000000E+00 0. -1.
<mgrwt>
<rscale>  0 0.79617567E+02</rscale>
<asrwt>0</asrwt>
<pdfrwt beam="1">  1        2 0.17427518E+00 0.79617567E+02</pdfrwt>
<pdfrwt beam="2">  1       -1 0.21522640E-03 0.79617567E+02</pdfrwt>
<totfact> 0.35646891E+05</totfact>
</mgrwt>
</event>
<event>
 8    1  0.2603554E-020  0.7998884E+02  0.7818608E-02  0.1329083E+00
          2   -1    0    0  501    0  0.00000000000E+00  0.00000000000E+00  0.92035909460E+02  0.92035909495E+02  0.25500000000E-02 0. -1.
         -1   -1    0    0    0  501 -0.00000000000E+00 -0.00000000000E+00 -0.17379667361E+02  0.17379668092E+02  0.50400000000E-02 0.  1.
         24    2    1    2    0    0  0.00000000000E+00  0.00000000000E+00  0.74656242098E+02  0.10941557759E+03  0.79988837562E+02 0.  0.
         66    2    3    3    0    0 -0.28516681883E+01  0.26975780885E+02  0.77505855090E+02  0.82140016657E+02  0.19999993210E+01 0.  0.
        -13    1    3    3    0    0  0.28516681883E+01 -0.26975780885E+02 -0.28496129918E+01  0.27275560931E+02  0.10566000000E+00 0.  1.
         13    1    4    4    0    0 -0.73600423304E+00  0.53667115010E+01  0.16811972118E+02  0.17663432993E+02  0.10566000000E+00 0. -1.
        -13    1    4    4    0    0 -0.50269375961E+00  0.90954560963E+01  0.23723019548E+02  0.25412060978E+02  0.10566000000E+00 0.  1.
        -14    1    4    4    0    0 -0.16129701956E+01  0.12513613288E+02  0.36970863424E+02  0.39064522686E+02  0.00000000000E+00 0.  1.
<mgrwt>
<rscale>  0 0.79988838E+02</rscale>
<asrwt>0</asrwt>
<pdfrwt beam="1">  1        2 0.14159371E-01 0.79988838E+02</pdfrwt>
<pdfrwt beam="2">  1       -1 0.26737951E-02 0.79988838E+02</pdfrwt>
<totfact> 0.17331563E+05</totfact>
</mgrwt>
</event>
<event>
 8    1  0.2603554E-020  0.7239137E+02  0.7818608E-02  0.1352145E+00
          2   -1    0    0  501    0  0.00000000000E+00  0.00000000000E+00  0.95529520103E+02  0.95529520137E+02  0.25500000000E-02 0. -1.
         -1   -1    0    0    0  501 -0.00000000000E+00 -0.00000000000E+00 -0.13714373675E+02  0.13714374601E+02  0.50400000000E-02 0.  1.
         24    2    1    2    0    0  0.00000000000E+00  0.00000000000E+00  0.81815146428E+02  0.10924389474E+03  0.72391369323E+02 0.  0.
         66    2    3    3    0    0  0.17665206915E+01 -0.24051466392E+02  0.81614584837E+02  0.85126576895E+02  0.20000011916E+01 0.  0.
        -13    1    3    3    0    0 -0.17665206915E+01  0.24051466392E+02  0.20056159157E+00  0.24117317843E+02  0.10566000000E+00 0.  1.
         13    1    4    4    0    0  0.26256623649E+00 -0.17571693954E+01  0.46398072350E+01  0.49694628006E+01  0.10566000000E+00 0. -1.
        -13    1    4    4    0    0 -0.22918892112E-01 -0.43936386558E+01  0.15446546527E+02  0.16059624827E+02  0.10566000000E+00 0.  1.
         14    1    4    4    0    0  0.15268733471E+01 -0.17900658341E+02  0.61528231074E+02  0.64097489268E+02  0.00000000000E+00 0. -1.
<mgrwt>
<rscale>  0 0.72391369E+02</rscale>
<asrwt>0</asrwt>
<pdfrwt beam="1">  1        2 0.14696849E-01 0.72391369E+02</pdfrwt>
<pdfrwt beam="2">  1       -1 0.21099038E-02 0.72391369E+02</pdfrwt>
<totfact> 0.22841246E+05</totfact>
</mgrwt>
</event>
<event>
 8    1  0.2603554E-020  0.7290491E+02  0.7818608E-02  0.1350484E+00
         -1   -1    0    0    0  501 -0.00000000000E+00  0.00000000000E+00  0.84619466843E+00  0.84620967761E+00  0.50400000000E-02 0.  1.
          2   -1    0    0  501    0  0.00000000000E+00 -0.00000000000E+00 -0.15702882056E+04  0.15702882056E+04  0.25500000000E-02 0. -1.
         24    2    1    2    0    0  0.17763568394E-14 -0.35527136788E-14 -0.15694420109E+04  0.15711344153E+04  0.72904905180E+02 0.  0.
         66    2    3    3    0    0  0.64673230361E+01 -0.15015225024E+02 -0.14867743909E+04  0.14868656203E+04  0.19999993530E+01 0.  0.
        -13    1    3    3    0    0 -0.64673230361E+01  0.15015225024E+02 -0.82667619979E+02  0.84268794977E+02  0.10566000000E+00 0.  1.
         13    1    4    4    0    0  0.27139734991E+01 -0.55317391596E+01 -0.61903393958E+03  0.61906461319E+03  0.10566000000E+00 0. -1.
        -13    1    4    4    0    0  0.41237310985E+00 -0.56374749440E+00 -0.75334004999E+02  0.75337317022E+02  0.10566000000E+00 0.  1.
        -14    1    4    4    0    0  0.33409764272E+01 -0.89197383696E+01 -0.79240644637E+03  0.79246369008E+03  0.00000000000E+00 0.  1.
<mgrwt>
<rscale>  0 0.72904905E+02</rscale>
<asrwt>0</asrwt>
<pdfrwt beam="1">  1        2 0.24158047E+00 0.72904905E+02</pdfrwt>
<pdfrwt beam="2">  1       -1 0.13018621E-03 0.72904905E+02</pdfrwt>
<totfact> 0.41500247E+05</totfact>
</mgrwt>
</event>
<event>
 8    1  0.2603554E-020  0.7973937E+02  0.7818608E-02  0.1329793E+00
         -1   -1    0    0    0  501 -0.00000000000E+00  0.00000000000E+00  0.22710297015E+01  0.22710352940E+01  0.50400000000E-02 0.  1.
          2   -1    0    0  501    0  0.00000000000E+00 -0.00000000000E+00 -0.69994241304E+03  0.69994241304E+03  0.25500000000E-02 0. -1.
         24    2    1    2    0    0  0.35527136788E-14 -0.88817841970E-15 -0.69767138334E+03  0.70221344834E+03  0.79739374829E+02 0.  0.
         66    2    3    3    0    0 -0.22731430730E+02  0.64539459875E+01 -0.63157473131E+03  0.63201978812E+03  0.19999952452E+01 0.  0.
        -13    1    3    3    0    0  0.22731430730E+02 -0.64539459875E+01 -0.66096652029E+02  0.70193660221E+02  0.10566000000E+00 0.  1.
         13    1    4    4    0    0 -0.15450152010E+02  0.50457431926E+01 -0.42630540501E+03  0.42661513830E+03  0.10566000000E+00 0. -1.
        -13    1    4    4    0    0 -0.56021548095E+01  0.11892921988E+01 -0.16610778488E+03  0.16620651587E+03  0.10566000000E+00 0.  1.
         14    1    4    4    0    0 -0.16791239099E+01  0.21891059605E+00 -0.39161541421E+02  0.39198133953E+02  0.00000000000E+00 0. -1.
<mgrwt>
<rscale>  0 0.79739375E+02</rscale>
<asrwt>0</asrwt>
<pdfrwt beam="1">  1        2 0.10768328E+00 0.79739375E+02</pdfrwt>
<pdfrwt beam="2">  1       -1 0.34939017E-03 0.79739375E+02</pdfrwt>
<totfact> 0.33735974E+05</totfact>
</mgrwt>
</event>
<event>
 8    1  0.2603554E-020  0.7743650E+02  0.7818608E-02  0.1336488E+00
          2   -1    0    0  501    0  0.00000000000E+00  0.00000000000E+00  0.48965363336E+03  0.48965363337E+03  0.25500000000E-02 0. -1.
         -1   -1    0    0    0  501 -0.00000000000E+00 -0.00000000000E+00 -0.30615556848E+01  0.30615598333E+01  0.50400000000E-02 0.  1.
         24    2    1    2    0    0 -0.17763568394E-14  0.00000000000E+00  0.48659207768E+03  0.49271519320E+03  0.77436500140E+02 0.  0.
         66    2    3    3    0    0 -0.88236459378E+01 -0.19851606583E+02  0.44718319455E+03  0.44771503493E+03  0.19999996484E+01 0.  0.
        -13    1    3    3    0    0  0.88236459378E+01  0.19851606583E+02  0.39408883127E+02  0.45000158277E+02  0.10566000000E+00 0.  1.
         13    1    4    4    0    0 -0.57893611389E+00 -0.16115037848E+01  0.27611049667E+02  0.27664297194E+02  0.10566000000E+00 0. -1.
        -13    1    4    4    0    0 -0.20533804512E+01 -0.41367233047E+01  0.10570367206E+03  0.10580456655E+03  0.10566000000E+00 0.  1.
         14    1    4    4    0    0 -0.61913293727E+01 -0.14103379493E+02  0.31386847283E+03  0.31424617119E+03  0.00000000000E+00 0. -1.
<mgrwt>
<rscale>  0 0.77436500E+02</rscale>
<asrwt>0</asrwt>
<pdfrwt beam="1">  1        2 0.75331334E-01 0.77436500E+02</pdfrwt>
<pdfrwt beam="2">  1       -1 0.47100885E-03 0.77436500E+02</pdfrwt>
<totfact> 0.32923563E+05</totfact>
</mgrwt>
</event>
<event>
 8    1  0.2603554E-020  0.8238376E+02  0.7818608E-02  0.1322420E+00
         -1   -1    0    0    0  501 -0.00000000000E+00  0.00000000000E+00  0.46118790298E+01  0.46118817837E+01  0.50400000000E-02 0.  1.
          2   -1    0    0  501    0  0.00000000000E+00 -0.00000000000E+00 -0.36791305089E+03  0.36791305090E+03  0.25500000000E-02 0. -1.
         24    2    1    2    0    0  0.00000000000E+00  0.00000000000E+00 -0.36330117186E+03  0.37252493268E+03  0.82383760506E+02 0.  0.
         66    2    3    3    0    0  0.22210578479E+02  0.13101084140E+02 -0.32686620376E+03  0.32788788230E+03  0.19999997039E+01 0.  0.
        -13    1    3    3    0    0 -0.22210578479E+02 -0.13101084140E+02 -0.36434968095E+02  0.44637050374E+02  0.10566000000E+00 0.  1.
         13    1    4    4    0    0  0.17861567595E+02  0.10578380688E+02 -0.25882109580E+03  0.25965228389E+03  0.10566000000E+00 0. -1.
        -13    1    4    4    0    0  0.42049053224E+01  0.25462256936E+01 -0.64333553890E+02  0.64521173379E+02  0.10566000000E+00 0.  1.
        -14    1    4    4    0    0  0.14410556161E+00 -0.23522242234E-01 -0.37115540747E+01  0.37144250374E+01  0.00000000000E+00 0.  1.
<mgrwt>
<rscale>  0 0.82383761E+02</rscale>
<asrwt>0</asrwt>
<pdfrwt beam="1">  1        2 0.56601985E-01 0.82383761E+02</pdfrwt>
<pdfrwt beam="2">  1       -1 0.70952035E-03 0.82383761E+02</pdfrwt>
<totfact> 0.25402054E+05</totfact>
</mgrwt>
</event>
<event>
 8    1  0.2603554E-020  0.7800781E+02  0.7818608E-02  0.1334802E+00
          2   -1    0    0  501    0  0.00000000000E+00  0.00000000000E+00  0.35349819061E+02  0.35349819153E+02  0.25500000000E-02 0. -1.
         -1   -1    0    0    0  501 -0.00000000000E+00 -0.00000000000E+00 -0.43035709869E+02  0.43035710164E+02  0.50400000000E-02 0.  1.
         24    2    1    2    0    0  0.00000000000E+00  0.00000000000E+00 -0.76858908078E+01  0.78385529317E+02  0.78007809152E+02 0.  0.
         66    2    3    3    0    0  0.18523080554E+02 -0.25516573110E+02  0.19180544479E+02  0.36960699498E+02  0.20000011011E+01 0.  0.
        -13    1    3    3    0    0 -0.18523080554E+02  0.25516573110E+02 -0.26866435286E+02  0.41424829819E+02  0.10566000000E+00 0.  1.
         13    1    4    4    0    0  0.11156942496E+02 -0.14090318824E+02  0.11247955798E+02  0.21202408450E+02  0.10566000000E+00 0. -1.
        -13    1    4    4    0    0  0.26316080960E+01 -0.47524430301E+01  0.31756992750E+01  0.62934335498E+01  0.10566000000E+00 0.  1.
         14    1    4    4    0    0  0.47345299614E+01 -0.66738112563E+01  0.47568894057E+01  0.94648574980E+01  0.00000000000E+00 0. -1.
<mgrwt>
<rscale>  0 0.78007809E+02</rscale>
<asrwt>0</asrwt>
<pdfrwt beam="1">  1        2 0.54384337E-02 0.78007809E+02</pdfrwt>
<pdfrwt beam="2">  1       -1 0.66208785E-02 0.78007809E+02</pdfrwt>
<totfact> 0.14909281E+05</totfact>
</mgrwt>
</event>
<event>
 8    1  0.2603554E-020  0.7959308E+02  0.7818608E-02  0.1330210E+00
          2   -1    0    0  501    0  0.00000000000E+00  0.00000000000E+00  0.97541554349E+01  0.97541557682E+01  0.25500000000E-02 0. -1.
         -1   -1    0    0    0  501 -0.00000000000E+00 -0.00000000000E+00 -0.16236817770E+03  0.16236817778E+03  0.50400000000E-02 0.  1.
         24    2    1    2    0    0 -0.17763568394E-14  0.35527136788E-14 -0.15261402227E+03  0.17212233355E+03  0.79593077046E+02 0.  0.
         66    2    3    3    0    0  0.14014844096E+02 -0.23962306432E+02 -0.14764670952E+02  0.31505610479E+02  0.19999996942E+01 0.  0.
        -13    1    3    3    0    0 -0.14014844096E+02  0.23962306432E+02 -0.13784935132E+03  0.14061672307E+03  0.10566000000E+00 0.  1.
         13    1    4    4    0    0  0.64412548233E+01 -0.98632087735E+01 -0.68384005180E+01  0.13621583487E+02  0.10566000000E+00 0. -1.
        -13    1    4    4    0    0  0.41165787436E+01 -0.73325415843E+01 -0.46455690876E+01  0.96075419760E+01  0.10566000000E+00 0. -1.
        -14    1    4    4    0    0  0.34570105295E+01 -0.67665560742E+01 -0.32807013464E+01  0.82764850167E+01  0.00000000000E+00 0.  1.
<mgrwt>
<rscale>  0 0.79593077E+02</rscale>
<asrwt>0</asrwt>
<pdfrwt beam="1">  1        2 0.15006394E-02 0.79593077E+02</pdfrwt>
<pdfrwt beam="2">  1       -1 0.24979718E-01 0.79593077E+02</pdfrwt>
<totfact> 0.10704348E+05</totfact>
</mgrwt>
</event>
<event>
 8    1  0.2603554E-020  0.7965072E+02  0.7818608E-02  0.1330046E+00
          2   -1    0    0  501    0  0.00000000000E+00  0.00000000000E+00  0.89227572196E+03  0.89227572197E+03  0.25500000000E-02 0. -1.
         -1   -1    0    0    0  501 -0.00000000000E+00 -0.00000000000E+00 -0.17775404063E+01  0.17775475514E+01  0.50400000000E-02 0.  1.
         24    2    1    2    0    0  0.35527136788E-14  0.00000000000E+00  0.89049818156E+03  0.89405326952E+03  0.79650721153E+02 0.  0.
         66    2    3    3    0    0 -0.20984506875E+02  0.13578974718E+02  0.79318893055E+03  0.79358516723E+03  0.20000016585E+01 0.  0.
        -13    1    3    3    0    0  0.20984506875E+02 -0.13578974718E+02  0.97309251005E+02  0.10046810229E+03  0.10566000000E+00 0.  1.
         13    1    4    4    0    0 -0.18128933162E+02  0.12082549295E+02  0.68650592007E+03  0.68685153831E+03  0.10566000000E+00 0. -1.
        -13    1    4    4    0    0 -0.24110918638E+01  0.97918736491E+00  0.83956221672E+02  0.83996610011E+02  0.10566000000E+00 0.  1.
        -14    1    4    4    0    0 -0.44448184877E+00  0.51723805817E+00  0.22726788809E+02  0.22737018909E+02  0.00000000000E+00 0.  1.
<mgrwt>
<rscale>  0 0.79650721E+02</rscale>
<asrwt>0</asrwt>
<pdfrwt beam="1">  1        2 0.13727329E+00 0.79650721E+02</pdfrwt>
<pdfrwt beam="2">  1       -1 0.27346810E-03 0.79650721E+02</pdfrwt>
<totfact> 0.35311538E+05</totfact>
</mgrwt>
</event>
<event>
 8    1  0.2603554E-020  0.7985477E+02  0.7818608E-02  0.1329464E+00
         -1   -1    0    0    0  501 -0.00000000000E+00  0.00000000000E+00  0.20476212556E+02  0.20476213177E+02  0.50400000000E-02 0.  1.
          2   -1    0    0  501    0  0.00000000000E+00 -0.00000000000E+00 -0.77856002454E+02  0.77856002495E+02  0.25500000000E-02 0. -1.
         24    2    1    2    0    0  0.44408920985E-15  0.00000000000E+00 -0.57379789897E+02  0.98332215672E+02  0.79854770367E+02 0.  0.
         66    2    3    3    0    0  0.34890770279E+01  0.36182768012E+02 -0.48972493160E+02  0.61021893214E+02  0.20000014046E+01 0.  0.
        -13    1    3    3    0    0 -0.34890770279E+01 -0.36182768012E+02 -0.84072967377E+01  0.37310322459E+02  0.10566000000E+00 0.  1.
         13    1    4    4    0    0  0.24717933842E+01  0.24447875668E+02 -0.34110662075E+02  0.42039943131E+02  0.10566000000E+00 0. -1.
        -13    1    4    4    0    0  0.24411692660E+00  0.41197565477E+01 -0.46177100573E+01  0.61940614539E+01  0.10566000000E+00 0.  1.
        -14    1    4    4    0    0  0.77316671706E+00  0.76151357955E+01 -0.10244121028E+02  0.12787888629E+02  0.00000000000E+00 0.  1.
<mgrwt>
<rscale>  0 0.79854770E+02</rscale>
<asrwt>0</asrwt>
<pdfrwt beam="1">  1        2 0.11977846E-01 0.79854770E+02</pdfrwt>
<pdfrwt beam="2">  1       -1 0.31501867E-02 0.79854770E+02</pdfrwt>
<totfact> 0.16661623E+05</totfact>
</mgrwt>
</event>
<event>
 8    1  0.2603554E-020  0.7870336E+02  0.7818608E-02  0.1332772E+00
          2   -1    0    0  501    0  0.00000000000E+00  0.00000000000E+00  0.50317354938E+03  0.50317354938E+03  0.25500000000E-02 0. -1.
         -1   -1    0    0    0  501 -0.00000000000E+00 -0.00000000000E+00 -0.30775735607E+01  0.30775776876E+01  0.50400000000E-02 0.  1.
         24    2    1    2    0    0 -0.71054273576E-14 -0.17763568394E-14  0.50009597581E+03  0.50625112707E+03  0.78703358461E+02 0.  0.
         66    2    3    3    0    0  0.30967740277E+02  0.12113694162E+02  0.38525978203E+03  0.38669735217E+03  0.20000017106E+01 0.  0.
        -13    1    3    3    0    0 -0.30967740277E+02 -0.12113694162E+02  0.11483619379E+03  0.11955377490E+03  0.10566000000E+00 0.  1.
         13    1    4    4    0    0  0.58275935261E+01  0.26675419031E+01  0.72311001313E+02  0.72594550078E+02  0.10566000000E+00 0. -1.
        -13    1    4    4    0    0  0.95477697626E+01  0.37679698904E+01  0.12817774872E+03  0.12858811739E+03  0.10566000000E+00 0.  1.
         14    1    4    4    0    0  0.15592376988E+02  0.56781823685E+01  0.18477103200E+03  0.18551468470E+03  0.00000000000E+00 0. -1.
<mgrwt>
<rscale>  0 0.78703358E+02</rscale>
<asrwt>0</asrwt>
<pdfrwt beam="1">  1        2 0.77411240E-01 0.78703358E+02</pdfrwt>
<pdfrwt beam="2">  1       -1 0.47347364E-03 0.78703358E+02</pdfrwt>
<totfact> 0.31839035E+05</totfact>
</mgrwt>
</event>
<event>
 8    1  0.2603554E-020  0.7951733E+02  0.7818608E-02  0.1330427E+00
         -1   -1    0    0    0  501 -0.00000000000E+00  0.00000000000E+00  0.49837039900E+01  0.49837065384E+01  0.50400000000E-02 0.  1.
          2   -1    0    0  501    0  0.00000000000E+00 -0.00000000000E+00 -0.31718399474E+03  0.31718399475E+03  0.25500000000E-02 0. -1.
         24    2    1    2    0    0  0.35527136788E-14  0.00000000000E+00 -0.31220029075E+03  0.32216770129E+03  0.79517332760E+02 0.  0.
         66    2    3    3    0    0  0.20963000077E+02 -0.23370402741E+02 -0.25487035449E+03  0.25680444057E+03  0.20000002012E+01 0.  0.
        -13    1    3    3    0    0 -0.20963000077E+02  0.23370402741E+02 -0.57329936260E+02  0.65363260721E+02  0.10566000000E+00 0.  1.
         13    1    4    4    0    0  0.15989673373E+02 -0.18508877122E+02 -0.19861933152E+03  0.20011970968E+03  0.10566000000E+00 0. -1.
        -13    1    4    4    0    0  0.22362996812E+01 -0.20079792620E+01 -0.27237201936E+02  0.27402725236E+02  0.10566000000E+00 0.  1.
         14    1    4    4    0    0  0.27370270227E+01 -0.28535463568E+01 -0.29013821040E+02  0.29282005653E+02  0.00000000000E+00 0. -1.
<mgrwt>
<rscale>  0 0.79517333E+02</rscale>
<asrwt>0</asrwt>
<pdfrwt beam="1">  1        2 0.48797522E-01 0.79517333E+02</pdfrwt>
<pdfrwt beam="2">  1       -1 0.76672414E-03 0.79517333E+02</pdfrwt>
<totfact> 0.26428715E+05</totfact>
</mgrwt>
</event>
<event>
 8    1  0.2603554E-020  0.7959832E+02  0.7818608E-02  0.1330195E+00
          2   -1    0    0  501    0  0.00000000000E+00  0.00000000000E+00  0.96129325826E+02  0.96129325860E+02  0.25500000000E-02 0. -1.
         -1   -1    0    0    0  501 -0.00000000000E+00 -0.00000000000E+00 -0.16477523617E+02  0.16477524388E+02  0.50400000000E-02 0.  1.
         24    2    1    2    0    0  0.35527136788E-14  0.00000000000E+00  0.79651802209E+02  0.11260685025E+03  0.79598323649E+02 0.  0.
         66    2    3    3    0    0  0.25103354584E+02 -0.14509320892E+02  0.78367664258E+02  0.83583429044E+02  0.20000013215E+01 0.  0.
        -13    1    3    3    0    0 -0.25103354584E+02  0.14509320892E+02  0.12841379502E+01  0.29023421204E+02  0.10566000000E+00 0.  1.
         13    1    4    4    0    0  0.10760114028E+02 -0.66691500605E+01  0.32731547536E+02  0.35094486527E+02  0.10566000000E+00 0. -1.
        -13    1    4    4    0    0  0.74805399697E+00 -0.70030787896E+00  0.27767355532E+01  0.29616617423E+01  0.10566000000E+00 0.  1.
        -14    1    4    4    0    0  0.13595186558E+02 -0.71398629524E+01  0.42859381169E+02  0.45527280774E+02  0.00000000000E+00 0.  1.
<mgrwt>
<rscale>  0 0.79598324E+02</rscale>
<asrwt>0</asrwt>
<pdfrwt beam="1">  1        2 0.14789127E-01 0.79598324E+02</pdfrwt>
<pdfrwt beam="2">  1       -1 0.25350037E-02 0.79598324E+02</pdfrwt>
<totfact> 0.17770694E+05</totfact>
</mgrwt>
</event>
<event>
 8    1  0.2603554E-020  0.7990768E+02  0.7818608E-02  0.1329314E+00
         -1   -1    0    0    0  501 -0.00000000000E+00  0.00000000000E+00  0.23821427691E+01  0.23821481008E+01  0.50400000000E-02 0.  1.
          2   -1    0    0  501    0  0.00000000000E+00 -0.00000000000E+00 -0.67011410783E+03  0.67011410783E+03  0.25500000000E-02 0. -1.
         24    2    1    2    0    0  0.00000000000E+00  0.00000000000E+00 -0.66773196506E+03  0.67249625593E+03  0.79907678501E+02 0.  0.
         66    2    3    3    0    0  0.11562229571E+02  0.26622141045E+01 -0.65493310170E+03  0.65504361706E+03  0.20000003450E+01 0.  0.
        -13    1    3    3    0    0 -0.11562229571E+02 -0.26622141045E+01 -0.12798863355E+02  0.17452638878E+02  0.10566000000E+00 0.  1.
         13    1    4    4    0    0  0.48342199077E+00  0.84915611515E-01 -0.23874575808E+02  0.23879854302E+02  0.10566000000E+00 0.  1.
        -13    1    4    4    0    0  0.25657516069E+01  0.13757425973E+01 -0.14628340657E+03  0.14631241215E+03  0.10566000000E+00 0.  1.
         14    1    4    4    0    0  0.85130559732E+01  0.12015558957E+01 -0.48477511933E+03  0.48485135060E+03  0.00000000000E+00 0. -1.
<mgrwt>
<rscale>  0 0.79907679E+02</rscale>
<asrwt>0</asrwt>
<pdfrwt beam="1">  1        2 0.10309433E+00 0.79907679E+02</pdfrwt>
<pdfrwt beam="2">  1       -1 0.36648445E-03 0.79907679E+02</pdfrwt>
<totfact> 0.33207562E+05</totfact>
</mgrwt>
</event>
<event>
 8    1  0.2603554E-020  0.7911664E+02  0.7818608E-02  0.1331577E+00
         -1   -1    0    0    0  501 -0.00000000000E+00  0.00000000000E+00  0.68880801502E+01  0.68880819941E+01  0.50400000000E-02 0.  1.
          2   -1    0    0  501    0  0.00000000000E+00 -0.00000000000E+00 -0.22718382760E+03  0.22718382762E+03  0.25500000000E-02 0. -1.
         24    2    1    2    0    0  0.35527136788E-14  0.00000000000E+00 -0.22029574745E+03  0.23407190961E+03  0.79116638726E+02 0.  0.
         66    2    3    3    0    0  0.28691157338E+02  0.22873850898E+02 -0.15374623650E+03  0.15807688256E+03  0.19999995161E+01 0.  0.
        -13    1    3    3    0    0 -0.28691157338E+02 -0.22873850898E+02 -0.66549510953E+02  0.75995027051E+02  0.10566000000E+00 0.  1.
         13    1    4    4    0    0  0.62798855768E+01  0.57606495037E+01 -0.36743908943E+02  0.37719332629E+02  0.10566000000E+00 0.  1.
        -13    1    4    4    0    0  0.12350955671E+02  0.97958113540E+01 -0.67406153572E+02  0.69225029646E+02  0.10566000000E+00 0. -1.
        -14    1    4    4    0    0  0.10060316090E+02  0.73173900403E+01 -0.49596173983E+02  0.51132520284E+02  0.00000000000E+00 0.  1.
<mgrwt>
<rscale>  0 0.79116639E+02</rscale>
<asrwt>0</asrwt>
<pdfrwt beam="1">  1        2 0.34951352E-01 0.79116639E+02</pdfrwt>
<pdfrwt beam="2">  1       -1 0.10597050E-02 0.79116639E+02</pdfrwt>
<totfact> 0.23751847E+05</totfact>
</mgrwt>
</event>
<event>
 8    1  0.2603554E-020  0.7854813E+02  0.7818608E-02  0.1333223E+00
          2   -1    0    0  501    0  0.00000000000E+00  0.00000000000E+00  0.25225626501E+02  0.25225626630E+02  0.25500000000E-02 0. -1.
         -1   -1    0    0    0  501 -0.00000000000E+00 -0.00000000000E+00 -0.61146231315E+02  0.61146231523E+02  0.50400000000E-02 0.  1.
         24    2    1    2    0    0  0.00000000000E+00  0.35527136788E-14 -0.35920604814E+02  0.86371858153E+02  0.78548125570E+02 0.  0.
         66    2    3    3    0    0  0.19560654693E+02  0.30446236555E+02 -0.12646388567E+01  0.36265574387E+02  0.20000104545E+01 0.  0.
        -13    1    3    3    0    0 -0.19560654693E+02 -0.30446236555E+02 -0.34655965957E+02  0.50106283766E+02  0.10566000000E+00 0.  1.
         13    1    4    4    0    0  0.43649868448E+01  0.72040447873E+01 -0.29976881910E+00  0.84292583798E+01  0.10566000000E+00 0. -1.
        -13    1    4    4    0    0  0.50917497479E+01  0.92675741473E+01 -0.31939593362E+00  0.10579556884E+02  0.10566000000E+00 0.  1.
        -14    1    4    4    0    0  0.10103918101E+02  0.13974617620E+02 -0.64547410397E+00  0.17256759123E+02  0.00000000000E+00 0.  1.
<mgrwt>
<rscale>  0 0.78548126E+02</rscale>
<asrwt>0</asrwt>
<pdfrwt beam="1">  1        2 0.38808656E-02 0.78548126E+02</pdfrwt>
<pdfrwt beam="2">  1       -1 0.94071125E-02 0.78548126E+02</pdfrwt>
<totfact> 0.13694038E+05</totfact>
</mgrwt>
</event>
<event>
 8    1  0.2603554E-020  0.8204066E+02  0.7818608E-02  0.1323358E+00
         -1   -1    0    0    0  501 -0.00000000000E+00  0.00000000000E+00  0.80805612512E+01  0.80805628229E+01  0.50400000000E-02 0.  1.
          2   -1    0    0  501    0  0.00000000000E+00 -0.00000000000E+00 -0.20823643959E+03  0.20823643960E+03  0.25500000000E-02 0. -1.
         24    2    1    2    0    0  0.00000000000E+00  0.88817841970E-15 -0.20015587834E+03  0.21631700243E+03  0.82040660078E+02 0.  0.
         66    2    3    3    0    0 -0.35961102074E+02  0.77448437195E+01 -0.14785206407E+03  0.15237262334E+03  0.20000063409E+01 0.  0.
        -13    1    3    3    0    0  0.35961102074E+02 -0.77448437195E+01 -0.52303814266E+02  0.63944379091E+02  0.10566000000E+00 0.  1.
         13    1    4    4    0    0 -0.15097417104E+02  0.32963440574E+01 -0.60101696411E+02  0.62056610952E+02  0.10566000000E+00 0. -1.
        -13    1    4    4    0    0 -0.58004014729E+01  0.11548338625E+01 -0.21934941007E+02  0.22718518867E+02  0.10566000000E+00 0.  1.
        -14    1    4    4    0    0 -0.15063283497E+02  0.32936657997E+01 -0.65815426653E+02  0.67597493515E+02  0.00000000000E+00 0.  1.
<mgrwt>
<rscale>  0 0.82040660E+02</rscale>
<asrwt>0</asrwt>
<pdfrwt beam="1">  1        2 0.32036371E-01 0.82040660E+02</pdfrwt>
<pdfrwt beam="2">  1       -1 0.12431636E-02 0.82040660E+02</pdfrwt>
<totfact> 0.20931682E+05</totfact>
</mgrwt>
</event>
<event>
 8    1  0.2603554E-020  0.8191553E+02  0.7818608E-02  0.1323702E+00
         -1   -1    0    0    0  501 -0.00000000000E+00  0.00000000000E+00  0.79487209730E+01  0.79487225708E+01  0.50400000000E-02 0.  1.
          2   -1    0    0  501    0  0.00000000000E+00 -0.00000000000E+00 -0.21104506295E+03  0.21104506297E+03  0.25500000000E-02 0. -1.
         24    2    1    2    0    0 -0.71054273576E-14  0.00000000000E+00 -0.20309634198E+03  0.21899378554E+03  0.81915529536E+02 0.  0.
         66    2    3    3    0    0 -0.39157018873E+02 -0.27675140869E+01 -0.13262495869E+03  0.13832682646E+03  0.19999970032E+01 0.  0.
        -13    1    3    3    0    0  0.39157018873E+02  0.27675140869E+01 -0.70471383288E+02  0.80666959083E+02  0.10566000000E+00 0.  1.
         13    1    4    4    0    0 -0.10994704524E+02 -0.11467576512E+01 -0.38253812703E+02  0.39819140260E+02  0.10566000000E+00 0. -1.
        -13    1    4    4    0    0 -0.27889170935E+02 -0.17497024251E+01 -0.93367315249E+02  0.97459396853E+02  0.10566000000E+00 0.  1.
        -14    1    4    4    0    0 -0.27314341321E+00  0.12894598931E+00 -0.10038307401E+01  0.10482893432E+01  0.00000000000E+00 0.  1.
<mgrwt>
<rscale>  0 0.81915530E+02</rscale>
<asrwt>0</asrwt>
<pdfrwt beam="1">  1        2 0.32468467E-01 0.81915530E+02</pdfrwt>
<pdfrwt beam="2">  1       -1 0.12228804E-02 0.81915530E+02</pdfrwt>
<totfact> 0.21115454E+05</totfact>
</mgrwt>
</event>
<event>
 8    1  0.2603554E-020  0.7987325E+02  0.7818608E-02  0.1329412E+00
         -1   -1    0    0    0  501 -0.00000000000E+00  0.00000000000E+00  0.24890007332E+01  0.24890058359E+01  0.50400000000E-02 0.  1.
          2   -1    0    0  501    0  0.00000000000E+00 -0.00000000000E+00 -0.64079230677E+03  0.64079230678E+03  0.25500000000E-02 0. -1.
         24    2    1    2    0    0 -0.88817841970E-15  0.00000000000E+00 -0.63830330604E+03  0.64328131261E+03  0.79873253702E+02 0.  0.
         66    2    3    3    0    0  0.64613914484E+01  0.13177877347E+02 -0.61826709746E+03  0.61844450829E+03  0.19999997147E+01 0.  0.
        -13    1    3    3    0    0 -0.64613914484E+01 -0.13177877347E+02 -0.20036208578E+02  0.24836804324E+02  0.10566000000E+00 0.  1.
         13    1    4    4    0    0  0.32109041793E+01  0.71604403972E+01 -0.31839197356E+03  0.31848868395E+03  0.10566000000E+00 0. -1.
        -13    1    4    4    0    0  0.18332921632E+01  0.21697476667E+01 -0.11334218934E+03  0.11337782770E+03  0.10566000000E+00 0.  1.
         14    1    4    4    0    0  0.14171951059E+01  0.38476892833E+01 -0.18653293456E+03  0.18657799664E+03  0.00000000000E+00 0. -1.
<mgrwt>
<rscale>  0 0.79873254E+02</rscale>
<asrwt>0</asrwt>
<pdfrwt beam="1">  1        2 0.98583300E-01 0.79873254E+02</pdfrwt>
<pdfrwt beam="2">  1       -1 0.38292410E-03 0.79873254E+02</pdfrwt>
<totfact> 0.32872518E+05</totfact>
</mgrwt>
</event>
<event>
 8    1  0.2603554E-020  0.8074454E+02  0.7818608E-02  0.1326952E+00
          2   -1    0    0  501    0  0.00000000000E+00  0.00000000000E+00  0.28169969422E+03  0.28169969423E+03  0.25500000000E-02 0. -1.
         -1   -1    0    0    0  501 -0.00000000000E+00 -0.00000000000E+00 -0.57860188048E+01  0.57860209999E+01  0.50400000000E-02 0.  1.
         24    2    1    2    0    0  0.00000000000E+00  0.17763568394E-14  0.27591367542E+03  0.28748571523E+03  0.80744536540E+02 0.  0.
         66    2    3    3    0    0 -0.12200831895E+02  0.13630411131E+02  0.26608168412E+03  0.26671728671E+03  0.19999999201E+01 0.  0.
        -13    1    3    3    0    0  0.12200831895E+02 -0.13630411131E+02  0.98319913029E+01  0.20768428528E+02  0.10566000000E+00 0.  1.
         13    1    4    4    0    0 -0.45453476080E+01  0.51686240066E+01  0.97815906436E+02  0.98057827709E+02  0.10566000000E+00 0. -1.
        -13    1    4    4    0    0 -0.70817164403E+01  0.71169933607E+01  0.14391655870E+03  0.14426638324E+03  0.10566000000E+00 0.  1.
        -14    1    4    4    0    0 -0.57376784676E+00  0.13447937634E+01  0.24349218984E+02  0.24393075758E+02  0.00000000000E+00 0.  1.
<mgrwt>
<rscale>  0 0.80744537E+02</rscale>
<asrwt>0</asrwt>
<pdfrwt beam="1">  1        2 0.43338427E-01 0.80744537E+02</pdfrwt>
<pdfrwt beam="2">  1       -1 0.89015665E-03 0.80744537E+02</pdfrwt>
<totfact> 0.24321023E+05</totfact>
</mgrwt>
</event>
<event>
 8    1  0.2603554E-020  0.7781912E+02  0.7818608E-02  0.1335357E+00
         -1   -1    0    0    0  501 -0.00000000000E+00  0.00000000000E+00  0.17241532376E+01  0.17241606040E+01  0.50400000000E-02 0.  1.
          2   -1    0    0  501    0  0.00000000000E+00 -0.00000000000E+00 -0.87808346922E+03  0.87808346923E+03  0.25500000000E-02 0. -1.
         24    2    1    2    0    0  0.00000000000E+00  0.00000000000E+00 -0.87635931599E+03  0.87980762983E+03  0.77819115865E+02 0.  0.
         66    2    3    3    0    0  0.11476643922E+02 -0.12852468063E+02 -0.83256099921E+03  0.83274168665E+03  0.19999974513E+01 0.  0.
        -13    1    3    3    0    0 -0.11476643922E+02  0.12852468063E+02 -0.43798316781E+02  0.47065943185E+02  0.10566000000E+00 0.  1.
         13    1    4    4    0    0  0.97007481189E+01 -0.10035272529E+02 -0.65784528472E+03  0.65799334419E+03  0.10566000000E+00 0. -1.
        -13    1    4    4    0    0  0.14711469428E+01 -0.26178473984E+01 -0.15181074154E+03  0.15184047487E+03  0.10566000000E+00 0.  1.
        -14    1    4    4    0    0  0.30474886061E+00 -0.19934813540E+00 -0.22904972948E+02  0.22907867585E+02  0.00000000000E+00 0.  1.
<mgrwt>
<rscale>  0 0.77819116E+02</rscale>
<asrwt>0</asrwt>
<pdfrwt beam="1">  1        2 0.13508941E+00 0.77819116E+02</pdfrwt>
<pdfrwt beam="2">  1       -1 0.26525561E-03 0.77819116E+02</pdfrwt>
<totfact> 0.37434968E+05</totfact>
</mgrwt>
</event>
<event>
 8    1  0.2603554E-020  0.7901548E+02  0.7818608E-02  0.1331869E+00
          2   -1    0    0  501    0  0.00000000000E+00  0.00000000000E+00  0.62133221536E+02  0.62133221588E+02  0.25500000000E-02 0. -1.
         -1   -1    0    0    0  501 -0.00000000000E+00 -0.00000000000E+00 -0.25121204946E+02  0.25121205451E+02  0.50400000000E-02 0.  1.
         24    2    1    2    0    0  0.00000000000E+00  0.17763568394E-14  0.37012016590E+02  0.87254427040E+02  0.79015477382E+02 0.  0.
         66    2    3    3    0    0  0.27213332797E+02  0.13272737262E+02  0.46500249373E+02  0.55524807412E+02  0.20000025354E+01 0.  0.
        -13    1    3    3    0    0 -0.27213332797E+02 -0.13272737262E+02 -0.94882327824E+01  0.31729619627E+02  0.10566000000E+00 0.  1.
         13    1    4    4    0    0  0.81284207009E+01  0.33506715262E+01  0.13718731302E+02  0.16294568891E+02  0.10566000000E+00 0. -1.
        -13    1    4    4    0    0  0.70496644952E+01  0.29996380224E+01  0.11322130180E+02  0.13671042155E+02  0.10566000000E+00 0.  1.
         14    1    4    4    0    0  0.12035247601E+02  0.69224277133E+01  0.21459387890E+02  0.25559196366E+02  0.00000000000E+00 0. -1.
<mgrwt>
<rscale>  0 0.79015477E+02</rscale>
<asrwt>0</asrwt>
<pdfrwt beam="1">  1        2 0.95589572E-02 0.79015477E+02</pdfrwt>
<pdfrwt beam="2">  1       -1 0.38648008E-02 0.79015477E+02</pdfrwt>
<totfact> 0.16229676E+05</totfact>
</mgrwt>
</event>
<event>
 8    1  0.2603554E-020  0.8033357E+02  0.7818608E-02  0.1328107E+00
         -1   -1    0    0    0  501 -0.00000000000E+00  0.00000000000E+00  0.18264789488E+01  0.18264859025E+01  0.50400000000E-02 0.  1.
          2   -1    0    0  501    0  0.00000000000E+00 -0.00000000000E+00 -0.88332120087E+03  0.88332120088E+03  0.25500000000E-02 0. -1.
         24    2    1    2    0    0  0.35527136788E-14 -0.35527136788E-14 -0.88149472192E+03  0.88514768678E+03  0.80333571004E+02 0.  0.
         66    2    3    3    0    0 -0.21893583803E+02 -0.17325039595E+02 -0.75881614622E+03  0.75933222624E+03  0.20000101817E+01 0.  0.
        -13    1    3    3    0    0  0.21893583803E+02  0.17325039595E+02 -0.12267857571E+03  0.12581546054E+03  0.10566000000E+00 0.  1.
         13    1    4    4    0    0 -0.95191747088E+01 -0.86380284757E+01 -0.34401135908E+03  0.34425144381E+03  0.10566000000E+00 0. -1.
        -13    1    4    4    0    0 -0.10167293432E+02 -0.74402134067E+01 -0.34514530229E+03  0.34537518945E+03  0.10566000000E+00 0.  1.
        -14    1    4    4    0    0 -0.22071156623E+01 -0.12467977122E+01 -0.69659484845E+02  0.69705592982E+02  0.00000000000E+00 0.  1.
<mgrwt>
<rscale>  0 0.80333571E+02</rscale>
<asrwt>0</asrwt>
<pdfrwt beam="1">  1        2 0.13589523E+00 0.80333571E+02</pdfrwt>
<pdfrwt beam="2">  1       -1 0.28099800E-03 0.80333571E+02</pdfrwt>
<totfact> 0.34496337E+05</totfact>
</mgrwt>
</event>
<event>
 8    1  0.2603554E-020  0.7777184E+02  0.7818608E-02  0.1335496E+00
         -1   -1    0    0    0  501 -0.00000000000E+00  0.00000000000E+00  0.28180177414E+01  0.28180222484E+01  0.50400000000E-02 0.  1.
          2   -1    0    0  501    0  0.00000000000E+00 -0.00000000000E+00 -0.53658761394E+03  0.53658761395E+03  0.25500000000E-02 0. -1.
         24    2    1    2    0    0  0.00000000000E+00 -0.17763568394E-14 -0.53376959620E+03  0.53940563620E+03  0.77771836370E+02 0.  0.
         66    2    3    3    0    0 -0.53081358432E+01 -0.10507968339E+02 -0.52391908089E+03  0.52405514693E+03  0.19999997885E+01 0.  0.
        -13    1    3    3    0    0  0.53081358432E+01  0.10507968339E+02 -0.98505153078E+01  0.15350489263E+02  0.10566000000E+00 0.  1.
         13    1    4    4    0    0 -0.25752995412E+01 -0.63334701993E+01 -0.30273979271E+03  0.30281700458E+03  0.10566000000E+00 0. -1.
        -13    1    4    4    0    0 -0.10829185329E+00 -0.84921348168E+00 -0.40785278977E+02  0.40794399566E+02  0.10566000000E+00 0.  1.
         14    1    4    4    0    0 -0.26245444487E+01 -0.33252846581E+01 -0.18039400921E+03  0.18044374278E+03  0.00000000000E+00 0. -1.
<mgrwt>
<rscale>  0 0.77771836E+02</rscale>
<asrwt>0</asrwt>
<pdfrwt beam="1">  1        2 0.82551860E-01 0.77771836E+02</pdfrwt>
<pdfrwt beam="2">  1       -1 0.43354197E-03 0.77771836E+02</pdfrwt>
<totfact> 0.33502540E+05</totfact>
</mgrwt>
</event>
<event>
 8    1  0.2603554E-020  0.7935007E+02  0.7818608E-02  0.1330906E+00
         -1   -1    0    0    0  501 -0.00000000000E+00  0.00000000000E+00  0.11435356307E+02  0.11435357418E+02  0.50400000000E-02 0.  1.
          2   -1    0    0  501    0  0.00000000000E+00 -0.00000000000E+00 -0.13765275183E+03  0.13765275186E+03  0.25500000000E-02 0. -1.
         24    2    1    2    0    0  0.00000000000E+00  0.17763568394E-14 -0.12621739553E+03  0.14908810928E+03  0.79350068644E+02 0.  0.
         66    2    3    3    0    0  0.25702338485E+02 -0.72944563567E+01 -0.11819283573E+03  0.12119144243E+03  0.20000008800E+01 0.  0.
        -13    1    3    3    0    0 -0.25702338485E+02  0.72944563567E+01 -0.80245597980E+01  0.27896666846E+02  0.10566000000E+00 0.  1.
         13    1    4    4    0    0  0.48031714216E+01 -0.14761152864E+01 -0.22023691048E+02  0.22589898262E+02  0.10566000000E+00 0. -1.
        -13    1    4    4    0    0  0.30052145945E+01 -0.13520094383E+01 -0.16397473965E+02  0.16725655765E+02  0.10566000000E+00 0.  1.
        -14    1    4    4    0    0  0.17893952469E+02 -0.44663316320E+01 -0.79771670714E+02  0.81875888403E+02  0.00000000000E+00 0.  1.
<mgrwt>
<rscale>  0 0.79350069E+02</rscale>
<asrwt>0</asrwt>
<pdfrwt beam="1">  1        2 0.21177345E-01 0.79350069E+02</pdfrwt>
<pdfrwt beam="2">  1       -1 0.17592858E-02 0.79350069E+02</pdfrwt>
<totfact> 0.19917208E+05</totfact>
</mgrwt>
</event>
<event>
 8    1  0.2603554E-020  0.8023063E+02  0.7818608E-02  0.1328398E+00
          2   -1    0    0  501    0  0.00000000000E+00  0.00000000000E+00  0.94215804862E+02  0.94215804897E+02  0.25500000000E-02 0. -1.
         -1   -1    0    0    0  501 -0.00000000000E+00 -0.00000000000E+00 -0.17080344992E+02  0.17080345736E+02  0.50400000000E-02 0.  1.
         24    2    1    2    0    0 -0.71054273576E-14  0.44408920985E-15  0.77135459870E+02  0.11129615063E+03  0.80230629913E+02 0.  0.
         66    2    3    3    0    0 -0.38519744394E+02  0.31890254335E+01  0.53356898403E+02  0.65915849390E+02  0.20000005633E+01 0.  0.
        -13    1    3    3    0    0  0.38519744394E+02 -0.31890254335E+01  0.23778561466E+02  0.45380301242E+02  0.10566000000E+00 0.  1.
         13    1    4    4    0    0 -0.12421837060E+02  0.12483088986E+01  0.17277997320E+02  0.21316675784E+02  0.10566000000E+00 0. -1.
        -13    1    4    4    0    0 -0.31762109234E+01  0.70241594210E+00  0.48638521424E+01  0.58523436062E+01  0.10566000000E+00 0.  1.
        -14    1    4    4    0    0 -0.22921696410E+02  0.12383005928E+01  0.31215048941E+02  0.38746830001E+02  0.00000000000E+00 0.  1.
<mgrwt>
<rscale>  0 0.80230630E+02</rscale>
<asrwt>0</asrwt>
<pdfrwt beam="1">  1        2 0.14494739E-01 0.80230630E+02</pdfrwt>
<pdfrwt beam="2">  1       -1 0.26277454E-02 0.80230630E+02</pdfrwt>
<totfact> 0.17301750E+05</totfact>
</mgrwt>
</event>
<event>
 8    1  0.2603554E-020  0.8012678E+02  0.7818608E-02  0.1328692E+00
          2   -1    0    0  501    0  0.00000000000E+00  0.00000000000E+00  0.19000340755E+03  0.19000340757E+03  0.25500000000E-02 0. -1.
         -1   -1    0    0    0  501 -0.00000000000E+00 -0.00000000000E+00 -0.84476110464E+01  0.84476125499E+01  0.50400000000E-02 0.  1.
         24    2    1    2    0    0  0.00000000000E+00  0.00000000000E+00  0.18155579650E+03  0.19845102012E+03  0.80126775434E+02 0.  0.
         66    2    3    3    0    0 -0.72040744725E+00 -0.21155749952E+02  0.17500557185E+03  0.17629246985E+03  0.20000008574E+01 0.  0.
        -13    1    3    3    0    0  0.72040744725E+00  0.21155749952E+02  0.65502246505E+01  0.22158550266E+02  0.10566000000E+00 0.  1.
         13    1    4    4    0    0 -0.10547231265E+01 -0.12306307003E+02  0.10380679029E+03  0.10453907646E+03  0.10566000000E+00 0. -1.
        -13    1    4    4    0    0 -0.22383170223E+00 -0.16977719180E+01  0.12173123836E+02  0.12293438822E+02  0.10566000000E+00 0.  1.
        -14    1    4    4    0    0  0.55814738144E+00 -0.71516710303E+01  0.59025657727E+02  0.59459954567E+02  0.00000000000E+00 0.  1.
<mgrwt>
<rscale>  0 0.80126775E+02</rscale>
<asrwt>0</asrwt>
<pdfrwt beam="1">  1        2 0.29231294E-01 0.80126775E+02</pdfrwt>
<pdfrwt beam="2">  1       -1 0.12996325E-02 0.80126775E+02</pdfrwt>
<totfact> 0.21580755E+05</totfact>
</mgrwt>
</event>
<event>
 8    1  0.2603554E-020  0.8017362E+02  0.7818608E-02  0.1328559E+00
          2   -1    0    0  501    0  0.00000000000E+00  0.00000000000E+00  0.11550676839E+03  0.11550676841E+03  0.25500000000E-02 0. -1.
         -1   -1    0    0    0  501 -0.00000000000E+00 -0.00000000000E+00 -0.13912190401E+02  0.13912191314E+02  0.50400000000E-02 0.  1.
         24    2    1    2    0    0  0.00000000000E+00  0.00000000000E+00  0.10159457798E+03  0.12941895973E+03  0.80173616988E+02 0.  0.
         66    2    3    3    0    0 -0.26216520918E+02 -0.27087676581E+02  0.72719337014E+02  0.81933815769E+02  0.19999997681E+01 0.  0.
        -13    1    3    3    0    0  0.26216520918E+02  0.27087676581E+02  0.28875240970E+02  0.47485143958E+02  0.10566000000E+00 0.  1.
         13    1    4    4    0    0 -0.10666315934E+02 -0.10602671772E+02  0.27562780425E+02  0.31399123763E+02  0.10566000000E+00 0. -1.
        -13    1    4    4    0    0 -0.66511720521E+01 -0.74177765516E+01  0.20837331949E+02  0.23096905970E+02  0.10566000000E+00 0.  1.
        -14    1    4    4    0    0 -0.88990329315E+01 -0.90672282577E+01  0.24319224641E+02  0.27437786035E+02  0.00000000000E+00 0.  1.
<mgrwt>
<rscale>  0 0.80173617E+02</rscale>
<asrwt>0</asrwt>
<pdfrwt beam="1">  1        2 0.17770272E-01 0.80173617E+02</pdfrwt>
<pdfrwt beam="2">  1       -1 0.21403370E-02 0.80173617E+02</pdfrwt>
<totfact> 0.18369271E+05</totfact>
</mgrwt>
</event>
<event>
 8    1  0.2603554E-020  0.8054665E+02  0.7818608E-02  0.1327507E+00
         -1   -1    0    0    0  501 -0.00000000000E+00  0.00000000000E+00  0.63178900329E+01  0.63178920431E+01  0.50400000000E-02 0.  1.
          2   -1    0    0  501    0  0.00000000000E+00 -0.00000000000E+00 -0.25672185761E+03  0.25672185763E+03  0.25500000000E-02 0. -1.
         24    2    1    2    0    0  0.00000000000E+00  0.00000000000E+00 -0.25040396758E+03  0.26303974967E+03  0.80546650619E+02 0.  0.
         66    2    3    3    0    0  0.12213884747E+02  0.35452821137E+02 -0.17303550005E+03  0.17706316891E+03  0.19999998014E+01 0.  0.
        -13    1    3    3    0    0 -0.12213884747E+02 -0.35452821137E+02 -0.77368467527E+02  0.85976580758E+02  0.10566000000E+00 0.  1.
         13    1    4    4    0    0  0.11333848721E+02  0.32434301236E+02 -0.15888922414E+03  0.16256148601E+03  0.10566000000E+00 0. -1.
        -13    1    4    4    0    0  0.59920358109E+00  0.25313318296E+01 -0.12259823733E+02  0.12533201019E+02  0.10566000000E+00 0.  1.
         14    1    4    4    0    0  0.28083244409E+00  0.48718807144E+00 -0.18864521848E+01  0.19684818831E+01  0.00000000000E+00 0. -1.
<mgrwt>
<rscale>  0 0.80546651E+02</rscale>
<asrwt>0</asrwt>
<pdfrwt beam="1">  1        2 0.39495662E-01 0.80546651E+02</pdfrwt>
<pdfrwt beam="2">  1       -1 0.97198344E-03 0.80546651E+02</pdfrwt>
<totfact> 0.23669067E+05</totfact>
</mgrwt>
</event>
<event>
 8    1  0.2603554E-020  0.8318729E+02  0.7818608E-02  0.1320242E+00
         -1   -1    0    0    0  501 -0.00000000000E+00  0.00000000000E+00  0.19362063190E+02  0.19362063846E+02  0.50400000000E-02 0.  1.
          2   -1    0    0  501    0  0.00000000000E+00 -0.00000000000E+00 -0.89351600568E+02  0.89351600605E+02  0.25500000000E-02 0. -1.
         24    2    1    2    0    0  0.00000000000E+00 -0.71054273576E-14 -0.69989537378E+02  0.10871366445E+03  0.83187291673E+02 0.  0.
         66    2    3    3    0    0 -0.80524044498E+01  0.39953206979E+02 -0.45706127894E+02  0.61271119140E+02  0.19999870823E+01 0.  0.
        -13    1    3    3    0    0  0.80524044498E+01 -0.39953206979E+02 -0.24283409485E+02  0.47442545311E+02  0.10566000000E+00 0.  1.
         13    1    4    4    0    0 -0.54001741893E+00  0.34602187649E+01 -0.34737295231E+01  0.49338315282E+01  0.10566000000E+00 0. -1.
        -13    1    4    4    0    0 -0.33718665889E+01  0.13080158921E+02 -0.15621381837E+02  0.20651846799E+02  0.10566000000E+00 0.  1.
         14    1    4    4    0    0 -0.41405204420E+01  0.23412829293E+02 -0.26611016533E+02  0.35685440813E+02  0.00000000000E+00 0. -1.
<mgrwt>
<rscale>  0 0.83187292E+02</rscale>
<asrwt>0</asrwt>
<pdfrwt beam="1">  1        2 0.13746400E-01 0.83187292E+02</pdfrwt>
<pdfrwt beam="2">  1       -1 0.29787791E-02 0.83187292E+02</pdfrwt>
<totfact> 0.15470614E+05</totfact>
</mgrwt>
</event>
<event>
 8    1  0.2603554E-020  0.7340714E+02  0.7818608E-02  0.1348876E+00
          2   -1    0    0  501    0  0.00000000000E+00  0.00000000000E+00  0.37974058525E+03  0.37974058526E+03  0.25500000000E-02 0. -1.
         -1   -1    0    0    0  501 -0.00000000000E+00 -0.00000000000E+00 -0.35475566946E+01  0.35475602748E+01  0.50400000000E-02 0.  1.
         24    2    1    2    0    0 -0.71054273576E-14  0.00000000000E+00  0.37619302855E+03  0.38328814553E+03  0.73407137069E+02 0.  0.
         66    2    3    3    0    0  0.24672150424E+02  0.26766401113E+02  0.21158183101E+03  0.21469985188E+03  0.19999873451E+01 0.  0.
        -13    1    3    3    0    0 -0.24672150424E+02 -0.26766401113E+02  0.16461119754E+03  0.16858829365E+03  0.10566000000E+00 0.  1.
         13    1    4    4    0    0  0.44143738059E+01  0.39155392512E+01  0.34507538901E+02  0.35008563935E+02  0.10566000000E+00 0. -1.
        -13    1    4    4    0    0  0.73229673938E+01  0.79215764735E+01  0.65182417740E+02  0.66069175655E+02  0.10566000000E+00 0.  1.
         14    1    4    4    0    0  0.12934809224E+02  0.14929285388E+02  0.11189187437E+03  0.11362211229E+03  0.00000000000E+00 0. -1.
<mgrwt>
<rscale>  0 0.73407137E+02</rscale>
<asrwt>0</asrwt>
<pdfrwt beam="1">  1        2 0.58421604E-01 0.73407137E+02</pdfrwt>
<pdfrwt beam="2">  1       -1 0.54577846E-03 0.73407137E+02</pdfrwt>
<totfact> 0.34698540E+05</totfact>
</mgrwt>
</event>
<event>
 8    1  0.2603554E-020  0.8124968E+02  0.7818608E-02  0.1325542E+00
         -1   -1    0    0    0  501 -0.00000000000E+00  0.00000000000E+00  0.11473060615E+02  0.11473061722E+02  0.50400000000E-02 0.  1.
          2   -1    0    0  501    0  0.00000000000E+00 -0.00000000000E+00 -0.14384806325E+03  0.14384806327E+03  0.25500000000E-02 0. -1.
         24    2    1    2    0    0  0.00000000000E+00  0.00000000000E+00 -0.13237500263E+03  0.15532112499E+03  0.81249680288E+02 0.  0.
         66    2    3    3    0    0 -0.53700291214E+01  0.38450695757E+02 -0.43521488862E+02  0.58355918395E+02  0.20000004988E+01 0.  0.
        -13    1    3    3    0    0  0.53700291214E+01 -0.38450695757E+02 -0.88853513772E+02  0.96965206598E+02  0.10566000000E+00 0.  1.
         13    1    4    4    0    0 -0.15646179584E+01  0.10898082006E+02 -0.12520493042E+02  0.16673036041E+02  0.10566000000E+00 0. -1.
        -13    1    4    4    0    0 -0.27820933408E+01  0.15278047254E+02 -0.18013273167E+02  0.23783354378E+02  0.10566000000E+00 0.  1.
        -14    1    4    4    0    0 -0.10233178221E+01  0.12274566498E+02 -0.12987722653E+02  0.17899527976E+02  0.00000000000E+00 0.  1.
<mgrwt>
<rscale>  0 0.81249680E+02</rscale>
<asrwt>0</asrwt>
<pdfrwt beam="1">  1        2 0.22130470E-01 0.81249680E+02</pdfrwt>
<pdfrwt beam="2">  1       -1 0.17650864E-02 0.81249680E+02</pdfrwt>
<totfact> 0.18965506E+05</totfact>
</mgrwt>
</event>
<event>
 8    1  0.2603554E-020  0.7153248E+02  0.7818608E-02  0.1354958E+00
          2   -1    0    0  501    0  0.00000000000E+00  0.00000000000E+00  0.12315106834E+03  0.12315106837E+03  0.25500000000E-02 0. -1.
         -1   -1    0    0    0  501 -0.00000000000E+00 -0.00000000000E+00 -0.10387435111E+02  0.10387436334E+02  0.50400000000E-02 0.  1.
         24    2    1    2    0    0  0.00000000000E+00  0.00000000000E+00  0.11276363323E+03  0.13353850470E+03  0.71532476950E+02 0.  0.
         66    2    3    3    0    0 -0.32103347776E+02 -0.12290119852E+02  0.74673622791E+02  0.82230298304E+02  0.20000084926E+01 0.  0.
        -13    1    3    3    0    0  0.32103347776E+02  0.12290119852E+02  0.38090010436E+02  0.51308206395E+02  0.10566000000E+00 0.  1.
         13    1    4    4    0    0 -0.51988324586E+01 -0.16090470720E+01  0.11020709192E+02  0.12291626684E+02  0.10566000000E+00 0. -1.
        -13    1    4    4    0    0 -0.23591007540E+02 -0.94312636705E+01  0.54771858248E+02  0.60377578546E+02  0.10566000000E+00 0.  1.
        -14    1    4    4    0    0 -0.33135077776E+01 -0.12498091094E+01  0.88810553513E+01  0.95610930733E+01  0.00000000000E+00 0.  1.
<mgrwt>
<rscale>  0 0.71532477E+02</rscale>
<asrwt>0</asrwt>
<pdfrwt beam="1">  1        2 0.18946319E-01 0.71532477E+02</pdfrwt>
<pdfrwt beam="2">  1       -1 0.15980670E-02 0.71532477E+02</pdfrwt>
<totfact> 0.25320094E+05</totfact>
</mgrwt>
</event>
<event>
 8    1  0.2603554E-020  0.7854501E+02  0.7818608E-02  0.1333232E+00
         -1   -1    0    0    0  501 -0.00000000000E+00  0.00000000000E+00  0.54100083883E+02  0.54100084117E+02  0.50400000000E-02 0.  1.
          2   -1    0    0  501    0  0.00000000000E+00 -0.00000000000E+00 -0.28508823545E+02  0.28508823659E+02  0.25500000000E-02 0. -1.
         24    2    1    2    0    0  0.00000000000E+00  0.00000000000E+00  0.25591260338E+02  0.82608907776E+02  0.78545012816E+02 0.  0.
         66    2    3    3    0    0 -0.13367897174E+02 -0.32366256368E+02  0.31442249895E+02  0.47105098559E+02  0.20000014123E+01 0.  0.
        -13    1    3    3    0    0  0.13367897174E+02  0.32366256368E+02 -0.58509895575E+01  0.35503809218E+02  0.10566000000E+00 0.  1.
         13    1    4    4    0    0 -0.46246680305E+01 -0.99972686967E+01  0.90437330466E+01  0.14252480740E+02  0.10566000000E+00 0. -1.
        -13    1    4    4    0    0 -0.31824844279E+01 -0.82689892620E+01  0.88369465429E+01  0.12514278996E+02  0.10566000000E+00 0.  1.
        -14    1    4    4    0    0 -0.55607447156E+01 -0.14099998409E+02  0.13561570306E+02  0.20338338823E+02  0.00000000000E+00 0.  1.
<mgrwt>
<rscale>  0 0.78545013E+02</rscale>
<asrwt>0</asrwt>
<pdfrwt beam="1">  1        2 0.43859729E-02 0.78545013E+02</pdfrwt>
<pdfrwt beam="2">  1       -1 0.83230898E-02 0.78545013E+02</pdfrwt>
<totfact> 0.14024699E+05</totfact>
</mgrwt>
</event>
<event>
 8    1  0.2603554E-020  0.8160104E+02  0.7818608E-02  0.1324568E+00
          2   -1    0    0  501    0  0.00000000000E+00  0.00000000000E+00  0.12259312631E+04  0.12259312631E+04  0.25500000000E-02 0. -1.
         -1   -1    0    0    0  501 -0.00000000000E+00 -0.00000000000E+00 -0.13578875610E+01  0.13578969143E+01  0.50400000000E-02 0.  1.
         24    2    1    2    0    0 -0.35527136788E-14  0.35527136788E-14  0.12245733755E+04  0.12272891600E+04  0.81601042985E+02 0.  0.
         66    2    3    3    0    0  0.20162667738E+02 -0.13282164416E+02  0.11068599932E+04  0.11071251030E+04  0.20000002484E+01 0.  0.
        -13    1    3    3    0    0 -0.20162667738E+02  0.13282164416E+02  0.11771338230E+03  0.12016405701E+03  0.10566000000E+00 0.  1.
         13    1    4    4    0    0  0.44202708171E+01 -0.29098755297E+01  0.26266854017E+03  0.26272186686E+03  0.10566000000E+00 0. -1.
        -13    1    4    4    0    0  0.15501190015E+01 -0.53912261601E+00  0.74574945540E+02  0.74593077350E+02  0.10566000000E+00 0.  1.
         14    1    4    4    0    0  0.14192277919E+02 -0.98331662707E+01  0.76961650751E+03  0.76981015877E+03  0.00000000000E+00 0. -1.
<mgrwt>
<rscale>  0 0.81601043E+02</rscale>
<asrwt>0</asrwt>
<pdfrwt beam="1">  1        2 0.18860344E+00 0.81601043E+02</pdfrwt>
<pdfrwt beam="2">  1       -1 0.20890802E-03 0.81601043E+02</pdfrwt>
<totfact> 0.33193398E+05</totfact>
</mgrwt>
</event>
<event>
 8    1  0.2603554E-020  0.8092667E+02  0.7818608E-02  0.1326442E+00
         -1   -1    0    0    0  501 -0.00000000000E+00  0.00000000000E+00  0.43373650201E+01  0.43373679483E+01  0.50400000000E-02 0.  1.
          2   -1    0    0  501    0  0.00000000000E+00 -0.00000000000E+00 -0.37748285002E+03  0.37748285003E+03  0.25500000000E-02 0. -1.
         24    2    1    2    0    0  0.00000000000E+00 -0.17763568394E-14 -0.37314548500E+03  0.38182021798E+03  0.80926669770E+02 0.  0.
         66    2    3    3    0    0  0.32217316707E+02 -0.10064242831E+02 -0.29176687114E+03  0.29371951175E+03  0.20000023169E+01 0.  0.
        -13    1    3    3    0    0 -0.32217316707E+02  0.10064242831E+02 -0.81378613857E+02  0.88100706222E+02  0.10566000000E+00 0.  1.
         13    1    4    4    0    0  0.12601741854E+02 -0.33818863260E+01 -0.11327870151E+03  0.11402770029E+03  0.10566000000E+00 0. -1.
        -13    1    4    4    0    0  0.12842814671E+02 -0.46418624826E+01 -0.12233977076E+03  0.12309961596E+03  0.10566000000E+00 0.  1.
        -14    1    4    4    0    0  0.67727601815E+01 -0.20404940225E+01 -0.56148398870E+02  0.56592195505E+02  0.00000000000E+00 0.  1.
<mgrwt>
<rscale>  0 0.80926670E+02</rscale>
<asrwt>0</asrwt>
<pdfrwt beam="1">  1        2 0.58074259E-01 0.80926670E+02</pdfrwt>
<pdfrwt beam="2">  1       -1 0.66728745E-03 0.80926670E+02</pdfrwt>
<totfact> 0.26861620E+05</totfact>
</mgrwt>
</event>
<event>
 8    1  0.2603554E-020  0.7930639E+02  0.7818608E-02  0.1331031E+00
          2   -1    0    0  501    0  0.00000000000E+00  0.00000000000E+00  0.14444874367E+02  0.14444874592E+02  0.25500000000E-02 0. -1.
         -1   -1    0    0    0  501 -0.00000000000E+00 -0.00000000000E+00 -0.10885354035E+03  0.10885354047E+03  0.50400000000E-02 0.  1.
         24    2    1    2    0    0  0.00000000000E+00 -0.55511151231E-16 -0.94408665982E+02  0.12329841506E+03  0.79306386524E+02 0.  0.
         66    2    3    3    0    0 -0.36870562084E+02  0.48062571886E+00 -0.24666788957E+02  0.44408555606E+02  0.19999960110E+01 0.  0.
        -13    1    3    3    0    0  0.36870562084E+02 -0.48062571886E+00 -0.69741877024E+02  0.78889859452E+02  0.10566000000E+00 0.  1.
         13    1    4    4    0    0 -0.49317648635E+01  0.11671455938E+00 -0.39800187239E+01  0.63393722115E+01  0.10566000000E+00 0. -1.
        -13    1    4    4    0    0 -0.20055594215E+02  0.49674051053E+00 -0.13496250147E+02  0.24179196482E+02  0.10566000000E+00 0.  1.
        -14    1    4    4    0    0 -0.11883203006E+02 -0.13282935106E+00 -0.71905200866E+01  0.13889986913E+02  0.00000000000E+00 0.  1.
<mgrwt>
<rscale>  0 0.79306387E+02</rscale>
<asrwt>0</asrwt>
<pdfrwt beam="1">  1        2 0.22222885E-02 0.79306387E+02</pdfrwt>
<pdfrwt beam="2">  1       -1 0.16746698E-01 0.79306387E+02</pdfrwt>
<totfact> 0.11892712E+05</totfact>
</mgrwt>
</event>
<event>
 8    1  0.2603554E-020  0.8471340E+02  0.7818608E-02  0.1316184E+00
         -1   -1    0    0    0  501 -0.00000000000E+00  0.00000000000E+00  0.59800870229E+01  0.59800891468E+01  0.50400000000E-02 0.  1.
          2   -1    0    0  501    0  0.00000000000E+00 -0.00000000000E+00 -0.30001065245E+03  0.30001065246E+03  0.25500000000E-02 0. -1.
         24    2    1    2    0    0  0.00000000000E+00 -0.35527136788E-14 -0.29403056543E+03  0.30599074161E+03  0.84713402389E+02 0.  0.
         66    2    3    3    0    0  0.14583648383E+02  0.21423725483E+02 -0.26800298542E+03  0.26926057827E+03  0.20000005782E+01 0.  0.
        -13    1    3    3    0    0 -0.14583648383E+02 -0.21423725483E+02 -0.26027580006E+02  0.36730163337E+02  0.10566000000E+00 0.  1.
         13    1    4    4    0    0  0.27381268408E+01  0.43269354509E+01 -0.56327140002E+02  0.56559504717E+02  0.10566000000E+00 0. -1.
        -13    1    4    4    0    0  0.86759726631E+01  0.11286956961E+02 -0.14256358710E+03  0.14327266114E+03  0.10566000000E+00 0.  1.
        -14    1    4    4    0    0  0.31695488794E+01  0.58098330718E+01 -0.69112258322E+02  0.69428412417E+02  0.00000000000E+00 0.  1.
<mgrwt>
<rscale>  0 0.84713402E+02</rscale>
<asrwt>0</asrwt>
<pdfrwt beam="1">  1        2 0.46155473E-01 0.84713402E+02</pdfrwt>
<pdfrwt beam="2">  1       -1 0.92001379E-03 0.84713402E+02</pdfrwt>
<totfact> 0.21932252E+05</totfact>
</mgrwt>
</event>
<event>
 8    1  0.2603554E-020  0.7939002E+02  0.7818608E-02  0.1330791E+00
         -1   -1    0    0    0  501 -0.00000000000E+00  0.00000000000E+00  0.18320688512E+02  0.18320689206E+02  0.50400000000E-02 0.  1.
          2   -1    0    0  501    0  0.00000000000E+00 -0.00000000000E+00 -0.86006243075E+02  0.86006243113E+02  0.25500000000E-02 0. -1.
         24    2    1    2    0    0  0.00000000000E+00  0.00000000000E+00 -0.67685554563E+02  0.10432693232E+03  0.79390015181E+02 0.  0.
         66    2    3    3    0    0 -0.18599247470E+02  0.34247572562E+02 -0.24130892898E+02  0.45881676312E+02  0.19999990700E+01 0.  0.
        -13    1    3    3    0    0  0.18599247470E+02 -0.34247572562E+02 -0.43554661664E+02  0.58445256006E+02  0.10566000000E+00 0.  1.
         13    1    4    4    0    0 -0.30933116203E+01  0.53354610023E+01 -0.46216834272E+01  0.77075834490E+01  0.10566000000E+00 0.  1.
        -13    1    4    4    0    0 -0.11626711090E+02  0.21306802916E+02 -0.14617674022E+02  0.28334569330E+02  0.10566000000E+00 0. -1.
        -14    1    4    4    0    0 -0.38792247604E+01  0.76053086439E+01 -0.48915354496E+01  0.98395235334E+01  0.00000000000E+00 0.  1.
<mgrwt>
<rscale>  0 0.79390015E+02</rscale>
<asrwt>0</asrwt>
<pdfrwt beam="1">  1        2 0.13231730E-01 0.79390015E+02</pdfrwt>
<pdfrwt beam="2">  1       -1 0.28185676E-02 0.79390015E+02</pdfrwt>
<totfact> 0.17367296E+05</totfact>
</mgrwt>
</event>
<event>
 8    1  0.2603554E-020  0.7917687E+02  0.7818608E-02  0.1331404E+00
         -1   -1    0    0    0  501 -0.00000000000E+00  0.00000000000E+00  0.27194474540E+01  0.27194521244E+01  0.50400000000E-02 0.  1.
          2   -1    0    0  501    0  0.00000000000E+00 -0.00000000000E+00 -0.57630923644E+03  0.57630923645E+03  0.25500000000E-02 0. -1.
         24    2    1    2    0    0  0.88817841970E-15  0.35527136788E-14 -0.57358978899E+03  0.57902868857E+03  0.79176866307E+02 0.  0.
         66    2    3    3    0    0  0.73067594411E+01 -0.28651246735E+02 -0.47921000285E+03  0.48012551436E+03  0.20000096247E+01 0.  0.
        -13    1    3    3    0    0 -0.73067594411E+01  0.28651246735E+02 -0.94379786141E+02  0.98903174211E+02  0.10566000000E+00 0.  1.
         13    1    4    4    0    0  0.32483075516E+01 -0.13153082704E+02 -0.22082294173E+03  0.22123819255E+03  0.10566000000E+00 0. -1.
        -13    1    4    4    0    0 -0.53797404803E-01 -0.15935353372E+00 -0.41741195993E+01  0.41788426836E+01  0.10566000000E+00 0.  1.
        -14    1    4    4    0    0  0.41122492943E+01 -0.15338810498E+02 -0.25421294152E+03  0.25470847913E+03  0.00000000000E+00 0.  1.
<mgrwt>
<rscale>  0 0.79176866E+02</rscale>
<asrwt>0</asrwt>
<pdfrwt beam="1">  1        2 0.88662863E-01 0.79176866E+02</pdfrwt>
<pdfrwt beam="2">  1       -1 0.41837735E-03 0.79176866E+02</pdfrwt>
<totfact> 0.32665198E+05</totfact>
</mgrwt>
</event>
<event>
 8    1  0.2603554E-020  0.7841696E+02  0.7818608E-02  0.1333605E+00
          2   -1    0    0  501    0  0.00000000000E+00  0.00000000000E+00  0.48916774665E+03  0.48916774665E+03  0.25500000000E-02 0. -1.
         -1   -1    0    0    0  501 -0.00000000000E+00 -0.00000000000E+00 -0.31426924224E+01  0.31426964637E+01  0.50400000000E-02 0.  1.
         24    2    1    2    0    0 -0.11102230246E-15 -0.17763568394E-14  0.48602505423E+03  0.49231044312E+03  0.78416956510E+02 0.  0.
         66    2    3    3    0    0 -0.89038561042E+00 -0.12104063760E+02  0.47706659293E+03  0.47722514104E+03  0.20000005100E+01 0.  0.
        -13    1    3    3    0    0  0.89038561042E+00  0.12104063760E+02  0.89584612943E+01  0.15085302080E+02  0.10566000000E+00 0.  1.
         13    1    4    4    0    0 -0.86509956479E+00 -0.33081651188E+01  0.14355128807E+03  0.14359204652E+03  0.10566000000E+00 0. -1.
        -13    1    4    4    0    0  0.43097559392E+00 -0.31518984431E+01  0.10964898544E+03  0.10969517481E+03  0.10566000000E+00 0.  1.
         14    1    4    4    0    0 -0.45626163955E+00 -0.56440001982E+01  0.22386631942E+03  0.22393791971E+03  0.00000000000E+00 0. -1.
<mgrwt>
<rscale>  0 0.78416957E+02</rscale>
<asrwt>0</asrwt>
<pdfrwt beam="1">  1        2 0.75256600E-01 0.78416957E+02</pdfrwt>
<pdfrwt beam="2">  1       -1 0.48349130E-03 0.78416957E+02</pdfrwt>
<totfact> 0.31853792E+05</totfact>
</mgrwt>
</event>
<event>
 8    1  0.2603554E-020  0.8117454E+02  0.7818608E-02  0.1325751E+00
         -1   -1    0    0    0  501 -0.00000000000E+00  0.00000000000E+00  0.37161495834E+03  0.37161495837E+03  0.50400000000E-02 0.  1.
          2   -1    0    0  501    0  0.00000000000E+00 -0.00000000000E+00 -0.44328848850E+01  0.44328856185E+01  0.25500000000E-02 0. -1.
         24    2    1    2    0    0 -0.35527136788E-14 -0.17763568394E-14  0.36718207345E+03  0.37604784399E+03  0.81174539757E+02 0.  0.
         66    2    3    3    0    0 -0.29868606651E+02 -0.12551857385E+02  0.29676366897E+03  0.29853367986E+03  0.20000006130E+01 0.  0.
        -13    1    3    3    0    0  0.29868606651E+02  0.12551857385E+02  0.70418404483E+02  0.77514164132E+02  0.10566000000E+00 0.  1.
         13    1    4    4    0    0 -0.13535144585E+02 -0.64691008175E+01  0.13424427764E+03  0.13507992689E+03  0.10566000000E+00 0. -1.
        -13    1    4    4    0    0 -0.97278860978E+01 -0.36921279654E+01  0.10098242217E+03  0.10151711348E+03  0.10566000000E+00 0.  1.
         14    1    4    4    0    0 -0.66055759685E+01 -0.23906286026E+01  0.61536969157E+02  0.61936639495E+02  0.00000000000E+00 0. -1.
<mgrwt>
<rscale>  0 0.81174540E+02</rscale>
<asrwt>0</asrwt>
<pdfrwt beam="1">  1        2 0.68198247E-03 0.81174540E+02</pdfrwt>
<pdfrwt beam="2">  1       -1 0.57171522E-01 0.81174540E+02</pdfrwt>
<totfact> 0.75738064E+04</totfact>
</mgrwt>
</event>
<event>
 8    1  0.2603554E-020  0.7994654E+02  0.7818608E-02  0.1329203E+00
          2   -1    0    0  501    0  0.00000000000E+00  0.00000000000E+00  0.64204826704E+02  0.64204826755E+02  0.25500000000E-02 0. -1.
         -1   -1    0    0    0  501 -0.00000000000E+00 -0.00000000000E+00 -0.24886947139E+02  0.24886947650E+02  0.50400000000E-02 0.  1.
         24    2    1    2    0    0 -0.35527136788E-14  0.00000000000E+00  0.39317879565E+02  0.89091774404E+02  0.79946535967E+02 0.  0.
         66    2    3    3    0    0  0.28200058540E+02  0.28159218517E+02  0.22757954453E+02  0.45935926911E+02  0.20000002915E+01 0.  0.
        -13    1    3    3    0    0 -0.28200058540E+02 -0.28159218517E+02  0.16559925112E+02  0.43155847494E+02  0.10566000000E+00 0.  1.
         13    1    4    4    0    0  0.15273758433E+02  0.14976843077E+02  0.11541006892E+02  0.24306368082E+02  0.10566000000E+00 0. -1.
        -13    1    4    4    0    0  0.73700492416E+01  0.68547080173E+01  0.58051308934E+01  0.11619610861E+02  0.10566000000E+00 0.  1.
        -14    1    4    4    0    0  0.55562508651E+01  0.63276674225E+01  0.54118166675E+01  0.10009947968E+02  0.00000000000E+00 0.  1.
<mgrwt>
<rscale>  0 0.79946536E+02</rscale>
<asrwt>0</asrwt>
<pdfrwt beam="1">  1        2 0.98776656E-02 0.79946536E+02</pdfrwt>
<pdfrwt beam="2">  1       -1 0.38287612E-02 0.79946536E+02</pdfrwt>
<totfact> 0.15843317E+05</totfact>
</mgrwt>
</event>
<event>
 8    1  0.2603554E-020  0.8407304E+02  0.7818608E-02  0.1317875E+00
          2   -1    0    0  501    0  0.00000000000E+00  0.00000000000E+00  0.11261713027E+03  0.11261713029E+03  0.25500000000E-02 0. -1.
         -1   -1    0    0    0  501 -0.00000000000E+00 -0.00000000000E+00 -0.15690943131E+02  0.15690943940E+02  0.50400000000E-02 0.  1.
         24    2    1    2    0    0  0.00000000000E+00  0.71054273576E-14  0.96926187135E+02  0.12830807423E+03  0.84073040633E+02 0.  0.
         66    2    3    3    0    0  0.87447900596E+01  0.34077514279E+02  0.13444917308E+02  0.37716231840E+02  0.20000025367E+01 0.  0.
        -13    1    3    3    0    0 -0.87447900596E+01 -0.34077514279E+02  0.83481269827E+02  0.90591842395E+02  0.10566000000E+00 0.  1.
         13    1    4    4    0    0  0.21712258728E+01  0.62237139997E+01  0.28995541453E+01  0.72019036385E+01  0.10566000000E+00 0. -1.
        -13    1    4    4    0    0  0.18447448288E+01  0.61678047787E+01  0.23822568832E+01  0.68652174885E+01  0.10566000000E+00 0. -1.
         14    1    4    4    0    0  0.47288193580E+01  0.21685995500E+02  0.81631062798E+01  0.23649110713E+02  0.00000000000E+00 0. -1.
<mgrwt>
<rscale>  0 0.84073041E+02</rscale>
<asrwt>0</asrwt>
<pdfrwt beam="1">  1        2 0.17325713E-01 0.84073041E+02</pdfrwt>
<pdfrwt beam="2">  1       -1 0.24139912E-02 0.84073041E+02</pdfrwt>
<totfact> 0.16054793E+05</totfact>
</mgrwt>
</event>
<event>
 8    1  0.2603554E-020  0.7999819E+02  0.7818608E-02  0.1329057E+00
          2   -1    0    0  501    0  0.00000000000E+00  0.00000000000E+00  0.28339485227E+02  0.28339485341E+02  0.25500000000E-02 0. -1.
         -1   -1    0    0    0  501 -0.00000000000E+00 -0.00000000000E+00 -0.56455773101E+02  0.56455773326E+02  0.50400000000E-02 0.  1.
         24    2    1    2    0    0  0.00000000000E+00  0.00000000000E+00 -0.28116287875E+02  0.84795258668E+02  0.79998189034E+02 0.  0.
         66    2    3    3    0    0 -0.21162181756E+01  0.39111301977E+02 -0.22530064674E+02  0.45230256768E+02  0.19999978503E+01 0.  0.
        -13    1    3    3    0    0  0.21162181756E+01 -0.39111301977E+02 -0.55862232011E+01  0.39565001900E+02  0.10566000000E+00 0.  1.
         13    1    4    4    0    0 -0.84298976768E+00  0.24404016897E+02 -0.14672295532E+02  0.28487788483E+02  0.10566000000E+00 0. -1.
        -13    1    4    4    0    0 -0.41372251769E+00  0.42919607175E+01 -0.26969131128E+01  0.50869045102E+01  0.10566000000E+00 0.  1.
         14    1    4    4    0    0 -0.85950589021E+00  0.10415324362E+02 -0.51608560290E+01  0.11655563774E+02  0.00000000000E+00 0. -1.
<mgrwt>
<rscale>  0 0.79998189E+02</rscale>
<asrwt>0</asrwt>
<pdfrwt beam="1">  1        2 0.43599208E-02 0.79998189E+02</pdfrwt>
<pdfrwt beam="2">  1       -1 0.86855035E-02 0.79998189E+02</pdfrwt>
<totfact> 0.13305907E+05</totfact>
</mgrwt>
</event>
<event>
 8    1  0.3132450E-020  0.8078063E+02  0.7818608E-02  0.1326851E+00
         -1   -1    0    0    0  501 -0.00000000000E+00  0.00000000000E+00  0.14839632474E+02  0.14839633330E+02  0.50400000000E-02 0.  1.
          2   -1    0    0  501    0  0.00000000000E+00 -0.00000000000E+00 -0.10993382517E+03  0.10993382520E+03  0.25500000000E-02 0. -1.
         24    2    1    2    0    0  0.00000000000E+00 -0.35527136788E-14 -0.95094192700E+02  0.12477345853E+03  0.80780631771E+02 0.  0.
         66    2    3    3    0    0 -0.22223849983E+02 -0.28475957140E+02 -0.75404323677E+02  0.83633675486E+02  0.20000007157E+01 0.  0.
        -13    1    3    3    0    0  0.22223849983E+02  0.28475957140E+02 -0.19689869023E+02  0.41139783049E+02  0.10566000000E+00 0.  1.
         13    1    4    4    0    0 -0.10858875262E+02 -0.13809122245E+02 -0.36650211275E+02  0.40643033593E+02  0.10566000000E+00 0. -1.
        -13    1    4    4    0    0 -0.53894950851E+01 -0.61682854191E+01 -0.15907779838E+02  0.17893099946E+02  0.10566000000E+00 0.  1.
        -14    1    4    4    0    0 -0.59754796365E+01 -0.84985494759E+01 -0.22846332565E+02  0.25097541946E+02  0.00000000000E+00 0.  1.
<mgrwt>
<rscale>  0 0.80780632E+02</rscale>
<asrwt>0</asrwt>
<pdfrwt beam="1">  1        2 0.16912896E-01 0.80780632E+02</pdfrwt>
<pdfrwt beam="2">  1       -1 0.22830205E-02 0.80780632E+02</pdfrwt>
<totfact> 0.17743830E+05</totfact>
</mgrwt>
</event>
<event>
 8    1  0.2603554E-020  0.8173295E+02  0.7818608E-02  0.1324204E+00
          2   -1    0    0  501    0  0.00000000000E+00  0.00000000000E+00  0.57178146256E+03  0.57178146256E+03  0.25500000000E-02 0. -1.
         -1   -1    0    0    0  501 -0.00000000000E+00 -0.00000000000E+00 -0.29208147017E+01  0.29208190501E+01  0.50400000000E-02 0.  1.
         24    2    1    2    0    0  0.17763568394E-14  0.71054273576E-14  0.56886064786E+03  0.57470228161E+03  0.81732954264E+02 0.  0.
         66    2    3    3    0    0  0.13294714497E+02  0.32515164976E+02  0.43109755367E+03  0.43253102337E+03  0.20000024536E+01 0.  0.
        -13    1    3    3    0    0 -0.13294714497E+02 -0.32515164976E+02  0.13776309419E+03  0.14217125825E+03  0.10566000000E+00 0.  1.
         13    1    4    4    0    0  0.61313039669E+01  0.14712372782E+02  0.19598040374E+03  0.19662750727E+03  0.10566000000E+00 0. -1.
        -13    1    4    4    0    0  0.19456667869E+01  0.61439260640E+01  0.73067694869E+02  0.73351432462E+02  0.10566000000E+00 0.  1.
         14    1    4    4    0    0  0.52177437431E+01  0.11658866130E+02  0.16204945506E+03  0.16255208364E+03  0.00000000000E+00 0. -1.
<mgrwt>
<rscale>  0 0.81732954E+02</rscale>
<asrwt>0</asrwt>
<pdfrwt beam="1">  1        2 0.87966305E-01 0.81732954E+02</pdfrwt>
<pdfrwt beam="2">  1       -1 0.44935682E-03 0.81732954E+02</pdfrwt>
<totfact> 0.30002191E+05</totfact>
</mgrwt>
</event>
<event>
 8    1  0.2603554E-020  0.8121385E+02  0.7818608E-02  0.1325642E+00
          2   -1    0    0  501    0  0.00000000000E+00  0.00000000000E+00  0.25745007717E+03  0.25745007718E+03  0.25500000000E-02 0. -1.
         -1   -1    0    0    0  501 -0.00000000000E+00 -0.00000000000E+00 -0.64048227646E+01  0.64048247476E+01  0.50400000000E-02 0.  1.
         24    2    1    2    0    0  0.00000000000E+00  0.00000000000E+00  0.25104525440E+03  0.26385490193E+03  0.81213850500E+02 0.  0.
         66    2    3    3    0    0  0.85862780665E+01  0.18308620167E+02  0.23991090705E+03  0.24076995881E+03  0.20000009590E+01 0.  0.
        -13    1    3    3    0    0 -0.85862780665E+01 -0.18308620167E+02  0.11134347355E+02  0.23084943112E+02  0.10566000000E+00 0.  1.
         13    1    4    4    0    0  0.16237245172E+01  0.25759528203E+01  0.35261657834E+02  0.35393045807E+02  0.10566000000E+00 0. -1.
        -13    1    4    4    0    0  0.33931212713E+01  0.76038250314E+01  0.10816707007E+03  0.10848713121E+03  0.10566000000E+00 0.  1.
        -14    1    4    4    0    0  0.35694322780E+01  0.81288423150E+01  0.96482179141E+02  0.96889781794E+02  0.00000000000E+00 0.  1.
<mgrwt>
<rscale>  0 0.81213851E+02</rscale>
<asrwt>0</asrwt>
<pdfrwt beam="1">  1        2 0.39607699E-01 0.81213851E+02</pdfrwt>
<pdfrwt beam="2">  1       -1 0.98535763E-03 0.81213851E+02</pdfrwt>
<totfact> 0.23184665E+05</totfact>
</mgrwt>
</event>
<event>
 8    1  0.2603554E-020  0.7800124E+02  0.7818608E-02  0.1334821E+00
          2   -1    0    0  501    0  0.00000000000E+00  0.00000000000E+00  0.47260453407E+02  0.47260453476E+02  0.25500000000E-02 0. -1.
         -1   -1    0    0    0  501 -0.00000000000E+00 -0.00000000000E+00 -0.32184380204E+02  0.32184380599E+02  0.50400000000E-02 0.  1.
         24    2    1    2    0    0 -0.35527136788E-14 -0.35527136788E-14  0.15076073203E+02  0.79444834074E+02  0.78001241515E+02 0.  0.
         66    2    3    3    0    0  0.28987269600E+02  0.16985057409E+02  0.27664350686E+02  0.43566848232E+02  0.19999979843E+01 0.  0.
        -13    1    3    3    0    0 -0.28987269600E+02 -0.16985057409E+02 -0.12588277483E+02  0.35877985842E+02  0.10566000000E+00 0.  1.
         13    1    4    4    0    0  0.13965805723E+02  0.82294181516E+01  0.13844684142E+02  0.21317914899E+02  0.10566000000E+00 0. -1.
        -13    1    4    4    0    0  0.92098437184E+01  0.52150685195E+01  0.76071831639E+01  0.13034514211E+02  0.10566000000E+00 0.  1.
        -14    1    4    4    0    0  0.58116201581E+01  0.35405707382E+01  0.62124833802E+01  0.92144191224E+01  0.00000000000E+00 0.  1.
<mgrwt>
<rscale>  0 0.78001242E+02</rscale>
<asrwt>0</asrwt>
<pdfrwt beam="1">  1        2 0.72708390E-02 0.78001242E+02</pdfrwt>
<pdfrwt beam="2">  1       -1 0.49514432E-02 0.78001242E+02</pdfrwt>
<totfact> 0.15822159E+05</totfact>
</mgrwt>
</event>
<event>
 8    1  0.2603554E-020  0.8031472E+02  0.7818608E-02  0.1328161E+00
          2   -1    0    0  501    0  0.00000000000E+00  0.00000000000E+00  0.10171250005E+03  0.10171250008E+03  0.25500000000E-02 0. -1.
         -1   -1    0    0    0  501 -0.00000000000E+00 -0.00000000000E+00 -0.15854623145E+02  0.15854623946E+02  0.50400000000E-02 0.  1.
         24    2    1    2    0    0 -0.88817841970E-15  0.00000000000E+00  0.85857876908E+02  0.11756712403E+03  0.80314716122E+02 0.  0.
         66    2    3    3    0    0  0.72465079076E+01  0.20813723816E+02  0.92051350147E+02  0.94674040998E+02  0.19999997804E+01 0.  0.
        -13    1    3    3    0    0 -0.72465079076E+01 -0.20813723816E+02 -0.61934732389E+01  0.22893083033E+02  0.10566000000E+00 0.  1.
         13    1    4    4    0    0  0.52606564691E+01  0.12869338662E+02  0.59709734143E+02  0.61307078707E+02  0.10566000000E+00 0. -1.
        -13    1    4    4    0    0  0.38020448206E+00  0.16470752657E+01  0.58863504955E+01  0.61251692687E+01  0.10566000000E+00 0.  1.
         14    1    4    4    0    0  0.16056469565E+01  0.62973098887E+01  0.26455265508E+02  0.27241793022E+02  0.00000000000E+00 0. -1.
<mgrwt>
<rscale>  0 0.80314716E+02</rscale>
<asrwt>0</asrwt>
<pdfrwt beam="1">  1        2 0.15648077E-01 0.80314716E+02</pdfrwt>
<pdfrwt beam="2">  1       -1 0.24391729E-02 0.80314716E+02</pdfrwt>
<totfact> 0.17624256E+05</totfact>
</mgrwt>
</event>
<event>
 8    1  0.2603554E-020  0.8222056E+02  0.7818608E-02  0.1322865E+00
         -1   -1    0    0    0  501 -0.00000000000E+00  0.00000000000E+00  0.26663712214E+01  0.26663759848E+01  0.50400000000E-02 0.  1.
          2   -1    0    0  501    0  0.00000000000E+00 -0.00000000000E+00 -0.63384025744E+03  0.63384025745E+03  0.25500000000E-02 0. -1.
         24    2    1    2    0    0  0.71054273576E-14  0.17763568394E-14 -0.63117388622E+03  0.63650663343E+03  0.82220555557E+02 0.  0.
         66    2    3    3    0    0  0.38005683840E+02  0.63745078213E+01 -0.42606744000E+03  0.42781132491E+03  0.19999845795E+01 0.  0.
        -13    1    3    3    0    0 -0.38005683840E+02 -0.63745078213E+01 -0.20510644622E+03  0.20869530853E+03  0.10566000000E+00 0.  1.
         13    1    4    4    0    0  0.11583526415E+02  0.15413146011E+01 -0.12893097451E+03  0.12945949593E+03  0.10566000000E+00 0. -1.
        -13    1    4    4    0    0  0.86347217184E+01  0.18680875913E+01 -0.10491716965E+03  0.10528851704E+03  0.10566000000E+00 0.  1.
         14    1    4    4    0    0  0.17787435707E+02  0.29651056289E+01 -0.19221929584E+03  0.19306331193E+03  0.00000000000E+00 0. -1.
<mgrwt>
<rscale>  0 0.82220556E+02</rscale>
<asrwt>0</asrwt>
<pdfrwt beam="1">  1        2 0.97513766E-01 0.82220556E+02</pdfrwt>
<pdfrwt beam="2">  1       -1 0.41021183E-03 0.82220556E+02</pdfrwt>
<totfact> 0.30397440E+05</totfact>
</mgrwt>
</event>
<event>
 8    1  0.2603554E-020  0.7875474E+02  0.7818608E-02  0.1332623E+00
         -1   -1    0    0    0  501 -0.00000000000E+00  0.00000000000E+00  0.34351856774E+02  0.34351857144E+02  0.50400000000E-02 0.  1.
          2   -1    0    0  501    0  0.00000000000E+00 -0.00000000000E+00 -0.45138096415E+02  0.45138096487E+02  0.25500000000E-02 0. -1.
         24    2    1    2    0    0  0.00000000000E+00  0.35527136788E-14 -0.10786239640E+02  0.79489953631E+02  0.78754744382E+02 0.  0.
         66    2    3    3    0    0 -0.26280931563E+02  0.28658059871E+02 -0.11502920687E+02  0.40599124955E+02  0.20000008543E+01 0.  0.
        -13    1    3    3    0    0  0.26280931563E+02 -0.28658059871E+02  0.71668104686E+00  0.38890828676E+02  0.10566000000E+00 0.  1.
         13    1    4    4    0    0 -0.59509137435E+01  0.74472890957E+01 -0.29192754101E+01  0.99703972947E+01  0.10566000000E+00 0. -1.
        -13    1    4    4    0    0 -0.67894613977E+01  0.63501622597E+01 -0.27540666124E+01  0.96962566868E+01  0.10566000000E+00 0.  1.
        -14    1    4    4    0    0 -0.13540556421E+02  0.14860608515E+02 -0.58295786648E+01  0.20932470973E+02  0.00000000000E+00 0.  1.
<mgrwt>
<rscale>  0 0.78754744E+02</rscale>
<asrwt>0</asrwt>
<pdfrwt beam="1">  1        2 0.69443225E-02 0.78754744E+02</pdfrwt>
<pdfrwt beam="2">  1       -1 0.52849011E-02 0.78754744E+02</pdfrwt>
<totfact> 0.15262500E+05</totfact>
</mgrwt>
</event>
<event>
 8    1  0.2603554E-020  0.7782864E+02  0.7818608E-02  0.1335329E+00
         -1   -1    0    0    0  501 -0.00000000000E+00  0.00000000000E+00  0.54301187591E+01  0.54301210980E+01  0.50400000000E-02 0.  1.
          2   -1    0    0  501    0  0.00000000000E+00 -0.00000000000E+00 -0.27887495178E+03  0.27887495179E+03  0.25500000000E-02 0. -1.
         24    2    1    2    0    0  0.88817841970E-15  0.71054273576E-14 -0.27344483302E+03  0.28430507289E+03  0.77828643603E+02 0.  0.
         66    2    3    3    0    0 -0.47683508791E+01 -0.38113572884E+02 -0.11461100209E+03  0.12089277647E+03  0.19999987662E+01 0.  0.
        -13    1    3    3    0    0  0.47683508791E+01  0.38113572884E+02 -0.15883383093E+03  0.16341229642E+03  0.10566000000E+00 0.  1.
         13    1    4    4    0    0 -0.15138382800E+01 -0.91054690911E+01 -0.26948703413E+02  0.28485874630E+02  0.10566000000E+00 0.  1.
        -13    1    4    4    0    0 -0.25654626419E+01 -0.26561600045E+02 -0.80358720352E+02  0.84673698963E+02  0.10566000000E+00 0. -1.
        -14    1    4    4    0    0 -0.68904995719E+00 -0.24465037481E+01 -0.73035783234E+01  0.77332028784E+01  0.00000000000E+00 0.  1.
<mgrwt>
<rscale>  0 0.77828644E+02</rscale>
<asrwt>0</asrwt>
<pdfrwt beam="1">  1        2 0.42903827E-01 0.77828644E+02</pdfrwt>
<pdfrwt beam="2">  1       -1 0.83540329E-03 0.77828644E+02</pdfrwt>
<totfact> 0.26685722E+05</totfact>
</mgrwt>
</event>
<event>
 8    1  0.2603554E-020  0.7961370E+02  0.7818608E-02  0.1330151E+00
          2   -1    0    0  501    0  0.00000000000E+00  0.00000000000E+00  0.40911322243E+02  0.40911322323E+02  0.25500000000E-02 0. -1.
         -1   -1    0    0    0  501 -0.00000000000E+00 -0.00000000000E+00 -0.38732195769E+02  0.38732196097E+02  0.50400000000E-02 0.  1.
         24    2    1    2    0    0  0.00000000000E+00  0.00000000000E+00  0.21791264742E+01  0.79643518420E+02  0.79613701297E+02 0.  0.
         66    2    3    3    0    0  0.17552450597E+02 -0.17167906244E+02  0.32403008263E+02  0.40703568225E+02  0.19999987549E+01 0.  0.
        -13    1    3    3    0    0 -0.17552450597E+02  0.17167906244E+02 -0.30223881789E+02  0.38939950195E+02  0.10566000000E+00 0.  1.
         13    1    4    4    0    0  0.26920953702E+01 -0.29038942806E+01  0.58373406651E+01  0.70544801049E+01  0.10566000000E+00 0. -1.
        -13    1    4    4    0    0  0.34859067641E+01 -0.35314788705E+01  0.54255794382E+01  0.73532962171E+01  0.10566000000E+00 0.  1.
        -14    1    4    4    0    0  0.11374448463E+02 -0.10732533093E+02  0.21140088160E+02  0.26295791903E+02  0.00000000000E+00 0.  1.
<mgrwt>
<rscale>  0 0.79613701E+02</rscale>
<asrwt>0</asrwt>
<pdfrwt beam="1">  1        2 0.62940496E-02 0.79613701E+02</pdfrwt>
<pdfrwt beam="2">  1       -1 0.59587994E-02 0.79613701E+02</pdfrwt>
<totfact> 0.14514201E+05</totfact>
</mgrwt>
</event>
<event>
 8    1  0.2603554E-020  0.8008563E+02  0.7818608E-02  0.1328809E+00
          2   -1    0    0  501    0  0.00000000000E+00  0.00000000000E+00  0.97127358314E+03  0.97127358315E+03  0.25500000000E-02 0. -1.
         -1   -1    0    0    0  501 -0.00000000000E+00 -0.00000000000E+00 -0.16508463193E+01  0.16508540128E+01  0.50400000000E-02 0.  1.
         24    2    1    2    0    0  0.17763568394E-14  0.35527136788E-14  0.96962273682E+03  0.97292443716E+03  0.80085633267E+02 0.  0.
         66    2    3    3    0    0 -0.12168635879E+02 -0.26784948839E+02  0.81467534764E+03  0.81520882676E+03  0.19999994694E+01 0.  0.
        -13    1    3    3    0    0  0.12168635879E+02  0.26784948839E+02  0.15494738918E+03  0.15771561040E+03  0.10566000000E+00 0.  1.
         13    1    4    4    0    0 -0.51284062407E+01 -0.11156316241E+02  0.31976733673E+03  0.32000300741E+03  0.10566000000E+00 0. -1.
        -13    1    4    4    0    0 -0.58874176177E-01 -0.40553678690E+00  0.12973377915E+02  0.12980278303E+02  0.10566000000E+00 0.  1.
         14    1    4    4    0    0 -0.69813554621E+01 -0.15223095811E+02  0.48193463299E+03  0.48222554105E+03  0.00000000000E+00 0. -1.
<mgrwt>
<rscale>  0 0.80085633E+02</rscale>
<asrwt>0</asrwt>
<pdfrwt beam="1">  1        2 0.14942688E+00 0.80085633E+02</pdfrwt>
<pdfrwt beam="2">  1       -1 0.25397666E-03 0.80085633E+02</pdfrwt>
<totfact> 0.35080239E+05</totfact>
</mgrwt>
</event>
<event>
 8    1  0.2603554E-020  0.8256444E+02  0.7818608E-02  0.1321928E+00
          2   -1    0    0  501    0  0.00000000000E+00  0.00000000000E+00  0.22793700122E+03  0.22793700124E+03  0.25500000000E-02 0. -1.
         -1   -1    0    0    0  501 -0.00000000000E+00 -0.00000000000E+00 -0.74767222345E+01  0.74767239332E+01  0.50400000000E-02 0.  1.
         24    2    1    2    0    0  0.00000000000E+00  0.71054273576E-14  0.22046027899E+03  0.23541372517E+03  0.82564443842E+02 0.  0.
         66    2    3    3    0    0 -0.13075997930E+02 -0.35098339851E+02  0.15962591067E+03  0.16397349340E+03  0.19999998935E+01 0.  0.
        -13    1    3    3    0    0  0.13075997930E+02  0.35098339851E+02  0.60834368320E+02  0.71440231768E+02  0.10566000000E+00 0.  1.
         13    1    4    4    0    0 -0.24042034335E+01 -0.53504121612E+01  0.25852647485E+02  0.26509953799E+02  0.10566000000E+00 0. -1.
        -13    1    4    4    0    0 -0.68888487870E+01 -0.17115039431E+02  0.77540578912E+02  0.79705290630E+02  0.10566000000E+00 0.  1.
         14    1    4    4    0    0 -0.37829457099E+01 -0.12632888258E+02  0.56232684269E+02  0.57758248971E+02  0.00000000000E+00 0. -1.
<mgrwt>
<rscale>  0 0.82564444E+02</rscale>
<asrwt>0</asrwt>
<pdfrwt beam="1">  1        2 0.35067234E-01 0.82564444E+02</pdfrwt>
<pdfrwt beam="2">  1       -1 0.11502650E-02 0.82564444E+02</pdfrwt>
<totfact> 0.21251092E+05</totfact>
</mgrwt>
</event>
<event>
 8    1  0.2603554E-020  0.7863436E+02  0.7818608E-02  0.1332972E+00
          2   -1    0    0  501    0  0.00000000000E+00  0.00000000000E+00  0.21234515905E+04  0.21234515905E+04  0.25500000000E-02 0. -1.
         -1   -1    0    0    0  501 -0.00000000000E+00 -0.00000000000E+00 -0.72797616801E+00  0.72799361452E+00  0.50400000000E-02 0.  1.
         24    2    1    2    0    0  0.00000000000E+00 -0.17763568394E-14  0.21227236143E+04  0.21241795841E+04  0.78634361018E+02 0.  0.
         66    2    3    3    0    0  0.15296678450E+01  0.15851240509E+02  0.20323623096E+04  0.20324256835E+04  0.20000059784E+01 0.  0.
        -13    1    3    3    0    0 -0.15296678450E+01 -0.15851240509E+02  0.90361304741E+02  0.91753900560E+02  0.10566000000E+00 0.  1.
         13    1    4    4    0    0  0.52893075715E+00  0.75518091495E+01  0.93188840546E+03  0.93191916011E+03  0.10566000000E+00 0. -1.
        -13    1    4    4    0    0  0.10649326740E+00  0.18230234366E+01  0.17611580052E+03  0.17612529947E+03  0.10566000000E+00 0.  1.
        -14    1    4    4    0    0  0.89424382043E+00  0.64764079231E+01  0.92435810360E+03  0.92438122397E+03  0.00000000000E+00 0.  1.
<mgrwt>
<rscale>  0 0.78634361E+02</rscale>
<asrwt>0</asrwt>
<pdfrwt beam="1">  1        2 0.32668925E+00 0.78634361E+02</pdfrwt>
<pdfrwt beam="2">  1       -1 0.11199617E-03 0.78634361E+02</pdfrwt>
<totfact> 0.27339227E+05</totfact>
</mgrwt>
</event>
<event>
 8    1  0.2603554E-020  0.7942218E+02  0.7818608E-02  0.1330699E+00
          2   -1    0    0  501    0  0.00000000000E+00  0.00000000000E+00  0.10418582919E+04  0.10418582919E+04  0.25500000000E-02 0. -1.
         -1   -1    0    0    0  501 -0.00000000000E+00 -0.00000000000E+00 -0.15136091602E+01  0.15136175512E+01  0.50400000000E-02 0.  1.
         24    2    1    2    0    0  0.35527136788E-14  0.17763568394E-14  0.10403446828E+04  0.10433719095E+04  0.79422179104E+02 0.  0.
         66    2    3    3    0    0 -0.18417395121E+02  0.13056521425E+02  0.94927856480E+03  0.94954908603E+03  0.19999994290E+01 0.  0.
        -13    1    3    3    0    0  0.18417395121E+02 -0.13056521425E+02  0.91066117980E+02  0.93822823464E+02  0.10566000000E+00 0.  1.
         13    1    4    4    0    0 -0.50284951389E+01  0.40297461878E+01  0.25007514424E+03  0.25015817706E+03  0.10566000000E+00 0. -1.
        -13    1    4    4    0    0 -0.87201795945E+01  0.53012310033E+01  0.42659421996E+03  0.42671628074E+03  0.10566000000E+00 0.  1.
         14    1    4    4    0    0 -0.46687203880E+01  0.37255442342E+01  0.27260920060E+03  0.27267462824E+03  0.00000000000E+00 0. -1.
<mgrwt>
<rscale>  0 0.79422179E+02</rscale>
<asrwt>0</asrwt>
<pdfrwt beam="1">  1        2 0.16028658E+00 0.79422179E+02</pdfrwt>
<pdfrwt beam="2">  1       -1 0.23286259E-03 0.79422179E+02</pdfrwt>
<totfact> 0.35940026E+05</totfact>
</mgrwt>
</event>
<event>
 8    1  0.2603554E-020  0.8001918E+02  0.7818608E-02  0.1328997E+00
          2   -1    0    0  501    0  0.00000000000E+00  0.00000000000E+00  0.46740396634E+03  0.46740396634E+03  0.25500000000E-02 0. -1.
         -1   -1    0    0    0  501 -0.00000000000E+00 -0.00000000000E+00 -0.34248024595E+01  0.34248061679E+01  0.50400000000E-02 0.  1.
         24    2    1    2    0    0  0.71054273576E-14  0.00000000000E+00  0.46397916388E+03  0.47082877251E+03  0.80019175905E+02 0.  0.
         66    2    3    3    0    0  0.24963863484E+02 -0.45507794990E+01  0.41395271307E+03  0.41473455696E+03  0.20000007471E+01 0.  0.
        -13    1    3    3    0    0 -0.24963863484E+02  0.45507794990E+01  0.50026450802E+02  0.56094215549E+02  0.10566000000E+00 0.  1.
         13    1    4    4    0    0  0.37964337004E+01 -0.54793736206E+00  0.56773617349E+02  0.56903145213E+02  0.10566000000E+00 0. -1.
        -13    1    4    4    0    0  0.82860369929E+01 -0.16371110817E+01  0.12801166256E+03  0.12829004426E+03  0.10566000000E+00 0.  1.
         14    1    4    4    0    0  0.12881392791E+02 -0.23657310552E+01  0.22916743317E+03  0.22954136749E+03  0.00000000000E+00 0. -1.
<mgrwt>
<rscale>  0 0.80019176E+02</rscale>
<asrwt>0</asrwt>
<pdfrwt beam="1">  1        2 0.71908357E-01 0.80019176E+02</pdfrwt>
<pdfrwt beam="2">  1       -1 0.52689258E-03 0.80019176E+02</pdfrwt>
<totfact> 0.29773843E+05</totfact>
</mgrwt>
</event>
<event>
 8    1  0.2603554E-020  0.8026088E+02  0.7818608E-02  0.1328313E+00
          2   -1    0    0  501    0  0.00000000000E+00  0.00000000000E+00  0.30296913135E+03  0.30296913136E+03  0.25500000000E-02 0. -1.
         -1   -1    0    0    0  501 -0.00000000000E+00 -0.00000000000E+00 -0.53155636254E+01  0.53155660148E+01  0.50400000000E-02 0.  1.
         24    2    1    2    0    0  0.35527136788E-14  0.00000000000E+00  0.29765356772E+03  0.30828469738E+03  0.80260876252E+02 0.  0.
         66    2    3    3    0    0  0.30766104060E+02 -0.24953983995E+02  0.17296534808E+03  0.17745496926E+03  0.20000007259E+01 0.  0.
        -13    1    3    3    0    0 -0.30766104060E+02  0.24953983995E+02  0.12468821965E+03  0.13082972812E+03  0.10566000000E+00 0.  1.
         13    1    4    4    0    0  0.19459641449E+02 -0.15456067095E+02  0.10896483492E+03  0.11176275797E+03  0.10566000000E+00 0. -1.
        -13    1    4    4    0    0  0.75954449557E+01 -0.56710143349E+01  0.40461368933E+02  0.41557005758E+02  0.10566000000E+00 0.  1.
        -14    1    4    4    0    0  0.37110176552E+01 -0.38269025645E+01  0.23539144226E+02  0.24135205534E+02  0.00000000000E+00 0.  1.
<mgrwt>
<rscale>  0 0.80260876E+02</rscale>
<asrwt>0</asrwt>
<pdfrwt beam="1">  1        2 0.46610645E-01 0.80260876E+02</pdfrwt>
<pdfrwt beam="2">  1       -1 0.81777904E-03 0.80260876E+02</pdfrwt>
<totfact> 0.25368075E+05</totfact>
</mgrwt>
</event>
<event>
 8    1  0.2603554E-020  0.7939965E+02  0.7818608E-02  0.1330764E+00
         -1   -1    0    0    0  501 -0.00000000000E+00  0.00000000000E+00  0.46148768973E+01  0.46148796495E+01  0.50400000000E-02 0.  1.
          2   -1    0    0  501    0  0.00000000000E+00 -0.00000000000E+00 -0.34152061660E+03  0.34152061661E+03  0.25500000000E-02 0. -1.
         24    2    1    2    0    0  0.00000000000E+00  0.88817841970E-15 -0.33690573971E+03  0.34613549626E+03  0.79399649407E+02 0.  0.
         66    2    3    3    0    0  0.22553666471E+02  0.32873299296E+01 -0.31012929962E+03  0.31097211592E+03  0.19999971094E+01 0.  0.
        -13    1    3    3    0    0 -0.22553666471E+02 -0.32873299296E+01 -0.26776440088E+02  0.35163380343E+02  0.10566000000E+00 0.  1.
         13    1    4    4    0    0  0.17791741098E+02  0.28353325479E+01 -0.23553393773E+03  0.23622199759E+03  0.10566000000E+00 0. -1.
        -13    1    4    4    0    0  0.55419211886E+00  0.13958096326E+00 -0.10432555910E+02  0.10448731914E+02  0.10566000000E+00 0.  1.
         14    1    4    4    0    0  0.42077332540E+01  0.31241641839E+00 -0.64162805981E+02  0.64301386412E+02  0.00000000000E+00 0. -1.
<mgrwt>
<rscale>  0 0.79399649E+02</rscale>
<asrwt>0</asrwt>
<pdfrwt beam="1">  1        2 0.52541613E-01 0.79399649E+02</pdfrwt>
<pdfrwt beam="2">  1       -1 0.70998155E-03 0.79399649E+02</pdfrwt>
<totfact> 0.27245919E+05</totfact>
</mgrwt>
</event>
<event>
 8    1  0.2603554E-020  0.8038219E+02  0.7818608E-02  0.1327970E+00
         -1   -1    0    0    0  501 -0.00000000000E+00  0.00000000000E+00  0.16580797216E+02  0.16580797982E+02  0.50400000000E-02 0.  1.
          2   -1    0    0  501    0  0.00000000000E+00 -0.00000000000E+00 -0.97421364442E+02  0.97421364476E+02  0.25500000000E-02 0. -1.
         24    2    1    2    0    0  0.71054273576E-14  0.00000000000E+00 -0.80840567226E+02  0.11400216246E+03  0.80382185438E+02 0.  0.
         66    2    3    3    0    0  0.34658508513E+02  0.18047444403E+02 -0.27262627856E+02  0.47688293524E+02  0.19999999528E+01 0.  0.
        -13    1    3    3    0    0 -0.34658508513E+02 -0.18047444403E+02 -0.53577939370E+02  0.66313868934E+02  0.10566000000E+00 0.  1.
         13    1    4    4    0    0  0.14509328645E+02  0.72388947020E+01 -0.10369669614E+02  0.19247426482E+02  0.10566000000E+00 0. -1.
        -13    1    4    4    0    0  0.98443083356E+01  0.48464193403E+01 -0.79197454953E+01  0.13532616886E+02  0.10566000000E+00 0.  1.
        -14    1    4    4    0    0  0.10304871532E+02  0.59621303610E+01 -0.89732127464E+01  0.14908250157E+02  0.00000000000E+00 0.  1.
<mgrwt>
<rscale>  0 0.80382185E+02</rscale>
<asrwt>0</asrwt>
<pdfrwt beam="1">  1        2 0.14987902E-01 0.80382185E+02</pdfrwt>
<pdfrwt beam="2">  1       -1 0.25508920E-02 0.80382185E+02</pdfrwt>
<totfact> 0.17373881E+05</totfact>
</mgrwt>
</event>
<event>
 8    1  0.2603554E-020  0.8042482E+02  0.7818608E-02  0.1327850E+00
         -1   -1    0    0    0  501 -0.00000000000E+00  0.00000000000E+00  0.37119472250E+02  0.37119472592E+02  0.50400000000E-02 0.  1.
          2   -1    0    0  501    0  0.00000000000E+00 -0.00000000000E+00 -0.43563066989E+02  0.43563067063E+02  0.25500000000E-02 0. -1.
         24    2    1    2    0    0  0.00000000000E+00  0.17763568394E-14 -0.64435947383E+01  0.80682539656E+02  0.80424823855E+02 0.  0.
         66    2    3    3    0    0 -0.37190091383E+02  0.10201308573E+02 -0.14567693718E+02  0.41272112838E+02  0.20000010604E+01 0.  0.
        -13    1    3    3    0    0  0.37190091383E+02 -0.10201308573E+02  0.81240989793E+01  0.39410426817E+02  0.10566000000E+00 0.  1.
         13    1    4    4    0    0 -0.27795011640E+02  0.71697184442E+01 -0.10899072161E+02  0.30704535050E+02  0.10566000000E+00 0. -1.
        -13    1    4    4    0    0 -0.58128352443E+01  0.20033387259E+01 -0.18560294598E+01  0.64232724541E+01  0.10566000000E+00 0.  1.
        -14    1    4    4    0    0 -0.35822444981E+01  0.10282514029E+01 -0.18125920967E+01  0.41443053339E+01  0.00000000000E+00 0.  1.
<mgrwt>
<rscale>  0 0.80424824E+02</rscale>
<asrwt>0</asrwt>
<pdfrwt beam="1">  1        2 0.67020103E-02 0.80424824E+02</pdfrwt>
<pdfrwt beam="2">  1       -1 0.57106881E-02 0.80424824E+02</pdfrwt>
<totfact> 0.14299610E+05</totfact>
</mgrwt>
</event>
<event>
 8    1  0.2603554E-020  0.7910601E+02  0.7818608E-02  0.1331608E+00
         -1   -1    0    0    0  501 -0.00000000000E+00  0.00000000000E+00  0.14660150394E+01  0.14660237028E+01  0.50400000000E-02 0.  1.
          2   -1    0    0  501    0  0.00000000000E+00 -0.00000000000E+00 -0.10671346107E+04  0.10671346107E+04  0.25500000000E-02 0. -1.
         24    2    1    2    0    0  0.00000000000E+00 -0.35527136788E-14 -0.10656685957E+04  0.10686006344E+04  0.79106005305E+02 0.  0.
         66    2    3    3    0    0 -0.60315973925E+01 -0.27483571560E+02 -0.90819094454E+03  0.90862892241E+03  0.20000050276E+01 0.  0.
        -13    1    3    3    0    0  0.60315973925E+01  0.27483571560E+02 -0.15747765111E+03  0.15997171199E+03  0.10566000000E+00 0.  1.
         13    1    4    4    0    0 -0.26840241525E+01 -0.11155584017E+02 -0.39161526774E+03  0.39178333315E+03  0.10566000000E+00 0. -1.
        -13    1    4    4    0    0 -0.10511217636E+01 -0.76664407787E+01 -0.24296318505E+03  0.24308640362E+03  0.10566000000E+00 0. -1.
         14    1    4    4    0    0 -0.22964514764E+01 -0.86615467637E+01 -0.27361249175E+03  0.27375918564E+03  0.00000000000E+00 0. -1.
<mgrwt>
<rscale>  0 0.79106005E+02</rscale>
<asrwt>0</asrwt>
<pdfrwt beam="1">  1        2 0.16417393E+00 0.79106005E+02</pdfrwt>
<pdfrwt beam="2">  1       -1 0.22554230E-03 0.79106005E+02</pdfrwt>
<totfact> 0.36315977E+05</totfact>
</mgrwt>
</event>
<event>
 8    1  0.2603554E-020  0.8653157E+02  0.7818608E-02  0.1311475E+00
          2   -1    0    0  501    0  0.00000000000E+00  0.00000000000E+00  0.45002197813E+03  0.45002197814E+03  0.25500000000E-02 0. -1.
         -1   -1    0    0    0  501 -0.00000000000E+00 -0.00000000000E+00 -0.41596359505E+01  0.41596390039E+01  0.50400000000E-02 0.  1.
         24    2    1    2    0    0  0.00000000000E+00 -0.35527136788E-14  0.44586234218E+03  0.45418161714E+03  0.86531573285E+02 0.  0.
         66    2    3    3    0    0 -0.19715749064E+02 -0.27051926301E+02  0.36673560368E+03  0.36826555701E+03  0.20000001331E+01 0.  0.
        -13    1    3    3    0    0  0.19715749064E+02  0.27051926301E+02  0.79126738501E+02  0.85916060126E+02  0.10566000000E+00 0.  1.
         13    1    4    4    0    0 -0.48424634641E+01 -0.64781737441E+01  0.83291272546E+02  0.83683113194E+02  0.10566000000E+00 0. -1.
        -13    1    4    4    0    0 -0.85255919741E+01 -0.12759219885E+02  0.17546192154E+03  0.17613171346E+03  0.10566000000E+00 0.  1.
        -14    1    4    4    0    0 -0.63476936258E+01 -0.78145326715E+01  0.10798240959E+03  0.10845073036E+03  0.00000000000E+00 0.  1.
<mgrwt>
<rscale>  0 0.86531573E+02</rscale>
<asrwt>0</asrwt>
<pdfrwt beam="1">  1        2 0.69234168E-01 0.86531573E+02</pdfrwt>
<pdfrwt beam="2">  1       -1 0.63994407E-03 0.86531573E+02</pdfrwt>
<totfact> 0.23953190E+05</totfact>
</mgrwt>
</event>
<event>
 8    1  0.2603554E-020  0.7824522E+02  0.7818608E-02  0.1334106E+00
         -1   -1    0    0    0  501 -0.00000000000E+00  0.00000000000E+00  0.12106934489E+02  0.12106935538E+02  0.50400000000E-02 0.  1.
          2   -1    0    0  501    0  0.00000000000E+00 -0.00000000000E+00 -0.12642164463E+03  0.12642164465E+03  0.25500000000E-02 0. -1.
         24    2    1    2    0    0  0.00000000000E+00  0.00000000000E+00 -0.11431471014E+03  0.13852858019E+03  0.78245220785E+02 0.  0.
         66    2    3    3    0    0 -0.60149263970E+01  0.35742692970E+02 -0.83145562220E+02  0.90724329477E+02  0.20000004628E+01 0.  0.
        -13    1    3    3    0    0  0.60149263970E+01 -0.35742692970E+02 -0.31169147916E+02  0.47804250712E+02  0.10566000000E+00 0.  1.
         13    1    4    4    0    0 -0.36973602499E+01  0.17698994666E+02 -0.41761916826E+02  0.45508172299E+02  0.10566000000E+00 0. -1.
        -13    1    4    4    0    0 -0.11241412271E+00  0.34590113953E+00 -0.10156856172E+01  0.10840045396E+01  0.10566000000E+00 0.  1.
         14    1    4    4    0    0 -0.22051520244E+01  0.17697797165E+02 -0.40367959777E+02  0.44132152638E+02  0.00000000000E+00 0. -1.
<mgrwt>
<rscale>  0 0.78245221E+02</rscale>
<asrwt>0</asrwt>
<pdfrwt beam="1">  1        2 0.19449483E-01 0.78245221E+02</pdfrwt>
<pdfrwt beam="2">  1       -1 0.18626055E-02 0.78245221E+02</pdfrwt>
<totfact> 0.20136996E+05</totfact>
</mgrwt>
</event>
<event>
 8    1  0.2603554E-020  0.7872499E+02  0.7818608E-02  0.1332709E+00
          2   -1    0    0  501    0  0.00000000000E+00  0.00000000000E+00  0.11148327001E+03  0.11148327004E+03  0.25500000000E-02 0. -1.
         -1   -1    0    0    0  501 -0.00000000000E+00 -0.00000000000E+00 -0.13898102843E+02  0.13898103757E+02  0.50400000000E-02 0.  1.
         24    2    1    2    0    0  0.00000000000E+00  0.00000000000E+00  0.97585167170E+02  0.12538137380E+03  0.78724989959E+02 0.  0.
         66    2    3    3    0    0  0.22354771123E+01 -0.21794570132E+02  0.10085761343E+03  0.10322915690E+03  0.20000005251E+01 0.  0.
        -13    1    3    3    0    0 -0.22354771123E+01  0.21794570132E+02 -0.32724462578E+01  0.22152216902E+02  0.10566000000E+00 0.  1.
         13    1    4    4    0    0  0.76301516210E+00 -0.47801526874E+01  0.24539056406E+02  0.25012167143E+02  0.10566000000E+00 0. -1.
        -13    1    4    4    0    0  0.10736231881E+01 -0.53877148733E+01  0.24490857353E+02  0.25099669246E+02  0.10566000000E+00 0.  1.
         14    1    4    4    0    0  0.39883876218E+00 -0.11626702571E+02  0.51827699668E+02  0.53117320508E+02  0.00000000000E+00 0. -1.
<mgrwt>
<rscale>  0 0.78724990E+02</rscale>
<asrwt>0</asrwt>
<pdfrwt beam="1">  1        2 0.17151272E-01 0.78724990E+02</pdfrwt>
<pdfrwt beam="2">  1       -1 0.21381698E-02 0.78724990E+02</pdfrwt>
<totfact> 0.19085957E+05</totfact>
</mgrwt>
</event>
<event>
 8    1  0.2603554E-020  0.7992386E+02  0.7818608E-02  0.1329268E+00
          2   -1    0    0  501    0  0.00000000000E+00  0.00000000000E+00  0.52529468167E+02  0.52529468229E+02  0.25500000000E-02 0. -1.
         -1   -1    0    0    0  501 -0.00000000000E+00 -0.00000000000E+00 -0.30401143879E+02  0.30401144297E+02  0.50400000000E-02 0.  1.
         24    2    1    2    0    0  0.00000000000E+00  0.35527136788E-14  0.22128324288E+02  0.82930612526E+02  0.79923862258E+02 0.  0.
         66    2    3    3    0    0  0.35311062325E+02 -0.16770832164E+02  0.25892611284E+01  0.39228002911E+02  0.20000013102E+01 0.  0.
        -13    1    3    3    0    0 -0.35311062325E+02  0.16770832164E+02  0.19539063160E+02  0.43702609615E+02  0.10566000000E+00 0.  1.
         13    1    4    4    0    0  0.13610757788E+02 -0.66071212722E+01  0.17467577127E+01  0.15230532020E+02  0.10566000000E+00 0. -1.
        -13    1    4    4    0    0  0.19729502271E+02 -0.93841204016E+01  0.52238300882E+00  0.21854039069E+02  0.10566000000E+00 0.  1.
        -14    1    4    4    0    0  0.19708022660E+01 -0.77959048995E+00  0.32012040693E+00  0.21434318227E+01  0.00000000000E+00 0.  1.
<mgrwt>
<rscale>  0 0.79923862E+02</rscale>
<asrwt>0</asrwt>
<pdfrwt beam="1">  1        2 0.80814566E-02 0.79923862E+02</pdfrwt>
<pdfrwt beam="2">  1       -1 0.46770991E-02 0.79923862E+02</pdfrwt>
<totfact> 0.15144991E+05</totfact>
</mgrwt>
</event>
<event>
 8    1  0.2603554E-020  0.7969988E+02  0.7818608E-02  0.1329905E+00
         -1   -1    0    0    0  501 -0.00000000000E+00  0.00000000000E+00  0.14861419554E+03  0.14861419563E+03  0.50400000000E-02 0.  1.
          2   -1    0    0  501    0  0.00000000000E+00 -0.00000000000E+00 -0.10685505163E+02  0.10685505467E+02  0.25500000000E-02 0. -1.
         24    2    1    2    0    0 -0.35527136788E-14  0.00000000000E+00  0.13792869038E+03  0.15929970110E+03  0.79699881676E+02 0.  0.
         66    2    3    3    0    0  0.14565144845E+02  0.30715159834E+02  0.27539201800E+02  0.43794658603E+02  0.19999996129E+01 0.  0.
        -13    1    3    3    0    0 -0.14565144845E+02 -0.30715159834E+02  0.11038948858E+03  0.11550504249E+03  0.10566000000E+00 0.  1.
         13    1    4    4    0    0  0.75423780269E+00  0.17163332148E+01  0.12387736270E+01  0.22495329519E+01  0.10566000000E+00 0. -1.
        -13    1    4    4    0    0  0.14124803241E+01  0.40029494113E+01  0.30926012698E+01  0.52530040267E+01  0.10566000000E+00 0.  1.
        -14    1    4    4    0    0  0.12398426719E+02  0.24995877208E+02  0.23207826903E+02  0.36292121625E+02  0.00000000000E+00 0.  1.
<mgrwt>
<rscale>  0 0.79699882E+02</rscale>
<asrwt>0</asrwt>
<pdfrwt beam="1">  1        2 0.16439241E-02 0.79699882E+02</pdfrwt>
<pdfrwt beam="2">  1       -1 0.22863719E-01 0.79699882E+02</pdfrwt>
<totfact> 0.10915926E+05</totfact>
</mgrwt>
</event>
<event>
 8    1  0.2603554E-020  0.8014788E+02  0.7818608E-02  0.1328632E+00
          2   -1    0    0  501    0  0.00000000000E+00  0.00000000000E+00  0.84930484923E+03  0.84930484923E+03  0.25500000000E-02 0. -1.
         -1   -1    0    0    0  501 -0.00000000000E+00 -0.00000000000E+00 -0.18908616636E+01  0.18908683805E+01  0.50400000000E-02 0.  1.
         24    2    1    2    0    0 -0.35527136788E-14  0.00000000000E+00  0.84741398756E+03  0.85119571761E+03  0.80147884325E+02 0.  0.
         66    2    3    3    0    0  0.31881587983E+02 -0.47094036681E+01  0.67647948558E+03  0.67724966486E+03  0.20000020030E+01 0.  0.
        -13    1    3    3    0    0 -0.31881587983E+02  0.47094036681E+01  0.17093450199E+03  0.17394605275E+03  0.10566000000E+00 0.  1.
         13    1    4    4    0    0  0.20018141507E+02 -0.31246276149E+01  0.42886287548E+03  0.42934120046E+03  0.10566000000E+00 0. -1.
        -13    1    4    4    0    0  0.46074397513E+01 -0.84879206286E+00  0.10769729517E+03  0.10779919990E+03  0.10566000000E+00 0.  1.
        -14    1    4    4    0    0  0.72560067251E+01 -0.73598399032E+00  0.13991931493E+03  0.14010926449E+03  0.00000000000E+00 0.  1.
<mgrwt>
<rscale>  0 0.80147884E+02</rscale>
<asrwt>0</asrwt>
<pdfrwt beam="1">  1        2 0.13066216E+00 0.80147884E+02</pdfrwt>
<pdfrwt beam="2">  1       -1 0.29090260E-03 0.80147884E+02</pdfrwt>
<totfact> 0.34525245E+05</totfact>
</mgrwt>
</event>
<event>
 8    1  0.2603554E-020  0.7924964E+02  0.7818608E-02  0.1331194E+00
         -1   -1    0    0    0  501 -0.00000000000E+00  0.00000000000E+00  0.77967366950E+01  0.77967383240E+01  0.50400000000E-02 0.  1.
          2   -1    0    0  501    0  0.00000000000E+00 -0.00000000000E+00 -0.20138247088E+03  0.20138247090E+03  0.25500000000E-02 0. -1.
         24    2    1    2    0    0  0.00000000000E+00 -0.88817841970E-15 -0.19358573419E+03  0.20917920922E+03  0.79249637791E+02 0.  0.
         66    2    3    3    0    0  0.19312016560E+02  0.58660967226E+01 -0.18678168133E+03  0.18787964646E+03  0.19999997969E+01 0.  0.
        -13    1    3    3    0    0 -0.19312016560E+02 -0.58660967226E+01 -0.68040528515E+01  0.21299562756E+02  0.10566000000E+00 0.  1.
         13    1    4    4    0    0  0.10077520613E+01  0.28907154810E+00 -0.65591584027E+01  0.66432559460E+01  0.10566000000E+00 0. -1.
        -13    1    4    4    0    0  0.37420759785E+01  0.11174444489E+01 -0.38794753144E+02  0.38990971394E+02  0.10566000000E+00 0.  1.
         14    1    4    4    0    0  0.14562188520E+02  0.44595807256E+01 -0.14142776979E+03  0.14224541912E+03  0.00000000000E+00 0. -1.
<mgrwt>
<rscale>  0 0.79249638E+02</rscale>
<asrwt>0</asrwt>
<pdfrwt beam="1">  1        2 0.30981915E-01 0.79249638E+02</pdfrwt>
<pdfrwt beam="2">  1       -1 0.11994982E-02 0.79249638E+02</pdfrwt>
<totfact> 0.22667804E+05</totfact>
</mgrwt>
</event>
<event>
 8    1  0.2603554E-020  0.8267450E+02  0.7818608E-02  0.1321628E+00
          2   -1    0    0  501    0  0.00000000000E+00  0.00000000000E+00  0.95533634604E+02  0.95533634638E+02  0.25500000000E-02 0. -1.
         -1   -1    0    0    0  501 -0.00000000000E+00 -0.00000000000E+00 -0.17886560929E+02  0.17886561639E+02  0.50400000000E-02 0.  1.
         24    2    1    2    0    0  0.00000000000E+00 -0.17763568394E-14  0.77647073675E+02  0.11342019628E+03  0.82674499534E+02 0.  0.
         66    2    3    3    0    0  0.39418272897E+02 -0.99123847175E+01  0.48993312837E+02  0.63689875716E+02  0.19999892498E+01 0.  0.
        -13    1    3    3    0    0 -0.39418272897E+02  0.99123847175E+01  0.28653760838E+02  0.49730320561E+02  0.10566000000E+00 0.  1.
         13    1    4    4    0    0  0.26407711618E+02 -0.64119279873E+01  0.33515909528E+02  0.43148666363E+02  0.10566000000E+00 0. -1.
        -13    1    4    4    0    0  0.68198867626E+01 -0.16209965180E+01  0.74256752726E+01  0.10212262357E+02  0.10566000000E+00 0.  1.
        -14    1    4    4    0    0  0.61906745156E+01 -0.18794602122E+01  0.80517280367E+01  0.10328946995E+02  0.00000000000E+00 0.  1.
<mgrwt>
<rscale>  0 0.82674500E+02</rscale>
<asrwt>0</asrwt>
<pdfrwt beam="1">  1        2 0.14697482E-01 0.82674500E+02</pdfrwt>
<pdfrwt beam="2">  1       -1 0.27517787E-02 0.82674500E+02</pdfrwt>
<totfact> 0.16022141E+05</totfact>
</mgrwt>
</event>
<event>
 8    1  0.2603554E-020  0.7356653E+02  0.7818608E-02  0.1348368E+00
         -1   -1    0    0    0  501 -0.00000000000E+00  0.00000000000E+00  0.16276051376E+02  0.16276052157E+02  0.50400000000E-02 0.  1.
          2   -1    0    0  501    0  0.00000000000E+00 -0.00000000000E+00 -0.83128791592E+02  0.83128791631E+02  0.25500000000E-02 0. -1.
         24    2    1    2    0    0  0.35527136788E-14  0.35527136788E-14 -0.66852740216E+02  0.99404843788E+02  0.73566528354E+02 0.  0.
         66    2    3    3    0    0  0.25315815237E+02  0.13617286973E+02 -0.64402074828E+02  0.70554576363E+02  0.19999994842E+01 0.  0.
        -13    1    3    3    0    0 -0.25315815237E+02 -0.13617286973E+02 -0.24506653874E+01  0.28850267425E+02  0.10566000000E+00 0.  1.
         13    1    4    4    0    0  0.19907802043E+02  0.10776524343E+02 -0.51035008881E+02  0.55830433946E+02  0.10566000000E+00 0. -1.
        -13    1    4    4    0    0  0.17815049821E+01  0.49352538325E+00 -0.42171987805E+01  0.46057851551E+01  0.10566000000E+00 0.  1.
        -14    1    4    4    0    0  0.36265082122E+01  0.23472372466E+01 -0.91498671670E+01  0.10118357262E+02  0.00000000000E+00 0.  1.
<mgrwt>
<rscale>  0 0.73566528E+02</rscale>
<asrwt>0</asrwt>
<pdfrwt beam="1">  1        2 0.12789045E-01 0.73566528E+02</pdfrwt>
<pdfrwt beam="2">  1       -1 0.25040080E-02 0.73566528E+02</pdfrwt>
<totfact> 0.21104751E+05</totfact>
</mgrwt>
</event>
<event>
 8    1  0.2603554E-020  0.7872411E+02  0.7818608E-02  0.1332712E+00
         -1   -1    0    0    0  501 -0.00000000000E+00  0.00000000000E+00  0.12435005300E+01  0.12435107437E+01  0.50400000000E-02 0.  1.
          2   -1    0    0  501    0  0.00000000000E+00 -0.00000000000E+00 -0.12459705020E+04  0.12459705020E+04  0.25500000000E-02 0. -1.
         24    2    1    2    0    0  0.00000000000E+00 -0.88817841970E-15 -0.12447270015E+04  0.12472140127E+04  0.78724109408E+02 0.  0.
         66    2    3    3    0    0 -0.11948555004E+02 -0.62545932870E+01 -0.12081949919E+04  0.12082719173E+04  0.19999974493E+01 0.  0.
        -13    1    3    3    0    0  0.11948555004E+02  0.62545932870E+01 -0.36532009602E+02  0.38942095391E+02  0.10566000000E+00 0.  1.
         13    1    4    4    0    0 -0.28973332256E+01 -0.11220373330E+01 -0.25775489423E+03  0.25777364134E+03  0.10566000000E+00 0. -1.
        -13    1    4    4    0    0 -0.60354609061E+01 -0.39247264728E+01 -0.60277451199E+03  0.60281751280E+03  0.10566000000E+00 0.  1.
        -14    1    4    4    0    0 -0.30157608725E+01 -0.12078294812E+01 -0.34766558563E+03  0.34768076320E+03  0.00000000000E+00 0.  1.
<mgrwt>
<rscale>  0 0.78724109E+02</rscale>
<asrwt>0</asrwt>
<pdfrwt beam="1">  1        2 0.19168677E+00 0.78724109E+02</pdfrwt>
<pdfrwt beam="2">  1       -1 0.19130956E-03 0.78724109E+02</pdfrwt>
<totfact> 0.36353746E+05</totfact>
</mgrwt>
</event>
<event>
 8    1  0.2603554E-020  0.7835928E+02  0.7818608E-02  0.1333773E+00
          2   -1    0    0  501    0  0.00000000000E+00  0.00000000000E+00  0.25810808817E+02  0.25810808943E+02  0.25500000000E-02 0. -1.
         -1   -1    0    0    0  501 -0.00000000000E+00 -0.00000000000E+00 -0.59472914374E+02  0.59472914588E+02  0.50400000000E-02 0.  1.
         24    2    1    2    0    0  0.35527136788E-14  0.00000000000E+00 -0.33662105557E+02  0.85283723530E+02  0.78359276085E+02 0.  0.
         66    2    3    3    0    0 -0.26837551441E+02 -0.10413864330E+02  0.12042575763E+02  0.31268616419E+02  0.20000010282E+01 0.  0.
        -13    1    3    3    0    0  0.26837551441E+02  0.10413864330E+02 -0.45704681320E+02  0.54015107111E+02  0.10566000000E+00 0.  1.
         13    1    4    4    0    0 -0.96525536925E+01 -0.32577435706E+01  0.35956065264E+01  0.10803899124E+02  0.10566000000E+00 0.  1.
        -13    1    4    4    0    0 -0.11485313718E+02 -0.43819075673E+01  0.58532907851E+01  0.13615642555E+02  0.10566000000E+00 0. -1.
        -14    1    4    4    0    0 -0.56996840308E+01 -0.27742131920E+01  0.25936784510E+01  0.68490747399E+01  0.00000000000E+00 0.  1.
<mgrwt>
<rscale>  0 0.78359276E+02</rscale>
<asrwt>0</asrwt>
<pdfrwt beam="1">  1        2 0.39708937E-02 0.78359276E+02</pdfrwt>
<pdfrwt beam="2">  1       -1 0.91496792E-02 0.78359276E+02</pdfrwt>
<totfact> 0.13848743E+05</totfact>
</mgrwt>
</event>
<event>
 8    1  0.2603554E-020  0.8363573E+02  0.7818608E-02  0.1319039E+00
         -1   -1    0    0    0  501 -0.00000000000E+00  0.00000000000E+00  0.40338485222E+01  0.40338516708E+01  0.50400000000E-02 0.  1.
          2   -1    0    0  501    0  0.00000000000E+00 -0.00000000000E+00 -0.43351478949E+03  0.43351478950E+03  0.25500000000E-02 0. -1.
         24    2    1    2    0    0  0.44408920985E-15  0.00000000000E+00 -0.42948094097E+03  0.43754864117E+03  0.83635726420E+02 0.  0.
         66    2    3    3    0    0 -0.30935659665E+01 -0.40533453409E+02 -0.26563847083E+03  0.26873840101E+03  0.19999999411E+01 0.  0.
        -13    1    3    3    0    0  0.30935659665E+01  0.40533453409E+02 -0.16384247015E+03  0.16881024016E+03  0.10566000000E+00 0.  1.
         13    1    4    4    0    0 -0.10577224341E+00 -0.10535560783E+02 -0.69008807767E+02  0.69808566396E+02  0.10566000000E+00 0. -1.
        -13    1    4    4    0    0 -0.33773983829E+00 -0.75940635745E+01 -0.50419323342E+02  0.50989245926E+02  0.10566000000E+00 0.  1.
         14    1    4    4    0    0 -0.26500538848E+01 -0.22403829052E+02 -0.14621033972E+03  0.14794058869E+03  0.00000000000E+00 0. -1.
<mgrwt>
<rscale>  0 0.83635726E+02</rscale>
<asrwt>0</asrwt>
<pdfrwt beam="1">  1        2 0.66694546E-01 0.83635726E+02</pdfrwt>
<pdfrwt beam="2">  1       -1 0.62059267E-03 0.83635726E+02</pdfrwt>
<totfact> 0.25861479E+05</totfact>
</mgrwt>
</event>
<event>
 8    1  0.2603554E-020  0.8030492E+02  0.7818608E-02  0.1328188E+00
         -1   -1    0    0    0  501 -0.00000000000E+00  0.00000000000E+00  0.28771904628E+01  0.28771948771E+01  0.50400000000E-02 0.  1.
          2   -1    0    0  501    0  0.00000000000E+00 -0.00000000000E+00 -0.56034487215E+03  0.56034487215E+03  0.25500000000E-02 0. -1.
         24    2    1    2    0    0  0.00000000000E+00  0.00000000000E+00 -0.55746768168E+03  0.56322206703E+03  0.80304923056E+02 0.  0.
         66    2    3    3    0    0  0.39080178974E+02 -0.33048368279E+01 -0.33843171599E+03  0.34070252234E+03  0.20000023517E+01 0.  0.
        -13    1    3    3    0    0 -0.39080178974E+02  0.33048368279E+01 -0.21903596570E+03  0.22251954469E+03  0.10566000000E+00 0.  1.
         13    1    4    4    0    0  0.51524208113E+01 -0.40231648310E+00 -0.47404725925E+02  0.47685726405E+02  0.10566000000E+00 0. -1.
        -13    1    4    4    0    0  0.45280998496E+01 -0.84111214439E+00 -0.42012906381E+02  0.42264720803E+02  0.10566000000E+00 0.  1.
         14    1    4    4    0    0  0.29399658313E+02 -0.20614082004E+01 -0.24901408368E+03  0.25075207513E+03  0.00000000000E+00 0. -1.
<mgrwt>
<rscale>  0 0.80304923E+02</rscale>
<asrwt>0</asrwt>
<pdfrwt beam="1">  1        2 0.86206817E-01 0.80304923E+02</pdfrwt>
<pdfrwt beam="2">  1       -1 0.44264547E-03 0.80304923E+02</pdfrwt>
<totfact> 0.31226898E+05</totfact>
</mgrwt>
</event>
<event>
 8    1  0.2603554E-020  0.7446183E+02  0.7818608E-02  0.1345546E+00
          2   -1    0    0  501    0  0.00000000000E+00  0.00000000000E+00  0.27516376410E+03  0.27516376411E+03  0.25500000000E-02 0. -1.
         -1   -1    0    0    0  501 -0.00000000000E+00 -0.00000000000E+00 -0.50375116935E+01  0.50375142148E+01  0.50400000000E-02 0.  1.
         24    2    1    2    0    0  0.35527136788E-14 -0.35527136788E-14  0.27012625240E+03  0.28020127832E+03  0.74461830065E+02 0.  0.
         66    2    3    3    0    0 -0.17373085989E+02  0.31570509612E+02  0.16997889062E+03  0.17376807659E+03  0.19999983064E+01 0.  0.
        -13    1    3    3    0    0  0.17373085989E+02 -0.31570509612E+02  0.10014736179E+03  0.10643320173E+03  0.10566000000E+00 0.  1.
         13    1    4    4    0    0 -0.48025764778E+01  0.93478286105E+01  0.50880639507E+02  0.51954761873E+02  0.10566000000E+00 0. -1.
        -13    1    4    4    0    0 -0.48245885760E+01  0.71256239713E+01  0.40593800110E+02  0.41496011174E+02  0.10566000000E+00 0.  1.
        -14    1    4    4    0    0 -0.77459209353E+01  0.15097057031E+02  0.78504450999E+02  0.80317303545E+02  0.00000000000E+00 0.  1.
<mgrwt>
<rscale>  0 0.74461830E+02</rscale>
<asrwt>0</asrwt>
<pdfrwt beam="1">  1        2 0.42332891E-01 0.74461830E+02</pdfrwt>
<pdfrwt beam="2">  1       -1 0.77500192E-03 0.74461830E+02</pdfrwt>
<totfact> 0.29807210E+05</totfact>
</mgrwt>
</event>
<event>
 8    1  0.2603554E-020  0.7750413E+02  0.7818608E-02  0.1336287E+00
         -1   -1    0    0    0  501 -0.00000000000E+00  0.00000000000E+00  0.42949135445E+01  0.42949165016E+01  0.50400000000E-02 0.  1.
          2   -1    0    0  501    0  0.00000000000E+00 -0.00000000000E+00 -0.34965127550E+03  0.34965127551E+03  0.25500000000E-02 0. -1.
         24    2    1    2    0    0 -0.35527136788E-14  0.88817841970E-15 -0.34535636196E+03  0.35394619201E+03  0.77504129541E+02 0.  0.
         66    2    3    3    0    0 -0.23458016633E+02  0.35579795599E+01 -0.31256838381E+03  0.31347397391E+03  0.20000000887E+01 0.  0.
        -13    1    3    3    0    0  0.23458016633E+02 -0.35579795599E+01 -0.32787978148E+02  0.40472218101E+02  0.10566000000E+00 0.  1.
         13    1    4    4    0    0 -0.92100645457E+01  0.19806684698E+01 -0.12915311546E+03  0.12949628077E+03  0.10566000000E+00 0. -1.
        -13    1    4    4    0    0 -0.96162212573E+01  0.71524587652E+00 -0.12768899103E+03  0.12805261763E+03  0.10566000000E+00 0.  1.
         14    1    4    4    0    0 -0.46317308299E+01  0.86206521361E+00 -0.55726277326E+02  0.55925075516E+02  0.00000000000E+00 0. -1.
<mgrwt>
<rscale>  0 0.77504130E+02</rscale>
<asrwt>0</asrwt>
<pdfrwt beam="1">  1        2 0.53792482E-01 0.77504130E+02</pdfrwt>
<pdfrwt beam="2">  1       -1 0.66075643E-03 0.77504130E+02</pdfrwt>
<totfact> 0.29265629E+05</totfact>
</mgrwt>
</event>
<event>
 8    1  0.2603554E-020  0.7900112E+02  0.7818608E-02  0.1331910E+00
         -1   -1    0    0    0  501 -0.00000000000E+00  0.00000000000E+00  0.12670059595E+03  0.12670059605E+03  0.50400000000E-02 0.  1.
          2   -1    0    0  501    0  0.00000000000E+00 -0.00000000000E+00 -0.12314812753E+02  0.12314813017E+02  0.25500000000E-02 0. -1.
         24    2    1    2    0    0  0.00000000000E+00  0.22204460493E-15  0.11438578319E+03  0.13901540906E+03  0.79001117463E+02 0.  0.
         66    2    3    3    0    0  0.33649936976E+02  0.19530768496E+01  0.21074607285E+02  0.39802912466E+02  0.20000002196E+01 0.  0.
        -13    1    3    3    0    0 -0.33649936976E+02 -0.19530768496E+01  0.93311175908E+02  0.99212496598E+02  0.10566000000E+00 0.  1.
         13    1    4    4    0    0  0.22539215641E+02  0.11907740793E+01  0.14621991364E+02  0.26893270164E+02  0.10566000000E+00 0. -1.
        -13    1    4    4    0    0  0.10503337303E+02  0.56991278570E+00  0.58699477792E+01  0.12046258591E+02  0.10566000000E+00 0.  1.
        -14    1    4    4    0    0  0.60738403243E+00  0.19238998462E+00  0.58266814180E+00  0.86338371105E+00  0.00000000000E+00 0.  1.
<mgrwt>
<rscale>  0 0.79001117E+02</rscale>
<asrwt>0</asrwt>
<pdfrwt beam="1">  1        2 0.18945866E-02 0.79001117E+02</pdfrwt>
<pdfrwt beam="2">  1       -1 0.19492399E-01 0.79001117E+02</pdfrwt>
<totfact> 0.11602623E+05</totfact>
</mgrwt>
</event>
<event>
 8    1  0.2603554E-020  0.8110951E+02  0.7818608E-02  0.1325932E+00
          2   -1    0    0  501    0  0.00000000000E+00  0.00000000000E+00  0.66359909756E+02  0.66359909805E+02  0.25500000000E-02 0. -1.
         -1   -1    0    0    0  501 -0.00000000000E+00 -0.00000000000E+00 -0.24784363351E+02  0.24784363863E+02  0.50400000000E-02 0.  1.
         24    2    1    2    0    0  0.71054273576E-14  0.17763568394E-14  0.41575546405E+02  0.91144273668E+02  0.81109509699E+02 0.  0.
         66    2    3    3    0    0  0.39459535407E+02  0.92286581483E+01  0.21562602506E+02  0.45947457925E+02  0.19999992941E+01 0.  0.
        -13    1    3    3    0    0 -0.39459535407E+02 -0.92286581483E+01  0.20012943898E+02  0.45196815743E+02  0.10566000000E+00 0.  1.
         13    1    4    4    0    0  0.12431003370E+02  0.33374698752E+01  0.74416201846E+01  0.14868000033E+02  0.10566000000E+00 0. -1.
        -13    1    4    4    0    0  0.10749951329E+02  0.19877825891E+01  0.60556350926E+01  0.12497784348E+02  0.10566000000E+00 0.  1.
        -14    1    4    4    0    0  0.16278580708E+02  0.39034056840E+01  0.80653472290E+01  0.18581673545E+02  0.00000000000E+00 0.  1.
<mgrwt>
<rscale>  0 0.81109510E+02</rscale>
<asrwt>0</asrwt>
<pdfrwt beam="1">  1        2 0.10209217E-01 0.81109510E+02</pdfrwt>
<pdfrwt beam="2">  1       -1 0.38129790E-02 0.81109510E+02</pdfrwt>
<totfact> 0.15354515E+05</totfact>
</mgrwt>
</event>
<event>
 8    1  0.2603554E-020  0.8378838E+02  0.7818608E-02  0.1318632E+00
         -1   -1    0    0    0  501 -0.00000000000E+00  0.00000000000E+00  0.27550865258E+01  0.27550911357E+01  0.50400000000E-02 0.  1.
          2   -1    0    0  501    0  0.00000000000E+00 -0.00000000000E+00 -0.63704780716E+03  0.63704780717E+03  0.25500000000E-02 0. -1.
         24    2    1    2    0    0  0.00000000000E+00 -0.88817841970E-15 -0.63429272064E+03  0.63980289831E+03  0.83788383590E+02 0.  0.
         66    2    3    3    0    0  0.22975250414E+02  0.78770168302E+01 -0.57775668117E+03  0.57827043168E+03  0.19999993622E+01 0.  0.
        -13    1    3    3    0    0 -0.22975250414E+02 -0.78770168302E+01 -0.56536039473E+02  0.61532466626E+02  0.10566000000E+00 0.  1.
         13    1    4    4    0    0  0.75687694084E+01  0.27430454626E+01 -0.20538378313E+03  0.20554152891E+03  0.10566000000E+00 0. -1.
        -13    1    4    4    0    0  0.29312627672E+00  0.57632481948E-01 -0.48319149066E+01  0.48422939003E+01  0.10566000000E+00 0.  1.
         14    1    4    4    0    0  0.15113354729E+02  0.50763388856E+01 -0.36754098313E+03  0.36788660887E+03  0.00000000000E+00 0. -1.
<mgrwt>
<rscale>  0 0.83788384E+02</rscale>
<asrwt>0</asrwt>
<pdfrwt beam="1">  1        2 0.98007238E-01 0.83788384E+02</pdfrwt>
<pdfrwt beam="2">  1       -1 0.42386033E-03 0.83788384E+02</pdfrwt>
<totfact> 0.28973194E+05</totfact>
</mgrwt>
</event>
<event>
 8    1  0.2603554E-020  0.7947387E+02  0.7818608E-02  0.1330551E+00
          2   -1    0    0  501    0  0.00000000000E+00  0.00000000000E+00  0.15865633768E+02  0.15865633973E+02  0.25500000000E-02 0. -1.
         -1   -1    0    0    0  501 -0.00000000000E+00 -0.00000000000E+00 -0.99524808685E+02  0.99524808813E+02  0.50400000000E-02 0.  1.
         24    2    1    2    0    0  0.00000000000E+00 -0.88817841970E-15 -0.83659174917E+02  0.11539044279E+03  0.79473874565E+02 0.  0.
         66    2    3    3    0    0  0.36148858732E+02  0.55022303413E+01 -0.19362592630E+02  0.41423719293E+02  0.20000000954E+01 0.  0.
        -13    1    3    3    0    0 -0.36148858732E+02 -0.55022303413E+01 -0.64296582287E+02  0.73966723492E+02  0.10566000000E+00 0.  1.
         13    1    4    4    0    0  0.28248355959E+02  0.45981025146E+01 -0.15309425588E+02  0.32457693032E+02  0.10566000000E+00 0. -1.
        -13    1    4    4    0    0  0.59014572840E+01  0.94855303689E+00 -0.33065244642E+01  0.68316336996E+01  0.10566000000E+00 0.  1.
         14    1    4    4    0    0  0.19990454894E+01 -0.44425210193E-01 -0.74664257856E+00  0.21343925618E+01  0.00000000000E+00 0. -1.
<mgrwt>
<rscale>  0 0.79473875E+02</rscale>
<asrwt>0</asrwt>
<pdfrwt beam="1">  1        2 0.24408668E-02 0.79473875E+02</pdfrwt>
<pdfrwt beam="2">  1       -1 0.15311509E-01 0.79473875E+02</pdfrwt>
<totfact> 0.12061814E+05</totfact>
</mgrwt>
</event>
<event>
 8    1  0.2603554E-020  0.7950140E+02  0.7818608E-02  0.1330472E+00
         -1   -1    0    0    0  501 -0.00000000000E+00  0.00000000000E+00  0.65664768772E+02  0.65664768966E+02  0.50400000000E-02 0.  1.
          2   -1    0    0  501    0  0.00000000000E+00 -0.00000000000E+00 -0.24063410586E+02  0.24063410721E+02  0.25500000000E-02 0. -1.
         24    2    1    2    0    0  0.00000000000E+00  0.00000000000E+00  0.41601358187E+02  0.89728179687E+02  0.79501403930E+02 0.  0.
         66    2    3    3    0    0  0.15905483898E+02  0.84361244219E+01 -0.19152685576E+02  0.26362434912E+02  0.19999991092E+01 0.  0.
        -13    1    3    3    0    0 -0.15905483898E+02 -0.84361244219E+01  0.60754043762E+02  0.63365744774E+02  0.10566000000E+00 0.  1.
         13    1    4    4    0    0  0.83357694246E+01  0.52398774985E+01 -0.11391032973E+02  0.15056831151E+02  0.10566000000E+00 0. -1.
        -13    1    4    4    0    0  0.59448719118E+01  0.25712070934E+01 -0.62034072661E+01  0.89691712945E+01  0.10566000000E+00 0.  1.
         14    1    4    4    0    0  0.16248425617E+01  0.62503983001E+00 -0.15582453370E+01  0.23364324664E+01  0.00000000000E+00 0. -1.
<mgrwt>
<rscale>  0 0.79501404E+02</rscale>
<asrwt>0</asrwt>
<pdfrwt beam="1">  1        2 0.37020632E-02 0.79501404E+02</pdfrwt>
<pdfrwt beam="2">  1       -1 0.10102272E-01 0.79501404E+02</pdfrwt>
<totfact> 0.13113339E+05</totfact>
</mgrwt>
</event>
<event>
 8    1  0.2603554E-020  0.8077550E+02  0.7818608E-02  0.1326865E+00
         -1   -1    0    0    0  501 -0.00000000000E+00  0.00000000000E+00  0.85976860425E+02  0.85976860573E+02  0.50400000000E-02 0.  1.
          2   -1    0    0  501    0  0.00000000000E+00 -0.00000000000E+00 -0.18972201913E+02  0.18972202084E+02  0.25500000000E-02 0. -1.
         24    2    1    2    0    0 -0.44408920985E-15  0.00000000000E+00  0.67004658512E+02  0.10494906266E+03  0.80775500558E+02 0.  0.
         66    2    3    3    0    0 -0.21697049823E+01 -0.28403538245E+02 -0.36302892668E+01  0.28786239598E+02  0.19999963730E+01 0.  0.
        -13    1    3    3    0    0  0.21697049823E+01  0.28403538245E+02  0.70634947779E+02  0.76162823059E+02  0.10566000000E+00 0.  1.
         13    1    4    4    0    0 -0.20385248274E+01 -0.24705774170E+02 -0.33177981973E+01  0.25010993778E+02  0.10566000000E+00 0. -1.
        -13    1    4    4    0    0 -0.39291681363E+00 -0.18840067930E+01 -0.94149157984E-01  0.19297391839E+01  0.10566000000E+00 0.  1.
         14    1    4    4    0    0  0.26173665872E+00 -0.18137572818E+01 -0.21834191153E+00  0.18455066367E+01  0.00000000000E+00 0. -1.
<mgrwt>
<rscale>  0 0.80775501E+02</rscale>
<asrwt>0</asrwt>
<pdfrwt beam="1">  1        2 0.29188003E-02 0.80775501E+02</pdfrwt>
<pdfrwt beam="2">  1       -1 0.13227209E-01 0.80775501E+02</pdfrwt>
<totfact> 0.11945926E+05</totfact>
</mgrwt>
</event>
<event>
 8    1  0.2603554E-020  0.7046445E+02  0.7818608E-02  0.1358521E+00
          2   -1    0    0  501    0  0.00000000000E+00  0.00000000000E+00  0.61126095267E+01  0.61126100586E+01  0.25500000000E-02 0. -1.
         -1   -1    0    0    0  501 -0.00000000000E+00 -0.00000000000E+00 -0.20307359735E+03  0.20307359741E+03  0.50400000000E-02 0.  1.
         24    2    1    2    0    0 -0.88817841970E-15  0.00000000000E+00 -0.19696098782E+03  0.20918620747E+03  0.70464449703E+02 0.  0.
         66    2    3    3    0    0 -0.49348133521E+01  0.34796909109E+02 -0.92528281538E+02  0.98998283575E+02  0.20000000244E+01 0.  0.
        -13    1    3    3    0    0  0.49348133521E+01 -0.34796909109E+02 -0.10443270629E+03  0.11018792390E+03  0.10566000000E+00 0.  1.
         13    1    4    4    0    0 -0.66466385369E+00  0.43180378786E+01 -0.13289783088E+02  0.13989879475E+02  0.10566000000E+00 0. -1.
        -13    1    4    4    0    0 -0.42022362075E+00  0.43918773919E+01 -0.11040433147E+02  0.11889806686E+02  0.10566000000E+00 0.  1.
        -14    1    4    4    0    0 -0.38499258777E+01  0.26086993839E+02 -0.68198065303E+02  0.73118597414E+02  0.00000000000E+00 0.  1.
<mgrwt>
<rscale>  0 0.70464450E+02</rscale>
<asrwt>0</asrwt>
<pdfrwt beam="1">  1        2 0.94040166E-03 0.70464450E+02</pdfrwt>
<pdfrwt beam="2">  1       -1 0.31242087E-01 0.70464450E+02</pdfrwt>
<totfact> 0.13680484E+05</totfact>
</mgrwt>
</event>
<event>
 8    1  0.2603554E-020  0.8094288E+02  0.7818608E-02  0.1326397E+00
         -1   -1    0    0    0  501 -0.00000000000E+00  0.00000000000E+00  0.39640464849E+01  0.39640496889E+01  0.50400000000E-02 0.  1.
          2   -1    0    0  501    0  0.00000000000E+00 -0.00000000000E+00 -0.41319816182E+03  0.41319816183E+03  0.25500000000E-02 0. -1.
         24    2    1    2    0    0  0.00000000000E+00 -0.88817841970E-15 -0.40923411533E+03  0.41716221151E+03  0.80942878399E+02 0.  0.
         66    2    3    3    0    0 -0.33333230931E+02 -0.49712880664E+01 -0.31999696000E+03  0.32177301378E+03  0.19999989489E+01 0.  0.
        -13    1    3    3    0    0  0.33333230931E+02  0.49712880664E+01 -0.89237155334E+02  0.95389197740E+02  0.10566000000E+00 0.  1.
         13    1    4    4    0    0 -0.11297198660E+02 -0.98327233258E+00 -0.10661011429E+03  0.10721157192E+03  0.10566000000E+00 0. -1.
        -13    1    4    4    0    0 -0.11606844326E+01 -0.39565556236E-01 -0.98555676644E+01  0.99243202190E+01  0.10566000000E+00 0.  1.
        -14    1    4    4    0    0 -0.20875347838E+02 -0.39484501776E+01 -0.20353127805E+03  0.20463712163E+03  0.00000000000E+00 0.  1.
<mgrwt>
<rscale>  0 0.80942878E+02</rscale>
<asrwt>0</asrwt>
<pdfrwt beam="1">  1        2 0.63568914E-01 0.80942878E+02</pdfrwt>
<pdfrwt beam="2">  1       -1 0.60985388E-03 0.80942878E+02</pdfrwt>
<totfact> 0.27712995E+05</totfact>
</mgrwt>
</event>
<event>
 8    1  0.2603554E-020  0.8054237E+02  0.7818608E-02  0.1327519E+00
         -1   -1    0    0    0  501 -0.00000000000E+00  0.00000000000E+00  0.97629669570E+01  0.97629682579E+01  0.50400000000E-02 0.  1.
          2   -1    0    0  501    0  0.00000000000E+00 -0.00000000000E+00 -0.16611428204E+03  0.16611428206E+03  0.25500000000E-02 0. -1.
         24    2    1    2    0    0  0.00000000000E+00  0.00000000000E+00 -0.15635131509E+03  0.17587725032E+03  0.80542370533E+02 0.  0.
         66    2    3    3    0    0 -0.28101220730E+02  0.18268239810E+02 -0.12687363078E+03  0.13124147735E+03  0.19999995072E+01 0.  0.
        -13    1    3    3    0    0  0.28101220730E+02 -0.18268239810E+02 -0.29477684303E+02  0.44635772965E+02  0.10566000000E+00 0.  1.
         13    1    4    4    0    0 -0.57110926364E+01  0.33099505647E+01 -0.24880398200E+02  0.25741362250E+02  0.10566000000E+00 0. -1.
        -13    1    4    4    0    0 -0.95346005081E+01  0.65210288504E+01 -0.40719194440E+02  0.42326072155E+02  0.10566000000E+00 0.  1.
        -14    1    4    4    0    0 -0.12855527586E+02  0.84372603949E+01 -0.61274038142E+02  0.63174042951E+02  0.00000000000E+00 0.  1.
<mgrwt>
<rscale>  0 0.80542371E+02</rscale>
<asrwt>0</asrwt>
<pdfrwt beam="1">  1        2 0.25556041E-01 0.80542371E+02</pdfrwt>
<pdfrwt beam="2">  1       -1 0.15019951E-02 0.80542371E+02</pdfrwt>
<totfact> 0.20342106E+05</totfact>
</mgrwt>
</event>
<event>
 8    1  0.2603554E-020  0.7979807E+02  0.7818608E-02  0.1329625E+00
          2   -1    0    0  501    0  0.00000000000E+00  0.00000000000E+00  0.60235488673E+03  0.60235488674E+03  0.25500000000E-02 0. -1.
         -1   -1    0    0    0  501 -0.00000000000E+00 -0.00000000000E+00 -0.26428468593E+01  0.26428516651E+01  0.50400000000E-02 0.  1.
         24    2    1    2    0    0  0.35527136788E-14  0.35527136788E-14  0.59971203987E+03  0.60499773840E+03  0.79798074562E+02 0.  0.
         66    2    3    3    0    0  0.29825963529E+02  0.23700785275E+02  0.38930514580E+03  0.39116979926E+03  0.19999947348E+01 0.  0.
        -13    1    3    3    0    0 -0.29825963529E+02 -0.23700785275E+02  0.21040689407E+03  0.21382793914E+03  0.10566000000E+00 0.  1.
         13    1    4    4    0    0  0.92184469302E+01  0.73794030700E+01  0.11511565608E+03  0.11571975109E+03  0.10566000000E+00 0. -1.
        -13    1    4    4    0    0  0.14372127159E+01  0.94447665693E+00  0.15279543559E+02  0.15376385529E+02  0.10566000000E+00 0. -1.
         14    1    4    4    0    0  0.19170303883E+02  0.15376905548E+02  0.25890994616E+03  0.26007366263E+03  0.00000000000E+00 0. -1.
<mgrwt>
<rscale>  0 0.79798075E+02</rscale>
<asrwt>0</asrwt>
<pdfrwt beam="1">  1        2 0.92670039E-01 0.79798075E+02</pdfrwt>
<pdfrwt beam="2">  1       -1 0.40659195E-03 0.79798075E+02</pdfrwt>
<totfact> 0.32410958E+05</totfact>
</mgrwt>
</event>
<event>
 8    1  0.2603554E-020  0.8071795E+02  0.7818608E-02  0.1327026E+00
         -1   -1    0    0    0  501 -0.00000000000E+00  0.00000000000E+00  0.47725233962E+01  0.47725260574E+01  0.50400000000E-02 0.  1.
          2   -1    0    0  501    0  0.00000000000E+00 -0.00000000000E+00 -0.34129665313E+03  0.34129665314E+03  0.25500000000E-02 0. -1.
         24    2    1    2    0    0  0.00000000000E+00  0.00000000000E+00 -0.33652412974E+03  0.34606917920E+03  0.80717946561E+02 0.  0.
         66    2    3    3    0    0 -0.20436553549E+02 -0.22785693895E+02 -0.28098565193E+03  0.28265487286E+03  0.19999987152E+01 0.  0.
        -13    1    3    3    0    0  0.20436553549E+02  0.22785693895E+02 -0.55538477808E+02  0.63414306340E+02  0.10566000000E+00 0.  1.
         13    1    4    4    0    0 -0.12225158588E+02 -0.14582315010E+02 -0.17216785236E+03  0.17321627800E+03  0.10566000000E+00 0. -1.
        -13    1    4    4    0    0 -0.28590466518E+01 -0.23003758141E+01 -0.33741970483E+02  0.33941090330E+02  0.10566000000E+00 0.  1.
        -14    1    4    4    0    0 -0.53523483089E+01 -0.59030030709E+01 -0.75075829084E+02  0.75497504531E+02  0.00000000000E+00 0.  1.
<mgrwt>
<rscale>  0 0.80717947E+02</rscale>
<asrwt>0</asrwt>
<pdfrwt beam="1">  1        2 0.52507159E-01 0.80717947E+02</pdfrwt>
<pdfrwt beam="2">  1       -1 0.73423484E-03 0.80717947E+02</pdfrwt>
<totfact> 0.26090373E+05</totfact>
</mgrwt>
</event>
<event>
 8    1  0.2603554E-020  0.8104022E+02  0.7818608E-02  0.1326125E+00
         -1   -1    0    0    0  501 -0.00000000000E+00  0.00000000000E+00  0.18024898828E+02  0.18024899533E+02  0.50400000000E-02 0.  1.
          2   -1    0    0  501    0  0.00000000000E+00 -0.00000000000E+00 -0.91089503900E+02  0.91089503936E+02  0.25500000000E-02 0. -1.
         24    2    1    2    0    0  0.00000000000E+00  0.00000000000E+00 -0.73064605072E+02  0.10911440347E+03  0.81040215510E+02 0.  0.
         66    2    3    3    0    0  0.18231263700E+02  0.29605973363E+02 -0.64506357546E+02  0.73307317583E+02  0.20000031227E+01 0.  0.
        -13    1    3    3    0    0 -0.18231263700E+02 -0.29605973363E+02 -0.85582475259E+01  0.35807085886E+02  0.10566000000E+00 0.  1.
         13    1    4    4    0    0  0.42520096107E+01  0.69988867720E+01 -0.14568383062E+02  0.16712658401E+02  0.10566000000E+00 0. -1.
        -13    1    4    4    0    0  0.60123583590E+01  0.10692054730E+02 -0.21700128276E+02  0.24927398954E+02  0.10566000000E+00 0.  1.
        -14    1    4    4    0    0  0.79668957305E+01  0.11915031861E+02 -0.28237846209E+02  0.31667260228E+02  0.00000000000E+00 0.  1.
<mgrwt>
<rscale>  0 0.81040216E+02</rscale>
<asrwt>0</asrwt>
<pdfrwt beam="1">  1        2 0.14013770E-01 0.81040216E+02</pdfrwt>
<pdfrwt beam="2">  1       -1 0.27730615E-02 0.81040216E+02</pdfrwt>
<totfact> 0.16687094E+05</totfact>
</mgrwt>
</event>
<event>
 8    1  0.2603554E-020  0.8549250E+02  0.7818608E-02  0.1314150E+00
          2   -1    0    0  501    0  0.00000000000E+00  0.00000000000E+00  0.95258670986E+02  0.95258671021E+02  0.25500000000E-02 0. -1.
         -1   -1    0    0    0  501 -0.00000000000E+00 -0.00000000000E+00 -0.19181894919E+02  0.19181895581E+02  0.50400000000E-02 0.  1.
         24    2    1    2    0    0  0.00000000000E+00  0.00000000000E+00  0.76076776068E+02  0.11444056660E+03  0.85492499246E+02 0.  0.
         66    2    3    3    0    0 -0.27651795975E+02 -0.32079939356E+02  0.30547149239E+02  0.52257752151E+02  0.20000008793E+01 0.  0.
        -13    1    3    3    0    0  0.27651795975E+02  0.32079939356E+02  0.45529626829E+02  0.62182814450E+02  0.10566000000E+00 0.  1.
         13    1    4    4    0    0 -0.13669169473E+01 -0.15447994721E+01  0.11653886238E+01  0.23715315789E+01  0.10566000000E+00 0. -1.
        -13    1    4    4    0    0 -0.11384707897E+02 -0.12955907701E+02  0.11734709563E+02  0.20861008864E+02  0.10566000000E+00 0.  1.
         14    1    4    4    0    0 -0.14900171131E+02 -0.17579232183E+02  0.17647051051E+02  0.29025211708E+02  0.00000000000E+00 0. -1.
<mgrwt>
<rscale>  0 0.85492499E+02</rscale>
<asrwt>0</asrwt>
<pdfrwt beam="1">  1        2 0.14655180E-01 0.85492499E+02</pdfrwt>
<pdfrwt beam="2">  1       -1 0.29510608E-02 0.85492499E+02</pdfrwt>
<totfact> 0.14624914E+05</totfact>
</mgrwt>
</event>
<event>
 8    1  0.2603554E-020  0.7899089E+02  0.7818608E-02  0.1331940E+00
          2   -1    0    0  501    0  0.00000000000E+00  0.00000000000E+00  0.75411790055E+03  0.75411790055E+03  0.25500000000E-02 0. -1.
         -1   -1    0    0    0  501 -0.00000000000E+00 -0.00000000000E+00 -0.20684933802E+01  0.20684995203E+01  0.50400000000E-02 0.  1.
         24    2    1    2    0    0  0.00000000000E+00  0.00000000000E+00  0.75204940717E+03  0.75618640007E+03  0.78990890825E+02 0.  0.
         66    2    3    3    0    0 -0.12365403728E+02  0.28366317297E+02  0.61082206638E+03  0.61160865588E+03  0.20000005255E+01 0.  0.
        -13    1    3    3    0    0  0.12365403728E+02 -0.28366317297E+02  0.14122734079E+03  0.14457774419E+03  0.10566000000E+00 0.  1.
         13    1    4    4    0    0 -0.90742117413E+01  0.19321010381E+02  0.41434294693E+03  0.41489243377E+03  0.10566000000E+00 0. -1.
        -13    1    4    4    0    0 -0.48042419327E+00  0.94299284972E+00  0.25469531330E+02  0.25491728720E+02  0.10566000000E+00 0.  1.
         14    1    4    4    0    0 -0.28107677935E+01  0.81023140654E+01  0.17100958811E+03  0.17122449339E+03  0.00000000000E+00 0. -1.
<mgrwt>
<rscale>  0 0.78990891E+02</rscale>
<asrwt>0</asrwt>
<pdfrwt beam="1">  1        2 0.11601816E+00 0.78990891E+02</pdfrwt>
<pdfrwt beam="2">  1       -1 0.31823016E-03 0.78990891E+02</pdfrwt>
<totfact> 0.35129167E+05</totfact>
</mgrwt>
</event>
<event>
 8    1  0.2603554E-020  0.7278015E+02  0.7818608E-02  0.1350886E+00
          2   -1    0    0  501    0  0.00000000000E+00  0.00000000000E+00  0.10825413429E+03  0.10825413432E+03  0.25500000000E-02 0. -1.
         -1   -1    0    0    0  501 -0.00000000000E+00 -0.00000000000E+00 -0.12232674191E+02  0.12232675229E+02  0.50400000000E-02 0.  1.
         24    2    1    2    0    0 -0.22204460493E-15  0.00000000000E+00  0.96021460097E+02  0.12048680955E+03  0.72780151660E+02 0.  0.
         66    2    3    3    0    0  0.14196875460E+01 -0.10885344936E+02  0.10543597901E+03  0.10602477036E+03  0.20000030413E+01 0.  0.
        -13    1    3    3    0    0 -0.14196875460E+01  0.10885344936E+02 -0.94145189140E+01  0.14462039190E+02  0.10566000000E+00 0.  1.
         13    1    4    4    0    0  0.11187123727E+01 -0.73040981665E+01  0.70369417858E+02  0.70756395479E+02  0.10566000000E+00 0. -1.
        -13    1    4    4    0    0 -0.10760423193E+00 -0.21261994465E+00  0.57816532215E+01  0.57875265805E+01  0.10566000000E+00 0.  1.
        -14    1    4    4    0    0  0.40857940524E+00 -0.33686268254E+01  0.29284907931E+02  0.29480848298E+02  0.00000000000E+00 0.  1.
<mgrwt>
<rscale>  0 0.72780152E+02</rscale>
<asrwt>0</asrwt>
<pdfrwt beam="1">  1        2 0.16654482E-01 0.72780152E+02</pdfrwt>
<pdfrwt beam="2">  1       -1 0.18819500E-02 0.72780152E+02</pdfrwt>
<totfact> 0.23309064E+05</totfact>
</mgrwt>
</event>
<event>
 8    1  0.2603554E-020  0.7999092E+02  0.7818608E-02  0.1329077E+00
         -1   -1    0    0    0  501 -0.00000000000E+00  0.00000000000E+00  0.90701492744E+01  0.90701506746E+01  0.50400000000E-02 0.  1.
          2   -1    0    0  501    0  0.00000000000E+00 -0.00000000000E+00 -0.17636278310E+03  0.17636278312E+03  0.25500000000E-02 0. -1.
         24    2    1    2    0    0  0.00000000000E+00 -0.44408920985E-15 -0.16729263383E+03  0.18543293380E+03  0.79990922003E+02 0.  0.
         66    2    3    3    0    0 -0.27149984866E+02  0.39569131480E+01 -0.15107935562E+03  0.15356350653E+03  0.20000007465E+01 0.  0.
        -13    1    3    3    0    0  0.27149984866E+02 -0.39569131480E+01 -0.16213278204E+02  0.31869427263E+02  0.10566000000E+00 0.  1.
         13    1    4    4    0    0 -0.18567101191E+02  0.32079310656E+01 -0.10488774913E+03  0.10656678258E+03  0.10566000000E+00 0. -1.
        -13    1    4    4    0    0 -0.50635509616E+01  0.81723127736E+00 -0.26184375289E+02  0.26682205467E+02  0.10566000000E+00 0.  1.
         14    1    4    4    0    0 -0.35193327134E+01 -0.68249194958E-01 -0.20007231210E+02  0.20314518488E+02  0.00000000000E+00 0. -1.
<mgrwt>
<rscale>  0 0.79990922E+02</rscale>
<asrwt>0</asrwt>
<pdfrwt beam="1">  1        2 0.27132733E-01 0.79990922E+02</pdfrwt>
<pdfrwt beam="2">  1       -1 0.13954078E-02 0.79990922E+02</pdfrwt>
<totfact> 0.21134222E+05</totfact>
</mgrwt>
</event>
<event>
 8    1  0.2603554E-020  0.7957485E+02  0.7818608E-02  0.1330262E+00
          2   -1    0    0  501    0  0.00000000000E+00  0.00000000000E+00  0.11765765869E+02  0.11765766145E+02  0.25500000000E-02 0. -1.
         -1   -1    0    0    0  501 -0.00000000000E+00 -0.00000000000E+00 -0.13454621819E+03  0.13454621829E+03  0.50400000000E-02 0.  1.
         24    2    1    2    0    0  0.00000000000E+00  0.00000000000E+00 -0.12278045233E+03  0.14631198443E+03  0.79574853539E+02 0.  0.
         66    2    3    3    0    0 -0.28310766460E+02 -0.10561078241E+02 -0.13907217393E+02  0.33323364123E+02  0.20000074195E+01 0.  0.
        -13    1    3    3    0    0  0.28310766460E+02  0.10561078241E+02 -0.10887323493E+03  0.11298862031E+03  0.10566000000E+00 0.  1.
         13    1    4    4    0    0 -0.22141120812E+02 -0.83197448262E+01 -0.10363979155E+02  0.25823838072E+02  0.10566000000E+00 0. -1.
        -13    1    4    4    0    0 -0.18650282456E+01 -0.50962204061E+00 -0.70636459170E+00  0.20611064876E+01  0.10566000000E+00 0.  1.
        -14    1    4    4    0    0 -0.43046174023E+01 -0.17317113742E+01 -0.28368736468E+01  0.54384195638E+01  0.00000000000E+00 0.  1.
<mgrwt>
<rscale>  0 0.79574854E+02</rscale>
<asrwt>0</asrwt>
<pdfrwt beam="1">  1        2 0.18101179E-02 0.79574854E+02</pdfrwt>
<pdfrwt beam="2">  1       -1 0.20699417E-01 0.79574854E+02</pdfrwt>
<totfact> 0.11231882E+05</totfact>
</mgrwt>
</event>
<event>
 8    1  0.2603554E-020  0.8047475E+02  0.7818608E-02  0.1327710E+00
          2   -1    0    0  501    0  0.00000000000E+00  0.00000000000E+00  0.16227912534E+03  0.16227912536E+03  0.25500000000E-02 0. -1.
         -1   -1    0    0    0  501 -0.00000000000E+00 -0.00000000000E+00 -0.99769224424E+01  0.99769237155E+01  0.50400000000E-02 0.  1.
         24    2    1    2    0    0  0.00000000000E+00  0.00000000000E+00  0.15230220290E+03  0.17225604907E+03  0.80474750298E+02 0.  0.
         66    2    3    3    0    0 -0.28835414955E+02  0.17475203352E+02  0.12310263830E+03  0.12765235388E+03  0.20000020975E+01 0.  0.
        -13    1    3    3    0    0  0.28835414955E+02 -0.17475203352E+02  0.29199564598E+02  0.44603695189E+02  0.10566000000E+00 0.  1.
         13    1    4    4    0    0 -0.15980523604E+02  0.98445206642E+01  0.68850028580E+02  0.71362660554E+02  0.10566000000E+00 0. -1.
        -13    1    4    4    0    0 -0.10624627943E+02  0.60445057926E+01  0.42533891905E+02  0.44255642508E+02  0.10566000000E+00 0.  1.
         14    1    4    4    0    0 -0.22302634080E+01  0.15861768955E+01  0.11718717813E+02  0.12034050823E+02  0.00000000000E+00 0. -1.
<mgrwt>
<rscale>  0 0.80474750E+02</rscale>
<asrwt>0</asrwt>
<pdfrwt beam="1">  1        2 0.24966015E-01 0.80474750E+02</pdfrwt>
<pdfrwt beam="2">  1       -1 0.15349115E-02 0.80474750E+02</pdfrwt>
<totfact> 0.20230504E+05</totfact>
</mgrwt>
</event>
<event>
 8    1  0.2603554E-020  0.8120176E+02  0.7818608E-02  0.1325675E+00
         -1   -1    0    0    0  501 -0.00000000000E+00  0.00000000000E+00  0.35895512583E+02  0.35895512937E+02  0.50400000000E-02 0.  1.
          2   -1    0    0  501    0  0.00000000000E+00 -0.00000000000E+00 -0.45923050498E+02  0.45923050569E+02  0.25500000000E-02 0. -1.
         24    2    1    2    0    0  0.00000000000E+00  0.00000000000E+00 -0.10027537915E+02  0.81818563506E+02  0.81201759941E+02 0.  0.
         66    2    3    3    0    0 -0.14037862699E+02 -0.34467754805E+02 -0.21305573356E+02  0.42930352466E+02  0.19999990915E+01 0.  0.
        -13    1    3    3    0    0  0.14037862699E+02  0.34467754805E+02  0.11278035441E+02  0.38888211040E+02  0.10566000000E+00 0.  1.
         13    1    4    4    0    0 -0.35190911158E+01 -0.88086253442E+01 -0.47770798214E+01  0.10621089322E+02  0.10566000000E+00 0. -1.
        -13    1    4    4    0    0 -0.10292100669E+01 -0.21269785313E+01 -0.10552111310E+01  0.25899701931E+01  0.10566000000E+00 0.  1.
         14    1    4    4    0    0 -0.94895615165E+01 -0.23532150929E+02 -0.15473282404E+02  0.29719292950E+02  0.00000000000E+00 0. -1.
<mgrwt>
<rscale>  0 0.81201760E+02</rscale>
<asrwt>0</asrwt>
<pdfrwt beam="1">  1        2 0.70650848E-02 0.81201760E+02</pdfrwt>
<pdfrwt beam="2">  1       -1 0.55223865E-02 0.81201760E+02</pdfrwt>
<totfact> 0.14082477E+05</totfact>
</mgrwt>
</event>
<event>
 8    1  0.2603554E-020  0.7958891E+02  0.7818608E-02  0.1330222E+00
          2   -1    0    0  501    0  0.00000000000E+00  0.00000000000E+00  0.19599349288E+03  0.19599349289E+03  0.25500000000E-02 0. -1.
         -1   -1    0    0    0  501 -0.00000000000E+00 -0.00000000000E+00 -0.80798517854E+01  0.80798533574E+01  0.50400000000E-02 0.  1.
         24    2    1    2    0    0  0.17763568394E-14  0.71054273576E-14  0.18791364109E+03  0.20407334625E+03  0.79588907153E+02 0.  0.
         66    2    3    3    0    0  0.13018679368E+02  0.35657667048E+02  0.12442383003E+03  0.13010090203E+03  0.19999993011E+01 0.  0.
        -13    1    3    3    0    0 -0.13018679368E+02 -0.35657667048E+02  0.63489811064E+02  0.73972444226E+02  0.10566000000E+00 0.  1.
         13    1    4    4    0    0  0.11080953680E+02  0.29971693058E+02  0.10570615555E+03  0.11043048675E+03  0.10566000000E+00 0. -1.
        -13    1    4    4    0    0  0.34226078642E+00  0.50209673317E+00  0.22158756403E+01  0.23001114026E+01  0.10566000000E+00 0.  1.
         14    1    4    4    0    0  0.15954649016E+01  0.51838772570E+01  0.16501798842E+02  0.17370303874E+02  0.00000000000E+00 0. -1.
<mgrwt>
<rscale>  0 0.79588907E+02</rscale>
<asrwt>0</asrwt>
<pdfrwt beam="1">  1        2 0.30152844E-01 0.79588907E+02</pdfrwt>
<pdfrwt beam="2">  1       -1 0.12430543E-02 0.79588907E+02</pdfrwt>
<totfact> 0.22204223E+05</totfact>
</mgrwt>
</event>
<event>
 8    1  0.2603554E-020  0.7985091E+02  0.7818608E-02  0.1329475E+00
         -1   -1    0    0    0  501 -0.00000000000E+00  0.00000000000E+00  0.31829929775E+03  0.31829929779E+03  0.50400000000E-02 0.  1.
          2   -1    0    0  501    0  0.00000000000E+00 -0.00000000000E+00 -0.50079965014E+01  0.50079971506E+01  0.25500000000E-02 0. -1.
         24    2    1    2    0    0 -0.22204460493E-15  0.00000000000E+00  0.31329130124E+03  0.32330729494E+03  0.79850908095E+02 0.  0.
         66    2    3    3    0    0  0.16420513074E+01 -0.38253872243E+02  0.11129827663E+03  0.11771729461E+03  0.19999992964E+01 0.  0.
        -13    1    3    3    0    0 -0.16420513074E+01  0.38253872243E+02  0.20199302462E+03  0.20559000032E+03  0.10566000000E+00 0.  1.
         13    1    4    4    0    0 -0.41055388177E-01 -0.31824478013E+01  0.89070774607E+01  0.94592205006E+01  0.10566000000E+00 0. -1.
        -13    1    4    4    0    0 -0.34905108394E+00 -0.72251577788E+01  0.21018669272E+02  0.22228818313E+02  0.10566000000E+00 0.  1.
         14    1    4    4    0    0  0.20321577795E+01 -0.27846266663E+02  0.81372529893E+02  0.86029255800E+02  0.00000000000E+00 0. -1.
<mgrwt>
<rscale>  0 0.79850908E+02</rscale>
<asrwt>0</asrwt>
<pdfrwt beam="1">  1        2 0.77046080E-03 0.79850908E+02</pdfrwt>
<pdfrwt beam="2">  1       -1 0.48969139E-01 0.79850908E+02</pdfrwt>
<totfact> 0.84739580E+04</totfact>
</mgrwt>
</event>
<event>
 8    1  0.2603554E-020  0.7989482E+02  0.7818608E-02  0.1329350E+00
         -1   -1    0    0    0  501 -0.00000000000E+00  0.00000000000E+00  0.12771810913E+01  0.12771910357E+01  0.50400000000E-02 0.  1.
          2   -1    0    0  501    0  0.00000000000E+00 -0.00000000000E+00 -0.12494621019E+04  0.12494621019E+04  0.25500000000E-02 0. -1.
         24    2    1    2    0    0  0.00000000000E+00  0.17763568394E-14 -0.12481849208E+04  0.12507392929E+04  0.79894820641E+02 0.  0.
         66    2    3    3    0    0  0.19604635528E+02 -0.13016776813E+02 -0.11293383471E+04  0.11295852692E+04  0.20000082972E+01 0.  0.
        -13    1    3    3    0    0 -0.19604635528E+02  0.13016776813E+02 -0.11884657372E+03  0.12115402371E+03  0.10566000000E+00 0.  1.
         13    1    4    4    0    0  0.13724337896E+02 -0.94894138700E+01 -0.76651603260E+03  0.76669762347E+03  0.10566000000E+00 0. -1.
        -13    1    4    4    0    0  0.57527090119E+01 -0.35066982534E+01 -0.35136081281E+03  0.35142541532E+03  0.10566000000E+00 0.  1.
         14    1    4    4    0    0  0.12758862014E+00 -0.20664690036E-01 -0.11461501657E+02  0.11462230417E+02  0.00000000000E+00 0. -1.
<mgrwt>
<rscale>  0 0.79894821E+02</rscale>
<asrwt>0</asrwt>
<pdfrwt beam="1">  1        2 0.19222396E+00 0.79894821E+02</pdfrwt>
<pdfrwt beam="2">  1       -1 0.19649116E-03 0.79894821E+02</pdfrwt>
<totfact> 0.34973282E+05</totfact>
</mgrwt>
</event>
<event>
 8    1  0.2603554E-020  0.7614313E+02  0.7818608E-02  0.1340367E+00
         -1   -1    0    0    0  501 -0.00000000000E+00  0.00000000000E+00  0.40497224291E+02  0.40497224604E+02  0.50400000000E-02 0.  1.
          2   -1    0    0  501    0  0.00000000000E+00 -0.00000000000E+00 -0.35791199383E+02  0.35791199473E+02  0.25500000000E-02 0. -1.
         24    2    1    2    0    0 -0.35527136788E-14  0.55511151231E-16  0.47060249081E+01  0.76288424078E+02  0.76143134804E+02 0.  0.
         66    2    3    3    0    0  0.23635199277E+02 -0.17442446775E+00 -0.27514772961E+02  0.36327892948E+02  0.20000015494E+01 0.  0.
        -13    1    3    3    0    0 -0.23635199277E+02  0.17442446775E+00  0.32220797869E+02  0.39960531129E+02  0.10566000000E+00 0.  1.
         13    1    4    4    0    0  0.23371769265E+01 -0.20955005756E+00 -0.26199897510E+01  0.35187806899E+01  0.10566000000E+00 0. -1.
        -13    1    4    4    0    0  0.29215075117E+01  0.58408742552E+00 -0.32480127866E+01  0.44087544000E+01  0.10566000000E+00 0.  1.
         14    1    4    4    0    0  0.18376514839E+02 -0.54896183571E+00 -0.21646770423E+02  0.28400357859E+02  0.00000000000E+00 0. -1.
<mgrwt>
<rscale>  0 0.76143135E+02</rscale>
<asrwt>0</asrwt>
<pdfrwt beam="1">  1        2 0.55063384E-02 0.76143135E+02</pdfrwt>
<pdfrwt beam="2">  1       -1 0.62303422E-02 0.76143135E+02</pdfrwt>
<totfact> 0.15978915E+05</totfact>
</mgrwt>
</event>
<event>
 8    1  0.2603554E-020  0.8096238E+02  0.7818608E-02  0.1326342E+00
          2   -1    0    0  501    0  0.00000000000E+00  0.00000000000E+00  0.13064057354E+03  0.13064057356E+03  0.25500000000E-02 0. -1.
         -1   -1    0    0    0  501 -0.00000000000E+00 -0.00000000000E+00 -0.12543779246E+02  0.12543780258E+02  0.50400000000E-02 0.  1.
         24    2    1    2    0    0  0.00000000000E+00  0.17763568394E-14  0.11809679429E+03  0.14318435382E+03  0.80962376182E+02 0.  0.
         66    2    3    3    0    0 -0.21133609335E+02  0.12186180284E+02  0.11616125206E+03  0.11871212627E+03  0.20000025757E+01 0.  0.
        -13    1    3    3    0    0  0.21133609335E+02 -0.12186180284E+02  0.19355422320E+01  0.24472227549E+02  0.10566000000E+00 0.  1.
         13    1    4    4    0    0 -0.16323500604E+02  0.99794816559E+01  0.90344163685E+02  0.92347852179E+02  0.10566000000E+00 0. -1.
        -13    1    4    4    0    0 -0.26431470522E+01  0.86708495811E+00  0.12590366096E+02  0.12894438535E+02  0.10566000000E+00 0.  1.
         14    1    4    4    0    0 -0.21669616794E+01  0.13396136699E+01  0.13226722279E+02  0.13469835558E+02  0.00000000000E+00 0. -1.
<mgrwt>
<rscale>  0 0.80962376E+02</rscale>
<asrwt>0</asrwt>
<pdfrwt beam="1">  1        2 0.20098550E-01 0.80962376E+02</pdfrwt>
<pdfrwt beam="2">  1       -1 0.19298122E-02 0.80962376E+02</pdfrwt>
<totfact> 0.18574546E+05</totfact>
</mgrwt>
</event>
<event>
 8    1  0.2603554E-020  0.7967903E+02  0.7818608E-02  0.1329965E+00
         -1   -1    0    0    0  501 -0.00000000000E+00  0.00000000000E+00  0.27053414387E+01  0.27053461335E+01  0.50400000000E-02 0.  1.
          2   -1    0    0  501    0  0.00000000000E+00 -0.00000000000E+00 -0.58668585949E+03  0.58668585949E+03  0.25500000000E-02 0. -1.
         24    2    1    2    0    0  0.00000000000E+00  0.00000000000E+00 -0.58398051805E+03  0.58939120563E+03  0.79679029922E+02 0.  0.
         66    2    3    3    0    0  0.20168648236E+02  0.16801182600E+02 -0.51360786801E+03  0.51428211732E+03  0.20000017447E+01 0.  0.
        -13    1    3    3    0    0 -0.20168648236E+02 -0.16801182600E+02 -0.70372650038E+02  0.75109088304E+02  0.10566000000E+00 0.  1.
         13    1    4    4    0    0  0.76116512661E+00  0.78573620397E+00 -0.22296075809E+02  0.22323147499E+02  0.10566000000E+00 0. -1.
        -13    1    4    4    0    0  0.42737665599E+01  0.45168321626E+01 -0.12219576993E+03  0.12235393008E+03  0.10566000000E+00 0.  1.
        -14    1    4    4    0    0  0.15133716549E+02  0.11498614233E+02 -0.36911602227E+03  0.36960503975E+03  0.00000000000E+00 0.  1.
<mgrwt>
<rscale>  0 0.79679030E+02</rscale>
<asrwt>0</asrwt>
<pdfrwt beam="1">  1        2 0.90259262E-01 0.79679030E+02</pdfrwt>
<pdfrwt beam="2">  1       -1 0.41620720E-03 0.79679030E+02</pdfrwt>
<totfact> 0.32297181E+05</totfact>
</mgrwt>
</event>
<event>
 8    1  0.2603554E-020  0.8693208E+02  0.7818608E-02  0.1310456E+00
         -1   -1    0    0    0  501 -0.00000000000E+00  0.00000000000E+00  0.32632310720E+01  0.32632349641E+01  0.50400000000E-02 0.  1.
          2   -1    0    0  501    0  0.00000000000E+00 -0.00000000000E+00 -0.57896464739E+03  0.57896464740E+03  0.25500000000E-02 0. -1.
         24    2    1    2    0    0  0.00000000000E+00  0.00000000000E+00 -0.57570141632E+03  0.58222788236E+03  0.86932078352E+02 0.  0.
         66    2    3    3    0    0  0.43297804283E+01  0.39947176520E+02 -0.39861644465E+03  0.40064147795E+03  0.20000002669E+01 0.  0.
        -13    1    3    3    0    0 -0.43297804283E+01 -0.39947176520E+02 -0.17708497168E+03  0.18158640441E+03  0.10566000000E+00 0.  1.
         13    1    4    4    0    0  0.57510107554E+00  0.48571735930E+01 -0.45320433109E+02  0.45583721851E+02  0.10566000000E+00 0.  1.
        -13    1    4    4    0    0  0.35049729853E+01  0.27185248778E+02 -0.27119895550E+03  0.27258064351E+03  0.10566000000E+00 0. -1.
        -14    1    4    4    0    0  0.24970636744E+00  0.79047541489E+01 -0.82097056034E+02  0.82477112588E+02  0.00000000000E+00 0.  1.
<mgrwt>
<rscale>  0 0.86932078E+02</rscale>
<asrwt>0</asrwt>
<pdfrwt beam="1">  1        2 0.89071402E-01 0.86932078E+02</pdfrwt>
<pdfrwt beam="2">  1       -1 0.50203631E-03 0.86932078E+02</pdfrwt>
<totfact> 0.25624370E+05</totfact>
</mgrwt>
</event>
<event>
 8    1  0.2603554E-020  0.8034752E+02  0.7818608E-02  0.1328068E+00
         -1   -1    0    0    0  501 -0.00000000000E+00  0.00000000000E+00  0.10142508831E+02  0.10142510083E+02  0.50400000000E-02 0.  1.
          2   -1    0    0  501    0  0.00000000000E+00 -0.00000000000E+00 -0.15912541059E+03  0.15912541061E+03  0.25500000000E-02 0. -1.
         24    2    1    2    0    0  0.00000000000E+00 -0.35527136788E-14 -0.14898290176E+03  0.16926792070E+03  0.80347519932E+02 0.  0.
         66    2    3    3    0    0  0.25174306886E+02 -0.21709743357E+02 -0.12196706372E+03  0.12643189201E+03  0.20000007571E+01 0.  0.
        -13    1    3    3    0    0 -0.25174306886E+02  0.21709743357E+02 -0.27015838046E+02  0.42836028681E+02  0.10566000000E+00 0.  1.
         13    1    4    4    0    0  0.58795741071E+01 -0.50832279401E+01 -0.26949772959E+02  0.28048351548E+02  0.10566000000E+00 0. -1.
        -13    1    4    4    0    0  0.32867473257E+01 -0.36048340150E+01 -0.18433169589E+02  0.19068047655E+02  0.10566000000E+00 0.  1.
         14    1    4    4    0    0  0.16007985453E+02 -0.13021681402E+02 -0.76584121168E+02  0.79315492811E+02  0.00000000000E+00 0. -1.
<mgrwt>
<rscale>  0 0.80347520E+02</rscale>
<asrwt>0</asrwt>
<pdfrwt beam="1">  1        2 0.24480831E-01 0.80347520E+02</pdfrwt>
<pdfrwt beam="2">  1       -1 0.15603862E-02 0.80347520E+02</pdfrwt>
<totfact> 0.20184861E+05</totfact>
</mgrwt>
</event>
<event>
 8    1  0.2603554E-020  0.8019824E+02  0.7818608E-02  0.1328490E+00
          2   -1    0    0  501    0  0.00000000000E+00  0.00000000000E+00  0.12440041475E+03  0.12440041478E+03  0.25500000000E-02 0. -1.
         -1   -1    0    0    0  501 -0.00000000000E+00 -0.00000000000E+00 -0.12925514109E+02  0.12925515092E+02  0.50400000000E-02 0.  1.
         24    2    1    2    0    0 -0.35527136788E-14 -0.35527136788E-14  0.11147490064E+03  0.13732592987E+03  0.80198239017E+02 0.  0.
         66    2    3    3    0    0  0.22915101516E+02  0.30044419201E+02  0.32916059684E+02  0.50152128419E+02  0.19999992952E+01 0.  0.
        -13    1    3    3    0    0 -0.22915101516E+02 -0.30044419201E+02  0.78558840960E+02  0.87173801452E+02  0.10566000000E+00 0.  1.
         13    1    4    4    0    0  0.19836239968E+02  0.25478976793E+02  0.27341644524E+02  0.42311125768E+02  0.10566000000E+00 0. -1.
        -13    1    4    4    0    0  0.14985201717E+01  0.20475735683E+01  0.26735008124E+01  0.36873962157E+01  0.10566000000E+00 0.  1.
         14    1    4    4    0    0  0.15803413770E+01  0.25178688398E+01  0.29009143474E+01  0.41536064346E+01  0.00000000000E+00 0. -1.
<mgrwt>
<rscale>  0 0.80198239E+02</rscale>
<asrwt>0</asrwt>
<pdfrwt beam="1">  1        2 0.19138525E-01 0.80198239E+02</pdfrwt>
<pdfrwt beam="2">  1       -1 0.19885407E-02 0.80198239E+02</pdfrwt>
<totfact> 0.18766311E+05</totfact>
</mgrwt>
</event>
<event>
 8    1  0.2603554E-020  0.7886694E+02  0.7818608E-02  0.1332298E+00
         -1   -1    0    0    0  501 -0.00000000000E+00  0.00000000000E+00  0.25893394367E+01  0.25893443418E+01  0.50400000000E-02 0.  1.
          2   -1    0    0  501    0  0.00000000000E+00 -0.00000000000E+00 -0.60053808665E+03  0.60053808665E+03  0.25500000000E-02 0. -1.
         24    2    1    2    0    0  0.00000000000E+00  0.00000000000E+00 -0.59794874721E+03  0.60312743099E+03  0.78866936845E+02 0.  0.
         66    2    3    3    0    0  0.18179148274E+02  0.16198625027E+02 -0.53612668047E+03  0.53668304836E+03  0.19999976438E+01 0.  0.
        -13    1    3    3    0    0 -0.18179148274E+02 -0.16198625027E+02 -0.61822066736E+02  0.66444382639E+02  0.10566000000E+00 0.  1.
         13    1    4    4    0    0  0.32496821338E+01  0.22948111444E+01 -0.87592802024E+02  0.87683160998E+02  0.10566000000E+00 0. -1.
        -13    1    4    4    0    0  0.12265132489E+02  0.10773660652E+02 -0.35110091229E+03  0.35148025124E+03  0.10566000000E+00 0.  1.
        -14    1    4    4    0    0  0.26643336519E+01  0.31301532305E+01 -0.97432966165E+02  0.97519636118E+02  0.00000000000E+00 0.  1.
<mgrwt>
<rscale>  0 0.78866937E+02</rscale>
<asrwt>0</asrwt>
<pdfrwt beam="1">  1        2 0.92390364E-01 0.78866937E+02</pdfrwt>
<pdfrwt beam="2">  1       -1 0.39836077E-03 0.78866937E+02</pdfrwt>
<totfact> 0.33387255E+05</totfact>
</mgrwt>
</event>
<event>
 8    1  0.2603554E-020  0.7836993E+02  0.7818608E-02  0.1333742E+00
         -1   -1    0    0    0  501 -0.00000000000E+00  0.00000000000E+00  0.24774099028E+02  0.24774099541E+02  0.50400000000E-02 0.  1.
          2   -1    0    0  501    0  0.00000000000E+00 -0.00000000000E+00 -0.61978500865E+02  0.61978500918E+02  0.25500000000E-02 0. -1.
         24    2    1    2    0    0  0.35527136788E-14  0.00000000000E+00 -0.37204401837E+02  0.86752600458E+02  0.78369931544E+02 0.  0.
         66    2    3    3    0    0  0.28313210169E+02  0.10682855350E+02 -0.46126157502E+02  0.55203113035E+02  0.20000035791E+01 0.  0.
        -13    1    3    3    0    0 -0.28313210169E+02 -0.10682855350E+02  0.89217556651E+01  0.31549487423E+02  0.10566000000E+00 0.  1.
         13    1    4    4    0    0  0.70618542649E+01  0.29403157430E+01 -0.11463350468E+02  0.13781683871E+02  0.10566000000E+00 0. -1.
        -13    1    4    4    0    0  0.30744456255E+00  0.28319147706E+00 -0.48704085562E+00  0.65045553451E+00  0.10566000000E+00 0.  1.
        -14    1    4    4    0    0  0.20943911341E+02  0.74593481296E+01 -0.34175766178E+02  0.40770973629E+02  0.00000000000E+00 0.  1.
<mgrwt>
<rscale>  0 0.78369932E+02</rscale>
<asrwt>0</asrwt>
<pdfrwt beam="1">  1        2 0.95351540E-02 0.78369932E+02</pdfrwt>
<pdfrwt beam="2">  1       -1 0.38113999E-02 0.78369932E+02</pdfrwt>
<totfact> 0.16585131E+05</totfact>
</mgrwt>
</event>
<event>
 8    1  0.2603554E-020  0.8110301E+02  0.7818608E-02  0.1325950E+00
          2   -1    0    0  501    0  0.00000000000E+00  0.00000000000E+00  0.28095584243E+02  0.28095584359E+02  0.25500000000E-02 0. -1.
         -1   -1    0    0    0  501 -0.00000000000E+00 -0.00000000000E+00 -0.58529648869E+02  0.58529649086E+02  0.50400000000E-02 0.  1.
         24    2    1    2    0    0 -0.35527136788E-14  0.00000000000E+00 -0.30434064626E+02  0.86625233445E+02  0.81103013383E+02 0.  0.
         66    2    3    3    0    0  0.31357352382E+02  0.37762504486E+01  0.11897229642E+02  0.33809579948E+02  0.20000018223E+01 0.  0.
        -13    1    3    3    0    0 -0.31357352382E+02 -0.37762504486E+01 -0.42331294268E+02  0.52815653497E+02  0.10566000000E+00 0.  1.
         13    1    4    4    0    0  0.45313292398E+01  0.77660565114E+00  0.17669396298E+01  0.49263882011E+01  0.10566000000E+00 0. -1.
        -13    1    4    4    0    0  0.22639390624E+02  0.18986298835E+01  0.84586725019E+01  0.24242671218E+02  0.10566000000E+00 0.  1.
        -14    1    4    4    0    0  0.41866325182E+01  0.11010149140E+01  0.16716175099E+01  0.46405205293E+01  0.00000000000E+00 0.  1.
<mgrwt>
<rscale>  0 0.81103013E+02</rscale>
<asrwt>0</asrwt>
<pdfrwt beam="1">  1        2 0.43223976E-02 0.81103013E+02</pdfrwt>
<pdfrwt beam="2">  1       -1 0.90045614E-02 0.81103013E+02</pdfrwt>
<totfact> 0.12779975E+05</totfact>
</mgrwt>
</event>
<event>
 8    1  0.2603554E-020  0.8264515E+02  0.7818608E-02  0.1321708E+00
         -1   -1    0    0    0  501 -0.00000000000E+00  0.00000000000E+00  0.38406770646E+02  0.38406770977E+02  0.50400000000E-02 0.  1.
          2   -1    0    0  501    0  0.00000000000E+00 -0.00000000000E+00 -0.44459747780E+02  0.44459747854E+02  0.25500000000E-02 0. -1.
         24    2    1    2    0    0 -0.35527136788E-14  0.00000000000E+00 -0.60529771343E+01  0.82866518831E+02  0.82645153584E+02 0.  0.
         66    2    3    3    0    0 -0.18375969938E+02 -0.20084238771E+02 -0.34167799573E+02  0.43732041410E+02  0.19999999996E+01 0.  0.
        -13    1    3    3    0    0  0.18375969938E+02  0.20084238771E+02  0.28114822439E+02  0.39134477421E+02  0.10566000000E+00 0.  1.
         13    1    4    4    0    0 -0.10053319674E+02 -0.10556823604E+02 -0.19708984799E+02  0.24514710011E+02  0.10566000000E+00 0. -1.
        -13    1    4    4    0    0 -0.33690628102E+01 -0.36897074273E+01 -0.59808798932E+01  0.77940113838E+01  0.10566000000E+00 0.  1.
        -14    1    4    4    0    0 -0.49535874535E+01 -0.58377077394E+01 -0.84779348808E+01  0.11423320015E+02  0.00000000000E+00 0.  1.
<mgrwt>
<rscale>  0 0.82645154E+02</rscale>
<asrwt>0</asrwt>
<pdfrwt beam="1">  1        2 0.68399612E-02 0.82645154E+02</pdfrwt>
<pdfrwt beam="2">  1       -1 0.59087340E-02 0.82645154E+02</pdfrwt>
<totfact> 0.13321338E+05</totfact>
</mgrwt>
</event>
<event>
 8    1  0.2603554E-020  0.7964553E+02  0.7818608E-02  0.1330060E+00
          2   -1    0    0  501    0  0.00000000000E+00  0.00000000000E+00  0.35703184519E+03  0.35703184520E+03  0.25500000000E-02 0. -1.
         -1   -1    0    0    0  501 -0.00000000000E+00 -0.00000000000E+00 -0.44417668632E+01  0.44417697226E+01  0.50400000000E-02 0.  1.
         24    2    1    2    0    0  0.17763568394E-14  0.00000000000E+00  0.35259007833E+03  0.36147361492E+03  0.79645533146E+02 0.  0.
         66    2    3    3    0    0 -0.15983847624E+02  0.12663042796E+02  0.33151553391E+03  0.33214813753E+03  0.20000011895E+01 0.  0.
        -13    1    3    3    0    0  0.15983847624E+02 -0.12663042796E+02  0.21074544419E+02  0.29325477392E+02  0.10566000000E+00 0.  1.
         13    1    4    4    0    0 -0.16975098468E+01  0.15733454879E+01  0.30025070359E+02  0.30114331634E+02  0.10566000000E+00 0.  1.
        -13    1    4    4    0    0 -0.37916618559E+01  0.24730427307E+01  0.77155611471E+02  0.77288370312E+02  0.10566000000E+00 0. -1.
         14    1    4    4    0    0 -0.10494675922E+02  0.86166545777E+01  0.22433485208E+03  0.22474543558E+03  0.00000000000E+00 0. -1.
<mgrwt>
<rscale>  0 0.79645533E+02</rscale>
<asrwt>0</asrwt>
<pdfrwt beam="1">  1        2 0.54927986E-01 0.79645533E+02</pdfrwt>
<pdfrwt beam="2">  1       -1 0.68334885E-03 0.79645533E+02</pdfrwt>
<totfact> 0.27458436E+05</totfact>
</mgrwt>
</event>
<event>
 8    1  0.2603554E-020  0.7723605E+02  0.7818608E-02  0.1337083E+00
         -1   -1    0    0    0  501 -0.00000000000E+00  0.00000000000E+00  0.33807707113E+03  0.33807707117E+03  0.50400000000E-02 0.  1.
          2   -1    0    0  501    0  0.00000000000E+00 -0.00000000000E+00 -0.44112773736E+01  0.44112781106E+01  0.25500000000E-02 0. -1.
         24    2    1    2    0    0  0.00000000000E+00  0.00000000000E+00  0.33366579376E+03  0.34248834928E+03  0.77236050315E+02 0.  0.
         66    2    3    3    0    0  0.36911554896E+02  0.63887517089E+01  0.12580614685E+03  0.13128010368E+03  0.20000008300E+01 0.  0.
        -13    1    3    3    0    0 -0.36911554896E+02 -0.63887517089E+01  0.20785964691E+03  0.21120824561E+03  0.10566000000E+00 0.  1.
         13    1    4    4    0    0  0.19955738113E+02  0.33093166886E+01  0.69094516543E+02  0.71994766761E+02  0.10566000000E+00 0. -1.
        -13    1    4    4    0    0  0.16188273417E+02  0.27353428585E+01  0.54494733610E+02  0.56914228906E+02  0.10566000000E+00 0.  1.
        -14    1    4    4    0    0  0.76754336580E+00  0.34409216183E+00  0.22168966940E+01  0.23711080081E+01  0.00000000000E+00 0.  1.
<mgrwt>
<rscale>  0 0.77236050E+02</rscale>
<asrwt>0</asrwt>
<pdfrwt beam="1">  1        2 0.67865788E-03 0.77236050E+02</pdfrwt>
<pdfrwt beam="2">  1       -1 0.52011875E-01 0.77236050E+02</pdfrwt>
<totfact> 0.89907355E+04</totfact>
</mgrwt>
</event>
<event>
 8    1  0.2603554E-020  0.8009123E+02  0.7818608E-02  0.1328793E+00
         -1   -1    0    0    0  501 -0.00000000000E+00  0.00000000000E+00  0.52299518730E+01  0.52299543014E+01  0.50400000000E-02 0.  1.
          2   -1    0    0  501    0  0.00000000000E+00 -0.00000000000E+00 -0.30662820516E+03  0.30662820517E+03  0.25500000000E-02 0. -1.
         24    2    1    2    0    0  0.00000000000E+00  0.00000000000E+00 -0.30139825328E+03  0.31185815947E+03  0.80091226391E+02 0.  0.
         66    2    3    3    0    0 -0.22822561242E+02 -0.16930899104E+02 -0.26052037928E+03  0.26207325821E+03  0.20000008089E+01 0.  0.
        -13    1    3    3    0    0  0.22822561242E+02  0.16930899104E+02 -0.40877874005E+02  0.49784901259E+02  0.10566000000E+00 0.  1.
         13    1    4    4    0    0 -0.18140704158E+02 -0.13116040924E+02 -0.20416641432E+03  0.20538999873E+03  0.10566000000E+00 0. -1.
        -13    1    4    4    0    0 -0.35045494163E+01 -0.27312273335E+01 -0.37785821492E+02  0.38046299941E+02  0.10566000000E+00 0.  1.
         14    1    4    4    0    0 -0.11773076682E+01 -0.10836308469E+01 -0.18568143465E+02  0.18636959540E+02  0.00000000000E+00 0. -1.
<mgrwt>
<rscale>  0 0.80091226E+02</rscale>
<asrwt>0</asrwt>
<pdfrwt beam="1">  1        2 0.47173556E-01 0.80091226E+02</pdfrwt>
<pdfrwt beam="2">  1       -1 0.80460841E-03 0.80091226E+02</pdfrwt>
<totfact> 0.25620263E+05</totfact>
</mgrwt>
</event>
<event>
 8    1  0.2603554E-020  0.7896556E+02  0.7818608E-02  0.1332013E+00
         -1   -1    0    0    0  501 -0.00000000000E+00  0.00000000000E+00  0.39870657481E+01  0.39870689336E+01  0.50400000000E-02 0.  1.
          2   -1    0    0  501    0  0.00000000000E+00 -0.00000000000E+00 -0.39098657267E+03  0.39098657268E+03  0.25500000000E-02 0. -1.
         24    2    1    2    0    0  0.00000000000E+00 -0.35527136788E-14 -0.38699950692E+03  0.39497364161E+03  0.78965557114E+02 0.  0.
         66    2    3    3    0    0 -0.30296611175E+02  0.22462577221E+02 -0.25161753676E+03  0.25443631193E+03  0.20000002857E+01 0.  0.
        -13    1    3    3    0    0  0.30296611175E+02 -0.22462577221E+02 -0.13538197017E+03  0.14053732968E+03  0.10566000000E+00 0.  1.
         13    1    4    4    0    0 -0.10081037583E+01  0.76115324314E+00 -0.80742873818E+01  0.81731822571E+01  0.10566000000E+00 0.  1.
        -13    1    4    4    0    0 -0.14589262416E+02  0.11470930881E+02 -0.11882805373E+03  0.12026864243E+03  0.10566000000E+00 0.  1.
         14    1    4    4    0    0 -0.14699245001E+02  0.10230493098E+02 -0.12471519564E+03  0.12599448725E+03  0.00000000000E+00 0. -1.
<mgrwt>
<rscale>  0 0.78965557E+02</rscale>
<asrwt>0</asrwt>
<pdfrwt beam="1">  1        2 0.60151750E-01 0.78965557E+02</pdfrwt>
<pdfrwt beam="2">  1       -1 0.61339529E-03 0.78965557E+02</pdfrwt>
<totfact> 0.28997664E+05</totfact>
</mgrwt>
</event>
<event>
 8    1  0.2603554E-020  0.7768185E+02  0.7818608E-02  0.1335762E+00
          2   -1    0    0  501    0  0.00000000000E+00  0.00000000000E+00  0.13952186062E+03  0.13952186064E+03  0.25500000000E-02 0. -1.
         -1   -1    0    0    0  501 -0.00000000000E+00 -0.00000000000E+00 -0.10812766480E+02  0.10812767654E+02  0.50400000000E-02 0.  1.
         24    2    1    2    0    0 -0.71054273576E-14 -0.17763568394E-14  0.12870909414E+03  0.15033462830E+03  0.77681848272E+02 0.  0.
         66    2    3    3    0    0 -0.36282189388E+02 -0.13537728713E+02  0.59296985423E+02  0.70850545827E+02  0.19999995718E+01 0.  0.
        -13    1    3    3    0    0  0.36282189388E+02  0.13537728713E+02  0.69412108719E+02  0.79484082472E+02  0.10566000000E+00 0.  1.
         13    1    4    4    0    0 -0.10151763424E+02 -0.43798121425E+01  0.16773956980E+02  0.20090242702E+02  0.10566000000E+00 0. -1.
        -13    1    4    4    0    0 -0.15145056219E+02 -0.58461673787E+01  0.25639416279E+02  0.30347013561E+02  0.10566000000E+00 0.  1.
         14    1    4    4    0    0 -0.10985369745E+02 -0.33117491917E+01  0.16883612164E+02  0.20413289565E+02  0.00000000000E+00 0. -1.
<mgrwt>
<rscale>  0 0.77681848E+02</rscale>
<asrwt>0</asrwt>
<pdfrwt beam="1">  1        2 0.21464901E-01 0.77681848E+02</pdfrwt>
<pdfrwt beam="2">  1       -1 0.16635027E-02 0.77681848E+02</pdfrwt>
<totfact> 0.21161204E+05</totfact>
</mgrwt>
</event>
<event>
 8    1  0.2603554E-020  0.8045093E+02  0.7818608E-02  0.1327777E+00
         -1   -1    0    0    0  501 -0.00000000000E+00  0.00000000000E+00  0.44012961147E+01  0.44012990004E+01  0.50400000000E-02 0.  1.
          2   -1    0    0  501    0  0.00000000000E+00 -0.00000000000E+00 -0.36763883036E+03  0.36763883037E+03  0.25500000000E-02 0. -1.
         24    2    1    2    0    0 -0.35527136788E-14 -0.35527136788E-14 -0.36323753425E+03  0.37204012937E+03  0.80450926512E+02 0.  0.
         66    2    3    3    0    0  0.21646401361E+02  0.17701341930E+02 -0.31529435084E+03  0.31653819970E+03  0.19999998411E+01 0.  0.
        -13    1    3    3    0    0 -0.21646401361E+02 -0.17701341930E+02 -0.47943183405E+02  0.55501929670E+02  0.10566000000E+00 0.  1.
         13    1    4    4    0    0  0.59079985208E+01  0.41169837920E+01 -0.82144094602E+02  0.82459186535E+02  0.10566000000E+00 0. -1.
        -13    1    4    4    0    0  0.37010820488E+01  0.25579089158E+01 -0.52898880596E+02  0.53089957984E+02  0.10566000000E+00 0.  1.
        -14    1    4    4    0    0  0.12037320791E+02  0.11026449223E+02 -0.18025137564E+03  0.18098905518E+03  0.00000000000E+00 0.  1.
<mgrwt>
<rscale>  0 0.80450927E+02</rscale>
<asrwt>0</asrwt>
<pdfrwt beam="1">  1        2 0.56559796E-01 0.80450927E+02</pdfrwt>
<pdfrwt beam="2">  1       -1 0.67712299E-03 0.80450927E+02</pdfrwt>
<totfact> 0.27024740E+05</totfact>
</mgrwt>
</event>
<event>
 8    1  0.2603554E-020  0.8067883E+02  0.7818608E-02  0.1327136E+00
          2   -1    0    0  501    0  0.00000000000E+00  0.00000000000E+00  0.15279108692E+03  0.15279108695E+03  0.25500000000E-02 0. -1.
         -1   -1    0    0    0  501 -0.00000000000E+00 -0.00000000000E+00 -0.10650281997E+02  0.10650283190E+02  0.50400000000E-02 0.  1.
         24    2    1    2    0    0  0.00000000000E+00  0.44408920985E-15  0.14214080493E+03  0.16344137014E+03  0.80678826505E+02 0.  0.
         66    2    3    3    0    0 -0.19594817789E+02 -0.34008752798E+01  0.14215496916E+03  0.14355332846E+03  0.20000045408E+01 0.  0.
        -13    1    3    3    0    0  0.19594817789E+02  0.34008752798E+01 -0.14164236701E-01  0.19888041671E+02  0.10566000000E+00 0.  1.
         13    1    4    4    0    0 -0.15090149743E+02 -0.25549890665E+01  0.10655721136E+03  0.10765078283E+03  0.10566000000E+00 0. -1.
        -13    1    4    4    0    0 -0.20292845914E+01 -0.66825408960E+00  0.13961129729E+02  0.14124052776E+02  0.10566000000E+00 0.  1.
         14    1    4    4    0    0 -0.24753834552E+01 -0.17763212367E+00  0.21636628078E+02  0.21778492854E+02  0.00000000000E+00 0. -1.
<mgrwt>
<rscale>  0 0.80678827E+02</rscale>
<asrwt>0</asrwt>
<pdfrwt beam="1">  1        2 0.23506319E-01 0.80678827E+02</pdfrwt>
<pdfrwt beam="2">  1       -1 0.16385051E-02 0.80678827E+02</pdfrwt>
<totfact> 0.19702897E+05</totfact>
</mgrwt>
</event>
<event>
 8    1  0.2603554E-020  0.7911371E+02  0.7818608E-02  0.1331586E+00
         -1   -1    0    0    0  501 -0.00000000000E+00  0.00000000000E+00  0.92476458995E+01  0.92476472729E+01  0.50400000000E-02 0.  1.
          2   -1    0    0  501    0  0.00000000000E+00 -0.00000000000E+00 -0.16920466680E+03  0.16920466682E+03  0.25500000000E-02 0. -1.
         24    2    1    2    0    0  0.00000000000E+00  0.00000000000E+00 -0.15995702090E+03  0.17845231410E+03  0.79113714801E+02 0.  0.
         66    2    3    3    0    0  0.15603230425E+02  0.34840032390E+02 -0.56866389532E+02  0.68520616677E+02  0.19999987002E+01 0.  0.
        -13    1    3    3    0    0 -0.15603230425E+02 -0.34840032390E+02 -0.10309063137E+03  0.10993169742E+03  0.10566000000E+00 0.  1.
         13    1    4    4    0    0  0.10470336570E+02  0.21369124747E+02 -0.35397995042E+02  0.42653213916E+02  0.10566000000E+00 0. -1.
        -13    1    4    4    0    0  0.32747176208E+01  0.78953549290E+01 -0.12387126662E+02  0.15050331423E+02  0.10566000000E+00 0.  1.
         14    1    4    4    0    0  0.18581762345E+01  0.55755527139E+01 -0.90812678270E+01  0.10817071338E+02  0.00000000000E+00 0. -1.
<mgrwt>
<rscale>  0 0.79113715E+02</rscale>
<asrwt>0</asrwt>
<pdfrwt beam="1">  1        2 0.26031485E-01 0.79113715E+02</pdfrwt>
<pdfrwt beam="2">  1       -1 0.14227150E-02 0.79113715E+02</pdfrwt>
<totfact> 0.21459976E+05</totfact>
</mgrwt>
</event>
<event>
 8    1  0.2603554E-020  0.7876199E+02  0.7818608E-02  0.1332602E+00
          2   -1    0    0  501    0  0.00000000000E+00  0.00000000000E+00  0.51645890332E+02  0.51645890395E+02  0.25500000000E-02 0. -1.
         -1   -1    0    0    0  501 -0.00000000000E+00 -0.00000000000E+00 -0.30028774274E+02  0.30028774697E+02  0.50400000000E-02 0.  1.
         24    2    1    2    0    0  0.17763568394E-14  0.00000000000E+00  0.21617116057E+02  0.81674665092E+02  0.78761990904E+02 0.  0.
         66    2    3    3    0    0  0.15564965782E+02 -0.27138431930E+02  0.35575150723E+02  0.47416811348E+02  0.20000005003E+01 0.  0.
        -13    1    3    3    0    0 -0.15564965782E+02  0.27138431930E+02 -0.13958034666E+02  0.34257853744E+02  0.10566000000E+00 0.  1.
         13    1    4    4    0    0  0.12450812282E+02 -0.22370198128E+02  0.29102553759E+02  0.38761040880E+02  0.10566000000E+00 0. -1.
        -13    1    4    4    0    0  0.31417443518E+01 -0.47625502514E+01  0.63832890420E+01  0.85621250574E+01  0.10566000000E+00 0.  1.
         14    1    4    4    0    0 -0.27590851752E-01 -0.56835498417E-02  0.89307922499E-01  0.93645410247E-01  0.00000000000E+00 0. -1.
<mgrwt>
<rscale>  0 0.78761991E+02</rscale>
<asrwt>0</asrwt>
<pdfrwt beam="1">  1        2 0.79455215E-02 0.78761991E+02</pdfrwt>
<pdfrwt beam="2">  1       -1 0.46198115E-02 0.78761991E+02</pdfrwt>
<totfact> 0.15704542E+05</totfact>
</mgrwt>
</event>
<event>
 8    1  0.2603554E-020  0.7995971E+02  0.7818608E-02  0.1329166E+00
          2   -1    0    0  501    0  0.00000000000E+00  0.00000000000E+00  0.11012333504E+03  0.11012333506E+03  0.25500000000E-02 0. -1.
         -1   -1    0    0    0  501 -0.00000000000E+00 -0.00000000000E+00 -0.14514532626E+02  0.14514533501E+02  0.50400000000E-02 0.  1.
         24    2    1    2    0    0  0.00000000000E+00 -0.88817841970E-15  0.95608802410E+02  0.12463786857E+03  0.79959709744E+02 0.  0.
         66    2    3    3    0    0 -0.95926805486E+01  0.66924869388E+01  0.10738562930E+03  0.10803926268E+03  0.19999997100E+01 0.  0.
        -13    1    3    3    0    0  0.95926805486E+01 -0.66924869388E+01 -0.11776826893E+02  0.16598605882E+02  0.10566000000E+00 0.  1.
         13    1    4    4    0    0 -0.71085409384E+01  0.47319558221E+01  0.77086817067E+02  0.77558437901E+02  0.10566000000E+00 0. -1.
        -13    1    4    4    0    0 -0.11226040388E+01  0.15052087266E+01  0.18323149526E+02  0.18419415455E+02  0.10566000000E+00 0.  1.
        -14    1    4    4    0    0 -0.13615355714E+01  0.45532239001E+00  0.11975662710E+02  0.12061409327E+02  0.00000000000E+00 0.  1.
<mgrwt>
<rscale>  0 0.79959710E+02</rscale>
<asrwt>0</asrwt>
<pdfrwt beam="1">  1        2 0.16942052E-01 0.79959710E+02</pdfrwt>
<pdfrwt beam="2">  1       -1 0.22330050E-02 0.79959710E+02</pdfrwt>
<totfact> 0.18244242E+05</totfact>
</mgrwt>
</event>
<event>
 8    1  0.2603554E-020  0.8090542E+02  0.7818608E-02  0.1326501E+00
          2   -1    0    0  501    0  0.00000000000E+00  0.00000000000E+00  0.60142689984E+03  0.60142689984E+03  0.25500000000E-02 0. -1.
         -1   -1    0    0    0  501 -0.00000000000E+00 -0.00000000000E+00 -0.27208967992E+01  0.27209014670E+01  0.50400000000E-02 0.  1.
         24    2    1    2    0    0 -0.35527136788E-14  0.00000000000E+00  0.59870600304E+03  0.60414780131E+03  0.80905424747E+02 0.  0.
         66    2    3    3    0    0 -0.21448752075E+02 -0.14164055081E+02  0.53255303285E+03  0.53317670824E+03  0.19999992231E+01 0.  0.
        -13    1    3    3    0    0  0.21448752075E+02  0.14164055081E+02  0.66152970195E+02  0.70971093070E+02  0.10566000000E+00 0.  1.
         13    1    4    4    0    0 -0.10516619690E+01 -0.67140480231E+00  0.20344937228E+02  0.20383434749E+02  0.10566000000E+00 0. -1.
        -13    1    4    4    0    0 -0.44523806820E+00 -0.36856145620E+00  0.93775805781E+01  0.93959702010E+01  0.10566000000E+00 0.  1.
         14    1    4    4    0    0 -0.19951852038E+02 -0.13124088822E+02  0.50283051504E+03  0.50339730329E+03  0.00000000000E+00 0. -1.
<mgrwt>
<rscale>  0 0.80905425E+02</rscale>
<asrwt>0</asrwt>
<pdfrwt beam="1">  1        2 0.92527086E-01 0.80905425E+02</pdfrwt>
<pdfrwt beam="2">  1       -1 0.41860046E-03 0.80905425E+02</pdfrwt>
<totfact> 0.31255391E+05</totfact>
</mgrwt>
</event>
<event>
 8    1  0.2603554E-020  0.8071378E+02  0.7818608E-02  0.1327038E+00
          2   -1    0    0  501    0  0.00000000000E+00  0.00000000000E+00  0.38617007492E+03  0.38617007493E+03  0.25500000000E-02 0. -1.
         -1   -1    0    0    0  501 -0.00000000000E+00 -0.00000000000E+00 -0.42175142413E+01  0.42175172527E+01  0.50400000000E-02 0.  1.
         24    2    1    2    0    0  0.00000000000E+00  0.00000000000E+00  0.38195256068E+03  0.39038759218E+03  0.80713775280E+02 0.  0.
         66    2    3    3    0    0  0.38735972237E+02 -0.35374257672E+01  0.24266342694E+03  0.24576925701E+03  0.19999975647E+01 0.  0.
        -13    1    3    3    0    0 -0.38735972237E+02  0.35374257672E+01  0.13928913374E+03  0.14461833517E+03  0.10566000000E+00 0.  1.
         13    1    4    4    0    0  0.27701892706E+02 -0.28341664642E+01  0.17539554783E+03  0.17759233295E+03  0.10566000000E+00 0. -1.
        -13    1    4    4    0    0  0.30323924927E+01 -0.28817202628E-01  0.20836012927E+02  0.21055802844E+02  0.10566000000E+00 0.  1.
         14    1    4    4    0    0  0.80016870388E+01 -0.67444210043E+00  0.46431866189E+02  0.47121121224E+02  0.00000000000E+00 0. -1.
<mgrwt>
<rscale>  0 0.80713775E+02</rscale>
<asrwt>0</asrwt>
<pdfrwt beam="1">  1        2 0.59410814E-01 0.80713775E+02</pdfrwt>
<pdfrwt beam="2">  1       -1 0.64884821E-03 0.80713775E+02</pdfrwt>
<totfact> 0.27266081E+05</totfact>
</mgrwt>
</event>
<event>
 8    1  0.2603554E-020  0.7962276E+02  0.7818608E-02  0.1330125E+00
         -1   -1    0    0    0  501 -0.00000000000E+00  0.00000000000E+00  0.32087717812E+01  0.32087757393E+01  0.50400000000E-02 0.  1.
          2   -1    0    0  501    0  0.00000000000E+00 -0.00000000000E+00 -0.49394129691E+03  0.49394129691E+03  0.25500000000E-02 0. -1.
         24    2    1    2    0    0  0.35527136788E-14  0.00000000000E+00 -0.49073252513E+03  0.49715007265E+03  0.79622757566E+02 0.  0.
         66    2    3    3    0    0  0.23943563380E+02  0.23860487700E+02 -0.37654027612E+03  0.37805977918E+03  0.19999995895E+01 0.  0.
        -13    1    3    3    0    0 -0.23943563380E+02 -0.23860487700E+02 -0.11419224901E+03  0.11909029347E+03  0.10566000000E+00 0.  1.
         13    1    4    4    0    0  0.11522782190E+02  0.10753538003E+02 -0.17497935874E+03  0.17568779194E+03  0.10566000000E+00 0. -1.
        -13    1    4    4    0    0  0.43614104655E+01  0.53513363654E+01 -0.73544014285E+02  0.73867394047E+02  0.10566000000E+00 0.  1.
        -14    1    4    4    0    0  0.80593707248E+01  0.77556133312E+01 -0.12801690309E+03  0.12850459319E+03  0.00000000000E+00 0.  1.
<mgrwt>
<rscale>  0 0.79622758E+02</rscale>
<asrwt>0</asrwt>
<pdfrwt beam="1">  1        2 0.75990909E-01 0.79622758E+02</pdfrwt>
<pdfrwt beam="2">  1       -1 0.49365790E-03 0.79622758E+02</pdfrwt>
<totfact> 0.30708789E+05</totfact>
</mgrwt>
</event>
<event>
 8    1  0.2603554E-020  0.8036733E+02  0.7818608E-02  0.1328012E+00
         -1   -1    0    0    0  501 -0.00000000000E+00  0.00000000000E+00  0.31851130984E+02  0.31851131383E+02  0.50400000000E-02 0.  1.
          2   -1    0    0  501    0  0.00000000000E+00 -0.00000000000E+00 -0.50696064803E+02  0.50696064867E+02  0.25500000000E-02 0. -1.
         24    2    1    2    0    0  0.00000000000E+00  0.00000000000E+00 -0.18844933819E+02  0.82547196250E+02  0.80367332157E+02 0.  0.
         66    2    3    3    0    0  0.35677614786E+02  0.10601906723E+02 -0.24918096556E+02  0.44835300347E+02  0.19999995654E+01 0.  0.
        -13    1    3    3    0    0 -0.35677614786E+02 -0.10601906723E+02  0.60731627365E+01  0.37711895903E+02  0.10566000000E+00 0.  1.
         13    1    4    4    0    0  0.19740700270E+02  0.64996274631E+01 -0.13975594151E+02  0.25045334899E+02  0.10566000000E+00 0. -1.
        -13    1    4    4    0    0  0.84850205996E+01  0.22387730300E+01 -0.64496993045E+01  0.10891164511E+02  0.10566000000E+00 0.  1.
         14    1    4    4    0    0  0.74518939163E+01  0.18635062299E+01 -0.44928031004E+01  0.88988009365E+01  0.00000000000E+00 0. -1.
<mgrwt>
<rscale>  0 0.80367332E+02</rscale>
<asrwt>0</asrwt>
<pdfrwt beam="1">  1        2 0.77993946E-02 0.80367332E+02</pdfrwt>
<pdfrwt beam="2">  1       -1 0.49001741E-02 0.80367332E+02</pdfrwt>
<totfact> 0.14801255E+05</totfact>
</mgrwt>
</event>
<event>
 8    1  0.2603554E-020  0.7860838E+02  0.7818608E-02  0.1333048E+00
         -1   -1    0    0    0  501 -0.00000000000E+00  0.00000000000E+00  0.83452333304E+01  0.83452348524E+01  0.50400000000E-02 0.  1.
          2   -1    0    0  501    0  0.00000000000E+00 -0.00000000000E+00 -0.18511394240E+03  0.18511394242E+03  0.25500000000E-02 0. -1.
         24    2    1    2    0    0  0.35527136788E-14 -0.24286128664E-16 -0.17676870907E+03  0.19345917727E+03  0.78608375915E+02 0.  0.
         66    2    3    3    0    0  0.24522252804E+02  0.12124693788E-01 -0.16395489071E+03  0.16579067289E+03  0.20000003038E+01 0.  0.
        -13    1    3    3    0    0 -0.24522252804E+02 -0.12124693788E-01 -0.12813818366E+02  0.27668504382E+02  0.10566000000E+00 0.  1.
         13    1    4    4    0    0  0.63401380086E+01 -0.69515369199E+00 -0.40780490155E+02  0.41276387074E+02  0.10566000000E+00 0. -1.
        -13    1    4    4    0    0  0.37387378222E+01  0.19507064182E+00 -0.23090005061E+02  0.23391787251E+02  0.10566000000E+00 0. -1.
         14    1    4    4    0    0  0.14443376974E+02  0.51220774396E+00 -0.10008439549E+03  0.10112249856E+03  0.00000000000E+00 0. -1.
<mgrwt>
<rscale>  0 0.78608376E+02</rscale>
<asrwt>0</asrwt>
<pdfrwt beam="1">  1        2 0.28479065E-01 0.78608376E+02</pdfrwt>
<pdfrwt beam="2">  1       -1 0.12838823E-02 0.78608376E+02</pdfrwt>
<totfact> 0.22496845E+05</totfact>
</mgrwt>
</event>
<event>
 8    1  0.2603554E-020  0.7781926E+02  0.7818608E-02  0.1335356E+00
          2   -1    0    0  501    0  0.00000000000E+00  0.00000000000E+00  0.21105764527E+01  0.21105779931E+01  0.25500000000E-02 0. -1.
         -1   -1    0    0    0  501 -0.00000000000E+00 -0.00000000000E+00 -0.71731998529E+03  0.71731998531E+03  0.50400000000E-02 0.  1.
         24    2    1    2    0    0  0.00000000000E+00  0.71054273576E-14 -0.71520940883E+03  0.71943056330E+03  0.77819258040E+02 0.  0.
         66    2    3    3    0    0  0.62390565804E+01  0.34181539417E+02 -0.51920288956E+03  0.52036808510E+03  0.19999999693E+01 0.  0.
        -13    1    3    3    0    0 -0.62390565804E+01 -0.34181539417E+02 -0.19600651928E+03  0.19906247820E+03  0.10566000000E+00 0.  1.
         13    1    4    4    0    0  0.50749780816E+00  0.41363425348E+01 -0.65251569121E+02  0.65384595436E+02  0.10566000000E+00 0. -1.
        -13    1    4    4    0    0  0.20863009350E+01  0.84624300556E+01 -0.13769965122E+03  0.13797525316E+03  0.10566000000E+00 0.  1.
         14    1    4    4    0    0  0.36452578372E+01  0.21582766827E+02 -0.31625166922E+03  0.31700823651E+03  0.00000000000E+00 0. -1.
<mgrwt>
<rscale>  0 0.77819258E+02</rscale>
<asrwt>0</asrwt>
<pdfrwt beam="1">  1        2 0.32470476E-03 0.77819258E+02</pdfrwt>
<pdfrwt beam="2">  1       -1 0.11035673E+00 0.77819258E+02</pdfrwt>
<totfact> 0.54897884E+04</totfact>
</mgrwt>
</event>
<event>
 8    1  0.2603554E-020  0.7952152E+02  0.7818608E-02  0.1330415E+00
          2   -1    0    0  501    0  0.00000000000E+00  0.00000000000E+00  0.97902521201E+02  0.97902521234E+02  0.25500000000E-02 0. -1.
         -1   -1    0    0    0  501 -0.00000000000E+00 -0.00000000000E+00 -0.16147879495E+02  0.16147880282E+02  0.50400000000E-02 0.  1.
         24    2    1    2    0    0  0.35527136788E-14  0.00000000000E+00  0.81754641706E+02  0.11405040152E+03  0.79521523159E+02 0.  0.
         66    2    3    3    0    0 -0.25452186156E+02  0.29668838132E+02  0.51131277866E+02  0.64393022275E+02  0.20000013056E+01 0.  0.
        -13    1    3    3    0    0  0.25452186156E+02 -0.29668838132E+02  0.30623363840E+02  0.49657379241E+02  0.10566000000E+00 0.  1.
         13    1    4    4    0    0 -0.12392559033E+02  0.13526541198E+02  0.23788505091E+02  0.30040755228E+02  0.10566000000E+00 0. -1.
        -13    1    4    4    0    0 -0.19829674107E+01  0.25532440726E+01  0.36229427701E+01  0.48567574983E+01  0.10566000000E+00 0.  1.
        -14    1    4    4    0    0 -0.11076659712E+02  0.13589052861E+02  0.23719830006E+02  0.29495509549E+02  0.00000000000E+00 0.  1.
<mgrwt>
<rscale>  0 0.79521523E+02</rscale>
<asrwt>0</asrwt>
<pdfrwt beam="1">  1        2 0.15061927E-01 0.79521523E+02</pdfrwt>
<pdfrwt beam="2">  1       -1 0.24842892E-02 0.79521523E+02</pdfrwt>
<totfact> 0.17906931E+05</totfact>
</mgrwt>
</event>
<event>
 8    1  0.2603554E-020  0.7952914E+02  0.7818608E-02  0.1330393E+00
          2   -1    0    0  501    0  0.00000000000E+00  0.00000000000E+00  0.51421123843E+03  0.51421123844E+03  0.25500000000E-02 0. -1.
         -1   -1    0    0    0  501 -0.00000000000E+00 -0.00000000000E+00 -0.30750395022E+01  0.30750436325E+01  0.50400000000E-02 0.  1.
         24    2    1    2    0    0  0.00000000000E+00 -0.35527136788E-14  0.51113619893E+03  0.51728628207E+03  0.79529137819E+02 0.  0.
         66    2    3    3    0    0  0.58893802191E+01  0.25034262857E+02  0.45278211867E+03  0.45351631294E+03  0.19999994654E+01 0.  0.
        -13    1    3    3    0    0 -0.58893802191E+01 -0.25034262857E+02  0.58354080261E+02  0.63769969134E+02  0.10566000000E+00 0.  1.
         13    1    4    4    0    0  0.17771263775E+01  0.89292414125E+01  0.15896053604E+03  0.15922108124E+03  0.10566000000E+00 0. -1.
        -13    1    4    4    0    0 -0.93027852226E-01  0.59986972710E+00  0.91997138004E+01  0.92203251524E+01  0.10566000000E+00 0. -1.
        -14    1    4    4    0    0  0.42052816939E+01  0.15505151717E+02  0.28462186883E+03  0.28507490655E+03  0.00000000000E+00 0.  1.
<mgrwt>
<rscale>  0 0.79529138E+02</rscale>
<asrwt>0</asrwt>
<pdfrwt beam="1">  1        2 0.79109456E-01 0.79529138E+02</pdfrwt>
<pdfrwt beam="2">  1       -1 0.47308311E-03 0.79529138E+02</pdfrwt>
<totfact> 0.31198311E+05</totfact>
</mgrwt>
</event>
<event>
 8    1  0.2603554E-020  0.7985248E+02  0.7818608E-02  0.1329471E+00
          2   -1    0    0  501    0  0.00000000000E+00  0.00000000000E+00  0.12010469745E+04  0.12010469745E+04  0.25500000000E-02 0. -1.
         -1   -1    0    0    0  501 -0.00000000000E+00 -0.00000000000E+00 -0.13272578159E+01  0.13272673851E+01  0.50400000000E-02 0.  1.
         24    2    1    2    0    0  0.00000000000E+00  0.00000000000E+00  0.11997197167E+04  0.12023742419E+04  0.79852482458E+02 0.  0.
         66    2    3    3    0    0  0.87606763320E+01  0.21609882150E+02  0.10877716250E+04  0.10880233659E+04  0.20000019403E+01 0.  0.
        -13    1    3    3    0    0 -0.87606763320E+01 -0.21609882150E+02  0.11194809163E+03  0.11435087599E+03  0.10566000000E+00 0.  1.
         13    1    4    4    0    0  0.37196583453E+01  0.86652194990E+01  0.44881236060E+03  0.44891142564E+03  0.10566000000E+00 0. -1.
        -13    1    4    4    0    0  0.34096665711E+01  0.93281184838E+01  0.42650937643E+03  0.42662500978E+03  0.10566000000E+00 0.  1.
        -14    1    4    4    0    0  0.16313514156E+01  0.36165441674E+01  0.21244988802E+03  0.21248693047E+03  0.00000000000E+00 0.  1.
<mgrwt>
<rscale>  0 0.79852482E+02</rscale>
<asrwt>0</asrwt>
<pdfrwt beam="1">  1        2 0.18477609E+00 0.79852482E+02</pdfrwt>
<pdfrwt beam="2">  1       -1 0.20419466E-03 0.79852482E+02</pdfrwt>
<totfact> 0.35202965E+05</totfact>
</mgrwt>
</event>
<event>
 8    1  0.2603554E-020  0.7800028E+02  0.7818608E-02  0.1334824E+00
          2   -1    0    0  501    0  0.00000000000E+00  0.00000000000E+00  0.54868369498E+01  0.54868375423E+01  0.25500000000E-02 0. -1.
         -1   -1    0    0    0  501 -0.00000000000E+00 -0.00000000000E+00 -0.27721087196E+03  0.27721087200E+03  0.50400000000E-02 0.  1.
         24    2    1    2    0    0  0.00000000000E+00  0.00000000000E+00 -0.27172403501E+03  0.28269770955E+03  0.78000280650E+02 0.  0.
         66    2    3    3    0    0  0.26709193809E+01  0.38876332721E+02 -0.13852144964E+03  0.14391210882E+03  0.19999996025E+01 0.  0.
        -13    1    3    3    0    0 -0.26709193809E+01 -0.38876332721E+02 -0.13320258537E+03  0.13878560073E+03  0.10566000000E+00 0.  1.
         13    1    4    4    0    0  0.18214494430E+01  0.26794578368E+02 -0.97243037350E+02  0.10088352980E+03  0.10566000000E+00 0. -1.
        -13    1    4    4    0    0  0.27082405836E+00  0.46339638095E+01 -0.17407789815E+02  0.18016361357E+02  0.10566000000E+00 0.  1.
         14    1    4    4    0    0  0.57864587956E+00  0.74477905438E+01 -0.23870622475E+02  0.25012217662E+02  0.00000000000E+00 0. -1.
<mgrwt>
<rscale>  0 0.78000281E+02</rscale>
<asrwt>0</asrwt>
<pdfrwt beam="1">  1        2 0.84412902E-03 0.78000281E+02</pdfrwt>
<pdfrwt beam="2">  1       -1 0.42647816E-01 0.78000281E+02</pdfrwt>
<totfact> 0.95128072E+04</totfact>
</mgrwt>
</event>
<event>
 8    1  0.2603554E-020  0.8413383E+02  0.7818608E-02  0.1317713E+00
          2   -1    0    0  501    0  0.00000000000E+00  0.00000000000E+00  0.10445060752E+03  0.10445060755E+03  0.25500000000E-02 0. -1.
         -1   -1    0    0    0  501 -0.00000000000E+00 -0.00000000000E+00 -0.16942222827E+02  0.16942223576E+02  0.50400000000E-02 0.  1.
         24    2    1    2    0    0 -0.71054273576E-14  0.35527136788E-14  0.87508384691E+02  0.12139283113E+03  0.84133834201E+02 0.  0.
         66    2    3    3    0    0  0.36007442350E+02 -0.21191475967E+02  0.37010354581E+02  0.55851418513E+02  0.20000113594E+01 0.  0.
        -13    1    3    3    0    0 -0.36007442350E+02  0.21191475967E+02  0.50498030110E+02  0.65541412613E+02  0.10566000000E+00 0.  1.
         13    1    4    4    0    0  0.97256226963E+01 -0.51364791464E+01  0.10391385869E+02  0.15131530628E+02  0.10566000000E+00 0. -1.
        -13    1    4    4    0    0  0.15721785100E+02 -0.90911975984E+01  0.16003158970E+02  0.24206128595E+02  0.10566000000E+00 0. -1.
         14    1    4    4    0    0  0.10560034554E+02 -0.69637992225E+01  0.10615809743E+02  0.16513759290E+02  0.00000000000E+00 0. -1.
<mgrwt>
<rscale>  0 0.84133834E+02</rscale>
<asrwt>0</asrwt>
<pdfrwt beam="1">  1        2 0.16069324E-01 0.84133834E+02</pdfrwt>
<pdfrwt beam="2">  1       -1 0.26064959E-02 0.84133834E+02</pdfrwt>
<totfact> 0.15675428E+05</totfact>
</mgrwt>
</event>
<event>
 8    1  0.2603554E-020  0.7902812E+02  0.7818608E-02  0.1331832E+00
          2   -1    0    0  501    0  0.00000000000E+00  0.00000000000E+00  0.18723126381E+04  0.18723126381E+04  0.25500000000E-02 0. -1.
         -1   -1    0    0    0  501 -0.00000000000E+00 -0.00000000000E+00 -0.83391347401E+00  0.83392870423E+00  0.50400000000E-02 0.  1.
         24    2    1    2    0    0  0.00000000000E+00  0.00000000000E+00  0.18714787246E+04  0.18731465668E+04  0.79028121635E+02 0.  0.
         66    2    3    3    0    0 -0.13099205930E+02  0.24975017950E+01  0.18173253351E+04  0.18173753603E+04  0.20000001498E+01 0.  0.
        -13    1    3    3    0    0  0.13099205930E+02 -0.24975017950E+01  0.54153389463E+02  0.55771206420E+02  0.10566000000E+00 0.  1.
         13    1    4    4    0    0 -0.57486708259E+01  0.13539297794E+01  0.72809448768E+03  0.72811844813E+03  0.10566000000E+00 0. -1.
        -13    1    4    4    0    0 -0.59929111813E+01  0.10886865864E+01  0.94622792928E+03  0.94624753925E+03  0.10566000000E+00 0.  1.
        -14    1    4    4    0    0 -0.13576239225E+01  0.54885429245E-01  0.14300291816E+03  0.14300937297E+03  0.00000000000E+00 0.  1.
<mgrwt>
<rscale>  0 0.79028122E+02</rscale>
<asrwt>0</asrwt>
<pdfrwt beam="1">  1        2 0.28804692E+00 0.79028122E+02</pdfrwt>
<pdfrwt beam="2">  1       -1 0.12829608E-03 0.79028122E+02</pdfrwt>
<totfact> 0.30310077E+05</totfact>
</mgrwt>
</event>
<event>
 8    1  0.2603554E-020  0.7550311E+02  0.7818608E-02  0.1342320E+00
          2   -1    0    0  501    0  0.00000000000E+00  0.00000000000E+00  0.87841121306E+02  0.87841121343E+02  0.25500000000E-02 0. -1.
         -1   -1    0    0    0  501 -0.00000000000E+00 -0.00000000000E+00 -0.16224518567E+02  0.16224519350E+02  0.50400000000E-02 0.  1.
         24    2    1    2    0    0 -0.17763568394E-14  0.00000000000E+00  0.71616602739E+02  0.10406564069E+03  0.75503111094E+02 0.  0.
         66    2    3    3    0    0  0.12046561813E+02 -0.25287993451E+02  0.70662895391E+02  0.76038457709E+02  0.20000003508E+01 0.  0.
        -13    1    3    3    0    0 -0.12046561813E+02  0.25287993451E+02  0.95370734767E+00  0.28027182984E+02  0.10566000000E+00 0.  1.
         13    1    4    4    0    0  0.10163379615E+02 -0.21509307194E+02  0.59908181147E+02  0.64458869937E+02  0.10566000000E+00 0. -1.
        -13    1    4    4    0    0  0.18758697545E+01 -0.37932310205E+01  0.10455060547E+02  0.11279492187E+02  0.10566000000E+00 0.  1.
        -14    1    4    4    0    0  0.73124430458E-02  0.14544764294E-01  0.29965369703E+00  0.30009558500E+00  0.00000000000E+00 0.  1.
<mgrwt>
<rscale>  0 0.75503111E+02</rscale>
<asrwt>0</asrwt>
<pdfrwt beam="1">  1        2 0.13514019E-01 0.75503111E+02</pdfrwt>
<pdfrwt beam="2">  1       -1 0.24960798E-02 0.75503111E+02</pdfrwt>
<totfact> 0.19977107E+05</totfact>
</mgrwt>
</event>
<event>
 8    1  0.2603554E-020  0.8066949E+02  0.7818608E-02  0.1327162E+00
         -1   -1    0    0    0  501 -0.00000000000E+00  0.00000000000E+00  0.32778614182E+01  0.32778652929E+01  0.50400000000E-02 0.  1.
          2   -1    0    0  501    0  0.00000000000E+00 -0.00000000000E+00 -0.49632690229E+03  0.49632690229E+03  0.25500000000E-02 0. -1.
         24    2    1    2    0    0  0.00000000000E+00 -0.35527136788E-14 -0.49304904087E+03  0.49960476759E+03  0.80669492954E+02 0.  0.
         66    2    3    3    0    0 -0.53801009127E+01 -0.21009939446E+02 -0.45711097274E+03  0.45762954934E+03  0.19999989646E+01 0.  0.
        -13    1    3    3    0    0  0.53801009127E+01  0.21009939446E+02 -0.35938068132E+02  0.41975218242E+02  0.10566000000E+00 0.  1.
         13    1    4    4    0    0 -0.11628326645E+01 -0.33037678980E+01 -0.74602854781E+02  0.74685100038E+02  0.10566000000E+00 0. -1.
        -13    1    4    4    0    0 -0.91243426570E+00 -0.28229035373E+01 -0.51616703730E+02  0.51701997917E+02  0.10566000000E+00 0.  1.
        -14    1    4    4    0    0 -0.33048339825E+01 -0.14883268010E+02 -0.33089141423E+03  0.33124245139E+03  0.00000000000E+00 0.  1.
<mgrwt>
<rscale>  0 0.80669493E+02</rscale>
<asrwt>0</asrwt>
<pdfrwt beam="1">  1        2 0.76357925E-01 0.80669493E+02</pdfrwt>
<pdfrwt beam="2">  1       -1 0.50428707E-03 0.80669493E+02</pdfrwt>
<totfact> 0.29726685E+05</totfact>
</mgrwt>
</event>
<event>
 8    1  0.2603554E-020  0.8120697E+02  0.7818608E-02  0.1325661E+00
         -1   -1    0    0    0  501 -0.00000000000E+00  0.00000000000E+00  0.75533618150E+01  0.75533634965E+01  0.50400000000E-02 0.  1.
          2   -1    0    0  501    0  0.00000000000E+00 -0.00000000000E+00 -0.21826607178E+03  0.21826607180E+03  0.25500000000E-02 0. -1.
         24    2    1    2    0    0  0.00000000000E+00  0.00000000000E+00 -0.21071270997E+03  0.22581943529E+03  0.81206965308E+02 0.  0.
         66    2    3    3    0    0  0.38892537843E+02  0.22370971861E+01 -0.13700422863E+03  0.14244926384E+03  0.20000003083E+01 0.  0.
        -13    1    3    3    0    0 -0.38892537843E+02 -0.22370971861E+01 -0.73708481335E+02  0.83370171455E+02  0.10566000000E+00 0.  1.
         13    1    4    4    0    0  0.74688395055E+00  0.25730658396E+00 -0.29557206631E+01  0.30612891056E+01  0.10566000000E+00 0.  1.
        -13    1    4    4    0    0  0.31865654992E+02  0.19967109615E+01 -0.11249421255E+03  0.11693744415E+03  0.10566000000E+00 0. -1.
        -14    1    4    4    0    0  0.62799989005E+01 -0.16920359442E-01 -0.21554295417E+02  0.22450530582E+02  0.00000000000E+00 0.  1.
<mgrwt>
<rscale>  0 0.81206965E+02</rscale>
<asrwt>0</asrwt>
<pdfrwt beam="1">  1        2 0.33579391E-01 0.81206965E+02</pdfrwt>
<pdfrwt beam="2">  1       -1 0.11620560E-02 0.81206965E+02</pdfrwt>
<totfact> 0.21863153E+05</totfact>
</mgrwt>
</event>
<event>
 8    1  0.2603554E-020  0.7321952E+02  0.7818608E-02  0.1349475E+00
          2   -1    0    0  501    0  0.00000000000E+00  0.00000000000E+00  0.77744622433E+02  0.77744622475E+02  0.25500000000E-02 0. -1.
         -1   -1    0    0    0  501 -0.00000000000E+00 -0.00000000000E+00 -0.17239449878E+02  0.17239450615E+02  0.50400000000E-02 0.  1.
         24    2    1    2    0    0  0.00000000000E+00  0.88817841970E-15  0.60505172554E+02  0.94984073090E+02  0.73219520859E+02 0.  0.
         66    2    3    3    0    0 -0.35871252309E+02  0.68352904730E+01  0.33117755578E+02  0.49338156397E+02  0.20000010301E+01 0.  0.
        -13    1    3    3    0    0  0.35871252309E+02 -0.68352904730E+01  0.27387416977E+02  0.45645916693E+02  0.10566000000E+00 0.  1.
         13    1    4    4    0    0 -0.20964374037E+02  0.47136020901E+01  0.19659171319E+02  0.29124168734E+02  0.10566000000E+00 0. -1.
        -13    1    4    4    0    0 -0.29028052321E+01  0.40193562376E+00  0.30768624487E+01  0.42504208057E+01  0.10566000000E+00 0.  1.
        -14    1    4    4    0    0 -0.12004073039E+02  0.17197527592E+01  0.10381721809E+02  0.15963566858E+02  0.00000000000E+00 0.  1.
<mgrwt>
<rscale>  0 0.73219521E+02</rscale>
<asrwt>0</asrwt>
<pdfrwt beam="1">  1        2 0.11960711E-01 0.73219521E+02</pdfrwt>
<pdfrwt beam="2">  1       -1 0.26522231E-02 0.73219521E+02</pdfrwt>
<totfact> 0.21016144E+05</totfact>
</mgrwt>
</event>
<event>
 8    1  0.2603554E-020  0.7958756E+02  0.7818608E-02  0.1330226E+00
          2   -1    0    0  501    0  0.00000000000E+00  0.00000000000E+00  0.14421464602E+02  0.14421464828E+02  0.25500000000E-02 0. -1.
         -1   -1    0    0    0  501 -0.00000000000E+00 -0.00000000000E+00 -0.10980472792E+03  0.10980472804E+03  0.50400000000E-02 0.  1.
         24    2    1    2    0    0 -0.22204460493E-15  0.35527136788E-14 -0.95383263318E+02  0.12422619286E+03  0.79587562295E+02 0.  0.
         66    2    3    3    0    0  0.13866186314E+01  0.30918597478E+02 -0.87417293956E+01  0.32222666052E+02  0.19999983675E+01 0.  0.
        -13    1    3    3    0    0 -0.13866186314E+01 -0.30918597478E+02 -0.86641533922E+02  0.92003526811E+02  0.10566000000E+00 0.  1.
         13    1    4    4    0    0  0.12650620662E+01  0.25180124069E+02 -0.71399772946E+01  0.26203615590E+02  0.10566000000E+00 0. -1.
        -13    1    4    4    0    0  0.96268990223E-01  0.28877479285E+01 -0.37510596768E+00  0.29155144211E+01  0.10566000000E+00 0.  1.
        -14    1    4    4    0    0  0.25287575024E-01  0.28507254800E+01 -0.12266461334E+01  0.31035360414E+01  0.00000000000E+00 0.  1.
<mgrwt>
<rscale>  0 0.79587562E+02</rscale>
<asrwt>0</asrwt>
<pdfrwt beam="1">  1        2 0.22186870E-02 0.79587562E+02</pdfrwt>
<pdfrwt beam="2">  1       -1 0.16893035E-01 0.79587562E+02</pdfrwt>
<totfact> 0.11765332E+05</totfact>
</mgrwt>
</event>
<event>
 8    1  0.2603554E-020  0.8036884E+02  0.7818608E-02  0.1328008E+00
         -1   -1    0    0    0  501 -0.00000000000E+00  0.00000000000E+00  0.17532342444E+03  0.17532342451E+03  0.50400000000E-02 0.  1.
          2   -1    0    0  501    0  0.00000000000E+00 -0.00000000000E+00 -0.92103362180E+01  0.92103365710E+01  0.25500000000E-02 0. -1.
         24    2    1    2    0    0  0.00000000000E+00 -0.35527136788E-14  0.16611308822E+03  0.18453376108E+03  0.80368842848E+02 0.  0.
         66    2    3    3    0    0 -0.19748788364E+02  0.26408730403E+02  0.30480509879E+02  0.44949939831E+02  0.19999812573E+01 0.  0.
        -13    1    3    3    0    0  0.19748788364E+02 -0.26408730403E+02  0.13563257834E+03  0.13958382125E+03  0.10566000000E+00 0.  1.
         13    1    4    4    0    0 -0.94489090000E+01  0.11718933634E+02  0.14362203282E+02  0.20806233055E+02  0.10566000000E+00 0. -1.
        -13    1    4    4    0    0 -0.76936983726E+01  0.11342441030E+02  0.12860068928E+02  0.18794586988E+02  0.10566000000E+00 0.  1.
        -14    1    4    4    0    0 -0.26061809911E+01  0.33473557393E+01  0.32582376689E+01  0.53491197885E+01  0.00000000000E+00 0.  1.
<mgrwt>
<rscale>  0 0.80368843E+02</rscale>
<asrwt>0</asrwt>
<pdfrwt beam="1">  1        2 0.14169749E-02 0.80368843E+02</pdfrwt>
<pdfrwt beam="2">  1       -1 0.26972833E-01 0.80368843E+02</pdfrwt>
<totfact> 0.10228493E+05</totfact>
</mgrwt>
</event>
<event>
 8    1  0.2603554E-020  0.8174221E+02  0.7818608E-02  0.1324179E+00
         -1   -1    0    0    0  501 -0.00000000000E+00  0.00000000000E+00  0.13328283810E+02  0.13328284763E+02  0.50400000000E-02 0.  1.
          2   -1    0    0  501    0  0.00000000000E+00 -0.00000000000E+00 -0.12533101274E+03  0.12533101276E+03  0.25500000000E-02 0. -1.
         24    2    1    2    0    0  0.00000000000E+00  0.00000000000E+00 -0.11200272893E+03  0.13865929753E+03  0.81742213717E+02 0.  0.
         66    2    3    3    0    0  0.10228394471E+02 -0.27919431965E+02 -0.10354111291E+03  0.10774449776E+03  0.20000004181E+01 0.  0.
        -13    1    3    3    0    0 -0.10228394471E+02  0.27919431965E+02 -0.84616160207E+01  0.30914799763E+02  0.10566000000E+00 0.  1.
         13    1    4    4    0    0  0.47382362976E+01 -0.11509382231E+02 -0.40983665242E+02  0.42832099449E+02  0.10566000000E+00 0. -1.
        -13    1    4    4    0    0  0.45031993597E+01 -0.13421711466E+02 -0.49888005423E+02  0.51857934709E+02  0.10566000000E+00 0.  1.
         14    1    4    4    0    0  0.98695881377E+00 -0.29883382680E+01 -0.12669442240E+02  0.13054463604E+02  0.00000000000E+00 0. -1.
<mgrwt>
<rscale>  0 0.81742214E+02</rscale>
<asrwt>0</asrwt>
<pdfrwt beam="1">  1        2 0.19281694E-01 0.81742214E+02</pdfrwt>
<pdfrwt beam="2">  1       -1 0.20505054E-02 0.81742214E+02</pdfrwt>
<totfact> 0.17876024E+05</totfact>
</mgrwt>
</event>
<event>
 8    1  0.2603554E-020  0.8054159E+02  0.7818608E-02  0.1327521E+00
         -1   -1    0    0    0  501 -0.00000000000E+00  0.00000000000E+00  0.16140919942E+03  0.16140919949E+03  0.50400000000E-02 0.  1.
          2   -1    0    0  501    0  0.00000000000E+00 -0.00000000000E+00 -0.10047362250E+02  0.10047362574E+02  0.25500000000E-02 0. -1.
         24    2    1    2    0    0  0.00000000000E+00  0.44408920985E-15  0.15136183717E+03  0.17145656207E+03  0.80541585074E+02 0.  0.
         66    2    3    3    0    0 -0.27015431205E+02  0.33508326549E+01  0.12624909506E+02  0.30074074245E+02  0.19999997497E+01 0.  0.
        -13    1    3    3    0    0  0.27015431205E+02 -0.33508326549E+01  0.13873692766E+03  0.14138248782E+03  0.10566000000E+00 0.  1.
         13    1    4    4    0    0 -0.34247853487E+01  0.53936449253E+00  0.10369631533E+01  0.36202935457E+01  0.10566000000E+00 0. -1.
        -13    1    4    4    0    0 -0.14387923958E+02  0.13085692982E+01  0.73845615098E+01  0.16225523787E+02  0.10566000000E+00 0.  1.
         14    1    4    4    0    0 -0.92027218980E+01  0.15028988641E+01  0.42033848427E+01  0.10228256912E+02  0.00000000000E+00 0. -1.
<mgrwt>
<rscale>  0 0.80541585E+02</rscale>
<asrwt>0</asrwt>
<pdfrwt beam="1">  1        2 0.15457481E-02 0.80541585E+02</pdfrwt>
<pdfrwt beam="2">  1       -1 0.24832184E-01 0.80541585E+02</pdfrwt>
<totfact> 0.10404297E+05</totfact>
</mgrwt>
</event>
<event>
 8    1  0.2603554E-020  0.7579902E+02  0.7818608E-02  0.1341414E+00
          2   -1    0    0  501    0  0.00000000000E+00  0.00000000000E+00  0.62756401010E+03  0.62756401011E+03  0.25500000000E-02 0. -1.
         -1   -1    0    0    0  501 -0.00000000000E+00 -0.00000000000E+00 -0.22888043115E+01  0.22888098606E+01  0.50400000000E-02 0.  1.
         24    2    1    2    0    0  0.00000000000E+00 -0.35527136788E-14  0.62527520579E+03  0.62985281997E+03  0.75799022719E+02 0.  0.
         66    2    3    3    0    0 -0.14377941003E+02  0.24740017978E+02  0.51902003605E+03  0.51981207325E+03  0.20000002505E+01 0.  0.
        -13    1    3    3    0    0  0.14377941003E+02 -0.24740017978E+02  0.10625516974E+03  0.11004074672E+03  0.10566000000E+00 0.  1.
         13    1    4    4    0    0 -0.36552669983E+01  0.65789448677E+01  0.12878771436E+03  0.12900748051E+03  0.10566000000E+00 0.  1.
        -13    1    4    4    0    0 -0.51269580745E+01  0.10107661083E+02  0.21095533962E+03  0.21125959621E+03  0.10566000000E+00 0. -1.
         14    1    4    4    0    0 -0.55957159297E+01  0.80534120272E+01  0.17927698207E+03  0.17954499654E+03  0.00000000000E+00 0. -1.
<mgrwt>
<rscale>  0 0.75799023E+02</rscale>
<asrwt>0</asrwt>
<pdfrwt beam="1">  1        2 0.96548249E-01 0.75799023E+02</pdfrwt>
<pdfrwt beam="2">  1       -1 0.35212439E-03 0.75799023E+02</pdfrwt>
<totfact> 0.37449230E+05</totfact>
</mgrwt>
</event>
<event>
 8    1  0.2603554E-020  0.8094210E+02  0.7818608E-02  0.1326399E+00
          2   -1    0    0  501    0  0.00000000000E+00  0.00000000000E+00  0.25843383373E+02  0.25843383499E+02  0.25500000000E-02 0. -1.
         -1   -1    0    0    0  501 -0.00000000000E+00 -0.00000000000E+00 -0.63378153612E+02  0.63378153812E+02  0.50400000000E-02 0.  1.
         24    2    1    2    0    0  0.00000000000E+00  0.35527136788E-14 -0.37534770239E+02  0.89221537311E+02  0.80942101179E+02 0.  0.
         66    2    3    3    0    0 -0.20550981606E+02 -0.26354993954E+02  0.63323825755E+01  0.34073855479E+02  0.20000017175E+01 0.  0.
        -13    1    3    3    0    0  0.20550981606E+02  0.26354993954E+02 -0.43867152815E+02  0.55147681832E+02  0.10566000000E+00 0.  1.
         13    1    4    4    0    0 -0.12787840351E+02 -0.16718895682E+02  0.43202220874E+01  0.21487806230E+02  0.10566000000E+00 0. -1.
        -13    1    4    4    0    0 -0.74216547063E+01 -0.93774631510E+01  0.17581092837E+01  0.12088005874E+02  0.10566000000E+00 0.  1.
         14    1    4    4    0    0 -0.34148654877E+00 -0.25863512056E+00  0.25405120446E+00  0.49804337468E+00  0.00000000000E+00 0. -1.
<mgrwt>
<rscale>  0 0.80942101E+02</rscale>
<asrwt>0</asrwt>
<pdfrwt beam="1">  1        2 0.39759052E-02 0.80942101E+02</pdfrwt>
<pdfrwt beam="2">  1       -1 0.97504852E-02 0.80942101E+02</pdfrwt>
<totfact> 0.12639914E+05</totfact>
</mgrwt>
</event>
<event>
 8    1  0.2603554E-020  0.7999306E+02  0.7818608E-02  0.1329071E+00
         -1   -1    0    0    0  501 -0.00000000000E+00  0.00000000000E+00  0.15953954056E+01  0.15954033665E+01  0.50400000000E-02 0.  1.
          2   -1    0    0  501    0  0.00000000000E+00 -0.00000000000E+00 -0.10027096285E+04  0.10027096285E+04  0.25500000000E-02 0. -1.
         24    2    1    2    0    0  0.00000000000E+00  0.00000000000E+00 -0.10011142331E+04  0.10043050319E+04  0.79993058039E+02 0.  0.
         66    2    3    3    0    0 -0.11357729427E+02  0.63379535476E+01 -0.97539624163E+03  0.97548500546E+03  0.20000065351E+01 0.  0.
        -13    1    3    3    0    0  0.11357729427E+02 -0.63379535476E+01 -0.25717991447E+02  0.28820026388E+02  0.10566000000E+00 0.  1.
         13    1    4    4    0    0 -0.24446040228E+01  0.20343338302E+01 -0.28354258547E+03  0.28356044073E+03  0.10566000000E+00 0. -1.
        -13    1    4    4    0    0 -0.98828435047E+00  0.40001980605E+00 -0.76043474257E+02  0.76051021446E+02  0.10566000000E+00 0. -1.
         14    1    4    4    0    0 -0.79248410542E+01  0.39035999114E+01 -0.61581018190E+03  0.61587354329E+03  0.00000000000E+00 0. -1.
<mgrwt>
<rscale>  0 0.79993058E+02</rscale>
<asrwt>0</asrwt>
<pdfrwt beam="1">  1        2 0.15426252E+00 0.79993058E+02</pdfrwt>
<pdfrwt beam="2">  1       -1 0.24544686E-03 0.79993058E+02</pdfrwt>
<totfact> 0.35243012E+05</totfact>
</mgrwt>
</event>
<event>
 8    1  0.2603554E-020  0.8381403E+02  0.7818608E-02  0.1318563E+00
         -1   -1    0    0    0  501 -0.00000000000E+00  0.00000000000E+00  0.13567866050E+03  0.13567866060E+03  0.50400000000E-02 0.  1.
          2   -1    0    0  501    0  0.00000000000E+00 -0.00000000000E+00 -0.12943802999E+02  0.12943803250E+02  0.25500000000E-02 0. -1.
         24    2    1    2    0    0 -0.88817841970E-15 -0.71054273576E-14  0.12273485750E+03  0.14862246385E+03  0.83814029334E+02 0.  0.
         66    2    3    3    0    0 -0.38650823428E+01 -0.38598437172E+02  0.33397717358E+02  0.51226806925E+02  0.20000023356E+01 0.  0.
        -13    1    3    3    0    0  0.38650823428E+01  0.38598437172E+02  0.89337140145E+02  0.97395656920E+02  0.10566000000E+00 0.  1.
         13    1    4    4    0    0 -0.34249381048E+00 -0.48965383315E+01  0.43563974368E+01  0.65637452955E+01  0.10566000000E+00 0. -1.
        -13    1    4    4    0    0 -0.22243108153E+01 -0.19904079407E+02  0.16025112337E+02  0.25650250000E+02  0.10566000000E+00 0.  1.
         14    1    4    4    0    0 -0.12982777170E+01 -0.13797819434E+02  0.13016207585E+02  0.19012811629E+02  0.00000000000E+00 0. -1.
<mgrwt>
<rscale>  0 0.83814029E+02</rscale>
<asrwt>0</asrwt>
<pdfrwt beam="1">  1        2 0.19913544E-02 0.83814029E+02</pdfrwt>
<pdfrwt beam="2">  1       -1 0.20873640E-01 0.83814029E+02</pdfrwt>
<totfact> 0.98346249E+04</totfact>
</mgrwt>
</event>
<event>
 8    1  0.2603554E-020  0.8095542E+02  0.7818608E-02  0.1326362E+00
          2   -1    0    0  501    0  0.00000000000E+00  0.00000000000E+00  0.86406289644E+02  0.86406289681E+02  0.25500000000E-02 0. -1.
         -1   -1    0    0    0  501 -0.00000000000E+00 -0.00000000000E+00 -0.18962103784E+02  0.18962104454E+02  0.50400000000E-02 0.  1.
         24    2    1    2    0    0  0.00000000000E+00  0.00000000000E+00  0.67444185859E+02  0.10536839414E+03  0.80955421538E+02 0.  0.
         66    2    3    3    0    0  0.61228056848E+00  0.15427426194E+02  0.82408800319E+02  0.83866505464E+02  0.20000005420E+01 0.  0.
        -13    1    3    3    0    0 -0.61228056848E+00 -0.15427426194E+02 -0.14964614460E+02  0.21501888671E+02  0.10566000000E+00 0.  1.
         13    1    4    4    0    0 -0.43283168975E-01  0.67923045144E+01  0.40634477867E+02  0.41198412950E+02  0.10566000000E+00 0. -1.
        -13    1    4    4    0    0  0.13259213793E+00  0.34015326510E+01  0.14956806560E+02  0.15339662042E+02  0.10566000000E+00 0.  1.
        -14    1    4    4    0    0  0.52297159952E+00  0.52335890285E+01  0.26817515893E+02  0.27328430472E+02  0.00000000000E+00 0.  1.
<mgrwt>
<rscale>  0 0.80955422E+02</rscale>
<asrwt>0</asrwt>
<pdfrwt beam="1">  1        2 0.13293275E-01 0.80955422E+02</pdfrwt>
<pdfrwt beam="2">  1       -1 0.29172468E-02 0.80955422E+02</pdfrwt>
<totfact> 0.16498773E+05</totfact>
</mgrwt>
</event>
<event>
 8    1  0.2603554E-020  0.7835013E+02  0.7818608E-02  0.1333800E+00
          2   -1    0    0  501    0  0.00000000000E+00  0.00000000000E+00  0.74795643135E+03  0.74795643136E+03  0.25500000000E-02 0. -1.
         -1   -1    0    0    0  501 -0.00000000000E+00 -0.00000000000E+00 -0.20518352832E+01  0.20518414732E+01  0.50400000000E-02 0.  1.
         24    2    1    2    0    0  0.00000000000E+00  0.00000000000E+00  0.74590459607E+03  0.75000827283E+03  0.78350130033E+02 0.  0.
         66    2    3    3    0    0 -0.13519781630E+02  0.81615752936E+01  0.71611074447E+03  0.71628764763E+03  0.19999994235E+01 0.  0.
        -13    1    3    3    0    0  0.13519781630E+02 -0.81615752936E+01  0.29793851597E+02  0.33720625196E+02  0.10566000000E+00 0.  1.
         13    1    4    4    0    0 -0.40734760630E+01  0.22206710370E+01  0.20791359106E+03  0.20796537476E+03  0.10566000000E+00 0. -1.
        -13    1    4    4    0    0 -0.79075437142E+01  0.42016524672E+01  0.40196919373E+03  0.40206893315E+03  0.10566000000E+00 0.  1.
        -14    1    4    4    0    0 -0.15387618528E+01  0.17392517894E+01  0.10622795968E+03  0.10625333972E+03  0.00000000000E+00 0.  1.
<mgrwt>
<rscale>  0 0.78350130E+02</rscale>
<asrwt>0</asrwt>
<pdfrwt beam="1">  1        2 0.11507029E+00 0.78350130E+02</pdfrwt>
<pdfrwt beam="2">  1       -1 0.31566725E-03 0.78350130E+02</pdfrwt>
<totfact> 0.35820266E+05</totfact>
</mgrwt>
</event>
<event>
 8    1  0.2603554E-020  0.8147556E+02  0.7818608E-02  0.1324915E+00
         -1   -1    0    0    0  501 -0.00000000000E+00  0.00000000000E+00  0.24446626637E+02  0.24446627157E+02  0.50400000000E-02 0.  1.
          2   -1    0    0  501    0  0.00000000000E+00 -0.00000000000E+00 -0.67885312485E+02  0.67885312533E+02  0.25500000000E-02 0. -1.
         24    2    1    2    0    0  0.35527136788E-14 -0.88817841970E-15 -0.43438685847E+02  0.92331939689E+02  0.81475564795E+02 0.  0.
         66    2    3    3    0    0  0.27529077801E+02 -0.64744832367E+01 -0.54923046739E+02  0.61808657316E+02  0.19999995888E+01 0.  0.
        -13    1    3    3    0    0 -0.27529077801E+02  0.64744832367E+01  0.11484360892E+02  0.30523282374E+02  0.10566000000E+00 0.  1.
         13    1    4    4    0    0  0.13817673052E+02 -0.39080114636E+01 -0.27970639943E+02  0.31441509268E+02  0.10566000000E+00 0. -1.
        -13    1    4    4    0    0  0.10106035744E+01 -0.46262487886E+00 -0.21762224719E+01  0.24459046682E+01  0.10566000000E+00 0.  1.
        -14    1    4    4    0    0  0.12700801174E+02 -0.21038468943E+01 -0.24776184324E+02  0.27921243380E+02  0.00000000000E+00 0.  1.
<mgrwt>
<rscale>  0 0.81475565E+02</rscale>
<asrwt>0</asrwt>
<pdfrwt beam="1">  1        2 0.10443894E-01 0.81475565E+02</pdfrwt>
<pdfrwt beam="2">  1       -1 0.37610196E-02 0.81475565E+02</pdfrwt>
<totfact> 0.15251457E+05</totfact>
</mgrwt>
</event>
<event>
 8    1  0.2603554E-020  0.7943124E+02  0.7818608E-02  0.1330673E+00
          2   -1    0    0  501    0  0.00000000000E+00  0.00000000000E+00  0.12953518123E+04  0.12953518123E+04  0.25500000000E-02 0. -1.
         -1   -1    0    0    0  501 -0.00000000000E+00 -0.00000000000E+00 -0.12176798482E+01  0.12176902785E+01  0.50400000000E-02 0.  1.
         24    2    1    2    0    0  0.00000000000E+00  0.17763568394E-14  0.12941341324E+04  0.12965695026E+04  0.79431242257E+02 0.  0.
         66    2    3    3    0    0 -0.19283705013E+02  0.13170441155E+02  0.11713465537E+04  0.11715810132E+04  0.20000008853E+01 0.  0.
        -13    1    3    3    0    0  0.19283705013E+02 -0.13170441155E+02  0.12278757878E+03  0.12498848933E+03  0.10566000000E+00 0.  1.
         13    1    4    4    0    0 -0.83356964982E+01  0.52743831383E+01  0.49492636718E+03  0.49502466913E+03  0.10566000000E+00 0. -1.
        -13    1    4    4    0    0 -0.99645861665E+01  0.75600258122E+01  0.61247058294E+03  0.61259829668E+03  0.10566000000E+00 0.  1.
        -14    1    4    4    0    0 -0.98342234834E+00  0.33603220419E+00  0.63949603531E+02  0.63958047413E+02  0.00000000000E+00 0.  1.
<mgrwt>
<rscale>  0 0.79431242E+02</rscale>
<asrwt>0</asrwt>
<pdfrwt beam="1">  1        2 0.19928489E+00 0.79431242E+02</pdfrwt>
<pdfrwt beam="2">  1       -1 0.18733616E-03 0.79431242E+02</pdfrwt>
<totfact> 0.35288362E+05</totfact>
</mgrwt>
</event>
<event>
 8    1  0.2603554E-020  0.8905522E+02  0.7818608E-02  0.1305156E+00
         -1   -1    0    0    0  501 -0.00000000000E+00  0.00000000000E+00  0.17952529421E+02  0.17952530129E+02  0.50400000000E-02 0.  1.
          2   -1    0    0  501    0  0.00000000000E+00 -0.00000000000E+00 -0.11044170807E+03  0.11044170810E+03  0.25500000000E-02 0. -1.
         24    2    1    2    0    0 -0.35527136788E-14  0.00000000000E+00 -0.92489178652E+02  0.12839423823E+03  0.89055220191E+02 0.  0.
         66    2    3    3    0    0  0.27198140653E+02 -0.29337822611E+02 -0.74381959383E+02  0.84481492425E+02  0.19999975623E+01 0.  0.
        -13    1    3    3    0    0 -0.27198140653E+02  0.29337822611E+02 -0.18107219269E+02  0.43912745806E+02  0.10566000000E+00 0.  1.
         13    1    4    4    0    0  0.32035802589E+01 -0.32647687658E+01 -0.77536907667E+01  0.90029176443E+01  0.10566000000E+00 0. -1.
        -13    1    4    4    0    0  0.10784485113E+02 -0.10799123739E+02 -0.29455616497E+02  0.33174850413E+02  0.10566000000E+00 0.  1.
        -14    1    4    4    0    0  0.13210075281E+02 -0.15273930106E+02 -0.37172652119E+02  0.42303724368E+02  0.00000000000E+00 0.  1.
<mgrwt>
<rscale>  0 0.89055220E+02</rscale>
<asrwt>0</asrwt>
<pdfrwt beam="1">  1        2 0.16991032E-01 0.89055220E+02</pdfrwt>
<pdfrwt beam="2">  1       -1 0.27619277E-02 0.89055220E+02</pdfrwt>
<totfact> 0.13667277E+05</totfact>
</mgrwt>
</event>
<event>
 8    1  0.2603554E-020  0.8004826E+02  0.7818608E-02  0.1328915E+00
          2   -1    0    0  501    0  0.00000000000E+00  0.00000000000E+00  0.10409093144E+04  0.10409093144E+04  0.25500000000E-02 0. -1.
         -1   -1    0    0    0  501 -0.00000000000E+00 -0.00000000000E+00 -0.15389683417E+01  0.15389765944E+01  0.50400000000E-02 0.  1.
         24    2    1    2    0    0  0.00000000000E+00  0.00000000000E+00  0.10393703461E+04  0.10424482910E+04  0.80048255062E+02 0.  0.
         66    2    3    3    0    0 -0.20134431425E+02  0.18553056423E+01  0.96945169737E+03  0.96966459718E+03  0.19999996516E+01 0.  0.
        -13    1    3    3    0    0  0.20134431425E+02 -0.18553056423E+01  0.69918648727E+02  0.72783693858E+02  0.10566000000E+00 0.  1.
         13    1    4    4    0    0 -0.13080533377E+02  0.79870026731E+00  0.62772165280E+03  0.62785844172E+03  0.10566000000E+00 0. -1.
        -13    1    4    4    0    0 -0.35533008625E+01  0.10158946908E+01  0.18644125093E+03  0.18647790539E+03  0.10566000000E+00 0.  1.
        -14    1    4    4    0    0 -0.35005971850E+01  0.40710684215E-01  0.15528879364E+03  0.15532825006E+03  0.00000000000E+00 0.  1.
<mgrwt>
<rscale>  0 0.80048255E+02</rscale>
<asrwt>0</asrwt>
<pdfrwt beam="1">  1        2 0.16014053E+00 0.80048255E+02</pdfrwt>
<pdfrwt beam="2">  1       -1 0.23676406E-03 0.80048255E+02</pdfrwt>
<totfact> 0.35214671E+05</totfact>
</mgrwt>
</event>
<event>
 8    1  0.2603554E-020  0.6970630E+02  0.7818608E-02  0.1361095E+00
          2   -1    0    0  501    0  0.00000000000E+00  0.00000000000E+00  0.31390376069E+02  0.31390376173E+02  0.25500000000E-02 0. -1.
         -1   -1    0    0    0  501 -0.00000000000E+00 -0.00000000000E+00 -0.38697908902E+02  0.38697909230E+02  0.50400000000E-02 0.  1.
         24    2    1    2    0    0  0.00000000000E+00  0.17763568394E-14 -0.73075328330E+01  0.70088285403E+02  0.69706296091E+02 0.  0.
         66    2    3    3    0    0  0.19000528356E+02  0.11528438638E+02  0.23300829055E+02  0.32262263186E+02  0.20000040053E+01 0.  0.
        -13    1    3    3    0    0 -0.19000528356E+02 -0.11528438638E+02 -0.30608361888E+02  0.37826022217E+02  0.10566000000E+00 0.  1.
         13    1    4    4    0    0  0.36182153383E+01  0.25351267480E+01  0.40294253650E+01  0.59804500392E+01  0.10566000000E+00 0.  1.
        -13    1    4    4    0    0  0.68609555340E+00  0.68172862081E+00  0.83003237803E+00  0.12789053151E+01  0.10566000000E+00 0.  1.
         14    1    4    4    0    0  0.14696217464E+02  0.83115832695E+01  0.18441371312E+02  0.25002907832E+02  0.00000000000E+00 0. -1.
<mgrwt>
<rscale>  0 0.69706296E+02</rscale>
<asrwt>0</asrwt>
<pdfrwt beam="1">  1        2 0.48292886E-02 0.69706296E+02</pdfrwt>
<pdfrwt beam="2">  1       -1 0.59535245E-02 0.69706296E+02</pdfrwt>
<totfact> 0.19859406E+05</totfact>
</mgrwt>
</event>
<event>
 8    1  0.2603554E-020  0.7303856E+02  0.7818608E-02  0.1350055E+00
         -1   -1    0    0    0  501 -0.00000000000E+00  0.00000000000E+00  0.26622436205E+02  0.26622436682E+02  0.50400000000E-02 0.  1.
          2   -1    0    0  501    0  0.00000000000E+00 -0.00000000000E+00 -0.50095261129E+02  0.50095261194E+02  0.25500000000E-02 0. -1.
         24    2    1    2    0    0 -0.17763568394E-14  0.00000000000E+00 -0.23472824924E+02  0.76717697876E+02  0.73038562811E+02 0.  0.
         66    2    3    3    0    0  0.14416597675E+02 -0.33148518392E+02 -0.64943216509E+01  0.36780956678E+02  0.20000001016E+01 0.  0.
        -13    1    3    3    0    0 -0.14416597675E+02  0.33148518392E+02 -0.16978503273E+02  0.39936741198E+02  0.10566000000E+00 0.  1.
         13    1    4    4    0    0  0.12968507628E+02 -0.28770899954E+02 -0.57918038943E+01  0.32085869642E+02  0.10566000000E+00 0. -1.
        -13    1    4    4    0    0  0.17828140862E+00 -0.11107886641E+01 -0.28520151588E+00  0.11653924906E+01  0.10566000000E+00 0.  1.
        -14    1    4    4    0    0  0.12698086381E+01 -0.32668297734E+01 -0.41731624071E+00  0.35296945463E+01  0.00000000000E+00 0.  1.
<mgrwt>
<rscale>  0 0.73038563E+02</rscale>
<asrwt>0</asrwt>
<pdfrwt beam="1">  1        2 0.77069632E-02 0.73038563E+02</pdfrwt>
<pdfrwt beam="2">  1       -1 0.40957595E-02 0.73038563E+02</pdfrwt>
<totfact> 0.19148374E+05</totfact>
</mgrwt>
</event>
<event>
 8    1  0.2603554E-020  0.7643207E+02  0.7818608E-02  0.1339493E+00
          2   -1    0    0  501    0  0.00000000000E+00  0.00000000000E+00  0.56585611573E+02  0.56585611630E+02  0.25500000000E-02 0. -1.
         -1   -1    0    0    0  501 -0.00000000000E+00 -0.00000000000E+00 -0.25809835359E+02  0.25809835851E+02  0.50400000000E-02 0.  1.
         24    2    1    2    0    0 -0.22204460493E-15  0.00000000000E+00  0.30775776214E+02  0.82395447481E+02  0.76432070259E+02 0.  0.
         66    2    3    3    0    0  0.10010802699E+01  0.30275215531E+02  0.40469523270E+02  0.50590247699E+02  0.20000028556E+01 0.  0.
        -13    1    3    3    0    0 -0.10010802699E+01 -0.30275215531E+02 -0.96937470557E+01  0.31805199782E+02  0.10566000000E+00 0.  1.
         13    1    4    4    0    0  0.22886389971E+00  0.11340882539E+02  0.15765303008E+02  0.19422253690E+02  0.10566000000E+00 0. -1.
        -13    1    4    4    0    0  0.10306769695E+00  0.12233821712E+02  0.15012518254E+02  0.19366566165E+02  0.10566000000E+00 0.  1.
        -14    1    4    4    0    0  0.66914867321E+00  0.67005112803E+01  0.96917020070E+01  0.11801427844E+02  0.00000000000E+00 0.  1.
<mgrwt>
<rscale>  0 0.76432070E+02</rscale>
<asrwt>0</asrwt>
<pdfrwt beam="1">  1        2 0.87054786E-02 0.76432070E+02</pdfrwt>
<pdfrwt beam="2">  1       -1 0.39707440E-02 0.76432070E+02</pdfrwt>
<totfact> 0.17386716E+05</totfact>
</mgrwt>
</event>
<event>
 8    1  0.2603554E-020  0.7925143E+02  0.7818608E-02  0.1331189E+00
         -1   -1    0    0    0  501 -0.00000000000E+00  0.00000000000E+00  0.37143296485E+01  0.37143330679E+01  0.50400000000E-02 0.  1.
          2   -1    0    0  501    0  0.00000000000E+00 -0.00000000000E+00 -0.42274018556E+03  0.42274018556E+03  0.25500000000E-02 0. -1.
         24    2    1    2    0    0  0.17763568394E-14  0.00000000000E+00 -0.41902585591E+03  0.42645451863E+03  0.79251426121E+02 0.  0.
         66    2    3    3    0    0 -0.10313342688E+02 -0.24187905614E+02 -0.36898020791E+03  0.36992136143E+03  0.19999998279E+01 0.  0.
        -13    1    3    3    0    0  0.10313342688E+02  0.24187905614E+02 -0.50045647998E+02  0.56533157200E+02  0.10566000000E+00 0.  1.
         13    1    4    4    0    0 -0.10066256572E+01 -0.37105856550E+01 -0.56296927417E+02  0.56428157348E+02  0.10566000000E+00 0. -1.
        -13    1    4    4    0    0 -0.13766275502E+01 -0.40476841287E+01 -0.59038540547E+02  0.59193236811E+02  0.10566000000E+00 0.  1.
         14    1    4    4    0    0 -0.79300894806E+01 -0.16429635830E+02 -0.25364473995E+03  0.25429996727E+03  0.00000000000E+00 0. -1.
<mgrwt>
<rscale>  0 0.79251426E+02</rscale>
<asrwt>0</asrwt>
<pdfrwt beam="1">  1        2 0.65036914E-01 0.79251426E+02</pdfrwt>
<pdfrwt beam="2">  1       -1 0.57143593E-03 0.79251426E+02</pdfrwt>
<totfact> 0.29515711E+05</totfact>
</mgrwt>
</event>
<event>
 8    1  0.2603554E-020  0.8053876E+02  0.7818608E-02  0.1327529E+00
         -1   -1    0    0    0  501 -0.00000000000E+00  0.00000000000E+00  0.23042107762E+01  0.23042162882E+01  0.50400000000E-02 0.  1.
          2   -1    0    0  501    0  0.00000000000E+00 -0.00000000000E+00 -0.70376421619E+03  0.70376421619E+03  0.25500000000E-02 0. -1.
         24    2    1    2    0    0 -0.35527136788E-14  0.00000000000E+00 -0.70146000541E+03  0.70606843248E+03  0.80538761808E+02 0.  0.
         66    2    3    3    0    0  0.23515866263E+02  0.27731375177E+02 -0.50218097526E+03  0.50349951048E+03  0.20000031385E+01 0.  0.
        -13    1    3    3    0    0 -0.23515866263E+02 -0.27731375177E+02 -0.19927903015E+03  0.20256892200E+03  0.10566000000E+00 0.  1.
         13    1    4    4    0    0  0.42599752022E+00  0.48013955839E+00 -0.92797728325E+01  0.93025456591E+01  0.10566000000E+00 0. -1.
        -13    1    4    4    0    0  0.14920108454E+02  0.17653285024E+02 -0.33069207716E+03  0.33149888260E+03  0.10566000000E+00 0.  1.
        -14    1    4    4    0    0  0.81697602892E+01  0.95979505948E+01 -0.16220912527E+03  0.16269808222E+03  0.00000000000E+00 0.  1.
<mgrwt>
<rscale>  0 0.80538762E+02</rscale>
<asrwt>0</asrwt>
<pdfrwt beam="1">  1        2 0.10827125E+00 0.80538762E+02</pdfrwt>
<pdfrwt beam="2">  1       -1 0.35449495E-03 0.80538762E+02</pdfrwt>
<totfact> 0.32913114E+05</totfact>
</mgrwt>
</event>
<event>
 8    1  0.2603554E-020  0.7887537E+02  0.7818608E-02  0.1332274E+00
          2   -1    0    0  501    0  0.00000000000E+00  0.00000000000E+00  0.50788704060E+02  0.50788704124E+02  0.25500000000E-02 0. -1.
         -1   -1    0    0    0  501 -0.00000000000E+00 -0.00000000000E+00 -0.30623560127E+02  0.30623560542E+02  0.50400000000E-02 0.  1.
         24    2    1    2    0    0  0.00000000000E+00  0.00000000000E+00  0.20165143934E+02  0.81412264666E+02  0.78875368831E+02 0.  0.
         66    2    3    3    0    0 -0.21205989087E+02  0.80545929594E+01  0.43355383601E+02  0.48972030068E+02  0.20000002113E+01 0.  0.
        -13    1    3    3    0    0  0.21205989087E+02 -0.80545929594E+01 -0.23190239668E+02  0.32440234598E+02  0.10566000000E+00 0.  1.
         13    1    4    4    0    0 -0.17909782817E+01  0.74178339546E+00  0.46685078694E+01  0.50560830268E+01  0.10566000000E+00 0. -1.
        -13    1    4    4    0    0 -0.17855472489E+02  0.68736767500E+01  0.36252442121E+02  0.40991658343E+02  0.10566000000E+00 0.  1.
        -14    1    4    4    0    0 -0.15595383161E+01  0.43913281388E+00  0.24344336103E+01  0.29242886983E+01  0.00000000000E+00 0.  1.
<mgrwt>
<rscale>  0 0.78875369E+02</rscale>
<asrwt>0</asrwt>
<pdfrwt beam="1">  1        2 0.78136467E-02 0.78875369E+02</pdfrwt>
<pdfrwt beam="2">  1       -1 0.47113170E-02 0.78875369E+02</pdfrwt>
<totfact> 0.15586064E+05</totfact>
</mgrwt>
</event>
<event>
 8    1  0.2603554E-020  0.7066316E+02  0.7818608E-02  0.1357852E+00
          2   -1    0    0  501    0  0.00000000000E+00  0.00000000000E+00  0.21847402802E+02  0.21847402951E+02  0.25500000000E-02 0. -1.
         -1   -1    0    0    0  501 -0.00000000000E+00 -0.00000000000E+00 -0.57138165622E+02  0.57138165845E+02  0.50400000000E-02 0.  1.
         24    2    1    2    0    0  0.00000000000E+00  0.00000000000E+00 -0.35290762820E+02  0.78985568796E+02  0.70663159691E+02 0.  0.
         66    2    3    3    0    0  0.28027334978E+02 -0.77595721697E+01  0.47120524795E+01  0.29528730419E+02  0.20000038397E+01 0.  0.
        -13    1    3    3    0    0 -0.28027334978E+02  0.77595721697E+01 -0.40002815300E+02  0.49456838376E+02  0.10566000000E+00 0.  1.
         13    1    4    4    0    0  0.19956288260E+02 -0.57702247910E+01  0.33064416434E+01  0.21035509398E+02  0.10566000000E+00 0. -1.
        -13    1    4    4    0    0  0.16963394814E+01 -0.23033714166E-01  0.40681528509E+00  0.17477874298E+01  0.10566000000E+00 0.  1.
        -14    1    4    4    0    0  0.63747072370E+01 -0.19663136645E+01  0.99879555097E+00  0.67454335915E+01  0.00000000000E+00 0.  1.
<mgrwt>
<rscale>  0 0.70663160E+02</rscale>
<asrwt>0</asrwt>
<pdfrwt beam="1">  1        2 0.33611389E-02 0.70663160E+02</pdfrwt>
<pdfrwt beam="2">  1       -1 0.87904870E-02 0.70663160E+02</pdfrwt>
<totfact> 0.17930749E+05</totfact>
</mgrwt>
</event>
<event>
 8    1  0.2603554E-020  0.7782565E+02  0.7818608E-02  0.1335338E+00
         -1   -1    0    0    0  501 -0.00000000000E+00  0.00000000000E+00  0.38206187548E+03  0.38206187552E+03  0.50400000000E-02 0.  1.
          2   -1    0    0  501    0  0.00000000000E+00 -0.00000000000E+00 -0.39632524402E+01  0.39632532605E+01  0.25500000000E-02 0. -1.
         24    2    1    2    0    0  0.00000000000E+00  0.00000000000E+00  0.37809862304E+03  0.38602512878E+03  0.77825646803E+02 0.  0.
         66    2    3    3    0    0 -0.42999678531E+01 -0.38608649499E+02  0.18046125632E+03  0.18460601988E+03  0.20000009010E+01 0.  0.
        -13    1    3    3    0    0  0.42999678531E+01  0.38608649499E+02  0.19763736672E+03  0.20141910889E+03  0.10566000000E+00 0.  1.
         13    1    4    4    0    0 -0.93315322303E+00 -0.14985125701E+02  0.70240002329E+02  0.71826832440E+02  0.10566000000E+00 0. -1.
        -13    1    4    4    0    0 -0.30976670412E+00 -0.32825647438E+01  0.13893658953E+02  0.14279919812E+02  0.10566000000E+00 0.  1.
         14    1    4    4    0    0 -0.30570479260E+01 -0.20340959055E+02  0.96327595043E+02  0.98499267633E+02  0.00000000000E+00 0. -1.
<mgrwt>
<rscale>  0 0.77825647E+02</rscale>
<asrwt>0</asrwt>
<pdfrwt beam="1">  1        2 0.60973115E-03 0.77825647E+02</pdfrwt>
<pdfrwt beam="2">  1       -1 0.58778756E-01 0.77825647E+02</pdfrwt>
<totfact> 0.83264820E+04</totfact>
</mgrwt>
</event>
<event>
 8    1  0.2603554E-020  0.7968219E+02  0.7818608E-02  0.1329956E+00
          2   -1    0    0  501    0  0.00000000000E+00  0.00000000000E+00  0.32952564851E+03  0.32952564852E+03  0.25500000000E-02 0. -1.
         -1   -1    0    0    0  501 -0.00000000000E+00 -0.00000000000E+00 -0.48169611150E+01  0.48169637516E+01  0.50400000000E-02 0.  1.
         24    2    1    2    0    0  0.35527136788E-14 -0.17763568394E-14  0.32470868739E+03  0.33434261227E+03  0.79682185655E+02 0.  0.
         66    2    3    3    0    0  0.30760743362E+02 -0.11648588277E+02  0.25659865023E+03  0.25870597256E+03  0.19999985638E+01 0.  0.
        -13    1    3    3    0    0 -0.30760743362E+02  0.11648588277E+02  0.68110037158E+02  0.75636639711E+02  0.10566000000E+00 0.  1.
         13    1    4    4    0    0  0.68831583388E+01 -0.27402096960E+01  0.61737315038E+02  0.62180333305E+02  0.10566000000E+00 0. -1.
        -13    1    4    4    0    0  0.16124599657E+02 -0.53892814815E+01  0.13188191979E+03  0.13297330184E+03  0.10566000000E+00 0.  1.
        -14    1    4    4    0    0  0.77529853653E+01 -0.35190970994E+01  0.62979415403E+02  0.63552337416E+02  0.00000000000E+00 0.  1.
<mgrwt>
<rscale>  0 0.79682186E+02</rscale>
<asrwt>0</asrwt>
<pdfrwt beam="1">  1        2 0.50696261E-01 0.79682186E+02</pdfrwt>
<pdfrwt beam="2">  1       -1 0.74107104E-03 0.79682186E+02</pdfrwt>
<totfact> 0.26649755E+05</totfact>
</mgrwt>
</event>
<event>
 8    1  0.2603554E-020  0.8003315E+02  0.7818608E-02  0.1328957E+00
         -1   -1    0    0    0  501 -0.00000000000E+00  0.00000000000E+00  0.13036076522E+03  0.13036076532E+03  0.50400000000E-02 0.  1.
          2   -1    0    0  501    0  0.00000000000E+00 -0.00000000000E+00 -0.12283806081E+02  0.12283806346E+02  0.25500000000E-02 0. -1.
         24    2    1    2    0    0  0.35527136788E-14  0.35527136788E-14  0.11807695914E+03  0.14264457167E+03  0.80033152791E+02 0.  0.
         66    2    3    3    0    0  0.18552383218E+02  0.20718455486E+02  0.78548677359E+01  0.28967986923E+02  0.19999996179E+01 0.  0.
        -13    1    3    3    0    0 -0.18552383218E+02 -0.20718455486E+02  0.11022209141E+03  0.11367658474E+03  0.10566000000E+00 0.  1.
         13    1    4    4    0    0  0.63665430362E+01  0.83153574193E+01  0.27459577355E+01  0.10827256678E+02  0.10566000000E+00 0.  1.
        -13    1    4    4    0    0  0.57844259735E+01  0.58841636242E+01  0.28378658774E+01  0.87262599189E+01  0.10566000000E+00 0. -1.
         14    1    4    4    0    0  0.64014142084E+01  0.65189344421E+01  0.22710441230E+01  0.94144703269E+01  0.00000000000E+00 0. -1.
<mgrwt>
<rscale>  0 0.80033153E+02</rscale>
<asrwt>0</asrwt>
<pdfrwt beam="1">  1        2 0.18898164E-02 0.80033153E+02</pdfrwt>
<pdfrwt beam="2">  1       -1 0.20055502E-01 0.80033153E+02</pdfrwt>
<totfact> 0.11154758E+05</totfact>
</mgrwt>
</event>
<event>
 8    1  0.2603554E-020  0.8079726E+02  0.7818608E-02  0.1326804E+00
         -1   -1    0    0    0  501 -0.00000000000E+00  0.00000000000E+00  0.25208795662E+01  0.25208846044E+01  0.50400000000E-02 0.  1.
          2   -1    0    0  501    0  0.00000000000E+00 -0.00000000000E+00 -0.64741196874E+03  0.64741196874E+03  0.25500000000E-02 0. -1.
         24    2    1    2    0    0  0.00000000000E+00  0.17763568394E-14 -0.64489108917E+03  0.64993285335E+03  0.80797258413E+02 0.  0.
         66    2    3    3    0    0  0.13416421920E+02  0.91674908631E+01 -0.61994425214E+03  0.62016039782E+03  0.20000012668E+01 0.  0.
        -13    1    3    3    0    0 -0.13416421920E+02 -0.91674908631E+01 -0.24946837036E+02  0.29772455525E+02  0.10566000000E+00 0.  1.
         13    1    4    4    0    0  0.56336200050E+01  0.33252440319E+01 -0.26401181003E+03  0.26409286609E+03  0.10566000000E+00 0. -1.
        -13    1    4    4    0    0  0.17970997754E+01  0.11452300765E+01 -0.96271820159E+02  0.96295460123E+02  0.10566000000E+00 0.  1.
         14    1    4    4    0    0  0.59857021395E+01  0.46970167547E+01 -0.25966062195E+03  0.25977207161E+03  0.00000000000E+00 0. -1.
<mgrwt>
<rscale>  0 0.80797258E+02</rscale>
<asrwt>0</asrwt>
<pdfrwt beam="1">  1        2 0.99601709E-01 0.80797258E+02</pdfrwt>
<pdfrwt beam="2">  1       -1 0.38782853E-03 0.80797258E+02</pdfrwt>
<totfact> 0.31987792E+05</totfact>
</mgrwt>
</event>
<event>
 8    1  0.2603554E-020  0.8442736E+02  0.7818608E-02  0.1316937E+00
          2   -1    0    0  501    0  0.00000000000E+00  0.00000000000E+00  0.31520250211E+03  0.31520250212E+03  0.25500000000E-02 0. -1.
         -1   -1    0    0    0  501 -0.00000000000E+00 -0.00000000000E+00 -0.56534906153E+01  0.56534928618E+01  0.50400000000E-02 0.  1.
         24    2    1    2    0    0  0.44408920985E-15  0.35527136788E-14  0.30954901149E+03  0.32085599498E+03  0.84427359301E+02 0.  0.
         66    2    3    3    0    0 -0.32654883797E+01 -0.28884479193E+02  0.27106906195E+03  0.27263054284E+03  0.19999985662E+01 0.  0.
        -13    1    3    3    0    0  0.32654883797E+01  0.28884479193E+02  0.38479949545E+02  0.48225452135E+02  0.10566000000E+00 0.  1.
         13    1    4    4    0    0 -0.10586581292E+01 -0.16259707740E+02  0.14853857562E+03  0.14942964386E+03  0.10566000000E+00 0.  1.
        -13    1    4    4    0    0 -0.15467492105E+01 -0.10302583097E+02  0.98533123738E+02  0.99082406558E+02  0.10566000000E+00 0. -1.
        -14    1    4    4    0    0 -0.66008103998E+00 -0.23221883559E+01  0.23997362582E+02  0.24118492421E+02  0.00000000000E+00 0.  1.
<mgrwt>
<rscale>  0 0.84427359E+02</rscale>
<asrwt>0</asrwt>
<pdfrwt beam="1">  1        2 0.48492689E-01 0.84427359E+02</pdfrwt>
<pdfrwt beam="2">  1       -1 0.86976803E-03 0.84427359E+02</pdfrwt>
<totfact> 0.22529712E+05</totfact>
</mgrwt>
</event>
<event>
 8    1  0.2603554E-020  0.8003401E+02  0.7818608E-02  0.1328955E+00
          2   -1    0    0  501    0  0.00000000000E+00  0.00000000000E+00  0.19065757803E+03  0.19065757805E+03  0.25500000000E-02 0. -1.
         -1   -1    0    0    0  501 -0.00000000000E+00 -0.00000000000E+00 -0.83991453801E+01  0.83991468923E+01  0.50400000000E-02 0.  1.
         24    2    1    2    0    0  0.00000000000E+00  0.00000000000E+00  0.18225843265E+03  0.19905672494E+03  0.80034014467E+02 0.  0.
         66    2    3    3    0    0  0.38332611405E+02 -0.96303445267E+01  0.76011635052E+02  0.85696565286E+02  0.20000014411E+01 0.  0.
        -13    1    3    3    0    0 -0.38332611405E+02  0.96303445267E+01  0.10624679760E+03  0.11336015966E+03  0.10566000000E+00 0.  1.
         13    1    4    4    0    0  0.54442023398E+01 -0.16872836365E+01  0.10153917615E+02  0.11644718638E+02  0.10566000000E+00 0. -1.
        -13    1    4    4    0    0  0.16330838528E+02 -0.33279545934E+01  0.32956184360E+02  0.36930919572E+02  0.10566000000E+00 0.  1.
        -14    1    4    4    0    0  0.16557570536E+02 -0.46151062969E+01  0.32901533077E+02  0.37120927076E+02  0.00000000000E+00 0.  1.
<mgrwt>
<rscale>  0 0.80034014E+02</rscale>
<asrwt>0</asrwt>
<pdfrwt beam="1">  1        2 0.29331930E-01 0.80034014E+02</pdfrwt>
<pdfrwt beam="2">  1       -1 0.12921765E-02 0.80034014E+02</pdfrwt>
<totfact> 0.21672481E+05</totfact>
</mgrwt>
</event>
<event>
 8    1  0.2603554E-020  0.7960910E+02  0.7818608E-02  0.1330164E+00
         -1   -1    0    0    0  501 -0.00000000000E+00  0.00000000000E+00  0.60238936022E+02  0.60238936233E+02  0.50400000000E-02 0.  1.
          2   -1    0    0  501    0  0.00000000000E+00 -0.00000000000E+00 -0.26301960743E+02  0.26301960867E+02  0.25500000000E-02 0. -1.
         24    2    1    2    0    0  0.71054273576E-14  0.22204460493E-15  0.33936975279E+02  0.86540897100E+02  0.79609098599E+02 0.  0.
         66    2    3    3    0    0 -0.23690529786E+02 -0.19939301218E+01 -0.17691135913E+02  0.29701738167E+02  0.20000003488E+01 0.  0.
        -13    1    3    3    0    0  0.23690529786E+02  0.19939301218E+01  0.51628111192E+02  0.56839158933E+02  0.10566000000E+00 0.  1.
         13    1    4    4    0    0 -0.10544271360E+02 -0.14047992238E+01 -0.70033814677E+01  0.12736311687E+02  0.10566000000E+00 0. -1.
        -13    1    4    4    0    0 -0.16400309433E+01  0.43875209503E-01 -0.11437027199E+01  0.20027097833E+01  0.10566000000E+00 0.  1.
        -14    1    4    4    0    0 -0.11506227483E+02 -0.63300610749E+00 -0.95440517253E+01  0.14962716697E+02  0.00000000000E+00 0.  1.
<mgrwt>
<rscale>  0 0.79609099E+02</rscale>
<asrwt>0</asrwt>
<pdfrwt beam="1">  1        2 0.40464555E-02 0.79609099E+02</pdfrwt>
<pdfrwt beam="2">  1       -1 0.92675287E-02 0.79609099E+02</pdfrwt>
<totfact> 0.13293470E+05</totfact>
</mgrwt>
</event>
<event>
 8    1  0.2603554E-020  0.8329411E+02  0.7818608E-02  0.1319955E+00
          2   -1    0    0  501    0  0.00000000000E+00  0.00000000000E+00  0.50088740626E+02  0.50088740691E+02  0.25500000000E-02 0. -1.
         -1   -1    0    0    0  501 -0.00000000000E+00 -0.00000000000E+00 -0.34628081460E+02  0.34628081826E+02  0.50400000000E-02 0.  1.
         24    2    1    2    0    0  0.00000000000E+00  0.71054273576E-14  0.15460659167E+02  0.84716822518E+02  0.83294105648E+02 0.  0.
         66    2    3    3    0    0 -0.69471151576E+00  0.37838909425E+02  0.25357183779E+02  0.45598820856E+02  0.20000009306E+01 0.  0.
        -13    1    3    3    0    0  0.69471151576E+00 -0.37838909425E+02 -0.98965246125E+01  0.39118001662E+02  0.10566000000E+00 0.  1.
         13    1    4    4    0    0 -0.72736792438E-01  0.17827240183E+02  0.11510340919E+02  0.21220624290E+02  0.10566000000E+00 0. -1.
        -13    1    4    4    0    0 -0.65388052685E+00  0.13327158407E+02  0.85311678308E+01  0.15837698682E+02  0.10566000000E+00 0.  1.
        -14    1    4    4    0    0  0.31905803523E-01  0.66845108355E+01  0.53156750292E+01  0.85404978840E+01  0.00000000000E+00 0.  1.
<mgrwt>
<rscale>  0 0.83294106E+02</rscale>
<asrwt>0</asrwt>
<pdfrwt beam="1">  1        2 0.77059601E-02 0.83294106E+02</pdfrwt>
<pdfrwt beam="2">  1       -1 0.53273972E-02 0.83294106E+02</pdfrwt>
<totfact> 0.13380291E+05</totfact>
</mgrwt>
</event>
<event>
 8    1  0.2603554E-020  0.7998591E+02  0.7818608E-02  0.1329091E+00
          2   -1    0    0  501    0  0.00000000000E+00  0.00000000000E+00  0.53128004068E+01  0.53128010187E+01  0.25500000000E-02 0. -1.
         -1   -1    0    0    0  501 -0.00000000000E+00 -0.00000000000E+00 -0.30105334199E+03  0.30105334203E+03  0.50400000000E-02 0.  1.
         24    2    1    2    0    0  0.71054273576E-14 -0.17763568394E-14 -0.29574054158E+03  0.30636614305E+03  0.79985909209E+02 0.  0.
         66    2    3    3    0    0 -0.38807765067E+02  0.95182152284E+01 -0.15137204874E+03  0.15656990832E+03  0.19999999781E+01 0.  0.
        -13    1    3    3    0    0  0.38807765067E+02 -0.95182152284E+01 -0.14436849284E+03  0.14979623474E+03  0.10566000000E+00 0.  1.
         13    1    4    4    0    0 -0.18324012666E+02  0.49175762269E+01 -0.69406005380E+02  0.71952461688E+02  0.10566000000E+00 0. -1.
        -13    1    4    4    0    0 -0.12455765027E+02  0.32412535475E+01 -0.50888503511E+02  0.52490977897E+02  0.10566000000E+00 0.  1.
         14    1    4    4    0    0 -0.80279873749E+01  0.13593854540E+01 -0.31077539847E+02  0.32126468730E+02  0.00000000000E+00 0. -1.
<mgrwt>
<rscale>  0 0.79985909E+02</rscale>
<asrwt>0</asrwt>
<pdfrwt beam="1">  1        2 0.81735419E-03 0.79985909E+02</pdfrwt>
<pdfrwt beam="2">  1       -1 0.46315886E-01 0.79985909E+02</pdfrwt>
<totfact> 0.86348597E+04</totfact>
</mgrwt>
</event>
<event>
 8    1  0.2603554E-020  0.8024842E+02  0.7818608E-02  0.1328348E+00
          2   -1    0    0  501    0  0.00000000000E+00  0.00000000000E+00  0.71531503747E+01  0.71531508292E+01  0.25500000000E-02 0. -1.
         -1   -1    0    0    0  501 -0.00000000000E+00 -0.00000000000E+00 -0.22506899005E+03  0.22506899010E+03  0.50400000000E-02 0.  1.
         24    2    1    2    0    0  0.44408920985E-15  0.00000000000E+00 -0.21791583967E+03  0.23222214093E+03  0.80248424029E+02 0.  0.
         66    2    3    3    0    0 -0.29305910268E+01 -0.36930040424E+02 -0.15343648649E+03  0.15785807433E+03  0.19999995856E+01 0.  0.
        -13    1    3    3    0    0  0.29305910268E+01  0.36930040424E+02 -0.64479353186E+02  0.74364066596E+02  0.10566000000E+00 0.  1.
         13    1    4    4    0    0 -0.23568987954E+01 -0.22737441335E+02 -0.93179396223E+02  0.95942468464E+02  0.10566000000E+00 0. -1.
        -13    1    4    4    0    0 -0.39806842984E+00 -0.13728343842E+02 -0.57878702376E+02  0.59485975119E+02  0.10566000000E+00 0.  1.
         14    1    4    4    0    0 -0.17562380162E+00 -0.46425524686E+00 -0.23783878854E+01  0.24296307513E+01  0.00000000000E+00 0. -1.
<mgrwt>
<rscale>  0 0.80248424E+02</rscale>
<asrwt>0</asrwt>
<pdfrwt beam="1">  1        2 0.11004849E-02 0.80248424E+02</pdfrwt>
<pdfrwt beam="2">  1       -1 0.34625993E-01 0.80248424E+02</pdfrwt>
<totfact> 0.95214596E+04</totfact>
</mgrwt>
</event>
<event>
 8    1  0.2603554E-020  0.7942910E+02  0.7818608E-02  0.1330679E+00
          2   -1    0    0  501    0  0.00000000000E+00  0.00000000000E+00  0.90989269599E+01  0.90989273172E+01  0.25500000000E-02 0. -1.
         -1   -1    0    0    0  501 -0.00000000000E+00 -0.00000000000E+00 -0.17334410692E+03  0.17334410699E+03  0.50400000000E-02 0.  1.
         24    2    1    2    0    0  0.00000000000E+00  0.00000000000E+00 -0.16424517996E+03  0.18244303431E+03  0.79429098121E+02 0.  0.
         66    2    3    3    0    0  0.10050196998E+01  0.39584243516E+02 -0.75960879644E+02  0.85685340840E+02  0.19999998314E+01 0.  0.
        -13    1    3    3    0    0 -0.10050196998E+01 -0.39584243516E+02 -0.88284300317E+02  0.96757693471E+02  0.10566000000E+00 0.  1.
         13    1    4    4    0    0  0.97116902325E+00  0.28780626494E+02 -0.54208096440E+02  0.61382379510E+02  0.10566000000E+00 0. -1.
        -13    1    4    4    0    0  0.60076501151E-01  0.17742746769E+01 -0.29518454144E+01  0.34461885034E+01  0.10566000000E+00 0.  1.
         14    1    4    4    0    0 -0.26225824593E-01  0.90293423449E+01 -0.18800937789E+02  0.20856772826E+02  0.00000000000E+00 0. -1.
<mgrwt>
<rscale>  0 0.79429098E+02</rscale>
<asrwt>0</asrwt>
<pdfrwt beam="1">  1        2 0.13998351E-02 0.79429098E+02</pdfrwt>
<pdfrwt beam="2">  1       -1 0.26668322E-01 0.79429098E+02</pdfrwt>
<totfact> 0.10571577E+05</totfact>
</mgrwt>
</event>
<event>
 8    1  0.2603554E-020  0.8111080E+02  0.7818608E-02  0.1325928E+00
         -1   -1    0    0    0  501 -0.00000000000E+00  0.00000000000E+00  0.18164634884E+03  0.18164634891E+03  0.50400000000E-02 0.  1.
          2   -1    0    0  501    0  0.00000000000E+00 -0.00000000000E+00 -0.90546287258E+01  0.90546290849E+01  0.25500000000E-02 0. -1.
         24    2    1    2    0    0  0.17763568394E-14  0.00000000000E+00  0.17259172012E+03  0.19070097800E+03  0.81110795559E+02 0.  0.
         66    2    3    3    0    0  0.73064602118E+01  0.33217488373E+02  0.34519543910E+02  0.48501389738E+02  0.20000000342E+01 0.  0.
        -13    1    3    3    0    0 -0.73064602118E+01 -0.33217488373E+02  0.13807217621E+03  0.14219958826E+03  0.10566000000E+00 0.  1.
         13    1    4    4    0    0  0.76814400780E+00  0.45050381667E+01  0.45341740077E+01  0.64385799729E+01  0.10566000000E+00 0. -1.
        -13    1    4    4    0    0  0.82732235555E+00  0.24267520308E+01  0.32050966798E+01  0.41057759878E+01  0.10566000000E+00 0.  1.
         14    1    4    4    0    0  0.57109938485E+01  0.26285698175E+02  0.26780273223E+02  0.37957033778E+02  0.00000000000E+00 0. -1.
<mgrwt>
<rscale>  0 0.81110796E+02</rscale>
<asrwt>0</asrwt>
<pdfrwt beam="1">  1        2 0.13930199E-02 0.81110796E+02</pdfrwt>
<pdfrwt beam="2">  1       -1 0.27945590E-01 0.81110796E+02</pdfrwt>
<totfact> 0.98931476E+04</totfact>
</mgrwt>
</event>
<event>
 8    1  0.2603554E-020  0.7941041E+02  0.7818608E-02  0.1330733E+00
          2   -1    0    0  501    0  0.00000000000E+00  0.00000000000E+00  0.10557694079E+04  0.10557694079E+04  0.25500000000E-02 0. -1.
         -1   -1    0    0    0  501 -0.00000000000E+00 -0.00000000000E+00 -0.14932227394E+01  0.14932312450E+01  0.50400000000E-02 0.  1.
         24    2    1    2    0    0  0.00000000000E+00 -0.35527136788E-14  0.10542761851E+04  0.10572626391E+04  0.79410412047E+02 0.  0.
         66    2    3    3    0    0  0.62008781360E+01  0.25044167038E+02  0.92884484449E+03  0.92920525522E+03  0.19999994288E+01 0.  0.
        -13    1    3    3    0    0 -0.62008781360E+01 -0.25044167038E+02  0.12543134065E+03  0.12805738391E+03  0.10566000000E+00 0.  1.
         13    1    4    4    0    0  0.54101045357E+00  0.44511400060E+01  0.15148537762E+03  0.15155176058E+03  0.10566000000E+00 0. -1.
        -13    1    4    4    0    0  0.14229544704E+00  0.89288593796E+00  0.39305483368E+02  0.39316023198E+02  0.10566000000E+00 0.  1.
        -14    1    4    4    0    0  0.55175722354E+01  0.19700141094E+02  0.73805398350E+03  0.73833747144E+03  0.00000000000E+00 0.  1.
<mgrwt>
<rscale>  0 0.79410412E+02</rscale>
<asrwt>0</asrwt>
<pdfrwt beam="1">  1        2 0.16242670E+00 0.79410412E+02</pdfrwt>
<pdfrwt beam="2">  1       -1 0.22972633E-03 0.79410412E+02</pdfrwt>
<totfact> 0.35957032E+05</totfact>
</mgrwt>
</event>
<event>
 8    1  0.2603554E-020  0.7880628E+02  0.7818608E-02  0.1332474E+00
         -1   -1    0    0    0  501 -0.00000000000E+00  0.00000000000E+00  0.91827359319E+01  0.91827373150E+01  0.50400000000E-02 0.  1.
          2   -1    0    0  501    0  0.00000000000E+00 -0.00000000000E+00 -0.16907894728E+03  0.16907894730E+03  0.25500000000E-02 0. -1.
         24    2    1    2    0    0 -0.35527136788E-14  0.88817841970E-15 -0.15989621135E+03  0.17826168462E+03  0.78806280195E+02 0.  0.
         66    2    3    3    0    0 -0.28504120401E+02  0.71576886005E+01 -0.13928369148E+03  0.14236454650E+03  0.19999999215E+01 0.  0.
        -13    1    3    3    0    0  0.28504120401E+02 -0.71576886005E+01 -0.20612519866E+02  0.35897138120E+02  0.10566000000E+00 0.  1.
         13    1    4    4    0    0 -0.26421393733E+02  0.64550222427E+01 -0.12676814363E+03  0.12965311706E+03  0.10566000000E+00 0. -1.
        -13    1    4    4    0    0 -0.18202568520E+01  0.52658201316E+00 -0.11094960142E+02  0.11256106264E+02  0.10566000000E+00 0. -1.
         14    1    4    4    0    0 -0.26246981667E+00  0.17608434461E+00 -0.14205877092E+01  0.14553231740E+01  0.00000000000E+00 0. -1.
<mgrwt>
<rscale>  0 0.78806280E+02</rscale>
<asrwt>0</asrwt>
<pdfrwt beam="1">  1        2 0.26012143E-01 0.78806280E+02</pdfrwt>
<pdfrwt beam="2">  1       -1 0.14127288E-02 0.78806280E+02</pdfrwt>
<totfact> 0.21676633E+05</totfact>
</mgrwt>
</event>
<event>
 8    1  0.2603554E-020  0.8101002E+02  0.7818608E-02  0.1326209E+00
          2   -1    0    0  501    0  0.00000000000E+00  0.00000000000E+00  0.13298488227E+03  0.13298488229E+03  0.25500000000E-02 0. -1.
         -1   -1    0    0    0  501 -0.00000000000E+00 -0.00000000000E+00 -0.12337159040E+02  0.12337160069E+02  0.50400000000E-02 0.  1.
         24    2    1    2    0    0  0.00000000000E+00  0.00000000000E+00  0.12064772323E+03  0.14532204236E+03  0.81010017134E+02 0.  0.
         66    2    3    3    0    0 -0.13931172506E+02 -0.27758340928E+00  0.12853957928E+03  0.12930807421E+03  0.19999984509E+01 0.  0.
        -13    1    3    3    0    0  0.13931172506E+02  0.27758340928E+00 -0.78918560539E+01  0.16013968152E+02  0.10566000000E+00 0.  1.
         13    1    4    4    0    0 -0.94359353410E+01 -0.10143860581E+00  0.79742050022E+02  0.80298523469E+02  0.10566000000E+00 0. -1.
        -13    1    4    4    0    0 -0.16627086468E+01 -0.47556792249E-01  0.21764112469E+02  0.21827840418E+02  0.10566000000E+00 0.  1.
        -14    1    4    4    0    0 -0.28325285187E+01 -0.12858801122E+00  0.27033416793E+02  0.27181710324E+02  0.00000000000E+00 0.  1.
<mgrwt>
<rscale>  0 0.81010017E+02</rscale>
<asrwt>0</asrwt>
<pdfrwt beam="1">  1        2 0.20459211E-01 0.81010017E+02</pdfrwt>
<pdfrwt beam="2">  1       -1 0.18980247E-02 0.81010017E+02</pdfrwt>
<totfact> 0.18648056E+05</totfact>
</mgrwt>
</event>
<event>
 8    1  0.2603554E-020  0.8215185E+02  0.7818608E-02  0.1323053E+00
         -1   -1    0    0    0  501 -0.00000000000E+00  0.00000000000E+00  0.44243548022E+01  0.44243576728E+01  0.50400000000E-02 0.  1.
          2   -1    0    0  501    0  0.00000000000E+00 -0.00000000000E+00 -0.38135074195E+03  0.38135074196E+03  0.25500000000E-02 0. -1.
         24    2    1    2    0    0  0.00000000000E+00  0.35527136788E-14 -0.37692638714E+03  0.38577509963E+03  0.82151848228E+02 0.  0.
         66    2    3    3    0    0  0.87393336854E+01 -0.21036577645E+02 -0.34894505487E+03  0.34969352992E+03  0.20000004091E+01 0.  0.
        -13    1    3    3    0    0 -0.87393336854E+01  0.21036577645E+02 -0.27981332276E+02  0.36081569704E+02  0.10566000000E+00 0.  1.
         13    1    4    4    0    0  0.55039580976E+00 -0.18624604944E+01 -0.28986065127E+02  0.29051244899E+02  0.10566000000E+00 0. -1.
        -13    1    4    4    0    0  0.12523957697E+01 -0.17691593646E+01 -0.37144620056E+02  0.37207961287E+02  0.10566000000E+00 0.  1.
        -14    1    4    4    0    0  0.69365421059E+01 -0.17404957786E+02 -0.28281436969E+03  0.28343432374E+03  0.00000000000E+00 0.  1.
<mgrwt>
<rscale>  0 0.82151848E+02</rscale>
<asrwt>0</asrwt>
<pdfrwt beam="1">  1        2 0.58669319E-01 0.82151848E+02</pdfrwt>
<pdfrwt beam="2">  1       -1 0.68067049E-03 0.82151848E+02</pdfrwt>
<totfact> 0.25918695E+05</totfact>
</mgrwt>
</event>
<event>
 8    1  0.2603554E-020  0.7983038E+02  0.7818608E-02  0.1329533E+00
         -1   -1    0    0    0  501 -0.00000000000E+00  0.00000000000E+00  0.74359153511E+02  0.74359153681E+02  0.50400000000E-02 0.  1.
          2   -1    0    0  501    0  0.00000000000E+00 -0.00000000000E+00 -0.21426044629E+02  0.21426044780E+02  0.25500000000E-02 0. -1.
         24    2    1    2    0    0  0.00000000000E+00  0.00000000000E+00  0.52933108882E+02  0.95785198462E+02  0.79830384118E+02 0.  0.
         66    2    3    3    0    0  0.10689705851E+02 -0.13237998431E+02 -0.16806738640E+02  0.23999601647E+02  0.20000004596E+01 0.  0.
        -13    1    3    3    0    0 -0.10689705851E+02  0.13237998431E+02  0.69739847522E+02  0.71785596815E+02  0.10566000000E+00 0.  1.
         13    1    4    4    0    0  0.19294494752E+01 -0.18846310298E+01 -0.20817535313E+01  0.34087345447E+01  0.10566000000E+00 0. -1.
        -13    1    4    4    0    0  0.52736681154E+01 -0.63573956850E+01 -0.92269902217E+01  0.12384529376E+02  0.10566000000E+00 0.  1.
        -14    1    4    4    0    0  0.34865882604E+01 -0.49959717158E+01 -0.54979948874E+01  0.82063377255E+01  0.00000000000E+00 0.  1.
<mgrwt>
<rscale>  0 0.79830384E+02</rscale>
<asrwt>0</asrwt>
<pdfrwt beam="1">  1        2 0.32963145E-02 0.79830384E+02</pdfrwt>
<pdfrwt beam="2">  1       -1 0.11439870E-01 0.79830384E+02</pdfrwt>
<totfact> 0.12665551E+05</totfact>
</mgrwt>
</event>
<event>
 8    1  0.2603554E-020  0.7898860E+02  0.7818608E-02  0.1331946E+00
          2   -1    0    0  501    0  0.00000000000E+00  0.00000000000E+00  0.69010257772E+01  0.69010262483E+01  0.25500000000E-02 0. -1.
         -1   -1    0    0    0  501 -0.00000000000E+00 -0.00000000000E+00 -0.22602433108E+03  0.22602433114E+03  0.50400000000E-02 0.  1.
         24    2    1    2    0    0 -0.35527136788E-14 -0.35527136788E-14 -0.21912330530E+03  0.23292535738E+03  0.78988601620E+02 0.  0.
         66    2    3    3    0    0  0.26255698976E+02  0.15828352643E+02 -0.36330650653E+02  0.47579561009E+02  0.19999932145E+01 0.  0.
        -13    1    3    3    0    0 -0.26255698976E+02 -0.15828352643E+02 -0.18279265465E+03  0.18534579638E+03  0.10566000000E+00 0.  1.
         13    1    4    4    0    0  0.92361113899E+01  0.49950648192E+01 -0.12802665854E+02  0.16558256042E+02  0.10566000000E+00 0. -1.
        -13    1    4    4    0    0  0.10664021536E+02  0.71804881130E+01 -0.15795287809E+02  0.20366223161E+02  0.10566000000E+00 0.  1.
        -14    1    4    4    0    0  0.63555660500E+01  0.36527997109E+01 -0.77326969908E+01  0.10655081806E+02  0.00000000000E+00 0.  1.
<mgrwt>
<rscale>  0 0.78988602E+02</rscale>
<asrwt>0</asrwt>
<pdfrwt beam="1">  1        2 0.10616965E-02 0.78988602E+02</pdfrwt>
<pdfrwt beam="2">  1       -1 0.34772968E-01 0.78988602E+02</pdfrwt>
<totfact> 0.98999466E+04</totfact>
</mgrwt>
</event>
<event>
 8    1  0.2603554E-020  0.8341128E+02  0.7818608E-02  0.1319640E+00
          2   -1    0    0  501    0  0.00000000000E+00  0.00000000000E+00  0.13475164151E+03  0.13475164153E+03  0.25500000000E-02 0. -1.
         -1   -1    0    0    0  501 -0.00000000000E+00 -0.00000000000E+00 -0.12907897789E+02  0.12907898773E+02  0.50400000000E-02 0.  1.
         24    2    1    2    0    0  0.00000000000E+00 -0.35527136788E-14  0.12184374372E+03  0.14765954031E+03  0.83411281969E+02 0.  0.
         66    2    3    3    0    0  0.18624929077E+02  0.17847657570E+02  0.11891563462E+03  0.12169780210E+03  0.20000035942E+01 0.  0.
        -13    1    3    3    0    0 -0.18624929077E+02 -0.17847657570E+02  0.29281090989E+01  0.25961738208E+02  0.10566000000E+00 0.  1.
         13    1    4    4    0    0  0.64632468921E+00  0.66061609619E+00  0.55407093859E+01  0.56182536224E+01  0.10566000000E+00 0. -1.
        -13    1    4    4    0    0  0.47237809411E+01  0.53366274431E+01  0.31510693931E+02  0.32306790229E+02  0.10566000000E+00 0.  1.
         14    1    4    4    0    0  0.13254823446E+02  0.11850414030E+02  0.81864231304E+02  0.83772758247E+02  0.00000000000E+00 0. -1.
<mgrwt>
<rscale>  0 0.83411282E+02</rscale>
<asrwt>0</asrwt>
<pdfrwt beam="1">  1        2 0.20731020E-01 0.83411282E+02</pdfrwt>
<pdfrwt beam="2">  1       -1 0.19858307E-02 0.83411282E+02</pdfrwt>
<totfact> 0.17321281E+05</totfact>
</mgrwt>
</event>
<event>
 8    1  0.2603554E-020  0.7927664E+02  0.7818608E-02  0.1331117E+00
         -1   -1    0    0    0  501 -0.00000000000E+00  0.00000000000E+00  0.92671521755E+02  0.92671521892E+02  0.50400000000E-02 0.  1.
          2   -1    0    0  501    0  0.00000000000E+00 -0.00000000000E+00 -0.16954466711E+02  0.16954466903E+02  0.25500000000E-02 0. -1.
         24    2    1    2    0    0 -0.44408920985E-15  0.00000000000E+00  0.75717055044E+02  0.10962598879E+03  0.79276635869E+02 0.  0.
         66    2    3    3    0    0 -0.24517846016E+01  0.38256709264E+02  0.51683450905E+02  0.64379858094E+02  0.19999948393E+01 0.  0.
        -13    1    3    3    0    0  0.24517846016E+01 -0.38256709264E+02  0.24033604139E+02  0.45246130700E+02  0.10566000000E+00 0.  1.
         13    1    4    4    0    0 -0.17949621080E+00  0.45274790749E+01  0.58408635263E+01  0.73930464919E+01  0.10566000000E+00 0. -1.
        -13    1    4    4    0    0 -0.11833790392E+01  0.26423871063E+02  0.35116163550E+02  0.43963364912E+02  0.10566000000E+00 0.  1.
        -14    1    4    4    0    0 -0.10889093517E+01  0.73053591252E+01  0.10726423829E+02  0.13023446690E+02  0.00000000000E+00 0.  1.
<mgrwt>
<rscale>  0 0.79276636E+02</rscale>
<asrwt>0</asrwt>
<pdfrwt beam="1">  1        2 0.26083796E-02 0.79276636E+02</pdfrwt>
<pdfrwt beam="2">  1       -1 0.14257157E-01 0.79276636E+02</pdfrwt>
<totfact> 0.12320617E+05</totfact>
</mgrwt>
</event>
<event>
 8    1  0.2603554E-020  0.7980720E+02  0.7818608E-02  0.1329599E+00
          2   -1    0    0  501    0  0.00000000000E+00  0.00000000000E+00  0.32427156467E+04  0.32427156467E+04  0.25500000000E-02 0. -1.
         -1   -1    0    0    0  501 -0.00000000000E+00 -0.00000000000E+00 -0.49102525894E+00  0.49105112413E+00  0.50400000000E-02 0.  1.
         24    2    1    2    0    0  0.00000000000E+00  0.00000000000E+00  0.32422246215E+04  0.32432066979E+04  0.79807198543E+02 0.  0.
         66    2    3    3    0    0 -0.20932622387E+01 -0.10383480289E+02  0.31844964093E+04  0.31845146536E+04  0.19999986379E+01 0.  0.
        -13    1    3    3    0    0  0.20932622387E+01  0.10383480289E+02  0.57728212217E+02  0.58692044261E+02  0.10566000000E+00 0.  1.
         13    1    4    4    0    0 -0.12646465657E+01 -0.90775544043E+01  0.26129646962E+04  0.26129807722E+04  0.10566000000E+00 0. -1.
        -13    1    4    4    0    0 -0.12940230191E+00 -0.33860632507E+00  0.15348785870E+03  0.15348832311E+03  0.10566000000E+00 0.  1.
         14    1    4    4    0    0 -0.69921337103E+00 -0.96731955991E+00  0.41804385439E+03  0.41804555828E+03  0.00000000000E+00 0. -1.
<mgrwt>
<rscale>  0 0.79807199E+02</rscale>
<asrwt>0</asrwt>
<pdfrwt beam="1">  1        2 0.49888145E+00 0.79807199E+02</pdfrwt>
<pdfrwt beam="2">  1       -1 0.75544017E-04 0.79807199E+02</pdfrwt>
<totfact> 0.11673925E+05</totfact>
</mgrwt>
</event>
<event>
 8    1  0.2603554E-020  0.7977478E+02  0.7818608E-02  0.1329692E+00
          2   -1    0    0  501    0  0.00000000000E+00  0.00000000000E+00  0.68445757892E+02  0.68445757939E+02  0.25500000000E-02 0. -1.
         -1   -1    0    0    0  501 -0.00000000000E+00 -0.00000000000E+00 -0.23244741313E+02  0.23244741859E+02  0.50400000000E-02 0.  1.
         24    2    1    2    0    0  0.88817841970E-15  0.00000000000E+00  0.45201016579E+02  0.91690499799E+02  0.79774782065E+02 0.  0.
         66    2    3    3    0    0  0.74879695094E+01 -0.25687414532E+02  0.56576203135E+02  0.62616129884E+02  0.20000019269E+01 0.  0.
        -13    1    3    3    0    0 -0.74879695094E+01  0.25687414532E+02 -0.11375186557E+02  0.29074369915E+02  0.10566000000E+00 0.  1.
         13    1    4    4    0    0  0.45135576494E+01 -0.14708111949E+02  0.33214617607E+02  0.36604955219E+02  0.10566000000E+00 0. -1.
        -13    1    4    4    0    0  0.26071888339E+01 -0.77276244158E+01  0.17129280930E+02  0.18972006798E+02  0.10566000000E+00 0.  1.
        -14    1    4    4    0    0  0.36722302611E+00 -0.32516781673E+01  0.62323045984E+01  0.70391678671E+01  0.00000000000E+00 0.  1.
<mgrwt>
<rscale>  0 0.79774782E+02</rscale>
<asrwt>0</asrwt>
<pdfrwt beam="1">  1        2 0.10530116E-01 0.79774782E+02</pdfrwt>
<pdfrwt beam="2">  1       -1 0.35761142E-02 0.79774782E+02</pdfrwt>
<totfact> 0.16181657E+05</totfact>
</mgrwt>
</event>
<event>
 8    1  0.2603554E-020  0.8055013E+02  0.7818608E-02  0.1327497E+00
         -1   -1    0    0    0  501 -0.00000000000E+00  0.00000000000E+00  0.54002110580E+01  0.54002134099E+01  0.50400000000E-02 0.  1.
          2   -1    0    0  501    0  0.00000000000E+00 -0.00000000000E+00 -0.30037356151E+03  0.30037356152E+03  0.25500000000E-02 0. -1.
         24    2    1    2    0    0  0.00000000000E+00  0.00000000000E+00 -0.29497335045E+03  0.30577377493E+03  0.80550133200E+02 0.  0.
         66    2    3    3    0    0 -0.21223545388E+02 -0.17543031354E+01 -0.27723179691E+03  0.27805572406E+03  0.20000004746E+01 0.  0.
        -13    1    3    3    0    0  0.21223545388E+02  0.17543031354E+01 -0.17741553539E+02  0.27718050875E+02  0.10566000000E+00 0.  1.
         13    1    4    4    0    0 -0.70491703225E+01 -0.79878172423E+00 -0.91513262264E+02  0.91787892386E+02  0.10566000000E+00 0. -1.
        -13    1    4    4    0    0 -0.70287362793E+01  0.25208782288E+00 -0.95512831647E+02  0.95771492916E+02  0.10566000000E+00 0.  1.
        -14    1    4    4    0    0 -0.71456387861E+01 -0.12076092341E+01 -0.90205703003E+02  0.90496338755E+02  0.00000000000E+00 0.  1.
<mgrwt>
<rscale>  0 0.80550133E+02</rscale>
<asrwt>0</asrwt>
<pdfrwt beam="1">  1        2 0.46211304E-01 0.80550133E+02</pdfrwt>
<pdfrwt beam="2">  1       -1 0.83080212E-03 0.80550133E+02</pdfrwt>
<totfact> 0.25051644E+05</totfact>
</mgrwt>
</event>
<event>
 8    1  0.2603554E-020  0.8174191E+02  0.7818608E-02  0.1324180E+00
         -1   -1    0    0    0  501 -0.00000000000E+00  0.00000000000E+00  0.82478611332E+01  0.82478626730E+01  0.50400000000E-02 0.  1.
          2   -1    0    0  501    0  0.00000000000E+00 -0.00000000000E+00 -0.20252946457E+03  0.20252946458E+03  0.25500000000E-02 0. -1.
         24    2    1    2    0    0 -0.44408920985E-15  0.00000000000E+00 -0.19428160343E+03  0.21077732725E+03  0.81741912458E+02 0.  0.
         66    2    3    3    0    0  0.39221119920E+01 -0.18304036088E+02 -0.19081226353E+03  0.19173873006E+03  0.19999983979E+01 0.  0.
        -13    1    3    3    0    0 -0.39221119920E+01  0.18304036088E+02 -0.34693399030E+01  0.19038597191E+02  0.10566000000E+00 0.  1.
         13    1    4    4    0    0  0.81605144347E+00 -0.51289243064E+01 -0.55484078580E+02  0.55726707640E+02  0.10566000000E+00 0. -1.
        -13    1    4    4    0    0  0.15225571539E+01 -0.35082781224E+01 -0.38357071759E+02  0.38547403461E+02  0.10566000000E+00 0.  1.
        -14    1    4    4    0    0  0.15835033947E+01 -0.96668336597E+01 -0.96971113191E+02  0.97464618962E+02  0.00000000000E+00 0.  1.
<mgrwt>
<rscale>  0 0.81741912E+02</rscale>
<asrwt>0</asrwt>
<pdfrwt beam="1">  1        2 0.31158375E-01 0.81741912E+02</pdfrwt>
<pdfrwt beam="2">  1       -1 0.12689020E-02 0.81741912E+02</pdfrwt>
<totfact> 0.20929965E+05</totfact>
</mgrwt>
</event>
<event>
 8    1  0.2603554E-020  0.7961414E+02  0.7818608E-02  0.1330150E+00
         -1   -1    0    0    0  501 -0.00000000000E+00  0.00000000000E+00  0.20486820715E+02  0.20486821335E+02  0.50400000000E-02 0.  1.
          2   -1    0    0  501    0  0.00000000000E+00 -0.00000000000E+00 -0.77347417502E+02  0.77347417544E+02  0.25500000000E-02 0. -1.
         24    2    1    2    0    0  0.00000000000E+00  0.00000000000E+00 -0.56860596787E+02  0.97834238879E+02  0.79614137125E+02 0.  0.
         66    2    3    3    0    0  0.13998852971E+02 -0.37177839765E+02 -0.25859385589E+02  0.47443308010E+02  0.19999994458E+01 0.  0.
        -13    1    3    3    0    0 -0.13998852971E+02  0.37177839765E+02 -0.31001211198E+02  0.50390930869E+02  0.10566000000E+00 0.  1.
         13    1    4    4    0    0  0.24008469016E+01 -0.67751808265E+01 -0.53548106222E+01  0.89639445510E+01  0.10566000000E+00 0. -1.
        -13    1    4    4    0    0  0.59801397771E+00 -0.21654104709E+01 -0.12048843801E+01  0.25513787704E+01  0.10566000000E+00 0.  1.
        -14    1    4    4    0    0  0.10999992092E+02 -0.28237248467E+02 -0.19299690587E+02  0.35927984689E+02  0.00000000000E+00 0.  1.
<mgrwt>
<rscale>  0 0.79614137E+02</rscale>
<asrwt>0</asrwt>
<pdfrwt beam="1">  1        2 0.11899603E-01 0.79614137E+02</pdfrwt>
<pdfrwt beam="2">  1       -1 0.31518187E-02 0.79614137E+02</pdfrwt>
<totfact> 0.16769901E+05</totfact>
</mgrwt>
</event>
<event>
 8    1  0.2603554E-020  0.7894081E+02  0.7818608E-02  0.1332084E+00
          2   -1    0    0  501    0  0.00000000000E+00  0.00000000000E+00  0.19146597605E+03  0.19146597607E+03  0.25500000000E-02 0. -1.
         -1   -1    0    0    0  501 -0.00000000000E+00 -0.00000000000E+00 -0.81367606479E+01  0.81367622088E+01  0.50400000000E-02 0.  1.
         24    2    1    2    0    0 -0.17763568394E-14 -0.71054273576E-14  0.18332921540E+03  0.19960273827E+03  0.78940812684E+02 0.  0.
         66    2    3    3    0    0 -0.10055920900E+02 -0.37714844183E+02  0.10611071453E+03  0.11307968321E+03  0.19999999546E+01 0.  0.
        -13    1    3    3    0    0  0.10055920900E+02  0.37714844183E+02  0.77218500868E+02  0.86523055062E+02  0.10566000000E+00 0.  1.
         13    1    4    4    0    0 -0.52349538875E+01 -0.17851831772E+02  0.50770563566E+02  0.54071747971E+02  0.10566000000E+00 0. -1.
        -13    1    4    4    0    0 -0.55337621394E+00 -0.13393418032E+01  0.33432946119E+01  0.36453867556E+01  0.10566000000E+00 0.  1.
        -14    1    4    4    0    0 -0.42675907989E+01 -0.18523670608E+02  0.51996856355E+02  0.55362548486E+02  0.00000000000E+00 0.  1.
<mgrwt>
<rscale>  0 0.78940813E+02</rscale>
<asrwt>0</asrwt>
<pdfrwt beam="1">  1        2 0.29456306E-01 0.78940813E+02</pdfrwt>
<pdfrwt beam="2">  1       -1 0.12518094E-02 0.78940813E+02</pdfrwt>
<totfact> 0.22506263E+05</totfact>
</mgrwt>
</event>
<event>
 8    1  0.2603554E-020  0.7814926E+02  0.7818608E-02  0.1334387E+00
          2   -1    0    0  501    0  0.00000000000E+00  0.00000000000E+00  0.59273891560E+03  0.59273891560E+03  0.25500000000E-02 0. -1.
         -1   -1    0    0    0  501 -0.00000000000E+00 -0.00000000000E+00 -0.25758813859E+01  0.25758863165E+01  0.50400000000E-02 0.  1.
         24    2    1    2    0    0 -0.17763568394E-14  0.44408920985E-15  0.59016303421E+03  0.59531480192E+03  0.78149257415E+02 0.  0.
         66    2    3    3    0    0  0.12170986007E+02  0.37140005399E+01  0.57649865664E+03  0.57664254767E+03  0.19999935380E+01 0.  0.
        -13    1    3    3    0    0 -0.12170986007E+02 -0.37140005399E+01  0.13664377577E+02  0.18672254255E+02  0.10566000000E+00 0.  1.
         13    1    4    4    0    0  0.56433980312E+01  0.21047149316E+01  0.26498589459E+03  0.26505435907E+03  0.10566000000E+00 0. -1.
        -13    1    4    4    0    0  0.73176771001E+00  0.47673465283E+00  0.57888054359E+02  0.57894738633E+02  0.10566000000E+00 0.  1.
        -14    1    4    4    0    0  0.57958202656E+01  0.11325509555E+01  0.25362470768E+03  0.25369344996E+03  0.00000000000E+00 0.  1.
<mgrwt>
<rscale>  0 0.78149257E+02</rscale>
<asrwt>0</asrwt>
<pdfrwt beam="1">  1        2 0.91190703E-01 0.78149257E+02</pdfrwt>
<pdfrwt beam="2">  1       -1 0.39628939E-03 0.78149257E+02</pdfrwt>
<totfact> 0.34064839E+05</totfact>
</mgrwt>
</event>
<event>
 8    1  0.2603554E-020  0.7965858E+02  0.7818608E-02  0.1330023E+00
         -1   -1    0    0    0  501 -0.00000000000E+00  0.00000000000E+00  0.39643741104E+03  0.39643741107E+03  0.50400000000E-02 0.  1.
          2   -1    0    0  501    0  0.00000000000E+00 -0.00000000000E+00 -0.40015703558E+01  0.40015711683E+01  0.25500000000E-02 0. -1.
         24    2    1    2    0    0  0.00000000000E+00  0.00000000000E+00  0.39243584068E+03  0.40043898224E+03  0.79658580480E+02 0.  0.
         66    2    3    3    0    0  0.15735820436E+02 -0.32901443283E+02  0.27649636926E+03  0.27889848194E+03  0.20000000005E+01 0.  0.
        -13    1    3    3    0    0 -0.15735820436E+02  0.32901443283E+02  0.11593947142E+03  0.12154050030E+03  0.10566000000E+00 0.  1.
         13    1    4    4    0    0  0.82408619582E+00 -0.15570402719E+01  0.11130429984E+02  0.11269477722E+02  0.10566000000E+00 0.  1.
        -13    1    4    4    0    0  0.46504361709E+01 -0.87598505094E+01  0.73615624584E+02  0.74280770624E+02  0.10566000000E+00 0. -1.
        -14    1    4    4    0    0  0.10261298069E+02 -0.22584552501E+02  0.19175031470E+03  0.19334823360E+03  0.00000000000E+00 0.  1.
<mgrwt>
<rscale>  0 0.79658580E+02</rscale>
<asrwt>0</asrwt>
<pdfrwt beam="1">  1        2 0.61562636E-03 0.79658580E+02</pdfrwt>
<pdfrwt beam="2">  1       -1 0.60990362E-01 0.79658580E+02</pdfrwt>
<totfact> 0.76989007E+04</totfact>
</mgrwt>
</event>
<event>
 8    1  0.2603554E-020  0.8065862E+02  0.7818608E-02  0.1327193E+00
         -1   -1    0    0    0  501 -0.00000000000E+00  0.00000000000E+00  0.14112662666E+01  0.14112752661E+01  0.50400000000E-02 0.  1.
          2   -1    0    0  501    0  0.00000000000E+00 -0.00000000000E+00 -0.11524743158E+04  0.11524743158E+04  0.25500000000E-02 0. -1.
         24    2    1    2    0    0  0.35527136788E-14  0.00000000000E+00 -0.11510630495E+04  0.11538855911E+04  0.80658621829E+02 0.  0.
         66    2    3    3    0    0 -0.24803257732E+02  0.15982445800E+01 -0.10297845596E+04  0.10300864018E+04  0.19999993410E+01 0.  0.
        -13    1    3    3    0    0  0.24803257732E+02 -0.15982445800E+01 -0.12127848996E+03  0.12379918930E+03  0.10566000000E+00 0.  1.
         13    1    4    4    0    0 -0.19387160435E+02  0.74204847384E+00 -0.77945747749E+03  0.77969890535E+03  0.10566000000E+00 0. -1.
        -13    1    4    4    0    0 -0.17437502356E+01  0.10142196270E+00 -0.81935255682E+02  0.81953939741E+02  0.10566000000E+00 0.  1.
        -14    1    4    4    0    0 -0.36723470613E+01  0.75477414343E+00 -0.16839182642E+03  0.16843355670E+03  0.00000000000E+00 0.  1.
<mgrwt>
<rscale>  0 0.80658622E+02</rscale>
<asrwt>0</asrwt>
<pdfrwt beam="1">  1        2 0.17730299E+00 0.80658622E+02</pdfrwt>
<pdfrwt beam="2">  1       -1 0.21711950E-03 0.80658622E+02</pdfrwt>
<totfact> 0.34426241E+05</totfact>
</mgrwt>
</event>
<event>
 8    1  0.2603554E-020  0.7463562E+02  0.7818608E-02  0.1345003E+00
         -1   -1    0    0    0  501 -0.00000000000E+00  0.00000000000E+00  0.12580555611E+02  0.12580556621E+02  0.50400000000E-02 0.  1.
          2   -1    0    0  501    0  0.00000000000E+00 -0.00000000000E+00 -0.11069612850E+03  0.11069612853E+03  0.25500000000E-02 0. -1.
         24    2    1    2    0    0  0.00000000000E+00  0.00000000000E+00 -0.98115572889E+02  0.12327668515E+03  0.74635617894E+02 0.  0.
         66    2    3    3    0    0 -0.28325934437E+02 -0.12871908134E+02 -0.83046360146E+02  0.88705932809E+02  0.20000003310E+01 0.  0.
        -13    1    3    3    0    0  0.28325934437E+02  0.12871908134E+02 -0.15069212743E+02  0.34570752342E+02  0.10566000000E+00 0.  1.
         13    1    4    4    0    0 -0.38003646141E+01 -0.16735045710E+01 -0.11023296102E+02  0.11779966457E+02  0.10566000000E+00 0. -1.
        -13    1    4    4    0    0 -0.16116234210E+02 -0.68041163068E+01 -0.48698623336E+02  0.51745493356E+02  0.10566000000E+00 0.  1.
        -14    1    4    4    0    0 -0.84093356128E+01 -0.43942872566E+01 -0.23324440708E+02  0.25180472996E+02  0.00000000000E+00 0.  1.
<mgrwt>
<rscale>  0 0.74635618E+02</rscale>
<asrwt>0</asrwt>
<pdfrwt beam="1">  1        2 0.17030173E-01 0.74635618E+02</pdfrwt>
<pdfrwt beam="2">  1       -1 0.19354703E-02 0.74635618E+02</pdfrwt>
<totfact> 0.21947853E+05</totfact>
</mgrwt>
</event>
<event>
 8    1  0.2603554E-020  0.7454866E+02  0.7818608E-02  0.1345274E+00
          2   -1    0    0  501    0  0.00000000000E+00  0.00000000000E+00  0.17715090454E+02  0.17715090637E+02  0.25500000000E-02 0. -1.
         -1   -1    0    0    0  501 -0.00000000000E+00 -0.00000000000E+00 -0.78428943053E+02  0.78428943215E+02  0.50400000000E-02 0.  1.
         24    2    1    2    0    0  0.00000000000E+00  0.00000000000E+00 -0.60713852599E+02  0.96144033853E+02  0.74548664294E+02 0.  0.
         66    2    3    3    0    0 -0.16524115987E+02  0.13071830758E+02  0.92347049792E+01  0.23091100716E+02  0.19999969293E+01 0.  0.
        -13    1    3    3    0    0  0.16524115987E+02 -0.13071830758E+02 -0.69948557579E+02  0.73052933137E+02  0.10566000000E+00 0.  1.
         13    1    4    4    0    0 -0.13412976259E+02  0.10886101950E+02  0.68937867893E+01  0.18599747528E+02  0.10566000000E+00 0. -1.
        -13    1    4    4    0    0 -0.25708866148E+01  0.16072036032E+01  0.17380790765E+01  0.34963758837E+01  0.10566000000E+00 0.  1.
         14    1    4    4    0    0 -0.54025311277E+00  0.57852520495E+00  0.60283911331E+00  0.99497730384E+00  0.00000000000E+00 0. -1.
<mgrwt>
<rscale>  0 0.74548664E+02</rscale>
<asrwt>0</asrwt>
<pdfrwt beam="1">  1        2 0.27253986E-02 0.74548664E+02</pdfrwt>
<pdfrwt beam="2">  1       -1 0.12065991E-01 0.74548664E+02</pdfrwt>
<totfact> 0.14834943E+05</totfact>
</mgrwt>
</event>
<event>
 8    1  0.2603554E-020  0.7910536E+02  0.7818608E-02  0.1331610E+00
          2   -1    0    0  501    0  0.00000000000E+00  0.00000000000E+00  0.39103004495E+02  0.39103004578E+02  0.25500000000E-02 0. -1.
         -1   -1    0    0    0  501 -0.00000000000E+00 -0.00000000000E+00 -0.40007524208E+02  0.40007524525E+02  0.50400000000E-02 0.  1.
         24    2    1    2    0    0  0.00000000000E+00  0.00000000000E+00 -0.90451971276E+00  0.79110529103E+02  0.79105357967E+02 0.  0.
         66    2    3    3    0    0 -0.30834863762E+02 -0.12020934537E+02  0.21161772349E+02  0.39333348462E+02  0.20000004876E+01 0.  0.
        -13    1    3    3    0    0  0.30834863762E+02  0.12020934537E+02 -0.22066292061E+02  0.39777180641E+02  0.10566000000E+00 0.  1.
         13    1    4    4    0    0 -0.13437709413E+02 -0.50961591981E+01  0.91087746514E+01  0.17015399277E+02  0.10566000000E+00 0. -1.
        -13    1    4    4    0    0 -0.11571654238E+02 -0.47322075115E+01  0.72186183263E+01  0.14436640341E+02  0.10566000000E+00 0.  1.
        -14    1    4    4    0    0 -0.58255001101E+01 -0.21925678270E+01  0.48343793710E+01  0.78813088450E+01  0.00000000000E+00 0.  1.
<mgrwt>
<rscale>  0 0.79105358E+02</rscale>
<asrwt>0</asrwt>
<pdfrwt beam="1">  1        2 0.60158468E-02 0.79105358E+02</pdfrwt>
<pdfrwt beam="2">  1       -1 0.61550038E-02 0.79105358E+02</pdfrwt>
<totfact> 0.14637232E+05</totfact>
</mgrwt>
</event>
<event>
 8    1  0.2603554E-020  0.7673135E+02  0.7818608E-02  0.1338592E+00
         -1   -1    0    0    0  501 -0.00000000000E+00  0.00000000000E+00  0.10106672278E+01  0.10106797945E+01  0.50400000000E-02 0.  1.
          2   -1    0    0  501    0  0.00000000000E+00 -0.00000000000E+00 -0.14563803914E+04  0.14563803914E+04  0.25500000000E-02 0. -1.
         24    2    1    2    0    0 -0.88817841970E-15  0.00000000000E+00 -0.14553697242E+04  0.14573910712E+04  0.76731351917E+02 0.  0.
         66    2    3    3    0    0  0.69950581418E+01  0.18710215948E+02 -0.13497351916E+04  0.13498844731E+04  0.19999982861E+01 0.  0.
        -13    1    3    3    0    0 -0.69950581418E+01 -0.18710215948E+02 -0.10563453255E+03  0.10750659818E+03  0.10566000000E+00 0.  1.
         13    1    4    4    0    0  0.14788423835E+01  0.54254257738E+01 -0.42780937883E+03  0.42784634858E+03  0.10566000000E+00 0. -1.
        -13    1    4    4    0    0  0.10067719725E+01  0.21732132588E+01 -0.14832384481E+03  0.14834321875E+03  0.10566000000E+00 0.  1.
         14    1    4    4    0    0  0.45094437859E+01  0.11111576916E+02 -0.77360196800E+03  0.77369490571E+03  0.00000000000E+00 0. -1.
<mgrwt>
<rscale>  0 0.76731352E+02</rscale>
<asrwt>0</asrwt>
<pdfrwt beam="1">  1        2 0.22405684E+00 0.76731352E+02</pdfrwt>
<pdfrwt beam="2">  1       -1 0.15548940E-03 0.76731352E+02</pdfrwt>
<totfact> 0.37440949E+05</totfact>
</mgrwt>
</event>
<event>
 8    1  0.2603554E-020  0.8025487E+02  0.7818608E-02  0.1328330E+00
         -1   -1    0    0    0  501 -0.00000000000E+00  0.00000000000E+00  0.19900199580E+03  0.19900199586E+03  0.50400000000E-02 0.  1.
          2   -1    0    0  501    0  0.00000000000E+00 -0.00000000000E+00 -0.80914314885E+01  0.80914318903E+01  0.25500000000E-02 0. -1.
         24    2    1    2    0    0  0.00000000000E+00  0.17763568394E-14  0.19091056431E+03  0.20709342775E+03  0.80254870588E+02 0.  0.
         66    2    3    3    0    0 -0.30637798675E+02  0.14100488031E+02  0.39529545669E+02  0.52000802398E+02  0.19999997305E+01 0.  0.
        -13    1    3    3    0    0  0.30637798675E+02 -0.14100488031E+02  0.15138101864E+03  0.15509262535E+03  0.10566000000E+00 0.  1.
         13    1    4    4    0    0 -0.34373291343E+01  0.17550813446E+01  0.54062212322E+01  0.66433375761E+01  0.10566000000E+00 0.  1.
        -13    1    4    4    0    0 -0.18282677877E+02  0.83975285371E+01  0.23516242881E+02  0.30948338229E+02  0.10566000000E+00 0. -1.
        -14    1    4    4    0    0 -0.89177916641E+01  0.39478781490E+01  0.10607081556E+02  0.14409126593E+02  0.00000000000E+00 0.  1.
<mgrwt>
<rscale>  0 0.80254871E+02</rscale>
<asrwt>0</asrwt>
<pdfrwt beam="1">  1        2 0.12448357E-02 0.80254871E+02</pdfrwt>
<pdfrwt beam="2">  1       -1 0.30615691E-01 0.80254871E+02</pdfrwt>
<totfact> 0.98950154E+04</totfact>
</mgrwt>
</event>
<event>
 8    1  0.2603554E-020  0.8101170E+02  0.7818608E-02  0.1326205E+00
          2   -1    0    0  501    0  0.00000000000E+00  0.00000000000E+00  0.47959909564E+03  0.47959909564E+03  0.25500000000E-02 0. -1.
         -1   -1    0    0    0  501 -0.00000000000E+00 -0.00000000000E+00 -0.34210303493E+01  0.34210340619E+01  0.50400000000E-02 0.  1.
         24    2    1    2    0    0  0.00000000000E+00  0.00000000000E+00  0.47617806529E+03  0.48302012970E+03  0.81011701869E+02 0.  0.
         66    2    3    3    0    0  0.23538965428E+01 -0.15830302201E+02  0.45993214064E+03  0.46021485557E+03  0.19999991503E+01 0.  0.
        -13    1    3    3    0    0 -0.23538965428E+01  0.15830302201E+02  0.16245924647E+02  0.22805274135E+02  0.10566000000E+00 0.  1.
         13    1    4    4    0    0  0.34510682396E+00 -0.61257354337E+01  0.19262580666E+03  0.19272352292E+03  0.10566000000E+00 0. -1.
        -13    1    4    4    0    0  0.18525785642E-01 -0.43303940101E+00  0.91013941719E+01  0.91123216710E+01  0.10566000000E+00 0.  1.
         14    1    4    4    0    0  0.19902639332E+01 -0.92715273664E+01  0.25820493981E+03  0.25837901097E+03  0.00000000000E+00 0. -1.
<mgrwt>
<rscale>  0 0.81011702E+02</rscale>
<asrwt>0</asrwt>
<pdfrwt beam="1">  1        2 0.73784437E-01 0.81011702E+02</pdfrwt>
<pdfrwt beam="2">  1       -1 0.52631293E-03 0.81011702E+02</pdfrwt>
<totfact> 0.29076113E+05</totfact>
</mgrwt>
</event>
<event>
 8    1  0.2603554E-020  0.8027925E+02  0.7818608E-02  0.1328261E+00
         -1   -1    0    0    0  501 -0.00000000000E+00  0.00000000000E+00  0.13100699281E+01  0.13100796229E+01  0.50400000000E-02 0.  1.
          2   -1    0    0  501    0  0.00000000000E+00 -0.00000000000E+00 -0.12298454368E+04  0.12298454368E+04  0.25500000000E-02 0. -1.
         24    2    1    2    0    0  0.35527136788E-14  0.00000000000E+00 -0.12285353669E+04  0.12311555164E+04  0.80279249935E+02 0.  0.
         66    2    3    3    0    0  0.18304273593E+02  0.34385032271E+01 -0.11595185581E+04  0.11596698479E+04  0.20000001747E+01 0.  0.
        -13    1    3    3    0    0 -0.18304273593E+02 -0.34385032271E+01 -0.69016808829E+02  0.71485668502E+02  0.10566000000E+00 0.  1.
         13    1    4    4    0    0  0.10771653283E+02  0.20512827123E+01 -0.72463707489E+03  0.72472004094E+03  0.10566000000E+00 0. -1.
        -13    1    4    4    0    0  0.18699707200E+01 -0.40144630433E-02 -0.11265532029E+03  0.11267088870E+03  0.10566000000E+00 0.  1.
         14    1    4    4    0    0  0.56626495902E+01  0.13912349778E+01 -0.32222616287E+03  0.32227891829E+03  0.00000000000E+00 0. -1.
<mgrwt>
<rscale>  0 0.80279250E+02</rscale>
<asrwt>0</asrwt>
<pdfrwt beam="1">  1        2 0.18920607E+00 0.80279250E+02</pdfrwt>
<pdfrwt beam="2">  1       -1 0.20155095E-03 0.80279250E+02</pdfrwt>
<totfact> 0.34618198E+05</totfact>
</mgrwt>
</event>
<event>
 8    1  0.2603554E-020  0.8130214E+02  0.7818608E-02  0.1325396E+00
          2   -1    0    0  501    0  0.00000000000E+00  0.00000000000E+00  0.55942349487E+03  0.55942349487E+03  0.25500000000E-02 0. -1.
         -1   -1    0    0    0  501 -0.00000000000E+00 -0.00000000000E+00 -0.29539483809E+01  0.29539526805E+01  0.50400000000E-02 0.  1.
         24    2    1    2    0    0  0.00000000000E+00  0.00000000000E+00  0.55646954649E+03  0.56237744755E+03  0.81302136196E+02 0.  0.
         66    2    3    3    0    0  0.22807138683E+02 -0.63644269747E+01  0.50675523540E+03  0.50731207371E+03  0.20000055293E+01 0.  0.
        -13    1    3    3    0    0 -0.22807138683E+02  0.63644269747E+01  0.49714311089E+02  0.55065373845E+02  0.10566000000E+00 0.  1.
         13    1    4    4    0    0  0.15494892223E+02 -0.52420445319E+01  0.34692545825E+03  0.34731089166E+03  0.10566000000E+00 0. -1.
        -13    1    4    4    0    0  0.34814168211E+01 -0.60243151722E+00  0.73918512101E+02  0.74002978197E+02  0.10566000000E+00 0. -1.
         14    1    4    4    0    0  0.38308296382E+01 -0.51995092559E+00  0.85911265045E+02  0.85998203855E+02  0.00000000000E+00 0. -1.
<mgrwt>
<rscale>  0 0.81302136E+02</rscale>
<asrwt>0</asrwt>
<pdfrwt beam="1">  1        2 0.86065231E-01 0.81302136E+02</pdfrwt>
<pdfrwt beam="2">  1       -1 0.45445352E-03 0.81302136E+02</pdfrwt>
<totfact> 0.30223799E+05</totfact>
</mgrwt>
</event>
<event>
 8    1  0.2603554E-020  0.7923239E+02  0.7818608E-02  0.1331244E+00
         -1   -1    0    0    0  501 -0.00000000000E+00  0.00000000000E+00  0.92523165599E+02  0.92523165736E+02  0.50400000000E-02 0.  1.
          2   -1    0    0  501    0  0.00000000000E+00 -0.00000000000E+00 -0.16962703981E+02  0.16962704173E+02  0.25500000000E-02 0. -1.
         24    2    1    2    0    0  0.88817841970E-15  0.00000000000E+00  0.75560461618E+02  0.10948586991E+03  0.79232394574E+02 0.  0.
         66    2    3    3    0    0  0.73190807225E+01  0.18490200944E+02 -0.95017066792E+01  0.22130045187E+02  0.19999991436E+01 0.  0.
        -13    1    3    3    0    0 -0.73190807225E+01 -0.18490200944E+02  0.85062168297E+02  0.87355824723E+02  0.10566000000E+00 0.  1.
         13    1    4    4    0    0  0.36826794109E+01  0.89646799192E+01 -0.36147248072E+01  0.10344322750E+02  0.10566000000E+00 0. -1.
        -13    1    4    4    0    0  0.34879931978E+01  0.88355039633E+01 -0.53868849066E+01  0.10920710593E+02  0.10566000000E+00 0.  1.
        -14    1    4    4    0    0  0.14840811376E+00  0.69001706164E+00 -0.50009696539E+00  0.86501184291E+00  0.00000000000E+00 0.  1.
<mgrwt>
<rscale>  0 0.79232395E+02</rscale>
<asrwt>0</asrwt>
<pdfrwt beam="1">  1        2 0.26096468E-02 0.79232395E+02</pdfrwt>
<pdfrwt beam="2">  1       -1 0.14234333E-01 0.79232395E+02</pdfrwt>
<totfact> 0.12341839E+05</totfact>
</mgrwt>
</event>
<event>
 8    1  0.2603554E-020  0.8027293E+02  0.7818608E-02  0.1328279E+00
         -1   -1    0    0    0  501 -0.00000000000E+00  0.00000000000E+00  0.25413794929E+01  0.25413844905E+01  0.50400000000E-02 0.  1.
          2   -1    0    0  501    0  0.00000000000E+00 -0.00000000000E+00 -0.63388183454E+03  0.63388183455E+03  0.25500000000E-02 0. -1.
         24    2    1    2    0    0 -0.35527136788E-14  0.00000000000E+00 -0.63134045505E+03  0.63642321904E+03  0.80272931606E+02 0.  0.
         66    2    3    3    0    0 -0.26397882763E+02 -0.61179141915E+00 -0.55525501231E+03  0.55588609553E+03  0.19999994169E+01 0.  0.
        -13    1    3    3    0    0  0.26397882763E+02  0.61179141915E+00 -0.76085442736E+02  0.80537123512E+02  0.10566000000E+00 0.  1.
         13    1    4    4    0    0 -0.29059526517E+01  0.54548330398E-02 -0.66812700301E+02  0.66875949908E+02  0.10566000000E+00 0. -1.
        -13    1    4    4    0    0 -0.20700778779E+02 -0.31866536873E+00 -0.43955789691E+03  0.44004520187E+03  0.10566000000E+00 0.  1.
        -14    1    4    4    0    0 -0.27911513318E+01 -0.29858088345E+00 -0.48884415104E+02  0.48964943749E+02  0.00000000000E+00 0.  1.
<mgrwt>
<rscale>  0 0.80272932E+02</rscale>
<asrwt>0</asrwt>
<pdfrwt beam="1">  1        2 0.97520156E-01 0.80272932E+02</pdfrwt>
<pdfrwt beam="2">  1       -1 0.39098235E-03 0.80272932E+02</pdfrwt>
<totfact> 0.32356902E+05</totfact>
</mgrwt>
</event>
<event>
 8    1  0.2603554E-020  0.7981621E+02  0.7818608E-02  0.1329574E+00
          2   -1    0    0  501    0  0.00000000000E+00  0.00000000000E+00  0.15419056985E+02  0.15419057196E+02  0.25500000000E-02 0. -1.
         -1   -1    0    0    0  501 -0.00000000000E+00 -0.00000000000E+00 -0.10329144774E+03  0.10329144786E+03  0.50400000000E-02 0.  1.
         24    2    1    2    0    0  0.88817841970E-15  0.00000000000E+00 -0.87872390752E+02  0.11871050506E+03  0.79816207339E+02 0.  0.
         66    2    3    3    0    0 -0.78933817683E+01 -0.17844323693E+02  0.77704718980E+01  0.21097525879E+02  0.20000002169E+01 0.  0.
        -13    1    3    3    0    0  0.78933817683E+01  0.17844323693E+02 -0.95642862650E+02  0.97612979177E+02  0.10566000000E+00 0.  1.
         13    1    4    4    0    0 -0.54110859376E+01 -0.12808819016E+02  0.54874888024E+01  0.14948892701E+02  0.10566000000E+00 0. -1.
        -13    1    4    4    0    0 -0.15542604147E+01 -0.20285184354E+01  0.11446162190E+01  0.28021282632E+01  0.10566000000E+00 0.  1.
        -14    1    4    4    0    0 -0.92803541609E+00 -0.30069862419E+01  0.11383668766E+01  0.33465049138E+01  0.00000000000E+00 0.  1.
<mgrwt>
<rscale>  0 0.79816207E+02</rscale>
<asrwt>0</asrwt>
<pdfrwt beam="1">  1        2 0.23721627E-02 0.79816207E+02</pdfrwt>
<pdfrwt beam="2">  1       -1 0.15890992E-01 0.79816207E+02</pdfrwt>
<totfact> 0.11838374E+05</totfact>
</mgrwt>
</event>
<event>
 8    1  0.2603554E-020  0.7966351E+02  0.7818608E-02  0.1330009E+00
         -1   -1    0    0    0  501 -0.00000000000E+00  0.00000000000E+00  0.21628680900E+01  0.21628739622E+01  0.50400000000E-02 0.  1.
          2   -1    0    0  501    0  0.00000000000E+00 -0.00000000000E+00 -0.73354758905E+03  0.73354758905E+03  0.25500000000E-02 0. -1.
         24    2    1    2    0    0  0.00000000000E+00  0.00000000000E+00 -0.73138472096E+03  0.73571046302E+03  0.79663513219E+02 0.  0.
         66    2    3    3    0    0 -0.19849622618E+01  0.33554626703E+02 -0.56285368155E+03  0.56386001798E+03  0.20000002996E+01 0.  0.
        -13    1    3    3    0    0  0.19849622618E+01 -0.33554626703E+02 -0.16853103941E+03  0.17185044503E+03  0.10566000000E+00 0.  1.
         13    1    4    4    0    0 -0.14960923994E+01  0.24020895147E+02 -0.41548043195E+03  0.41617693617E+03  0.10566000000E+00 0. -1.
        -13    1    4    4    0    0 -0.25848481350E+00  0.83612894106E+01 -0.12942886370E+03  0.12969895873E+03  0.10566000000E+00 0.  1.
         14    1    4    4    0    0 -0.23038504888E+00  0.11724421458E+01 -0.17944385895E+02  0.17984123081E+02  0.00000000000E+00 0. -1.
<mgrwt>
<rscale>  0 0.79663513E+02</rscale>
<asrwt>0</asrwt>
<pdfrwt beam="1">  1        2 0.11285328E+00 0.79663513E+02</pdfrwt>
<pdfrwt beam="2">  1       -1 0.33274998E-03 0.79663513E+02</pdfrwt>
<totfact> 0.34170016E+05</totfact>
</mgrwt>
</event>
<event>
 8    1  0.2603554E-020  0.8304288E+02  0.7818608E-02  0.1320631E+00
          2   -1    0    0  501    0  0.00000000000E+00  0.00000000000E+00  0.61522272090E+03  0.61522272091E+03  0.25500000000E-02 0. -1.
         -1   -1    0    0    0  501 -0.00000000000E+00 -0.00000000000E+00 -0.28022833688E+01  0.28022879011E+01  0.50400000000E-02 0.  1.
         24    2    1    2    0    0  0.71054273576E-14  0.88817841970E-15  0.61242043754E+03  0.61802500881E+03  0.83042875699E+02 0.  0.
         66    2    3    3    0    0 -0.36351278591E+02 -0.76732216716E+01  0.44396434559E+03  0.44552063245E+03  0.19999993934E+01 0.  0.
        -13    1    3    3    0    0  0.36351278591E+02  0.76732216716E+01  0.16845609195E+03  0.17250437636E+03  0.10566000000E+00 0.  1.
         13    1    4    4    0    0 -0.17420738845E+02 -0.42551447726E+01  0.22260307427E+03  0.22332426702E+03  0.10566000000E+00 0. -1.
        -13    1    4    4    0    0 -0.29741187725E+01 -0.37205209409E+00  0.35786314726E+02  0.35911770925E+02  0.10566000000E+00 0.  1.
         14    1    4    4    0    0 -0.15956420973E+02 -0.30460248049E+01  0.18557495659E+03  0.18628459451E+03  0.00000000000E+00 0. -1.
<mgrwt>
<rscale>  0 0.83042876E+02</rscale>
<asrwt>0</asrwt>
<pdfrwt beam="1">  1        2 0.94649677E-01 0.83042876E+02</pdfrwt>
<pdfrwt beam="2">  1       -1 0.43112074E-03 0.83042876E+02</pdfrwt>
<totfact> 0.29383017E+05</totfact>
</mgrwt>
</event>
<event>
 8    1  0.2603554E-020  0.8071489E+02  0.7818608E-02  0.1327035E+00
         -1   -1    0    0    0  501 -0.00000000000E+00  0.00000000000E+00  0.81031916007E+01  0.81031931681E+01  0.50400000000E-02 0.  1.
          2   -1    0    0  501    0  0.00000000000E+00 -0.00000000000E+00 -0.20099772377E+03  0.20099772378E+03  0.25500000000E-02 0. -1.
         24    2    1    2    0    0  0.35527136788E-14  0.00000000000E+00 -0.19289453216E+03  0.20910091695E+03  0.80714886670E+02 0.  0.
         66    2    3    3    0    0 -0.30749299474E+02 -0.38715364632E+01 -0.16337270856E+03  0.16629837677E+03  0.20000005676E+01 0.  0.
        -13    1    3    3    0    0  0.30749299474E+02  0.38715364632E+01 -0.29521823608E+02  0.42802540180E+02  0.10566000000E+00 0.  1.
         13    1    4    4    0    0 -0.13307918267E+02 -0.13865259541E+01 -0.70321387606E+02  0.71583041718E+02  0.10566000000E+00 0. -1.
        -13    1    4    4    0    0 -0.71232444722E+01 -0.10159385544E+01 -0.34297831791E+02  0.35044616884E+02  0.10566000000E+00 0.  1.
         14    1    4    4    0    0 -0.10318136734E+02 -0.14690719547E+01 -0.58753489159E+02  0.59670718166E+02  0.00000000000E+00 0. -1.
<mgrwt>
<rscale>  0 0.80714887E+02</rscale>
<asrwt>0</asrwt>
<pdfrwt beam="1">  1        2 0.30922723E-01 0.80714887E+02</pdfrwt>
<pdfrwt beam="2">  1       -1 0.12466451E-02 0.80714887E+02</pdfrwt>
<totfact> 0.21583868E+05</totfact>
</mgrwt>
</event>
<event>
 8    1  0.2603554E-020  0.8277120E+02  0.7818608E-02  0.1321366E+00
         -1   -1    0    0    0  501 -0.00000000000E+00  0.00000000000E+00  0.69767231283E+01  0.69767249487E+01  0.50400000000E-02 0.  1.
          2   -1    0    0  501    0  0.00000000000E+00 -0.00000000000E+00 -0.24549745486E+03  0.24549745488E+03  0.25500000000E-02 0. -1.
         24    2    1    2    0    0  0.00000000000E+00  0.17763568394E-14 -0.23852073174E+03  0.25247417983E+03  0.82771202789E+02 0.  0.
         66    2    3    3    0    0  0.16709600756E+02  0.85374179878E+01 -0.23176281649E+03  0.23252978598E+03  0.19999997472E+01 0.  0.
        -13    1    3    3    0    0 -0.16709600756E+02 -0.85374179878E+01 -0.67579152491E+01  0.19944393846E+02  0.10566000000E+00 0.  1.
         13    1    4    4    0    0  0.82240115724E+01  0.45521360610E+01 -0.12084912813E+03  0.12121418747E+03  0.10566000000E+00 0. -1.
        -13    1    4    4    0    0  0.15431863424E+01  0.12408420879E+01 -0.24348890455E+02  0.24429505595E+02  0.10566000000E+00 0.  1.
         14    1    4    4    0    0  0.69424028410E+01  0.27444398388E+01 -0.86564797898E+02  0.86886092916E+02  0.00000000000E+00 0. -1.
<mgrwt>
<rscale>  0 0.82771203E+02</rscale>
<asrwt>0</asrwt>
<pdfrwt beam="1">  1        2 0.37768833E-01 0.82771203E+02</pdfrwt>
<pdfrwt beam="2">  1       -1 0.10733423E-02 0.82771203E+02</pdfrwt>
<totfact> 0.21678981E+05</totfact>
</mgrwt>
</event>
<event>
 8    1  0.2603554E-020  0.8797934E+02  0.7818608E-02  0.1307820E+00
          2   -1    0    0  501    0  0.00000000000E+00  0.00000000000E+00  0.96871064674E+02  0.96871064707E+02  0.25500000000E-02 0. -1.
         -1   -1    0    0    0  501 -0.00000000000E+00 -0.00000000000E+00 -0.19975944166E+02  0.19975944802E+02  0.50400000000E-02 0.  1.
         24    2    1    2    0    0  0.00000000000E+00  0.00000000000E+00  0.76895120508E+02  0.11684700951E+03  0.87979338900E+02 0.  0.
         66    2    3    3    0    0 -0.43103764151E+01  0.31858576396E+02  0.78300701794E+02  0.84667278969E+02  0.19999979356E+01 0.  0.
        -13    1    3    3    0    0  0.43103764151E+01 -0.31858576396E+02 -0.14055812859E+01  0.32179730540E+02  0.10566000000E+00 0.  1.
         13    1    4    4    0    0 -0.33572388528E+01  0.24719129104E+02  0.60493067805E+02  0.65434920439E+02  0.10566000000E+00 0. -1.
        -13    1    4    4    0    0 -0.58570986538E+00  0.15146578062E+01  0.40561297304E+01  0.43704229477E+01  0.10566000000E+00 0.  1.
         14    1    4    4    0    0 -0.36742769692E+00  0.56247894859E+01  0.13751504259E+02  0.14861935582E+02  0.00000000000E+00 0. -1.
<mgrwt>
<rscale>  0 0.87979339E+02</rscale>
<asrwt>0</asrwt>
<pdfrwt beam="1">  1        2 0.14903240E-01 0.87979339E+02</pdfrwt>
<pdfrwt beam="2">  1       -1 0.30732223E-02 0.87979339E+02</pdfrwt>
<totfact> 0.13596312E+05</totfact>
</mgrwt>
</event>
<event>
 8    1  0.2603554E-020  0.7918422E+02  0.7818608E-02  0.1331383E+00
          2   -1    0    0  501    0  0.00000000000E+00  0.00000000000E+00  0.70791181575E+03  0.70791181576E+03  0.25500000000E-02 0. -1.
         -1   -1    0    0    0  501 -0.00000000000E+00 -0.00000000000E+00 -0.22143057618E+01  0.22143114976E+01  0.50400000000E-02 0.  1.
         24    2    1    2    0    0 -0.88817841970E-15  0.00000000000E+00  0.70569750999E+03  0.71012612726E+03  0.79184221931E+02 0.  0.
         66    2    3    3    0    0 -0.57550563642E+01  0.18237726119E+02  0.66370820329E+03  0.66398668243E+03  0.19999995634E+01 0.  0.
        -13    1    3    3    0    0  0.57550563642E+01 -0.18237726119E+02  0.41989306697E+02  0.46139444824E+02  0.10566000000E+00 0.  1.
         13    1    4    4    0    0 -0.23712574600E+01  0.89144022560E+01  0.31949072037E+03  0.31962387426E+03  0.10566000000E+00 0. -1.
        -13    1    4    4    0    0  0.41429992313E-01  0.79816938678E+00  0.23911371708E+02  0.23924958763E+02  0.10566000000E+00 0.  1.
        -14    1    4    4    0    0 -0.34252288965E+01  0.85251544762E+01  0.32030611122E+03  0.32043784941E+03  0.00000000000E+00 0.  1.
<mgrwt>
<rscale>  0 0.79184222E+02</rscale>
<asrwt>0</asrwt>
<pdfrwt beam="1">  1        2 0.10890948E+00 0.79184222E+02</pdfrwt>
<pdfrwt beam="2">  1       -1 0.34066296E-03 0.79184222E+02</pdfrwt>
<totfact> 0.34442096E+05</totfact>
</mgrwt>
</event>
<event>
 8    1  0.2603554E-020  0.8200151E+02  0.7818608E-02  0.1323466E+00
         -1   -1    0    0    0  501 -0.00000000000E+00  0.00000000000E+00  0.26872874394E+02  0.26872874867E+02  0.50400000000E-02 0.  1.
          2   -1    0    0  501    0  0.00000000000E+00 -0.00000000000E+00 -0.62556087764E+02  0.62556087816E+02  0.25500000000E-02 0. -1.
         24    2    1    2    0    0 -0.35527136788E-14  0.00000000000E+00 -0.35683213370E+02  0.89428962683E+02  0.82001510048E+02 0.  0.
         66    2    3    3    0    0  0.20584279666E+02 -0.26254863238E+02 -0.43798448304E+02  0.55093869628E+02  0.19999959343E+01 0.  0.
        -13    1    3    3    0    0 -0.20584279666E+02  0.26254863238E+02  0.81152349335E+01  0.34335093055E+02  0.10566000000E+00 0.  1.
         13    1    4    4    0    0  0.20356284971E+01 -0.30233503345E+01 -0.41831116992E+01  0.55492358165E+01  0.10566000000E+00 0. -1.
        -13    1    4    4    0    0  0.62638664807E+01 -0.79453524583E+01 -0.12530372243E+02  0.16105466201E+02  0.10566000000E+00 0.  1.
         14    1    4    4    0    0  0.12284784689E+02 -0.15286160445E+02 -0.27084964362E+02  0.33439167611E+02  0.00000000000E+00 0. -1.
<mgrwt>
<rscale>  0 0.82001510E+02</rscale>
<asrwt>0</asrwt>
<pdfrwt beam="1">  1        2 0.96240135E-02 0.82001510E+02</pdfrwt>
<pdfrwt beam="2">  1       -1 0.41342884E-02 0.82001510E+02</pdfrwt>
<totfact> 0.14695787E+05</totfact>
</mgrwt>
</event>
<event>
 8    1  0.2603554E-020  0.8136803E+02  0.7818608E-02  0.1325213E+00
         -1   -1    0    0    0  501 -0.00000000000E+00  0.00000000000E+00  0.48396873481E+02  0.48396873744E+02  0.50400000000E-02 0.  1.
          2   -1    0    0  501    0  0.00000000000E+00 -0.00000000000E+00 -0.34200329002E+02  0.34200329097E+02  0.25500000000E-02 0. -1.
         24    2    1    2    0    0  0.00000000000E+00  0.00000000000E+00  0.14196544479E+02  0.82597202841E+02  0.81368028377E+02 0.  0.
         66    2    3    3    0    0 -0.30274447315E+02  0.56754288957E+01 -0.19839517065E+02  0.36692766205E+02  0.20000002474E+01 0.  0.
        -13    1    3    3    0    0  0.30274447315E+02 -0.56754288957E+01  0.34036061544E+02  0.45904436636E+02  0.10566000000E+00 0.  1.
         13    1    4    4    0    0 -0.21929060391E+02  0.47415819860E+01 -0.13872399747E+02  0.26378417848E+02  0.10566000000E+00 0. -1.
        -13    1    4    4    0    0 -0.35215553752E+01  0.20793838575E+00 -0.23193656607E+01  0.42231755512E+01  0.10566000000E+00 0.  1.
         14    1    4    4    0    0 -0.48238315485E+01  0.72590852395E+00 -0.36477516576E+01  0.60911728057E+01  0.00000000000E+00 0. -1.
<mgrwt>
<rscale>  0 0.81368028E+02</rscale>
<asrwt>0</asrwt>
<pdfrwt beam="1">  1        2 0.52615891E-02 0.81368028E+02</pdfrwt>
<pdfrwt beam="2">  1       -1 0.74456729E-02 0.81368028E+02</pdfrwt>
<totfact> 0.13172168E+05</totfact>
</mgrwt>
</event>
<event>
 8    1  0.2603554E-020  0.7869462E+02  0.7818608E-02  0.1332797E+00
          2   -1    0    0  501    0  0.00000000000E+00  0.00000000000E+00  0.60366756125E+02  0.60366756179E+02  0.25500000000E-02 0. -1.
         -1   -1    0    0    0  501 -0.00000000000E+00 -0.00000000000E+00 -0.25646742872E+02  0.25646743368E+02  0.50400000000E-02 0.  1.
         24    2    1    2    0    0  0.17763568394E-14  0.35527136788E-14  0.34720013252E+02  0.86013499546E+02  0.78694617249E+02 0.  0.
         66    2    3    3    0    0  0.12576547397E+02 -0.29379605578E+02  0.42412064953E+02  0.53142393819E+02  0.19999997248E+01 0.  0.
        -13    1    3    3    0    0 -0.12576547397E+02  0.29379605578E+02 -0.76920517005E+01  0.32871105727E+02  0.10566000000E+00 0.  1.
         13    1    4    4    0    0  0.28820922788E+01 -0.88061643057E+01  0.12033874246E+02  0.15188162466E+02  0.10566000000E+00 0. -1.
        -13    1    4    4    0    0  0.44398358797E+01 -0.87520915463E+01  0.13341251514E+02  0.16562349020E+02  0.10566000000E+00 0.  1.
         14    1    4    4    0    0  0.52546192389E+01 -0.11821349726E+02  0.17036939193E+02  0.21391882333E+02  0.00000000000E+00 0. -1.
<mgrwt>
<rscale>  0 0.78694617E+02</rscale>
<asrwt>0</asrwt>
<pdfrwt beam="1">  1        2 0.92871933E-02 0.78694617E+02</pdfrwt>
<pdfrwt beam="2">  1       -1 0.39456528E-02 0.78694617E+02</pdfrwt>
<totfact> 0.16300758E+05</totfact>
</mgrwt>
</event>
<event>
 8    1  0.2603554E-020  0.7892333E+02  0.7818608E-02  0.1332135E+00
         -1   -1    0    0    0  501 -0.00000000000E+00  0.00000000000E+00  0.70013029212E+01  0.70013047353E+01  0.50400000000E-02 0.  1.
          2   -1    0    0  501    0  0.00000000000E+00 -0.00000000000E+00 -0.22241900686E+03  0.22241900688E+03  0.25500000000E-02 0. -1.
         24    2    1    2    0    0  0.35527136788E-14  0.00000000000E+00 -0.21541770394E+03  0.22942031161E+03  0.78923331208E+02 0.  0.
         66    2    3    3    0    0  0.24099564820E+02  0.26446178425E+01 -0.19819217805E+03  0.19967954944E+03  0.19999998253E+01 0.  0.
        -13    1    3    3    0    0 -0.24099564820E+02 -0.26446178425E+01 -0.17225525897E+02  0.29740762171E+02  0.10566000000E+00 0.  1.
         13    1    4    4    0    0  0.43768811461E+01  0.69150861481E+00 -0.39719454210E+02  0.39966004048E+02  0.10566000000E+00 0. -1.
        -13    1    4    4    0    0  0.19526836834E+01  0.51796289479E+00 -0.18389696148E+02  0.18500631005E+02  0.10566000000E+00 0.  1.
        -14    1    4    4    0    0  0.17769999990E+02  0.14351463329E+01 -0.14008302769E+03  0.14121291439E+03  0.00000000000E+00 0.  1.
<mgrwt>
<rscale>  0 0.78923331E+02</rscale>
<asrwt>0</asrwt>
<pdfrwt beam="1">  1        2 0.34218303E-01 0.78923331E+02</pdfrwt>
<pdfrwt beam="2">  1       -1 0.10771238E-02 0.78923331E+02</pdfrwt>
<totfact> 0.23726752E+05</totfact>
</mgrwt>
</event>
<event>
 8    1  0.2603554E-020  0.7899688E+02  0.7818608E-02  0.1331922E+00
          2   -1    0    0  501    0  0.00000000000E+00  0.00000000000E+00  0.41964459561E+02  0.41964459638E+02  0.25500000000E-02 0. -1.
         -1   -1    0    0    0  501 -0.00000000000E+00 -0.00000000000E+00 -0.37177337523E+02  0.37177337865E+02  0.50400000000E-02 0.  1.
         24    2    1    2    0    0  0.00000000000E+00 -0.88817841970E-15  0.47871220377E+01  0.79141797503E+02  0.78996883322E+02 0.  0.
         66    2    3    3    0    0 -0.28620811879E+02 -0.70058875608E+01  0.28709004394E+02  0.41187865524E+02  0.19999999980E+01 0.  0.
        -13    1    3    3    0    0  0.28620811879E+02  0.70058875608E+01 -0.23921882356E+02  0.37953931979E+02  0.10566000000E+00 0.  1.
         13    1    4    4    0    0 -0.96887321736E+01 -0.22461653624E+01  0.96823189775E+01  0.13880751233E+02  0.10566000000E+00 0. -1.
        -13    1    4    4    0    0 -0.65410165245E+00  0.67582895804E-01  0.86764197935E+00  0.10937929692E+01  0.10566000000E+00 0.  1.
        -14    1    4    4    0    0 -0.18277978053E+02 -0.48273050942E+01  0.18159043437E+02  0.26213321322E+02  0.00000000000E+00 0.  1.
<mgrwt>
<rscale>  0 0.78996883E+02</rscale>
<asrwt>0</asrwt>
<pdfrwt beam="1">  1        2 0.64560706E-02 0.78996883E+02</pdfrwt>
<pdfrwt beam="2">  1       -1 0.57195905E-02 0.78996883E+02</pdfrwt>
<totfact> 0.14906586E+05</totfact>
</mgrwt>
</event>
<event>
 8    1  0.2603554E-020  0.8088069E+02  0.7818608E-02  0.1326571E+00
         -1   -1    0    0    0  501 -0.00000000000E+00  0.00000000000E+00  0.12817728599E+02  0.12817729590E+02  0.50400000000E-02 0.  1.
          2   -1    0    0  501    0  0.00000000000E+00 -0.00000000000E+00 -0.12759057002E+03  0.12759057005E+03  0.25500000000E-02 0. -1.
         24    2    1    2    0    0  0.00000000000E+00  0.00000000000E+00 -0.11477284143E+03  0.14040829964E+03  0.80880686688E+02 0.  0.
         66    2    3    3    0    0  0.93890369296E+01  0.37031267912E+02 -0.34525542275E+02  0.51531367861E+02  0.19999966567E+01 0.  0.
        -13    1    3    3    0    0 -0.93890369296E+01 -0.37031267912E+02 -0.80247299150E+02  0.88876931780E+02  0.10566000000E+00 0.  1.
         13    1    4    4    0    0  0.25072288255E+01  0.78247486181E+01 -0.76276569771E+01  0.11211833138E+02  0.10566000000E+00 0. -1.
        -13    1    4    4    0    0  0.31598854734E+01  0.14194975692E+02 -0.13894001734E+02  0.20113096711E+02  0.10566000000E+00 0.  1.
        -14    1    4    4    0    0  0.37219226307E+01  0.15011543601E+02 -0.13003883564E+02  0.20206438012E+02  0.00000000000E+00 0.  1.
<mgrwt>
<rscale>  0 0.80880687E+02</rscale>
<asrwt>0</asrwt>
<pdfrwt beam="1">  1        2 0.19629318E-01 0.80880687E+02</pdfrwt>
<pdfrwt beam="2">  1       -1 0.19719584E-02 0.80880687E+02</pdfrwt>
<totfact> 0.18489551E+05</totfact>
</mgrwt>
</event>
<event>
 8    1  0.2603554E-020  0.7813659E+02  0.7818608E-02  0.1334424E+00
         -1   -1    0    0    0  501 -0.00000000000E+00  0.00000000000E+00  0.14895379865E+01  0.14895465132E+01  0.50400000000E-02 0.  1.
          2   -1    0    0  501    0  0.00000000000E+00 -0.00000000000E+00 -0.10246984601E+04  0.10246984601E+04  0.25500000000E-02 0. -1.
         24    2    1    2    0    0  0.00000000000E+00  0.00000000000E+00 -0.10232089221E+04  0.10261880066E+04  0.78136589575E+02 0.  0.
         66    2    3    3    0    0 -0.38470028964E+01 -0.20481973828E+02 -0.94553836645E+03  0.94577011642E+03  0.19999980147E+01 0.  0.
        -13    1    3    3    0    0  0.38470028964E+01  0.20481973828E+02 -0.77670555644E+02  0.80417890181E+02  0.10566000000E+00 0.  1.
         13    1    4    4    0    0 -0.30336786038E+01 -0.15183261849E+02 -0.67028975698E+03  0.67046857057E+03  0.10566000000E+00 0. -1.
        -13    1    4    4    0    0  0.70585199828E-01 -0.42791724655E+00 -0.24801990138E+02  0.24806006819E+02  0.10566000000E+00 0. -1.
         14    1    4    4    0    0 -0.88390949236E+00 -0.48707947328E+01 -0.25044661934E+03  0.25049553903E+03  0.00000000000E+00 0. -1.
<mgrwt>
<rscale>  0 0.78136590E+02</rscale>
<asrwt>0</asrwt>
<pdfrwt beam="1">  1        2 0.15764535E+00 0.78136590E+02</pdfrwt>
<pdfrwt beam="2">  1       -1 0.22916117E-03 0.78136590E+02</pdfrwt>
<totfact> 0.37481653E+05</totfact>
</mgrwt>
</event>
<event>
 8    1  0.2603554E-020  0.7062474E+02  0.7818608E-02  0.1357981E+00
         -1   -1    0    0    0  501 -0.00000000000E+00  0.00000000000E+00  0.14303238508E+02  0.14303239396E+02  0.50400000000E-02 0.  1.
          2   -1    0    0  501    0  0.00000000000E+00 -0.00000000000E+00 -0.87180498111E+02  0.87180498149E+02  0.25500000000E-02 0. -1.
         24    2    1    2    0    0 -0.22204460493E-15  0.00000000000E+00 -0.72877259603E+02  0.10148373754E+03  0.70624740841E+02 0.  0.
         66    2    3    3    0    0  0.10645676530E+01  0.16479141620E+02 -0.81273291310E+02  0.82958081678E+02  0.20000056213E+01 0.  0.
        -13    1    3    3    0    0 -0.10645676530E+01 -0.16479141620E+02  0.83960317074E+01  0.18525655867E+02  0.10566000000E+00 0.  1.
         13    1    4    4    0    0 -0.10895079541E-01  0.13763314927E+01 -0.71350521434E+01  0.72673612959E+01  0.10566000000E+00 0. -1.
        -13    1    4    4    0    0  0.11829590357E+01  0.82493611420E+01 -0.37238823460E+02  0.38160090252E+02  0.10566000000E+00 0.  1.
        -14    1    4    4    0    0 -0.10749630314E+00  0.68534489853E+01 -0.36899415707E+02  0.37530630130E+02  0.00000000000E+00 0.  1.
<mgrwt>
<rscale>  0 0.70624741E+02</rscale>
<asrwt>0</asrwt>
<pdfrwt beam="1">  1        2 0.13412384E-01 0.70624741E+02</pdfrwt>
<pdfrwt beam="2">  1       -1 0.22004984E-02 0.70624741E+02</pdfrwt>
<totfact> 0.23804200E+05</totfact>
</mgrwt>
</event>
<event>
 8    1  0.2603554E-020  0.7988551E+02  0.7818608E-02  0.1329377E+00
         -1   -1    0    0    0  501 -0.00000000000E+00  0.00000000000E+00  0.30475202201E+01  0.30475243877E+01  0.50400000000E-02 0.  1.
          2   -1    0    0  501    0  0.00000000000E+00 -0.00000000000E+00 -0.52351500778E+03  0.52351500779E+03  0.25500000000E-02 0. -1.
         24    2    1    2    0    0  0.35527136788E-14  0.00000000000E+00 -0.52046748756E+03  0.52656253217E+03  0.79885509840E+02 0.  0.
         66    2    3    3    0    0  0.31141133832E+02  0.90856908163E+00 -0.42489577977E+03  0.42604110059E+03  0.20000024812E+01 0.  0.
        -13    1    3    3    0    0 -0.31141133832E+02 -0.90856908163E+00 -0.95571707787E+02  0.10052143158E+03  0.10566000000E+00 0.  1.
         13    1    4    4    0    0  0.20082767892E+02 -0.20335702483E-01 -0.28151272103E+03  0.28222817231E+03  0.10566000000E+00 0. -1.
        -13    1    4    4    0    0  0.95930890952E+01  0.62713651547E+00 -0.12470461323E+03  0.12507466723E+03  0.10566000000E+00 0.  1.
        -14    1    4    4    0    0  0.14652768447E+01  0.30176826865E+00 -0.18678445520E+02  0.18738261055E+02  0.00000000000E+00 0.  1.
<mgrwt>
<rscale>  0 0.79885510E+02</rscale>
<asrwt>0</asrwt>
<pdfrwt beam="1">  1        2 0.80540699E-01 0.79885510E+02</pdfrwt>
<pdfrwt beam="2">  1       -1 0.46885000E-03 0.79885510E+02</pdfrwt>
<totfact> 0.31009867E+05</totfact>
</mgrwt>
</event>
<event>
 8    1  0.2603554E-020  0.7803580E+02  0.7818608E-02  0.1334720E+00
         -1   -1    0    0    0  501 -0.00000000000E+00  0.00000000000E+00  0.20479824206E+01  0.20479886222E+01  0.50400000000E-02 0.  1.
          2   -1    0    0  501    0  0.00000000000E+00 -0.00000000000E+00 -0.74336289745E+03  0.74336289745E+03  0.25500000000E-02 0. -1.
         24    2    1    2    0    0 -0.35527136788E-14  0.00000000000E+00 -0.74131491503E+03  0.74541088607E+03  0.78035798429E+02 0.  0.
         66    2    3    3    0    0 -0.17031679726E+02 -0.78831013064E+01 -0.69737898443E+03  0.69763433783E+03  0.19999992577E+01 0.  0.
        -13    1    3    3    0    0  0.17031679726E+02  0.78831013064E+01 -0.43935930596E+02  0.47776548241E+02  0.10566000000E+00 0.  1.
         13    1    4    4    0    0 -0.85084701832E+01 -0.38112094938E+01 -0.34810954158E+03  0.34823438010E+03  0.10566000000E+00 0. -1.
        -13    1    4    4    0    0 -0.34598207584E+01 -0.14577037435E+01 -0.16351868334E+03  0.16356181164E+03  0.10566000000E+00 0.  1.
         14    1    4    4    0    0 -0.50633887841E+01 -0.26141880691E+01 -0.18575075951E+03  0.18583814609E+03  0.00000000000E+00 0. -1.
<mgrwt>
<rscale>  0 0.78035798E+02</rscale>
<asrwt>0</asrwt>
<pdfrwt beam="1">  1        2 0.11436331E+00 0.78035798E+02</pdfrwt>
<pdfrwt beam="2">  1       -1 0.31507529E-03 0.78035798E+02</pdfrwt>
<totfact> 0.36150138E+05</totfact>
</mgrwt>
</event>
<event>
 8    1  0.2603554E-020  0.8066870E+02  0.7818608E-02  0.1327164E+00
         -1   -1    0    0    0  501 -0.00000000000E+00  0.00000000000E+00  0.62594246607E+02  0.62594246810E+02  0.50400000000E-02 0.  1.
          2   -1    0    0  501    0  0.00000000000E+00 -0.00000000000E+00 -0.25990561549E+02  0.25990561674E+02  0.25500000000E-02 0. -1.
         24    2    1    2    0    0 -0.35527136788E-14  0.00000000000E+00  0.36603685058E+02  0.88584808484E+02  0.80668696124E+02 0.  0.
         66    2    3    3    0    0  0.19038326611E+02  0.76713698173E+01 -0.19783495446E+02  0.28577866517E+02  0.19999918942E+01 0.  0.
        -13    1    3    3    0    0 -0.19038326611E+02 -0.76713698173E+01  0.56387180504E+02  0.60006941967E+02  0.10566000000E+00 0.  1.
         13    1    4    4    0    0  0.39497880732E+01  0.11368144525E+01 -0.39329171259E+01  0.56896550051E+01  0.10566000000E+00 0.  1.
        -13    1    4    4    0    0  0.99452883920E+01  0.45642345905E+01 -0.11449769288E+02  0.15838225260E+02  0.10566000000E+00 0. -1.
        -14    1    4    4    0    0  0.51432501459E+01  0.19703207743E+01 -0.44008090320E+01  0.70499862520E+01  0.00000000000E+00 0.  1.
<mgrwt>
<rscale>  0 0.80668696E+02</rscale>
<asrwt>0</asrwt>
<pdfrwt beam="1">  1        2 0.39985480E-02 0.80668696E+02</pdfrwt>
<pdfrwt beam="2">  1       -1 0.96298841E-02 0.80668696E+02</pdfrwt>
<totfact> 0.12775979E+05</totfact>
</mgrwt>
</event>
<event>
 8    1  0.2603554E-020  0.7982080E+02  0.7818608E-02  0.1329561E+00
         -1   -1    0    0    0  501 -0.00000000000E+00  0.00000000000E+00  0.28317414243E+02  0.28317414692E+02  0.50400000000E-02 0.  1.
          2   -1    0    0  501    0  0.00000000000E+00 -0.00000000000E+00 -0.56249484488E+02  0.56249484546E+02  0.25500000000E-02 0. -1.
         24    2    1    2    0    0 -0.22204460493E-15  0.00000000000E+00 -0.27932070245E+02  0.84566899238E+02  0.79820798659E+02 0.  0.
         66    2    3    3    0    0  0.11120664584E+01 -0.33176316540E+02 -0.37401301587E+02  0.50047597721E+02  0.20000015602E+01 0.  0.
        -13    1    3    3    0    0 -0.11120664584E+01  0.33176316540E+02  0.94692313423E+01  0.34519301517E+02  0.10566000000E+00 0.  1.
         13    1    4    4    0    0  0.29245082052E+00 -0.20264401442E+02 -0.22654792322E+02  0.30397076709E+02  0.10566000000E+00 0. -1.
        -13    1    4    4    0    0 -0.12041294455E+00 -0.32283032735E+00 -0.33997542485E+00  0.49544527707E+00  0.10566000000E+00 0.  1.
         14    1    4    4    0    0  0.94002858242E+00 -0.12589084770E+02 -0.14406533841E+02  0.19155075735E+02  0.00000000000E+00 0. -1.
<mgrwt>
<rscale>  0 0.79820799E+02</rscale>
<asrwt>0</asrwt>
<pdfrwt beam="1">  1        2 0.86537669E-02 0.79820799E+02</pdfrwt>
<pdfrwt beam="2">  1       -1 0.43565253E-02 0.79820799E+02</pdfrwt>
<totfact> 0.15432430E+05</totfact>
</mgrwt>
</event>
<event>
 8    1  0.2603554E-020  0.7914895E+02  0.7818608E-02  0.1331484E+00
          2   -1    0    0  501    0  0.00000000000E+00  0.00000000000E+00  0.16292360492E+03  0.16292360494E+03  0.25500000000E-02 0. -1.
         -1   -1    0    0    0  501 -0.00000000000E+00 -0.00000000000E+00 -0.96127207016E+01  0.96127220229E+01  0.50400000000E-02 0.  1.
         24    2    1    2    0    0  0.00000000000E+00  0.17763568394E-14  0.15331088421E+03  0.17253632696E+03  0.79148953890E+02 0.  0.
         66    2    3    3    0    0  0.32021274933E+02  0.11972901182E+02  0.12005191618E+03  0.12484059833E+03  0.20000001586E+01 0.  0.
        -13    1    3    3    0    0 -0.32021274933E+02 -0.11972901182E+02  0.33258968030E+02  0.47695728630E+02  0.10566000000E+00 0.  1.
         13    1    4    4    0    0  0.47527639658E+01  0.18208458134E+01  0.16038442080E+02  0.16826973382E+02  0.10566000000E+00 0. -1.
        -13    1    4    4    0    0  0.20277112761E+02  0.71170105320E+01  0.75458097640E+02  0.78458580183E+02  0.10566000000E+00 0.  1.
        -14    1    4    4    0    0  0.69913982066E+01  0.30350448363E+01  0.28555376464E+02  0.29555044765E+02  0.00000000000E+00 0.  1.
<mgrwt>
<rscale>  0 0.79148954E+02</rscale>
<asrwt>0</asrwt>
<pdfrwt beam="1">  1        2 0.25065170E-01 0.79148954E+02</pdfrwt>
<pdfrwt beam="2">  1       -1 0.14788802E-02 0.79148954E+02</pdfrwt>
<totfact> 0.21168073E+05</totfact>
</mgrwt>
</event>
<event>
 8    1  0.2603554E-020  0.7911209E+02  0.7818608E-02  0.1331590E+00
         -1   -1    0    0    0  501 -0.00000000000E+00  0.00000000000E+00  0.24876120046E+02  0.24876120557E+02  0.50400000000E-02 0.  1.
          2   -1    0    0  501    0  0.00000000000E+00 -0.00000000000E+00 -0.62898910876E+02  0.62898910928E+02  0.25500000000E-02 0. -1.
         24    2    1    2    0    0  0.00000000000E+00  0.00000000000E+00 -0.38022790830E+02  0.87775031484E+02  0.79112094711E+02 0.  0.
         66    2    3    3    0    0 -0.11294432806E+02  0.29076510560E+02 -0.45965645401E+02  0.55586403344E+02  0.20000001885E+01 0.  0.
        -13    1    3    3    0    0  0.11294432806E+02 -0.29076510560E+02  0.79428545715E+01  0.32188628141E+02  0.10566000000E+00 0.  1.
         13    1    4    4    0    0 -0.73684111243E+01  0.18327505665E+02 -0.29462713826E+02  0.35471870777E+02  0.10566000000E+00 0. -1.
        -13    1    4    4    0    0 -0.72436952663E+00  0.32818625809E+01 -0.44064703922E+01  0.55428763800E+01  0.10566000000E+00 0. -1.
        -14    1    4    4    0    0 -0.32016521555E+01  0.74671423143E+01 -0.12096461183E+02  0.14571656186E+02  0.00000000000E+00 0.  1.
<mgrwt>
<rscale>  0 0.79112095E+02</rscale>
<asrwt>0</asrwt>
<pdfrwt beam="1">  1        2 0.96767555E-02 0.79112095E+02</pdfrwt>
<pdfrwt beam="2">  1       -1 0.38270955E-02 0.79112095E+02</pdfrwt>
<totfact> 0.16222245E+05</totfact>
</mgrwt>
</event>
<event>
 8    1  0.2603554E-020  0.7943711E+02  0.7818608E-02  0.1330656E+00
         -1   -1    0    0    0  501 -0.00000000000E+00  0.00000000000E+00  0.15525972503E+02  0.15525973321E+02  0.50400000000E-02 0.  1.
          2   -1    0    0  501    0  0.00000000000E+00 -0.00000000000E+00 -0.10160804442E+03  0.10160804445E+03  0.25500000000E-02 0. -1.
         24    2    1    2    0    0  0.17763568394E-14 -0.17763568394E-14 -0.86082071914E+02  0.11713401777E+03  0.79437113581E+02 0.  0.
         66    2    3    3    0    0  0.80029887626E+01 -0.13218508618E+02 -0.96980793782E+02  0.98224493672E+02  0.19999988213E+01 0.  0.
        -13    1    3    3    0    0 -0.80029887626E+01  0.13218508618E+02  0.10898721869E+02  0.18909524098E+02  0.10566000000E+00 0.  1.
         13    1    4    4    0    0  0.36527639191E+01 -0.45478658198E+01 -0.36228253078E+02  0.36695003106E+02  0.10566000000E+00 0.  1.
        -13    1    4    4    0    0  0.34309254294E+01 -0.58993429084E+01 -0.43124539362E+02  0.43661316462E+02  0.10566000000E+00 0. -1.
        -14    1    4    4    0    0  0.91929941411E+00 -0.27712998900E+01 -0.17628001342E+02  0.17868174104E+02  0.00000000000E+00 0.  1.
<mgrwt>
<rscale>  0 0.79437114E+02</rscale>
<asrwt>0</asrwt>
<pdfrwt beam="1">  1        2 0.15632006E-01 0.79437114E+02</pdfrwt>
<pdfrwt beam="2">  1       -1 0.23886113E-02 0.79437114E+02</pdfrwt>
<totfact> 0.18145129E+05</totfact>
</mgrwt>
</event>
<event>
 8    1  0.2811164E-020  0.8104736E+02  0.7818608E-02  0.1326105E+00
         -1   -1    0    0    0  501 -0.00000000000E+00  0.00000000000E+00  0.10140609564E+02  0.10140610817E+02  0.50400000000E-02 0.  1.
          2   -1    0    0  501    0  0.00000000000E+00 -0.00000000000E+00 -0.16193984239E+03  0.16193984241E+03  0.25500000000E-02 0. -1.
         24    2    1    2    0    0 -0.35527136788E-14  0.17763568394E-14 -0.15179923282E+03  0.17208045322E+03  0.81047364522E+02 0.  0.
         66    2    3    3    0    0  0.17859234929E+02 -0.10610816786E+02 -0.14975956661E+03  0.15120671117E+03  0.20000012124E+01 0.  0.
        -13    1    3    3    0    0 -0.17859234929E+02  0.10610816786E+02 -0.20396662093E+01  0.20873742056E+02  0.10566000000E+00 0.  1.
         13    1    4    4    0    0  0.89059242005E+01 -0.54394691721E+01 -0.73537712343E+02  0.74274555613E+02  0.10566000000E+00 0. -1.
        -13    1    4    4    0    0  0.85778153189E+01 -0.50627634451E+01 -0.70949154454E+02  0.71644987062E+02  0.10566000000E+00 0.  1.
        -14    1    4    4    0    0  0.37549540950E+00 -0.10858416920E+00 -0.52726998153E+01  0.52871684924E+01  0.00000000000E+00 0.  1.
<mgrwt>
<rscale>  0 0.81047365E+02</rscale>
<asrwt>0</asrwt>
<pdfrwt beam="1">  1        2 0.24913820E-01 0.81047365E+02</pdfrwt>
<pdfrwt beam="2">  1       -1 0.15600940E-02 0.81047365E+02</pdfrwt>
<totfact> 0.19839955E+05</totfact>
</mgrwt>
</event>
<event>
 8    1  0.2603554E-020  0.7750576E+02  0.7818608E-02  0.1336283E+00
          2   -1    0    0  501    0  0.00000000000E+00  0.00000000000E+00  0.10562650608E+03  0.10562650611E+03  0.25500000000E-02 0. -1.
         -1   -1    0    0    0  501 -0.00000000000E+00 -0.00000000000E+00 -0.14217885272E+02  0.14217886166E+02  0.50400000000E-02 0.  1.
         24    2    1    2    0    0  0.17763568394E-14  0.00000000000E+00  0.91408620808E+02  0.11984439228E+03  0.77505757219E+02 0.  0.
         66    2    3    3    0    0  0.13268473127E+02  0.36323173644E+02  0.42507683360E+02  0.57500682329E+02  0.20000002549E+01 0.  0.
        -13    1    3    3    0    0 -0.13268473127E+02 -0.36323173644E+02  0.48900937449E+02  0.62343709948E+02  0.10566000000E+00 0.  1.
         13    1    4    4    0    0  0.23543353257E+01  0.86556099133E+01  0.97774175971E+01  0.13269195028E+02  0.10566000000E+00 0. -1.
        -13    1    4    4    0    0  0.40618068630E+00  0.11620351592E+01  0.12260161555E+01  0.17405712023E+01  0.10566000000E+00 0. -1.
        -14    1    4    4    0    0  0.10507957115E+02  0.26505528571E+02  0.31504249607E+02  0.42490916098E+02  0.00000000000E+00 0.  1.
<mgrwt>
<rscale>  0 0.77505757E+02</rscale>
<asrwt>0</asrwt>
<pdfrwt beam="1">  1        2 0.16250232E-01 0.77505757E+02</pdfrwt>
<pdfrwt beam="2">  1       -1 0.21873671E-02 0.77505757E+02</pdfrwt>
<totfact> 0.19591189E+05</totfact>
</mgrwt>
</event>
<event>
 8    1  0.2603554E-020  0.7844843E+02  0.7818608E-02  0.1333513E+00
         -1   -1    0    0    0  501 -0.00000000000E+00  0.00000000000E+00  0.53196030244E+02  0.53196030483E+02  0.50400000000E-02 0.  1.
          2   -1    0    0  501    0  0.00000000000E+00 -0.00000000000E+00 -0.28922067397E+02  0.28922067510E+02  0.25500000000E-02 0. -1.
         24    2    1    2    0    0  0.00000000000E+00 -0.35527136788E-14  0.24273962847E+02  0.82118097993E+02  0.78448433673E+02 0.  0.
         66    2    3    3    0    0 -0.22490318959E+02  0.25006941268E+02 -0.89308442799E+01  0.34855724599E+02  0.19999998341E+01 0.  0.
        -13    1    3    3    0    0  0.22490318959E+02 -0.25006941268E+02  0.33204807127E+02  0.47262373394E+02  0.10566000000E+00 0.  1.
         13    1    4    4    0    0 -0.16185102692E+02  0.16833110447E+02 -0.65738775095E+01  0.24259805977E+02  0.10566000000E+00 0. -1.
        -13    1    4    4    0    0 -0.22485811135E+01  0.31848488337E+01 -0.92748641158E+00  0.40088370130E+01  0.10566000000E+00 0.  1.
         14    1    4    4    0    0 -0.40566351526E+01  0.49889819876E+01 -0.14294803588E+01  0.65870816095E+01  0.00000000000E+00 0. -1.
<mgrwt>
<rscale>  0 0.78448434E+02</rscale>
<asrwt>0</asrwt>
<pdfrwt beam="1">  1        2 0.44495489E-02 0.78448434E+02</pdfrwt>
<pdfrwt beam="2">  1       -1 0.81840047E-02 0.78448434E+02</pdfrwt>
<totfact> 0.14112473E+05</totfact>
</mgrwt>
</event>
<event>
 8    1  0.2603554E-020  0.8227326E+02  0.7818608E-02  0.1322721E+00
         -1   -1    0    0    0  501 -0.00000000000E+00  0.00000000000E+00  0.34088795242E+02  0.34088795615E+02  0.50400000000E-02 0.  1.
          2   -1    0    0  501    0  0.00000000000E+00 -0.00000000000E+00 -0.49641599299E+02  0.49641599365E+02  0.25500000000E-02 0. -1.
         24    2    1    2    0    0  0.00000000000E+00  0.17763568394E-14 -0.15552804058E+02  0.83730394979E+02  0.82273260111E+02 0.  0.
         66    2    3    3    0    0 -0.39119782987E+02  0.11547022360E+02 -0.25394087660E+01  0.40916252837E+02  0.20000007650E+01 0.  0.
        -13    1    3    3    0    0  0.39119782987E+02 -0.11547022360E+02 -0.13013395292E+02  0.42814142142E+02  0.10566000000E+00 0.  1.
         13    1    4    4    0    0 -0.95331612734E+01  0.25039641990E+01 -0.80592891377E+00  0.98899790709E+01  0.10566000000E+00 0. -1.
        -13    1    4    4    0    0 -0.28138596633E+01  0.57943961045E+00 -0.51901555111E+00  0.29213177925E+01  0.10566000000E+00 0.  1.
        -14    1    4    4    0    0 -0.26772762050E+02  0.84636185503E+01 -0.12144643011E+01  0.28104955974E+02  0.00000000000E+00 0.  1.
<mgrwt>
<rscale>  0 0.82273260E+02</rscale>
<asrwt>0</asrwt>
<pdfrwt beam="1">  1        2 0.76371691E-02 0.82273260E+02</pdfrwt>
<pdfrwt beam="2">  1       -1 0.52444301E-02 0.82273260E+02</pdfrwt>
<totfact> 0.13814926E+05</totfact>
</mgrwt>
</event>
<event>
 8    1  0.2603554E-020  0.7467696E+02  0.7818608E-02  0.1344874E+00
         -1   -1    0    0    0  501 -0.00000000000E+00  0.00000000000E+00  0.13944281488E+02  0.13944282399E+02  0.50400000000E-02 0.  1.
          2   -1    0    0  501    0  0.00000000000E+00 -0.00000000000E+00 -0.99980904430E+02  0.99980904462E+02  0.25500000000E-02 0. -1.
         24    2    1    2    0    0  0.00000000000E+00 -0.17763568394E-14 -0.86036622942E+02  0.11392518686E+03  0.74676955710E+02 0.  0.
         66    2    3    3    0    0  0.35790871720E+02  0.91522510124E+01 -0.51035697629E+02  0.63034852476E+02  0.19999992691E+01 0.  0.
        -13    1    3    3    0    0 -0.35790871720E+02 -0.91522510124E+01 -0.35000925313E+02  0.50890334385E+02  0.10566000000E+00 0.  1.
         13    1    4    4    0    0  0.60047112232E+01  0.16829652340E+01 -0.79892486493E+01  0.10135491447E+02  0.10566000000E+00 0. -1.
        -13    1    4    4    0    0  0.67647240937E+01  0.19095322000E+01 -0.88429899281E+01  0.11296788933E+02  0.10566000000E+00 0.  1.
         14    1    4    4    0    0  0.23021436403E+02  0.55597535785E+01 -0.34203459052E+02  0.41602572096E+02  0.00000000000E+00 0. -1.
<mgrwt>
<rscale>  0 0.74676956E+02</rscale>
<asrwt>0</asrwt>
<pdfrwt beam="1">  1        2 0.15381677E-01 0.74676956E+02</pdfrwt>
<pdfrwt beam="2">  1       -1 0.21452742E-02 0.74676956E+02</pdfrwt>
<totfact> 0.21298251E+05</totfact>
</mgrwt>
</event>
<event>
 8    1  0.2603554E-020  0.8211290E+02  0.7818608E-02  0.1323160E+00
          2   -1    0    0  501    0  0.00000000000E+00  0.00000000000E+00  0.14922832186E+03  0.14922832188E+03  0.25500000000E-02 0. -1.
         -1   -1    0    0    0  501 -0.00000000000E+00 -0.00000000000E+00 -0.11295656722E+02  0.11295657846E+02  0.50400000000E-02 0.  1.
         24    2    1    2    0    0 -0.35527136788E-14  0.71054273576E-14  0.13793266513E+03  0.16052397972E+03  0.82112897618E+02 0.  0.
         66    2    3    3    0    0 -0.25675218936E+02  0.30638338824E+02  0.87104893183E+02  0.95860247703E+02  0.19999999773E+01 0.  0.
        -13    1    3    3    0    0  0.25675218936E+02 -0.30638338824E+02  0.50827771951E+02  0.64663732021E+02  0.10566000000E+00 0.  1.
         13    1    4    4    0    0 -0.14806319440E+02  0.17172290600E+02  0.50587831103E+02  0.55436941470E+02  0.10566000000E+00 0. -1.
        -13    1    4    4    0    0 -0.79390347698E+00  0.11237765598E+01  0.23746742547E+01  0.27465247748E+01  0.10566000000E+00 0.  1.
        -14    1    4    4    0    0 -0.10074996019E+02  0.12342271664E+02  0.34142387826E+02  0.37676781458E+02  0.00000000000E+00 0.  1.
<mgrwt>
<rscale>  0 0.82112898E+02</rscale>
<asrwt>0</asrwt>
<pdfrwt beam="1">  1        2 0.22958204E-01 0.82112898E+02</pdfrwt>
<pdfrwt beam="2">  1       -1 0.17377934E-02 0.82112898E+02</pdfrwt>
<totfact> 0.18658349E+05</totfact>
</mgrwt>
</event>
<event>
 8    1  0.2603554E-020  0.8006733E+02  0.7818608E-02  0.1328860E+00
          2   -1    0    0  501    0  0.00000000000E+00  0.00000000000E+00  0.91440052703E+01  0.91440056259E+01  0.25500000000E-02 0. -1.
         -1   -1    0    0    0  501 -0.00000000000E+00 -0.00000000000E+00 -0.17527265846E+03  0.17527265854E+03  0.50400000000E-02 0.  1.
         24    2    1    2    0    0  0.00000000000E+00  0.00000000000E+00 -0.16612865319E+03  0.18441666416E+03  0.80067325475E+02 0.  0.
         66    2    3    3    0    0 -0.99927656044E+01  0.27252995695E+02 -0.19698324480E+02  0.35136948628E+02  0.20000081967E+01 0.  0.
        -13    1    3    3    0    0  0.99927656044E+01 -0.27252995695E+02 -0.14643032871E+03  0.14927971553E+03  0.10566000000E+00 0.  1.
         13    1    4    4    0    0 -0.26619741355E+01  0.74791421286E+01 -0.55528498805E+01  0.96886004721E+01  0.10566000000E+00 0. -1.
        -13    1    4    4    0    0 -0.67962714875E+01  0.17131869036E+02 -0.12766028306E+02  0.22420367649E+02  0.10566000000E+00 0.  1.
        -14    1    4    4    0    0 -0.53451998142E+00  0.26419845304E+01 -0.13794462937E+01  0.30279805063E+01  0.00000000000E+00 0.  1.
<mgrwt>
<rscale>  0 0.80067325E+02</rscale>
<asrwt>0</asrwt>
<pdfrwt beam="1">  1        2 0.14067702E-02 0.80067325E+02</pdfrwt>
<pdfrwt beam="2">  1       -1 0.26965022E-01 0.80067325E+02</pdfrwt>
<totfact> 0.10327373E+05</totfact>
</mgrwt>
</event>
<event>
 8    1  0.2603554E-020  0.7989045E+02  0.7818608E-02  0.1329363E+00
         -1   -1    0    0    0  501 -0.00000000000E+00  0.00000000000E+00  0.90445424434E+01  0.90445438477E+01  0.50400000000E-02 0.  1.
          2   -1    0    0  501    0  0.00000000000E+00 -0.00000000000E+00 -0.17641807327E+03  0.17641807329E+03  0.25500000000E-02 0. -1.
         24    2    1    2    0    0 -0.71054273576E-14 -0.17763568394E-14 -0.16737353083E+03  0.18546261714E+03  0.79890447074E+02 0.  0.
         66    2    3    3    0    0 -0.37913413760E+02 -0.11088771424E+02 -0.97120864914E+02  0.10486586766E+03  0.20000008526E+01 0.  0.
        -13    1    3    3    0    0  0.37913413760E+02  0.11088771424E+02 -0.70252665914E+02  0.80596749480E+02  0.10566000000E+00 0.  1.
         13    1    4    4    0    0 -0.77908414725E+01 -0.26196986927E+01 -0.21715492906E+02  0.23219255549E+02  0.10566000000E+00 0. -1.
        -13    1    4    4    0    0 -0.68854422620E+01 -0.16264304077E+01 -0.17865611748E+02  0.19215770559E+02  0.10566000000E+00 0.  1.
         14    1    4    4    0    0 -0.23237130025E+02 -0.68426423236E+01 -0.57539760260E+02  0.62430841549E+02  0.00000000000E+00 0. -1.
<mgrwt>
<rscale>  0 0.79890447E+02</rscale>
<asrwt>0</asrwt>
<pdfrwt beam="1">  1        2 0.27141240E-01 0.79890447E+02</pdfrwt>
<pdfrwt beam="2">  1       -1 0.13914683E-02 0.79890447E+02</pdfrwt>
<totfact> 0.21206829E+05</totfact>
</mgrwt>
</event>
<event>
 8    1  0.2603554E-020  0.7929811E+02  0.7818608E-02  0.1331055E+00
         -1   -1    0    0    0  501 -0.00000000000E+00  0.00000000000E+00  0.10398618028E+02  0.10398619249E+02  0.50400000000E-02 0.  1.
          2   -1    0    0  501    0  0.00000000000E+00 -0.00000000000E+00 -0.15117851617E+03  0.15117851619E+03  0.25500000000E-02 0. -1.
         24    2    1    2    0    0  0.00000000000E+00  0.00000000000E+00 -0.14077989814E+03  0.16157713544E+03  0.79298114583E+02 0.  0.
         66    2    3    3    0    0  0.14179705186E+02  0.98046603950E+01 -0.14312971223E+03  0.14417804941E+03  0.20000009474E+01 0.  0.
        -13    1    3    3    0    0 -0.14179705186E+02 -0.98046603950E+01  0.23498140836E+01  0.17399086036E+02  0.10566000000E+00 0.  1.
         13    1    4    4    0    0  0.82796153795E+01  0.61599155402E+01 -0.79533268506E+02  0.80200053326E+02  0.10566000000E+00 0. -1.
        -13    1    4    4    0    0  0.20979875019E+01  0.10178439946E+01 -0.23764512751E+02  0.23878877451E+02  0.10566000000E+00 0.  1.
         14    1    4    4    0    0  0.38021023045E+01  0.26269008602E+01 -0.39831930969E+02  0.40099118629E+02  0.00000000000E+00 0. -1.
<mgrwt>
<rscale>  0 0.79298115E+02</rscale>
<asrwt>0</asrwt>
<pdfrwt beam="1">  1        2 0.23258232E-01 0.79298115E+02</pdfrwt>
<pdfrwt beam="2">  1       -1 0.15997876E-02 0.79298115E+02</pdfrwt>
<totfact> 0.20555417E+05</totfact>
</mgrwt>
</event>
<event>
 8    1  0.2603554E-020  0.7835420E+02  0.7818608E-02  0.1333788E+00
          2   -1    0    0  501    0  0.00000000000E+00  0.00000000000E+00  0.25809191282E+03  0.25809191283E+03  0.25500000000E-02 0. -1.
         -1   -1    0    0    0  501 -0.00000000000E+00 -0.00000000000E+00 -0.59468918983E+01  0.59468940340E+01  0.50400000000E-02 0.  1.
         24    2    1    2    0    0  0.00000000000E+00  0.00000000000E+00  0.25214502092E+03  0.26403880687E+03  0.78354195523E+02 0.  0.
         66    2    3    3    0    0 -0.12985152641E+02  0.26400167467E+02  0.21320107555E+03  0.21523076372E+03  0.20000002944E+01 0.  0.
        -13    1    3    3    0    0  0.12985152641E+02 -0.26400167467E+02  0.38943945371E+02  0.48808043154E+02  0.10566000000E+00 0.  1.
         13    1    4    4    0    0 -0.27887389506E+01  0.53179450279E+01  0.47818409686E+02  0.48194077159E+02  0.10566000000E+00 0. -1.
        -13    1    4    4    0    0 -0.37532549570E+01  0.66359265554E+01  0.55553748114E+02  0.56074526637E+02  0.10566000000E+00 0.  1.
        -14    1    4    4    0    0 -0.64431587336E+01  0.14446295883E+02  0.10982891775E+03  0.11096215992E+03  0.00000000000E+00 0.  1.
<mgrwt>
<rscale>  0 0.78354196E+02</rscale>
<asrwt>0</asrwt>
<pdfrwt beam="1">  1        2 0.39706438E-01 0.78354196E+02</pdfrwt>
<pdfrwt beam="2">  1       -1 0.91490685E-03 0.78354196E+02</pdfrwt>
<totfact> 0.25496806E+05</totfact>
</mgrwt>
</event>
<event>
 8    1  0.2603554E-020  0.8133849E+02  0.7818608E-02  0.1325295E+00
         -1   -1    0    0    0  501 -0.00000000000E+00  0.00000000000E+00  0.51616277281E+02  0.51616277527E+02  0.50400000000E-02 0.  1.
          2   -1    0    0  501    0  0.00000000000E+00 -0.00000000000E+00 -0.32043910306E+02  0.32043910408E+02  0.25500000000E-02 0. -1.
         24    2    1    2    0    0 -0.17763568394E-14  0.00000000000E+00  0.19572366975E+02  0.83660187935E+02  0.81338487177E+02 0.  0.
         66    2    3    3    0    0  0.15399179682E+02  0.30163598072E+02 -0.13321675411E+02  0.36447831798E+02  0.20000058696E+01 0.  0.
        -13    1    3    3    0    0 -0.15399179682E+02 -0.30163598072E+02  0.32894042386E+02  0.47212356137E+02  0.10566000000E+00 0.  1.
         13    1    4    4    0    0  0.85385541041E+01  0.17780295051E+02 -0.85895604693E+01  0.21513658717E+02  0.10566000000E+00 0. -1.
        -13    1    4    4    0    0  0.24467522811E+01  0.48536763769E+01 -0.18452662323E+01  0.57411621298E+01  0.10566000000E+00 0.  1.
         14    1    4    4    0    0  0.44138732968E+01  0.75296266438E+01 -0.28868487095E+01  0.91930109511E+01  0.00000000000E+00 0. -1.
<mgrwt>
<rscale>  0 0.81338487E+02</rscale>
<asrwt>0</asrwt>
<pdfrwt beam="1">  1        2 0.49298324E-02 0.81338487E+02</pdfrwt>
<pdfrwt beam="2">  1       -1 0.79409658E-02 0.81338487E+02</pdfrwt>
<totfact> 0.13013611E+05</totfact>
</mgrwt>
</event>
<event>
 8    1  0.2603554E-020  0.7888052E+02  0.7818608E-02  0.1332259E+00
          2   -1    0    0  501    0  0.00000000000E+00  0.00000000000E+00  0.68717634286E+03  0.68717634287E+03  0.25500000000E-02 0. -1.
         -1   -1    0    0    0  501 -0.00000000000E+00 -0.00000000000E+00 -0.22636580326E+01  0.22636636433E+01  0.50400000000E-02 0.  1.
         24    2    1    2    0    0  0.00000000000E+00  0.00000000000E+00  0.68491268483E+03  0.68944000651E+03  0.78880521907E+02 0.  0.
         66    2    3    3    0    0 -0.23617670880E+01 -0.29286338114E+02  0.57230850814E+03  0.57306569957E+03  0.19999975355E+01 0.  0.
        -13    1    3    3    0    0  0.23617670880E+01  0.29286338114E+02  0.11260417670E+03  0.11637430695E+03  0.10566000000E+00 0.  1.
         13    1    4    4    0    0 -0.28398933239E+00 -0.36939873181E+01  0.73580931138E+02  0.73674220616E+02  0.10566000000E+00 0. -1.
        -13    1    4    4    0    0  0.27023897569E+00 -0.39617215535E+01  0.71640668886E+02  0.71750713371E+02  0.10566000000E+00 0.  1.
        -14    1    4    4    0    0 -0.23480167313E+01 -0.21630629243E+02  0.42708690811E+03  0.42764076558E+03  0.00000000000E+00 0.  1.
<mgrwt>
<rscale>  0 0.78880522E+02</rscale>
<asrwt>0</asrwt>
<pdfrwt beam="1">  1        2 0.10571945E+00 0.78880522E+02</pdfrwt>
<pdfrwt beam="2">  1       -1 0.34825546E-03 0.78880522E+02</pdfrwt>
<totfact> 0.34550453E+05</totfact>
</mgrwt>
</event>
<event>
 8    1  0.2603554E-020  0.7924348E+02  0.7818608E-02  0.1331212E+00
         -1   -1    0    0    0  501 -0.00000000000E+00  0.00000000000E+00  0.59062484092E+01  0.59062505596E+01  0.50400000000E-02 0.  1.
          2   -1    0    0  501    0  0.00000000000E+00 -0.00000000000E+00 -0.26580021137E+03  0.26580021138E+03  0.25500000000E-02 0. -1.
         24    2    1    2    0    0  0.00000000000E+00  0.00000000000E+00 -0.25989396296E+03  0.27170646194E+03  0.79243482240E+02 0.  0.
         66    2    3    3    0    0 -0.16428643870E+02  0.18589082844E+02 -0.23584553291E+03  0.23715515962E+03  0.19999996488E+01 0.  0.
        -13    1    3    3    0    0  0.16428643870E+02 -0.18589082844E+02 -0.24048430048E+02  0.34551302323E+02  0.10566000000E+00 0.  1.
         13    1    4    4    0    0 -0.36230711290E+01  0.37243655183E+01 -0.47286312663E+02  0.47571042370E+02  0.10566000000E+00 0. -1.
        -13    1    4    4    0    0 -0.96184174932E+01  0.10071700107E+02 -0.13179370114E+03  0.13252752138E+03  0.10566000000E+00 0.  1.
        -14    1    4    4    0    0 -0.31871552477E+01  0.47930172192E+01 -0.56765519108E+02  0.57056595869E+02  0.00000000000E+00 0.  1.
<mgrwt>
<rscale>  0 0.79243482E+02</rscale>
<asrwt>0</asrwt>
<pdfrwt beam="1">  1        2 0.40892331E-01 0.79243482E+02</pdfrwt>
<pdfrwt beam="2">  1       -1 0.90865397E-03 0.79243482E+02</pdfrwt>
<totfact> 0.25017331E+05</totfact>
</mgrwt>
</event>
<event>
 8    1  0.2603554E-020  0.8016742E+02  0.7818608E-02  0.1328577E+00
         -1   -1    0    0    0  501 -0.00000000000E+00  0.00000000000E+00  0.10037034135E+02  0.10037035400E+02  0.50400000000E-02 0.  1.
          2   -1    0    0  501    0  0.00000000000E+00 -0.00000000000E+00 -0.16007754317E+03  0.16007754319E+03  0.25500000000E-02 0. -1.
         24    2    1    2    0    0  0.00000000000E+00  0.00000000000E+00 -0.15004050904E+03  0.17011457859E+03  0.80167421673E+02 0.  0.
         66    2    3    3    0    0  0.32828145084E+02 -0.89353542506E+01 -0.11993934586E+03  0.12468750677E+03  0.19999988726E+01 0.  0.
        -13    1    3    3    0    0 -0.32828145084E+02  0.89353542506E+01 -0.30101163179E+02  0.45427071818E+02  0.10566000000E+00 0.  1.
         13    1    4    4    0    0  0.35924126056E+01 -0.73930537356E+00 -0.12604041612E+02  0.13127262843E+02  0.10566000000E+00 0. -1.
        -13    1    4    4    0    0  0.10530918420E+02 -0.25599805589E+01 -0.35693048957E+02  0.37302260670E+02  0.10566000000E+00 0.  1.
         14    1    4    4    0    0  0.18704814058E+02 -0.56360683181E+01 -0.71642255290E+02  0.74257983262E+02  0.00000000000E+00 0. -1.
<mgrwt>
<rscale>  0 0.80167422E+02</rscale>
<asrwt>0</asrwt>
<pdfrwt beam="1">  1        2 0.24627312E-01 0.80167422E+02</pdfrwt>
<pdfrwt beam="2">  1       -1 0.15441593E-02 0.80167422E+02</pdfrwt>
<totfact> 0.20345085E+05</totfact>
</mgrwt>
</event>
<event>
 8    1  0.2603554E-020  0.8157625E+02  0.7818608E-02  0.1324637E+00
          2   -1    0    0  501    0  0.00000000000E+00  0.00000000000E+00  0.17913581243E+03  0.17913581244E+03  0.25500000000E-02 0. -1.
         -1   -1    0    0    0  501 -0.00000000000E+00 -0.00000000000E+00 -0.92872052849E+01  0.92872066525E+01  0.50400000000E-02 0.  1.
         24    2    1    2    0    0  0.00000000000E+00 -0.35527136788E-14  0.16984860714E+03  0.18842301910E+03  0.81576251309E+02 0.  0.
         66    2    3    3    0    0  0.27610042637E+02  0.26729364930E+02  0.53567935238E+02  0.65956782010E+02  0.20000008720E+01 0.  0.
        -13    1    3    3    0    0 -0.27610042637E+02 -0.26729364930E+02  0.11628067190E+03  0.12246623709E+03  0.10566000000E+00 0.  1.
         13    1    4    4    0    0  0.10934455393E+02  0.11261648090E+02  0.23085823747E+02  0.27916902668E+02  0.10566000000E+00 0.  1.
        -13    1    4    4    0    0  0.20266271920E+01  0.18687962773E+01  0.33386940448E+01  0.43310113439E+01  0.10566000000E+00 0. -1.
        -14    1    4    4    0    0  0.14648960052E+02  0.13598920563E+02  0.27143417446E+02  0.33708867998E+02  0.00000000000E+00 0.  1.
<mgrwt>
<rscale>  0 0.81576251E+02</rscale>
<asrwt>0</asrwt>
<pdfrwt beam="1">  1        2 0.27559356E-01 0.81576251E+02</pdfrwt>
<pdfrwt beam="2">  1       -1 0.14288009E-02 0.81576251E+02</pdfrwt>
<totfact> 0.20170641E+05</totfact>
</mgrwt>
</event>
<event>
 8    1  0.2603554E-020  0.7947978E+02  0.7818608E-02  0.1330534E+00
          2   -1    0    0  501    0  0.00000000000E+00  0.00000000000E+00  0.22393130002E+02  0.22393130147E+02  0.25500000000E-02 0. -1.
         -1   -1    0    0    0  501 -0.00000000000E+00 -0.00000000000E+00 -0.70524252653E+02  0.70524252833E+02  0.50400000000E-02 0.  1.
         24    2    1    2    0    0  0.00000000000E+00 -0.55511151231E-16 -0.48131122651E+02  0.92917382981E+02  0.79479777883E+02 0.  0.
         66    2    3    3    0    0  0.25309904240E+02  0.41481103949E+00  0.11695261709E+02  0.27956081035E+02  0.19999998850E+01 0.  0.
        -13    1    3    3    0    0 -0.25309904240E+02 -0.41481103949E+00 -0.59826384360E+02  0.64961301946E+02  0.10566000000E+00 0.  1.
         13    1    4    4    0    0  0.74802937285E+01 -0.37343568409E+00  0.28910530942E+01  0.80289227486E+01  0.10566000000E+00 0. -1.
        -13    1    4    4    0    0  0.98306665000E+01 -0.69058595890E-01  0.49162523231E+01  0.10992155105E+02  0.10566000000E+00 0.  1.
        -14    1    4    4    0    0  0.79989440120E+01  0.85730531947E+00  0.38879562914E+01  0.89350031808E+01  0.00000000000E+00 0.  1.
<mgrwt>
<rscale>  0 0.79479778E+02</rscale>
<asrwt>0</asrwt>
<pdfrwt beam="1">  1        2 0.34450970E-02 0.79479778E+02</pdfrwt>
<pdfrwt beam="2">  1       -1 0.10849885E-01 0.79479778E+02</pdfrwt>
<totfact> 0.12938605E+05</totfact>
</mgrwt>
</event>
<event>
 8    1  0.2603554E-020  0.7930874E+02  0.7818608E-02  0.1331025E+00
          2   -1    0    0  501    0  0.00000000000E+00  0.00000000000E+00  0.49912910713E+02  0.49912910778E+02  0.25500000000E-02 0. -1.
         -1   -1    0    0    0  501 -0.00000000000E+00 -0.00000000000E+00 -0.31504257341E+02  0.31504257744E+02  0.50400000000E-02 0.  1.
         24    2    1    2    0    0 -0.67654215563E-16 -0.71054273576E-14  0.18408653373E+02  0.81417168522E+02  0.79308743598E+02 0.  0.
         66    2    3    3    0    0  0.13846866613E-01 -0.32539044514E+02  0.32431749475E+02  0.45984866904E+02  0.20000001497E+01 0.  0.
        -13    1    3    3    0    0 -0.13846866613E-01  0.32539044514E+02 -0.14023096102E+02  0.35432301618E+02  0.10566000000E+00 0.  1.
         13    1    4    4    0    0  0.69615738110E+00 -0.11928580621E+02  0.12075564225E+02  0.16988410347E+02  0.10566000000E+00 0. -1.
        -13    1    4    4    0    0 -0.52250815889E+00 -0.74126887013E+01  0.79411559030E+01  0.10876308642E+02  0.10566000000E+00 0.  1.
         14    1    4    4    0    0 -0.15980235560E+00 -0.13197775192E+02  0.12415029347E+02  0.18120147916E+02  0.00000000000E+00 0. -1.
<mgrwt>
<rscale>  0 0.79308744E+02</rscale>
<asrwt>0</asrwt>
<pdfrwt beam="1">  1        2 0.76789093E-02 0.79308744E+02</pdfrwt>
<pdfrwt beam="2">  1       -1 0.48468089E-02 0.79308744E+02</pdfrwt>
<totfact> 0.15296474E+05</totfact>
</mgrwt>
</event>
<event>
 8    1  0.2603554E-020  0.7428170E+02  0.7818608E-02  0.1346110E+00
         -1   -1    0    0    0  501 -0.00000000000E+00  0.00000000000E+00  0.13507893471E+02  0.13507894412E+02  0.50400000000E-02 0.  1.
          2   -1    0    0  501    0  0.00000000000E+00 -0.00000000000E+00 -0.10212124263E+03  0.10212124267E+03  0.25500000000E-02 0. -1.
         24    2    1    2    0    0  0.00000000000E+00  0.00000000000E+00 -0.88613349162E+02  0.11562913708E+03  0.74281704958E+02 0.  0.
         66    2    3    3    0    0  0.41425758949E+01 -0.24859536931E+02 -0.86748820301E+02  0.90357707688E+02  0.20000008933E+01 0.  0.
        -13    1    3    3    0    0 -0.41425758949E+01  0.24859536931E+02 -0.18645288609E+01  0.25271429389E+02  0.10566000000E+00 0.  1.
         13    1    4    4    0    0  0.14269587941E+01 -0.12267305701E+02 -0.42061068680E+02  0.43836829985E+02  0.10566000000E+00 0. -1.
        -13    1    4    4    0    0  0.22178799015E+01 -0.11576287373E+02 -0.41304278635E+02  0.42953277153E+02  0.10566000000E+00 0.  1.
        -14    1    4    4    0    0  0.49773719933E+00 -0.10159438568E+01 -0.33834729852E+01  0.35676005496E+01  0.00000000000E+00 0.  1.
<mgrwt>
<rscale>  0 0.74281705E+02</rscale>
<asrwt>0</asrwt>
<pdfrwt beam="1">  1        2 0.15710960E-01 0.74281705E+02</pdfrwt>
<pdfrwt beam="2">  1       -1 0.20781376E-02 0.74281705E+02</pdfrwt>
<totfact> 0.21726704E+05</totfact>
</mgrwt>
</event>
<event>
 8    1  0.2603554E-020  0.7973388E+02  0.7818608E-02  0.1329808E+00
         -1   -1    0    0    0  501 -0.00000000000E+00  0.00000000000E+00  0.78201902528E+01  0.78201918769E+01  0.50400000000E-02 0.  1.
          2   -1    0    0  501    0  0.00000000000E+00 -0.00000000000E+00 -0.20323965457E+03  0.20323965459E+03  0.25500000000E-02 0. -1.
         24    2    1    2    0    0 -0.17763568394E-14  0.00000000000E+00 -0.19541946432E+03  0.21105984646E+03  0.79733880847E+02 0.  0.
         66    2    3    3    0    0 -0.14482998709E+02  0.34995130515E+02 -0.13050809849E+03  0.13590724845E+03  0.19999992233E+01 0.  0.
        -13    1    3    3    0    0  0.14482998709E+02 -0.34995130515E+02 -0.64911365825E+02  0.75152598016E+02  0.10566000000E+00 0.  1.
         13    1    4    4    0    0 -0.82904859845E+01  0.18878234185E+02 -0.73899743806E+02  0.76722246985E+02  0.10566000000E+00 0.  1.
        -13    1    4    4    0    0 -0.20614332721E+01  0.59975486632E+01 -0.20668159319E+02  0.21619529846E+02  0.10566000000E+00 0. -1.
        -14    1    4    4    0    0 -0.41310794523E+01  0.10119347666E+02 -0.35940195368E+02  0.37565471616E+02  0.00000000000E+00 0.  1.
<mgrwt>
<rscale>  0 0.79733881E+02</rscale>
<asrwt>0</asrwt>
<pdfrwt beam="1">  1        2 0.31267635E-01 0.79733881E+02</pdfrwt>
<pdfrwt beam="2">  1       -1 0.12031065E-02 0.79733881E+02</pdfrwt>
<totfact> 0.22377978E+05</totfact>
</mgrwt>
</event>
<event>
 8    1  0.2603554E-020  0.7556251E+02  0.7818608E-02  0.1342138E+00
          2   -1    0    0  501    0  0.00000000000E+00  0.00000000000E+00  0.10150039052E+03  0.10150039055E+03  0.25500000000E-02 0. -1.
         -1   -1    0    0    0  501 -0.00000000000E+00 -0.00000000000E+00 -0.14063227670E+02  0.14063228573E+02  0.50400000000E-02 0.  1.
         24    2    1    2    0    0  0.00000000000E+00 -0.17763568394E-14  0.87437162847E+02  0.11556361912E+03  0.75562508018E+02 0.  0.
         66    2    3    3    0    0 -0.30742085818E+02 -0.15513407669E+02  0.67426173897E+02  0.75736586836E+02  0.20000003111E+01 0.  0.
        -13    1    3    3    0    0  0.30742085818E+02  0.15513407669E+02  0.20010988950E+02  0.39827032287E+02  0.10566000000E+00 0.  1.
         13    1    4    4    0    0 -0.22599750069E+02 -0.10919352186E+02  0.50102894014E+02  0.56038309289E+02  0.10566000000E+00 0. -1.
        -13    1    4    4    0    0 -0.59478323207E+01 -0.30328943159E+01  0.12008941050E+02  0.13740487125E+02  0.10566000000E+00 0.  1.
        -14    1    4    4    0    0 -0.21945034285E+01 -0.15611611667E+01  0.53143388330E+01  0.59577904225E+01  0.00000000000E+00 0.  1.
<mgrwt>
<rscale>  0 0.75562508E+02</rscale>
<asrwt>0</asrwt>
<pdfrwt beam="1">  1        2 0.15615444E-01 0.75562508E+02</pdfrwt>
<pdfrwt beam="2">  1       -1 0.21635737E-02 0.75562508E+02</pdfrwt>
<totfact> 0.20728472E+05</totfact>
</mgrwt>
</event>
<event>
 8    1  0.2603554E-020  0.7409701E+02  0.7818608E-02  0.1346690E+00
         -1   -1    0    0    0  501 -0.00000000000E+00  0.00000000000E+00  0.85032371144E+02  0.85032371294E+02  0.50400000000E-02 0.  1.
          2   -1    0    0  501    0  0.00000000000E+00 -0.00000000000E+00 -0.16141991883E+02  0.16141992085E+02  0.25500000000E-02 0. -1.
         24    2    1    2    0    0  0.00000000000E+00  0.00000000000E+00  0.68890379261E+02  0.10117436338E+03  0.74097013774E+02 0.  0.
         66    2    3    3    0    0  0.20102294189E+02 -0.29144906539E+02  0.19697083930E+02  0.40564799129E+02  0.20000010551E+01 0.  0.
        -13    1    3    3    0    0 -0.20102294189E+02  0.29144906539E+02  0.49193295331E+02  0.60609564249E+02  0.10566000000E+00 0.  1.
         13    1    4    4    0    0  0.67727551463E+01 -0.10305917751E+02  0.62211228970E+01  0.13812881202E+02  0.10566000000E+00 0. -1.
        -13    1    4    4    0    0  0.29794769622E+01 -0.44817874769E+01  0.25941265443E+01  0.59753124203E+01  0.10566000000E+00 0.  1.
        -14    1    4    4    0    0  0.10350062080E+02 -0.14357201311E+02  0.10881834489E+02  0.20776605507E+02  0.00000000000E+00 0.  1.
<mgrwt>
<rscale>  0 0.74097014E+02</rscale>
<asrwt>0</asrwt>
<pdfrwt beam="1">  1        2 0.24833833E-02 0.74097014E+02</pdfrwt>
<pdfrwt beam="2">  1       -1 0.13081904E-01 0.74097014E+02</pdfrwt>
<totfact> 0.14823557E+05</totfact>
</mgrwt>
</event>
<event>
 8    1  0.2603554E-020  0.7815951E+02  0.7818608E-02  0.1334357E+00
          2   -1    0    0  501    0  0.00000000000E+00  0.00000000000E+00  0.70000736651E+03  0.70000736652E+03  0.25500000000E-02 0. -1.
         -1   -1    0    0    0  501 -0.00000000000E+00 -0.00000000000E+00 -0.21817270679E+01  0.21817328893E+01  0.50400000000E-02 0.  1.
         24    2    1    2    0    0  0.00000000000E+00  0.00000000000E+00  0.69782563945E+03  0.70218909941E+03  0.78159505238E+02 0.  0.
         66    2    3    3    0    0  0.28189164039E+02  0.67560372938E+01  0.58426706704E+03  0.58498912696E+03  0.20000083695E+01 0.  0.
        -13    1    3    3    0    0 -0.28189164039E+02 -0.67560372938E+01  0.11355857241E+03  0.11719997244E+03  0.10566000000E+00 0.  1.
         13    1    4    4    0    0  0.70452049508E+01  0.12318862893E+01  0.14446208276E+03  0.14463905757E+03  0.10566000000E+00 0. -1.
        -13    1    4    4    0    0  0.11919323259E+02  0.38650009954E+01  0.25177140745E+03  0.25208304440E+03  0.10566000000E+00 0.  1.
        -14    1    4    4    0    0  0.92246358291E+01  0.16591500092E+01  0.18803357682E+03  0.18826702499E+03  0.00000000000E+00 0.  1.
<mgrwt>
<rscale>  0 0.78159505E+02</rscale>
<asrwt>0</asrwt>
<pdfrwt beam="1">  1        2 0.10769341E+00 0.78159505E+02</pdfrwt>
<pdfrwt beam="2">  1       -1 0.33565087E-03 0.78159505E+02</pdfrwt>
<totfact> 0.35535708E+05</totfact>
</mgrwt>
</event>
<event>
 8    1  0.2603554E-020  0.7613611E+02  0.7818608E-02  0.1340389E+00
          2   -1    0    0  501    0  0.00000000000E+00  0.00000000000E+00  0.15613541893E+02  0.15613542102E+02  0.25500000000E-02 0. -1.
         -1   -1    0    0    0  501 -0.00000000000E+00 -0.00000000000E+00 -0.92815373263E+02  0.92815373400E+02  0.50400000000E-02 0.  1.
         24    2    1    2    0    0  0.88817841970E-15  0.00000000000E+00 -0.77201831370E+02  0.10842891550E+03  0.76136108056E+02 0.  0.
         66    2    3    3    0    0  0.51353380023E+01  0.35257894623E+02 -0.57610919462E+02  0.67768051970E+02  0.19999992491E+01 0.  0.
        -13    1    3    3    0    0 -0.51353380023E+01 -0.35257894623E+02 -0.19590911908E+02  0.40660863531E+02  0.10566000000E+00 0.  1.
         13    1    4    4    0    0  0.31424621435E+01  0.19026828260E+02 -0.32446256927E+02  0.37744748172E+02  0.10566000000E+00 0. -1.
        -13    1    4    4    0    0  0.19241497465E+01  0.13030474574E+02 -0.20399396324E+02  0.24282548348E+02  0.10566000000E+00 0.  1.
         14    1    4    4    0    0  0.68726112255E-01  0.32005917892E+01 -0.47652662108E+01  0.57407554502E+01  0.00000000000E+00 0. -1.
<mgrwt>
<rscale>  0 0.76136108E+02</rscale>
<asrwt>0</asrwt>
<pdfrwt beam="1">  1        2 0.24020834E-02 0.76136108E+02</pdfrwt>
<pdfrwt beam="2">  1       -1 0.14279288E-01 0.76136108E+02</pdfrwt>
<totfact> 0.13618162E+05</totfact>
</mgrwt>
</event>
<event>
 8    1  0.2603554E-020  0.8256214E+02  0.7818608E-02  0.1321934E+00
          2   -1    0    0  501    0  0.00000000000E+00  0.00000000000E+00  0.91104704387E+01  0.91104707955E+01  0.25500000000E-02 0. -1.
         -1   -1    0    0    0  501 -0.00000000000E+00 -0.00000000000E+00 -0.18705142685E+03  0.18705142692E+03  0.50400000000E-02 0.  1.
         24    2    1    2    0    0  0.00000000000E+00 -0.71054273576E-14 -0.17794095641E+03  0.19616189771E+03  0.82562135062E+02 0.  0.
         66    2    3    3    0    0  0.19392239257E+02  0.35929106852E+02 -0.74933879656E+02  0.85358338708E+02  0.20000010357E+01 0.  0.
        -13    1    3    3    0    0 -0.19392239257E+02 -0.35929106852E+02 -0.10300707676E+03  0.11080355901E+03  0.10566000000E+00 0.  1.
         13    1    4    4    0    0  0.85694021519E+01  0.16412636738E+02 -0.35088098517E+02  0.39673607342E+02  0.10566000000E+00 0. -1.
        -13    1    4    4    0    0  0.73624035300E+01  0.13232632530E+02 -0.25903092505E+02  0.30004814860E+02  0.10566000000E+00 0.  1.
        -14    1    4    4    0    0  0.34604335749E+01  0.62838375836E+01 -0.13942688635E+02  0.15679916507E+02  0.00000000000E+00 0.  1.
<mgrwt>
<rscale>  0 0.82562135E+02</rscale>
<asrwt>0</asrwt>
<pdfrwt beam="1">  1        2 0.14016110E-02 0.82562135E+02</pdfrwt>
<pdfrwt beam="2">  1       -1 0.28777140E-01 0.82562135E+02</pdfrwt>
<totfact> 0.93771991E+04</totfact>
</mgrwt>
</event>
<event>
 8    1  0.2603554E-020  0.8017665E+02  0.7818608E-02  0.1328551E+00
         -1   -1    0    0    0  501 -0.00000000000E+00  0.00000000000E+00  0.10133872325E+01  0.10133997655E+01  0.50400000000E-02 0.  1.
          2   -1    0    0  501    0  0.00000000000E+00 -0.00000000000E+00 -0.15858338879E+04  0.15858338879E+04  0.25500000000E-02 0. -1.
         24    2    1    2    0    0 -0.11102230246E-15  0.00000000000E+00 -0.15848205006E+04  0.15868472876E+04  0.80176648980E+02 0.  0.
         66    2    3    3    0    0 -0.75493910639E+00  0.18172551892E+02 -0.14994078374E+04  0.14995194812E+04  0.20000010689E+01 0.  0.
        -13    1    3    3    0    0  0.75493910639E+00 -0.18172551892E+02 -0.85412663197E+02  0.87327806418E+02  0.10566000000E+00 0.  1.
         13    1    4    4    0    0 -0.15650985426E+00  0.84708700677E+01 -0.70961750425E+03  0.70966808695E+03  0.10566000000E+00 0. -1.
        -13    1    4    4    0    0 -0.42225317254E+00  0.36526816134E+01 -0.24830350154E+03  0.24833074803E+03  0.10566000000E+00 0.  1.
        -14    1    4    4    0    0 -0.17617607958E+00  0.60490002105E+01 -0.54148683164E+03  0.54152064622E+03  0.00000000000E+00 0.  1.
<mgrwt>
<rscale>  0 0.80176649E+02</rscale>
<asrwt>0</asrwt>
<pdfrwt beam="1">  1        2 0.24397246E+00 0.80176649E+02</pdfrwt>
<pdfrwt beam="2">  1       -1 0.15590796E-03 0.80176649E+02</pdfrwt>
<totfact> 0.32301246E+05</totfact>
</mgrwt>
</event>
<event>
 8    1  0.2603554E-020  0.8108650E+02  0.7818608E-02  0.1325996E+00
          2   -1    0    0  501    0  0.00000000000E+00  0.00000000000E+00  0.11492087764E+04  0.11492087764E+04  0.25500000000E-02 0. -1.
         -1   -1    0    0    0  501 -0.00000000000E+00 -0.00000000000E+00 -0.14303318977E+01  0.14303407773E+01  0.50400000000E-02 0.  1.
         24    2    1    2    0    0  0.17763568394E-14  0.00000000000E+00  0.11477784445E+04  0.11506391172E+04  0.81086499005E+02 0.  0.
         66    2    3    3    0    0 -0.87640159799E+01  0.27423052922E+02  0.97882634569E+03  0.97925167696E+03  0.20000017088E+01 0.  0.
        -13    1    3    3    0    0  0.87640159799E+01 -0.27423052922E+02  0.16895209881E+03  0.17138744022E+03  0.10566000000E+00 0.  1.
         13    1    4    4    0    0 -0.25785935277E+00  0.13719378510E+01  0.56991933712E+02  0.57009125385E+02  0.10566000000E+00 0. -1.
        -13    1    4    4    0    0 -0.55703065668E+01  0.18039026471E+02  0.65151207149E+03  0.65178556692E+03  0.10566000000E+00 0.  1.
         14    1    4    4    0    0 -0.29358500603E+01  0.80120886003E+01  0.27032234049E+03  0.27045698465E+03  0.00000000000E+00 0. -1.
<mgrwt>
<rscale>  0 0.81086499E+02</rscale>
<asrwt>0</asrwt>
<pdfrwt beam="1">  1        2 0.17680098E+00 0.81086499E+02</pdfrwt>
<pdfrwt beam="2">  1       -1 0.22005220E-03 0.81086499E+02</pdfrwt>
<totfact> 0.33962878E+05</totfact>
</mgrwt>
</event>
<event>
 8    1  0.2603554E-020  0.8045015E+02  0.7818608E-02  0.1327779E+00
          2   -1    0    0  501    0  0.00000000000E+00  0.00000000000E+00  0.17196842807E+03  0.17196842809E+03  0.25500000000E-02 0. -1.
         -1   -1    0    0    0  501 -0.00000000000E+00 -0.00000000000E+00 -0.94090326245E+01  0.94090339743E+01  0.50400000000E-02 0.  1.
         24    2    1    2    0    0  0.35527136788E-14 -0.88817841970E-15  0.16255939545E+03  0.18137746207E+03  0.80450150386E+02 0.  0.
         66    2    3    3    0    0  0.24075429167E+02  0.66657604102E+01  0.15233836204E+03  0.15438599417E+03  0.19999987252E+01 0.  0.
        -13    1    3    3    0    0 -0.24075429167E+02 -0.66657604102E+01  0.10221033411E+02  0.26991467901E+02  0.10566000000E+00 0.  1.
         13    1    4    4    0    0  0.43298077060E+01  0.15894332659E+01  0.26892982100E+02  0.27285842174E+02  0.10566000000E+00 0. -1.
        -13    1    4    4    0    0  0.54350300298E+01  0.20801971480E+01  0.36391186455E+02  0.36853716057E+02  0.10566000000E+00 0.  1.
        -14    1    4    4    0    0  0.14310591431E+02  0.29961299963E+01  0.89054193484E+02  0.90246435936E+02  0.00000000000E+00 0.  1.
<mgrwt>
<rscale>  0 0.80450150E+02</rscale>
<asrwt>0</asrwt>
<pdfrwt beam="1">  1        2 0.26456680E-01 0.80450150E+02</pdfrwt>
<pdfrwt beam="2">  1       -1 0.14475437E-02 0.80450150E+02</pdfrwt>
<totfact> 0.20640869E+05</totfact>
</mgrwt>
</event>
<event>
 8    1  0.2603554E-020  0.7672149E+02  0.7818608E-02  0.1338622E+00
         -1   -1    0    0    0  501 -0.00000000000E+00  0.00000000000E+00  0.22452563524E+03  0.22452563530E+03  0.50400000000E-02 0.  1.
          2   -1    0    0  501    0  0.00000000000E+00 -0.00000000000E+00 -0.65540254441E+01  0.65540259402E+01  0.25500000000E-02 0. -1.
         24    2    1    2    0    0  0.00000000000E+00  0.34694469520E-17  0.21797160980E+03  0.23107966124E+03  0.76721490864E+02 0.  0.
         66    2    3    3    0    0  0.34363407931E+02  0.18117340671E-01  0.57883654763E+02  0.67345093587E+02  0.20000021565E+01 0.  0.
        -13    1    3    3    0    0 -0.34363407931E+02 -0.18117340671E-01  0.16008795504E+03  0.16373456765E+03  0.10566000000E+00 0.  1.
         13    1    4    4    0    0  0.17665747183E+01 -0.12405285620E+00  0.31428608947E+01  0.36090045699E+01  0.10566000000E+00 0.  1.
        -13    1    4    4    0    0  0.17741791772E+02 -0.50034846501E+00  0.31085835778E+02  0.35796115347E+02  0.10566000000E+00 0. -1.
        -14    1    4    4    0    0  0.14855041441E+02  0.64251866188E+00  0.23654958091E+02  0.27939973671E+02  0.00000000000E+00 0.  1.
<mgrwt>
<rscale>  0 0.76721491E+02</rscale>
<asrwt>0</asrwt>
<pdfrwt beam="1">  1        2 0.10083116E-02 0.76721491E+02</pdfrwt>
<pdfrwt beam="2">  1       -1 0.34542409E-01 0.76721491E+02</pdfrwt>
<totfact> 0.10685830E+05</totfact>
</mgrwt>
</event>
<event>
 8    1  0.2603554E-020  0.8200866E+02  0.7818608E-02  0.1323446E+00
         -1   -1    0    0    0  501 -0.00000000000E+00  0.00000000000E+00  0.11532296188E+02  0.11532297289E+02  0.50400000000E-02 0.  1.
          2   -1    0    0  501    0  0.00000000000E+00 -0.00000000000E+00 -0.14579534291E+03  0.14579534294E+03  0.25500000000E-02 0. -1.
         24    2    1    2    0    0  0.17763568394E-14 -0.35527136788E-14 -0.13426304673E+03  0.15732764023E+03  0.82008662120E+02 0.  0.
         66    2    3    3    0    0  0.10749919069E+02 -0.20200632549E+02 -0.13239006958E+03  0.13436799034E+03  0.19999970639E+01 0.  0.
        -13    1    3    3    0    0 -0.10749919069E+02  0.20200632549E+02 -0.18729771412E+01  0.22959649884E+02  0.10566000000E+00 0.  1.
         13    1    4    4    0    0  0.69662344315E+01 -0.12361300405E+02 -0.78804095130E+02  0.80071385295E+02  0.10566000000E+00 0. -1.
        -13    1    4    4    0    0  0.10520526678E+01 -0.14910002413E+01 -0.12640618183E+02  0.12772090221E+02  0.10566000000E+00 0.  1.
        -14    1    4    4    0    0  0.27316319696E+01 -0.63483319030E+01 -0.40945356272E+02  0.41524514825E+02  0.00000000000E+00 0.  1.
<mgrwt>
<rscale>  0 0.82008662E+02</rscale>
<asrwt>0</asrwt>
<pdfrwt beam="1">  1        2 0.22430052E-01 0.82008662E+02</pdfrwt>
<pdfrwt beam="2">  1       -1 0.17741996E-02 0.82008662E+02</pdfrwt>
<totfact> 0.18581750E+05</totfact>
</mgrwt>
</event>
<event>
 8    1  0.2603554E-020  0.7958943E+02  0.7818608E-02  0.1330221E+00
         -1   -1    0    0    0  501 -0.00000000000E+00  0.00000000000E+00  0.72796288563E+02  0.72796288737E+02  0.50400000000E-02 0.  1.
          2   -1    0    0  501    0  0.00000000000E+00 -0.00000000000E+00 -0.21754122133E+02  0.21754122282E+02  0.25500000000E-02 0. -1.
         24    2    1    2    0    0  0.00000000000E+00  0.00000000000E+00  0.51042166430E+02  0.94550411020E+02  0.79589430644E+02 0.  0.
         66    2    3    3    0    0  0.37776338107E+02 -0.12431990743E+02  0.25428798758E+02  0.47246480082E+02  0.19999898206E+01 0.  0.
        -13    1    3    3    0    0 -0.37776338107E+02  0.12431990743E+02  0.25613367672E+02  0.47303930938E+02  0.10566000000E+00 0.  1.
         13    1    4    4    0    0  0.35309804735E+02 -0.11917506274E+02  0.23867496044E+02  0.44254692380E+02  0.10566000000E+00 0. -1.
        -13    1    4    4    0    0  0.23139880245E+01 -0.57259889180E+00  0.14938089071E+01  0.28151446064E+01  0.10566000000E+00 0.  1.
         14    1    4    4    0    0  0.15254534771E+00  0.58114423194E-01  0.67493806250E-01  0.17664309546E+00  0.00000000000E+00 0. -1.
<mgrwt>
<rscale>  0 0.79589431E+02</rscale>
<asrwt>0</asrwt>
<pdfrwt beam="1">  1        2 0.33467880E-02 0.79589431E+02</pdfrwt>
<pdfrwt beam="2">  1       -1 0.11199429E-01 0.79589431E+02</pdfrwt>
<totfact> 0.12814088E+05</totfact>
</mgrwt>
</event>
<event>
 8    1  0.2603554E-020  0.7898541E+02  0.7818608E-02  0.1331956E+00
          2   -1    0    0  501    0  0.00000000000E+00  0.00000000000E+00  0.95109208563E+03  0.95109208564E+03  0.25500000000E-02 0. -1.
         -1   -1    0    0    0  501 -0.00000000000E+00 -0.00000000000E+00 -0.16398726319E+01  0.16398803769E+01  0.50400000000E-02 0.  1.
         24    2    1    2    0    0  0.35527136788E-14 -0.17763568394E-14  0.94945221300E+03  0.95273196601E+03  0.78985405556E+02 0.  0.
         66    2    3    3    0    0  0.24399875898E+02 -0.12351470824E+02  0.81827203368E+03  0.81873135637E+03  0.20000043084E+01 0.  0.
        -13    1    3    3    0    0 -0.24399875898E+02  0.12351470824E+02  0.13118017932E+03  0.13400060965E+03  0.10566000000E+00 0.  1.
         13    1    4    4    0    0  0.13822665227E+02 -0.73236007953E+01  0.46256513593E+03  0.46282957700E+03  0.10566000000E+00 0. -1.
        -13    1    4    4    0    0  0.58043811042E+01 -0.21184336637E+01  0.18074845556E+03  0.18085406811E+03  0.10566000000E+00 0.  1.
        -14    1    4    4    0    0  0.47728295662E+01 -0.29094363649E+01  0.17495844219E+03  0.17504771125E+03  0.00000000000E+00 0.  1.
<mgrwt>
<rscale>  0 0.78985406E+02</rscale>
<asrwt>0</asrwt>
<pdfrwt beam="1">  1        2 0.14632170E+00 0.78985406E+02</pdfrwt>
<pdfrwt beam="2">  1       -1 0.25228897E-03 0.78985406E+02</pdfrwt>
<totfact> 0.36309673E+05</totfact>
</mgrwt>
</event>
<event>
 8    1  0.2603554E-020  0.7988396E+02  0.7818608E-02  0.1329381E+00
          2   -1    0    0  501    0  0.00000000000E+00  0.00000000000E+00  0.11000818076E+02  0.11000818371E+02  0.25500000000E-02 0. -1.
         -1   -1    0    0    0  501 -0.00000000000E+00 -0.00000000000E+00 -0.14502209292E+03  0.14502209301E+03  0.50400000000E-02 0.  1.
         24    2    1    2    0    0  0.71054273576E-14  0.00000000000E+00 -0.13402127485E+03  0.15602291138E+03  0.79883958116E+02 0.  0.
         66    2    3    3    0    0 -0.36051313158E+02  0.57059391706E+01 -0.35492759278E+02  0.50950867210E+02  0.19999964889E+01 0.  0.
        -13    1    3    3    0    0  0.36051313158E+02 -0.57059391706E+01 -0.98528515568E+02  0.10507204417E+03  0.10566000000E+00 0.  1.
         13    1    4    4    0    0 -0.12267077302E+02  0.17559698473E+01 -0.12975351082E+02  0.17942561561E+02  0.10566000000E+00 0. -1.
        -13    1    4    4    0    0 -0.77055740862E+01  0.16580987996E+01 -0.68836569092E+01  0.10465231011E+02  0.10566000000E+00 0.  1.
         14    1    4    4    0    0 -0.16078661771E+02  0.22918705237E+01 -0.15633751287E+02  0.22543074638E+02  0.00000000000E+00 0. -1.
<mgrwt>
<rscale>  0 0.79883958E+02</rscale>
<asrwt>0</asrwt>
<pdfrwt beam="1">  1        2 0.16924337E-02 0.79883958E+02</pdfrwt>
<pdfrwt beam="2">  1       -1 0.22311090E-01 0.79883958E+02</pdfrwt>
<totfact> 0.10919601E+05</totfact>
</mgrwt>
</event>
<event>
 8    1  0.2603554E-020  0.7955225E+02  0.7818608E-02  0.1330327E+00
          2   -1    0    0  501    0  0.00000000000E+00  0.00000000000E+00  0.19909402721E+03  0.19909402722E+03  0.25500000000E-02 0. -1.
         -1   -1    0    0    0  501 -0.00000000000E+00 -0.00000000000E+00 -0.79466976792E+01  0.79466992775E+01  0.50400000000E-02 0.  1.
         24    2    1    2    0    0  0.00000000000E+00  0.44408920985E-15  0.19114732953E+03  0.20704072650E+03  0.79552252290E+02 0.  0.
         66    2    3    3    0    0 -0.22101121645E+02 -0.33828491194E+01  0.18117244225E+03  0.18255781845E+03  0.20000007062E+01 0.  0.
        -13    1    3    3    0    0  0.22101121645E+02  0.33828491194E+01  0.99748872817E+01  0.24482908048E+02  0.10566000000E+00 0.  1.
         13    1    4    4    0    0 -0.83532551757E+01 -0.13518268117E+01  0.64175774331E+02  0.64731333083E+02  0.10566000000E+00 0. -1.
        -13    1    4    4    0    0 -0.94743776237E+01 -0.97754269614E+00  0.83660990493E+02  0.84201495921E+02  0.10566000000E+00 0.  1.
         14    1    4    4    0    0 -0.42734888460E+01 -0.10534796115E+01  0.33335677424E+02  0.33624989451E+02  0.00000000000E+00 0. -1.
<mgrwt>
<rscale>  0 0.79552252E+02</rscale>
<asrwt>0</asrwt>
<pdfrwt beam="1">  1        2 0.30629848E-01 0.79552252E+02</pdfrwt>
<pdfrwt beam="2">  1       -1 0.12225691E-02 0.79552252E+02</pdfrwt>
<totfact> 0.22352346E+05</totfact>
</mgrwt>
</event>
<event>
 8    1  0.2603554E-020  0.8099671E+02  0.7818608E-02  0.1326246E+00
          2   -1    0    0  501    0  0.00000000000E+00  0.00000000000E+00  0.25767247606E+02  0.25767247732E+02  0.25500000000E-02 0. -1.
         -1   -1    0    0    0  501 -0.00000000000E+00 -0.00000000000E+00 -0.63651227548E+02  0.63651227747E+02  0.50400000000E-02 0.  1.
         24    2    1    2    0    0  0.00000000000E+00  0.17763568394E-14 -0.37883979942E+02  0.89418475479E+02  0.80996714877E+02 0.  0.
         66    2    3    3    0    0 -0.33669721150E+02  0.13479085670E+02  0.88050417698E+00  0.36333333812E+02  0.19999963629E+01 0.  0.
        -13    1    3    3    0    0  0.33669721150E+02 -0.13479085670E+02 -0.38764484119E+02  0.53085141668E+02  0.10566000000E+00 0.  1.
         13    1    4    4    0    0 -0.93160997800E+01  0.41349262990E+01 -0.37505679696E-01  0.10193130104E+02  0.10566000000E+00 0. -1.
        -13    1    4    4    0    0 -0.88303072953E+01  0.35849088298E+01 -0.32483170120E+00  0.95363818043E+01  0.10566000000E+00 0.  1.
        -14    1    4    4    0    0 -0.15523314075E+02  0.57592505417E+01  0.12428415579E+01  0.16603821903E+02  0.00000000000E+00 0.  1.
<mgrwt>
<rscale>  0 0.80996715E+02</rscale>
<asrwt>0</asrwt>
<pdfrwt beam="1">  1        2 0.39641920E-02 0.80996715E+02</pdfrwt>
<pdfrwt beam="2">  1       -1 0.97924965E-02 0.80996715E+02</pdfrwt>
<totfact> 0.12608378E+05</totfact>
</mgrwt>
</event>
<event>
 8    1  0.2603554E-020  0.7846477E+02  0.7818608E-02  0.1333466E+00
         -1   -1    0    0    0  501 -0.00000000000E+00  0.00000000000E+00  0.35177541998E+01  0.35177578103E+01  0.50400000000E-02 0.  1.
          2   -1    0    0  501    0  0.00000000000E+00 -0.00000000000E+00 -0.43754602903E+03  0.43754602904E+03  0.25500000000E-02 0. -1.
         24    2    1    2    0    0  0.00000000000E+00  0.00000000000E+00 -0.43402827483E+03  0.44106378685E+03  0.78464773729E+02 0.  0.
         66    2    3    3    0    0  0.35788251436E+02 -0.12088691633E+02 -0.27617429442E+03  0.27875289473E+03  0.20000032686E+01 0.  0.
        -13    1    3    3    0    0 -0.35788251436E+02  0.12088691633E+02 -0.15785398041E+03  0.16231089212E+03  0.10566000000E+00 0.  1.
         13    1    4    4    0    0  0.10396185689E+02 -0.43009995067E+01 -0.85556890320E+02  0.86293521883E+02  0.10566000000E+00 0. -1.
        -13    1    4    4    0    0  0.15231606012E+01 -0.50490812791E+00 -0.11630770901E+02  0.11741420111E+02  0.10566000000E+00 0. -1.
         14    1    4    4    0    0  0.23868905145E+02 -0.72827839983E+01 -0.17898663320E+03  0.18071795273E+03  0.00000000000E+00 0. -1.
<mgrwt>
<rscale>  0 0.78464774E+02</rscale>
<asrwt>0</asrwt>
<pdfrwt beam="1">  1        2 0.67314731E-01 0.78464774E+02</pdfrwt>
<pdfrwt beam="2">  1       -1 0.54119358E-03 0.78464774E+02</pdfrwt>
<totfact> 0.30651101E+05</totfact>
</mgrwt>
</event>
<event>
 8    1  0.2603554E-020  0.8482522E+02  0.7818608E-02  0.1315890E+00
          2   -1    0    0  501    0  0.00000000000E+00  0.00000000000E+00  0.51160933526E+02  0.51160933590E+02  0.25500000000E-02 0. -1.
         -1   -1    0    0    0  501 -0.00000000000E+00 -0.00000000000E+00 -0.35160215728E+02  0.35160216090E+02  0.50400000000E-02 0.  1.
         24    2    1    2    0    0  0.00000000000E+00  0.00000000000E+00  0.16000717798E+02  0.86321149679E+02  0.84825219787E+02 0.  0.
         66    2    3    3    0    0  0.40219547222E+02 -0.76243903382E+01  0.19202536493E+02  0.45260144896E+02  0.20000003642E+01 0.  0.
        -13    1    3    3    0    0 -0.40219547222E+02  0.76243903382E+01 -0.32018186954E+01  0.41061004783E+02  0.10566000000E+00 0.  1.
         13    1    4    4    0    0  0.27367288432E+02 -0.48273265106E+01  0.12936566050E+02  0.30653506529E+02  0.10566000000E+00 0.  1.
        -13    1    4    4    0    0  0.42860154804E+01 -0.10890369301E+01  0.26218474050E+01  0.51420985973E+01  0.10566000000E+00 0. -1.
        -14    1    4    4    0    0  0.85662433103E+01 -0.17080268975E+01  0.36441230379E+01  0.94645397696E+01  0.00000000000E+00 0.  1.
<mgrwt>
<rscale>  0 0.84825220E+02</rscale>
<asrwt>0</asrwt>
<pdfrwt beam="1">  1        2 0.78709129E-02 0.84825220E+02</pdfrwt>
<pdfrwt beam="2">  1       -1 0.54092640E-02 0.84825220E+02</pdfrwt>
<totfact> 0.12785273E+05</totfact>
</mgrwt>
</event>
<event>
 8    1  0.2603554E-020  0.8152418E+02  0.7818608E-02  0.1324781E+00
          2   -1    0    0  501    0  0.00000000000E+00  0.00000000000E+00  0.19567607529E+02  0.19567607695E+02  0.25500000000E-02 0. -1.
         -1   -1    0    0    0  501 -0.00000000000E+00 -0.00000000000E+00 -0.84913180427E+02  0.84913180577E+02  0.50400000000E-02 0.  1.
         24    2    1    2    0    0  0.17763568394E-14  0.00000000000E+00 -0.65345572899E+02  0.10448078827E+03  0.81524175681E+02 0.  0.
         66    2    3    3    0    0  0.14722296752E+02  0.19460007046E+02  0.91139545245E+01  0.26124740107E+02  0.19999956719E+01 0.  0.
        -13    1    3    3    0    0 -0.14722296752E+02 -0.19460007046E+02 -0.74459527423E+02  0.78356048165E+02  0.10566000000E+00 0.  1.
         13    1    4    4    0    0  0.77308543749E+01  0.92322019529E+01  0.38965429528E+01  0.12656771835E+02  0.10566000000E+00 0. -1.
        -13    1    4    4    0    0  0.50609500218E+01  0.68771016300E+01  0.38400672482E+01  0.93629601334E+01  0.10566000000E+00 0.  1.
        -14    1    4    4    0    0  0.19304923557E+01  0.33507034626E+01  0.13773443234E+01  0.41050081383E+01  0.00000000000E+00 0.  1.
<mgrwt>
<rscale>  0 0.81524176E+02</rscale>
<asrwt>0</asrwt>
<pdfrwt beam="1">  1        2 0.30104012E-02 0.81524176E+02</pdfrwt>
<pdfrwt beam="2">  1       -1 0.13063566E-01 0.81524176E+02</pdfrwt>
<totfact> 0.11706381E+05</totfact>
</mgrwt>
</event>
<event>
 8    1  0.2603554E-020  0.7682144E+02  0.7818608E-02  0.1338322E+00
          2   -1    0    0  501    0  0.00000000000E+00  0.00000000000E+00  0.10035628664E+03  0.10035628667E+03  0.25500000000E-02 0. -1.
         -1   -1    0    0    0  501 -0.00000000000E+00 -0.00000000000E+00 -0.14701452431E+02  0.14701453295E+02  0.50400000000E-02 0.  1.
         24    2    1    2    0    0  0.00000000000E+00  0.00000000000E+00  0.85654834208E+02  0.11505773997E+03  0.76821435178E+02 0.  0.
         66    2    3    3    0    0 -0.19365136559E+02 -0.24917303670E+02  0.75584336624E+02  0.81932121153E+02  0.19999994040E+01 0.  0.
        -13    1    3    3    0    0  0.19365136559E+02  0.24917303670E+02  0.10070497584E+02  0.33125618813E+02  0.10566000000E+00 0.  1.
         13    1    4    4    0    0 -0.28856769132E+01 -0.35188286161E+01  0.11062751570E+02  0.11962646965E+02  0.10566000000E+00 0. -1.
        -13    1    4    4    0    0 -0.15268707782E+02 -0.20150614469E+02  0.61292193915E+02  0.66301771468E+02  0.10566000000E+00 0.  1.
        -14    1    4    4    0    0 -0.12107518639E+01 -0.12478605844E+01  0.32293911387E+01  0.36677027198E+01  0.00000000000E+00 0.  1.
<mgrwt>
<rscale>  0 0.76821435E+02</rscale>
<asrwt>0</asrwt>
<pdfrwt beam="1">  1        2 0.15439428E-01 0.76821435E+02</pdfrwt>
<pdfrwt beam="2">  1       -1 0.22617621E-02 0.76821435E+02</pdfrwt>
<totfact> 0.19773852E+05</totfact>
</mgrwt>
</event>
<event>
 8    1  0.2603554E-020  0.7969214E+02  0.7818608E-02  0.1329927E+00
          2   -1    0    0  501    0  0.00000000000E+00  0.00000000000E+00  0.60253612560E+03  0.60253612561E+03  0.25500000000E-02 0. -1.
         -1   -1    0    0    0  501 -0.00000000000E+00 -0.00000000000E+00 -0.26350419785E+01  0.26350467985E+01  0.50400000000E-02 0.  1.
         24    2    1    2    0    0 -0.35527136788E-14  0.35527136788E-14  0.59990108363E+03  0.60517117241E+03  0.79692143769E+02 0.  0.
         66    2    3    3    0    0 -0.19774427667E+02  0.29702210248E+02  0.43437110187E+03  0.43583885031E+03  0.20000040546E+01 0.  0.
        -13    1    3    3    0    0  0.19774427667E+02 -0.29702210248E+02  0.16552998175E+03  0.16933232210E+03  0.10566000000E+00 0.  1.
         13    1    4    4    0    0 -0.40165891685E+01  0.68248021419E+01  0.10314565475E+03  0.10344925408E+03  0.10566000000E+00 0. -1.
        -13    1    4    4    0    0 -0.38609592821E+01  0.54954894419E+01  0.84738999651E+02  0.85004803609E+02  0.10566000000E+00 0.  1.
         14    1    4    4    0    0 -0.11896879217E+02  0.17381918664E+02  0.24648644747E+03  0.24738479262E+03  0.00000000000E+00 0. -1.
<mgrwt>
<rscale>  0 0.79692144E+02</rscale>
<asrwt>0</asrwt>
<pdfrwt beam="1">  1        2 0.92697893E-01 0.79692144E+02</pdfrwt>
<pdfrwt beam="2">  1       -1 0.40539133E-03 0.79692144E+02</pdfrwt>
<totfact> 0.32525854E+05</totfact>
</mgrwt>
</event>
<event>
 8    1  0.2603554E-020  0.8241842E+02  0.7818608E-02  0.1322325E+00
          2   -1    0    0  501    0  0.00000000000E+00  0.00000000000E+00  0.62405471369E+03  0.62405471370E+03  0.25500000000E-02 0. -1.
         -1   -1    0    0    0  501 -0.00000000000E+00 -0.00000000000E+00 -0.27212318288E+01  0.27212364961E+01  0.50400000000E-02 0.  1.
         24    2    1    2    0    0  0.71054273576E-14 -0.88817841970E-15  0.62133348186E+03  0.62677595019E+03  0.82418420614E+02 0.  0.
         66    2    3    3    0    0  0.36949624854E+02 -0.75710155737E+01  0.43663892211E+03  0.43826948712E+03  0.19999964960E+01 0.  0.
        -13    1    3    3    0    0 -0.36949624854E+02  0.75710155737E+01  0.18469455975E+03  0.18850646307E+03  0.10566000000E+00 0.  1.
         13    1    4    4    0    0  0.30872253157E+02 -0.68632104604E+01  0.36485812013E+03  0.36622623972E+03  0.10566000000E+00 0. -1.
        -13    1    4    4    0    0  0.48885259881E+01 -0.64452028002E+00  0.55295075251E+02  0.55514589108E+02  0.10566000000E+00 0.  1.
        -14    1    4    4    0    0  0.11888457085E+01 -0.63284833210E-01  0.16485726733E+02  0.16528658294E+02  0.00000000000E+00 0.  1.
<mgrwt>
<rscale>  0 0.82418421E+02</rscale>
<asrwt>0</asrwt>
<pdfrwt beam="1">  1        2 0.96008527E-01 0.82418421E+02</pdfrwt>
<pdfrwt beam="2">  1       -1 0.41865093E-03 0.82418421E+02</pdfrwt>
<totfact> 0.30083092E+05</totfact>
</mgrwt>
</event>
<event>
 8    1  0.2603554E-020  0.7721849E+02  0.7818608E-02  0.1337136E+00
         -1   -1    0    0    0  501 -0.00000000000E+00  0.00000000000E+00  0.84291119408E+01  0.84291134475E+01  0.50400000000E-02 0.  1.
          2   -1    0    0  501    0  0.00000000000E+00 -0.00000000000E+00 -0.17684825716E+03  0.17684825718E+03  0.25500000000E-02 0. -1.
         24    2    1    2    0    0  0.00000000000E+00  0.00000000000E+00 -0.16841914522E+03  0.18527737063E+03  0.77218492537E+02 0.  0.
         66    2    3    3    0    0  0.19645738489E+02  0.32773546986E+02 -0.97099520872E+02  0.10436655303E+03  0.20000038159E+01 0.  0.
        -13    1    3    3    0    0 -0.19645738489E+02 -0.32773546986E+02 -0.71319624349E+02  0.80910817596E+02  0.10566000000E+00 0.  1.
         13    1    4    4    0    0  0.32561778376E+01  0.57927385988E+01 -0.16357571845E+02  0.17656155733E+02  0.10566000000E+00 0. -1.
        -13    1    4    4    0    0  0.96500088439E+01  0.14795894562E+02 -0.43459748481E+02  0.46912706900E+02  0.10566000000E+00 0.  1.
        -14    1    4    4    0    0  0.67395518075E+01  0.12184913825E+02 -0.37282200545E+02  0.39797690398E+02  0.00000000000E+00 0.  1.
<mgrwt>
<rscale>  0 0.77218493E+02</rscale>
<asrwt>0</asrwt>
<pdfrwt beam="1">  1        2 0.27207421E-01 0.77218493E+02</pdfrwt>
<pdfrwt beam="2">  1       -1 0.12967867E-02 0.77218493E+02</pdfrwt>
<totfact> 0.23218088E+05</totfact>
</mgrwt>
</event>
<event>
 8    1  0.2603554E-020  0.7979281E+02  0.7818608E-02  0.1329640E+00
          2   -1    0    0  501    0  0.00000000000E+00  0.00000000000E+00  0.18525095922E+03  0.18525095923E+03  0.25500000000E-02 0. -1.
         -1   -1    0    0    0  501 -0.00000000000E+00 -0.00000000000E+00 -0.85922520889E+01  0.85922535671E+01  0.50400000000E-02 0.  1.
         24    2    1    2    0    0  0.00000000000E+00  0.00000000000E+00  0.17665870713E+03  0.19384321280E+03  0.79792808856E+02 0.  0.
         66    2    3    3    0    0  0.15746097560E+01 -0.18032715732E+02  0.17468787777E+03  0.17563460042E+03  0.19999977014E+01 0.  0.
        -13    1    3    3    0    0 -0.15746097560E+01  0.18032715732E+02  0.19708293557E+01  0.18208612384E+02  0.10566000000E+00 0.  1.
         13    1    4    4    0    0  0.80744691154E+00 -0.76182961525E+01  0.64738669674E+02  0.65190466496E+02  0.10566000000E+00 0. -1.
        -13    1    4    4    0    0  0.65278032094E+00 -0.82598792867E+01  0.86974017757E+02  0.87367858260E+02  0.10566000000E+00 0.  1.
         14    1    4    4    0    0  0.11438252349E+00 -0.21545402928E+01  0.22975190340E+02  0.23076275661E+02  0.00000000000E+00 0. -1.
<mgrwt>
<rscale>  0 0.79792809E+02</rscale>
<asrwt>0</asrwt>
<pdfrwt beam="1">  1        2 0.28500147E-01 0.79792809E+02</pdfrwt>
<pdfrwt beam="2">  1       -1 0.13218851E-02 0.79792809E+02</pdfrwt>
<totfact> 0.21631557E+05</totfact>
</mgrwt>
</event>
<event>
 8    1  0.2603554E-020  0.8057715E+02  0.7818608E-02  0.1327422E+00
         -1   -1    0    0    0  501 -0.00000000000E+00  0.00000000000E+00  0.15800487502E+01  0.15800567884E+01  0.50400000000E-02 0.  1.
          2   -1    0    0  501    0  0.00000000000E+00 -0.00000000000E+00 -0.10272878977E+04  0.10272878977E+04  0.25500000000E-02 0. -1.
         24    2    1    2    0    0  0.71054273576E-14  0.00000000000E+00 -0.10257078489E+04  0.10288679545E+04  0.80577145533E+02 0.  0.
         66    2    3    3    0    0 -0.30359039653E+02 -0.31485284791E+01 -0.84847395255E+03  0.84902510721E+03  0.20000001971E+01 0.  0.
        -13    1    3    3    0    0  0.30359039653E+02  0.31485284791E+01 -0.17723389636E+03  0.17984284724E+03  0.10566000000E+00 0.  1.
         13    1    4    4    0    0 -0.15254805669E+01 -0.32435511431E+00 -0.49692522369E+02  0.49717102094E+02  0.10566000000E+00 0. -1.
        -13    1    4    4    0    0 -0.20146619579E+02 -0.20246242906E+01 -0.57633553742E+03  0.57669112031E+03  0.10566000000E+00 0.  1.
        -14    1    4    4    0    0 -0.86869395071E+01 -0.79954907420E+00 -0.22244589276E+03  0.22261688481E+03  0.00000000000E+00 0.  1.
<mgrwt>
<rscale>  0 0.80577146E+02</rscale>
<asrwt>0</asrwt>
<pdfrwt beam="1">  1        2 0.15804376E+00 0.80577146E+02</pdfrwt>
<pdfrwt beam="2">  1       -1 0.24308586E-03 0.80577146E+02</pdfrwt>
<totfact> 0.34609539E+05</totfact>
</mgrwt>
</event>
<event>
 8    1  0.2603554E-020  0.7876854E+02  0.7818608E-02  0.1332583E+00
         -1   -1    0    0    0  501 -0.00000000000E+00  0.00000000000E+00  0.11274771659E+03  0.11274771670E+03  0.50400000000E-02 0.  1.
          2   -1    0    0  501    0  0.00000000000E+00 -0.00000000000E+00 -0.13757446910E+02  0.13757447146E+02  0.25500000000E-02 0. -1.
         24    2    1    2    0    0  0.35527136788E-14 -0.17763568394E-14  0.98990269682E+02  0.12650516385E+03  0.78768540606E+02 0.  0.
         66    2    3    3    0    0 -0.28128788837E+02  0.14194394684E+02  0.11643338075E+02  0.33649322747E+02  0.19999994851E+01 0.  0.
        -13    1    3    3    0    0  0.28128788837E+02 -0.14194394684E+02  0.87346931608E+02  0.92855841104E+02  0.10566000000E+00 0.  1.
         13    1    4    4    0    0 -0.14524364539E+02  0.71584312781E+01  0.66722102960E+01  0.17513704859E+02  0.10566000000E+00 0.  1.
        -13    1    4    4    0    0 -0.12812732407E+02  0.68662771536E+01  0.47915219392E+01  0.15306264084E+02  0.10566000000E+00 0. -1.
         14    1    4    4    0    0 -0.79169189053E+00  0.16968625216E+00  0.17960583967E+00  0.82935380348E+00  0.00000000000E+00 0. -1.
<mgrwt>
<rscale>  0 0.78768541E+02</rscale>
<asrwt>0</asrwt>
<pdfrwt beam="1">  1        2 0.21165304E-02 0.78768541E+02</pdfrwt>
<pdfrwt beam="2">  1       -1 0.17345802E-01 0.78768541E+02</pdfrwt>
<totfact> 0.12003464E+05</totfact>
</mgrwt>
</event>
<event>
 8    1  0.2603554E-020  0.7461789E+02  0.7818608E-02  0.1345058E+00
         -1   -1    0    0    0  501 -0.00000000000E+00  0.00000000000E+00  0.15855285991E+02  0.15855286792E+02  0.50400000000E-02 0.  1.
          2   -1    0    0  501    0  0.00000000000E+00 -0.00000000000E+00 -0.87791370849E+02  0.87791370886E+02  0.25500000000E-02 0. -1.
         24    2    1    2    0    0  0.44408920985E-15  0.35527136788E-14 -0.71936084858E+02  0.10364665768E+03  0.74617888896E+02 0.  0.
         66    2    3    3    0    0 -0.39980417841E+01 -0.14012365213E+02 -0.83660528541E+02  0.84943597483E+02  0.20000001361E+01 0.  0.
        -13    1    3    3    0    0  0.39980417841E+01  0.14012365213E+02  0.11724443683E+02  0.18703060196E+02  0.10566000000E+00 0.  1.
         13    1    4    4    0    0 -0.15451308496E+01 -0.49007869956E+01 -0.28823611085E+02  0.29278266044E+02  0.10566000000E+00 0. -1.
        -13    1    4    4    0    0 -0.17716692769E+00 -0.33832289745E+01 -0.20939808120E+02  0.21212363248E+02  0.10566000000E+00 0.  1.
        -14    1    4    4    0    0 -0.22757440069E+01 -0.57283492433E+01 -0.33897109336E+02  0.34452968191E+02  0.00000000000E+00 0.  1.
<mgrwt>
<rscale>  0 0.74617889E+02</rscale>
<asrwt>0</asrwt>
<pdfrwt beam="1">  1        2 0.13506364E-01 0.74617889E+02</pdfrwt>
<pdfrwt beam="2">  1       -1 0.24392749E-02 0.74617889E+02</pdfrwt>
<totfact> 0.20611259E+05</totfact>
</mgrwt>
</event>
<event>
 8    1  0.2603554E-020  0.7900845E+02  0.7818608E-02  0.1331889E+00
         -1   -1    0    0    0  501 -0.00000000000E+00  0.00000000000E+00  0.49517655661E+02  0.49517655918E+02  0.50400000000E-02 0.  1.
          2   -1    0    0  501    0  0.00000000000E+00 -0.00000000000E+00 -0.31515700345E+02  0.31515700448E+02  0.25500000000E-02 0. -1.
         24    2    1    2    0    0  0.71054273576E-14  0.00000000000E+00  0.18001955316E+02  0.81033356366E+02  0.79008445427E+02 0.  0.
         66    2    3    3    0    0  0.38049276483E+02 -0.88354914388E+01  0.14877532050E+02  0.41846795728E+02  0.20000007245E+01 0.  0.
        -13    1    3    3    0    0 -0.38049276483E+02  0.88354914388E+01  0.31244232655E+01  0.39186560638E+02  0.10566000000E+00 0.  1.
         13    1    4    4    0    0  0.12183106933E+02 -0.29127500393E+01  0.45062630044E+01  0.13312767467E+02  0.10566000000E+00 0. -1.
        -13    1    4    4    0    0  0.15701134831E+02 -0.39450085888E+01  0.70594353690E+01  0.17661696394E+02  0.10566000000E+00 0.  1.
        -14    1    4    4    0    0  0.10165034720E+02 -0.19777328108E+01  0.33118336770E+01  0.10872331867E+02  0.00000000000E+00 0.  1.
<mgrwt>
<rscale>  0 0.79008445E+02</rscale>
<asrwt>0</asrwt>
<pdfrwt beam="1">  1        2 0.48485693E-02 0.79008445E+02</pdfrwt>
<pdfrwt beam="2">  1       -1 0.76181009E-02 0.79008445E+02</pdfrwt>
<totfact> 0.14068620E+05</totfact>
</mgrwt>
</event>
<event>
 8    1  0.2603554E-020  0.7964132E+02  0.7818608E-02  0.1330072E+00
         -1   -1    0    0    0  501 -0.00000000000E+00  0.00000000000E+00  0.64790622175E+01  0.64790641778E+01  0.50400000000E-02 0.  1.
          2   -1    0    0  501    0  0.00000000000E+00 -0.00000000000E+00 -0.24473982550E+03  0.24473982551E+03  0.25500000000E-02 0. -1.
         24    2    1    2    0    0 -0.35527136788E-14  0.00000000000E+00 -0.23826076328E+03  0.25121888969E+03  0.79641316022E+02 0.  0.
         66    2    3    3    0    0  0.30056574852E+02 -0.25192897292E+02 -0.14050613725E+03  0.14589055618E+03  0.20000028244E+01 0.  0.
        -13    1    3    3    0    0 -0.30056574852E+02  0.25192897292E+02 -0.97754626034E+02  0.10532833351E+03  0.10566000000E+00 0.  1.
         13    1    4    4    0    0  0.68088848540E+01 -0.53364526574E+01 -0.31773067743E+02  0.32929889732E+02  0.10566000000E+00 0. -1.
        -13    1    4    4    0    0  0.67271723463E+01 -0.66813409233E+01 -0.34205133663E+02  0.35495034825E+02  0.10566000000E+00 0.  1.
        -14    1    4    4    0    0  0.16520517652E+02 -0.13175103711E+02 -0.74527935843E+02  0.77465631621E+02  0.00000000000E+00 0.  1.
<mgrwt>
<rscale>  0 0.79641316E+02</rscale>
<asrwt>0</asrwt>
<pdfrwt beam="1">  1        2 0.37652274E-01 0.79641316E+02</pdfrwt>
<pdfrwt beam="2">  1       -1 0.99677914E-03 0.79641316E+02</pdfrwt>
<totfact> 0.23968950E+05</totfact>
</mgrwt>
</event>
<event>
 8    1  0.2603554E-020  0.8141811E+02  0.7818608E-02  0.1325075E+00
         -1   -1    0    0    0  501 -0.00000000000E+00  0.00000000000E+00  0.31441994169E+02  0.31441994573E+02  0.50400000000E-02 0.  1.
          2   -1    0    0  501    0  0.00000000000E+00 -0.00000000000E+00 -0.52707443074E+02  0.52707443135E+02  0.25500000000E-02 0. -1.
         24    2    1    2    0    0  0.00000000000E+00  0.00000000000E+00 -0.21265448904E+02  0.84149437709E+02  0.81418109470E+02 0.  0.
         66    2    3    3    0    0  0.22588477327E+02 -0.25376836112E+02 -0.33773011526E+02  0.47946214016E+02  0.20000029623E+01 0.  0.
        -13    1    3    3    0    0 -0.22588477327E+02  0.25376836112E+02  0.12507562622E+02  0.36203223693E+02  0.10566000000E+00 0.  1.
         13    1    4    4    0    0  0.51542019561E+01 -0.53370374706E+01 -0.66767004697E+01  0.99819467022E+01  0.10566000000E+00 0. -1.
        -13    1    4    4    0    0  0.70142616354E+00 -0.10596052051E+01 -0.10587193264E+01  0.16573510495E+01  0.10566000000E+00 0.  1.
         14    1    4    4    0    0  0.16732849208E+02 -0.18980193436E+02 -0.26037591730E+02  0.36306916264E+02  0.00000000000E+00 0. -1.
<mgrwt>
<rscale>  0 0.81418109E+02</rscale>
<asrwt>0</asrwt>
<pdfrwt beam="1">  1        2 0.81088374E-02 0.81418109E+02</pdfrwt>
<pdfrwt beam="2">  1       -1 0.48372299E-02 0.81418109E+02</pdfrwt>
<totfact> 0.14407062E+05</totfact>
</mgrwt>
</event>
<event>
 8    1  0.2603554E-020  0.7891637E+02  0.7818608E-02  0.1332155E+00
          2   -1    0    0  501    0  0.00000000000E+00  0.00000000000E+00  0.63990470810E+01  0.63990475890E+01  0.25500000000E-02 0. -1.
         -1   -1    0    0    0  501 -0.00000000000E+00 -0.00000000000E+00 -0.24330941784E+03  0.24330941790E+03  0.50400000000E-02 0.  1.
         24    2    1    2    0    0 -0.35527136788E-14  0.35527136788E-14 -0.23691037076E+03  0.24970846548E+03  0.78916373205E+02 0.  0.
         66    2    3    3    0    0  0.24334945943E+02  0.25266992764E+02 -0.17551621012E+03  0.17899874450E+03  0.19999996328E+01 0.  0.
        -13    1    3    3    0    0 -0.24334945943E+02 -0.25266992764E+02 -0.61394160641E+02  0.70709720988E+02  0.10566000000E+00 0.  1.
         13    1    4    4    0    0  0.19833279862E+02  0.20764980429E+02 -0.14195254700E+03  0.14482776034E+03  0.10566000000E+00 0. -1.
        -13    1    4    4    0    0  0.22975021496E+01  0.28255327862E+01 -0.19402295637E+02  0.19741387784E+02  0.10566000000E+00 0.  1.
        -14    1    4    4    0    0  0.22041639314E+01  0.16764795484E+01 -0.14161367486E+02  0.14429596370E+02  0.00000000000E+00 0.  1.
<mgrwt>
<rscale>  0 0.78916373E+02</rscale>
<asrwt>0</asrwt>
<pdfrwt beam="1">  1        2 0.98446901E-03 0.78916373E+02</pdfrwt>
<pdfrwt beam="2">  1       -1 0.37432211E-01 0.78916373E+02</pdfrwt>
<totfact> 0.96802770E+04</totfact>
</mgrwt>
</event>
<event>
 8    1  0.2603554E-020  0.7888458E+02  0.7818608E-02  0.1332247E+00
          2   -1    0    0  501    0  0.00000000000E+00  0.00000000000E+00  0.94647757540E+01  0.94647760975E+01  0.25500000000E-02 0. -1.
         -1   -1    0    0    0  501 -0.00000000000E+00 -0.00000000000E+00 -0.16436673564E+03  0.16436673571E+03  0.50400000000E-02 0.  1.
         24    2    1    2    0    0  0.35527136788E-14  0.00000000000E+00 -0.15490195988E+03  0.17383151181E+03  0.78884582291E+02 0.  0.
         66    2    3    3    0    0 -0.27022485686E+02 -0.22240792486E+02 -0.37541436392E+02  0.51363674315E+02  0.20000024204E+01 0.  0.
        -13    1    3    3    0    0  0.27022485686E+02  0.22240792486E+02 -0.11736052349E+03  0.12246783750E+03  0.10566000000E+00 0.  1.
         13    1    4    4    0    0 -0.13932169537E+02 -0.12475279584E+02 -0.20080348918E+02  0.27440290185E+02  0.10566000000E+00 0. -1.
        -13    1    4    4    0    0 -0.44876075964E+01 -0.30464249383E+01 -0.53548797436E+01  0.76226785285E+01  0.10566000000E+00 0.  1.
        -14    1    4    4    0    0 -0.86027085527E+01 -0.67190879645E+01 -0.12106207730E+02  0.16300705602E+02  0.00000000000E+00 0.  1.
<mgrwt>
<rscale>  0 0.78884582E+02</rscale>
<asrwt>0</asrwt>
<pdfrwt beam="1">  1        2 0.14561195E-02 0.78884582E+02</pdfrwt>
<pdfrwt beam="2">  1       -1 0.25287188E-01 0.78884582E+02</pdfrwt>
<totfact> 0.10913898E+05</totfact>
</mgrwt>
</event>
<event>
 8    1  0.2603554E-020  0.7824348E+02  0.7818608E-02  0.1334111E+00
         -1   -1    0    0    0  501 -0.00000000000E+00  0.00000000000E+00  0.88838254950E+01  0.88838269247E+01  0.50400000000E-02 0.  1.
          2   -1    0    0  501    0  0.00000000000E+00 -0.00000000000E+00 -0.17228057112E+03  0.17228057114E+03  0.25500000000E-02 0. -1.
         24    2    1    2    0    0  0.88817841970E-15  0.35527136788E-14 -0.16339674563E+03  0.18116439807E+03  0.78243483083E+02 0.  0.
         66    2    3    3    0    0  0.65743010902E+01  0.29196463316E+02 -0.13999884414E+03  0.14317587529E+03  0.19999994740E+01 0.  0.
        -13    1    3    3    0    0 -0.65743010902E+01 -0.29196463316E+02 -0.23397901483E+02  0.37988522777E+02  0.10566000000E+00 0.  1.
         13    1    4    4    0    0  0.25964199568E+01  0.80097832990E+01 -0.38145348522E+02  0.39063753058E+02  0.10566000000E+00 0. -1.
        -13    1    4    4    0    0  0.80967743743E+00  0.49220508738E+01 -0.22336383454E+02  0.22886837968E+02  0.10566000000E+00 0.  1.
         14    1    4    4    0    0  0.31682036960E+01  0.16264629143E+02 -0.79517112170E+02  0.81225284263E+02  0.00000000000E+00 0. -1.
<mgrwt>
<rscale>  0 0.78243483E+02</rscale>
<asrwt>0</asrwt>
<pdfrwt beam="1">  1        2 0.26504701E-01 0.78243483E+02</pdfrwt>
<pdfrwt beam="2">  1       -1 0.13667426E-02 0.78243483E+02</pdfrwt>
<totfact> 0.22229266E+05</totfact>
</mgrwt>
</event>
<event>
 8    1  0.2603554E-020  0.8305653E+02  0.7818608E-02  0.1320595E+00
         -1   -1    0    0    0  501 -0.00000000000E+00  0.00000000000E+00  0.48483874479E+02  0.48483874741E+02  0.50400000000E-02 0.  1.
          2   -1    0    0  501    0  0.00000000000E+00 -0.00000000000E+00 -0.35570524385E+02  0.35570524477E+02  0.25500000000E-02 0. -1.
         24    2    1    2    0    0  0.35527136788E-14 -0.35527136788E-14  0.12913350094E+02  0.84054399218E+02  0.83056531455E+02 0.  0.
         66    2    3    3    0    0 -0.24864848173E+02  0.23352550985E+02 -0.17466605106E+02  0.38375573115E+02  0.20000014347E+01 0.  0.
        -13    1    3    3    0    0  0.24864848173E+02 -0.23352550985E+02  0.30379955200E+02  0.45678826104E+02  0.10566000000E+00 0.  1.
         13    1    4    4    0    0 -0.18625743141E+02  0.17670713614E+02 -0.13556522279E+02  0.29033823165E+02  0.10566000000E+00 0. -1.
        -13    1    4    4    0    0 -0.33757413898E+01  0.34402071022E+01 -0.18608337592E+01  0.51676417399E+01  0.10566000000E+00 0.  1.
        -14    1    4    4    0    0 -0.28633636420E+01  0.22416302689E+01 -0.20492490673E+01  0.41741082100E+01  0.00000000000E+00 0.  1.
<mgrwt>
<rscale>  0 0.83056531E+02</rscale>
<asrwt>0</asrwt>
<pdfrwt beam="1">  1        2 0.54723884E-02 0.83056531E+02</pdfrwt>
<pdfrwt beam="2">  1       -1 0.74590576E-02 0.83056531E+02</pdfrwt>
<totfact> 0.12537668E+05</totfact>
</mgrwt>
</event>
<event>
 8    1  0.2603554E-020  0.8987895E+02  0.7818608E-02  0.1303145E+00
          2   -1    0    0  501    0  0.00000000000E+00  0.00000000000E+00  0.13666713576E+04  0.13666713576E+04  0.25500000000E-02 0. -1.
         -1   -1    0    0    0  501 -0.00000000000E+00 -0.00000000000E+00 -0.14777147246E+01  0.14777233195E+01  0.50400000000E-02 0.  1.
         24    2    1    2    0    0  0.00000000000E+00  0.00000000000E+00  0.13651936429E+04  0.13681490809E+04  0.89878946813E+02 0.  0.
         66    2    3    3    0    0 -0.29323312186E+02 -0.39007069198E+01  0.11974506796E+04  0.11978176833E+04  0.19999991996E+01 0.  0.
        -13    1    3    3    0    0  0.29323312186E+02  0.39007069198E+01  0.16774296324E+03  0.17033139767E+03  0.10566000000E+00 0.  1.
         13    1    4    4    0    0 -0.11647803175E+02 -0.17971584722E+01  0.44358949140E+03  0.44374604127E+03  0.10566000000E+00 0.  1.
        -13    1    4    4    0    0 -0.46314529610E+01 -0.76618874012E+00  0.20773887947E+03  0.20779194068E+03  0.10566000000E+00 0. -1.
        -14    1    4    4    0    0 -0.13044056050E+02 -0.13373597075E+01  0.54612230877E+03  0.54627970132E+03  0.00000000000E+00 0.  1.
<mgrwt>
<rscale>  0 0.89878947E+02</rscale>
<asrwt>0</asrwt>
<pdfrwt beam="1">  1        2 0.21025693E+00 0.89878947E+02</pdfrwt>
<pdfrwt beam="2">  1       -1 0.22734161E-03 0.89878947E+02</pdfrwt>
<totfact> 0.25252270E+05</totfact>
</mgrwt>
</event>
<event>
 8    1  0.2603554E-020  0.8139105E+02  0.7818608E-02  0.1325150E+00
         -1   -1    0    0    0  501 -0.00000000000E+00  0.00000000000E+00  0.13231138864E+02  0.13231139824E+02  0.50400000000E-02 0.  1.
          2   -1    0    0  501    0  0.00000000000E+00 -0.00000000000E+00 -0.12516877855E+03  0.12516877857E+03  0.25500000000E-02 0. -1.
         24    2    1    2    0    0  0.00000000000E+00  0.00000000000E+00 -0.11193763968E+03  0.13839991840E+03  0.81391045174E+02 0.  0.
         66    2    3    3    0    0 -0.27226605516E+02  0.29507822303E+02 -0.44966606465E+02  0.60315796584E+02  0.19999989255E+01 0.  0.
        -13    1    3    3    0    0  0.27226605516E+02 -0.29507822303E+02 -0.66971033218E+02  0.78084121813E+02  0.10566000000E+00 0.  1.
         13    1    4    4    0    0 -0.15393212493E+02  0.16152872107E+02 -0.25925978085E+02  0.34205756414E+02  0.10566000000E+00 0. -1.
        -13    1    4    4    0    0 -0.56975138741E+01  0.69879850073E+01 -0.99675866275E+01  0.13440890819E+02  0.10566000000E+00 0.  1.
         14    1    4    4    0    0 -0.61358791488E+01  0.63669651887E+01 -0.90730417518E+01  0.12669149351E+02  0.00000000000E+00 0. -1.
<mgrwt>
<rscale>  0 0.81391045E+02</rscale>
<asrwt>0</asrwt>
<pdfrwt beam="1">  1        2 0.19256734E-01 0.81391045E+02</pdfrwt>
<pdfrwt beam="2">  1       -1 0.20355600E-02 0.81391045E+02</pdfrwt>
<totfact> 0.18075546E+05</totfact>
</mgrwt>
</event>
<event>
 8    1  0.2603554E-020  0.7566281E+02  0.7818608E-02  0.1341831E+00
         -1   -1    0    0    0  501 -0.00000000000E+00  0.00000000000E+00  0.21691532829E+03  0.21691532835E+03  0.50400000000E-02 0.  1.
          2   -1    0    0  501    0  0.00000000000E+00 -0.00000000000E+00 -0.65980358212E+01  0.65980363140E+01  0.25500000000E-02 0. -1.
         24    2    1    2    0    0 -0.88817841970E-15  0.00000000000E+00  0.21031729247E+03  0.22351336466E+03  0.75662809037E+02 0.  0.
         66    2    3    3    0    0  0.51239528897E+01 -0.31765472591E+02  0.46601953306E+02  0.56666058471E+02  0.19999971390E+01 0.  0.
        -13    1    3    3    0    0 -0.51239528897E+01  0.31765472591E+02  0.16371533916E+03  0.16684730619E+03  0.10566000000E+00 0.  1.
         13    1    4    4    0    0  0.75005418190E+00 -0.84062411010E+01  0.11604817243E+02  0.14349579018E+02  0.10566000000E+00 0. -1.
        -13    1    4    4    0    0  0.21667154639E+01 -0.89781245632E+01  0.13881136468E+02  0.16673286727E+02  0.10566000000E+00 0.  1.
         14    1    4    4    0    0  0.22071832440E+01 -0.14381106927E+02  0.21115999595E+02  0.25643192726E+02  0.00000000000E+00 0. -1.
<mgrwt>
<rscale>  0 0.75662809E+02</rscale>
<asrwt>0</asrwt>
<pdfrwt beam="1">  1        2 0.10150824E-02 0.75662809E+02</pdfrwt>
<pdfrwt beam="2">  1       -1 0.33371592E-01 0.75662809E+02</pdfrwt>
<totfact> 0.11193566E+05</totfact>
</mgrwt>
</event>
<event>
 8    1  0.2603554E-020  0.7880350E+02  0.7818608E-02  0.1332482E+00
         -1   -1    0    0    0  501 -0.00000000000E+00  0.00000000000E+00  0.82173184774E+00  0.82174730373E+00  0.50400000000E-02 0.  1.
          2   -1    0    0  501    0  0.00000000000E+00 -0.00000000000E+00 -0.18892822313E+04  0.18892822313E+04  0.25500000000E-02 0. -1.
         24    2    1    2    0    0  0.00000000000E+00  0.00000000000E+00 -0.18884604995E+04  0.18901039786E+04  0.78803502135E+02 0.  0.
         66    2    3    3    0    0 -0.62174519419E+01  0.10451040106E+02 -0.18431110398E+04  0.18431522417E+04  0.19999827787E+01 0.  0.
        -13    1    3    3    0    0  0.62174519419E+01 -0.10451040106E+02 -0.45349459622E+02  0.46951736922E+02  0.10566000000E+00 0.  1.
         13    1    4    4    0    0 -0.21565616752E+01  0.34196979741E+01 -0.69536545273E+03  0.69537721353E+03  0.10566000000E+00 0. -1.
        -13    1    4    4    0    0 -0.26655232725E+01  0.44364346231E+01 -0.64273250136E+03  0.64275334805E+03  0.10566000000E+00 0.  1.
         14    1    4    4    0    0 -0.13953669942E+01  0.25949075083E+01 -0.50501308576E+03  0.50502168011E+03  0.00000000000E+00 0. -1.
<mgrwt>
<rscale>  0 0.78803502E+02</rscale>
<asrwt>0</asrwt>
<pdfrwt beam="1">  1        2 0.29065533E+00 0.78803502E+02</pdfrwt>
<pdfrwt beam="2">  1       -1 0.12642299E-03 0.78803502E+02</pdfrwt>
<totfact> 0.30320639E+05</totfact>
</mgrwt>
</event>
<event>
 8    1  0.2603554E-020  0.8007012E+02  0.7818608E-02  0.1328853E+00
         -1   -1    0    0    0  501 -0.00000000000E+00  0.00000000000E+00  0.27989553969E+02  0.27989554423E+02  0.50400000000E-02 0.  1.
          2   -1    0    0  501    0  0.00000000000E+00 -0.00000000000E+00 -0.57264440038E+02  0.57264440095E+02  0.25500000000E-02 0. -1.
         24    2    1    2    0    0 -0.71054273576E-14  0.00000000000E+00 -0.29274886069E+02  0.85253994517E+02  0.80070123185E+02 0.  0.
         66    2    3    3    0    0  0.34676565180E+02 -0.15513977280E+02 -0.28015462732E+02  0.47244193480E+02  0.20000004445E+01 0.  0.
        -13    1    3    3    0    0 -0.34676565180E+02  0.15513977280E+02 -0.12594233376E+01  0.38009801037E+02  0.10566000000E+00 0.  1.
         13    1    4    4    0    0  0.38114914943E+01 -0.12050422148E+01 -0.28948385219E+01  0.49366839330E+01  0.10566000000E+00 0.  1.
        -13    1    4    4    0    0  0.37750405466E+01 -0.19765954227E+01 -0.35678946803E+01  0.55586776376E+01  0.10566000000E+00 0. -1.
         14    1    4    4    0    0  0.27090033139E+02 -0.12332339642E+02 -0.21552729529E+02  0.36748831909E+02  0.00000000000E+00 0. -1.
<mgrwt>
<rscale>  0 0.80070123E+02</rscale>
<asrwt>0</asrwt>
<pdfrwt beam="1">  1        2 0.88099138E-02 0.80070123E+02</pdfrwt>
<pdfrwt beam="2">  1       -1 0.43060853E-02 0.80070123E+02</pdfrwt>
<totfact> 0.15363904E+05</totfact>
</mgrwt>
</event>
<event>
 8    1  0.2603554E-020  0.8133656E+02  0.7818608E-02  0.1325301E+00
         -1   -1    0    0    0  501 -0.00000000000E+00  0.00000000000E+00  0.77918002282E+00  0.77919632286E+00  0.50400000000E-02 0.  1.
          2   -1    0    0  501    0  0.00000000000E+00 -0.00000000000E+00 -0.21226055932E+04  0.21226055932E+04  0.25500000000E-02 0. -1.
         24    2    1    2    0    0  0.00000000000E+00  0.00000000000E+00 -0.21218264132E+04  0.21233847895E+04  0.81336564516E+02 0.  0.
         66    2    3    3    0    0 -0.29850599812E+01  0.12690439514E+02 -0.20665368102E+04  0.20665788990E+04  0.20000000976E+01 0.  0.
        -13    1    3    3    0    0  0.29850599812E+01 -0.12690439514E+02 -0.55289603022E+02  0.56805890579E+02  0.10566000000E+00 0.  1.
         13    1    4    4    0    0  0.16952503745E+00  0.19086126815E+01 -0.32899529432E+03  0.32900089117E+03  0.10566000000E+00 0. -1.
        -13    1    4    4    0    0 -0.26708328715E+01  0.95136778821E+01 -0.14898124387E+04  0.14898452124E+04  0.10566000000E+00 0.  1.
        -14    1    4    4    0    0 -0.48375214714E+00  0.12681489503E+01 -0.24772907718E+03  0.24773279537E+03  0.00000000000E+00 0.  1.
<mgrwt>
<rscale>  0 0.81336565E+02</rscale>
<asrwt>0</asrwt>
<pdfrwt beam="1">  1        2 0.32655008E+00 0.81336565E+02</pdfrwt>
<pdfrwt beam="2">  1       -1 0.11987680E-03 0.81336565E+02</pdfrwt>
<totfact> 0.25042210E+05</totfact>
</mgrwt>
</event>
<event>
 8    1  0.2603554E-020  0.7818229E+02  0.7818608E-02  0.1334290E+00
          2   -1    0    0  501    0  0.00000000000E+00  0.00000000000E+00  0.78338794290E+02  0.78338794331E+02  0.25500000000E-02 0. -1.
         -1   -1    0    0    0  501 -0.00000000000E+00 -0.00000000000E+00 -0.19506523250E+02  0.19506523901E+02  0.50400000000E-02 0.  1.
         24    2    1    2    0    0  0.00000000000E+00  0.00000000000E+00  0.58832271040E+02  0.97845318232E+02  0.78182288175E+02 0.  0.
         66    2    3    3    0    0 -0.20778449920E+02 -0.16794607666E+02  0.65104461660E+02  0.70401660187E+02  0.20000003206E+01 0.  0.
        -13    1    3    3    0    0  0.20778449920E+02  0.16794607666E+02 -0.62721906203E+01  0.27443658045E+02  0.10566000000E+00 0.  1.
         13    1    4    4    0    0 -0.55564312526E+01 -0.43406868665E+01  0.16474110656E+02  0.17919904483E+02  0.10566000000E+00 0. -1.
        -13    1    4    4    0    0 -0.73383871655E+01 -0.53996754787E+01  0.24244980613E+02  0.25900553477E+02  0.10566000000E+00 0.  1.
         14    1    4    4    0    0 -0.78836315015E+01 -0.70542453203E+01  0.24385370392E+02  0.26581202227E+02  0.00000000000E+00 0. -1.
<mgrwt>
<rscale>  0 0.78182288E+02</rscale>
<asrwt>0</asrwt>
<pdfrwt beam="1">  1        2 0.12052122E-01 0.78182288E+02</pdfrwt>
<pdfrwt beam="2">  1       -1 0.30010037E-02 0.78182288E+02</pdfrwt>
<totfact> 0.17666838E+05</totfact>
</mgrwt>
</event>
<event>
 8    1  0.2603554E-020  0.8042255E+02  0.7818608E-02  0.1327857E+00
          2   -1    0    0  501    0  0.00000000000E+00  0.00000000000E+00  0.85847340237E+02  0.85847340275E+02  0.25500000000E-02 0. -1.
         -1   -1    0    0    0  501 -0.00000000000E+00 -0.00000000000E+00 -0.18835141189E+02  0.18835141863E+02  0.50400000000E-02 0.  1.
         24    2    1    2    0    0  0.00000000000E+00  0.00000000000E+00  0.67012199048E+02  0.10468248214E+03  0.80422554332E+02 0.  0.
         66    2    3    3    0    0  0.22886722175E+02  0.19270239122E+02  0.68448945345E+02  0.74728858456E+02  0.19999999070E+01 0.  0.
        -13    1    3    3    0    0 -0.22886722175E+02 -0.19270239122E+02 -0.14367462966E+01  0.29953623682E+02  0.10566000000E+00 0.  1.
         13    1    4    4    0    0  0.11405632234E+02  0.98055415153E+01  0.32543212455E+02  0.35851205446E+02  0.10566000000E+00 0. -1.
        -13    1    4    4    0    0  0.94472268501E+01  0.73582602444E+01  0.29235565369E+02  0.31593093161E+02  0.10566000000E+00 0.  1.
        -14    1    4    4    0    0  0.20338630910E+01  0.21064373623E+01  0.66701675212E+01  0.72845598491E+01  0.00000000000E+00 0.  1.
<mgrwt>
<rscale>  0 0.80422554E+02</rscale>
<asrwt>0</asrwt>
<pdfrwt beam="1">  1        2 0.13207283E-01 0.80422554E+02</pdfrwt>
<pdfrwt beam="2">  1       -1 0.28977142E-02 0.80422554E+02</pdfrwt>
<totfact> 0.16765900E+05</totfact>
</mgrwt>
</event>
<event>
 8    1  0.2603554E-020  0.7906724E+02  0.7818608E-02  0.1331719E+00
          2   -1    0    0  501    0  0.00000000000E+00  0.00000000000E+00  0.19505163836E+02  0.19505164003E+02  0.25500000000E-02 0. -1.
         -1   -1    0    0    0  501 -0.00000000000E+00 -0.00000000000E+00 -0.80127864477E+02  0.80127864635E+02  0.50400000000E-02 0.  1.
         24    2    1    2    0    0  0.00000000000E+00  0.00000000000E+00 -0.60622700640E+02  0.99633028638E+02  0.79067240768E+02 0.  0.
         66    2    3    3    0    0 -0.16104638004E+02 -0.34140587132E+02 -0.45023922821E+02  0.58788542003E+02  0.19999974203E+01 0.  0.
        -13    1    3    3    0    0  0.16104638004E+02  0.34140587132E+02 -0.15598777819E+02  0.40844486635E+02  0.10566000000E+00 0.  1.
         13    1    4    4    0    0 -0.36820057988E+01 -0.61362169165E+01 -0.82877515924E+01  0.10950265533E+02  0.10566000000E+00 0.  1.
        -13    1    4    4    0    0 -0.16531798674E+01 -0.32974718035E+01 -0.44720779078E+01  0.57980142133E+01  0.10566000000E+00 0. -1.
        -14    1    4    4    0    0 -0.10769452338E+02 -0.24706898412E+02 -0.32264093321E+02  0.42040262257E+02  0.00000000000E+00 0.  1.
<mgrwt>
<rscale>  0 0.79067241E+02</rscale>
<asrwt>0</asrwt>
<pdfrwt beam="1">  1        2 0.30007945E-02 0.79067241E+02</pdfrwt>
<pdfrwt beam="2">  1       -1 0.12327364E-01 0.79067241E+02</pdfrwt>
<totfact> 0.12776232E+05</totfact>
</mgrwt>
</event>
<event>
 8    1  0.2603554E-020  0.8093063E+02  0.7818608E-02  0.1326431E+00
         -1   -1    0    0    0  501 -0.00000000000E+00  0.00000000000E+00  0.29113841524E+02  0.29113841960E+02  0.50400000000E-02 0.  1.
          2   -1    0    0  501    0  0.00000000000E+00 -0.00000000000E+00 -0.56242725557E+02  0.56242725614E+02  0.25500000000E-02 0. -1.
         24    2    1    2    0    0  0.00000000000E+00  0.00000000000E+00 -0.27128884033E+02  0.85356567575E+02  0.80930632515E+02 0.  0.
         66    2    3    3    0    0  0.38997121996E+01 -0.39140987971E+02 -0.23478472300E+02  0.45852626449E+02  0.19999990380E+01 0.  0.
        -13    1    3    3    0    0 -0.38997121996E+01  0.39140987971E+02 -0.36504117330E+01  0.39503941126E+02  0.10566000000E+00 0.  1.
         13    1    4    4    0    0  0.18053472369E+01 -0.19039557826E+02 -0.11227495045E+02  0.22177282293E+02  0.10566000000E+00 0. -1.
        -13    1    4    4    0    0  0.12273428270E+01 -0.98670685375E+01 -0.52425235336E+01  0.11241024374E+02  0.10566000000E+00 0.  1.
        -14    1    4    4    0    0  0.86702213576E+00 -0.10234361608E+02 -0.70084537207E+01  0.12434319783E+02  0.00000000000E+00 0.  1.
<mgrwt>
<rscale>  0 0.80930633E+02</rscale>
<asrwt>0</asrwt>
<pdfrwt beam="1">  1        2 0.86527270E-02 0.80930633E+02</pdfrwt>
<pdfrwt beam="2">  1       -1 0.44790526E-02 0.80930633E+02</pdfrwt>
<totfact> 0.14861287E+05</totfact>
</mgrwt>
</event>
<event>
 8    1  0.2603554E-020  0.7874580E+02  0.7818608E-02  0.1332649E+00
          2   -1    0    0  501    0  0.00000000000E+00  0.00000000000E+00  0.16634590767E+04  0.16634590767E+04  0.25500000000E-02 0. -1.
         -1   -1    0    0    0  501 -0.00000000000E+00 -0.00000000000E+00 -0.93192187556E+00  0.93193550407E+00  0.50400000000E-02 0.  1.
         24    2    1    2    0    0  0.17763568394E-14 -0.11102230246E-15  0.16625271548E+04  0.16643910122E+04  0.78745799784E+02 0.  0.
         66    2    3    3    0    0 -0.13022348934E+02  0.37652287525E+00  0.16165474821E+04  0.16166012141E+04  0.19999994088E+01 0.  0.
        -13    1    3    3    0    0  0.13022348934E+02 -0.37652287525E+00  0.45979672724E+02  0.47789798169E+02  0.10566000000E+00 0.  1.
         13    1    4    4    0    0 -0.51233083574E+01  0.22600151769E+00  0.72355656205E+03  0.72357474321E+03  0.10566000000E+00 0. -1.
        -13    1    4    4    0    0 -0.61857753183E+01  0.34804162729E+00  0.65539360129E+03  0.65542289305E+03  0.10566000000E+00 0.  1.
        -14    1    4    4    0    0 -0.17132652587E+01 -0.19752026973E+00  0.23759731878E+03  0.23760357780E+03  0.00000000000E+00 0.  1.
<mgrwt>
<rscale>  0 0.78745800E+02</rscale>
<asrwt>0</asrwt>
<pdfrwt beam="1">  1        2 0.25591509E+00 0.78745800E+02</pdfrwt>
<pdfrwt beam="2">  1       -1 0.14337459E-03 0.78745800E+02</pdfrwt>
<totfact> 0.33048864E+05</totfact>
</mgrwt>
</event>
<event>
 8    1  0.2603554E-020  0.8006366E+02  0.7818608E-02  0.1328871E+00
         -1   -1    0    0    0  501 -0.00000000000E+00  0.00000000000E+00  0.34491603401E+02  0.34491603769E+02  0.50400000000E-02 0.  1.
          2   -1    0    0  501    0  0.00000000000E+00 -0.00000000000E+00 -0.46461956440E+02  0.46461956510E+02  0.25500000000E-02 0. -1.
         24    2    1    2    0    0  0.66613381478E-15  0.35527136788E-14 -0.11970353040E+02  0.80953560279E+02  0.80063659484E+02 0.  0.
         66    2    3    3    0    0 -0.17209652640E+01 -0.25236908618E+02 -0.37328230360E+02  0.45136017312E+02  0.19999997341E+01 0.  0.
        -13    1    3    3    0    0  0.17209652640E+01  0.25236908618E+02  0.25357877320E+02  0.35817542968E+02  0.10566000000E+00 0.  1.
         13    1    4    4    0    0  0.17781677739E+00 -0.84941118441E+01 -0.11682809797E+02  0.14445787055E+02  0.10566000000E+00 0. -1.
        -13    1    4    4    0    0 -0.30978431347E+00 -0.33652805214E+01 -0.54669687115E+01  0.64280627126E+01  0.10566000000E+00 0.  1.
         14    1    4    4    0    0 -0.15889977279E+01 -0.13377516252E+02 -0.20178451851E+02  0.24262167545E+02  0.00000000000E+00 0. -1.
<mgrwt>
<rscale>  0 0.80063659E+02</rscale>
<asrwt>0</asrwt>
<pdfrwt beam="1">  1        2 0.71479933E-02 0.80063659E+02</pdfrwt>
<pdfrwt beam="2">  1       -1 0.53064006E-02 0.80063659E+02</pdfrwt>
<totfact> 0.14676576E+05</totfact>
</mgrwt>
</event>
<event>
 8    1  0.2603554E-020  0.8003149E+02  0.7818608E-02  0.1328962E+00
         -1   -1    0    0    0  501 -0.00000000000E+00  0.00000000000E+00  0.30256723033E+01  0.30256765010E+01  0.50400000000E-02 0.  1.
          2   -1    0    0  501    0  0.00000000000E+00 -0.00000000000E+00 -0.52922408056E+03  0.52922408057E+03  0.25500000000E-02 0. -1.
         24    2    1    2    0    0  0.17763568394E-14 -0.35527136788E-14 -0.52619840826E+03  0.53224975707E+03  0.80031487842E+02 0.  0.
         66    2    3    3    0    0 -0.15220896189E+02  0.26603087670E+02 -0.43409881397E+03  0.43518407628E+03  0.20000013615E+01 0.  0.
        -13    1    3    3    0    0  0.15220896189E+02 -0.26603087670E+02 -0.92099594291E+02  0.97065680789E+02  0.10566000000E+00 0.  1.
         13    1    4    4    0    0 -0.67066235796E+01  0.10475557335E+02 -0.17428688798E+03  0.17473021086E+03  0.10566000000E+00 0. -1.
        -13    1    4    4    0    0 -0.79733218420E+01  0.15271103725E+02 -0.24863711175E+03  0.24923323408E+03  0.10566000000E+00 0.  1.
        -14    1    4    4    0    0 -0.54095076750E+00  0.85642660956E+00 -0.11174814238E+02  0.11220631334E+02  0.00000000000E+00 0.  1.
<mgrwt>
<rscale>  0 0.80031488E+02</rscale>
<asrwt>0</asrwt>
<pdfrwt beam="1">  1        2 0.81419016E-01 0.80031488E+02</pdfrwt>
<pdfrwt beam="2">  1       -1 0.46548879E-03 0.80031488E+02</pdfrwt>
<totfact> 0.30966261E+05</totfact>
</mgrwt>
</event>
<event>
 8    1  0.2603554E-020  0.8017958E+02  0.7818608E-02  0.1328543E+00
         -1   -1    0    0    0  501 -0.00000000000E+00  0.00000000000E+00  0.60987132106E+01  0.60987152932E+01  0.50400000000E-02 0.  1.
          2   -1    0    0  501    0  0.00000000000E+00 -0.00000000000E+00 -0.26352954812E+03  0.26352954814E+03  0.25500000000E-02 0. -1.
         24    2    1    2    0    0  0.00000000000E+00  0.00000000000E+00 -0.25743083491E+03  0.26962826343E+03  0.80179583909E+02 0.  0.
         66    2    3    3    0    0  0.74944089296E+01 -0.33073770622E+02 -0.57052703501E+02  0.66400688576E+02  0.19999995599E+01 0.  0.
        -13    1    3    3    0    0 -0.74944089296E+01  0.33073770622E+02 -0.20037813141E+03  0.20322757485E+03  0.10566000000E+00 0.  1.
         13    1    4    4    0    0  0.26099219595E+01 -0.10678256632E+02 -0.18307827956E+02  0.21354732165E+02  0.10566000000E+00 0. -1.
        -13    1    4    4    0    0  0.35011902628E+01 -0.18055380436E+02 -0.30098173147E+02  0.35272741413E+02  0.10566000000E+00 0.  1.
         14    1    4    4    0    0  0.13832967073E+01 -0.43401335547E+01 -0.86467023974E+01  0.97732149982E+01  0.00000000000E+00 0. -1.
<mgrwt>
<rscale>  0 0.80179584E+02</rscale>
<asrwt>0</asrwt>
<pdfrwt beam="1">  1        2 0.40542999E-01 0.80179584E+02</pdfrwt>
<pdfrwt beam="2">  1       -1 0.93826394E-03 0.80179584E+02</pdfrwt>
<totfact> 0.24182621E+05</totfact>
</mgrwt>
</event>
<event>
 8    1  0.2603554E-020  0.7633906E+02  0.7818608E-02  0.1339774E+00
          2   -1    0    0  501    0  0.00000000000E+00  0.00000000000E+00  0.40277605484E+03  0.40277605485E+03  0.25500000000E-02 0. -1.
         -1   -1    0    0    0  501 -0.00000000000E+00 -0.00000000000E+00 -0.36171769176E+01  0.36171804289E+01  0.50400000000E-02 0.  1.
         24    2    1    2    0    0  0.00000000000E+00  0.00000000000E+00  0.39915887793E+03  0.40639323528E+03  0.76339058513E+02 0.  0.
         66    2    3    3    0    0  0.23595833738E+02  0.18104351978E+02  0.32685561037E+03  0.32821200612E+03  0.19999995623E+01 0.  0.
        -13    1    3    3    0    0 -0.23595833738E+02 -0.18104351978E+02  0.72303267555E+02  0.78181229163E+02  0.10566000000E+00 0.  1.
         13    1    4    4    0    0  0.10251011280E+02  0.70808046021E+01  0.13956279016E+03  0.14011782395E+03  0.10566000000E+00 0. -1.
        -13    1    4    4    0    0  0.37166409293E+01  0.34509035523E+01  0.50633642006E+02  0.50887120394E+02  0.10566000000E+00 0.  1.
        -14    1    4    4    0    0  0.96281815286E+01  0.75726438231E+01  0.13665917820E+03  0.13720706178E+03  0.00000000000E+00 0.  1.
<mgrwt>
<rscale>  0 0.76339059E+02</rscale>
<asrwt>0</asrwt>
<pdfrwt beam="1">  1        2 0.61965572E-01 0.76339059E+02</pdfrwt>
<pdfrwt beam="2">  1       -1 0.55648881E-03 0.76339059E+02</pdfrwt>
<totfact> 0.31999018E+05</totfact>
</mgrwt>
</event>
<event>
 8    1  0.2603554E-020  0.7993464E+02  0.7818608E-02  0.1329237E+00
         -1   -1    0    0    0  501 -0.00000000000E+00  0.00000000000E+00  0.34870107565E+01  0.34870143988E+01  0.50400000000E-02 0.  1.
          2   -1    0    0  501    0  0.00000000000E+00 -0.00000000000E+00 -0.45809599207E+03  0.45809599208E+03  0.25500000000E-02 0. -1.
         24    2    1    2    0    0  0.00000000000E+00  0.00000000000E+00 -0.45460898132E+03  0.46158300648E+03  0.79934635650E+02 0.  0.
         66    2    3    3    0    0 -0.38025751081E+02  0.10262520918E+02 -0.26579556478E+03  0.26870533926E+03  0.20000032780E+01 0.  0.
        -13    1    3    3    0    0  0.38025751081E+02 -0.10262520918E+02 -0.18881341654E+03  0.19287766722E+03  0.10566000000E+00 0.  1.
         13    1    4    4    0    0 -0.69969652695E+01  0.21035900982E+01 -0.54278876312E+02  0.54768514605E+02  0.10566000000E+00 0.  1.
        -13    1    4    4    0    0 -0.15523769692E+02  0.38980301611E+01 -0.10681839225E+03  0.10801093533E+03  0.10566000000E+00 0. -1.
        -14    1    4    4    0    0 -0.15505016119E+02  0.42609006584E+01 -0.10469829622E+03  0.10592588933E+03  0.00000000000E+00 0.  1.
<mgrwt>
<rscale>  0 0.79934636E+02</rscale>
<asrwt>0</asrwt>
<pdfrwt beam="1">  1        2 0.70476259E-01 0.79934636E+02</pdfrwt>
<pdfrwt beam="2">  1       -1 0.53646384E-03 0.79934636E+02</pdfrwt>
<totfact> 0.29657573E+05</totfact>
</mgrwt>
</event>
<event>
 8    1  0.2603554E-020  0.8063012E+02  0.7818608E-02  0.1327273E+00
         -1   -1    0    0    0  501 -0.00000000000E+00  0.00000000000E+00  0.48681320258E+01  0.48681346348E+01  0.50400000000E-02 0.  1.
          2   -1    0    0  501    0  0.00000000000E+00 -0.00000000000E+00 -0.33386596187E+03  0.33386596188E+03  0.25500000000E-02 0. -1.
         24    2    1    2    0    0  0.71054273576E-14 -0.17763568394E-14 -0.32899782984E+03  0.33873409651E+03  0.80630119058E+02 0.  0.
         66    2    3    3    0    0  0.37546733022E+02 -0.12288013528E+02 -0.13137495568E+03  0.13720106202E+03  0.20000003532E+01 0.  0.
        -13    1    3    3    0    0 -0.37546733022E+02  0.12288013528E+02 -0.19762287416E+03  0.20153303449E+03  0.10566000000E+00 0.  1.
         13    1    4    4    0    0  0.14806617772E+02 -0.45683128415E+01 -0.51055189116E+02  0.53354933340E+02  0.10566000000E+00 0. -1.
        -13    1    4    4    0    0  0.59251997753E+01 -0.13495650598E+01 -0.20706180934E+02  0.21579768560E+02  0.10566000000E+00 0.  1.
        -14    1    4    4    0    0  0.16814915475E+02 -0.63701356265E+01 -0.59613585632E+02  0.62266360117E+02  0.00000000000E+00 0.  1.
<mgrwt>
<rscale>  0 0.80630119E+02</rscale>
<asrwt>0</asrwt>
<pdfrwt beam="1">  1        2 0.51363976E-01 0.80630119E+02</pdfrwt>
<pdfrwt beam="2">  1       -1 0.74894385E-03 0.80630119E+02</pdfrwt>
<totfact> 0.25958902E+05</totfact>
</mgrwt>
</event>
<event>
 8    1  0.2603554E-020  0.7996806E+02  0.7818608E-02  0.1329142E+00
         -1   -1    0    0    0  501 -0.00000000000E+00  0.00000000000E+00  0.70670064281E+02  0.70670064460E+02  0.50400000000E-02 0.  1.
          2   -1    0    0  501    0  0.00000000000E+00 -0.00000000000E+00 -0.22622345684E+02  0.22622345828E+02  0.25500000000E-02 0. -1.
         24    2    1    2    0    0  0.44408920985E-15 -0.71054273576E-14  0.48047718597E+02  0.93292410288E+02  0.79968059593E+02 0.  0.
         66    2    3    3    0    0 -0.35437550437E+01  0.36192950254E+02  0.47197349051E+01  0.36725519065E+02  0.20000012751E+01 0.  0.
        -13    1    3    3    0    0  0.35437550437E+01 -0.36192950254E+02  0.43327983692E+02  0.56566891224E+02  0.10566000000E+00 0.  1.
         13    1    4    4    0    0 -0.13435171489E+01  0.74261649326E+01  0.14328515283E+01  0.76822647360E+01  0.10566000000E+00 0. -1.
        -13    1    4    4    0    0 -0.14121300747E+00  0.33418499260E+01  0.27217948462E+00  0.33575508557E+01  0.10566000000E+00 0.  1.
         14    1    4    4    0    0 -0.20590248873E+01  0.25424935395E+02  0.30147038922E+01  0.25685703473E+02  0.00000000000E+00 0. -1.
<mgrwt>
<rscale>  0 0.79968060E+02</rscale>
<asrwt>0</asrwt>
<pdfrwt beam="1">  1        2 0.34803609E-02 0.79968060E+02</pdfrwt>
<pdfrwt beam="2">  1       -1 0.10872318E-01 0.79968060E+02</pdfrwt>
<totfact> 0.12740574E+05</totfact>
</mgrwt>
</event>
<event>
 8    1  0.2603554E-020  0.8081534E+02  0.7818608E-02  0.1326753E+00
          2   -1    0    0  501    0  0.00000000000E+00  0.00000000000E+00  0.85445466232E+02  0.85445466270E+02  0.25500000000E-02 0. -1.
         -1   -1    0    0    0  501 -0.00000000000E+00 -0.00000000000E+00 -0.19109025114E+02  0.19109025779E+02  0.50400000000E-02 0.  1.
         24    2    1    2    0    0  0.00000000000E+00  0.00000000000E+00  0.66336441117E+02  0.10455449205E+03  0.80815335101E+02 0.  0.
         66    2    3    3    0    0  0.29257581101E+02  0.19327630647E+02  0.72744168202E+01  0.35867541058E+02  0.20000008036E+01 0.  0.
        -13    1    3    3    0    0 -0.29257581101E+02 -0.19327630647E+02  0.59062024297E+02  0.68686950991E+02  0.10566000000E+00 0.  1.
         13    1    4    4    0    0  0.12658057264E+02  0.92143430083E+01  0.31083341029E+01  0.15962563569E+02  0.10566000000E+00 0. -1.
        -13    1    4    4    0    0  0.12689106816E+01  0.98151466167E+00  0.15231566427E+00  0.16148899177E+01  0.10566000000E+00 0.  1.
         14    1    4    4    0    0  0.15330613156E+02  0.91317729766E+01  0.40137670530E+01  0.18290087572E+02  0.00000000000E+00 0. -1.
<mgrwt>
<rscale>  0 0.80815335E+02</rscale>
<asrwt>0</asrwt>
<pdfrwt beam="1">  1        2 0.13145456E-01 0.80815335E+02</pdfrwt>
<pdfrwt beam="2">  1       -1 0.29398501E-02 0.80815335E+02</pdfrwt>
<totfact> 0.16526834E+05</totfact>
</mgrwt>
</event>
<event>
 8    1  0.2603554E-020  0.8004749E+02  0.7818608E-02  0.1328917E+00
          2   -1    0    0  501    0  0.00000000000E+00  0.00000000000E+00  0.13095893174E+02  0.13095893422E+02  0.25500000000E-02 0. -1.
         -1   -1    0    0    0  501 -0.00000000000E+00 -0.00000000000E+00 -0.12232079113E+03  0.12232079123E+03  0.50400000000E-02 0.  1.
         24    2    1    2    0    0  0.00000000000E+00  0.00000000000E+00 -0.10922489796E+03  0.13541668466E+03  0.80047486842E+02 0.  0.
         66    2    3    3    0    0  0.35625582333E+02 -0.30351045198E+01 -0.24313422157E+02  0.43284367511E+02  0.19999994615E+01 0.  0.
        -13    1    3    3    0    0 -0.35625582333E+02  0.30351045198E+01 -0.84911475799E+02  0.92132317144E+02  0.10566000000E+00 0.  1.
         13    1    4    4    0    0  0.23341655386E+02 -0.23565398979E+01 -0.16657591685E+02  0.28772776738E+02  0.10566000000E+00 0. -1.
        -13    1    4    4    0    0  0.93860342810E+01 -0.28302028413E+00 -0.55596826460E+01  0.10913247691E+02  0.10566000000E+00 0.  1.
         14    1    4    4    0    0  0.28978926666E+01 -0.39554433779E+00 -0.20961478259E+01  0.35983430823E+01  0.00000000000E+00 0. -1.
<mgrwt>
<rscale>  0 0.80047487E+02</rscale>
<asrwt>0</asrwt>
<pdfrwt beam="1">  1        2 0.20147529E-02 0.80047487E+02</pdfrwt>
<pdfrwt beam="2">  1       -1 0.18818583E-01 0.80047487E+02</pdfrwt>
<totfact> 0.11317536E+05</totfact>
</mgrwt>
</event>
<event>
 8    1  0.2603554E-020  0.7878228E+02  0.7818608E-02  0.1332543E+00
         -1   -1    0    0    0  501 -0.00000000000E+00  0.00000000000E+00  0.22776907607E+01  0.22776963369E+01  0.50400000000E-02 0.  1.
          2   -1    0    0  501    0  0.00000000000E+00 -0.00000000000E+00 -0.68124269675E+03  0.68124269676E+03  0.25500000000E-02 0. -1.
         24    2    1    2    0    0  0.17763568394E-14  0.00000000000E+00 -0.67896500599E+03  0.68352039310E+03  0.78782284900E+02 0.  0.
         66    2    3    3    0    0  0.14841082698E+02 -0.14848396891E+02 -0.62861821348E+03  0.62897185227E+03  0.20000006526E+01 0.  0.
        -13    1    3    3    0    0 -0.14841082698E+02  0.14848396891E+02 -0.50346792516E+02  0.54548540829E+02  0.10566000000E+00 0.  1.
         13    1    4    4    0    0  0.11194628616E+02 -0.10952382182E+02 -0.46760504995E+03  0.46786725499E+03  0.10566000000E+00 0. -1.
        -13    1    4    4    0    0  0.33149179782E+01 -0.33888736326E+01 -0.14984902280E+03  0.14992402724E+03  0.10566000000E+00 0.  1.
        -14    1    4    4    0    0  0.33153610312E+00 -0.50714107599E+00 -0.11164140722E+02  0.11180570036E+02  0.00000000000E+00 0.  1.
<mgrwt>
<rscale>  0 0.78782285E+02</rscale>
<asrwt>0</asrwt>
<pdfrwt beam="1">  1        2 0.10480641E+00 0.78782285E+02</pdfrwt>
<pdfrwt beam="2">  1       -1 0.35041494E-03 0.78782285E+02</pdfrwt>
<totfact> 0.34591266E+05</totfact>
</mgrwt>
</event>
<event>
 8    1  0.2603554E-020  0.7735471E+02  0.7818608E-02  0.1336731E+00
          2   -1    0    0  501    0  0.00000000000E+00  0.00000000000E+00  0.36848881457E+03  0.36848881458E+03  0.25500000000E-02 0. -1.
         -1   -1    0    0    0  501 -0.00000000000E+00 -0.00000000000E+00 -0.40596539696E+01  0.40596570981E+01  0.50400000000E-02 0.  1.
         24    2    1    2    0    0 -0.13877787808E-16  0.35527136788E-14  0.36442916060E+03  0.37254847167E+03  0.77354706727E+02 0.  0.
         66    2    3    3    0    0  0.10848759087E+00  0.17612239351E+02  0.34803599363E+03  0.34848709532E+03  0.20000005394E+01 0.  0.
        -13    1    3    3    0    0 -0.10848759087E+00 -0.17612239351E+02  0.16393166969E+02  0.24061376350E+02  0.10566000000E+00 0.  1.
         13    1    4    4    0    0  0.28387031879E+00  0.10876825759E+02  0.20732992753E+03  0.20761525940E+03  0.10566000000E+00 0.  1.
        -13    1    4    4    0    0  0.45801293468E+00  0.20012691775E+01  0.42442786267E+02  0.42492541984E+02  0.10566000000E+00 0. -1.
        -14    1    4    4    0    0 -0.63339566259E+00  0.47341444150E+01  0.98263279828E+02  0.98379293939E+02  0.00000000000E+00 0.  1.
<mgrwt>
<rscale>  0 0.77354707E+02</rscale>
<asrwt>0</asrwt>
<pdfrwt beam="1">  1        2 0.56690578E-01 0.77354707E+02</pdfrwt>
<pdfrwt beam="2">  1       -1 0.62456249E-03 0.77354707E+02</pdfrwt>
<totfact> 0.29965512E+05</totfact>
</mgrwt>
</event>
<event>
 8    1  0.2603554E-020  0.7947018E+02  0.7818608E-02  0.1330562E+00
          2   -1    0    0  501    0  0.00000000000E+00  0.00000000000E+00  0.17889644897E+02  0.17889645079E+02  0.25500000000E-02 0. -1.
         -1   -1    0    0    0  501 -0.00000000000E+00 -0.00000000000E+00 -0.88256502102E+02  0.88256502246E+02  0.50400000000E-02 0.  1.
         24    2    1    2    0    0  0.00000000000E+00  0.17763568394E-14 -0.70366857205E+02  0.10614614733E+03  0.79470183082E+02 0.  0.
         66    2    3    3    0    0 -0.33862158715E+02  0.96161776445E+01 -0.10658477183E+02  0.36833677493E+02  0.19999991303E+01 0.  0.
        -13    1    3    3    0    0  0.33862158715E+02 -0.96161776445E+01 -0.59708380022E+02  0.69312469832E+02  0.10566000000E+00 0.  1.
         13    1    4    4    0    0 -0.52605694050E+01  0.15870472771E+01 -0.12288010855E+01  0.56314674525E+01  0.10566000000E+00 0. -1.
        -13    1    4    4    0    0 -0.14389823059E+01  0.64130926269E+00 -0.72687385254E+00  0.17382339544E+01  0.10566000000E+00 0.  1.
         14    1    4    4    0    0 -0.27162607004E+02  0.73878211047E+01 -0.87028022451E+01  0.29463976087E+02  0.00000000000E+00 0. -1.
<mgrwt>
<rscale>  0 0.79470183E+02</rscale>
<asrwt>0</asrwt>
<pdfrwt beam="1">  1        2 0.27522531E-02 0.79470183E+02</pdfrwt>
<pdfrwt beam="2">  1       -1 0.13577923E-01 0.79470183E+02</pdfrwt>
<totfact> 0.12370885E+05</totfact>
</mgrwt>
</event>
<event>
 8    1  0.2603554E-020  0.8034783E+02  0.7818608E-02  0.1328067E+00
          2   -1    0    0  501    0  0.00000000000E+00  0.00000000000E+00  0.16844964734E+03  0.16844964736E+03  0.25500000000E-02 0. -1.
         -1   -1    0    0    0  501 -0.00000000000E+00 -0.00000000000E+00 -0.95811622895E+01  0.95811636151E+01  0.50400000000E-02 0.  1.
         24    2    1    2    0    0  0.00000000000E+00  0.17763568394E-14  0.15886848505E+03  0.17803081097E+03  0.80347832042E+02 0.  0.
         66    2    3    3    0    0 -0.34057367532E+02  0.14017395953E+02  0.11490395521E+03  0.12067854231E+03  0.19999947198E+01 0.  0.
        -13    1    3    3    0    0  0.34057367532E+02 -0.14017395953E+02  0.43964529833E+02  0.57352268656E+02  0.10566000000E+00 0.  1.
         13    1    4    4    0    0 -0.60173221820E+01  0.27988858091E+01  0.21849373322E+02  0.22835240454E+02  0.10566000000E+00 0. -1.
        -13    1    4    4    0    0 -0.87804832107E+01  0.40653247799E+01  0.31171927928E+02  0.32639301552E+02  0.10566000000E+00 0.  1.
         14    1    4    4    0    0 -0.19259562140E+02  0.71531853638E+01  0.61882653964E+02  0.65204000309E+02  0.00000000000E+00 0. -1.
<mgrwt>
<rscale>  0 0.80347832E+02</rscale>
<asrwt>0</asrwt>
<pdfrwt beam="1">  1        2 0.25915328E-01 0.80347832E+02</pdfrwt>
<pdfrwt beam="2">  1       -1 0.14740252E-02 0.80347832E+02</pdfrwt>
<totfact> 0.20568082E+05</totfact>
</mgrwt>
</event>
<event>
 8    1  0.2603554E-020  0.8097708E+02  0.7818608E-02  0.1326301E+00
          2   -1    0    0  501    0  0.00000000000E+00  0.00000000000E+00  0.39063279978E+02  0.39063280061E+02  0.25500000000E-02 0. -1.
         -1   -1    0    0    0  501 -0.00000000000E+00 -0.00000000000E+00 -0.41965800635E+02  0.41965800937E+02  0.50400000000E-02 0.  1.
         24    2    1    2    0    0 -0.35527136788E-14  0.35527136788E-14 -0.29025206572E+01  0.81029080998E+02  0.80977079110E+02 0.  0.
         66    2    3    3    0    0  0.21827358990E+02 -0.24219478295E+02  0.22527806335E+02  0.39680206475E+02  0.19999995711E+01 0.  0.
        -13    1    3    3    0    0 -0.21827358990E+02  0.24219478295E+02 -0.25430326992E+02  0.41348874523E+02  0.10566000000E+00 0.  1.
         13    1    4    4    0    0  0.18911305288E+02 -0.20269553722E+02  0.18563386646E+02  0.33363194745E+02  0.10566000000E+00 0. -1.
        -13    1    4    4    0    0  0.18611958307E+01 -0.23763696334E+01  0.23214459728E+01  0.38093907643E+01  0.10566000000E+00 0.  1.
         14    1    4    4    0    0  0.10548578713E+01 -0.15735549398E+01  0.16429737163E+01  0.25076209661E+01  0.00000000000E+00 0. -1.
<mgrwt>
<rscale>  0 0.80977079E+02</rscale>
<asrwt>0</asrwt>
<pdfrwt beam="1">  1        2 0.60097354E-02 0.80977079E+02</pdfrwt>
<pdfrwt beam="2">  1       -1 0.64562770E-02 0.80977079E+02</pdfrwt>
<totfact> 0.13717005E+05</totfact>
</mgrwt>
</event>
<event>
 8    1  0.2603554E-020  0.8001734E+02  0.7818608E-02  0.1329002E+00
          2   -1    0    0  501    0  0.00000000000E+00  0.00000000000E+00  0.27572355676E+03  0.27572355677E+03  0.25500000000E-02 0. -1.
         -1   -1    0    0    0  501 -0.00000000000E+00 -0.00000000000E+00 -0.58054284795E+01  0.58054306673E+01  0.50400000000E-02 0.  1.
         24    2    1    2    0    0 -0.35527136788E-14 -0.35527136788E-14  0.26991812828E+03  0.28152898744E+03  0.80017340584E+02 0.  0.
         66    2    3    3    0    0  0.24013711796E+02  0.28831864803E+02  0.18363637311E+03  0.18744133032E+03  0.20000005635E+01 0.  0.
        -13    1    3    3    0    0 -0.24013711796E+02 -0.28831864803E+02  0.86281755177E+02  0.94087657122E+02  0.10566000000E+00 0.  1.
         13    1    4    4    0    0  0.10499034271E+02  0.13097803340E+02  0.81617642219E+02  0.83326063500E+02  0.10566000000E+00 0. -1.
        -13    1    4    4    0    0  0.10827608903E+02  0.12769386695E+02  0.79496437241E+02  0.81240316649E+02  0.10566000000E+00 0.  1.
         14    1    4    4    0    0  0.26870686215E+01  0.29646747683E+01  0.22522293645E+02  0.22874950170E+02  0.00000000000E+00 0. -1.
<mgrwt>
<rscale>  0 0.80017341E+02</rscale>
<asrwt>0</asrwt>
<pdfrwt beam="1">  1        2 0.42419015E-01 0.80017341E+02</pdfrwt>
<pdfrwt beam="2">  1       -1 0.89314289E-03 0.80017341E+02</pdfrwt>
<totfact> 0.24712880E+05</totfact>
</mgrwt>
</event>
<event>
 8    1  0.2603554E-020  0.7865161E+02  0.7818608E-02  0.1332922E+00
         -1   -1    0    0    0  501 -0.00000000000E+00  0.00000000000E+00  0.12059935379E+02  0.12059936432E+02  0.50400000000E-02 0.  1.
          2   -1    0    0  501    0  0.00000000000E+00 -0.00000000000E+00 -0.12823607476E+03  0.12823607478E+03  0.25500000000E-02 0. -1.
         24    2    1    2    0    0  0.00000000000E+00 -0.71054273576E-14 -0.11617613938E+03  0.14029601122E+03  0.78651607752E+02 0.  0.
         66    2    3    3    0    0  0.98128641311E+01 -0.34820792292E+02 -0.85512802891E+02  0.92872058967E+02  0.20000000479E+01 0.  0.
        -13    1    3    3    0    0 -0.98128641311E+01  0.34820792292E+02 -0.30663336489E+02  0.47423952250E+02  0.10566000000E+00 0.  1.
         13    1    4    4    0    0  0.30465174276E+01 -0.12366733567E+02 -0.28388311942E+02  0.31114703703E+02  0.10566000000E+00 0.  1.
        -13    1    4    4    0    0  0.35342146730E+01 -0.12857877689E+02 -0.33229829484E+02  0.35805703786E+02  0.10566000000E+00 0. -1.
         14    1    4    4    0    0  0.32321320305E+01 -0.95961810363E+01 -0.23894661465E+02  0.25951651478E+02  0.00000000000E+00 0. -1.
<mgrwt>
<rscale>  0 0.78651608E+02</rscale>
<asrwt>0</asrwt>
<pdfrwt beam="1">  1        2 0.19728626E-01 0.78651608E+02</pdfrwt>
<pdfrwt beam="2">  1       -1 0.18553749E-02 0.78651608E+02</pdfrwt>
<totfact> 0.19948168E+05</totfact>
</mgrwt>
</event>
<event>
 8    1  0.2603554E-020  0.7850140E+02  0.7818608E-02  0.1333359E+00
         -1   -1    0    0    0  501 -0.00000000000E+00  0.00000000000E+00  0.14896494173E+03  0.14896494182E+03  0.50400000000E-02 0.  1.
          2   -1    0    0  501    0  0.00000000000E+00 -0.00000000000E+00 -0.10342148743E+02  0.10342149058E+02  0.25500000000E-02 0. -1.
         24    2    1    2    0    0  0.88817841970E-15  0.00000000000E+00  0.13862279299E+03  0.15930709088E+03  0.78501404236E+02 0.  0.
         66    2    3    3    0    0  0.42558471014E+01 -0.24499167401E+02  0.77931811002E+01  0.26135322287E+02  0.19999903668E+01 0.  0.
        -13    1    3    3    0    0 -0.42558471014E+01  0.24499167401E+02  0.13082961189E+03  0.13317176859E+03  0.10566000000E+00 0.  1.
         13    1    4    4    0    0  0.17293347201E+01 -0.90263748020E+01  0.22151582400E+01  0.94543180983E+01  0.10566000000E+00 0. -1.
        -13    1    4    4    0    0 -0.13424460561E-01 -0.13591400959E+00  0.91815844053E-01  0.19556845084E+00  0.10566000000E+00 0. -1.
         14    1    4    4    0    0  0.25399368419E+01 -0.15336878590E+02  0.54862070162E+01  0.16485435738E+02  0.00000000000E+00 0. -1.
<mgrwt>
<rscale>  0 0.78501404E+02</rscale>
<asrwt>0</asrwt>
<pdfrwt beam="1">  1        2 0.15910999E-02 0.78501404E+02</pdfrwt>
<pdfrwt beam="2">  1       -1 0.22917683E-01 0.78501404E+02</pdfrwt>
<totfact> 0.11335085E+05</totfact>
</mgrwt>
</event>
<event>
 8    1  0.2603554E-020  0.8188537E+02  0.7818608E-02  0.1323785E+00
         -1   -1    0    0    0  501 -0.00000000000E+00  0.00000000000E+00  0.28672663071E+02  0.28672663514E+02  0.50400000000E-02 0.  1.
          2   -1    0    0  501    0  0.00000000000E+00 -0.00000000000E+00 -0.58463474255E+02  0.58463474311E+02  0.25500000000E-02 0. -1.
         24    2    1    2    0    0  0.00000000000E+00  0.00000000000E+00 -0.29790811184E+02  0.87136137825E+02  0.81885371612E+02 0.  0.
         66    2    3    3    0    0 -0.26942408162E+01  0.40806545719E+02 -0.13450882324E+02  0.43097092123E+02  0.20000017621E+01 0.  0.
        -13    1    3    3    0    0  0.26942408162E+01 -0.40806545719E+02 -0.16339928861E+02  0.44039045702E+02  0.10566000000E+00 0.  1.
         13    1    4    4    0    0 -0.86864416639E+00  0.12767918061E+02 -0.34596039695E+01  0.13257235684E+02  0.10566000000E+00 0. -1.
        -13    1    4    4    0    0 -0.62591188156E+00  0.14922427314E+02 -0.57176273082E+01  0.15992905574E+02  0.10566000000E+00 0.  1.
        -14    1    4    4    0    0 -0.11996847683E+01  0.13116200344E+02 -0.42736510460E+01  0.13846950866E+02  0.00000000000E+00 0.  1.
<mgrwt>
<rscale>  0 0.81885372E+02</rscale>
<asrwt>0</asrwt>
<pdfrwt beam="1">  1        2 0.89943807E-02 0.81885372E+02</pdfrwt>
<pdfrwt beam="2">  1       -1 0.44111790E-02 0.81885372E+02</pdfrwt>
<totfact> 0.14520973E+05</totfact>
</mgrwt>
</event>
<event>
 8    1  0.2603554E-020  0.7901123E+02  0.7818608E-02  0.1331881E+00
         -1   -1    0    0    0  501 -0.00000000000E+00  0.00000000000E+00  0.17001134869E+01  0.17001209574E+01  0.50400000000E-02 0.  1.
          2   -1    0    0  501    0  0.00000000000E+00 -0.00000000000E+00 -0.91799172836E+03  0.91799172836E+03  0.25500000000E-02 0. -1.
         24    2    1    2    0    0  0.35527136788E-14  0.00000000000E+00 -0.91629161487E+03  0.91969184932E+03  0.79011228447E+02 0.  0.
         66    2    3    3    0    0 -0.31545702609E+02  0.20227235498E+01 -0.73376015875E+03  0.73444345823E+03  0.20000007443E+01 0.  0.
        -13    1    3    3    0    0  0.31545702609E+02 -0.20227235498E+01 -0.18253145612E+03  0.18524839109E+03  0.10566000000E+00 0.  1.
         13    1    4    4    0    0 -0.14390587616E+02  0.13969082578E+01 -0.31869702842E+03  0.31902483830E+03  0.10566000000E+00 0. -1.
        -13    1    4    4    0    0 -0.32220229052E+01 -0.43860867812E-01 -0.83297718372E+02  0.83360088804E+02  0.10566000000E+00 0.  1.
         14    1    4    4    0    0 -0.13933092088E+02  0.66967615977E+00 -0.33176541196E+03  0.33205853113E+03  0.00000000000E+00 0. -1.
<mgrwt>
<rscale>  0 0.79011228E+02</rscale>
<asrwt>0</asrwt>
<pdfrwt beam="1">  1        2 0.14122910E+00 0.79011228E+02</pdfrwt>
<pdfrwt beam="2">  1       -1 0.26155723E-03 0.79011228E+02</pdfrwt>
<totfact> 0.36167186E+05</totfact>
</mgrwt>
</event>
<event>
 8    1  0.2603554E-020  0.7423650E+02  0.7818608E-02  0.1346252E+00
          2   -1    0    0  501    0  0.00000000000E+00  0.00000000000E+00  0.22628088002E+03  0.22628088003E+03  0.25500000000E-02 0. -1.
         -1   -1    0    0    0  501 -0.00000000000E+00 -0.00000000000E+00 -0.60887346797E+01  0.60887367657E+01  0.50400000000E-02 0.  1.
         24    2    1    2    0    0  0.00000000000E+00  0.00000000000E+00  0.22019214534E+03  0.23236961680E+03  0.74236500067E+02 0.  0.
         66    2    3    3    0    0  0.35258032545E+02 -0.57853161957E+01  0.14134541744E+03  0.14580509516E+03  0.20000000864E+01 0.  0.
        -13    1    3    3    0    0 -0.35258032545E+02  0.57853161957E+01  0.78846727894E+02  0.86564521636E+02  0.10566000000E+00 0.  1.
         13    1    4    4    0    0  0.68468241992E+01 -0.85680794784E+00  0.28802399840E+02  0.29617604934E+02  0.10566000000E+00 0. -1.
        -13    1    4    4    0    0  0.16202128654E+02 -0.21843391167E+01  0.62271852470E+02  0.64382257527E+02  0.10566000000E+00 0.  1.
        -14    1    4    4    0    0  0.12209079692E+02 -0.27441691311E+01  0.50271165132E+02  0.51805232698E+02  0.00000000000E+00 0.  1.
<mgrwt>
<rscale>  0 0.74236500E+02</rscale>
<asrwt>0</asrwt>
<pdfrwt beam="1">  1        2 0.34812442E-01 0.74236500E+02</pdfrwt>
<pdfrwt beam="2">  1       -1 0.93672861E-03 0.74236500E+02</pdfrwt>
<totfact> 0.28024966E+05</totfact>
</mgrwt>
</event>
<event>
 8    1  0.2603554E-020  0.7931337E+02  0.7818608E-02  0.1331011E+00
         -1   -1    0    0    0  501 -0.00000000000E+00  0.00000000000E+00  0.90863637058E+02  0.90863637198E+02  0.50400000000E-02 0.  1.
          2   -1    0    0  501    0  0.00000000000E+00 -0.00000000000E+00 -0.17307832903E+02  0.17307833091E+02  0.25500000000E-02 0. -1.
         24    2    1    2    0    0  0.00000000000E+00  0.00000000000E+00  0.73555804155E+02  0.10817147029E+03  0.79313369992E+02 0.  0.
         66    2    3    3    0    0 -0.95996489447E+01  0.16344734609E+02 -0.10666685420E+02  0.21842202230E+02  0.20000027690E+01 0.  0.
        -13    1    3    3    0    0  0.95996489447E+01 -0.16344734609E+02  0.84222489576E+02  0.86329268060E+02  0.10566000000E+00 0.  1.
         13    1    4    4    0    0 -0.28201248640E+01  0.49889228098E+01 -0.41876105655E+01  0.70985703726E+01  0.10566000000E+00 0. -1.
        -13    1    4    4    0    0 -0.45221834622E+01  0.81657790178E+01 -0.44907508231E+01  0.10358962169E+02  0.10566000000E+00 0.  1.
         14    1    4    4    0    0 -0.22573406185E+01  0.31900327814E+01 -0.19883240319E+01  0.43846696877E+01  0.00000000000E+00 0. -1.
<mgrwt>
<rscale>  0 0.79313370E+02</rscale>
<asrwt>0</asrwt>
<pdfrwt beam="1">  1        2 0.26627435E-02 0.79313370E+02</pdfrwt>
<pdfrwt beam="2">  1       -1 0.13979021E-01 0.79313370E+02</pdfrwt>
<totfact> 0.12357001E+05</totfact>
</mgrwt>
</event>
<event>
 8    1  0.2603554E-020  0.8104846E+02  0.7818608E-02  0.1326102E+00
         -1   -1    0    0    0  501 -0.00000000000E+00  0.00000000000E+00  0.83495963257E+02  0.83495963409E+02  0.50400000000E-02 0.  1.
          2   -1    0    0  501    0  0.00000000000E+00 -0.00000000000E+00 -0.19668172461E+02  0.19668172626E+02  0.25500000000E-02 0. -1.
         24    2    1    2    0    0  0.17763568394E-14  0.35527136788E-14  0.63827790797E+02  0.10316413604E+03  0.81048455173E+02 0.  0.
         66    2    3    3    0    0 -0.12186334723E+02 -0.30197815191E+02  0.12839731163E+01  0.32650626051E+02  0.19999995669E+01 0.  0.
        -13    1    3    3    0    0  0.12186334723E+02  0.30197815191E+02  0.62543817680E+02  0.70513509985E+02  0.10566000000E+00 0.  1.
         13    1    4    4    0    0 -0.89151530132E+01 -0.23377363075E+02  0.11828755248E+01  0.25047782659E+02  0.10566000000E+00 0. -1.
        -13    1    4    4    0    0 -0.18839401621E+01 -0.31243590285E+01 -0.80425330586E-01  0.36508193796E+01  0.10566000000E+00 0.  1.
        -14    1    4    4    0    0 -0.13872415480E+01 -0.36960930875E+01  0.18152292204E+00  0.39520240124E+01  0.00000000000E+00 0.  1.
<mgrwt>
<rscale>  0 0.81048455E+02</rscale>
<asrwt>0</asrwt>
<pdfrwt beam="1">  1        2 0.30258727E-02 0.81048455E+02</pdfrwt>
<pdfrwt beam="2">  1       -1 0.12845533E-01 0.81048455E+02</pdfrwt>
<totfact> 0.11918384E+05</totfact>
</mgrwt>
</event>
<event>
 8    1  0.2603554E-020  0.8183108E+02  0.7818608E-02  0.1323934E+00
         -1   -1    0    0    0  501 -0.00000000000E+00  0.00000000000E+00  0.17047943543E+02  0.17047944288E+02  0.50400000000E-02 0.  1.
          2   -1    0    0  501    0  0.00000000000E+00 -0.00000000000E+00 -0.98198425860E+02  0.98198425893E+02  0.25500000000E-02 0. -1.
         24    2    1    2    0    0  0.00000000000E+00 -0.17763568394E-14 -0.81150482317E+02  0.11524637018E+03  0.81831076369E+02 0.  0.
         66    2    3    3    0    0  0.39865940964E+02 -0.86988777885E+01 -0.36843445480E+02  0.55012754973E+02  0.20000027904E+01 0.  0.
        -13    1    3    3    0    0 -0.39865940964E+02  0.86988777885E+01 -0.44307036837E+02  0.60233615208E+02  0.10566000000E+00 0.  1.
         13    1    4    4    0    0  0.25391951177E+02 -0.58402359983E+01 -0.24678077375E+02  0.35887020050E+02  0.10566000000E+00 0. -1.
        -13    1    4    4    0    0  0.85145987491E+01 -0.18297878333E+01 -0.70829657512E+01  0.11226133940E+02  0.10566000000E+00 0.  1.
         14    1    4    4    0    0  0.59593910376E+01 -0.10288539569E+01 -0.50824023538E+01  0.78996009829E+01  0.00000000000E+00 0. -1.
<mgrwt>
<rscale>  0 0.81831076E+02</rscale>
<asrwt>0</asrwt>
<pdfrwt beam="1">  1        2 0.15107450E-01 0.81831076E+02</pdfrwt>
<pdfrwt beam="2">  1       -1 0.26227607E-02 0.81831076E+02</pdfrwt>
<totfact> 0.16596945E+05</totfact>
</mgrwt>
</event>
<event>
 8    1  0.2603554E-020  0.8059771E+02  0.7818608E-02  0.1327364E+00
         -1   -1    0    0    0  501 -0.00000000000E+00  0.00000000000E+00  0.54073556919E+01  0.54073580407E+01  0.50400000000E-02 0.  1.
          2   -1    0    0  501    0  0.00000000000E+00 -0.00000000000E+00 -0.30033112602E+03  0.30033112603E+03  0.25500000000E-02 0. -1.
         24    2    1    2    0    0  0.00000000000E+00  0.00000000000E+00 -0.29492377033E+03  0.30573848407E+03  0.80597706778E+02 0.  0.
         66    2    3    3    0    0 -0.28973078648E+02 -0.24427651226E+02 -0.19926555360E+03  0.20284701201E+03  0.20000000769E+01 0.  0.
        -13    1    3    3    0    0  0.28973078648E+02  0.24427651226E+02 -0.95658216726E+02  0.10289147206E+03  0.10566000000E+00 0.  1.
         13    1    4    4    0    0 -0.14307822329E+02 -0.12845470260E+02 -0.97894996962E+02  0.99765532526E+02  0.10566000000E+00 0. -1.
        -13    1    4    4    0    0 -0.21100102541E+01 -0.16728768664E+01 -0.16048714709E+02  0.16273385270E+02  0.10566000000E+00 0.  1.
         14    1    4    4    0    0 -0.12555246064E+02 -0.99093040999E+01 -0.85321841931E+02  0.86808094219E+02  0.00000000000E+00 0. -1.
<mgrwt>
<rscale>  0 0.80597707E+02</rscale>
<asrwt>0</asrwt>
<pdfrwt beam="1">  1        2 0.46204776E-01 0.80597707E+02</pdfrwt>
<pdfrwt beam="2">  1       -1 0.83190129E-03 0.80597707E+02</pdfrwt>
<totfact> 0.25011587E+05</totfact>
</mgrwt>
</event>
<event>
 8    1  0.2603554E-020  0.7940333E+02  0.7818608E-02  0.1330753E+00
         -1   -1    0    0    0  501 -0.00000000000E+00  0.00000000000E+00  0.75155055617E+01  0.75155072516E+01  0.50400000000E-02 0.  1.
          2   -1    0    0  501    0  0.00000000000E+00 -0.00000000000E+00 -0.20972932986E+03  0.20972932988E+03  0.25500000000E-02 0. -1.
         24    2    1    2    0    0  0.88817841970E-15 -0.17763568394E-14 -0.20221382430E+03  0.21724483713E+03  0.79403328149E+02 0.  0.
         66    2    3    3    0    0  0.48408071821E+01 -0.91545393434E+01 -0.20596154031E+03  0.20623141150E+03  0.19999999819E+01 0.  0.
        -13    1    3    3    0    0 -0.48408071821E+01  0.91545393434E+01  0.37477160055E+01  0.11013425628E+02  0.10566000000E+00 0.  1.
         13    1    4    4    0    0  0.28348375977E-01 -0.50881778884E+00 -0.13703480804E+02  0.13713360250E+02  0.10566000000E+00 0. -1.
        -13    1    4    4    0    0  0.28365482730E+01 -0.51523279260E+01 -0.10017338825E+03  0.10034595840E+03  0.10566000000E+00 0.  1.
        -14    1    4    4    0    0  0.19759105332E+01 -0.34933936286E+01 -0.92084671253E+02  0.92172092854E+02  0.00000000000E+00 0.  1.
<mgrwt>
<rscale>  0 0.79403328E+02</rscale>
<asrwt>0</asrwt>
<pdfrwt beam="1">  1        2 0.32266046E-01 0.79403328E+02</pdfrwt>
<pdfrwt beam="2">  1       -1 0.11562319E-02 0.79403328E+02</pdfrwt>
<totfact> 0.22873936E+05</totfact>
</mgrwt>
</event>
<event>
 8    1  0.2603554E-020  0.8029164E+02  0.7818608E-02  0.1328226E+00
         -1   -1    0    0    0  501 -0.00000000000E+00  0.00000000000E+00  0.78450524656E+01  0.78450540846E+01  0.50400000000E-02 0.  1.
          2   -1    0    0  501    0  0.00000000000E+00 -0.00000000000E+00 -0.20543988853E+03  0.20543988855E+03  0.25500000000E-02 0. -1.
         24    2    1    2    0    0  0.17763568394E-14  0.00000000000E+00 -0.19759483606E+03  0.21328494263E+03  0.80291640372E+02 0.  0.
         66    2    3    3    0    0 -0.12058608228E+02  0.20238623046E+02 -0.18512623701E+03  0.18662994269E+03  0.19999965195E+01 0.  0.
        -13    1    3    3    0    0  0.12058608228E+02 -0.20238623046E+02 -0.12468599059E+02  0.26654999939E+02  0.10566000000E+00 0.  1.
         13    1    4    4    0    0 -0.90413692740E+01  0.16497311597E+02 -0.14480021690E+03  0.14601719634E+03  0.10566000000E+00 0. -1.
        -13    1    4    4    0    0 -0.87922277283E+00  0.99799265593E+00 -0.10363488130E+02  0.10449022551E+02  0.10566000000E+00 0.  1.
         14    1    4    4    0    0 -0.21380161809E+01  0.27433187937E+01 -0.29962531973E+02  0.30163723799E+02  0.00000000000E+00 0. -1.
<mgrwt>
<rscale>  0 0.80291640E+02</rscale>
<asrwt>0</asrwt>
<pdfrwt beam="1">  1        2 0.31606133E-01 0.80291640E+02</pdfrwt>
<pdfrwt beam="2">  1       -1 0.12069314E-02 0.80291640E+02</pdfrwt>
<totfact> 0.22052902E+05</totfact>
</mgrwt>
</event>
<event>
 8    1  0.2603554E-020  0.7927368E+02  0.7818608E-02  0.1331125E+00
         -1   -1    0    0    0  501 -0.00000000000E+00  0.00000000000E+00  0.17624346805E+02  0.17624347526E+02  0.50400000000E-02 0.  1.
          2   -1    0    0  501    0  0.00000000000E+00 -0.00000000000E+00 -0.89142539379E+02  0.89142539415E+02  0.25500000000E-02 0. -1.
         24    2    1    2    0    0  0.00000000000E+00  0.00000000000E+00 -0.71518192574E+02  0.10676688694E+03  0.79273679606E+02 0.  0.
         66    2    3    3    0    0  0.57383738068E+01 -0.39120651447E+02 -0.39002853650E+02  0.55574966359E+02  0.19999973615E+01 0.  0.
        -13    1    3    3    0    0 -0.57383738068E+01  0.39120651447E+02 -0.32515338924E+02  0.51191920582E+02  0.10566000000E+00 0.  1.
         13    1    4    4    0    0  0.44672248250E+01 -0.27002581037E+02 -0.26288834930E+02  0.37950092047E+02  0.10566000000E+00 0. -1.
        -13    1    4    4    0    0 -0.50767119319E-01 -0.59801589965E+00 -0.58439309212E+00  0.84432199921E+00  0.10566000000E+00 0.  1.
         14    1    4    4    0    0  0.13219161012E+01 -0.11520054510E+02 -0.12129625628E+02  0.16780552313E+02  0.00000000000E+00 0. -1.
<mgrwt>
<rscale>  0 0.79273680E+02</rscale>
<asrwt>0</asrwt>
<pdfrwt beam="1">  1        2 0.13714237E-01 0.79273680E+02</pdfrwt>
<pdfrwt beam="2">  1       -1 0.27114381E-02 0.79273680E+02</pdfrwt>
<totfact> 0.17602428E+05</totfact>
</mgrwt>
</event>
<event>
 8    1  0.2603554E-020  0.8301131E+02  0.7818608E-02  0.1320717E+00
          2   -1    0    0  501    0  0.00000000000E+00  0.00000000000E+00  0.51643812780E+03  0.51643812781E+03  0.25500000000E-02 0. -1.
         -1   -1    0    0    0  501 -0.00000000000E+00 -0.00000000000E+00 -0.33357695469E+01  0.33357733543E+01  0.50400000000E-02 0.  1.
         24    2    1    2    0    0 -0.35527136788E-14  0.00000000000E+00  0.51310235826E+03  0.51977390116E+03  0.83011314186E+02 0.  0.
         66    2    3    3    0    0 -0.27799134884E+02  0.22612886711E+02  0.38753021728E+03  0.38918864817E+03  0.20000036487E+01 0.  0.
        -13    1    3    3    0    0  0.27799134884E+02 -0.22612886711E+02  0.12557214098E+03  0.13058525299E+03  0.10566000000E+00 0.  1.
         13    1    4    4    0    0 -0.18073595356E+02  0.15648708372E+02  0.25343910613E+03  0.25456419348E+03  0.10566000000E+00 0. -1.
        -13    1    4    4    0    0 -0.37752325746E+01  0.26687914262E+01  0.49408875318E+02  0.49624821943E+02  0.10566000000E+00 0.  1.
         14    1    4    4    0    0 -0.59503069529E+01  0.42953869132E+01  0.84682235836E+02  0.84999632751E+02  0.00000000000E+00 0. -1.
<mgrwt>
<rscale>  0 0.83011314E+02</rscale>
<asrwt>0</asrwt>
<pdfrwt beam="1">  1        2 0.79451970E-01 0.83011314E+02</pdfrwt>
<pdfrwt beam="2">  1       -1 0.51319593E-03 0.83011314E+02</pdfrwt>
<totfact> 0.27935345E+05</totfact>
</mgrwt>
</event>
<event>
 8    1  0.2603554E-020  0.8121680E+02  0.7818608E-02  0.1325633E+00
          2   -1    0    0  501    0  0.00000000000E+00  0.00000000000E+00  0.19789861483E+03  0.19789861485E+03  0.25500000000E-02 0. -1.
         -1   -1    0    0    0  501 -0.00000000000E+00 -0.00000000000E+00 -0.83327622503E+01  0.83327637745E+01  0.50400000000E-02 0.  1.
         24    2    1    2    0    0 -0.17763568394E-14  0.88817841970E-15  0.18956585258E+03  0.20623137862E+03  0.81216802841E+02 0.  0.
         66    2    3    3    0    0 -0.11225241431E+02  0.57901190127E+01  0.19277530134E+03  0.19319898634E+03  0.19999982106E+01 0.  0.
        -13    1    3    3    0    0  0.11225241431E+02 -0.57901190127E+01 -0.32094487543E+01  0.13032392286E+02  0.10566000000E+00 0.  1.
         13    1    4    4    0    0 -0.71322896930E+01  0.29317525318E+01  0.11912976986E+03  0.11937913536E+03  0.10566000000E+00 0. -1.
        -13    1    4    4    0    0 -0.35122240135E+01  0.20299470109E+01  0.58575411124E+02  0.58715810092E+02  0.10566000000E+00 0.  1.
        -14    1    4    4    0    0 -0.58072772454E+00  0.82841947006E+00  0.15070120355E+02  0.15104040884E+02  0.00000000000E+00 0.  1.
<mgrwt>
<rscale>  0 0.81216803E+02</rscale>
<asrwt>0</asrwt>
<pdfrwt beam="1">  1        2 0.30445939E-01 0.81216803E+02</pdfrwt>
<pdfrwt beam="2">  1       -1 0.12819636E-02 0.81216803E+02</pdfrwt>
<totfact> 0.21118843E+05</totfact>
</mgrwt>
</event>
<event>
 8    1  0.2603554E-020  0.8963879E+02  0.7818608E-02  0.1303729E+00
         -1   -1    0    0    0  501 -0.00000000000E+00  0.00000000000E+00  0.22407229844E+02  0.22407230410E+02  0.50400000000E-02 0.  1.
          2   -1    0    0  501    0  0.00000000000E+00 -0.00000000000E+00 -0.89648659641E+02  0.89648659677E+02  0.25500000000E-02 0. -1.
         24    2    1    2    0    0  0.35527136788E-14  0.00000000000E+00 -0.67241429797E+02  0.11205589009E+03  0.89638789718E+02 0.  0.
         66    2    3    3    0    0  0.19896925541E+02 -0.18920676254E+02 -0.77885621780E+02  0.82607806569E+02  0.19999975297E+01 0.  0.
        -13    1    3    3    0    0 -0.19896925541E+02  0.18920676254E+02  0.10644191983E+02  0.29448083519E+02  0.10566000000E+00 0.  1.
         13    1    4    4    0    0  0.22983101211E+01 -0.18669162385E+01 -0.91191332890E+01  0.95883972400E+01  0.10566000000E+00 0. -1.
        -13    1    4    4    0    0  0.17492827915E+02 -0.16761327123E+02 -0.68163300382E+02  0.72340775489E+02  0.10566000000E+00 0.  1.
        -14    1    4    4    0    0  0.10578750507E+00 -0.29243289315E+00 -0.60318810922E+00  0.67863383965E+00  0.00000000000E+00 0.  1.
<mgrwt>
<rscale>  0 0.89638790E+02</rscale>
<asrwt>0</asrwt>
<pdfrwt beam="1">  1        2 0.13792101E-01 0.89638790E+02</pdfrwt>
<pdfrwt beam="2">  1       -1 0.34472662E-02 0.89638790E+02</pdfrwt>
<totfact> 0.12644615E+05</totfact>
</mgrwt>
</event>
<event>
 8    1  0.2603554E-020  0.7917476E+02  0.7818608E-02  0.1331410E+00
         -1   -1    0    0    0  501 -0.00000000000E+00  0.00000000000E+00  0.31153390127E+01  0.31153430896E+01  0.50400000000E-02 0.  1.
          2   -1    0    0  501    0  0.00000000000E+00 -0.00000000000E+00 -0.50304621879E+03  0.50304621880E+03  0.25500000000E-02 0. -1.
         24    2    1    2    0    0  0.00000000000E+00  0.00000000000E+00 -0.49993087978E+03  0.50616156189E+03  0.79174757190E+02 0.  0.
         66    2    3    3    0    0  0.10593729549E+02  0.34907066466E+02 -0.34800688874E+03  0.34991931212E+03  0.19999973604E+01 0.  0.
        -13    1    3    3    0    0 -0.10593729549E+02 -0.34907066466E+02 -0.15192399104E+03  0.15624224977E+03  0.10566000000E+00 0.  1.
         13    1    4    4    0    0  0.79174286498E+01  0.27397588299E+02 -0.26616060245E+03  0.26768412538E+03  0.10566000000E+00 0. -1.
        -13    1    4    4    0    0  0.10476880837E+00  0.33471417230E+00 -0.36267622482E+01  0.36452130968E+01  0.10566000000E+00 0. -1.
        -14    1    4    4    0    0  0.25715320908E+01  0.71747639953E+01 -0.78219524041E+02  0.78589973641E+02  0.00000000000E+00 0.  1.
<mgrwt>
<rscale>  0 0.79174757E+02</rscale>
<asrwt>0</asrwt>
<pdfrwt beam="1">  1        2 0.77391662E-01 0.79174757E+02</pdfrwt>
<pdfrwt beam="2">  1       -1 0.47928364E-03 0.79174757E+02</pdfrwt>
<totfact> 0.31345499E+05</totfact>
</mgrwt>
</event>
<event>
 8    1  0.2603554E-020  0.7768968E+02  0.7818608E-02  0.1335739E+00
          2   -1    0    0  501    0  0.00000000000E+00  0.00000000000E+00  0.16640146914E+03  0.16640146916E+03  0.25500000000E-02 0. -1.
         -1   -1    0    0    0  501 -0.00000000000E+00 -0.00000000000E+00 -0.90679576224E+01  0.90679590231E+01  0.50400000000E-02 0.  1.
         24    2    1    2    0    0  0.00000000000E+00  0.00000000000E+00  0.15733351152E+03  0.17546942819E+03  0.77689680012E+02 0.  0.
         66    2    3    3    0    0 -0.14895207221E+02 -0.98915453869E+00  0.15965305225E+03  0.16036191158E+03  0.19999917052E+01 0.  0.
        -13    1    3    3    0    0  0.14895207221E+02  0.98915453869E+00 -0.23195407294E+01  0.15107516609E+02  0.10566000000E+00 0.  1.
         13    1    4    4    0    0 -0.86652652987E+01 -0.13794431418E+01  0.88612732940E+02  0.89046152580E+02  0.10566000000E+00 0. -1.
        -13    1    4    4    0    0 -0.18564441075E+01  0.31475049680E+00  0.20629364133E+02  0.20715387546E+02  0.10566000000E+00 0.  1.
         14    1    4    4    0    0 -0.43734978151E+01  0.75538106290E-01  0.50410955177E+02  0.50600371451E+02  0.00000000000E+00 0. -1.
<mgrwt>
<rscale>  0 0.77689680E+02</rscale>
<asrwt>0</asrwt>
<pdfrwt beam="1">  1        2 0.25600224E-01 0.77689680E+02</pdfrwt>
<pdfrwt beam="2">  1       -1 0.13950706E-02 0.77689680E+02</pdfrwt>
<totfact> 0.22390560E+05</totfact>
</mgrwt>
</event>
<event>
 8    1  0.2603554E-020  0.7993617E+02  0.7818608E-02  0.1329233E+00
         -1   -1    0    0    0  501 -0.00000000000E+00  0.00000000000E+00  0.53198359694E+02  0.53198359933E+02  0.50400000000E-02 0.  1.
          2   -1    0    0  501    0  0.00000000000E+00 -0.00000000000E+00 -0.30028140282E+02  0.30028140391E+02  0.25500000000E-02 0. -1.
         24    2    1    2    0    0  0.71054273576E-14  0.00000000000E+00  0.23170219412E+02  0.83226500324E+02  0.79936170089E+02 0.  0.
         66    2    3    3    0    0  0.33527814228E+02  0.67813664568E+00 -0.11000361251E+02  0.35349429162E+02  0.19999995581E+01 0.  0.
        -13    1    3    3    0    0 -0.33527814228E+02 -0.67813664568E+00  0.34170580663E+02  0.47877071162E+02  0.10566000000E+00 0.  1.
         13    1    4    4    0    0  0.10759148826E+02  0.92632665697E+00 -0.39653025146E+01  0.11504440560E+02  0.10566000000E+00 0. -1.
        -13    1    4    4    0    0  0.73750131536E+01 -0.30728091793E+00 -0.19919453431E+01  0.76461919191E+01  0.10566000000E+00 0.  1.
        -14    1    4    4    0    0  0.15393652248E+02  0.59090906640E-01 -0.50431133929E+01  0.16198796683E+02  0.00000000000E+00 0.  1.
<mgrwt>
<rscale>  0 0.79936170E+02</rscale>
<asrwt>0</asrwt>
<pdfrwt beam="1">  1        2 0.46197139E-02 0.79936170E+02</pdfrwt>
<pdfrwt beam="2">  1       -1 0.81843631E-02 0.79936170E+02</pdfrwt>
<totfact> 0.13487851E+05</totfact>
</mgrwt>
</event>
