<event>
 8    1  0.1520917E-017  0.7961428E+02  0.7818608E-02  0.1330150E+00
          2   -1    0    0  501    0  0.00000000000E+00  0.00000000000E+00  0.15950981234E+02  0.15950981438E+02  0.25500000000E-02 0. -1.
         -1   -1    0    0    0  501 -0.00000000000E+00 -0.00000000000E+00 -0.99342372861E+02  0.99342372988E+02  0.50400000000E-02 0.  1.
         24    2    1    2    0    0  0.00000000000E+00  0.00000000000E+00 -0.83391391627E+02  0.11529335443E+03  0.79614278728E+02 0.  0.
         66    2    3    3    0    0 -0.29335454529E+01  0.31024030745E+02 -0.59111286252E+01  0.31781088911E+02  0.19999995507E+01 0.  0.
        -13    1    3    3    0    0  0.29335454529E+01 -0.31024030745E+02 -0.77480263001E+02  0.83512265515E+02  0.10566000000E+00 0.  1.
         13    1    4    4    0    0 -0.88001254248E+00  0.11637604675E+02 -0.17138154908E+01  0.11796465243E+02  0.10566000000E+00 0. -1.
        -13    1    4    4    0    0 -0.12873736226E+00  0.62039910079E+00 -0.35105016642E+00  0.73203046907E+00  0.10566000000E+00 0. -1.
         14    1    4    4    0    0 -0.19247955481E+01  0.18766026968E+02 -0.38462629679E+01  0.19252593199E+02  0.00000000000E+00 0. -1.
<mgrwt>
<rscale>  0 0.79614279E+02</rscale>
<asrwt>0</asrwt>
<pdfrwt beam="1">  1        2 0.24539972E-02 0.79614279E+02</pdfrwt>
<pdfrwt beam="2">  1       -1 0.15283442E-01 0.79614279E+02</pdfrwt>
<totfact> 0.12013575E+05</totfact>
</mgrwt>
</event>
<event>
 8    1  0.1520917E-017  0.7835637E+02  0.7818608E-02  0.1333782E+00
         -1   -1    0    0    0  501 -0.00000000000E+00  0.00000000000E+00  0.84795980029E+01  0.84795995007E+01  0.50400000000E-02 0.  1.
          2   -1    0    0  501    0  0.00000000000E+00 -0.00000000000E+00 -0.18101449222E+03  0.18101449224E+03  0.25500000000E-02 0. -1.
         24    2    1    2    0    0  0.35527136788E-14 -0.35527136788E-14 -0.17253489421E+03  0.18949409174E+03  0.78356372308E+02 0.  0.
         66    2    3    3    0    0 -0.23361487049E+02  0.14580824794E+02 -0.15362898663E+03  0.15609043873E+03  0.19999998491E+01 0.  0.
        -13    1    3    3    0    0  0.23361487049E+02 -0.14580824794E+02 -0.18905907581E+02  0.33403653008E+02  0.10566000000E+00 0.  1.
         13    1    4    4    0    0 -0.14472698755E+02  0.80972431659E+01 -0.91685626849E+02  0.93173438762E+02  0.10566000000E+00 0. -1.
        -13    1    4    4    0    0 -0.86543074445E+00  0.80086577881E+00 -0.75326142633E+01  0.76250769206E+01  0.10566000000E+00 0.  1.
        -14    1    4    4    0    0 -0.80233575489E+01  0.56827158493E+01 -0.54410745522E+02  0.55291923045E+02  0.00000000000E+00 0.  1.
<mgrwt>
<rscale>  0 0.78356372E+02</rscale>
<asrwt>0</asrwt>
<pdfrwt beam="1">  1        2 0.27848381E-01 0.78356372E+02</pdfrwt>
<pdfrwt beam="2">  1       -1 0.13045538E-02 0.78356372E+02</pdfrwt>
<totfact> 0.22516116E+05</totfact>
</mgrwt>
</event>
<event>
 8    1  0.1520917E-017  0.7918020E+02  0.7818608E-02  0.1331394E+00
          2   -1    0    0  501    0  0.00000000000E+00  0.00000000000E+00  0.78427387370E+03  0.78427387370E+03  0.25500000000E-02 0. -1.
         -1   -1    0    0    0  501 -0.00000000000E+00 -0.00000000000E+00 -0.19985027775E+01  0.19985091327E+01  0.50400000000E-02 0.  1.
         24    2    1    2    0    0  0.17763568394E-14  0.17763568394E-14  0.78227537092E+03  0.78627238283E+03  0.79180199924E+02 0.  0.
         66    2    3    3    0    0 -0.11000568622E+02 -0.12304960111E+02  0.74845106590E+03  0.74863570754E+03  0.19999995311E+01 0.  0.
        -13    1    3    3    0    0  0.11000568622E+02  0.12304960111E+02  0.33824305015E+02  0.37636675293E+02  0.10566000000E+00 0.  1.
         13    1    4    4    0    0 -0.66746043953E+01 -0.64070700220E+01  0.41289603196E+03  0.41299969160E+03  0.10566000000E+00 0. -1.
        -13    1    4    4    0    0 -0.32591879401E+00 -0.49097560990E+00  0.18606550380E+02  0.18616180091E+02  0.10566000000E+00 0. -1.
         14    1    4    4    0    0 -0.40000454322E+01 -0.54069144793E+01  0.31694848356E+03  0.31701983584E+03  0.00000000000E+00 0. -1.
<mgrwt>
<rscale>  0 0.79180200E+02</rscale>
<asrwt>0</asrwt>
<pdfrwt beam="1">  1        2 0.12065764E+00 0.79180200E+02</pdfrwt>
<pdfrwt beam="2">  1       -1 0.30746214E-03 0.79180200E+02</pdfrwt>
<totfact> 0.35173285E+05</totfact>
</mgrwt>
</event>
<event>
 8    1  0.1520917E-017  0.7970568E+02  0.7818608E-02  0.1329889E+00
          2   -1    0    0  501    0  0.00000000000E+00  0.00000000000E+00  0.90453823297E+02  0.90453823333E+02  0.25500000000E-02 0. -1.
         -1   -1    0    0    0  501 -0.00000000000E+00 -0.00000000000E+00 -0.17558668461E+02  0.17558669184E+02  0.50400000000E-02 0.  1.
         24    2    1    2    0    0  0.00000000000E+00  0.00000000000E+00  0.72895154836E+02  0.10801249252E+03  0.79705676970E+02 0.  0.
         66    2    3    3    0    0  0.10381729445E+02  0.19153892735E+02  0.81651625429E+02  0.84531886595E+02  0.20000007295E+01 0.  0.
        -13    1    3    3    0    0 -0.10381729445E+02 -0.19153892735E+02 -0.87564705931E+01  0.23480605922E+02  0.10566000000E+00 0.  1.
         13    1    4    4    0    0  0.62799007077E+01  0.11978080355E+02  0.51735458456E+02  0.53474109507E+02  0.10566000000E+00 0. -1.
        -13    1    4    4    0    0  0.40950839191E+01  0.71030323979E+01  0.28948857204E+02  0.30087709767E+02  0.10566000000E+00 0.  1.
        -14    1    4    4    0    0  0.67448182464E-02  0.72779982317E-01  0.96730976870E+00  0.97006732088E+00  0.00000000000E+00 0.  1.
<mgrwt>
<rscale>  0 0.79705677E+02</rscale>
<asrwt>0</asrwt>
<pdfrwt beam="1">  1        2 0.13915973E-01 0.79705677E+02</pdfrwt>
<pdfrwt beam="2">  1       -1 0.27013337E-02 0.79705677E+02</pdfrwt>
<totfact> 0.17415573E+05</totfact>
</mgrwt>
</event>
<event>
 8    1  0.1520917E-017  0.7885620E+02  0.7818608E-02  0.1332329E+00
         -1   -1    0    0    0  501 -0.00000000000E+00  0.00000000000E+00  0.23540467911E+01  0.23540521864E+01  0.50400000000E-02 0.  1.
          2   -1    0    0  501    0  0.00000000000E+00 -0.00000000000E+00 -0.66038334511E+03  0.66038334512E+03  0.25500000000E-02 0. -1.
         24    2    1    2    0    0  0.00000000000E+00 -0.17763568394E-14 -0.65802929832E+03  0.66273739730E+03  0.78856200363E+02 0.  0.
         66    2    3    3    0    0  0.19767309065E+02 -0.14189110080E+02 -0.58969268759E+03  0.59019788474E+03  0.20000008458E+01 0.  0.
        -13    1    3    3    0    0 -0.19767309065E+02  0.14189110080E+02 -0.68336610730E+02  0.72539512561E+02  0.10566000000E+00 0.  1.
         13    1    4    4    0    0  0.60204194978E+01 -0.43626529574E+01 -0.18429544306E+03  0.18444538402E+03  0.10566000000E+00 0. -1.
        -13    1    4    4    0    0  0.68537817736E+00 -0.24414120532E+00 -0.24282178964E+02  0.24293306228E+02  0.10566000000E+00 0.  1.
        -14    1    4    4    0    0  0.13061511389E+02 -0.95823159173E+01 -0.38111506557E+03  0.38145919449E+03  0.00000000000E+00 0.  1.
<mgrwt>
<rscale>  0 0.78856200E+02</rscale>
<asrwt>0</asrwt>
<pdfrwt beam="1">  1        2 0.10159729E+00 0.78856200E+02</pdfrwt>
<pdfrwt beam="2">  1       -1 0.36216199E-03 0.78856200E+02</pdfrwt>
<totfact> 0.34246580E+05</totfact>
</mgrwt>
</event>
<event>
 8    1  0.1520917E-017  0.7922230E+02  0.7818608E-02  0.1331273E+00
          2   -1    0    0  501    0  0.00000000000E+00  0.00000000000E+00  0.24048741699E+02  0.24048741834E+02  0.25500000000E-02 0. -1.
         -1   -1    0    0    0  501 -0.00000000000E+00 -0.00000000000E+00 -0.65244297386E+02  0.65244297580E+02  0.50400000000E-02 0.  1.
         24    2    1    2    0    0  0.00000000000E+00  0.44408920985E-15 -0.41195555687E+02  0.89293039415E+02  0.79222301655E+02 0.  0.
         66    2    3    3    0    0 -0.25542535448E+02  0.33930429498E+01  0.13260998858E+02  0.29048028380E+02  0.20000011171E+01 0.  0.
        -13    1    3    3    0    0  0.25542535448E+02 -0.33930429498E+01 -0.54456554545E+02  0.60245011035E+02  0.10566000000E+00 0.  1.
         13    1    4    4    0    0 -0.75917720454E+01  0.99907339744E+00  0.30577167269E+01  0.82458441691E+01  0.10566000000E+00 0. -1.
        -13    1    4    4    0    0 -0.89692027375E+01  0.15907642107E+01  0.50304226548E+01  0.10406413630E+02  0.10566000000E+00 0.  1.
         14    1    4    4    0    0 -0.89815606653E+01  0.80320534166E+00  0.51728594765E+01  0.10395770581E+02  0.00000000000E+00 0. -1.
<mgrwt>
<rscale>  0 0.79222302E+02</rscale>
<asrwt>0</asrwt>
<pdfrwt beam="1">  1        2 0.36998065E-02 0.79222302E+02</pdfrwt>
<pdfrwt beam="2">  1       -1 0.10037584E-01 0.79222302E+02</pdfrwt>
<totfact> 0.13243101E+05</totfact>
</mgrwt>
</event>
<event>
 8    1  0.1520917E-017  0.8459277E+02  0.7818608E-02  0.1316501E+00
         -1   -1    0    0    0  501 -0.00000000000E+00  0.00000000000E+00  0.23880452142E+01  0.23880505327E+01  0.50400000000E-02 0.  1.
          2   -1    0    0  501    0  0.00000000000E+00 -0.00000000000E+00 -0.74914087313E+03  0.74914087313E+03  0.25500000000E-02 0. -1.
         24    2    1    2    0    0  0.00000000000E+00  0.17763568394E-14 -0.74675282791E+03  0.75152892366E+03  0.84592772196E+02 0.  0.
         66    2    3    3    0    0 -0.28697364240E+02 -0.93118847585E+01 -0.63663872312E+03  0.63735634749E+03  0.19999990581E+01 0.  0.
        -13    1    3    3    0    0  0.28697364240E+02  0.93118847585E+01 -0.11011410479E+03  0.11417257617E+03  0.10566000000E+00 0.  1.
         13    1    4    4    0    0 -0.41216639229E+01 -0.16957804002E+01 -0.94717416267E+02  0.94822275300E+02  0.10566000000E+00 0. -1.
        -13    1    4    4    0    0 -0.88073485020E+00  0.42568301374E-02 -0.19528662501E+02  0.19548798815E+02  0.10566000000E+00 0.  1.
         14    1    4    4    0    0 -0.23694965467E+02 -0.76203611885E+01 -0.52239264435E+03  0.52298527338E+03  0.00000000000E+00 0. -1.
<mgrwt>
<rscale>  0 0.84592772E+02</rscale>
<asrwt>0</asrwt>
<pdfrwt beam="1">  1        2 0.11525226E+00 0.84592772E+02</pdfrwt>
<pdfrwt beam="2">  1       -1 0.36739258E-03 0.84592772E+02</pdfrwt>
<totfact> 0.29349577E+05</totfact>
</mgrwt>
</event>
<event>
 8    1  0.1520917E-017  0.8063447E+02  0.7818608E-02  0.1327260E+00
          2   -1    0    0  501    0  0.00000000000E+00  0.00000000000E+00  0.14709470056E+04  0.14709470056E+04  0.25500000000E-02 0. -1.
         -1   -1    0    0    0  501 -0.00000000000E+00 -0.00000000000E+00 -0.11050507025E+01  0.11050621958E+01  0.50400000000E-02 0.  1.
         24    2    1    2    0    0 -0.17763568394E-14  0.00000000000E+00  0.14698419549E+04  0.14720520678E+04  0.80634471110E+02 0.  0.
         66    2    3    3    0    0  0.11262734185E+02  0.16597283510E+02  0.13733237141E+04  0.13734716389E+04  0.20000010727E+01 0.  0.
        -13    1    3    3    0    0 -0.11262734185E+02 -0.16597283510E+02  0.96518240706E+02  0.98580428860E+02  0.10566000000E+00 0.  1.
         13    1    4    4    0    0  0.18879029923E+01  0.33120557339E+01  0.22019777772E+03  0.22023080250E+03  0.10566000000E+00 0. -1.
        -13    1    4    4    0    0  0.64543949231E+01  0.93996005479E+01  0.78512914748E+03  0.78521194660E+03  0.10566000000E+00 0. -1.
         14    1    4    4    0    0  0.29204362698E+01  0.38856272286E+01  0.36799678894E+03  0.36802888979E+03  0.00000000000E+00 0. -1.
<mgrwt>
<rscale>  0 0.80634471E+02</rscale>
<asrwt>0</asrwt>
<pdfrwt beam="1">  1        2 0.22630073E+00 0.80634471E+02</pdfrwt>
<pdfrwt beam="2">  1       -1 0.17000779E-03 0.80634471E+02</pdfrwt>
<totfact> 0.32807287E+05</totfact>
</mgrwt>
</event>
<event>
 8    1  0.1520917E-017  0.7328612E+02  0.7818608E-02  0.1349262E+00
         -1   -1    0    0    0  501 -0.00000000000E+00  0.00000000000E+00  0.87340954608E+02  0.87340954754E+02  0.50400000000E-02 0.  1.
          2   -1    0    0  501    0  0.00000000000E+00 -0.00000000000E+00 -0.15373242152E+02  0.15373242363E+02  0.25500000000E-02 0. -1.
         24    2    1    2    0    0  0.00000000000E+00 -0.35527136788E-14  0.71967712457E+02  0.10271419712E+03  0.73286115010E+02 0.  0.
         66    2    3    3    0    0 -0.18816983880E+02  0.24044878966E+02  0.76842160156E+01  0.31548094473E+02  0.20000005640E+01 0.  0.
        -13    1    3    3    0    0  0.18816983880E+02 -0.24044878966E+02  0.64283496441E+02  0.71166102644E+02  0.10566000000E+00 0.  1.
         13    1    4    4    0    0 -0.87523890630E+01  0.11916953758E+02  0.35813171731E+01  0.15213648409E+02  0.10566000000E+00 0. -1.
        -13    1    4    4    0    0 -0.72340528335E+01  0.78437323246E+01  0.29641331729E+01  0.11074877276E+02  0.10566000000E+00 0.  1.
        -14    1    4    4    0    0 -0.28305419837E+01  0.42841928837E+01  0.11387656696E+01  0.52595687880E+01  0.00000000000E+00 0.  1.
<mgrwt>
<rscale>  0 0.73286115E+02</rscale>
<asrwt>0</asrwt>
<pdfrwt beam="1">  1        2 0.23651142E-02 0.73286115E+02</pdfrwt>
<pdfrwt beam="2">  1       -1 0.13437070E-01 0.73286115E+02</pdfrwt>
<totfact> 0.15152245E+05</totfact>
</mgrwt>
</event>
<event>
 8    1  0.1520917E-017  0.8460552E+02  0.7818608E-02  0.1316467E+00
          2   -1    0    0  501    0  0.00000000000E+00  0.00000000000E+00  0.98044637637E+01  0.98044640953E+01  0.25500000000E-02 0. -1.
         -1   -1    0    0    0  501 -0.00000000000E+00 -0.00000000000E+00 -0.18252131477E+03  0.18252131484E+03  0.50400000000E-02 0.  1.
         24    2    1    2    0    0  0.17763568394E-14  0.71054273576E-14 -0.17271685101E+03  0.19232577893E+03  0.84605523586E+02 0.  0.
         66    2    3    3    0    0  0.15755391611E+02  0.32236218780E+02 -0.35570402574E+02  0.50563422692E+02  0.20000022482E+01 0.  0.
        -13    1    3    3    0    0 -0.15755391611E+02 -0.32236218780E+02 -0.13714644843E+03  0.14176235624E+03  0.10566000000E+00 0.  1.
         13    1    4    4    0    0  0.51954451105E+01  0.11751463562E+02 -0.12913815397E+02  0.18217226405E+02  0.10566000000E+00 0. -1.
        -13    1    4    4    0    0  0.90212969094E+01  0.17910590609E+02 -0.20262494176E+02  0.28508821234E+02  0.10566000000E+00 0.  1.
        -14    1    4    4    0    0  0.15386495911E+01  0.25741646084E+01 -0.23940930005E+01  0.38373750521E+01  0.00000000000E+00 0.  1.
<mgrwt>
<rscale>  0 0.84605524E+02</rscale>
<asrwt>0</asrwt>
<pdfrwt beam="1">  1        2 0.15083792E-02 0.84605524E+02</pdfrwt>
<pdfrwt beam="2">  1       -1 0.28080200E-01 0.84605524E+02</pdfrwt>
<totfact> 0.88746089E+04</totfact>
</mgrwt>
</event>
<event>
 8    1  0.1520917E-017  0.8057498E+02  0.7818608E-02  0.1327428E+00
         -1   -1    0    0    0  501 -0.00000000000E+00  0.00000000000E+00  0.13334836054E+01  0.13334931299E+01  0.50400000000E-02 0.  1.
          2   -1    0    0  501    0  0.00000000000E+00 -0.00000000000E+00 -0.12171697438E+04  0.12171697438E+04  0.25500000000E-02 0. -1.
         24    2    1    2    0    0  0.00000000000E+00  0.17763568394E-14 -0.12158362602E+04  0.12185032370E+04  0.80574976336E+02 0.  0.
         66    2    3    3    0    0 -0.77832608301E+01  0.11722258002E+02 -0.11787738486E+04  0.11788595237E+04  0.20000004158E+01 0.  0.
        -13    1    3    3    0    0  0.77832608301E+01 -0.11722258002E+02 -0.37062411686E+02  0.39643713321E+02  0.10566000000E+00 0.  1.
         13    1    4    4    0    0 -0.12005389625E+01  0.15753419444E+01 -0.19061779987E+03  0.19062811908E+03  0.10566000000E+00 0.  1.
        -13    1    4    4    0    0 -0.29370487774E+01  0.32578509063E+01 -0.38485180345E+03  0.38487681358E+03  0.10566000000E+00 0. -1.
         14    1    4    4    0    0 -0.36456730903E+01  0.68890651512E+01 -0.60330424524E+03  0.60335459100E+03  0.00000000000E+00 0. -1.
<mgrwt>
<rscale>  0 0.80574976E+02</rscale>
<asrwt>0</asrwt>
<pdfrwt beam="1">  1        2 0.18725600E+00 0.80574976E+02</pdfrwt>
<pdfrwt beam="2">  1       -1 0.20515303E-03 0.80574976E+02</pdfrwt>
<totfact> 0.34335138E+05</totfact>
</mgrwt>
</event>
<event>
 8    1  0.1520917E-017  0.7955754E+02  0.7818608E-02  0.1330312E+00
          2   -1    0    0  501    0  0.00000000000E+00  0.00000000000E+00  0.10770150991E+04  0.10770150991E+04  0.25500000000E-02 0. -1.
         -1   -1    0    0    0  501 -0.00000000000E+00 -0.00000000000E+00 -0.14691957779E+01  0.14692044226E+01  0.50400000000E-02 0.  1.
         24    2    1    2    0    0  0.00000000000E+00  0.00000000000E+00  0.10755459034E+04  0.10784843036E+04  0.79557543944E+02 0.  0.
         66    2    3    3    0    0  0.13590933273E+02 -0.21023238483E+02  0.95673985819E+03  0.95706940515E+03  0.20000008414E+01 0.  0.
        -13    1    3    3    0    0 -0.13590933273E+02  0.21023238483E+02  0.11880604518E+03  0.12141489842E+03  0.10566000000E+00 0.  1.
         13    1    4    4    0    0  0.64390453088E+01 -0.84091276471E+01  0.40118547619E+03  0.40132526983E+03  0.10566000000E+00 0. -1.
        -13    1    4    4    0    0  0.29061128302E+01 -0.50148802784E+01  0.20811272293E+03  0.20819344640E+03  0.10566000000E+00 0.  1.
         14    1    4    4    0    0  0.42457751339E+01 -0.75992305579E+01  0.34744165907E+03  0.34755068892E+03  0.00000000000E+00 0. -1.
<mgrwt>
<rscale>  0 0.79557544E+02</rscale>
<asrwt>0</asrwt>
<pdfrwt beam="1">  1        2 0.16569489E+00 0.79557544E+02</pdfrwt>
<pdfrwt beam="2">  1       -1 0.22603043E-03 0.79557544E+02</pdfrwt>
<totfact> 0.35780274E+05</totfact>
</mgrwt>
</event>
<event>
 8    1  0.1520917E-017  0.7831344E+02  0.7818608E-02  0.1333907E+00
         -1   -1    0    0    0  501 -0.00000000000E+00  0.00000000000E+00  0.19565579050E+03  0.19565579057E+03  0.50400000000E-02 0.  1.
          2   -1    0    0  501    0  0.00000000000E+00 -0.00000000000E+00 -0.78364588589E+01  0.78364592738E+01  0.25500000000E-02 0. -1.
         24    2    1    2    0    0 -0.88817841970E-15  0.00000000000E+00  0.18781933164E+03  0.20349224984E+03  0.78313436947E+02 0.  0.
         66    2    3    3    0    0  0.71159967649E+01  0.37010656177E+02  0.66617053079E+02  0.76565382812E+02  0.20000009114E+01 0.  0.
        -13    1    3    3    0    0 -0.71159967649E+01 -0.37010656177E+02  0.12120227856E+03  0.12692686703E+03  0.10566000000E+00 0.  1.
         13    1    4    4    0    0  0.19446412024E+01  0.63404772102E+01  0.11724302498E+02  0.13470475632E+02  0.10566000000E+00 0. -1.
        -13    1    4    4    0    0  0.13695348559E+01  0.84848438809E+01  0.15662836299E+02  0.17866275672E+02  0.10566000000E+00 0.  1.
         14    1    4    4    0    0  0.38018207066E+01  0.22185335085E+02  0.39229914282E+02  0.45228631508E+02  0.00000000000E+00 0. -1.
<mgrwt>
<rscale>  0 0.78313437E+02</rscale>
<asrwt>0</asrwt>
<pdfrwt beam="1">  1        2 0.12056091E-02 0.78313437E+02</pdfrwt>
<pdfrwt beam="2">  1       -1 0.30100891E-01 0.78313437E+02</pdfrwt>
<totfact> 0.10584623E+05</totfact>
</mgrwt>
</event>
<event>
 8    1  0.1520917E-017  0.8395148E+02  0.7818608E-02  0.1318198E+00
          2   -1    0    0  501    0  0.00000000000E+00  0.00000000000E+00  0.27258634733E+03  0.27258634735E+03  0.25500000000E-02 0. -1.
         -1   -1    0    0    0  501 -0.00000000000E+00 -0.00000000000E+00 -0.64638695560E+01  0.64638715208E+01  0.50400000000E-02 0.  1.
         24    2    1    2    0    0  0.35527136788E-14  0.35527136788E-14  0.26612247778E+03  0.27905021887E+03  0.83951482839E+02 0.  0.
         66    2    3    3    0    0 -0.31422352457E+02 -0.16099584369E+02  0.20845140425E+03  0.21142977273E+03  0.20000022065E+01 0.  0.
        -13    1    3    3    0    0  0.31422352457E+02  0.16099584369E+02  0.57671073525E+02  0.67620446141E+02  0.10566000000E+00 0.  1.
         13    1    4    4    0    0 -0.15516739870E+02 -0.72873811387E+01  0.10144161239E+03  0.10287996417E+03  0.10566000000E+00 0. -1.
        -13    1    4    4    0    0 -0.93576692659E+01 -0.47503065543E+01  0.59203778951E+02  0.60126782656E+02  0.10566000000E+00 0.  1.
         14    1    4    4    0    0 -0.65479433212E+01 -0.40618966764E+01  0.47806012915E+02  0.48423025898E+02  0.00000000000E+00 0. -1.
<mgrwt>
<rscale>  0 0.83951483E+02</rscale>
<asrwt>0</asrwt>
<pdfrwt beam="1">  1        2 0.41936364E-01 0.83951483E+02</pdfrwt>
<pdfrwt beam="2">  1       -1 0.99444156E-03 0.83951483E+02</pdfrwt>
<totfact> 0.21690294E+05</totfact>
</mgrwt>
</event>
<event>
 8    1  0.1520917E-017  0.8110882E+02  0.7818608E-02  0.1325934E+00
         -1   -1    0    0    0  501 -0.00000000000E+00  0.00000000000E+00  0.39932908947E+02  0.39932909265E+02  0.50400000000E-02 0.  1.
          2   -1    0    0  501    0  0.00000000000E+00 -0.00000000000E+00 -0.41185581559E+02  0.41185581637E+02  0.25500000000E-02 0. -1.
         24    2    1    2    0    0 -0.71054273576E-14  0.00000000000E+00 -0.12526726116E+01  0.81118490902E+02  0.81108818125E+02 0.  0.
         66    2    3    3    0    0 -0.33608510393E+02  0.20921185398E+02 -0.93126324102E+01  0.40717970048E+02  0.19999982901E+01 0.  0.
        -13    1    3    3    0    0  0.33608510393E+02 -0.20921185398E+02  0.80599597986E+01  0.40400520854E+02  0.10566000000E+00 0.  1.
         13    1    4    4    0    0 -0.98989387265E+00  0.64944248298E+00 -0.51520545904E-01  0.11897410727E+01  0.10566000000E+00 0. -1.
        -13    1    4    4    0    0 -0.93525982512E+01  0.51596174283E+01 -0.27923346259E+01  0.11040880524E+02  0.10566000000E+00 0.  1.
         14    1    4    4    0    0 -0.23266018269E+02  0.15112125487E+02 -0.64687772384E+01  0.28487348451E+02  0.00000000000E+00 0. -1.
<mgrwt>
<rscale>  0 0.81108818E+02</rscale>
<asrwt>0</asrwt>
<pdfrwt beam="1">  1        2 0.63362434E-02 0.81108818E+02</pdfrwt>
<pdfrwt beam="2">  1       -1 0.61435245E-02 0.81108818E+02</pdfrwt>
<totfact> 0.13805989E+05</totfact>
</mgrwt>
</event>
<event>
 8    1  0.1520917E-017  0.8225962E+02  0.7818608E-02  0.1322759E+00
          2   -1    0    0  501    0  0.00000000000E+00  0.00000000000E+00  0.58530868437E+03  0.58530868437E+03  0.25500000000E-02 0. -1.
         -1   -1    0    0    0  501 -0.00000000000E+00 -0.00000000000E+00 -0.28902010814E+01  0.28902054758E+01  0.50400000000E-02 0.  1.
         24    2    1    2    0    0 -0.55511151231E-16  0.00000000000E+00  0.58241848329E+03  0.58819888985E+03  0.82259615524E+02 0.  0.
         66    2    3    3    0    0  0.39252149116E+00  0.26464408093E+02  0.51626864305E+03  0.51695051095E+03  0.20000007379E+01 0.  0.
        -13    1    3    3    0    0 -0.39252149116E+00 -0.26464408093E+02  0.66149840236E+02  0.71248378902E+02  0.10566000000E+00 0.  1.
         13    1    4    4    0    0  0.16144709046E+00  0.13762258783E+02  0.27574705458E+03  0.27609033867E+03  0.10566000000E+00 0. -1.
        -13    1    4    4    0    0  0.81260834062E-01  0.12508302688E+02  0.23418134209E+03  0.23451519437E+03  0.10566000000E+00 0.  1.
        -14    1    4    4    0    0  0.14981356665E+00  0.19384662215E+00  0.63402463729E+01  0.63449779106E+01  0.00000000000E+00 0.  1.
<mgrwt>
<rscale>  0 0.82259616E+02</rscale>
<asrwt>0</asrwt>
<pdfrwt beam="1">  1        2 0.90047398E-01 0.82259616E+02</pdfrwt>
<pdfrwt beam="2">  1       -1 0.44464711E-03 0.82259616E+02</pdfrwt>
<totfact> 0.29703279E+05</totfact>
</mgrwt>
</event>
<event>
 8    1  0.1520917E-017  0.7653013E+02  0.7818608E-02  0.1339197E+00
         -1   -1    0    0    0  501 -0.00000000000E+00  0.00000000000E+00  0.11303867621E+01  0.11303979979E+01  0.50400000000E-02 0.  1.
          2   -1    0    0  501    0  0.00000000000E+00 -0.00000000000E+00 -0.12953160363E+04  0.12953160363E+04  0.25500000000E-02 0. -1.
         24    2    1    2    0    0  0.00000000000E+00  0.00000000000E+00 -0.12941856496E+04  0.12964464343E+04  0.76530134852E+02 0.  0.
         66    2    3    3    0    0 -0.74782918922E+01  0.17326162405E+02 -0.12109340955E+04  0.12110827818E+04  0.19999974020E+01 0.  0.
        -13    1    3    3    0    0  0.74782918922E+01 -0.17326162405E+02 -0.83251554015E+02  0.85363652472E+02  0.10566000000E+00 0.  1.
         13    1    4    4    0    0 -0.35948502194E+01  0.97095994861E+01 -0.61808496804E+03  0.61817168987E+03  0.10566000000E+00 0. -1.
        -13    1    4    4    0    0 -0.22055134535E+01  0.42639339479E+01 -0.35329735970E+03  0.35332998876E+03  0.10566000000E+00 0.  1.
        -14    1    4    4    0    0 -0.16779282192E+01  0.33526289708E+01 -0.23955176779E+03  0.23958110321E+03  0.00000000000E+00 0.  1.
<mgrwt>
<rscale>  0 0.76530135E+02</rscale>
<asrwt>0</asrwt>
<pdfrwt beam="1">  1        2 0.19927820E+00 0.76530135E+02</pdfrwt>
<pdfrwt beam="2">  1       -1 0.17390756E-03 0.76530135E+02</pdfrwt>
<totfact> 0.38858397E+05</totfact>
</mgrwt>
</event>
<event>
 8    1  0.1520917E-017  0.7823510E+02  0.7818608E-02  0.1334136E+00
         -1   -1    0    0    0  501 -0.00000000000E+00  0.00000000000E+00  0.17475734009E+02  0.17475734736E+02  0.50400000000E-02 0.  1.
          2   -1    0    0  501    0  0.00000000000E+00 -0.00000000000E+00 -0.87560412951E+02  0.87560412988E+02  0.25500000000E-02 0. -1.
         24    2    1    2    0    0  0.88817841970E-15  0.00000000000E+00 -0.70084678942E+02  0.10503614772E+03  0.78235095106E+02 0.  0.
         66    2    3    3    0    0 -0.78672174479E+01  0.23054597656E+02 -0.76112945178E+02  0.79941153376E+02  0.19999989979E+01 0.  0.
        -13    1    3    3    0    0  0.78672174479E+01 -0.23054597656E+02  0.60282662358E+01  0.25094994348E+02  0.10566000000E+00 0.  1.
         13    1    4    4    0    0 -0.29720239295E+01  0.89322844090E+01 -0.30372294587E+02  0.31797894168E+02  0.10566000000E+00 0. -1.
        -13    1    4    4    0    0 -0.79200467343E+00  0.14308265355E+01 -0.39793611342E+01  0.43036048900E+01  0.10566000000E+00 0.  1.
        -14    1    4    4    0    0 -0.41031888449E+01  0.12691486712E+02 -0.41761289457E+02  0.43839654318E+02  0.00000000000E+00 0.  1.
<mgrwt>
<rscale>  0 0.78235095E+02</rscale>
<asrwt>0</asrwt>
<pdfrwt beam="1">  1        2 0.13470832E-01 0.78235095E+02</pdfrwt>
<pdfrwt beam="2">  1       -1 0.26885746E-02 0.78235095E+02</pdfrwt>
<totfact> 0.18149689E+05</totfact>
</mgrwt>
</event>
<event>
 8    1  0.1520917E-017  0.8123132E+02  0.7818608E-02  0.1325593E+00
         -1   -1    0    0    0  501 -0.00000000000E+00  0.00000000000E+00  0.37345914546E+01  0.37345948555E+01  0.50400000000E-02 0.  1.
          2   -1    0    0  501    0  0.00000000000E+00 -0.00000000000E+00 -0.44171665702E+03  0.44171665703E+03  0.25500000000E-02 0. -1.
         24    2    1    2    0    0  0.88817841970E-15  0.00000000000E+00 -0.43798206557E+03  0.44545125189E+03  0.81231324297E+02 0.  0.
         66    2    3    3    0    0 -0.66658415839E+01  0.35771271490E+02 -0.31777122022E+03  0.31985397559E+03  0.19999991223E+01 0.  0.
        -13    1    3    3    0    0  0.66658415839E+01 -0.35771271490E+02 -0.12021084535E+03  0.12559727629E+03  0.10566000000E+00 0.  1.
         13    1    4    4    0    0 -0.33905171239E+01  0.20328787646E+02 -0.18566271262E+03  0.18680312961E+03  0.10566000000E+00 0. -1.
        -13    1    4    4    0    0 -0.33946649067E+00  0.30633402276E+01 -0.26326497137E+02  0.26506506869E+02  0.10566000000E+00 0.  1.
         14    1    4    4    0    0 -0.29358579693E+01  0.12379143616E+02 -0.10578201046E+03  0.10654433911E+03  0.00000000000E+00 0. -1.
<mgrwt>
<rscale>  0 0.81231324E+02</rscale>
<asrwt>0</asrwt>
<pdfrwt beam="1">  1        2 0.67956367E-01 0.81231324E+02</pdfrwt>
<pdfrwt beam="2">  1       -1 0.57455315E-03 0.81231324E+02</pdfrwt>
<totfact> 0.28091784E+05</totfact>
</mgrwt>
</event>
<event>
 8    1  0.1520917E-017  0.7946200E+02  0.7818608E-02  0.1330585E+00
          2   -1    0    0  501    0  0.00000000000E+00  0.00000000000E+00  0.46762238464E+03  0.46762238464E+03  0.25500000000E-02 0. -1.
         -1   -1    0    0    0  501 -0.00000000000E+00 -0.00000000000E+00 -0.33756972544E+01  0.33757010168E+01  0.50400000000E-02 0.  1.
         24    2    1    2    0    0  0.00000000000E+00  0.00000000000E+00  0.46424668738E+03  0.47099808566E+03  0.79462003186E+02 0.  0.
         66    2    3    3    0    0  0.17971595452E+02  0.20817313801E+02  0.40202468995E+03  0.40296921733E+03  0.19999985463E+01 0.  0.
        -13    1    3    3    0    0 -0.17971595452E+02 -0.20817313801E+02  0.62221997435E+02  0.68028868327E+02  0.10566000000E+00 0.  1.
         13    1    4    4    0    0  0.11454376861E+02  0.14330064197E+02  0.26134060605E+03  0.26198373427E+03  0.10566000000E+00 0. -1.
        -13    1    4    4    0    0  0.10351701723E+01  0.94282673622E+00  0.18942328783E+02  0.18994301338E+02  0.10566000000E+00 0. -1.
        -14    1    4    4    0    0  0.54820484188E+01  0.55444228684E+01  0.12174175511E+03  0.12199118172E+03  0.00000000000E+00 0.  1.
<mgrwt>
<rscale>  0 0.79462003E+02</rscale>
<asrwt>0</asrwt>
<pdfrwt beam="1">  1        2 0.71941861E-01 0.79462003E+02</pdfrwt>
<pdfrwt beam="2">  1       -1 0.51933865E-03 0.79462003E+02</pdfrwt>
<totfact> 0.30325849E+05</totfact>
</mgrwt>
</event>
<event>
 8    1  0.1520917E-017  0.7611067E+02  0.7818608E-02  0.1340466E+00
         -1   -1    0    0    0  501 -0.00000000000E+00  0.00000000000E+00  0.51526130947E+01  0.51526155597E+01  0.50400000000E-02 0.  1.
          2   -1    0    0  501    0  0.00000000000E+00 -0.00000000000E+00 -0.28106285877E+03  0.28106285878E+03  0.25500000000E-02 0. -1.
         24    2    1    2    0    0  0.00000000000E+00  0.35527136788E-14 -0.27591024567E+03  0.28621547434E+03  0.76110669973E+02 0.  0.
         66    2    3    3    0    0  0.82912968123E+01  0.31879333518E+02 -0.20951637782E+03  0.21209938728E+03  0.20000003074E+01 0.  0.
        -13    1    3    3    0    0 -0.82912968123E+01 -0.31879333518E+02 -0.66393867847E+02  0.74116087053E+02  0.10566000000E+00 0.  1.
         13    1    4    4    0    0  0.77719608450E+01  0.28044838502E+02 -0.18680470480E+03  0.18905799438E+03  0.10566000000E+00 0. -1.
        -13    1    4    4    0    0  0.28799725350E+00  0.17308660619E+01 -0.11128101562E+02  0.11266083976E+02  0.10566000000E+00 0. -1.
         14    1    4    4    0    0  0.23133871380E+00  0.21036289541E+01 -0.11583571466E+02  0.11775308926E+02  0.00000000000E+00 0. -1.
<mgrwt>
<rscale>  0 0.76110670E+02</rscale>
<asrwt>0</asrwt>
<pdfrwt beam="1">  1        2 0.43240428E-01 0.76110670E+02</pdfrwt>
<pdfrwt beam="2">  1       -1 0.79271012E-03 0.76110670E+02</pdfrwt>
<totfact> 0.28369083E+05</totfact>
</mgrwt>
</event>
<event>
 8    1  0.1520917E-017  0.8032615E+02  0.7818608E-02  0.1328128E+00
          2   -1    0    0  501    0  0.00000000000E+00  0.00000000000E+00  0.66032170198E+03  0.66032170199E+03  0.25500000000E-02 0. -1.
         -1   -1    0    0    0  501 -0.00000000000E+00 -0.00000000000E+00 -0.24428562001E+01  0.24428613993E+01  0.50400000000E-02 0.  1.
         24    2    1    2    0    0 -0.17763568394E-14  0.71054273576E-14  0.65787884578E+03  0.66276456338E+03  0.80326152361E+02 0.  0.
         66    2    3    3    0    0 -0.10918738127E+02  0.36651215695E+02  0.42970156261E+03  0.43140463995E+03  0.20000009647E+01 0.  0.
        -13    1    3    3    0    0  0.10918738127E+02 -0.36651215695E+02  0.22817728317E+03  0.23135992343E+03  0.10566000000E+00 0.  1.
         13    1    4    4    0    0 -0.19471770561E+01  0.52443049060E+01  0.67495315100E+02  0.67726825977E+02  0.10566000000E+00 0.  1.
        -13    1    4    4    0    0 -0.53703739207E+00  0.24581630367E+01  0.30698508466E+02  0.30801632437E+02  0.10566000000E+00 0. -1.
         14    1    4    4    0    0 -0.84345236788E+01  0.28948747752E+02  0.33150773905E+03  0.33287618154E+03  0.00000000000E+00 0. -1.
<mgrwt>
<rscale>  0 0.80326152E+02</rscale>
<asrwt>0</asrwt>
<pdfrwt beam="1">  1        2 0.10158796E+00 0.80326152E+02</pdfrwt>
<pdfrwt beam="2">  1       -1 0.37582440E-03 0.80326152E+02</pdfrwt>
<totfact> 0.32640712E+05</totfact>
</mgrwt>
</event>
<event>
 8    1  0.1520917E-017  0.7820665E+02  0.7818608E-02  0.1334219E+00
          2   -1    0    0  501    0  0.00000000000E+00  0.00000000000E+00  0.12352192015E+04  0.12352192015E+04  0.25500000000E-02 0. -1.
         -1   -1    0    0    0  501 -0.00000000000E+00 -0.00000000000E+00 -0.12378885295E+01  0.12378987896E+01  0.50400000000E-02 0.  1.
         24    2    1    2    0    0  0.00000000000E+00  0.35527136788E-14  0.12339813129E+04  0.12364571002E+04  0.78206649989E+02 0.  0.
         66    2    3    3    0    0  0.56999380031E+01  0.21382273670E+02  0.11266102619E+04  0.11268293452E+04  0.20000002673E+01 0.  0.
        -13    1    3    3    0    0 -0.56999380031E+01 -0.21382273670E+02  0.10737105102E+03  0.10962775507E+03  0.10566000000E+00 0.  1.
         13    1    4    4    0    0  0.45240754269E+01  0.17413839436E+02  0.92386601422E+03  0.92404119630E+03  0.10566000000E+00 0. -1.
        -13    1    4    4    0    0  0.11404676553E+01  0.36688300832E+01  0.19525999777E+03  0.19529782097E+03  0.10566000000E+00 0.  1.
        -14    1    4    4    0    0  0.35394920883E-01  0.29960415039E+00  0.74842499117E+01  0.74903279093E+01  0.00000000000E+00 0.  1.
<mgrwt>
<rscale>  0 0.78206650E+02</rscale>
<asrwt>0</asrwt>
<pdfrwt beam="1">  1        2 0.19003397E+00 0.78206650E+02</pdfrwt>
<pdfrwt beam="2">  1       -1 0.19044494E-03 0.78206650E+02</pdfrwt>
<totfact> 0.37026301E+05</totfact>
</mgrwt>
</event>
<event>
 8    1  0.1520917E-017  0.8399380E+02  0.7818608E-02  0.1318085E+00
         -1   -1    0    0    0  501 -0.00000000000E+00  0.00000000000E+00  0.54787818459E+01  0.54787841641E+01  0.50400000000E-02 0.  1.
          2   -1    0    0  501    0  0.00000000000E+00 -0.00000000000E+00 -0.32192179726E+03  0.32192179727E+03  0.25500000000E-02 0. -1.
         24    2    1    2    0    0 -0.71054273576E-14  0.35527136788E-14 -0.31644301541E+03  0.32740058143E+03  0.83993801670E+02 0.  0.
         66    2    3    3    0    0 -0.34921203280E+02  0.11683418901E+02 -0.23682678379E+03  0.23968086747E+03  0.19999987927E+01 0.  0.
        -13    1    3    3    0    0  0.34921203280E+02 -0.11683418901E+02 -0.79616231617E+02  0.87719713957E+02  0.10566000000E+00 0.  1.
         13    1    4    4    0    0 -0.26409292492E+02  0.92741373123E+01 -0.17774742105E+03  0.17993781483E+03  0.10566000000E+00 0. -1.
        -13    1    4    4    0    0 -0.84162719251E+01  0.24011689384E+01 -0.57670753022E+02  0.58331176600E+02  0.10566000000E+00 0.  1.
        -14    1    4    4    0    0 -0.95638863761E-01  0.81126502029E-02 -0.14086097216E+01  0.14118760410E+01  0.00000000000E+00 0.  1.
<mgrwt>
<rscale>  0 0.83993802E+02</rscale>
<asrwt>0</asrwt>
<pdfrwt beam="1">  1        2 0.49526416E-01 0.83993802E+02</pdfrwt>
<pdfrwt beam="2">  1       -1 0.84288994E-03 0.83993802E+02</pdfrwt>
<totfact> 0.23012559E+05</totfact>
</mgrwt>
</event>
<event>
 8    1  0.1520917E-017  0.7874981E+02  0.7818608E-02  0.1332637E+00
         -1   -1    0    0    0  501 -0.00000000000E+00  0.00000000000E+00  0.10519717884E+03  0.10519717896E+03  0.50400000000E-02 0.  1.
          2   -1    0    0  501    0  0.00000000000E+00 -0.00000000000E+00 -0.14737877158E+02  0.14737877379E+02  0.25500000000E-02 0. -1.
         24    2    1    2    0    0  0.00000000000E+00  0.00000000000E+00  0.90459301682E+02  0.11993505634E+03  0.78749809387E+02 0.  0.
         66    2    3    3    0    0 -0.51358957273E+01 -0.18943822358E+02 -0.66823641277E+01  0.20830262153E+02  0.20000001462E+01 0.  0.
        -13    1    3    3    0    0  0.51358957273E+01  0.18943822358E+02  0.97141665810E+02  0.99104794187E+02  0.10566000000E+00 0.  1.
         13    1    4    4    0    0 -0.65725016237E+00 -0.13066523918E+01 -0.42244194197E+00  0.15260863275E+01  0.10566000000E+00 0. -1.
        -13    1    4    4    0    0 -0.69022724220E+00 -0.42687905159E+01 -0.20418537199E+01  0.47832328778E+01  0.10566000000E+00 0.  1.
        -14    1    4    4    0    0 -0.37884183227E+01 -0.13368379451E+02 -0.42180684658E+01  0.14520942948E+02  0.00000000000E+00 0.  1.
<mgrwt>
<rscale>  0 0.78749809E+02</rscale>
<asrwt>0</asrwt>
<pdfrwt beam="1">  1        2 0.22673657E-02 0.78749809E+02</pdfrwt>
<pdfrwt beam="2">  1       -1 0.16184182E-01 0.78749809E+02</pdfrwt>
<totfact> 0.12194389E+05</totfact>
</mgrwt>
</event>
<event>
 8    1  0.1520917E-017  0.8444041E+02  0.7818608E-02  0.1316902E+00
         -1   -1    0    0    0  501 -0.00000000000E+00  0.00000000000E+00  0.15685282460E+01  0.15685363432E+01  0.50400000000E-02 0.  1.
          2   -1    0    0  501    0  0.00000000000E+00 -0.00000000000E+00 -0.11364417067E+04  0.11364417067E+04  0.25500000000E-02 0. -1.
         24    2    1    2    0    0  0.17763568394E-14  0.00000000000E+00 -0.11348731785E+04  0.11380102431E+04  0.84440405634E+02 0.  0.
         66    2    3    3    0    0 -0.12309772888E+02  0.16946093111E+02 -0.10614348044E+04  0.10616433226E+04  0.19999992611E+01 0.  0.
        -13    1    3    3    0    0  0.12309772888E+02 -0.16946093111E+02 -0.73438374095E+02  0.76366920418E+02  0.10566000000E+00 0.  1.
         13    1    4    4    0    0 -0.25867931679E+01  0.43053963268E+01 -0.23415382253E+03  0.23420771060E+03  0.10566000000E+00 0. -1.
        -13    1    4    4    0    0 -0.70895652177E+01  0.94858055566E+01 -0.63976823867E+03  0.63987784210E+03  0.10566000000E+00 0.  1.
        -14    1    4    4    0    0 -0.26334145024E+01  0.31548912279E+01 -0.18751274318E+03  0.18755776994E+03  0.00000000000E+00 0.  1.
<mgrwt>
<rscale>  0 0.84440406E+02</rscale>
<asrwt>0</asrwt>
<pdfrwt beam="1">  1        2 0.17483653E+00 0.84440406E+02</pdfrwt>
<pdfrwt beam="2">  1       -1 0.24131357E-03 0.84440406E+02</pdfrwt>
<totfact> 0.30581601E+05</totfact>
</mgrwt>
</event>
<event>
 8    1  0.1520917E-017  0.7612198E+02  0.7818608E-02  0.1340431E+00
         -1   -1    0    0    0  501 -0.00000000000E+00  0.00000000000E+00  0.84851649813E+01  0.84851664781E+01  0.50400000000E-02 0.  1.
          2   -1    0    0  501    0  0.00000000000E+00 -0.00000000000E+00 -0.17072606711E+03  0.17072606713E+03  0.25500000000E-02 0. -1.
         24    2    1    2    0    0  0.35527136788E-14 -0.35527136788E-14 -0.16224090213E+03  0.17921123361E+03  0.76121980580E+02 0.  0.
         66    2    3    3    0    0 -0.22629570210E+02  0.29374215743E+02 -0.10111012284E+03  0.10771350400E+03  0.20000012572E+01 0.  0.
        -13    1    3    3    0    0  0.22629570210E+02 -0.29374215743E+02 -0.61130779290E+02  0.71497729607E+02  0.10566000000E+00 0.  1.
         13    1    4    4    0    0 -0.11590656188E+02  0.14293728991E+02 -0.49644448525E+02  0.52945598804E+02  0.10566000000E+00 0.  1.
        -13    1    4    4    0    0 -0.74285547390E+01  0.10947016858E+02 -0.35480817294E+02  0.37867138306E+02  0.10566000000E+00 0. -1.
        -14    1    4    4    0    0 -0.36103592833E+01  0.41334698940E+01 -0.15984857019E+02  0.16900766889E+02  0.00000000000E+00 0.  1.
<mgrwt>
<rscale>  0 0.76121981E+02</rscale>
<asrwt>0</asrwt>
<pdfrwt beam="1">  1        2 0.26265546E-01 0.76121981E+02</pdfrwt>
<pdfrwt beam="2">  1       -1 0.13054102E-02 0.76121981E+02</pdfrwt>
<totfact> 0.23827928E+05</totfact>
</mgrwt>
</event>
<event>
 8    1  0.1520917E-017  0.7639553E+02  0.7818608E-02  0.1339603E+00
         -1   -1    0    0    0  501 -0.00000000000E+00  0.00000000000E+00  0.16246724851E+01  0.16246803025E+01  0.50400000000E-02 0.  1.
          2   -1    0    0  501    0  0.00000000000E+00 -0.00000000000E+00 -0.89806754501E+03  0.89806754502E+03  0.25500000000E-02 0. -1.
         24    2    1    2    0    0  0.00000000000E+00 -0.35527136788E-14 -0.89644287253E+03  0.89969222532E+03  0.76395527315E+02 0.  0.
         66    2    3    3    0    0 -0.21051770301E+02 -0.21697135976E+02 -0.72298491675E+03  0.72361946669E+03  0.19999979220E+01 0.  0.
        -13    1    3    3    0    0  0.21051770301E+02  0.21697135976E+02 -0.17345795578E+03  0.17607275863E+03  0.10566000000E+00 0.  1.
         13    1    4    4    0    0 -0.10948294164E+02 -0.11724604588E+02 -0.37137067921E+03  0.37171699456E+03  0.10566000000E+00 0. -1.
        -13    1    4    4    0    0 -0.56876058100E+00 -0.72300681516E+00 -0.29234159548E+02  0.29248820079E+02  0.10566000000E+00 0.  1.
        -14    1    4    4    0    0 -0.95347155557E+01 -0.92495245721E+01 -0.32238007799E+03  0.32265365206E+03  0.00000000000E+00 0.  1.
<mgrwt>
<rscale>  0 0.76395527E+02</rscale>
<asrwt>0</asrwt>
<pdfrwt beam="1">  1        2 0.13816384E+00 0.76395527E+02</pdfrwt>
<pdfrwt beam="2">  1       -1 0.24995093E-03 0.76395527E+02</pdfrwt>
<totfact> 0.39370297E+05</totfact>
</mgrwt>
</event>
<event>
 8    1  0.1520917E-017  0.8245820E+02  0.7818608E-02  0.1322217E+00
          2   -1    0    0  501    0  0.00000000000E+00  0.00000000000E+00  0.30935670916E+03  0.30935670917E+03  0.25500000000E-02 0. -1.
         -1   -1    0    0    0  501 -0.00000000000E+00 -0.00000000000E+00 -0.54947523276E+01  0.54947546390E+01  0.50400000000E-02 0.  1.
         24    2    1    2    0    0  0.35527136788E-14 -0.71054273576E-14  0.30386195684E+03  0.31485146381E+03  0.82458204280E+02 0.  0.
         66    2    3    3    0    0  0.29856792412E+02  0.25856803129E+02  0.10719244088E+03  0.11425507304E+03  0.20000030588E+01 0.  0.
        -13    1    3    3    0    0 -0.29856792412E+02 -0.25856803129E+02  0.19666951595E+03  0.20059639077E+03  0.10566000000E+00 0.  1.
         13    1    4    4    0    0  0.22756382715E+02  0.20196751828E+02  0.81280569351E+02  0.86788846385E+02  0.10566000000E+00 0. -1.
        -13    1    4    4    0    0  0.34985650338E+00  0.29262901935E+00  0.17398251944E+01  0.18017178077E+01  0.10566000000E+00 0. -1.
        -14    1    4    4    0    0  0.67505531932E+01  0.53674222813E+01  0.24172046339E+02  0.25664508851E+02  0.00000000000E+00 0.  1.
<mgrwt>
<rscale>  0 0.82458204E+02</rscale>
<asrwt>0</asrwt>
<pdfrwt beam="1">  1        2 0.47593342E-01 0.82458204E+02</pdfrwt>
<pdfrwt beam="2">  1       -1 0.84534666E-03 0.82458204E+02</pdfrwt>
<totfact> 0.23810832E+05</totfact>
</mgrwt>
</event>
<event>
 8    1  0.1520917E-017  0.7903026E+02  0.7818608E-02  0.1331826E+00
          2   -1    0    0  501    0  0.00000000000E+00  0.00000000000E+00  0.40896966610E+03  0.40896966610E+03  0.25500000000E-02 0. -1.
         -1   -1    0    0    0  501 -0.00000000000E+00 -0.00000000000E+00 -0.38179967138E+01  0.38180000403E+01  0.50400000000E-02 0.  1.
         24    2    1    2    0    0  0.35527136788E-14  0.00000000000E+00  0.40515166938E+03  0.41278766614E+03  0.79030260772E+02 0.  0.
         66    2    3    3    0    0  0.22623961056E+02 -0.12971093199E+02  0.35759172665E+03  0.35854697856E+03  0.19999987015E+01 0.  0.
        -13    1    3    3    0    0 -0.22623961056E+02  0.12971093199E+02  0.47559942729E+02  0.54240687579E+02  0.10566000000E+00 0.  1.
         13    1    4    4    0    0  0.11701516707E+02 -0.69830170338E+01  0.17946416124E+03  0.17998078885E+03  0.10566000000E+00 0. -1.
        -13    1    4    4    0    0  0.26832225596E+01 -0.16491785228E+01  0.51942669142E+02  0.52038173630E+02  0.10566000000E+00 0.  1.
        -14    1    4    4    0    0  0.82392217885E+01 -0.43388976425E+01  0.12618489627E+03  0.12652801609E+03  0.00000000000E+00 0.  1.
<mgrwt>
<rscale>  0 0.79030261E+02</rscale>
<asrwt>0</asrwt>
<pdfrwt beam="1">  1        2 0.62918439E-01 0.79030261E+02</pdfrwt>
<pdfrwt beam="2">  1       -1 0.58738410E-03 0.79030261E+02</pdfrwt>
<totfact> 0.29393680E+05</totfact>
</mgrwt>
</event>
<event>
 8    1  0.1520917E-017  0.8007993E+02  0.7818608E-02  0.1328825E+00
         -1   -1    0    0    0  501 -0.00000000000E+00  0.00000000000E+00  0.56982715064E+01  0.56982737353E+01  0.50400000000E-02 0.  1.
          2   -1    0    0  501    0  0.00000000000E+00 -0.00000000000E+00 -0.28134823616E+03  0.28134823617E+03  0.25500000000E-02 0. -1.
         24    2    1    2    0    0  0.35527136788E-14  0.00000000000E+00 -0.27564996465E+03  0.28704650990E+03  0.80079934041E+02 0.  0.
         66    2    3    3    0    0 -0.22708663734E+02 -0.32873205408E+02 -0.14581528689E+03  0.15120327027E+03  0.20000014019E+01 0.  0.
        -13    1    3    3    0    0  0.22708663734E+02  0.32873205408E+02 -0.12983467775E+03  0.13584323963E+03  0.10566000000E+00 0.  1.
         13    1    4    4    0    0 -0.12577729501E+02 -0.19088471481E+02 -0.82205349129E+02  0.85324671768E+02  0.10566000000E+00 0. -1.
        -13    1    4    4    0    0 -0.69002537549E+01 -0.99747082065E+01 -0.43780692791E+02  0.45429819844E+02  0.10566000000E+00 0.  1.
        -14    1    4    4    0    0 -0.32306804784E+01 -0.38100257199E+01 -0.19829244974E+02  0.20448778657E+02  0.00000000000E+00 0.  1.
<mgrwt>
<rscale>  0 0.80079934E+02</rscale>
<asrwt>0</asrwt>
<pdfrwt beam="1">  1        2 0.43284333E-01 0.80079934E+02</pdfrwt>
<pdfrwt beam="2">  1       -1 0.87665755E-03 0.80079934E+02</pdfrwt>
<totfact> 0.24843295E+05</totfact>
</mgrwt>
</event>
<event>
 8    1  0.5174870E-017  0.8054511E+02  0.7818608E-02  0.1327512E+00
         -1   -1    0    0    0  501 -0.00000000000E+00  0.00000000000E+00  0.49600346103E+00  0.49602906664E+00  0.50400000000E-02 0.  1.
          2   -1    0    0  501    0  0.00000000000E+00 -0.00000000000E+00 -0.32698094320E+04  0.32698094320E+04  0.25500000000E-02 0. -1.
         24    2    1    2    0    0  0.22204460493E-15 -0.17763568394E-14 -0.32693134285E+04  0.32703054610E+04  0.80545109495E+02 0.  0.
         66    2    3    3    0    0  0.11638637298E+01 -0.11216659852E+02 -0.32043485473E+04  0.32043690144E+04  0.20000008764E+01 0.  0.
        -13    1    3    3    0    0 -0.11638637298E+01  0.11216659852E+02 -0.64964881214E+02  0.65936446615E+02  0.10566000000E+00 0.  1.
         13    1    4    4    0    0  0.76595604110E+00 -0.79732174082E+01 -0.21266948490E+04  0.21267099357E+04  0.10566000000E+00 0. -1.
        -13    1    4    4    0    0  0.33622504131E+00 -0.36313745285E+00 -0.20509152950E+03  0.20509215381E+03  0.10566000000E+00 0.  1.
        -14    1    4    4    0    0  0.61682647394E-01 -0.28803049915E+01 -0.87256216883E+03  0.87256692490E+03  0.00000000000E+00 0.  1.
<mgrwt>
<rscale>  0 0.80545109E+02</rscale>
<asrwt>0</asrwt>
<pdfrwt beam="1">  1        2 0.50303035E+00 0.80545109E+02</pdfrwt>
<pdfrwt beam="2">  1       -1 0.76312813E-04 0.80545109E+02</pdfrwt>
<totfact> 0.11102687E+05</totfact>
</mgrwt>
</event>
<event>
 8    1  0.1520917E-017  0.8110328E+02  0.7818608E-02  0.1325949E+00
         -1   -1    0    0    0  501 -0.00000000000E+00  0.00000000000E+00  0.38178878261E+01  0.38178911527E+01  0.50400000000E-02 0.  1.
          2   -1    0    0  501    0  0.00000000000E+00 -0.00000000000E+00 -0.43071845040E+03  0.43071845041E+03  0.25500000000E-02 0. -1.
         24    2    1    2    0    0 -0.35527136788E-14  0.00000000000E+00 -0.42690056258E+03  0.43453634156E+03  0.81103278668E+02 0.  0.
         66    2    3    3    0    0  0.21422842675E+02 -0.68360042617E+01 -0.39422322033E+03  0.39486911324E+03  0.20000003151E+01 0.  0.
        -13    1    3    3    0    0 -0.21422842675E+02  0.68360042617E+01 -0.32677342252E+02  0.39667228328E+02  0.10566000000E+00 0.  1.
         13    1    4    4    0    0  0.25741277731E+01 -0.10249731900E+01 -0.43450160232E+02  0.43538538010E+02  0.10566000000E+00 0. -1.
        -13    1    4    4    0    0  0.68688341062E+01 -0.28881623069E+01 -0.13018172336E+03  0.13039484125E+03  0.10566000000E+00 0.  1.
        -14    1    4    4    0    0  0.11979880796E+02 -0.29228687648E+01 -0.22059133674E+03  0.22093573398E+03  0.00000000000E+00 0.  1.
<mgrwt>
<rscale>  0 0.81103279E+02</rscale>
<asrwt>0</asrwt>
<pdfrwt beam="1">  1        2 0.66264339E-01 0.81103279E+02</pdfrwt>
<pdfrwt beam="2">  1       -1 0.58736795E-03 0.81103279E+02</pdfrwt>
<totfact> 0.27966904E+05</totfact>
</mgrwt>
</event>
<event>
 8    1  0.1520917E-017  0.8030190E+02  0.7818608E-02  0.1328197E+00
         -1   -1    0    0    0  501 -0.00000000000E+00  0.00000000000E+00  0.84769747920E+00  0.84771246177E+00  0.50400000000E-02 0.  1.
          2   -1    0    0  501    0  0.00000000000E+00 -0.00000000000E+00 -0.19017217292E+04  0.19017217292E+04  0.25500000000E-02 0. -1.
         24    2    1    2    0    0  0.00000000000E+00  0.00000000000E+00 -0.19008740318E+04  0.19025694417E+04  0.80301904593E+02 0.  0.
         66    2    3    3    0    0  0.47200808445E+01  0.11557143518E+02 -0.18545366763E+04  0.18545797719E+04  0.19999996142E+01 0.  0.
        -13    1    3    3    0    0 -0.47200808445E+01 -0.11557143518E+02 -0.46337355494E+02  0.47989669802E+02  0.10566000000E+00 0.  1.
         13    1    4    4    0    0  0.22804517653E+01  0.59609030726E+01 -0.10209598269E+04  0.10209797805E+04  0.10566000000E+00 0. -1.
        -13    1    4    4    0    0  0.22028747986E+01  0.51698262462E+01 -0.71289278905E+03  0.71291494557E+03  0.10566000000E+00 0.  1.
        -14    1    4    4    0    0  0.23675428058E+00  0.42641419942E+00 -0.12068406032E+03  0.12068504587E+03  0.00000000000E+00 0.  1.
<mgrwt>
<rscale>  0 0.80301905E+02</rscale>
<asrwt>0</asrwt>
<pdfrwt beam="1">  1        2 0.29256916E+00 0.80301905E+02</pdfrwt>
<pdfrwt beam="2">  1       -1 0.13041767E-03 0.80301905E+02</pdfrwt>
<totfact> 0.28717860E+05</totfact>
</mgrwt>
</event>
<event>
 8    1  0.1520917E-017  0.8074631E+02  0.7818608E-02  0.1326947E+00
         -1   -1    0    0    0  501 -0.00000000000E+00  0.00000000000E+00  0.11077754402E+03  0.11077754413E+03  0.50400000000E-02 0.  1.
          2   -1    0    0  501    0  0.00000000000E+00 -0.00000000000E+00 -0.14714098396E+02  0.14714098617E+02  0.25500000000E-02 0. -1.
         24    2    1    2    0    0  0.71054273576E-14  0.44408920985E-15  0.96063445623E+02  0.12549164275E+03  0.80746311467E+02 0.  0.
         66    2    3    3    0    0 -0.39774108887E+02 -0.27871261485E+01  0.38450632664E+02  0.55427420848E+02  0.20000049188E+01 0.  0.
        -13    1    3    3    0    0  0.39774108887E+02  0.27871261485E+01  0.57612812959E+02  0.70064221903E+02  0.10566000000E+00 0.  1.
         13    1    4    4    0    0 -0.71271417878E+01 -0.43954942512E+00  0.77284738764E+01  0.10522824063E+02  0.10566000000E+00 0. -1.
        -13    1    4    4    0    0 -0.13134593990E+02 -0.46663468122E+00  0.12676295667E+02  0.18260201069E+02  0.10566000000E+00 0.  1.
         14    1    4    4    0    0 -0.19512373109E+02 -0.18809420421E+01  0.18045863121E+02  0.26644395716E+02  0.00000000000E+00 0. -1.
<mgrwt>
<rscale>  0 0.80746311E+02</rscale>
<asrwt>0</asrwt>
<pdfrwt beam="1">  1        2 0.22637074E-02 0.80746311E+02</pdfrwt>
<pdfrwt beam="2">  1       -1 0.17042700E-01 0.80746311E+02</pdfrwt>
<totfact> 0.11325220E+05</totfact>
</mgrwt>
</event>
<event>
 8    1  0.1520917E-017  0.7961003E+02  0.7818608E-02  0.1330162E+00
         -1   -1    0    0    0  501 -0.00000000000E+00  0.00000000000E+00  0.11374496670E+01  0.11374608330E+01  0.50400000000E-02 0.  1.
          2   -1    0    0  501    0  0.00000000000E+00 -0.00000000000E+00 -0.13929682860E+04  0.13929682860E+04  0.25500000000E-02 0. -1.
         24    2    1    2    0    0  0.00000000000E+00  0.00000000000E+00 -0.13918308363E+04  0.13941057468E+04  0.79610026954E+02 0.  0.
         66    2    3    3    0    0  0.13044208802E+02 -0.18372710467E+02 -0.12704393090E+04  0.12706406832E+04  0.20000010522E+01 0.  0.
        -13    1    3    3    0    0 -0.13044208802E+02  0.18372710467E+02 -0.12139152731E+03  0.12346506364E+03  0.10566000000E+00 0.  1.
         13    1    4    4    0    0  0.29666011418E+01 -0.33814458923E+01 -0.25343154493E+03  0.25347148563E+03  0.10566000000E+00 0. -1.
        -13    1    4    4    0    0  0.40100783959E+00 -0.24783559620E+00 -0.30220981919E+02  0.30224843126E+02  0.10566000000E+00 0.  1.
         14    1    4    4    0    0  0.96765998210E+01 -0.14743428979E+02 -0.98678678215E+03  0.98694435441E+03  0.00000000000E+00 0. -1.
<mgrwt>
<rscale>  0 0.79610027E+02</rscale>
<asrwt>0</asrwt>
<pdfrwt beam="1">  1        2 0.21430145E+00 0.79610027E+02</pdfrwt>
<pdfrwt beam="2">  1       -1 0.17499423E-03 0.79610027E+02</pdfrwt>
<totfact> 0.34496778E+05</totfact>
</mgrwt>
</event>
<event>
 8    1  0.1520917E-017  0.8005250E+02  0.7818608E-02  0.1328903E+00
          2   -1    0    0  501    0  0.00000000000E+00  0.00000000000E+00  0.12335082349E+04  0.12335082349E+04  0.25500000000E-02 0. -1.
         -1   -1    0    0    0  501 -0.00000000000E+00 -0.00000000000E+00 -0.12988115784E+01  0.12988213571E+01  0.50400000000E-02 0.  1.
         24    2    1    2    0    0  0.17763568394E-14 -0.17763568394E-14  0.12322094234E+04  0.12348070563E+04  0.80052503187E+02 0.  0.
         66    2    3    3    0    0 -0.79793981025E+01 -0.13194369493E+02  0.11858206410E+04  0.11859225754E+04  0.20000072719E+01 0.  0.
        -13    1    3    3    0    0  0.79793981025E+01  0.13194369493E+02  0.46388782378E+02  0.48884480921E+02  0.10566000000E+00 0.  1.
         13    1    4    4    0    0 -0.54436473426E+01 -0.86397073706E+01  0.83317019772E+03  0.83323278102E+03  0.10566000000E+00 0. -1.
        -13    1    4    4    0    0 -0.35473981379E+00 -0.11493984211E+01  0.69768262624E+02  0.69778711587E+02  0.10566000000E+00 0.  1.
         14    1    4    4    0    0 -0.21810109461E+01 -0.34052637013E+01  0.28288218064E+03  0.28291108276E+03  0.00000000000E+00 0. -1.
<mgrwt>
<rscale>  0 0.80052503E+02</rscale>
<asrwt>0</asrwt>
<pdfrwt beam="1">  1        2 0.18977042E+00 0.80052503E+02</pdfrwt>
<pdfrwt beam="2">  1       -1 0.19981800E-03 0.80052503E+02</pdfrwt>
<totfact> 0.34859277E+05</totfact>
</mgrwt>
</event>
<event>
 8    1  0.1520917E-017  0.8172516E+02  0.7818608E-02  0.1324226E+00
         -1   -1    0    0    0  501 -0.00000000000E+00  0.00000000000E+00  0.21943769415E+01  0.21943827294E+01  0.50400000000E-02 0.  1.
          2   -1    0    0  501    0  0.00000000000E+00 -0.00000000000E+00 -0.76092136595E+03  0.76092136596E+03  0.25500000000E-02 0. -1.
         24    2    1    2    0    0  0.00000000000E+00  0.00000000000E+00 -0.75872698901E+03  0.76311574869E+03  0.81725161603E+02 0.  0.
         66    2    3    3    0    0  0.14053384471E+02 -0.15739959453E+02 -0.70607213429E+03  0.70639019159E+03  0.20000021305E+01 0.  0.
        -13    1    3    3    0    0 -0.14053384471E+02  0.15739959453E+02 -0.52654854720E+02  0.56725557100E+02  0.10566000000E+00 0.  1.
         13    1    4    4    0    0  0.96060741647E+00 -0.68668452039E+00 -0.37198881804E+02  0.37217768253E+02  0.10566000000E+00 0. -1.
        -13    1    4    4    0    0  0.10723476234E+02 -0.11792751044E+02 -0.54957976121E+03  0.54981086477E+03  0.10566000000E+00 0.  1.
         14    1    4    4    0    0  0.23693008201E+01 -0.32605238882E+01 -0.11929349128E+03  0.11936155856E+03  0.00000000000E+00 0. -1.
<mgrwt>
<rscale>  0 0.81725162E+02</rscale>
<asrwt>0</asrwt>
<pdfrwt beam="1">  1        2 0.11706461E+00 0.81725162E+02</pdfrwt>
<pdfrwt beam="2">  1       -1 0.33759751E-03 0.81725162E+02</pdfrwt>
<totfact> 0.32212140E+05</totfact>
</mgrwt>
</event>
<event>
 8    1  0.1520917E-017  0.8158557E+02  0.7818608E-02  0.1324611E+00
          2   -1    0    0  501    0  0.00000000000E+00  0.00000000000E+00  0.22082494707E+03  0.22082494708E+03  0.25500000000E-02 0. -1.
         -1   -1    0    0    0  501 -0.00000000000E+00 -0.00000000000E+00 -0.75356113045E+01  0.75356129899E+01  0.50400000000E-02 0.  1.
         24    2    1    2    0    0 -0.17763568394E-14 -0.71054273576E-14  0.21328933576E+03  0.22836056007E+03  0.81585566409E+02 0.  0.
         66    2    3    3    0    0 -0.12181591505E+02 -0.35832194219E+02  0.14913111431E+03  0.15387146115E+03  0.19999967536E+01 0.  0.
        -13    1    3    3    0    0  0.12181591505E+02  0.35832194219E+02  0.64158221454E+02  0.74489098923E+02  0.10566000000E+00 0.  1.
         13    1    4    4    0    0 -0.23380683690E+01 -0.87454857934E+01  0.37627461150E+02  0.38701254270E+02  0.10566000000E+00 0. -1.
        -13    1    4    4    0    0 -0.25994833488E+01 -0.76064483961E+01  0.30024205014E+02  0.31081818185E+02  0.10566000000E+00 0.  1.
         14    1    4    4    0    0 -0.72440397871E+01 -0.19480260030E+02  0.81479448146E+02  0.84088388696E+02  0.00000000000E+00 0. -1.
<mgrwt>
<rscale>  0 0.81585566E+02</rscale>
<asrwt>0</asrwt>
<pdfrwt beam="1">  1        2 0.33973068E-01 0.81585566E+02</pdfrwt>
<pdfrwt beam="2">  1       -1 0.11593250E-02 0.81585566E+02</pdfrwt>
<totfact> 0.21685585E+05</totfact>
</mgrwt>
</event>
<event>
 8    1  0.1520917E-017  0.8222915E+02  0.7818608E-02  0.1322842E+00
          2   -1    0    0  501    0  0.00000000000E+00  0.00000000000E+00  0.88069929137E+01  0.88069932829E+01  0.25500000000E-02 0. -1.
         -1   -1    0    0    0  501 -0.00000000000E+00 -0.00000000000E+00 -0.19193931885E+03  0.19193931892E+03  0.50400000000E-02 0.  1.
         24    2    1    2    0    0  0.00000000000E+00 -0.71054273576E-14 -0.18313232594E+03  0.20074631220E+03  0.82229149690E+02 0.  0.
         66    2    3    3    0    0 -0.70572703905E+01 -0.39949401616E+02 -0.10756238071E+03  0.11497576049E+03  0.20000004038E+01 0.  0.
        -13    1    3    3    0    0  0.70572703905E+01  0.39949401616E+02 -0.75569945232E+02  0.85770551714E+02  0.10566000000E+00 0.  1.
         13    1    4    4    0    0 -0.53780182612E+01 -0.29704567979E+02 -0.81305844982E+02  0.86729095646E+02  0.10566000000E+00 0. -1.
        -13    1    4    4    0    0 -0.26713360683E+00 -0.38381830272E+01 -0.10153896868E+02  0.10858903948E+02  0.10566000000E+00 0.  1.
         14    1    4    4    0    0 -0.14121185225E+01 -0.64066506095E+01 -0.16102638856E+02  0.17387760893E+02  0.00000000000E+00 0. -1.
<mgrwt>
<rscale>  0 0.82229150E+02</rscale>
<asrwt>0</asrwt>
<pdfrwt beam="1">  1        2 0.13549222E-02 0.82229150E+02</pdfrwt>
<pdfrwt beam="2">  1       -1 0.29529123E-01 0.82229150E+02</pdfrwt>
<totfact> 0.94025264E+04</totfact>
</mgrwt>
</event>
<event>
 8    1  0.1520917E-017  0.7982705E+02  0.7818608E-02  0.1329543E+00
         -1   -1    0    0    0  501 -0.00000000000E+00  0.00000000000E+00  0.15608554309E+02  0.15608555123E+02  0.50400000000E-02 0.  1.
          2   -1    0    0  501    0  0.00000000000E+00 -0.00000000000E+00 -0.10206514792E+03  0.10206514795E+03  0.25500000000E-02 0. -1.
         24    2    1    2    0    0  0.55511151231E-16  0.00000000000E+00 -0.86456593611E+02  0.11767370308E+03  0.79827049404E+02 0.  0.
         66    2    3    3    0    0  0.36778475400E+00  0.37757900807E+02 -0.62207260179E+02  0.72797922582E+02  0.19999935757E+01 0.  0.
        -13    1    3    3    0    0 -0.36778475400E+00 -0.37757900807E+02 -0.24249333432E+02  0.44875780494E+02  0.10566000000E+00 0.  1.
         13    1    4    4    0    0  0.19351461056E+00  0.19173157931E+02 -0.32554280826E+02  0.37781474258E+02  0.10566000000E+00 0. -1.
        -13    1    4    4    0    0 -0.88340457643E-01  0.40242655906E+00 -0.49213702566E+00  0.65047218197E+00  0.10566000000E+00 0.  1.
         14    1    4    4    0    0  0.26261060108E+00  0.18182316316E+02 -0.29160842327E+02  0.34365976142E+02  0.00000000000E+00 0. -1.
<mgrwt>
<rscale>  0 0.79827049E+02</rscale>
<asrwt>0</asrwt>
<pdfrwt beam="1">  1        2 0.15702330E-01 0.79827049E+02</pdfrwt>
<pdfrwt beam="2">  1       -1 0.24013162E-02 0.79827049E+02</pdfrwt>
<totfact> 0.17931541E+05</totfact>
</mgrwt>
</event>
<event>
 8    1  0.1520917E-017  0.7718967E+02  0.7818608E-02  0.1337221E+00
          2   -1    0    0  501    0  0.00000000000E+00  0.00000000000E+00  0.41645842165E+03  0.41645842166E+03  0.25500000000E-02 0. -1.
         -1   -1    0    0    0  501 -0.00000000000E+00 -0.00000000000E+00 -0.35767326509E+01  0.35767362018E+01  0.50400000000E-02 0.  1.
         24    2    1    2    0    0  0.00000000000E+00  0.00000000000E+00  0.41288168900E+03  0.42003515786E+03  0.77189667232E+02 0.  0.
         66    2    3    3    0    0 -0.20888134369E+02  0.30275112329E+02  0.26972496527E+03  0.27222867865E+03  0.20000011788E+01 0.  0.
        -13    1    3    3    0    0  0.20888134369E+02 -0.30275112329E+02  0.14315672373E+03  0.14780647921E+03  0.10566000000E+00 0.  1.
         13    1    4    4    0    0 -0.29322573809E+01  0.50154877947E+01  0.44985405902E+02  0.45359135347E+02  0.10566000000E+00 0.  1.
        -13    1    4    4    0    0 -0.50561080488E+01  0.62195034537E+01  0.57674008760E+02  0.58228420057E+02  0.10566000000E+00 0. -1.
        -14    1    4    4    0    0 -0.12899768940E+02  0.19040121081E+02  0.16706555061E+03  0.16864112324E+03  0.00000000000E+00 0.  1.
<mgrwt>
<rscale>  0 0.77189667E+02</rscale>
<asrwt>0</asrwt>
<pdfrwt beam="1">  1        2 0.64070501E-01 0.77189667E+02</pdfrwt>
<pdfrwt beam="2">  1       -1 0.55026706E-03 0.77189667E+02</pdfrwt>
<totfact> 0.31451359E+05</totfact>
</mgrwt>
</event>
<event>
 8    1  0.1520917E-017  0.8052858E+02  0.7818608E-02  0.1327558E+00
          2   -1    0    0  501    0  0.00000000000E+00  0.00000000000E+00  0.32124160085E+03  0.32124160086E+03  0.25500000000E-02 0. -1.
         -1   -1    0    0    0  501 -0.00000000000E+00 -0.00000000000E+00 -0.50467081880E+01  0.50467107047E+01  0.50400000000E-02 0.  1.
         24    2    1    2    0    0  0.00000000000E+00 -0.71054273576E-14  0.31619489267E+03  0.32628831157E+03  0.80528579513E+02 0.  0.
         66    2    3    3    0    0  0.20759424752E+02 -0.32343064904E+02  0.20650852499E+03  0.21006379616E+03  0.20000003545E+01 0.  0.
        -13    1    3    3    0    0 -0.20759424752E+02  0.32343064904E+02  0.10968636768E+03  0.11622451541E+03  0.10566000000E+00 0.  1.
         13    1    4    4    0    0  0.64747465499E+01 -0.91913951785E+01  0.62220200216E+02  0.63227909717E+02  0.10566000000E+00 0. -1.
        -13    1    4    4    0    0  0.89886462183E+01 -0.15066350065E+02  0.95927814178E+02  0.97518958988E+02  0.10566000000E+00 0.  1.
        -14    1    4    4    0    0  0.52960319833E+01 -0.80853196600E+01  0.48360510594E+02  0.49316927455E+02  0.00000000000E+00 0.  1.
<mgrwt>
<rscale>  0 0.80528580E+02</rscale>
<asrwt>0</asrwt>
<pdfrwt beam="1">  1        2 0.49421801E-01 0.80528580E+02</pdfrwt>
<pdfrwt beam="2">  1       -1 0.77641658E-03 0.80528580E+02</pdfrwt>
<totfact> 0.25685651E+05</totfact>
</mgrwt>
</event>
<event>
 8    1  0.1520917E-017  0.8000295E+02  0.7818608E-02  0.1329043E+00
         -1   -1    0    0    0  501 -0.00000000000E+00  0.00000000000E+00  0.15670769806E+01  0.15670850853E+01  0.50400000000E-02 0.  1.
          2   -1    0    0  501    0  0.00000000000E+00 -0.00000000000E+00 -0.10210819437E+04  0.10210819437E+04  0.25500000000E-02 0. -1.
         24    2    1    2    0    0  0.00000000000E+00  0.00000000000E+00 -0.10195148667E+04  0.10226490288E+04  0.80002953822E+02 0.  0.
         66    2    3    3    0    0 -0.71195701337E+01 -0.83353314050E+01 -0.10014919679E+04  0.10015539565E+04  0.20000005358E+01 0.  0.
        -13    1    3    3    0    0  0.71195701337E+01  0.83353314050E+01 -0.18022898809E+02  0.21095072269E+02  0.10566000000E+00 0.  1.
         13    1    4    4    0    0 -0.80117332976E+00 -0.63383693496E+00 -0.97883276151E+02  0.97888664012E+02  0.10566000000E+00 0. -1.
        -13    1    4    4    0    0 -0.55182241384E+01 -0.62818788158E+01 -0.80120156562E+03  0.80124520137E+03  0.10566000000E+00 0.  1.
        -14    1    4    4    0    0 -0.80017266552E+00 -0.14196156543E+01 -0.10240712616E+03  0.10242009116E+03  0.00000000000E+00 0.  1.
<mgrwt>
<rscale>  0 0.80002954E+02</rscale>
<asrwt>0</asrwt>
<pdfrwt beam="1">  1        2 0.15708900E+00 0.80002954E+02</pdfrwt>
<pdfrwt beam="2">  1       -1 0.24109021E-03 0.80002954E+02</pdfrwt>
<totfact> 0.35253095E+05</totfact>
</mgrwt>
</event>
<event>
 8    1  0.1520917E-017  0.7648565E+02  0.7818608E-02  0.1339331E+00
         -1   -1    0    0    0  501 -0.00000000000E+00  0.00000000000E+00  0.40760556421E+01  0.40760587580E+01  0.50400000000E-02 0.  1.
          2   -1    0    0  501    0  0.00000000000E+00 -0.00000000000E+00 -0.35880599323E+03  0.35880599324E+03  0.25500000000E-02 0. -1.
         24    2    1    2    0    0  0.00000000000E+00  0.00000000000E+00 -0.35472993759E+03  0.36288205200E+03  0.76485652514E+02 0.  0.
         66    2    3    3    0    0  0.28843744555E+02 -0.19937733209E+02 -0.24960055653E+03  0.25205934344E+03  0.19999978857E+01 0.  0.
        -13    1    3    3    0    0 -0.28843744555E+02  0.19937733209E+02 -0.10512938106E+03  0.11082270855E+03  0.10566000000E+00 0.  1.
         13    1    4    4    0    0  0.26848581184E+02 -0.19057975450E+02 -0.23540253480E+03  0.23769395721E+03  0.10566000000E+00 0. -1.
        -13    1    4    4    0    0  0.91718476675E+00 -0.39259245029E+00 -0.64114276062E+01  0.64894471809E+01  0.10566000000E+00 0.  1.
         14    1    4    4    0    0  0.10779786051E+01 -0.48716530940E+00 -0.77865941197E+01  0.78759390486E+01  0.00000000000E+00 0. -1.
<mgrwt>
<rscale>  0 0.76485653E+02</rscale>
<asrwt>0</asrwt>
<pdfrwt beam="1">  1        2 0.55200897E-01 0.76485653E+02</pdfrwt>
<pdfrwt beam="2">  1       -1 0.62708601E-03 0.76485653E+02</pdfrwt>
<totfact> 0.30571389E+05</totfact>
</mgrwt>
</event>
<event>
 8    1  0.1520917E-017  0.8272664E+02  0.7818608E-02  0.1321487E+00
         -1   -1    0    0    0  501 -0.00000000000E+00  0.00000000000E+00  0.43326945722E+01  0.43326975036E+01  0.50400000000E-02 0.  1.
          2   -1    0    0  501    0  0.00000000000E+00 -0.00000000000E+00 -0.39488677976E+03  0.39488677977E+03  0.25500000000E-02 0. -1.
         24    2    1    2    0    0  0.00000000000E+00  0.00000000000E+00 -0.39055408518E+03  0.39921947727E+03  0.82726643690E+02 0.  0.
         66    2    3    3    0    0 -0.29840693719E+02 -0.10822484334E+02 -0.32318953448E+03  0.32475077898E+03  0.20000207638E+01 0.  0.
        -13    1    3    3    0    0  0.29840693719E+02  0.10822484334E+02 -0.67364550702E+02  0.74468698284E+02  0.10566000000E+00 0.  1.
         13    1    4    4    0    0 -0.20586985529E+02 -0.81488664790E+01 -0.22576357279E+03  0.22684671028E+03  0.10566000000E+00 0. -1.
        -13    1    4    4    0    0 -0.45801940714E+00 -0.28159453753E+00 -0.52599671028E+01  0.52884303171E+01  0.10566000000E+00 0.  1.
         14    1    4    4    0    0 -0.87956887829E+01 -0.23920233177E+01 -0.92165994586E+02  0.92615638392E+02  0.00000000000E+00 0. -1.
<mgrwt>
<rscale>  0 0.82726644E+02</rscale>
<asrwt>0</asrwt>
<pdfrwt beam="1">  1        2 0.60751784E-01 0.82726644E+02</pdfrwt>
<pdfrwt beam="2">  1       -1 0.66656894E-03 0.82726644E+02</pdfrwt>
<totfact> 0.25764835E+05</totfact>
</mgrwt>
</event>
<event>
 8    1  0.1520917E-017  0.8115065E+02  0.7818608E-02  0.1325817E+00
         -1   -1    0    0    0  501 -0.00000000000E+00  0.00000000000E+00  0.82520613509E+01  0.82520628900E+01  0.50400000000E-02 0.  1.
          2   -1    0    0  501    0  0.00000000000E+00 -0.00000000000E+00 -0.19950855780E+03  0.19950855782E+03  0.25500000000E-02 0. -1.
         24    2    1    2    0    0  0.00000000000E+00  0.00000000000E+00 -0.19125649645E+03  0.20776062071E+03  0.81150650536E+02 0.  0.
         66    2    3    3    0    0  0.13749159634E+02 -0.10015583605E+02 -0.18992741138E+03  0.19069811982E+03  0.20000007868E+01 0.  0.
        -13    1    3    3    0    0 -0.13749159634E+02  0.10015583605E+02 -0.13290850750E+01  0.17062500894E+02  0.10566000000E+00 0.  1.
         13    1    4    4    0    0  0.10108231721E+02 -0.83009226769E+01 -0.14687016819E+03  0.14745148061E+03  0.10566000000E+00 0. -1.
        -13    1    4    4    0    0  0.36243978236E+01 -0.17259898394E+01 -0.42964047022E+02  0.43151312854E+02  0.10566000000E+00 0.  1.
         14    1    4    4    0    0  0.16530088702E-01  0.11328911176E-01 -0.93196164629E-01  0.95326350829E-01  0.00000000000E+00 0. -1.
<mgrwt>
<rscale>  0 0.81150651E+02</rscale>
<asrwt>0</asrwt>
<pdfrwt beam="1">  1        2 0.30693620E-01 0.81150651E+02</pdfrwt>
<pdfrwt beam="2">  1       -1 0.12695482E-02 0.81150651E+02</pdfrwt>
<totfact> 0.21224051E+05</totfact>
</mgrwt>
</event>
<event>
 8    1  0.1625370E-017  0.7772891E+02  0.7818608E-02  0.1335623E+00
         -1   -1    0    0    0  501 -0.00000000000E+00  0.00000000000E+00  0.12226955508E+01  0.12227059383E+01  0.50400000000E-02 0.  1.
          2   -1    0    0  501    0  0.00000000000E+00 -0.00000000000E+00 -0.12353355767E+04  0.12353355767E+04  0.25500000000E-02 0. -1.
         24    2    1    2    0    0  0.00000000000E+00  0.00000000000E+00 -0.12341128811E+04  0.12365582826E+04  0.77728906782E+02 0.  0.
         66    2    3    3    0    0  0.16541453230E+02  0.10673458912E+02 -0.11500809914E+04  0.11502512026E+04  0.19999963304E+01 0.  0.
        -13    1    3    3    0    0 -0.16541453230E+02 -0.10673458912E+02 -0.84031889734E+02  0.86307079990E+02  0.10566000000E+00 0.  1.
         13    1    4    4    0    0  0.96279826615E+01  0.60232255112E+01 -0.64798111499E+03  0.64808063838E+03  0.10566000000E+00 0. -1.
        -13    1    4    4    0    0  0.47336808489E+01  0.34140595866E+01 -0.38149524890E+03  0.38153990569E+03  0.10566000000E+00 0.  1.
        -14    1    4    4    0    0  0.21797897192E+01  0.12361738146E+01 -0.12060462750E+03  0.12063065856E+03  0.00000000000E+00 0.  1.
<mgrwt>
<rscale>  0 0.77728907E+02</rscale>
<asrwt>0</asrwt>
<pdfrwt beam="1">  1        2 0.19005063E+00 0.77728907E+02</pdfrwt>
<pdfrwt beam="2">  1       -1 0.18810880E-03 0.77728907E+02</pdfrwt>
<totfact> 0.37618027E+05</totfact>
</mgrwt>
</event>
<event>
 8    1  0.1520917E-017  0.7958196E+02  0.7818608E-02  0.1330242E+00
         -1   -1    0    0    0  501 -0.00000000000E+00  0.00000000000E+00  0.47462969305E+01  0.47462996065E+01  0.50400000000E-02 0.  1.
          2   -1    0    0  501    0  0.00000000000E+00 -0.00000000000E+00 -0.33359092703E+03  0.33359092704E+03  0.25500000000E-02 0. -1.
         24    2    1    2    0    0 -0.88817841970E-15  0.00000000000E+00 -0.32884463010E+03  0.33833722665E+03  0.79581958945E+02 0.  0.
         66    2    3    3    0    0  0.22595174649E+01  0.39490518737E+02 -0.14714661518E+03  0.15238350584E+03  0.20000015034E+01 0.  0.
        -13    1    3    3    0    0 -0.22595174649E+01 -0.39490518737E+02 -0.18169801493E+03  0.18595372081E+03  0.10566000000E+00 0.  1.
         13    1    4    4    0    0 -0.25868200334E+00  0.26058083639E+01 -0.91782032467E+01  0.95450370602E+01  0.10566000000E+00 0. -1.
        -13    1    4    4    0    0  0.89949188848E+00  0.12015447179E+02 -0.43507083663E+02  0.45144850753E+02  0.10566000000E+00 0.  1.
         14    1    4    4    0    0  0.16187075797E+01  0.24869263194E+02 -0.94461328265E+02  0.97693618030E+02  0.00000000000E+00 0. -1.
<mgrwt>
<rscale>  0 0.79581959E+02</rscale>
<asrwt>0</asrwt>
<pdfrwt beam="1">  1        2 0.51321663E-01 0.79581959E+02</pdfrwt>
<pdfrwt beam="2">  1       -1 0.73020000E-03 0.79581959E+02</pdfrwt>
<totfact> 0.26855752E+05</totfact>
</mgrwt>
</event>
<event>
 8    1  0.1520917E-017  0.8135327E+02  0.7818608E-02  0.1325254E+00
          2   -1    0    0  501    0  0.00000000000E+00  0.00000000000E+00  0.22073853560E+03  0.22073853561E+03  0.25500000000E-02 0. -1.
         -1   -1    0    0    0  501 -0.00000000000E+00 -0.00000000000E+00 -0.74956939452E+01  0.74956956396E+01  0.50400000000E-02 0.  1.
         24    2    1    2    0    0 -0.71054273576E-14  0.00000000000E+00  0.21324284165E+03  0.22823423125E+03  0.81353271595E+02 0.  0.
         66    2    3    3    0    0 -0.39619347851E+02  0.83308517766E+01  0.11698902003E+03  0.12381246553E+03  0.19999994213E+01 0.  0.
        -13    1    3    3    0    0  0.39619347851E+02 -0.83308517766E+01  0.96253821624E+02  0.10442176572E+03  0.10566000000E+00 0.  1.
         13    1    4    4    0    0 -0.16021135922E+02  0.31301594324E+01  0.48606999040E+02  0.51275005743E+02  0.10566000000E+00 0. -1.
        -13    1    4    4    0    0 -0.16779958754E+02  0.39668229638E+01  0.50297289146E+02  0.53170773548E+02  0.10566000000E+00 0.  1.
        -14    1    4    4    0    0 -0.68182531742E+01  0.12338693804E+01  0.18084731845E+02  0.19366686239E+02  0.00000000000E+00 0.  1.
<mgrwt>
<rscale>  0 0.81353272E+02</rscale>
<asrwt>0</asrwt>
<pdfrwt beam="1">  1        2 0.33959769E-01 0.81353272E+02</pdfrwt>
<pdfrwt beam="2">  1       -1 0.11531840E-02 0.81353272E+02</pdfrwt>
<totfact> 0.21846358E+05</totfact>
</mgrwt>
</event>
<event>
 8    1  0.1520917E-017  0.8080871E+02  0.7818608E-02  0.1326772E+00
          2   -1    0    0  501    0  0.00000000000E+00  0.00000000000E+00  0.34304884501E+03  0.34304884502E+03  0.25500000000E-02 0. -1.
         -1   -1    0    0    0  501 -0.00000000000E+00 -0.00000000000E+00 -0.47588310205E+01  0.47588336894E+01  0.50400000000E-02 0.  1.
         24    2    1    2    0    0  0.00000000000E+00  0.00000000000E+00  0.33829001399E+03  0.34780767871E+03  0.80808711189E+02 0.  0.
         66    2    3    3    0    0  0.39763816315E+02 -0.66176732715E+01  0.15910647663E+03  0.16414574495E+03  0.19999980160E+01 0.  0.
        -13    1    3    3    0    0 -0.39763816315E+02  0.66176732715E+01  0.17918353736E+03  0.18366193376E+03  0.10566000000E+00 0.  1.
         13    1    4    4    0    0  0.18058763938E+02 -0.24123499957E+01  0.72464667245E+02  0.74719994315E+02  0.10566000000E+00 0. -1.
        -13    1    4    4    0    0  0.14342216335E+02 -0.23815443323E+01  0.55341853278E+02  0.57219776398E+02  0.10566000000E+00 0.  1.
        -14    1    4    4    0    0  0.73628360424E+01 -0.18237789434E+01  0.31299956109E+02  0.32205974239E+02  0.00000000000E+00 0.  1.
<mgrwt>
<rscale>  0 0.80808711E+02</rscale>
<asrwt>0</asrwt>
<pdfrwt beam="1">  1        2 0.52776761E-01 0.80808711E+02</pdfrwt>
<pdfrwt beam="2">  1       -1 0.73212784E-03 0.80808711E+02</pdfrwt>
<totfact> 0.26061479E+05</totfact>
</mgrwt>
</event>
<event>
 8    1  0.1520917E-017  0.7625408E+02  0.7818608E-02  0.1340031E+00
         -1   -1    0    0    0  501 -0.00000000000E+00  0.00000000000E+00  0.12125627114E+03  0.12125627125E+03  0.50400000000E-02 0.  1.
          2   -1    0    0  501    0  0.00000000000E+00 -0.00000000000E+00 -0.11988420980E+02  0.11988421252E+02  0.25500000000E-02 0. -1.
         24    2    1    2    0    0 -0.35527136788E-14  0.00000000000E+00  0.10926785016E+03  0.13324469250E+03  0.76254081858E+02 0.  0.
         66    2    3    3    0    0  0.31402575051E+02 -0.20991820851E+02  0.45954091340E+02  0.59519381495E+02  0.20000000326E+01 0.  0.
        -13    1    3    3    0    0 -0.31402575051E+02  0.20991820851E+02  0.63313758821E+02  0.73725311004E+02  0.10566000000E+00 0.  1.
         13    1    4    4    0    0  0.67757153045E+01 -0.41182540652E+01  0.87242533621E+01  0.11789575700E+02  0.10566000000E+00 0.  1.
        -13    1    4    4    0    0  0.12204919191E+02 -0.85580811075E+01  0.19279861866E+02  0.24370577390E+02  0.10566000000E+00 0. -1.
         14    1    4    4    0    0  0.12421940556E+02 -0.83154856787E+01  0.17949976112E+02  0.23359228405E+02  0.00000000000E+00 0. -1.
<mgrwt>
<rscale>  0 0.76254082E+02</rscale>
<asrwt>0</asrwt>
<pdfrwt beam="1">  1        2 0.18443727E-02 0.76254082E+02</pdfrwt>
<pdfrwt beam="2">  1       -1 0.18654809E-01 0.76254082E+02</pdfrwt>
<totfact> 0.12809968E+05</totfact>
</mgrwt>
</event>
<event>
 8    1  0.1520917E-017  0.8010946E+02  0.7818608E-02  0.1328741E+00
          2   -1    0    0  501    0  0.00000000000E+00  0.00000000000E+00  0.69092075579E+02  0.69092075626E+02  0.25500000000E-02 0. -1.
         -1   -1    0    0    0  501 -0.00000000000E+00 -0.00000000000E+00 -0.23220914538E+02  0.23220915085E+02  0.50400000000E-02 0.  1.
         24    2    1    2    0    0 -0.88817841970E-15 -0.35527136788E-14  0.45871161041E+02  0.92312990711E+02  0.80109455364E+02 0.  0.
         66    2    3    3    0    0 -0.64618225777E+01 -0.26734502705E+02  0.56464536177E+02  0.62838942011E+02  0.20000003836E+01 0.  0.
        -13    1    3    3    0    0  0.64618225777E+01  0.26734502705E+02 -0.10593375136E+02  0.29474048699E+02  0.10566000000E+00 0.  1.
         13    1    4    4    0    0 -0.25603773028E+01 -0.12009794537E+02  0.25077269284E+02  0.27922594714E+02  0.10566000000E+00 0. -1.
        -13    1    4    4    0    0 -0.26248822246E+01 -0.81492055782E+01  0.16408007063E+02  0.18507658363E+02  0.10566000000E+00 0.  1.
        -14    1    4    4    0    0 -0.12765630503E+01 -0.65755025902E+01  0.14979259829E+02  0.16408688935E+02  0.00000000000E+00 0.  1.
<mgrwt>
<rscale>  0 0.80109455E+02</rscale>
<asrwt>0</asrwt>
<pdfrwt beam="1">  1        2 0.10629550E-01 0.80109455E+02</pdfrwt>
<pdfrwt beam="2">  1       -1 0.35724484E-02 0.80109455E+02</pdfrwt>
<totfact> 0.16035745E+05</totfact>
</mgrwt>
</event>
<event>
 8    1  0.1520917E-017  0.7997202E+02  0.7818608E-02  0.1329131E+00
          2   -1    0    0  501    0  0.00000000000E+00  0.00000000000E+00  0.51023134111E+03  0.51023134111E+03  0.25500000000E-02 0. -1.
         -1   -1    0    0    0  501 -0.00000000000E+00 -0.00000000000E+00 -0.31336371536E+01  0.31336412066E+01  0.50400000000E-02 0.  1.
         24    2    1    2    0    0 -0.17763568394E-14  0.00000000000E+00  0.50709770395E+03  0.51336498232E+03  0.79972018341E+02 0.  0.
         66    2    3    3    0    0 -0.10668664430E+02  0.14930813891E+02  0.48158122844E+03  0.48193488065E+03  0.19999999143E+01 0.  0.
        -13    1    3    3    0    0  0.10668664430E+02 -0.14930813891E+02  0.25516475514E+02  0.31430101668E+02  0.10566000000E+00 0.  1.
         13    1    4    4    0    0 -0.14626801605E+01  0.17066424615E+01  0.63126538222E+02  0.63166629273E+02  0.10566000000E+00 0.  1.
        -13    1    4    4    0    0 -0.15628776036E+01  0.34198701290E+01  0.91289247236E+02  0.91366711241E+02  0.10566000000E+00 0.  1.
         14    1    4    4    0    0 -0.76431066664E+01  0.98043013002E+01  0.32716544298E+03  0.32740154014E+03  0.00000000000E+00 0. -1.
<mgrwt>
<rscale>  0 0.79972018E+02</rscale>
<asrwt>0</asrwt>
<pdfrwt beam="1">  1        2 0.78497135E-01 0.79972018E+02</pdfrwt>
<pdfrwt beam="2">  1       -1 0.48209830E-03 0.79972018E+02</pdfrwt>
<totfact> 0.30675312E+05</totfact>
</mgrwt>
</event>
<event>
 8    1  0.1520917E-017  0.7986452E+02  0.7818608E-02  0.1329436E+00
         -1   -1    0    0    0  501 -0.00000000000E+00  0.00000000000E+00  0.83004330299E+02  0.83004330452E+02  0.50400000000E-02 0.  1.
          2   -1    0    0  501    0  0.00000000000E+00 -0.00000000000E+00 -0.19210870926E+02  0.19210871096E+02  0.25500000000E-02 0. -1.
         24    2    1    2    0    0 -0.17763568394E-14 -0.71054273576E-14  0.63793459372E+02  0.10221520155E+03  0.79864522591E+02 0.  0.
         66    2    3    3    0    0  0.15382926477E+02 -0.36726557117E+02  0.28504923173E+02  0.49010254637E+02  0.19999974376E+01 0.  0.
        -13    1    3    3    0    0 -0.15382926477E+02  0.36726557117E+02  0.35288536199E+02  0.53204946911E+02  0.10566000000E+00 0.  1.
         13    1    4    4    0    0  0.10345755169E+02 -0.24002933656E+02  0.18785010737E+02  0.32187936662E+02  0.10566000000E+00 0. -1.
        -13    1    4    4    0    0  0.86703592161E+00 -0.31352212975E+01  0.26954202176E+01  0.42258511638E+01  0.10566000000E+00 0.  1.
        -14    1    4    4    0    0  0.41701353870E+01 -0.95884021631E+01  0.70244922192E+01  0.12596466811E+02  0.00000000000E+00 0.  1.
<mgrwt>
<rscale>  0 0.79864523E+02</rscale>
<asrwt>0</asrwt>
<pdfrwt beam="1">  1        2 0.29555186E-02 0.79864523E+02</pdfrwt>
<pdfrwt beam="2">  1       -1 0.12769897E-01 0.79864523E+02</pdfrwt>
<totfact> 0.12374885E+05</totfact>
</mgrwt>
</event>
<event>
 8    1  0.1520917E-017  0.8041997E+02  0.7818608E-02  0.1327864E+00
         -1   -1    0    0    0  501 -0.00000000000E+00  0.00000000000E+00  0.22701136734E+01  0.22701192682E+01  0.50400000000E-02 0.  1.
          2   -1    0    0  501    0  0.00000000000E+00 -0.00000000000E+00 -0.71222904477E+03  0.71222904478E+03  0.25500000000E-02 0. -1.
         24    2    1    2    0    0  0.00000000000E+00  0.00000000000E+00 -0.70995893110E+03  0.71449916404E+03  0.80419969995E+02 0.  0.
         66    2    3    3    0    0 -0.12932438358E+02  0.75566248227E+01 -0.68649833444E+03  0.68666462973E+03  0.20000002306E+01 0.  0.
        -13    1    3    3    0    0  0.12932438358E+02 -0.75566248227E+01 -0.23460596662E+02  0.27834534312E+02  0.10566000000E+00 0.  1.
         13    1    4    4    0    0 -0.16830291421E+01  0.54369273713E+00 -0.86735313973E+02  0.86753409402E+02  0.10566000000E+00 0. -1.
        -13    1    4    4    0    0 -0.93977542078E+01  0.64402912566E+01 -0.51651346317E+03  0.51663910414E+03  0.10566000000E+00 0.  1.
        -14    1    4    4    0    0 -0.18516550083E+01  0.57264082896E+00 -0.83249557297E+02  0.83272116185E+02  0.00000000000E+00 0.  1.
<mgrwt>
<rscale>  0 0.80419970E+02</rscale>
<asrwt>0</asrwt>
<pdfrwt beam="1">  1        2 0.10957352E+00 0.80419970E+02</pdfrwt>
<pdfrwt beam="2">  1       -1 0.34924926E-03 0.80419970E+02</pdfrwt>
<totfact> 0.33128584E+05</totfact>
</mgrwt>
</event>
<event>
 8    1  0.1520917E-017  0.7967637E+02  0.7818608E-02  0.1329972E+00
          2   -1    0    0  501    0  0.00000000000E+00  0.00000000000E+00  0.32297998930E+03  0.32297998931E+03  0.25500000000E-02 0. -1.
         -1   -1    0    0    0  501 -0.00000000000E+00 -0.00000000000E+00 -0.49138660510E+01  0.49138686357E+01  0.50400000000E-02 0.  1.
         24    2    1    2    0    0  0.35527136788E-14  0.35527136788E-14  0.31806612325E+03  0.32789385795E+03  0.79676366132E+02 0.  0.
         66    2    3    3    0    0 -0.26917500573E+02  0.29334687591E+02  0.15908385739E+03  0.16400228478E+03  0.19999994330E+01 0.  0.
        -13    1    3    3    0    0  0.26917500573E+02 -0.29334687591E+02  0.15898226586E+03  0.16389157317E+03  0.10566000000E+00 0.  1.
         13    1    4    4    0    0 -0.46041113461E+01  0.52620982381E+01  0.27649308778E+02  0.28519869549E+02  0.10566000000E+00 0. -1.
        -13    1    4    4    0    0 -0.60432584656E+01  0.60054956300E+01  0.36970718146E+02  0.37939848641E+02  0.10566000000E+00 0.  1.
        -14    1    4    4    0    0 -0.16270130761E+02  0.18067093723E+02  0.94463830462E+02  0.97542566585E+02  0.00000000000E+00 0.  1.
<mgrwt>
<rscale>  0 0.79676366E+02</rscale>
<asrwt>0</asrwt>
<pdfrwt beam="1">  1        2 0.49689243E-01 0.79676366E+02</pdfrwt>
<pdfrwt beam="2">  1       -1 0.75597938E-03 0.79676366E+02</pdfrwt>
<totfact> 0.26463036E+05</totfact>
</mgrwt>
</event>
<event>
 8    1  0.1520917E-017  0.8027992E+02  0.7818608E-02  0.1328259E+00
         -1   -1    0    0    0  501 -0.00000000000E+00  0.00000000000E+00  0.12334832659E+02  0.12334833688E+02  0.50400000000E-02 0.  1.
          2   -1    0    0  501    0  0.00000000000E+00 -0.00000000000E+00 -0.13062326991E+03  0.13062326994E+03  0.25500000000E-02 0. -1.
         24    2    1    2    0    0  0.71054273576E-14  0.00000000000E+00 -0.11828843725E+03  0.14295810363E+03  0.80279916569E+02 0.  0.
         66    2    3    3    0    0 -0.38573844608E+02  0.43796293193E+01 -0.77173285514E+02  0.86410871090E+02  0.20000011953E+01 0.  0.
        -13    1    3    3    0    0  0.38573844608E+02 -0.43796293193E+01 -0.41115151741E+02  0.56547232536E+02  0.10566000000E+00 0.  1.
         13    1    4    4    0    0 -0.14629591138E+02  0.20318826919E+01 -0.28491967480E+02  0.32092940953E+02  0.10566000000E+00 0. -1.
        -13    1    4    4    0    0 -0.17528418926E+02  0.12162838391E+01 -0.34837322065E+02  0.39017624083E+02  0.10566000000E+00 0.  1.
        -14    1    4    4    0    0 -0.64158345440E+01  0.11314627884E+01 -0.13843995969E+02  0.15300306054E+02  0.00000000000E+00 0.  1.
<mgrwt>
<rscale>  0 0.80279917E+02</rscale>
<asrwt>0</asrwt>
<pdfrwt beam="1">  1        2 0.20095887E-01 0.80279917E+02</pdfrwt>
<pdfrwt beam="2">  1       -1 0.18976667E-02 0.80279917E+02</pdfrwt>
<totfact> 0.18997340E+05</totfact>
</mgrwt>
</event>
<event>
 8    1  0.1520917E-017  0.7954765E+02  0.7818608E-02  0.1330340E+00
          2   -1    0    0  501    0  0.00000000000E+00  0.00000000000E+00  0.34899285791E+03  0.34899285791E+03  0.25500000000E-02 0. -1.
         -1   -1    0    0    0  501 -0.00000000000E+00 -0.00000000000E+00 -0.45329200510E+01  0.45329228529E+01  0.50400000000E-02 0.  1.
         24    2    1    2    0    0  0.00000000000E+00  0.00000000000E+00  0.34445993785E+03  0.35352578077E+03  0.79547651635E+02 0.  0.
         66    2    3    3    0    0  0.17543865202E+02  0.85643930837E+01  0.32621423387E+03  0.32680401225E+03  0.20000007851E+01 0.  0.
        -13    1    3    3    0    0 -0.17543865202E+02 -0.85643930837E+01  0.18245703980E+02  0.26721768521E+02  0.10566000000E+00 0.  1.
         13    1    4    4    0    0  0.93222151434E+01  0.42532529418E+01  0.16140404501E+03  0.16172900409E+03  0.10566000000E+00 0. -1.
        -13    1    4    4    0    0  0.62507123963E+01  0.35535527465E+01  0.12025101011E+03  0.12046582810E+03  0.10566000000E+00 0.  1.
         14    1    4    4    0    0  0.19709376623E+01  0.75758739542E+00  0.44559178752E+02  0.44609180053E+02  0.00000000000E+00 0. -1.
<mgrwt>
<rscale>  0 0.79547652E+02</rscale>
<asrwt>0</asrwt>
<pdfrwt beam="1">  1        2 0.53691227E-01 0.79547652E+02</pdfrwt>
<pdfrwt beam="2">  1       -1 0.69737231E-03 0.79547652E+02</pdfrwt>
<totfact> 0.27324177E+05</totfact>
</mgrwt>
</event>
<event>
 8    1  0.1520917E-017  0.7300372E+02  0.7818608E-02  0.1350167E+00
          2   -1    0    0  501    0  0.00000000000E+00  0.00000000000E+00  0.11277480474E+04  0.11277480474E+04  0.25500000000E-02 0. -1.
         -1   -1    0    0    0  501 -0.00000000000E+00 -0.00000000000E+00 -0.11814517292E+01  0.11814624793E+01  0.50400000000E-02 0.  1.
         24    2    1    2    0    0  0.00000000000E+00  0.00000000000E+00  0.11265665957E+04  0.11289295099E+04  0.73003724572E+02 0.  0.
         66    2    3    3    0    0 -0.91240944134E+01  0.10166761070E+02  0.10866919673E+04  0.10867796667E+04  0.20000005714E+01 0.  0.
        -13    1    3    3    0    0  0.91240944134E+01 -0.10166761070E+02  0.39874628365E+02  0.42149843188E+02  0.10566000000E+00 0.  1.
         13    1    4    4    0    0 -0.15594288029E+01  0.24664820262E+01  0.20930800276E+03  0.20932837011E+03  0.10566000000E+00 0. -1.
        -13    1    4    4    0    0 -0.66930725676E+01  0.65635306090E+01  0.72526685053E+03  0.72532743833E+03  0.10566000000E+00 0.  1.
        -14    1    4    4    0    0 -0.87159304295E+00  0.11367484353E+01  0.15211711403E+03  0.15212385826E+03  0.00000000000E+00 0.  1.
<mgrwt>
<rscale>  0 0.73003725E+02</rscale>
<asrwt>0</asrwt>
<pdfrwt beam="1">  1        2 0.17349948E+00 0.73003725E+02</pdfrwt>
<pdfrwt beam="2">  1       -1 0.18176286E-03 0.73003725E+02</pdfrwt>
<totfact> 0.44609573E+05</totfact>
</mgrwt>
</event>
<event>
 8    1  0.1520917E-017  0.7918053E+02  0.7818608E-02  0.1331393E+00
          2   -1    0    0  501    0  0.00000000000E+00  0.00000000000E+00  0.53135032018E+03  0.53135032018E+03  0.25500000000E-02 0. -1.
         -1   -1    0    0    0  501 -0.00000000000E+00 -0.00000000000E+00 -0.29498199139E+01  0.29498242195E+01  0.50400000000E-02 0.  1.
         24    2    1    2    0    0  0.00000000000E+00  0.00000000000E+00  0.52840050026E+03  0.53430014440E+03  0.79180525575E+02 0.  0.
         66    2    3    3    0    0 -0.55178805148E+01  0.24973219469E+02  0.46806865632E+03  0.46877113362E+03  0.19999985068E+01 0.  0.
        -13    1    3    3    0    0  0.55178805148E+01 -0.24973219469E+02  0.60331843946E+02  0.65529010781E+02  0.10566000000E+00 0.  1.
         13    1    4    4    0    0 -0.35142079711E+01  0.15676982283E+02  0.28781440128E+03  0.28826248139E+03  0.10566000000E+00 0. -1.
        -13    1    4    4    0    0 -0.14367474510E+01  0.61285020981E+01  0.12892588506E+03  0.12907950179E+03  0.10566000000E+00 0.  1.
         14    1    4    4    0    0 -0.56692509270E+00  0.31677350881E+01  0.51328369983E+02  0.51429150438E+02  0.00000000000E+00 0. -1.
<mgrwt>
<rscale>  0 0.79180526E+02</rscale>
<asrwt>0</asrwt>
<pdfrwt beam="1">  1        2 0.81746138E-01 0.79180526E+02</pdfrwt>
<pdfrwt beam="2">  1       -1 0.45381914E-03 0.79180526E+02</pdfrwt>
<totfact> 0.31879434E+05</totfact>
</mgrwt>
</event>
<event>
 8    1  0.1520917E-017  0.7806943E+02  0.7818608E-02  0.1334621E+00
          2   -1    0    0  501    0  0.00000000000E+00  0.00000000000E+00  0.79080517019E+03  0.79080517019E+03  0.25500000000E-02 0. -1.
         -1   -1    0    0    0  501 -0.00000000000E+00 -0.00000000000E+00 -0.19267782349E+01  0.19267848266E+01  0.50400000000E-02 0.  1.
         24    2    1    2    0    0  0.00000000000E+00  0.00000000000E+00  0.78887839195E+03  0.79273195502E+03  0.78069425623E+02 0.  0.
         66    2    3    3    0    0  0.14344269622E+02  0.27416555652E+02  0.63590552958E+03  0.63666103082E+03  0.20000035999E+01 0.  0.
        -13    1    3    3    0    0 -0.14344269622E+02 -0.27416555652E+02  0.15297286237E+03  0.15607092420E+03  0.10566000000E+00 0.  1.
         13    1    4    4    0    0  0.10052525577E+02  0.20360902929E+02  0.45202647534E+03  0.45259647061E+03  0.10566000000E+00 0. -1.
        -13    1    4    4    0    0  0.19971796138E+01  0.31906507114E+01  0.82234688746E+02  0.82320861120E+02  0.10566000000E+00 0.  1.
         14    1    4    4    0    0  0.22945644318E+01  0.38650020117E+01  0.10164436549E+03  0.10174369908E+03  0.00000000000E+00 0. -1.
<mgrwt>
<rscale>  0 0.78069426E+02</rscale>
<asrwt>0</asrwt>
<pdfrwt beam="1">  1        2 0.12166200E+00 0.78069426E+02</pdfrwt>
<pdfrwt beam="2">  1       -1 0.29642875E-03 0.78069426E+02</pdfrwt>
<totfact> 0.36540183E+05</totfact>
</mgrwt>
</event>
<event>
 8    1  0.1520917E-017  0.8094739E+02  0.7818608E-02  0.1326384E+00
          2   -1    0    0  501    0  0.00000000000E+00  0.00000000000E+00  0.29816551755E+02  0.29816551864E+02  0.25500000000E-02 0. -1.
         -1   -1    0    0    0  501 -0.00000000000E+00 -0.00000000000E+00 -0.54939952216E+02  0.54939952447E+02  0.50400000000E-02 0.  1.
         24    2    1    2    0    0  0.35527136788E-14  0.00000000000E+00 -0.25123400460E+02  0.84756504311E+02  0.80947388916E+02 0.  0.
         66    2    3    3    0    0  0.26480752046E+02 -0.28608938916E+02 -0.23866567295E+02  0.45752755664E+02  0.20000003926E+01 0.  0.
        -13    1    3    3    0    0 -0.26480752046E+02  0.28608938916E+02 -0.12568331656E+01  0.39003748647E+02  0.10566000000E+00 0.  1.
         13    1    4    4    0    0  0.13604543262E+02 -0.14610256999E+02 -0.13258134885E+02  0.23965235481E+02  0.10566000000E+00 0. -1.
        -13    1    4    4    0    0  0.11738156412E+02 -0.12705535557E+02 -0.94438303376E+01  0.19708172042E+02  0.10566000000E+00 0.  1.
        -14    1    4    4    0    0  0.11380523721E+01 -0.12931463599E+01 -0.11646020718E+01  0.20793481419E+01  0.00000000000E+00 0.  1.
<mgrwt>
<rscale>  0 0.80947389E+02</rscale>
<asrwt>0</asrwt>
<pdfrwt beam="1">  1        2 0.45871618E-02 0.80947389E+02</pdfrwt>
<pdfrwt beam="2">  1       -1 0.84523004E-02 0.80947389E+02</pdfrwt>
<totfact> 0.13002161E+05</totfact>
</mgrwt>
</event>
<event>
 8    1  0.1520917E-017  0.7987695E+02  0.7818608E-02  0.1329401E+00
         -1   -1    0    0    0  501 -0.00000000000E+00  0.00000000000E+00  0.49472151070E+01  0.49472176743E+01  0.50400000000E-02 0.  1.
          2   -1    0    0  501    0  0.00000000000E+00 -0.00000000000E+00 -0.32242004585E+03  0.32242004586E+03  0.25500000000E-02 0. -1.
         24    2    1    2    0    0  0.00000000000E+00  0.00000000000E+00 -0.31747283074E+03  0.32736726353E+03  0.79876948953E+02 0.  0.
         66    2    3    3    0    0  0.44876330813E+01 -0.23393746861E+02 -0.29009121761E+03  0.29107442478E+03  0.19999961822E+01 0.  0.
        -13    1    3    3    0    0 -0.44876330813E+01  0.23393746861E+02 -0.27381613129E+02  0.36292838748E+02  0.10566000000E+00 0.  1.
         13    1    4    4    0    0  0.16600879358E+01 -0.61521208105E+01 -0.70226266225E+02  0.70514850311E+02  0.10566000000E+00 0.  1.
        -13    1    4    4    0    0  0.23933803978E+01 -0.14185294261E+02 -0.17709826334E+03  0.17768161662E+03  0.10566000000E+00 0. -1.
        -14    1    4    4    0    0  0.43416474772E+00 -0.30563317892E+01 -0.42766688050E+02  0.42877957855E+02  0.00000000000E+00 0.  1.
<mgrwt>
<rscale>  0 0.79876949E+02</rscale>
<asrwt>0</asrwt>
<pdfrwt beam="1">  1        2 0.49603068E-01 0.79876949E+02</pdfrwt>
<pdfrwt beam="2">  1       -1 0.76111047E-03 0.79876949E+02</pdfrwt>
<totfact> 0.26272944E+05</totfact>
</mgrwt>
</event>
<event>
 8    1  0.1520917E-017  0.7584636E+02  0.7818608E-02  0.1341270E+00
         -1   -1    0    0    0  501 -0.00000000000E+00  0.00000000000E+00  0.74819432880E+02  0.74819433050E+02  0.50400000000E-02 0.  1.
          2   -1    0    0  501    0  0.00000000000E+00 -0.00000000000E+00 -0.19221844886E+02  0.19221845055E+02  0.25500000000E-02 0. -1.
         24    2    1    2    0    0  0.00000000000E+00  0.71054273576E-14  0.55597587995E+02  0.94041278105E+02  0.75846359153E+02 0.  0.
         66    2    3    3    0    0 -0.14212570695E+02 -0.33309968161E+02  0.13977215886E+02  0.38870473479E+02  0.19999999816E+01 0.  0.
        -13    1    3    3    0    0  0.14212570695E+02  0.33309968161E+02  0.41620372109E+02  0.55170804626E+02  0.10566000000E+00 0.  1.
         13    1    4    4    0    0 -0.29141404812E+01 -0.75886213448E+01  0.30883968581E+01  0.86964790489E+01  0.10566000000E+00 0. -1.
        -13    1    4    4    0    0 -0.20978896148E+01 -0.62882219129E+01  0.29083315889E+01  0.72396431078E+01  0.10566000000E+00 0.  1.
        -14    1    4    4    0    0 -0.92005405986E+01 -0.19433124903E+02  0.79804874391E+01  0.22934351322E+02  0.00000000000E+00 0.  1.
<mgrwt>
<rscale>  0 0.75846359E+02</rscale>
<asrwt>0</asrwt>
<pdfrwt beam="1">  1        2 0.29572069E-02 0.75846359E+02</pdfrwt>
<pdfrwt beam="2">  1       -1 0.11510682E-01 0.75846359E+02</pdfrwt>
<totfact> 0.14348293E+05</totfact>
</mgrwt>
</event>
<event>
 8    1  0.1520917E-017  0.7880603E+02  0.7818608E-02  0.1332474E+00
         -1   -1    0    0    0  501 -0.00000000000E+00  0.00000000000E+00  0.59051024372E+01  0.59051045880E+01  0.50400000000E-02 0.  1.
          2   -1    0    0  501    0  0.00000000000E+00 -0.00000000000E+00 -0.26292471830E+03  0.26292471831E+03  0.25500000000E-02 0. -1.
         24    2    1    2    0    0  0.00000000000E+00  0.00000000000E+00 -0.25701961586E+03  0.26882982290E+03  0.78806032398E+02 0.  0.
         66    2    3    3    0    0 -0.38392125577E+02  0.84865424646E+01 -0.13592147515E+03  0.14150838890E+03  0.20000027491E+01 0.  0.
        -13    1    3    3    0    0  0.38392125577E+02 -0.84865424646E+01 -0.12109814071E+03  0.12732143400E+03  0.10566000000E+00 0.  1.
         13    1    4    4    0    0 -0.12176253897E+02  0.30674029943E+01 -0.42261956364E+02  0.44088028305E+02  0.10566000000E+00 0.  1.
        -13    1    4    4    0    0 -0.20187310763E+02  0.35677830723E+01 -0.71802734528E+02  0.74671952175E+02  0.10566000000E+00 0. -1.
         14    1    4    4    0    0 -0.60285609176E+01  0.18513563981E+01 -0.21856784261E+02  0.22748408417E+02  0.00000000000E+00 0. -1.
<mgrwt>
<rscale>  0 0.78806032E+02</rscale>
<asrwt>0</asrwt>
<pdfrwt beam="1">  1        2 0.40449948E-01 0.78806032E+02</pdfrwt>
<pdfrwt beam="2">  1       -1 0.90847767E-03 0.78806032E+02</pdfrwt>
<totfact> 0.25283776E+05</totfact>
</mgrwt>
</event>
<event>
 8    1  0.1520917E-017  0.7816165E+02  0.7818608E-02  0.1334351E+00
          2   -1    0    0  501    0  0.00000000000E+00  0.00000000000E+00  0.14013668061E+02  0.14013668293E+02  0.25500000000E-02 0. -1.
         -1   -1    0    0    0  501 -0.00000000000E+00 -0.00000000000E+00 -0.10898722004E+03  0.10898722016E+03  0.50400000000E-02 0.  1.
         24    2    1    2    0    0  0.00000000000E+00  0.00000000000E+00 -0.94973551979E+02  0.12300088845E+03  0.78161646501E+02 0.  0.
         66    2    3    3    0    0  0.35701023906E+02 -0.15791665707E+02 -0.45678534605E+02  0.60120448599E+02  0.20000005949E+01 0.  0.
        -13    1    3    3    0    0 -0.35701023906E+02  0.15791665707E+02 -0.49295017374E+02  0.62880439850E+02  0.10566000000E+00 0.  1.
         13    1    4    4    0    0  0.13207684670E+02 -0.58112954234E+01 -0.18169515929E+02  0.23202511976E+02  0.10566000000E+00 0.  1.
        -13    1    4    4    0    0  0.16289345977E+02 -0.73697626864E+01 -0.19493409126E+02  0.26451093698E+02  0.10566000000E+00 0. -1.
         14    1    4    4    0    0  0.62039932588E+01 -0.26106075975E+01 -0.80156095498E+01  0.10466842926E+02  0.00000000000E+00 0. -1.
<mgrwt>
<rscale>  0 0.78161647E+02</rscale>
<asrwt>0</asrwt>
<pdfrwt beam="1">  1        2 0.21559490E-02 0.78161647E+02</pdfrwt>
<pdfrwt beam="2">  1       -1 0.16767264E-01 0.78161647E+02</pdfrwt>
<totfact> 0.12329816E+05</totfact>
</mgrwt>
</event>
<event>
 8    1  0.1520917E-017  0.7963795E+02  0.7818608E-02  0.1330082E+00
          2   -1    0    0  501    0  0.00000000000E+00  0.00000000000E+00  0.36168673451E+03  0.36168673452E+03  0.25500000000E-02 0. -1.
         -1   -1    0    0    0  501 -0.00000000000E+00 -0.00000000000E+00 -0.43837664982E+01  0.43837693954E+01  0.50400000000E-02 0.  1.
         24    2    1    2    0    0  0.00000000000E+00  0.00000000000E+00  0.35730296801E+03  0.36607050391E+03  0.79637948781E+02 0.  0.
         66    2    3    3    0    0  0.77228565146E+01 -0.38398396979E+02  0.21109339467E+03  0.21470561399E+03  0.19999997052E+01 0.  0.
        -13    1    3    3    0    0 -0.77228565146E+01  0.38398396979E+02  0.14620957334E+03  0.15136488993E+03  0.10566000000E+00 0.  1.
         13    1    4    4    0    0  0.27052035987E+01 -0.15255656910E+02  0.85185963328E+02  0.86583559100E+02  0.10566000000E+00 0. -1.
        -13    1    4    4    0    0  0.13814130114E+01 -0.85684991983E+01  0.48538092595E+02  0.49308063004E+02  0.10566000000E+00 0.  1.
         14    1    4    4    0    0  0.36362399044E+01 -0.14574240871E+02  0.77369338751E+02  0.78813991882E+02  0.00000000000E+00 0. -1.
<mgrwt>
<rscale>  0 0.79637949E+02</rscale>
<asrwt>0</asrwt>
<pdfrwt beam="1">  1        2 0.55644143E-01 0.79637949E+02</pdfrwt>
<pdfrwt beam="2">  1       -1 0.67442547E-03 0.79637949E+02</pdfrwt>
<totfact> 0.27592019E+05</totfact>
</mgrwt>
</event>
<event>
 8    1  0.1520917E-017  0.8012724E+02  0.7818608E-02  0.1328691E+00
         -1   -1    0    0    0  501 -0.00000000000E+00  0.00000000000E+00  0.15143571428E+02  0.15143572267E+02  0.50400000000E-02 0.  1.
          2   -1    0    0  501    0  0.00000000000E+00 -0.00000000000E+00 -0.10599174409E+03  0.10599174412E+03  0.25500000000E-02 0. -1.
         24    2    1    2    0    0  0.44408920985E-15  0.71054273576E-14 -0.90848172666E+02  0.12113531639E+03  0.80127238817E+02 0.  0.
         66    2    3    3    0    0  0.17783681204E+01  0.21993189307E+02 -0.95961055304E+02  0.98485466458E+02  0.19999998351E+01 0.  0.
        -13    1    3    3    0    0 -0.17783681204E+01 -0.21993189307E+02  0.51128826383E+01  0.22649849933E+02  0.10566000000E+00 0.  1.
         13    1    4    4    0    0  0.11328306333E+01  0.14213836269E+02 -0.64991476637E+02  0.66537355269E+02  0.10566000000E+00 0. -1.
        -13    1    4    4    0    0  0.11144862964E+00  0.23531761280E+00 -0.12704586406E+01  0.13011626989E+01  0.10566000000E+00 0.  1.
        -14    1    4    4    0    0  0.53408885749E+00  0.75440354252E+01 -0.29699120026E+02  0.30646948490E+02  0.00000000000E+00 0.  1.
<mgrwt>
<rscale>  0 0.80127239E+02</rscale>
<asrwt>0</asrwt>
<pdfrwt beam="1">  1        2 0.16306422E-01 0.80127239E+02</pdfrwt>
<pdfrwt beam="2">  1       -1 0.23297804E-02 0.80127239E+02</pdfrwt>
<totfact> 0.17943678E+05</totfact>
</mgrwt>
</event>
<event>
 8    1  0.1520917E-017  0.8041044E+02  0.7818608E-02  0.1327891E+00
         -1   -1    0    0    0  501 -0.00000000000E+00  0.00000000000E+00  0.17652664449E+02  0.17652665169E+02  0.50400000000E-02 0.  1.
          2   -1    0    0  501    0  0.00000000000E+00 -0.00000000000E+00 -0.91570291218E+02  0.91570291253E+02  0.25500000000E-02 0. -1.
         24    2    1    2    0    0  0.22204460493E-15  0.00000000000E+00 -0.73917626769E+02  0.10922295642E+03  0.80410438765E+02 0.  0.
         66    2    3    3    0    0  0.10469368626E+01  0.17580600263E+02 -0.86037044977E+02  0.87843876832E+02  0.20000015365E+01 0.  0.
        -13    1    3    3    0    0 -0.10469368626E+01 -0.17580600263E+02  0.12119418208E+02  0.21379079590E+02  0.10566000000E+00 0.  1.
         13    1    4    4    0    0  0.39851548531E+00  0.67761791965E+01 -0.34716701709E+02  0.35374227351E+02  0.10566000000E+00 0. -1.
        -13    1    4    4    0    0 -0.30354711051E+00  0.65600863951E+01 -0.30166236288E+02  0.30872963093E+02  0.10566000000E+00 0.  1.
        -14    1    4    4    0    0  0.95196848778E+00  0.42443346710E+01 -0.21154106980E+02  0.21596686387E+02  0.00000000000E+00 0.  1.
<mgrwt>
<rscale>  0 0.80410439E+02</rscale>
<asrwt>0</asrwt>
<pdfrwt beam="1">  1        2 0.14087737E-01 0.80410439E+02</pdfrwt>
<pdfrwt beam="2">  1       -1 0.27157946E-02 0.80410439E+02</pdfrwt>
<totfact> 0.17065096E+05</totfact>
</mgrwt>
</event>
<event>
 8    1  0.2044246E-017  0.8096720E+02  0.7818608E-02  0.1326329E+00
          2   -1    0    0  501    0  0.00000000000E+00  0.00000000000E+00  0.37223948892E+03  0.37223948893E+03  0.25500000000E-02 0. -1.
         -1   -1    0    0    0  501 -0.00000000000E+00 -0.00000000000E+00 -0.44028675192E+01  0.44028704039E+01  0.50400000000E-02 0.  1.
         24    2    1    2    0    0  0.00000000000E+00 -0.88817841970E-15  0.36783662140E+03  0.37664235933E+03  0.80967195827E+02 0.  0.
         66    2    3    3    0    0  0.10031257312E+02 -0.58430764355E+01  0.36432226718E+03  0.36451266374E+03  0.19999995014E+01 0.  0.
        -13    1    3    3    0    0 -0.10031257312E+02  0.58430764355E+01  0.35143542175E+01  0.12129695590E+02  0.10566000000E+00 0.  1.
         13    1    4    4    0    0  0.21178511971E+01 -0.10876811700E+01  0.79334467198E+02  0.79370253833E+02  0.10566000000E+00 0. -1.
        -13    1    4    4    0    0  0.61570905455E+01 -0.41908624349E+01  0.24292566397E+03  0.24303983721E+03  0.10566000000E+00 0.  1.
        -14    1    4    4    0    0  0.17563155695E+01 -0.56453283061E+00  0.42062136016E+02  0.42102572699E+02  0.00000000000E+00 0.  1.
<mgrwt>
<rscale>  0 0.80967196E+02</rscale>
<asrwt>0</asrwt>
<pdfrwt beam="1">  1        2 0.57267606E-01 0.80967196E+02</pdfrwt>
<pdfrwt beam="2">  1       -1 0.67736455E-03 0.80967196E+02</pdfrwt>
<totfact> 0.26693417E+05</totfact>
</mgrwt>
</event>
<event>
 8    1  0.1520917E-017  0.8117186E+02  0.7818608E-02  0.1325758E+00
          2   -1    0    0  501    0  0.00000000000E+00  0.00000000000E+00  0.17515842363E+03  0.17515842364E+03  0.25500000000E-02 0. -1.
         -1   -1    0    0    0  501 -0.00000000000E+00 -0.00000000000E+00 -0.94041583160E+01  0.94041596665E+01  0.50400000000E-02 0.  1.
         24    2    1    2    0    0  0.00000000000E+00  0.00000000000E+00  0.16575426531E+03  0.18456258331E+03  0.81171858978E+02 0.  0.
         66    2    3    3    0    0 -0.16995255725E+02  0.20059566453E+02  0.15315518783E+03  0.15540828962E+03  0.19999998572E+01 0.  0.
        -13    1    3    3    0    0  0.16995255725E+02 -0.20059566453E+02  0.12599077482E+02  0.29154293695E+02  0.10566000000E+00 0.  1.
         13    1    4    4    0    0 -0.72093429172E+00  0.89653647163E+00  0.58982949043E+01  0.60103719279E+01  0.10566000000E+00 0. -1.
        -13    1    4    4    0    0 -0.61304871636E+00  0.11345338273E+01  0.92498460994E+01  0.93399043160E+01  0.10566000000E+00 0.  1.
         14    1    4    4    0    0 -0.15661272717E+02  0.18028496154E+02  0.13800704682E+03  0.14005801337E+03  0.00000000000E+00 0. -1.
<mgrwt>
<rscale>  0 0.81171859E+02</rscale>
<asrwt>0</asrwt>
<pdfrwt beam="1">  1        2 0.26947450E-01 0.81171859E+02</pdfrwt>
<pdfrwt beam="2">  1       -1 0.14467937E-02 0.81171859E+02</pdfrwt>
<totfact> 0.20283151E+05</totfact>
</mgrwt>
</event>
<event>
 8    1  0.1520917E-017  0.8393987E+02  0.7818608E-02  0.1318228E+00
         -1   -1    0    0    0  501 -0.00000000000E+00  0.00000000000E+00  0.17369225401E+02  0.17369226132E+02  0.50400000000E-02 0.  1.
          2   -1    0    0  501    0  0.00000000000E+00 -0.00000000000E+00 -0.10141357684E+03  0.10141357687E+03  0.25500000000E-02 0. -1.
         24    2    1    2    0    0  0.00000000000E+00 -0.17763568394E-14 -0.84044351437E+02  0.11878280300E+03  0.83939867052E+02 0.  0.
         66    2    3    3    0    0  0.36316144299E+02 -0.99641553905E+01 -0.68189748631E+02  0.77922965465E+02  0.19999997643E+01 0.  0.
        -13    1    3    3    0    0 -0.36316144299E+02  0.99641553905E+01 -0.15854602805E+02  0.40859837537E+02  0.10566000000E+00 0.  1.
         13    1    4    4    0    0  0.25120372020E+01 -0.81656408087E+00 -0.46892994072E+01  0.53831032656E+01  0.10566000000E+00 0. -1.
        -13    1    4    4    0    0  0.18527033795E+02 -0.59385603782E+01 -0.35522863944E+02  0.40501882764E+02  0.10566000000E+00 0.  1.
         14    1    4    4    0    0  0.15277073302E+02 -0.32090309314E+01 -0.27977585280E+02  0.32037979435E+02  0.00000000000E+00 0. -1.
<mgrwt>
<rscale>  0 0.83939867E+02</rscale>
<asrwt>0</asrwt>
<pdfrwt beam="1">  1        2 0.15602088E-01 0.83939867E+02</pdfrwt>
<pdfrwt beam="2">  1       -1 0.26721886E-02 0.83939867E+02</pdfrwt>
<totfact> 0.15640428E+05</totfact>
</mgrwt>
</event>
<event>
 8    1  0.1520917E-017  0.7907829E+02  0.7818608E-02  0.1331688E+00
          2   -1    0    0  501    0  0.00000000000E+00  0.00000000000E+00  0.71094462756E+01  0.71094467330E+01  0.25500000000E-02 0. -1.
         -1   -1    0    0    0  501 -0.00000000000E+00 -0.00000000000E+00 -0.21989671869E+03  0.21989671875E+03  0.50400000000E-02 0.  1.
         24    2    1    2    0    0  0.00000000000E+00  0.00000000000E+00 -0.21278727241E+03  0.22700616548E+03  0.79078289465E+02 0.  0.
         66    2    3    3    0    0  0.32008046948E+02 -0.83667844384E+01 -0.44438108875E+02  0.55437024375E+02  0.19999999830E+01 0.  0.
        -13    1    3    3    0    0 -0.32008046948E+02  0.83667844384E+01 -0.16834916354E+03  0.17156914110E+03  0.10566000000E+00 0.  1.
         13    1    4    4    0    0  0.91542592509E+01 -0.17716096139E+01 -0.11584261687E+02  0.14870956456E+02  0.10566000000E+00 0. -1.
        -13    1    4    4    0    0  0.76659868115E+01 -0.23327262290E+01 -0.11544633412E+02  0.14053422719E+02  0.10566000000E+00 0.  1.
         14    1    4    4    0    0  0.15187800886E+02 -0.42624485955E+01 -0.21309213776E+02  0.26512645200E+02  0.00000000000E+00 0. -1.
<mgrwt>
<rscale>  0 0.79078289E+02</rscale>
<asrwt>0</asrwt>
<pdfrwt beam="1">  1        2 0.10937612E-02 0.79078289E+02</pdfrwt>
<pdfrwt beam="2">  1       -1 0.33830259E-01 0.79078289E+02</pdfrwt>
<totfact> 0.99597954E+04</totfact>
</mgrwt>
</event>
<event>
 8    1  0.1520917E-017  0.7792002E+02  0.7818608E-02  0.1335060E+00
         -1   -1    0    0    0  501 -0.00000000000E+00  0.00000000000E+00  0.24413629651E+03  0.24413629656E+03  0.50400000000E-02 0.  1.
          2   -1    0    0  501    0  0.00000000000E+00 -0.00000000000E+00 -0.62173559345E+01  0.62173564574E+01  0.25500000000E-02 0. -1.
         24    2    1    2    0    0  0.88817841970E-15  0.71054273576E-14  0.23791894058E+03  0.25035365302E+03  0.77920018581E+02 0.  0.
         66    2    3    3    0    0 -0.61701534016E+01 -0.36792593756E+02  0.83243547187E+02  0.91242829276E+02  0.19999994572E+01 0.  0.
        -13    1    3    3    0    0  0.61701534016E+01  0.36792593756E+02  0.15467539339E+03  0.15911082374E+03  0.10566000000E+00 0.  1.
         13    1    4    4    0    0 -0.17877455133E+01 -0.12749843958E+02  0.27386769841E+02  0.30262202189E+02  0.10566000000E+00 0. -1.
        -13    1    4    4    0    0 -0.43702593316E+01 -0.24055647037E+02  0.55821294057E+02  0.60940966150E+02  0.10566000000E+00 0.  1.
        -14    1    4    4    0    0 -0.12148556666E-01  0.12897239092E-01  0.35483288008E-01  0.39660937118E-01  0.00000000000E+00 0.  1.
<mgrwt>
<rscale>  0 0.77920019E+02</rscale>
<asrwt>0</asrwt>
<pdfrwt beam="1">  1        2 0.95651642E-03 0.77920019E+02</pdfrwt>
<pdfrwt beam="2">  1       -1 0.37559427E-01 0.77920019E+02</pdfrwt>
<totfact> 0.99877315E+04</totfact>
</mgrwt>
</event>
<event>
 8    1  0.1520917E-017  0.7810795E+02  0.7818608E-02  0.1334508E+00
          2   -1    0    0  501    0  0.00000000000E+00  0.00000000000E+00  0.84232048327E+03  0.84232048328E+03  0.25500000000E-02 0. -1.
         -1   -1    0    0    0  501 -0.00000000000E+00 -0.00000000000E+00 -0.18107240477E+01  0.18107310619E+01  0.50400000000E-02 0.  1.
         24    2    1    2    0    0 -0.17763568394E-14  0.00000000000E+00  0.84050975923E+03  0.84413121434E+03  0.78107948815E+02 0.  0.
         66    2    3    3    0    0 -0.13566969865E+02  0.30502722239E+02  0.63902016245E+03  0.63989471538E+03  0.20000037431E+01 0.  0.
        -13    1    3    3    0    0  0.13566969865E+02 -0.30502722239E+02  0.20148959677E+03  0.20423649896E+03  0.10566000000E+00 0.  1.
         13    1    4    4    0    0 -0.30205029201E+01  0.80119289811E+01  0.16946254792E+03  0.16967875753E+03  0.10566000000E+00 0.  1.
        -13    1    4    4    0    0 -0.19305179587E+01  0.40525063227E+01  0.94351599776E+02  0.94458378408E+02  0.10566000000E+00 0. -1.
         14    1    4    4    0    0 -0.86159489860E+01  0.18438286935E+02  0.37520601476E+03  0.37575757945E+03  0.00000000000E+00 0. -1.
<mgrwt>
<rscale>  0 0.78107949E+02</rscale>
<asrwt>0</asrwt>
<pdfrwt beam="1">  1        2 0.12958749E+00 0.78107949E+02</pdfrwt>
<pdfrwt beam="2">  1       -1 0.27857406E-03 0.78107949E+02</pdfrwt>
<totfact> 0.36869338E+05</totfact>
</mgrwt>
</event>
<event>
 8    1  0.1520917E-017  0.7889455E+02  0.7818608E-02  0.1332218E+00
         -1   -1    0    0    0  501 -0.00000000000E+00  0.00000000000E+00  0.20090537521E+01  0.20090600739E+01  0.50400000000E-02 0.  1.
          2   -1    0    0  501    0  0.00000000000E+00 -0.00000000000E+00 -0.77453634417E+03  0.77453634417E+03  0.25500000000E-02 0. -1.
         24    2    1    2    0    0  0.35527136788E-14  0.00000000000E+00 -0.77252729042E+03  0.77654540425E+03  0.78894552527E+02 0.  0.
         66    2    3    3    0    0  0.30352832265E+02  0.48636458606E+01 -0.62943828035E+03  0.63019163613E+03  0.19999985741E+01 0.  0.
        -13    1    3    3    0    0 -0.30352832265E+02 -0.48636458606E+01 -0.14308901006E+03  0.14635376812E+03  0.10566000000E+00 0.  1.
         13    1    4    4    0    0  0.13525119254E+02  0.20614326063E+01 -0.28370926554E+03  0.28403897069E+03  0.10566000000E+00 0. -1.
        -13    1    4    4    0    0  0.10998354628E+02  0.23083028920E+01 -0.21714051492E+03  0.21743115335E+03  0.10566000000E+00 0.  1.
        -14    1    4    4    0    0  0.58293583828E+01  0.49391036231E+00 -0.12858849989E+03  0.12872151208E+03  0.00000000000E+00 0.  1.
<mgrwt>
<rscale>  0 0.78894553E+02</rscale>
<asrwt>0</asrwt>
<pdfrwt beam="1">  1        2 0.11915920E+00 0.78894553E+02</pdfrwt>
<pdfrwt beam="2">  1       -1 0.30908630E-03 0.78894553E+02</pdfrwt>
<totfact> 0.35422955E+05</totfact>
</mgrwt>
</event>
<event>
 8    1  0.1520917E-017  0.8097020E+02  0.7818608E-02  0.1326320E+00
          2   -1    0    0  501    0  0.00000000000E+00  0.00000000000E+00  0.70532049453E+03  0.70532049453E+03  0.25500000000E-02 0. -1.
         -1   -1    0    0    0  501 -0.00000000000E+00 -0.00000000000E+00 -0.23238247697E+01  0.23238302351E+01  0.50400000000E-02 0.  1.
         24    2    1    2    0    0  0.44408920985E-15  0.35527136788E-14  0.70299666976E+03  0.70764432477E+03  0.80970196274E+02 0.  0.
         66    2    3    3    0    0 -0.24767942684E+01 -0.23465540884E+02  0.63895979140E+03  0.63939845257E+03  0.19999993003E+01 0.  0.
        -13    1    3    3    0    0  0.24767942684E+01  0.23465540884E+02  0.64036878356E+02  0.68245872201E+02  0.10566000000E+00 0.  1.
         13    1    4    4    0    0 -0.65428766721E+00 -0.11927667342E+02  0.33601125886E+03  0.33622354852E+03  0.10566000000E+00 0. -1.
        -13    1    4    4    0    0 -0.16021658649E+01 -0.10869961015E+02  0.27972963276E+03  0.27994535466E+03  0.10566000000E+00 0.  1.
        -14    1    4    4    0    0 -0.22034073625E+00 -0.66791252754E+00  0.23218899784E+02  0.23229549380E+02  0.00000000000E+00 0.  1.
<mgrwt>
<rscale>  0 0.80970196E+02</rscale>
<asrwt>0</asrwt>
<pdfrwt beam="1">  1        2 0.10851081E+00 0.80970196E+02</pdfrwt>
<pdfrwt beam="2">  1       -1 0.35751204E-03 0.80970196E+02</pdfrwt>
<totfact> 0.32475028E+05</totfact>
</mgrwt>
</event>
<event>
 8    1  0.1520917E-017  0.8186738E+02  0.7818608E-02  0.1323834E+00
          2   -1    0    0  501    0  0.00000000000E+00  0.00000000000E+00  0.29403532040E+03  0.29403532041E+03  0.25500000000E-02 0. -1.
         -1   -1    0    0    0  501 -0.00000000000E+00 -0.00000000000E+00 -0.56985217450E+01  0.56985239738E+01  0.50400000000E-02 0.  1.
         24    2    1    2    0    0  0.00000000000E+00 -0.88817841970E-15  0.28833679866E+03  0.29973384439E+03  0.81867380630E+02 0.  0.
         66    2    3    3    0    0  0.27835448620E+02 -0.30265257646E+01  0.25345349320E+03  0.25500322599E+03  0.19999986519E+01 0.  0.
        -13    1    3    3    0    0 -0.27835448620E+02  0.30265257646E+01  0.34883305457E+02  0.44730618392E+02  0.10566000000E+00 0.  1.
         13    1    4    4    0    0  0.11560143267E+02 -0.18815509689E+01  0.10472196726E+03  0.10537494359E+03  0.10566000000E+00 0. -1.
        -13    1    4    4    0    0  0.77837612613E+01 -0.91766246467E+00  0.75449566130E+02  0.75855634181E+02  0.10566000000E+00 0.  1.
         14    1    4    4    0    0  0.84915440915E+01 -0.22731233098E+00  0.73281959813E+02  0.73772648224E+02  0.00000000000E+00 0. -1.
<mgrwt>
<rscale>  0 0.81867381E+02</rscale>
<asrwt>0</asrwt>
<pdfrwt beam="1">  1        2 0.45236203E-01 0.81867381E+02</pdfrwt>
<pdfrwt beam="2">  1       -1 0.87669584E-03 0.81867381E+02</pdfrwt>
<totfact> 0.23821960E+05</totfact>
</mgrwt>
</event>
<event>
 8    1  0.1520917E-017  0.8064037E+02  0.7818608E-02  0.1327244E+00
         -1   -1    0    0    0  501 -0.00000000000E+00  0.00000000000E+00  0.14452837340E+02  0.14452838219E+02  0.50400000000E-02 0.  1.
          2   -1    0    0  501    0  0.00000000000E+00 -0.00000000000E+00 -0.11248429228E+03  0.11248429231E+03  0.25500000000E-02 0. -1.
         24    2    1    2    0    0  0.00000000000E+00  0.00000000000E+00 -0.98031454941E+02  0.12693713053E+03  0.80640367987E+02 0.  0.
         66    2    3    3    0    0 -0.84595605822E+01 -0.20830729564E+02 -0.10168405212E+03  0.10415915675E+03  0.20000049840E+01 0.  0.
        -13    1    3    3    0    0  0.84595605822E+01  0.20830729564E+02  0.36525971761E+01  0.22777973782E+02  0.10566000000E+00 0.  1.
         13    1    4    4    0    0 -0.29738482144E+01 -0.70793969076E+01 -0.33512428392E+02  0.34381036263E+02  0.10566000000E+00 0. -1.
        -13    1    4    4    0    0 -0.15718746928E+01 -0.29588026026E+01 -0.18039518237E+02  0.18348315594E+02  0.10566000000E+00 0.  1.
        -14    1    4    4    0    0 -0.39138376750E+01 -0.10792530054E+02 -0.50132105488E+02  0.51429804890E+02  0.00000000000E+00 0.  1.
<mgrwt>
<rscale>  0 0.80640368E+02</rscale>
<asrwt>0</asrwt>
<pdfrwt beam="1">  1        2 0.17305275E-01 0.80640368E+02</pdfrwt>
<pdfrwt beam="2">  1       -1 0.22235136E-02 0.80640368E+02</pdfrwt>
<totfact> 0.17946133E+05</totfact>
</mgrwt>
</event>
<event>
 8    1  0.1520917E-017  0.8119864E+02  0.7818608E-02  0.1325684E+00
          2   -1    0    0  501    0  0.00000000000E+00  0.00000000000E+00  0.10229256805E+03  0.10229256808E+03  0.25500000000E-02 0. -1.
         -1   -1    0    0    0  501 -0.00000000000E+00 -0.00000000000E+00 -0.16113630232E+02  0.16113631020E+02  0.50400000000E-02 0.  1.
         24    2    1    2    0    0  0.00000000000E+00  0.00000000000E+00  0.86178937820E+02  0.11840619910E+03  0.81198637072E+02 0.  0.
         66    2    3    3    0    0  0.26133250919E+02  0.29406792396E+02  0.57594909692E+02  0.69777359197E+02  0.19999978641E+01 0.  0.
        -13    1    3    3    0    0 -0.26133250919E+02 -0.29406792396E+02  0.28584028128E+02  0.48628839907E+02  0.10566000000E+00 0.  1.
         13    1    4    4    0    0  0.13634041729E+02  0.15710122812E+02  0.30733529011E+02  0.37111400164E+02  0.10566000000E+00 0. -1.
        -13    1    4    4    0    0  0.36303481928E+01  0.48766992170E+01  0.87926977943E+01  0.10690384548E+02  0.10566000000E+00 0.  1.
         14    1    4    4    0    0  0.88688609980E+01  0.88199703671E+01  0.18068682886E+02  0.21975574484E+02  0.00000000000E+00 0. -1.
<mgrwt>
<rscale>  0 0.81198637E+02</rscale>
<asrwt>0</asrwt>
<pdfrwt beam="1">  1        2 0.15737318E-01 0.81198637E+02</pdfrwt>
<pdfrwt beam="2">  1       -1 0.24790201E-02 0.81198637E+02</pdfrwt>
<totfact> 0.17142213E+05</totfact>
</mgrwt>
</event>
<event>
 8    1  0.1520917E-017  0.7971994E+02  0.7818608E-02  0.1329848E+00
          2   -1    0    0  501    0  0.00000000000E+00  0.00000000000E+00  0.52020997373E+02  0.52020997435E+02  0.25500000000E-02 0. -1.
         -1   -1    0    0    0  501 -0.00000000000E+00 -0.00000000000E+00 -0.30541847027E+02  0.30541847442E+02  0.50400000000E-02 0.  1.
         24    2    1    2    0    0  0.00000000000E+00  0.00000000000E+00  0.21479150346E+02  0.82562844878E+02  0.79719943896E+02 0.  0.
         66    2    3    3    0    0 -0.14497805609E+02 -0.29661674129E+02  0.33830435734E+02  0.47312785383E+02  0.19999997873E+01 0.  0.
        -13    1    3    3    0    0  0.14497805609E+02  0.29661674129E+02 -0.12351285388E+02  0.35250059495E+02  0.10566000000E+00 0.  1.
         13    1    4    4    0    0 -0.65476628093E+01 -0.11992451996E+02  0.13607742247E+02  0.19283998710E+02  0.10566000000E+00 0. -1.
        -13    1    4    4    0    0 -0.24427283923E+01 -0.59624804915E+01  0.60524485866E+01  0.88408932546E+01  0.10566000000E+00 0.  1.
         14    1    4    4    0    0 -0.55074144078E+01 -0.11706741641E+02  0.14170244900E+02  0.19187893418E+02  0.00000000000E+00 0. -1.
<mgrwt>
<rscale>  0 0.79719944E+02</rscale>
<asrwt>0</asrwt>
<pdfrwt beam="1">  1        2 0.80032303E-02 0.79719944E+02</pdfrwt>
<pdfrwt beam="2">  1       -1 0.46987458E-02 0.79719944E+02</pdfrwt>
<totfact> 0.15218467E+05</totfact>
</mgrwt>
</event>
<event>
 8    1  0.1520917E-017  0.7594940E+02  0.7818608E-02  0.1340956E+00
          2   -1    0    0  501    0  0.00000000000E+00  0.00000000000E+00  0.18580203516E+02  0.18580203691E+02  0.25500000000E-02 0. -1.
         -1   -1    0    0    0  501 -0.00000000000E+00 -0.00000000000E+00 -0.77613673720E+02  0.77613673884E+02  0.50400000000E-02 0.  1.
         24    2    1    2    0    0  0.00000000000E+00  0.00000000000E+00 -0.59033470204E+02  0.96193877574E+02  0.75949400778E+02 0.  0.
         66    2    3    3    0    0 -0.82988042478E+00  0.16421173521E+02  0.13780591827E+02  0.21546423265E+02  0.20000007779E+01 0.  0.
        -13    1    3    3    0    0  0.82988042478E+00 -0.16421173521E+02 -0.72814062031E+02  0.74647454309E+02  0.10566000000E+00 0.  1.
         13    1    4    4    0    0 -0.86581009138E+00  0.59021542471E+01  0.44033203219E+01  0.74152171757E+01  0.10566000000E+00 0. -1.
        -13    1    4    4    0    0  0.46317889421E-01  0.10478523723E+02  0.94052580325E+01  0.14080896543E+02  0.10566000000E+00 0.  1.
        -14    1    4    4    0    0 -0.10388222814E-01  0.40495550543E-01 -0.27986527194E-01  0.50309546722E-01  0.00000000000E+00 0.  1.
<mgrwt>
<rscale>  0 0.75949401E+02</rscale>
<asrwt>0</asrwt>
<pdfrwt beam="1">  1        2 0.28584929E-02 0.75949401E+02</pdfrwt>
<pdfrwt beam="2">  1       -1 0.11940565E-01 0.75949401E+02</pdfrwt>
<totfact> 0.14198860E+05</totfact>
</mgrwt>
</event>
<event>
 8    1  0.1520917E-017  0.8676705E+02  0.7818608E-02  0.1310875E+00
         -1   -1    0    0    0  501 -0.00000000000E+00  0.00000000000E+00  0.18583430233E+02  0.18583430916E+02  0.50400000000E-02 0.  1.
          2   -1    0    0  501    0  0.00000000000E+00 -0.00000000000E+00 -0.10128003202E+03  0.10128003205E+03  0.25500000000E-02 0. -1.
         24    2    1    2    0    0  0.00000000000E+00 -0.35527136788E-14 -0.82696601790E+02  0.11986346297E+03  0.86767054853E+02 0.  0.
         66    2    3    3    0    0  0.39981403920E+02  0.16420903191E+02 -0.46149010083E+02  0.63260491807E+02  0.19999927395E+01 0.  0.
        -13    1    3    3    0    0 -0.39981403920E+02 -0.16420903191E+02 -0.36547591706E+02  0.56602971164E+02  0.10566000000E+00 0.  1.
         13    1    4    4    0    0  0.16415113015E+02  0.64706066126E+01 -0.18557960400E+02  0.25607298637E+02  0.10566000000E+00 0. -1.
        -13    1    4    4    0    0  0.25768471959E+00  0.20164346672E+00 -0.24385174684E+00  0.42153198268E+00  0.10566000000E+00 0. -1.
         14    1    4    4    0    0  0.23308606185E+02  0.97486531116E+01 -0.27347197937E+02  0.37231661188E+02  0.00000000000E+00 0. -1.
<mgrwt>
<rscale>  0 0.86767055E+02</rscale>
<asrwt>0</asrwt>
<pdfrwt beam="1">  1        2 0.15581543E-01 0.86767055E+02</pdfrwt>
<pdfrwt beam="2">  1       -1 0.28589894E-02 0.86767055E+02</pdfrwt>
<totfact> 0.14297539E+05</totfact>
</mgrwt>
</event>
<event>
 8    1  0.1520917E-017  0.7653152E+02  0.7818608E-02  0.1339193E+00
          2   -1    0    0  501    0  0.00000000000E+00  0.00000000000E+00  0.15358667866E+04  0.15358667866E+04  0.25500000000E-02 0. -1.
         -1   -1    0    0    0  501 -0.00000000000E+00 -0.00000000000E+00 -0.95337572201E+00  0.95338904384E+00  0.50400000000E-02 0.  1.
         24    2    1    2    0    0  0.00000000000E+00 -0.22204460493E-15  0.15349134108E+04  0.15368201756E+04  0.76531518861E+02 0.  0.
         66    2    3    3    0    0 -0.20558190976E+02 -0.10277538403E+01  0.14151222473E+04  0.14152733553E+04  0.20000001034E+01 0.  0.
        -13    1    3    3    0    0  0.20558190976E+02  0.10277538403E+01  0.11979116354E+03  0.12154682028E+03  0.10566000000E+00 0.  1.
         13    1    4    4    0    0 -0.31267315417E+01 -0.29173233017E+00  0.24620922137E+03  0.24622927001E+03  0.10566000000E+00 0. -1.
        -13    1    4    4    0    0 -0.59883688778E+01  0.30001612829E+00  0.42632947686E+03  0.42637165076E+03  0.10566000000E+00 0.  1.
         14    1    4    4    0    0 -0.11443090557E+02 -0.10360376384E+01  0.74258354908E+03  0.74267243457E+03  0.00000000000E+00 0. -1.
<mgrwt>
<rscale>  0 0.76531519E+02</rscale>
<asrwt>0</asrwt>
<pdfrwt beam="1">  1        2 0.23628775E+00 0.76531519E+02</pdfrwt>
<pdfrwt beam="2">  1       -1 0.14667387E-03 0.76531519E+02</pdfrwt>
<totfact> 0.36957153E+05</totfact>
</mgrwt>
</event>
<event>
 8    1  0.1520917E-017  0.7951064E+02  0.7818608E-02  0.1330446E+00
         -1   -1    0    0    0  501 -0.00000000000E+00  0.00000000000E+00  0.18631798682E+01  0.18631866849E+01  0.50400000000E-02 0.  1.
          2   -1    0    0  501    0  0.00000000000E+00 -0.00000000000E+00 -0.84827154504E+03  0.84827154505E+03  0.25500000000E-02 0. -1.
         24    2    1    2    0    0 -0.17763568394E-14 -0.17763568394E-14 -0.84640836518E+03  0.85013473173E+03  0.79510637394E+02 0.  0.
         66    2    3    3    0    0 -0.13806898553E+02 -0.99799146512E+01 -0.80723395028E+03  0.80741617499E+03  0.19999998776E+01 0.  0.
        -13    1    3    3    0    0  0.13806898553E+02  0.99799146512E+01 -0.39174414895E+02  0.42718556746E+02  0.10566000000E+00 0.  1.
         13    1    4    4    0    0 -0.66895308807E+00 -0.14584147734E+00 -0.39996876289E+02  0.40002875458E+02  0.10566000000E+00 0. -1.
        -13    1    4    4    0    0 -0.10751350656E+02 -0.78892569923E+01 -0.64077487817E+03  0.64091363504E+03  0.10566000000E+00 0.  1.
        -14    1    4    4    0    0 -0.23865948089E+01 -0.19448161815E+01 -0.12646219582E+03  0.12649966449E+03  0.00000000000E+00 0.  1.
<mgrwt>
<rscale>  0 0.79510637E+02</rscale>
<asrwt>0</asrwt>
<pdfrwt beam="1">  1        2 0.13050301E+00 0.79510637E+02</pdfrwt>
<pdfrwt beam="2">  1       -1 0.28664426E-03 0.79510637E+02</pdfrwt>
<totfact> 0.35242190E+05</totfact>
</mgrwt>
</event>
<event>
 8    1  0.1520917E-017  0.8049959E+02  0.7818608E-02  0.1327640E+00
         -1   -1    0    0    0  501 -0.00000000000E+00  0.00000000000E+00  0.43076347380E+01  0.43076376864E+01  0.50400000000E-02 0.  1.
          2   -1    0    0  501    0  0.00000000000E+00 -0.00000000000E+00 -0.37608701475E+03  0.37608701476E+03  0.25500000000E-02 0. -1.
         24    2    1    2    0    0  0.00000000000E+00  0.17763568394E-14 -0.37177938001E+03  0.38039465245E+03  0.80499591345E+02 0.  0.
         66    2    3    3    0    0  0.35769480641E+02 -0.11480688087E+02 -0.25395483910E+03  0.25672616191E+03  0.19999915538E+01 0.  0.
        -13    1    3    3    0    0 -0.35769480641E+02  0.11480688087E+02 -0.11782454092E+03  0.12366849053E+03  0.10566000000E+00 0.  1.
         13    1    4    4    0    0  0.17495788670E+02 -0.64371231385E+01 -0.12692942079E+03  0.12829118521E+03  0.10566000000E+00 0. -1.
        -13    1    4    4    0    0  0.57725675589E+01 -0.13871509906E+01 -0.37585003238E+02  0.38051154470E+02  0.10566000000E+00 0.  1.
        -14    1    4    4    0    0  0.12501124412E+02 -0.36564139578E+01 -0.89440415067E+02  0.90383822236E+02  0.00000000000E+00 0.  1.
<mgrwt>
<rscale>  0 0.80499591E+02</rscale>
<asrwt>0</asrwt>
<pdfrwt beam="1">  1        2 0.57859515E-01 0.80499591E+02</pdfrwt>
<pdfrwt beam="2">  1       -1 0.66271356E-03 0.80499591E+02</pdfrwt>
<totfact> 0.27200299E+05</totfact>
</mgrwt>
</event>
<event>
 8    1  0.1520917E-017  0.7936339E+02  0.7818608E-02  0.1330868E+00
         -1   -1    0    0    0  501 -0.00000000000E+00  0.00000000000E+00  0.30595084543E+01  0.30595126055E+01  0.50400000000E-02 0.  1.
          2   -1    0    0  501    0  0.00000000000E+00 -0.00000000000E+00 -0.51466961094E+03  0.51466961095E+03  0.25500000000E-02 0. -1.
         24    2    1    2    0    0 -0.11102230246E-15  0.00000000000E+00 -0.51161010249E+03  0.51772912355E+03  0.79363394637E+02 0.  0.
         66    2    3    3    0    0  0.69217746445E+00 -0.21081976929E+02 -0.47503547530E+03  0.47550776192E+03  0.19999960573E+01 0.  0.
        -13    1    3    3    0    0 -0.69217746445E+00  0.21081976929E+02 -0.36574627182E+02  0.42221361636E+02  0.10566000000E+00 0.  1.
         13    1    4    4    0    0  0.46524762229E+00 -0.12759673484E+02 -0.27923688490E+03  0.27952866539E+03  0.10566000000E+00 0. -1.
        -13    1    4    4    0    0  0.17139232842E+00 -0.57743699428E+01 -0.12244283009E+03  0.12257907867E+03  0.10566000000E+00 0.  1.
        -14    1    4    4    0    0  0.55537513746E-01 -0.25479335016E+01 -0.73355760319E+02  0.73400017858E+02  0.00000000000E+00 0.  1.
<mgrwt>
<rscale>  0 0.79363395E+02</rscale>
<asrwt>0</asrwt>
<pdfrwt beam="1">  1        2 0.79179871E-01 0.79363395E+02</pdfrwt>
<pdfrwt beam="2">  1       -1 0.47069434E-03 0.79363395E+02</pdfrwt>
<totfact> 0.31376982E+05</totfact>
</mgrwt>
</event>
<event>
 8    1  0.1520917E-017  0.7934026E+02  0.7818608E-02  0.1330934E+00
         -1   -1    0    0    0  501 -0.00000000000E+00  0.00000000000E+00  0.62942362399E+01  0.62942382578E+01  0.50400000000E-02 0.  1.
          2   -1    0    0  501    0  0.00000000000E+00 -0.00000000000E+00 -0.25002539900E+03  0.25002539902E+03  0.25500000000E-02 0. -1.
         24    2    1    2    0    0  0.35527136788E-14  0.35527136788E-14 -0.24373116276E+03  0.25631963727E+03  0.79340259328E+02 0.  0.
         66    2    3    3    0    0 -0.13325281842E+02 -0.30803095678E+02 -0.19011771077E+03  0.19306770261E+03  0.20000012096E+01 0.  0.
        -13    1    3    3    0    0  0.13325281842E+02  0.30803095678E+02 -0.53613451995E+02  0.63251934662E+02  0.10566000000E+00 0.  1.
         13    1    4    4    0    0 -0.16562612274E+01 -0.26487895670E+01 -0.19104239726E+02  0.19358265081E+02  0.10566000000E+00 0. -1.
        -13    1    4    4    0    0 -0.29017386988E+01 -0.75384388977E+01 -0.46644343140E+02  0.47338716285E+02  0.10566000000E+00 0. -1.
         14    1    4    4    0    0 -0.87672819160E+01 -0.20615867214E+02 -0.12436912790E+03  0.12637072125E+03  0.00000000000E+00 0. -1.
<mgrwt>
<rscale>  0 0.79340259E+02</rscale>
<asrwt>0</asrwt>
<pdfrwt beam="1">  1        2 0.38465438E-01 0.79340259E+02</pdfrwt>
<pdfrwt beam="2">  1       -1 0.96834439E-03 0.79340259E+02</pdfrwt>
<totfact> 0.24394354E+05</totfact>
</mgrwt>
</event>
<event>
 8    1  0.1740128E-017  0.7964785E+02  0.7818608E-02  0.1330054E+00
         -1   -1    0    0    0  501 -0.00000000000E+00  0.00000000000E+00  0.61392958006E+01  0.61392978694E+01  0.50400000000E-02 0.  1.
          2   -1    0    0  501    0  0.00000000000E+00 -0.00000000000E+00 -0.25832682685E+03  0.25832682687E+03  0.25500000000E-02 0. -1.
         24    2    1    2    0    0  0.35527136788E-14  0.00000000000E+00 -0.25218753105E+03  0.26446612474E+03  0.79647851911E+02 0.  0.
         66    2    3    3    0    0  0.27457951403E+02 -0.91794640744E+01 -0.21684840405E+03  0.21878169941E+03  0.20000004462E+01 0.  0.
        -13    1    3    3    0    0 -0.27457951403E+02  0.91794640744E+01 -0.35339127002E+02  0.45684425325E+02  0.10566000000E+00 0.  1.
         13    1    4    4    0    0  0.79062391259E+01 -0.23281480946E+01 -0.63630140603E+02  0.64161786508E+02  0.10566000000E+00 0. -1.
        -13    1    4    4    0    0  0.87640621551E+00 -0.51724710788E+00 -0.95202839330E+01  0.95751032697E+01  0.10566000000E+00 0. -1.
        -14    1    4    4    0    0  0.18675306061E+02 -0.63340688720E+01 -0.14369797951E+03  0.14504480963E+03  0.00000000000E+00 0.  1.
<mgrwt>
<rscale>  0 0.79647852E+02</rscale>
<asrwt>0</asrwt>
<pdfrwt beam="1">  1        2 0.39742580E-01 0.79647852E+02</pdfrwt>
<pdfrwt beam="2">  1       -1 0.94450741E-03 0.79647852E+02</pdfrwt>
<totfact> 0.24432386E+05</totfact>
</mgrwt>
</event>
<event>
 8    1  0.1520917E-017  0.7755895E+02  0.7818608E-02  0.1336125E+00
         -1   -1    0    0    0  501 -0.00000000000E+00  0.00000000000E+00  0.33781037170E+01  0.33781074767E+01  0.50400000000E-02 0.  1.
          2   -1    0    0  501    0  0.00000000000E+00 -0.00000000000E+00 -0.44517483229E+03  0.44517483230E+03  0.25500000000E-02 0. -1.
         24    2    1    2    0    0  0.00000000000E+00 -0.17763568394E-14 -0.44179672858E+03  0.44855293978E+03  0.77558947918E+02 0.  0.
         66    2    3    3    0    0 -0.33662496750E+02 -0.15469039610E+02 -0.28683008587E+03  0.28921955850E+03  0.19999960628E+01 0.  0.
        -13    1    3    3    0    0  0.33662496750E+02  0.15469039610E+02 -0.15496664270E+03  0.15933338128E+03  0.10566000000E+00 0.  1.
         13    1    4    4    0    0 -0.11485165087E+02 -0.52429202070E+01 -0.10181102932E+03  0.10259090645E+03  0.10566000000E+00 0. -1.
        -13    1    4    4    0    0 -0.55281706310E+01 -0.30968752467E+01 -0.45720014819E+02  0.46157147073E+02  0.10566000000E+00 0.  1.
        -14    1    4    4    0    0 -0.16649161032E+02 -0.71292441563E+01 -0.13929904173E+03  0.14047150498E+03  0.00000000000E+00 0.  1.
<mgrwt>
<rscale>  0 0.77558948E+02</rscale>
<asrwt>0</asrwt>
<pdfrwt beam="1">  1        2 0.68488389E-01 0.77558948E+02</pdfrwt>
<pdfrwt beam="2">  1       -1 0.51970891E-03 0.77558948E+02</pdfrwt>
<totfact> 0.31776542E+05</totfact>
</mgrwt>
</event>
<event>
 8    1  0.1520917E-017  0.7913270E+02  0.7818608E-02  0.1331531E+00
          2   -1    0    0  501    0  0.00000000000E+00  0.00000000000E+00  0.29839384663E+03  0.29839384664E+03  0.25500000000E-02 0. -1.
         -1   -1    0    0    0  501 -0.00000000000E+00 -0.00000000000E+00 -0.52464070610E+01  0.52464094818E+01  0.50400000000E-02 0.  1.
         24    2    1    2    0    0  0.00000000000E+00  0.00000000000E+00  0.29314743957E+03  0.30364025612E+03  0.79132697492E+02 0.  0.
         66    2    3    3    0    0  0.22956211501E+02  0.18331115834E+02  0.24822160430E+03  0.24996196170E+03  0.19999994085E+01 0.  0.
        -13    1    3    3    0    0 -0.22956211501E+02 -0.18331115834E+02  0.44925835265E+02  0.53678294426E+02  0.10566000000E+00 0.  1.
         13    1    4    4    0    0  0.11146474749E+02  0.96972369612E+01  0.12958703387E+03  0.13042657251E+03  0.10566000000E+00 0. -1.
        -13    1    4    4    0    0  0.14323332330E+01  0.10616450794E+01  0.12795315502E+02  0.12919362662E+02  0.10566000000E+00 0.  1.
         14    1    4    4    0    0  0.10377403519E+02  0.75722337938E+01  0.10583925493E+03  0.10661602653E+03  0.00000000000E+00 0. -1.
<mgrwt>
<rscale>  0 0.79132697E+02</rscale>
<asrwt>0</asrwt>
<pdfrwt beam="1">  1        2 0.45906761E-01 0.79132697E+02</pdfrwt>
<pdfrwt beam="2">  1       -1 0.80713946E-03 0.79132697E+02</pdfrwt>
<totfact> 0.26182313E+05</totfact>
</mgrwt>
</event>
<event>
 8    1  0.1520917E-017  0.7965820E+02  0.7818608E-02  0.1330024E+00
         -1   -1    0    0    0  501 -0.00000000000E+00  0.00000000000E+00  0.38466754746E+02  0.38466755076E+02  0.50400000000E-02 0.  1.
          2   -1    0    0  501    0  0.00000000000E+00 -0.00000000000E+00 -0.41239690296E+02  0.41239690375E+02  0.25500000000E-02 0. -1.
         24    2    1    2    0    0  0.35527136788E-14  0.35527136788E-14 -0.27729355498E+01  0.79706445451E+02  0.79658196533E+02 0.  0.
         66    2    3    3    0    0 -0.21331200191E+02 -0.20256483142E+02  0.25443206129E+02  0.38944857820E+02  0.20000004130E+01 0.  0.
        -13    1    3    3    0    0  0.21331200191E+02  0.20256483142E+02 -0.28216141679E+02  0.40761587630E+02  0.10566000000E+00 0.  1.
         13    1    4    4    0    0 -0.10883281831E+02 -0.96393713252E+01  0.12678304771E+02  0.19290253468E+02  0.10566000000E+00 0. -1.
        -13    1    4    4    0    0 -0.69499001870E+01 -0.67190046309E+01  0.89590255953E+01  0.13180342920E+02  0.10566000000E+00 0.  1.
        -14    1    4    4    0    0 -0.34980181728E+01 -0.38981071862E+01  0.38058757633E+01  0.64742614326E+01  0.00000000000E+00 0.  1.
<mgrwt>
<rscale>  0 0.79658197E+02</rscale>
<asrwt>0</asrwt>
<pdfrwt beam="1">  1        2 0.63445678E-02 0.79658197E+02</pdfrwt>
<pdfrwt beam="2">  1       -1 0.59179623E-02 0.79658197E+02</pdfrwt>
<totfact> 0.14515738E+05</totfact>
</mgrwt>
</event>
<event>
 8    1  0.1520917E-017  0.8076486E+02  0.7818608E-02  0.1326895E+00
         -1   -1    0    0    0  501 -0.00000000000E+00  0.00000000000E+00  0.38877657753E+01  0.38877690421E+01  0.50400000000E-02 0.  1.
          2   -1    0    0  501    0  0.00000000000E+00 -0.00000000000E+00 -0.41945426349E+03  0.41945426350E+03  0.25500000000E-02 0. -1.
         24    2    1    2    0    0 -0.83266726847E-16  0.00000000000E+00 -0.41556649771E+03  0.42334203254E+03  0.80764859265E+02 0.  0.
         66    2    3    3    0    0  0.22172895507E+00  0.39746283478E+02 -0.24457176411E+03  0.24778854696E+03  0.19999978896E+01 0.  0.
        -13    1    3    3    0    0 -0.22172895507E+00 -0.39746283478E+02 -0.17099473361E+03  0.17555348558E+03  0.10566000000E+00 0.  1.
         13    1    4    4    0    0 -0.20795830412E+00  0.54345186280E+01 -0.32852148158E+02  0.33299430056E+02  0.10566000000E+00 0. -1.
        -13    1    4    4    0    0 -0.34157345642E+00  0.27297974344E+02 -0.16862931387E+03  0.17082491837E+03  0.10566000000E+00 0.  1.
        -14    1    4    4    0    0  0.77126071561E+00  0.70137905058E+01 -0.43090302078E+02  0.43664198533E+02  0.00000000000E+00 0.  1.
<mgrwt>
<rscale>  0 0.80764859E+02</rscale>
<asrwt>0</asrwt>
<pdfrwt beam="1">  1        2 0.64531389E-01 0.80764859E+02</pdfrwt>
<pdfrwt beam="2">  1       -1 0.59811840E-03 0.80764859E+02</pdfrwt>
<totfact> 0.28018114E+05</totfact>
</mgrwt>
</event>
<event>
 8    1  0.1520917E-017  0.8275639E+02  0.7818608E-02  0.1321406E+00
          2   -1    0    0  501    0  0.00000000000E+00  0.00000000000E+00  0.18022955265E+02  0.18022955446E+02  0.25500000000E-02 0. -1.
         -1   -1    0    0    0  501 -0.00000000000E+00 -0.00000000000E+00 -0.94998567429E+02  0.94998567563E+02  0.50400000000E-02 0.  1.
         24    2    1    2    0    0 -0.71054273576E-14  0.17763568394E-14 -0.76975612164E+02  0.11302152301E+03  0.82756388244E+02 0.  0.
         66    2    3    3    0    0 -0.38238182249E+02  0.12707097664E+02 -0.51213636893E+02  0.65195594406E+02  0.20000033635E+01 0.  0.
        -13    1    3    3    0    0  0.38238182249E+02 -0.12707097664E+02 -0.25761975271E+02  0.47825928602E+02  0.10566000000E+00 0.  1.
         13    1    4    4    0    0 -0.19244044340E+02  0.69323311807E+01 -0.26289605582E+02  0.33309833141E+02  0.10566000000E+00 0. -1.
        -13    1    4    4    0    0 -0.49008633916E+01  0.19586945654E+01 -0.70074957347E+01  0.87733178953E+01  0.10566000000E+00 0.  1.
        -14    1    4    4    0    0 -0.14093274517E+02  0.38160719182E+01 -0.17916535576E+02  0.23112443370E+02  0.00000000000E+00 0.  1.
<mgrwt>
<rscale>  0 0.82756388E+02</rscale>
<asrwt>0</asrwt>
<pdfrwt beam="1">  1        2 0.27727624E-02 0.82756388E+02</pdfrwt>
<pdfrwt beam="2">  1       -1 0.14615164E-01 0.82756388E+02</pdfrwt>
<totfact> 0.11014982E+05</totfact>
</mgrwt>
</event>
<event>
 8    1  0.1520917E-017  0.8001156E+02  0.7818608E-02  0.1329019E+00
         -1   -1    0    0    0  501 -0.00000000000E+00  0.00000000000E+00  0.10657816444E+02  0.10657817635E+02  0.50400000000E-02 0.  1.
          2   -1    0    0  501    0  0.00000000000E+00 -0.00000000000E+00 -0.15016794763E+03  0.15016794766E+03  0.25500000000E-02 0. -1.
         24    2    1    2    0    0  0.71054273576E-14 -0.88817841970E-15 -0.13951013119E+03  0.16082576529E+03  0.80011562144E+02 0.  0.
         66    2    3    3    0    0 -0.36414420393E+02  0.53451495450E+01 -0.38408751549E+02  0.53233568708E+02  0.20000013927E+01 0.  0.
        -13    1    3    3    0    0  0.36414420393E+02 -0.53451495450E+01 -0.10110137964E+03  0.10759219658E+03  0.10566000000E+00 0.  1.
         13    1    4    4    0    0 -0.30708996156E+01  0.26693193494E+00 -0.32589692858E+01  0.44870616163E+01  0.10566000000E+00 0. -1.
        -13    1    4    4    0    0 -0.10709115701E+02  0.13740074463E+01 -0.12394276418E+02  0.16437831594E+02  0.10566000000E+00 0.  1.
         14    1    4    4    0    0 -0.22634405076E+02  0.37042101637E+01 -0.22755505846E+02  0.32308675497E+02  0.00000000000E+00 0. -1.
<mgrwt>
<rscale>  0 0.80011562E+02</rscale>
<asrwt>0</asrwt>
<pdfrwt beam="1">  1        2 0.23102760E-01 0.80011562E+02</pdfrwt>
<pdfrwt beam="2">  1       -1 0.16396643E-02 0.80011562E+02</pdfrwt>
<totfact> 0.20029554E+05</totfact>
</mgrwt>
</event>
<event>
 8    1  0.1520917E-017  0.8003518E+02  0.7818608E-02  0.1328952E+00
         -1   -1    0    0    0  501 -0.00000000000E+00  0.00000000000E+00  0.75307795044E+02  0.75307795213E+02  0.50400000000E-02 0.  1.
          2   -1    0    0  501    0  0.00000000000E+00 -0.00000000000E+00 -0.21264832496E+02  0.21264832649E+02  0.25500000000E-02 0. -1.
         24    2    1    2    0    0 -0.35527136788E-14  0.00000000000E+00  0.54042962548E+02  0.96572627862E+02  0.80035183833E+02 0.  0.
         66    2    3    3    0    0 -0.31426512134E+02  0.13116790362E+02  0.17357400180E+01  0.34156824197E+02  0.19999978609E+01 0.  0.
        -13    1    3    3    0    0  0.31426512134E+02 -0.13116790362E+02  0.52307222530E+02  0.62415803666E+02  0.10566000000E+00 0.  1.
         13    1    4    4    0    0 -0.21781814753E+02  0.94033684365E+01  0.10478162612E+01  0.23748260459E+02  0.10566000000E+00 0. -1.
        -13    1    4    4    0    0 -0.44939644421E+00  0.24985702126E+00 -0.15271628328E+00  0.54669186378E+00  0.10566000000E+00 0.  1.
         14    1    4    4    0    0 -0.91953009375E+01  0.34635649042E+01  0.84064004003E+00  0.98618718737E+01  0.00000000000E+00 0. -1.
<mgrwt>
<rscale>  0 0.80035184E+02</rscale>
<asrwt>0</asrwt>
<pdfrwt beam="1">  1        2 0.32715127E-02 0.80035184E+02</pdfrwt>
<pdfrwt beam="2">  1       -1 0.11585815E-01 0.80035184E+02</pdfrwt>
<totfact> 0.12554124E+05</totfact>
</mgrwt>
</event>
<event>
 8    1  0.1520917E-017  0.8032955E+02  0.7818608E-02  0.1328119E+00
         -1   -1    0    0    0  501 -0.00000000000E+00  0.00000000000E+00  0.75330306324E+02  0.75330306493E+02  0.50400000000E-02 0.  1.
          2   -1    0    0  501    0  0.00000000000E+00 -0.00000000000E+00 -0.21415138673E+02  0.21415138825E+02  0.25500000000E-02 0. -1.
         24    2    1    2    0    0  0.00000000000E+00 -0.71054273576E-14  0.53915167651E+02  0.96745445317E+02  0.80329545541E+02 0.  0.
         66    2    3    3    0    0  0.10128434079E+02 -0.35011412152E+02  0.67202777539E+01  0.37115310702E+02  0.19999994177E+01 0.  0.
        -13    1    3    3    0    0 -0.10128434079E+02  0.35011412152E+02  0.47194889897E+02  0.59630134615E+02  0.10566000000E+00 0.  1.
         13    1    4    4    0    0  0.54010453428E+01 -0.15888627980E+02  0.36577624995E+01  0.17175860398E+02  0.10566000000E+00 0. -1.
        -13    1    4    4    0    0  0.83994275664E+00 -0.36550520811E+01  0.46409253206E+00  0.37804041403E+01  0.10566000000E+00 0.  1.
         14    1    4    4    0    0  0.38874459797E+01 -0.15467732091E+02  0.25984227223E+01  0.16159046164E+02  0.00000000000E+00 0. -1.
<mgrwt>
<rscale>  0 0.80329546E+02</rscale>
<asrwt>0</asrwt>
<pdfrwt beam="1">  1        2 0.32946368E-02 0.80329546E+02</pdfrwt>
<pdfrwt beam="2">  1       -1 0.11589278E-01 0.80329546E+02</pdfrwt>
<totfact> 0.12440525E+05</totfact>
</mgrwt>
</event>
<event>
 8    1  0.1520917E-017  0.7973351E+02  0.7818608E-02  0.1329809E+00
          2   -1    0    0  501    0  0.00000000000E+00  0.00000000000E+00  0.11010474179E+03  0.11010474182E+03  0.25500000000E-02 0. -1.
         -1   -1    0    0    0  501 -0.00000000000E+00 -0.00000000000E+00 -0.14434964362E+02  0.14434965242E+02  0.50400000000E-02 0.  1.
         24    2    1    2    0    0  0.00000000000E+00  0.35527136788E-14  0.95669777424E+02  0.12453970706E+03  0.79733508148E+02 0.  0.
         66    2    3    3    0    0 -0.22505520426E+02 -0.26201755983E+02  0.78881404874E+02  0.86135396320E+02  0.19999995252E+01 0.  0.
        -13    1    3    3    0    0  0.22505520426E+02  0.26201755983E+02  0.16788372550E+02  0.38404310737E+02  0.10566000000E+00 0.  1.
         13    1    4    4    0    0 -0.63975433943E+01 -0.69269023912E+01  0.20786780057E+02  0.22825685694E+02  0.10566000000E+00 0. -1.
        -13    1    4    4    0    0 -0.18773981683E+01 -0.18195016196E+01  0.52370606229E+01  0.58543298531E+01  0.10566000000E+00 0.  1.
         14    1    4    4    0    0 -0.14230578864E+02 -0.17455351973E+02  0.52857564194E+02  0.57455380773E+02  0.00000000000E+00 0. -1.
<mgrwt>
<rscale>  0 0.79733508E+02</rscale>
<asrwt>0</asrwt>
<pdfrwt beam="1">  1        2 0.16939192E-01 0.79733508E+02</pdfrwt>
<pdfrwt beam="2">  1       -1 0.22207638E-02 0.79733508E+02</pdfrwt>
<totfact> 0.18381957E+05</totfact>
</mgrwt>
</event>
<event>
 8    1  0.1520917E-017  0.7511288E+02  0.7818608E-02  0.1343522E+00
          2   -1    0    0  501    0  0.00000000000E+00  0.00000000000E+00  0.85963558698E+01  0.85963562480E+01  0.25500000000E-02 0. -1.
         -1   -1    0    0    0  501 -0.00000000000E+00 -0.00000000000E+00 -0.16407952322E+03  0.16407952330E+03  0.50400000000E-02 0.  1.
         24    2    1    2    0    0  0.00000000000E+00  0.00000000000E+00 -0.15548316735E+03  0.17267587954E+03  0.75112875378E+02 0.  0.
         66    2    3    3    0    0  0.34801714816E+02 -0.12990375288E+02 -0.65508379754E+02  0.75334301732E+02  0.19999987693E+01 0.  0.
        -13    1    3    3    0    0 -0.34801714816E+02  0.12990375288E+02 -0.89974787595E+02  0.97341577813E+02  0.10566000000E+00 0.  1.
         13    1    4    4    0    0  0.10915106813E+02 -0.45780031898E+01 -0.19476008249E+02  0.22790869472E+02  0.10566000000E+00 0. -1.
        -13    1    4    4    0    0  0.88193274042E+01 -0.31645433126E+01 -0.17709309750E+02  0.20035610450E+02  0.10566000000E+00 0.  1.
        -14    1    4    4    0    0  0.15067280599E+02 -0.52478287858E+01 -0.28323061755E+02  0.32507821810E+02  0.00000000000E+00 0.  1.
<mgrwt>
<rscale>  0 0.75112875E+02</rscale>
<asrwt>0</asrwt>
<pdfrwt beam="1">  1        2 0.13225164E-02 0.75112875E+02</pdfrwt>
<pdfrwt beam="2">  1       -1 0.25243001E-01 0.75112875E+02</pdfrwt>
<totfact> 0.12360032E+05</totfact>
</mgrwt>
</event>
<event>
 8    1  0.1520917E-017  0.8215385E+02  0.7818608E-02  0.1323048E+00
          2   -1    0    0  501    0  0.00000000000E+00  0.00000000000E+00  0.38719122883E+02  0.38719122967E+02  0.25500000000E-02 0. -1.
         -1   -1    0    0    0  501 -0.00000000000E+00 -0.00000000000E+00 -0.43578305600E+02  0.43578305891E+02  0.50400000000E-02 0.  1.
         24    2    1    2    0    0 -0.71054273576E-14 -0.44408920985E-15 -0.48591827167E+01  0.82297428858E+02  0.82153850427E+02 0.  0.
         66    2    3    3    0    0 -0.38815340272E+02 -0.37505515884E+01 -0.15283552133E+02  0.41931900007E+02  0.19999986996E+01 0.  0.
        -13    1    3    3    0    0  0.38815340272E+02  0.37505515884E+01  0.10424369416E+02  0.40365528851E+02  0.10566000000E+00 0.  1.
         13    1    4    4    0    0 -0.16206917648E+02 -0.18743525883E+01 -0.62863857611E+01  0.17484484186E+02  0.10566000000E+00 0. -1.
        -13    1    4    4    0    0 -0.26600908661E+01  0.18743663642E+00 -0.84935507187E+00  0.28006756296E+01  0.10566000000E+00 0.  1.
        -14    1    4    4    0    0 -0.19948331758E+02 -0.20636356365E+01 -0.81478112997E+01  0.21646740192E+02  0.00000000000E+00 0.  1.
<mgrwt>
<rscale>  0 0.82153850E+02</rscale>
<asrwt>0</asrwt>
<pdfrwt beam="1">  1        2 0.59567882E-02 0.82153850E+02</pdfrwt>
<pdfrwt beam="2">  1       -1 0.67043547E-02 0.82153850E+02</pdfrwt>
<totfact> 0.13154288E+05</totfact>
</mgrwt>
</event>
<event>
 8    1  0.1520917E-017  0.7981159E+02  0.7818608E-02  0.1329587E+00
         -1   -1    0    0    0  501 -0.00000000000E+00  0.00000000000E+00  0.12267154374E+03  0.12267154384E+03  0.50400000000E-02 0.  1.
          2   -1    0    0  501    0  0.00000000000E+00 -0.00000000000E+00 -0.12981596744E+02  0.12981596994E+02  0.25500000000E-02 0. -1.
         24    2    1    2    0    0 -0.88817841970E-15  0.00000000000E+00  0.10968994700E+03  0.13565314084E+03  0.79811591558E+02 0.  0.
         66    2    3    3    0    0 -0.46246677061E+01 -0.28245719966E+02  0.76769156778E+01  0.29700897017E+02  0.20000003794E+01 0.  0.
        -13    1    3    3    0    0  0.46246677061E+01  0.28245719966E+02  0.10201303132E+03  0.10595224382E+03  0.10566000000E+00 0.  1.
         13    1    4    4    0    0 -0.91850617747E+00 -0.58978200151E+01  0.14431745639E+01  0.61418117348E+01  0.10566000000E+00 0. -1.
        -13    1    4    4    0    0 -0.35162654083E+01 -0.16616515777E+02  0.46380073163E+01  0.17606674725E+02  0.10566000000E+00 0.  1.
        -14    1    4    4    0    0 -0.18989612029E+00 -0.57313841740E+01  0.15957337976E+01  0.59524105571E+01  0.00000000000E+00 0.  1.
<mgrwt>
<rscale>  0 0.79811592E+02</rscale>
<asrwt>0</asrwt>
<pdfrwt beam="1">  1        2 0.19971687E-02 0.79811592E+02</pdfrwt>
<pdfrwt beam="2">  1       -1 0.18872545E-01 0.79811592E+02</pdfrwt>
<totfact> 0.11394184E+05</totfact>
</mgrwt>
</event>
<event>
 8    1  0.1520917E-017  0.8133500E+02  0.7818608E-02  0.1325305E+00
         -1   -1    0    0    0  501 -0.00000000000E+00  0.00000000000E+00  0.42296800751E+01  0.42296830779E+01  0.50400000000E-02 0.  1.
          2   -1    0    0  501    0  0.00000000000E+00 -0.00000000000E+00 -0.39100950584E+03  0.39100950585E+03  0.25500000000E-02 0. -1.
         24    2    1    2    0    0  0.00000000000E+00  0.00000000000E+00 -0.38677982576E+03  0.39523918892E+03  0.81335003807E+02 0.  0.
         66    2    3    3    0    0  0.33111892783E+01  0.21774602971E+02 -0.35949203433E+03  0.36017165359E+03  0.19999987403E+01 0.  0.
        -13    1    3    3    0    0 -0.33111892783E+01 -0.21774602971E+02 -0.27287791431E+02  0.35067535331E+02  0.10566000000E+00 0.  1.
         13    1    4    4    0    0  0.14138780873E-01  0.12012215160E+01 -0.23709366104E+02  0.23740015546E+02  0.10566000000E+00 0. -1.
        -13    1    4    4    0    0  0.41411664173E+00  0.50001219451E+01 -0.73298554166E+02  0.73470143044E+02  0.10566000000E+00 0.  1.
         14    1    4    4    0    0  0.28829338557E+01  0.15573259510E+02 -0.26248411406E+03  0.26296149500E+03  0.00000000000E+00 0. -1.
<mgrwt>
<rscale>  0 0.81335004E+02</rscale>
<asrwt>0</asrwt>
<pdfrwt beam="1">  1        2 0.60155280E-01 0.81335004E+02</pdfrwt>
<pdfrwt beam="2">  1       -1 0.65072056E-03 0.81335004E+02</pdfrwt>
<totfact> 0.26842153E+05</totfact>
</mgrwt>
</event>
<event>
 8    1  0.1520917E-017  0.8424186E+02  0.7818608E-02  0.1317427E+00
         -1   -1    0    0    0  501 -0.00000000000E+00  0.00000000000E+00  0.13200926407E+01  0.13201022618E+01  0.50400000000E-02 0.  1.
          2   -1    0    0  501    0  0.00000000000E+00 -0.00000000000E+00 -0.13439708912E+04  0.13439708912E+04  0.25500000000E-02 0. -1.
         24    2    1    2    0    0  0.88817841970E-15  0.35527136788E-14 -0.13426507985E+04  0.13452909934E+04  0.84241855535E+02 0.  0.
         66    2    3    3    0    0  0.50182009781E+01  0.23550879520E+02 -0.12231304562E+04  0.12233690936E+04  0.19999991470E+01 0.  0.
        -13    1    3    3    0    0 -0.50182009781E+01 -0.23550879520E+02 -0.11952034229E+03  0.12192189981E+03  0.10566000000E+00 0.  1.
         13    1    4    4    0    0  0.15173277640E+01  0.57302327529E+01 -0.28636184909E+03  0.28642321419E+03  0.10566000000E+00 0. -1.
        -13    1    4    4    0    0  0.41346674920E-01  0.95428988114E-01 -0.12266917653E+02  0.12267813537E+02  0.10566000000E+00 0. -1.
        -14    1    4    4    0    0  0.34595265392E+01  0.17725217779E+02 -0.92450168949E+03  0.92467806589E+03  0.00000000000E+00 0.  1.
<mgrwt>
<rscale>  0 0.84241856E+02</rscale>
<asrwt>0</asrwt>
<pdfrwt beam="1">  1        2 0.20676366E+00 0.84241856E+02</pdfrwt>
<pdfrwt beam="2">  1       -1 0.20309299E-03 0.84241856E+02</pdfrwt>
<totfact> 0.30045367E+05</totfact>
</mgrwt>
</event>
<event>
 8    1  0.1520917E-017  0.7826023E+02  0.7818608E-02  0.1334062E+00
         -1   -1    0    0    0  501 -0.00000000000E+00  0.00000000000E+00  0.21897238836E+02  0.21897239417E+02  0.50400000000E-02 0.  1.
          2   -1    0    0  501    0  0.00000000000E+00 -0.00000000000E+00 -0.69925069593E+02  0.69925069639E+02  0.25500000000E-02 0. -1.
         24    2    1    2    0    0 -0.17763568394E-14 -0.71054273576E-14 -0.48027830756E+02  0.91822309056E+02  0.78260232003E+02 0.  0.
         66    2    3    3    0    0 -0.15654626073E+02 -0.32266675337E+02 -0.42317729210E+02  0.55506719036E+02  0.19999994452E+01 0.  0.
        -13    1    3    3    0    0  0.15654626073E+02  0.32266675337E+02 -0.57101015458E+01  0.36315590020E+02  0.10566000000E+00 0.  1.
         13    1    4    4    0    0 -0.80599479853E+00 -0.27460403430E+01 -0.36182763274E+01  0.46144829393E+01  0.10566000000E+00 0. -1.
        -13    1    4    4    0    0 -0.43186529242E+01 -0.92145743123E+01 -0.11992796373E+02  0.15728873822E+02  0.10566000000E+00 0.  1.
        -14    1    4    4    0    0 -0.10529978351E+02 -0.20306060682E+02 -0.26706656510E+02  0.35163362274E+02  0.00000000000E+00 0.  1.
<mgrwt>
<rscale>  0 0.78260232E+02</rscale>
<asrwt>0</asrwt>
<pdfrwt beam="1">  1        2 0.10757703E-01 0.78260232E+02</pdfrwt>
<pdfrwt beam="2">  1       -1 0.33688061E-02 0.78260232E+02</pdfrwt>
<totfact> 0.17130762E+05</totfact>
</mgrwt>
</event>
<event>
 8    1  0.1520917E-017  0.7820550E+02  0.7818608E-02  0.1334222E+00
         -1   -1    0    0    0  501 -0.00000000000E+00  0.00000000000E+00  0.48977825279E+01  0.48977851211E+01  0.50400000000E-02 0.  1.
          2   -1    0    0  501    0  0.00000000000E+00 -0.00000000000E+00 -0.31218715133E+03  0.31218715134E+03  0.25500000000E-02 0. -1.
         24    2    1    2    0    0  0.00000000000E+00  0.00000000000E+00 -0.30728936880E+03  0.31708493646E+03  0.78205503336E+02 0.  0.
         66    2    3    3    0    0 -0.15394333358E+01 -0.17577085541E+02 -0.29511281066E+03  0.29564657078E+03  0.20000008594E+01 0.  0.
        -13    1    3    3    0    0  0.15394333358E+01  0.17577085541E+02 -0.12176558141E+02  0.21438365686E+02  0.10566000000E+00 0.  1.
         13    1    4    4    0    0  0.26710713404E+00 -0.33849467612E+01 -0.61560533570E+02  0.61654194247E+02  0.10566000000E+00 0. -1.
        -13    1    4    4    0    0 -0.85491750413E+00 -0.46105280980E+01 -0.70099425177E+02  0.70256162914E+02  0.10566000000E+00 0.  1.
         14    1    4    4    0    0 -0.95162296570E+00 -0.95816106820E+01 -0.16345285192E+03  0.16373621361E+03  0.00000000000E+00 0. -1.
<mgrwt>
<rscale>  0 0.78205503E+02</rscale>
<asrwt>0</asrwt>
<pdfrwt beam="1">  1        2 0.48028777E-01 0.78205503E+02</pdfrwt>
<pdfrwt beam="2">  1       -1 0.75350545E-03 0.78205503E+02</pdfrwt>
<totfact> 0.27446734E+05</totfact>
</mgrwt>
</event>
<event>
 8    1  0.1520917E-017  0.8592211E+02  0.7818608E-02  0.1313039E+00
         -1   -1    0    0    0  501 -0.00000000000E+00  0.00000000000E+00  0.35453985959E+03  0.35453985962E+03  0.50400000000E-02 0.  1.
          2   -1    0    0  501    0  0.00000000000E+00 -0.00000000000E+00 -0.52057678690E+01  0.52057684936E+01  0.25500000000E-02 0. -1.
         24    2    1    2    0    0  0.00000000000E+00  0.71054273576E-14  0.34933409172E+03  0.35974562812E+03  0.85922111894E+02 0.  0.
         66    2    3    3    0    0  0.19691345476E+02 -0.34767742406E+02  0.10894580065E+03  0.11605917662E+03  0.19999996698E+01 0.  0.
        -13    1    3    3    0    0 -0.19691345476E+02  0.34767742406E+02  0.24038829107E+03  0.24368645150E+03  0.10566000000E+00 0.  1.
         13    1    4    4    0    0  0.68607370290E+01 -0.13295902167E+02  0.42083613297E+02  0.44664218332E+02  0.10566000000E+00 0. -1.
        -13    1    4    4    0    0  0.96975808300E+00 -0.19293635752E+01  0.51915137244E+01  0.56236868094E+01  0.10566000000E+00 0.  1.
         14    1    4    4    0    0  0.11860850364E+02 -0.19542476663E+02  0.61670673629E+02  0.65771271474E+02  0.00000000000E+00 0. -1.
<mgrwt>
<rscale>  0 0.85922112E+02</rscale>
<asrwt>0</asrwt>
<pdfrwt beam="1">  1        2 0.80088721E-03 0.85922112E+02</pdfrwt>
<pdfrwt beam="2">  1       -1 0.54544608E-01 0.85922112E+02</pdfrwt>
<totfact> 0.66892979E+04</totfact>
</mgrwt>
</event>
<event>
 8    1  0.1520917E-017  0.7956516E+02  0.7818608E-02  0.1330290E+00
         -1   -1    0    0    0  501 -0.00000000000E+00  0.00000000000E+00  0.36720492402E+02  0.36720492748E+02  0.50400000000E-02 0.  1.
          2   -1    0    0  501    0  0.00000000000E+00 -0.00000000000E+00 -0.43100008922E+02  0.43100008998E+02  0.25500000000E-02 0. -1.
         24    2    1    2    0    0  0.71054273576E-14  0.00000000000E+00 -0.63795165205E+01  0.79820501746E+02  0.79565157374E+02 0.  0.
         66    2    3    3    0    0 -0.35177082961E+02 -0.16086816694E+02 -0.12410151565E+02  0.40672161295E+02  0.20000013767E+01 0.  0.
        -13    1    3    3    0    0  0.35177082961E+02  0.16086816694E+02  0.60306350443E+01  0.39148340451E+02  0.10566000000E+00 0.  1.
         13    1    4    4    0    0 -0.10632019594E+02 -0.55097964920E+01 -0.35239659055E+01  0.12483076454E+02  0.10566000000E+00 0. -1.
        -13    1    4    4    0    0 -0.20675847293E+02 -0.84470165686E+01 -0.74031869413E+01  0.23530004061E+02  0.10566000000E+00 0.  1.
        -14    1    4    4    0    0 -0.38692160743E+01 -0.21300036333E+01 -0.14829987180E+01  0.46590807790E+01  0.00000000000E+00 0.  1.
<mgrwt>
<rscale>  0 0.79565157E+02</rscale>
<asrwt>0</asrwt>
<pdfrwt beam="1">  1        2 0.66307706E-02 0.79565157E+02</pdfrwt>
<pdfrwt beam="2">  1       -1 0.56493066E-02 0.79565157E+02</pdfrwt>
<totfact> 0.14696388E+05</totfact>
</mgrwt>
</event>
<event>
 8    1  0.1520917E-017  0.7959976E+02  0.7818608E-02  0.1330191E+00
          2   -1    0    0  501    0  0.00000000000E+00  0.00000000000E+00  0.10020105769E+04  0.10020105770E+04  0.25500000000E-02 0. -1.
         -1   -1    0    0    0  501 -0.00000000000E+00 -0.00000000000E+00 -0.15808479601E+01  0.15808559942E+01  0.50400000000E-02 0.  1.
         24    2    1    2    0    0 -0.35527136788E-14  0.17763568394E-14  0.10004297290E+04  0.10035914329E+04  0.79599759037E+02 0.  0.
         66    2    3    3    0    0  0.17744952230E+02 -0.11847599572E+02  0.92374772439E+03  0.92399627016E+03  0.20000032569E+01 0.  0.
        -13    1    3    3    0    0 -0.17744952230E+02  0.11847599572E+02  0.76682004597E+02  0.79595162782E+02  0.10566000000E+00 0.  1.
         13    1    4    4    0    0  0.10079997512E+02 -0.65097691563E+01  0.51902483162E+03  0.51916352958E+03  0.10566000000E+00 0. -1.
        -13    1    4    4    0    0  0.32190567092E+01 -0.21699037484E+01  0.19599052878E+03  0.19602900128E+03  0.10566000000E+00 0.  1.
        -14    1    4    4    0    0  0.44458980095E+01 -0.31679266671E+01  0.20873236400E+03  0.20880373930E+03  0.00000000000E+00 0.  1.
<mgrwt>
<rscale>  0 0.79599759E+02</rscale>
<asrwt>0</asrwt>
<pdfrwt beam="1">  1        2 0.15415536E+00 0.79599759E+02</pdfrwt>
<pdfrwt beam="2">  1       -1 0.24320818E-03 0.79599759E+02</pdfrwt>
<totfact> 0.35695764E+05</totfact>
</mgrwt>
</event>
<event>
 8    1  0.1520917E-017  0.7797234E+02  0.7818608E-02  0.1334906E+00
          2   -1    0    0  501    0  0.00000000000E+00  0.00000000000E+00  0.67495400294E+03  0.67495400294E+03  0.25500000000E-02 0. -1.
         -1   -1    0    0    0  501 -0.00000000000E+00 -0.00000000000E+00 -0.22518860827E+01  0.22518917228E+01  0.50400000000E-02 0.  1.
         24    2    1    2    0    0  0.00000000000E+00  0.00000000000E+00  0.67270211686E+03  0.67720589467E+03  0.77972339635E+02 0.  0.
         66    2    3    3    0    0  0.16910104412E+02 -0.59017262467E+00  0.64137381577E+03  0.64160008688E+03  0.19999994734E+01 0.  0.
        -13    1    3    3    0    0 -0.16910104412E+02  0.59017262467E+00  0.31328301088E+02  0.35605807785E+02  0.10566000000E+00 0.  1.
         13    1    4    4    0    0  0.36829805568E+01 -0.47445325582E+00  0.12883409745E+03  0.12888764596E+03  0.10566000000E+00 0. -1.
        -13    1    4    4    0    0  0.19805312053E+01 -0.99052572643E-01  0.98432105040E+02  0.98452134471E+02  0.10566000000E+00 0.  1.
         14    1    4    4    0    0  0.11246592650E+02 -0.16666796202E-01  0.41410761328E+03  0.41426030645E+03  0.00000000000E+00 0. -1.
<mgrwt>
<rscale>  0 0.77972340E+02</rscale>
<asrwt>0</asrwt>
<pdfrwt beam="1">  1        2 0.10383924E+00 0.77972340E+02</pdfrwt>
<pdfrwt beam="2">  1       -1 0.34644391E-03 0.77972340E+02</pdfrwt>
<totfact> 0.35452379E+05</totfact>
</mgrwt>
</event>
<event>
 8    1  0.1520917E-017  0.7951230E+02  0.7818608E-02  0.1330441E+00
          2   -1    0    0  501    0  0.00000000000E+00  0.00000000000E+00  0.32556759235E+02  0.32556759335E+02  0.25500000000E-02 0. -1.
         -1   -1    0    0    0  501 -0.00000000000E+00 -0.00000000000E+00 -0.48547563285E+02  0.48547563546E+02  0.50400000000E-02 0.  1.
         24    2    1    2    0    0  0.00000000000E+00  0.00000000000E+00 -0.15990804050E+02  0.81104322881E+02  0.79512297010E+02 0.  0.
         66    2    3    3    0    0  0.31236848846E+02  0.88965357914E+01  0.15341296852E+02  0.35975609341E+02  0.20000008699E+01 0.  0.
        -13    1    3    3    0    0 -0.31236848846E+02 -0.88965357914E+01 -0.31332100901E+02  0.45128713540E+02  0.10566000000E+00 0.  1.
         13    1    4    4    0    0  0.28590415192E+02  0.81738828906E+01  0.14342506903E+02  0.33014282828E+02  0.10566000000E+00 0. -1.
        -13    1    4    4    0    0  0.24315198835E+01  0.61233510025E+00  0.10393558029E+01  0.27163703244E+01  0.10566000000E+00 0.  1.
         14    1    4    4    0    0  0.21491377051E+00  0.11031780059E+00 -0.40565854347E-01  0.24495618878E+00  0.00000000000E+00 0. -1.
<mgrwt>
<rscale>  0 0.79512297E+02</rscale>
<asrwt>0</asrwt>
<pdfrwt beam="1">  1        2 0.50087322E-02 0.79512297E+02</pdfrwt>
<pdfrwt beam="2">  1       -1 0.74688560E-02 0.79512297E+02</pdfrwt>
<totfact> 0.13910232E+05</totfact>
</mgrwt>
</event>
<event>
 8    1  0.1520917E-017  0.7949460E+02  0.7818608E-02  0.1330492E+00
          2   -1    0    0  501    0  0.00000000000E+00  0.00000000000E+00  0.10440359207E+04  0.10440359207E+04  0.25500000000E-02 0. -1.
         -1   -1    0    0    0  501 -0.00000000000E+00 -0.00000000000E+00 -0.15132079491E+01  0.15132163424E+01  0.50400000000E-02 0.  1.
         24    2    1    2    0    0  0.00000000000E+00  0.00000000000E+00  0.10425227127E+04  0.10455491370E+04  0.79494599658E+02 0.  0.
         66    2    3    3    0    0  0.22816015735E+02 -0.11526255845E+02  0.92148076050E+03  0.92183741361E+03  0.20000002531E+01 0.  0.
        -13    1    3    3    0    0 -0.22816015735E+02  0.11526255845E+02  0.12104195221E+03  0.12371172340E+03  0.10566000000E+00 0.  1.
         13    1    4    4    0    0  0.74181271832E+01 -0.38592416278E+01  0.29117037753E+03  0.29129044315E+03  0.10566000000E+00 0. -1.
        -13    1    4    4    0    0  0.14615725839E+02 -0.70508896163E+01  0.58127723283E+03  0.58150371198E+03  0.10566000000E+00 0.  1.
        -14    1    4    4    0    0  0.78216271292E+00 -0.61612460046E+00  0.49033150145E+02  0.49043258468E+02  0.00000000000E+00 0.  1.
<mgrwt>
<rscale>  0 0.79494600E+02</rscale>
<asrwt>0</asrwt>
<pdfrwt beam="1">  1        2 0.16062091E+00 0.79494600E+02</pdfrwt>
<pdfrwt beam="2">  1       -1 0.23280187E-03 0.79494600E+02</pdfrwt>
<totfact> 0.35855966E+05</totfact>
</mgrwt>
</event>
<event>
 8    1  0.1520917E-017  0.7925883E+02  0.7818608E-02  0.1331168E+00
         -1   -1    0    0    0  501 -0.00000000000E+00  0.00000000000E+00  0.32363531903E+01  0.32363571147E+01  0.50400000000E-02 0.  1.
          2   -1    0    0  501    0  0.00000000000E+00 -0.00000000000E+00 -0.48526520251E+03  0.48526520251E+03  0.25500000000E-02 0. -1.
         24    2    1    2    0    0  0.17763568394E-14 -0.71054273576E-14 -0.48202884932E+03  0.48850155963E+03  0.79258830333E+02 0.  0.
         66    2    3    3    0    0  0.14438969528E+02 -0.35573809989E+02 -0.30108411014E+03  0.30352861675E+03  0.20000019531E+01 0.  0.
        -13    1    3    3    0    0 -0.14438969528E+02  0.35573809989E+02 -0.18094473917E+03  0.18497294288E+03  0.10566000000E+00 0.  1.
         13    1    4    4    0    0  0.65806917729E+01 -0.16914418832E+02 -0.14626992381E+03  0.14739167155E+03  0.10566000000E+00 0. -1.
        -13    1    4    4    0    0  0.41148215953E+01 -0.10326953387E+02 -0.80802125200E+02  0.81563302556E+02  0.10566000000E+00 0.  1.
         14    1    4    4    0    0  0.37434561598E+01 -0.83324377704E+01 -0.74012061138E+02  0.74573642643E+02  0.00000000000E+00 0. -1.
<mgrwt>
<rscale>  0 0.79258830E+02</rscale>
<asrwt>0</asrwt>
<pdfrwt beam="1">  1        2 0.74656127E-01 0.79258830E+02</pdfrwt>
<pdfrwt beam="2">  1       -1 0.49790118E-03 0.79258830E+02</pdfrwt>
<totfact> 0.30900502E+05</totfact>
</mgrwt>
</event>
<event>
 8    1  0.1520917E-017  0.7723805E+02  0.7818608E-02  0.1337077E+00
          2   -1    0    0  501    0  0.00000000000E+00  0.00000000000E+00  0.71628516899E+03  0.71628516899E+03  0.25500000000E-02 0. -1.
         -1   -1    0    0    0  501 -0.00000000000E+00 -0.00000000000E+00 -0.20821693561E+01  0.20821754559E+01  0.50400000000E-02 0.  1.
         24    2    1    2    0    0  0.00000000000E+00  0.17763568394E-14  0.71420299963E+03  0.71836734445E+03  0.77238053358E+02 0.  0.
         66    2    3    3    0    0  0.26778862307E+02 -0.10887436835E+02  0.59515089701E+03  0.59585588355E+03  0.20000022493E+01 0.  0.
        -13    1    3    3    0    0 -0.26778862307E+02  0.10887436835E+02  0.11905210262E+03  0.12251146089E+03  0.10566000000E+00 0.  1.
         13    1    4    4    0    0  0.14707709141E+02 -0.61820525883E+01  0.31247706730E+03  0.31288410512E+03  0.10566000000E+00 0. -1.
        -13    1    4    4    0    0  0.15599297387E+01 -0.89452007975E+00  0.39359387208E+02  0.39400584670E+02  0.10566000000E+00 0.  1.
         14    1    4    4    0    0  0.10511223427E+02 -0.38108641667E+01  0.24331444250E+03  0.24357119376E+03  0.00000000000E+00 0. -1.
<mgrwt>
<rscale>  0 0.77238053E+02</rscale>
<asrwt>0</asrwt>
<pdfrwt beam="1">  1        2 0.11019774E+00 0.77238053E+02</pdfrwt>
<pdfrwt beam="2">  1       -1 0.32033414E-03 0.77238053E+02</pdfrwt>
<totfact> 0.36834143E+05</totfact>
</mgrwt>
</event>
<event>
 8    1  0.1520917E-017  0.8190178E+02  0.7818608E-02  0.1323739E+00
         -1   -1    0    0    0  501 -0.00000000000E+00  0.00000000000E+00  0.18765815824E+03  0.18765815831E+03  0.50400000000E-02 0.  1.
          2   -1    0    0  501    0  0.00000000000E+00 -0.00000000000E+00 -0.89363296562E+01  0.89363300200E+01  0.25500000000E-02 0. -1.
         24    2    1    2    0    0  0.00000000000E+00 -0.71054273576E-14  0.17872182859E+03  0.19659448833E+03  0.81901775492E+02 0.  0.
         66    2    3    3    0    0 -0.12499486388E+02 -0.34712426025E+02  0.46894271285E+02  0.59701443552E+02  0.20000005955E+01 0.  0.
        -13    1    3    3    0    0  0.12499486388E+02  0.34712426025E+02  0.13182755730E+03  0.13689304478E+03  0.10566000000E+00 0.  1.
         13    1    4    4    0    0 -0.45913671837E+01 -0.10630584881E+02  0.15008098679E+02  0.18956375643E+02  0.10566000000E+00 0. -1.
        -13    1    4    4    0    0 -0.19745692098E+00 -0.88634145331E+00  0.96498338892E+00  0.13292657311E+01  0.10566000000E+00 0. -1.
        -14    1    4    4    0    0 -0.77106622834E+01 -0.23195499691E+02  0.30921189217E+02  0.39415802178E+02  0.00000000000E+00 0.  1.
<mgrwt>
<rscale>  0 0.81901775E+02</rscale>
<asrwt>0</asrwt>
<pdfrwt beam="1">  1        2 0.13748201E-02 0.81901775E+02</pdfrwt>
<pdfrwt beam="2">  1       -1 0.28870483E-01 0.81901775E+02</pdfrwt>
<totfact> 0.95617015E+04</totfact>
</mgrwt>
</event>
<event>
 8    1  0.1520917E-017  0.7981572E+02  0.7818608E-02  0.1329575E+00
         -1   -1    0    0    0  501 -0.00000000000E+00  0.00000000000E+00  0.59044185745E+02  0.59044185960E+02  0.50400000000E-02 0.  1.
          2   -1    0    0  501    0  0.00000000000E+00 -0.00000000000E+00 -0.26973650612E+02  0.26973650732E+02  0.25500000000E-02 0. -1.
         24    2    1    2    0    0  0.35527136788E-14  0.88817841970E-15  0.32070535133E+02  0.86017836692E+02  0.79815719037E+02 0.  0.
         66    2    3    3    0    0  0.20681521298E+02 -0.45439208593E+01 -0.20378263237E+02  0.29455833947E+02  0.20000002571E+01 0.  0.
        -13    1    3    3    0    0 -0.20681521298E+02  0.45439208593E+01  0.52448798370E+02  0.56562002744E+02  0.10566000000E+00 0.  1.
         13    1    4    4    0    0  0.12965701712E+02 -0.30239306909E+01 -0.11939371792E+02  0.17883325769E+02  0.10566000000E+00 0. -1.
        -13    1    4    4    0    0  0.34824324009E+01 -0.39969969856E+00 -0.42798611762E+01  0.55331248856E+01  0.10566000000E+00 0.  1.
        -14    1    4    4    0    0  0.42333871843E+01 -0.11202904699E+01 -0.41590302682E+01  0.60393832931E+01  0.00000000000E+00 0.  1.
<mgrwt>
<rscale>  0 0.79815719E+02</rscale>
<asrwt>0</asrwt>
<pdfrwt beam="1">  1        2 0.41497925E-02 0.79815719E+02</pdfrwt>
<pdfrwt beam="2">  1       -1 0.90837208E-02 0.79815719E+02</pdfrwt>
<totfact> 0.13262211E+05</totfact>
</mgrwt>
</event>
<event>
 8    1  0.1520917E-017  0.7965727E+02  0.7818608E-02  0.1330027E+00
          2   -1    0    0  501    0  0.00000000000E+00  0.00000000000E+00  0.19900738881E+03  0.19900738883E+03  0.25500000000E-02 0. -1.
         -1   -1    0    0    0  501 -0.00000000000E+00 -0.00000000000E+00 -0.79711616192E+01  0.79711632126E+01  0.50400000000E-02 0.  1.
         24    2    1    2    0    0  0.00000000000E+00  0.00000000000E+00  0.19103622719E+03  0.20697855204E+03  0.79657271513E+02 0.  0.
         66    2    3    3    0    0  0.58127411806E+01  0.30263138798E+02  0.16103782960E+03  0.16397203449E+03  0.20000002754E+01 0.  0.
        -13    1    3    3    0    0 -0.58127411806E+01 -0.30263138798E+02  0.29998397588E+02  0.43006517550E+02  0.10566000000E+00 0.  1.
         13    1    4    4    0    0  0.82943077612E+00  0.43631254376E+01  0.21915181293E+02  0.22360929188E+02  0.10566000000E+00 0. -1.
        -13    1    4    4    0    0  0.48525005096E+01  0.22047510860E+02  0.11845034501E+03  0.12058248171E+03  0.10566000000E+00 0.  1.
        -14    1    4    4    0    0  0.13080989494E+00  0.38525025008E+01  0.20672303297E+02  0.21028623596E+02  0.00000000000E+00 0.  1.
<mgrwt>
<rscale>  0 0.79657272E+02</rscale>
<asrwt>0</asrwt>
<pdfrwt beam="1">  1        2 0.30616521E-01 0.79657272E+02</pdfrwt>
<pdfrwt beam="2">  1       -1 0.12263327E-02 0.79657272E+02</pdfrwt>
<totfact> 0.22271344E+05</totfact>
</mgrwt>
</event>
<event>
 8    1  0.1520917E-017  0.8106789E+02  0.7818608E-02  0.1326048E+00
          2   -1    0    0  501    0  0.00000000000E+00  0.00000000000E+00  0.27606611901E+03  0.27606611903E+03  0.25500000000E-02 0. -1.
         -1   -1    0    0    0  501 -0.00000000000E+00 -0.00000000000E+00 -0.59514737368E+01  0.59514758709E+01  0.50400000000E-02 0.  1.
         24    2    1    2    0    0  0.71054273576E-14 -0.44408920985E-15  0.27011464528E+03  0.28201759490E+03  0.81067886602E+02 0.  0.
         66    2    3    3    0    0  0.33010273606E+02 -0.33142997479E+01  0.21600381852E+03  0.21854590449E+03  0.20000022415E+01 0.  0.
        -13    1    3    3    0    0 -0.33010273606E+02  0.33142997479E+01  0.54110826759E+02  0.63471690406E+02  0.10566000000E+00 0.  1.
         13    1    4    4    0    0  0.96509668489E+01 -0.10231389038E+01  0.59773175948E+02  0.60556021181E+02  0.10566000000E+00 0. -1.
        -13    1    4    4    0    0  0.20170888453E+01 -0.29050824582E-01  0.11372850556E+02  0.11550860798E+02  0.10566000000E+00 0.  1.
        -14    1    4    4    0    0  0.21342217912E+02 -0.22621100195E+01  0.14485779201E+03  0.14643902251E+03  0.00000000000E+00 0.  1.
<mgrwt>
<rscale>  0 0.81067887E+02</rscale>
<asrwt>0</asrwt>
<pdfrwt beam="1">  1        2 0.42471704E-01 0.81067887E+02</pdfrwt>
<pdfrwt beam="2">  1       -1 0.91561165E-03 0.81067887E+02</pdfrwt>
<totfact> 0.23891279E+05</totfact>
</mgrwt>
</event>
<event>
 8    1  0.1520917E-017  0.8470205E+02  0.7818608E-02  0.1316214E+00
         -1   -1    0    0    0  501 -0.00000000000E+00  0.00000000000E+00  0.56546658735E+01  0.56546681196E+01  0.50400000000E-02 0.  1.
          2   -1    0    0  501    0  0.00000000000E+00 -0.00000000000E+00 -0.31719093980E+03  0.31719093981E+03  0.25500000000E-02 0. -1.
         24    2    1    2    0    0  0.22204460493E-15  0.00000000000E+00 -0.31153627392E+03  0.32284560792E+03  0.84702045946E+02 0.  0.
         66    2    3    3    0    0  0.18198257674E+01  0.34936381816E+02 -0.24667366064E+03  0.24915007003E+03  0.20000001649E+01 0.  0.
        -13    1    3    3    0    0 -0.18198257674E+01 -0.34936381816E+02 -0.64862613278E+02  0.73695537894E+02  0.10566000000E+00 0.  1.
         13    1    4    4    0    0 -0.11273210656E+00  0.80820515186E+01 -0.59820451645E+02  0.60364143864E+02  0.10566000000E+00 0. -1.
        -13    1    4    4    0    0  0.34577360953E+00  0.22114148444E+01 -0.17003958953E+02  0.17150967877E+02  0.10566000000E+00 0.  1.
         14    1    4    4    0    0  0.15867842644E+01  0.24642915453E+02 -0.16984925005E+03  0.17163495829E+03  0.00000000000E+00 0. -1.
<mgrwt>
<rscale>  0 0.84702046E+02</rscale>
<asrwt>0</asrwt>
<pdfrwt beam="1">  1        2 0.48798592E-01 0.84702046E+02</pdfrwt>
<pdfrwt beam="2">  1       -1 0.86994902E-03 0.84702046E+02</pdfrwt>
<totfact> 0.22388800E+05</totfact>
</mgrwt>
</event>
<event>
 8    1  0.1520917E-017  0.7816849E+02  0.7818608E-02  0.1334331E+00
         -1   -1    0    0    0  501 -0.00000000000E+00  0.00000000000E+00  0.10420572359E+02  0.10420573577E+02  0.50400000000E-02 0.  1.
          2   -1    0    0  501    0  0.00000000000E+00 -0.00000000000E+00 -0.14659254551E+03  0.14659254553E+03  0.25500000000E-02 0. -1.
         24    2    1    2    0    0  0.00000000000E+00  0.00000000000E+00 -0.13617197315E+03  0.15701311911E+03  0.78168493018E+02 0.  0.
         66    2    3    3    0    0 -0.14690866669E+02 -0.27502361012E+02 -0.11538162659E+03  0.11953711214E+03  0.19999994078E+01 0.  0.
        -13    1    3    3    0    0  0.14690866669E+02  0.27502361012E+02 -0.20790346559E+02  0.37476006975E+02  0.10566000000E+00 0.  1.
         13    1    4    4    0    0 -0.48982060087E+01 -0.98354353679E+01 -0.42418472969E+02  0.43818560269E+02  0.10566000000E+00 0. -1.
        -13    1    4    4    0    0 -0.76294065538E+01 -0.14277236667E+02 -0.60054822446E+02  0.62198393824E+02  0.10566000000E+00 0.  1.
        -14    1    4    4    0    0 -0.21632541062E+01 -0.33896889770E+01 -0.12908331179E+02  0.13520158043E+02  0.00000000000E+00 0.  1.
<mgrwt>
<rscale>  0 0.78168493E+02</rscale>
<asrwt>0</asrwt>
<pdfrwt beam="1">  1        2 0.22552698E-01 0.78168493E+02</pdfrwt>
<pdfrwt beam="2">  1       -1 0.16031652E-02 0.78168493E+02</pdfrwt>
<totfact> 0.21141949E+05</totfact>
</mgrwt>
</event>
<event>
 8    1  0.1520917E-017  0.8413542E+02  0.7818608E-02  0.1317709E+00
         -1   -1    0    0    0  501 -0.00000000000E+00  0.00000000000E+00  0.61335752391E+01  0.61335773098E+01  0.50400000000E-02 0.  1.
          2   -1    0    0  501    0  0.00000000000E+00 -0.00000000000E+00 -0.28852534640E+03  0.28852534641E+03  0.25500000000E-02 0. -1.
         24    2    1    2    0    0 -0.35527136788E-14  0.00000000000E+00 -0.28239177116E+03  0.29465892372E+03  0.84135420062E+02 0.  0.
         66    2    3    3    0    0  0.31750339725E+02 -0.21195933925E+02 -0.20297137258E+03  0.20653989875E+03  0.19999999497E+01 0.  0.
        -13    1    3    3    0    0 -0.31750339725E+02  0.21195933925E+02 -0.79420398581E+02  0.88119024974E+02  0.10566000000E+00 0.  1.
         13    1    4    4    0    0  0.11189466954E+02 -0.73903196982E+01 -0.74819763491E+02  0.76012033053E+02  0.10566000000E+00 0. -1.
        -13    1    4    4    0    0  0.68285194262E+01 -0.40052944060E+01 -0.42151623833E+02  0.42888711996E+02  0.10566000000E+00 0.  1.
         14    1    4    4    0    0  0.13732353346E+02 -0.98003198203E+01 -0.85999985254E+02  0.87639153697E+02  0.00000000000E+00 0. -1.
<mgrwt>
<rscale>  0 0.84135420E+02</rscale>
<asrwt>0</asrwt>
<pdfrwt beam="1">  1        2 0.44388504E-01 0.84135420E+02</pdfrwt>
<pdfrwt beam="2">  1       -1 0.94362735E-03 0.84135420E+02</pdfrwt>
<totfact> 0.22016475E+05</totfact>
</mgrwt>
</event>
<event>
 8    1  0.1520917E-017  0.7987777E+02  0.7818608E-02  0.1329399E+00
         -1   -1    0    0    0  501 -0.00000000000E+00  0.00000000000E+00  0.39368976702E+02  0.39368977025E+02  0.50400000000E-02 0.  1.
          2   -1    0    0  501    0  0.00000000000E+00 -0.00000000000E+00 -0.40517042901E+02  0.40517042981E+02  0.25500000000E-02 0. -1.
         24    2    1    2    0    0 -0.88817841970E-15  0.00000000000E+00 -0.11480661986E+01  0.79886020006E+02  0.79877769976E+02 0.  0.
         66    2    3    3    0    0 -0.65494874292E+01  0.35978275171E+02 -0.16569088846E+02  0.40197845780E+02  0.20000075853E+01 0.  0.
        -13    1    3    3    0    0  0.65494874292E+01 -0.35978275171E+02  0.15421022648E+02  0.39688174226E+02  0.10566000000E+00 0.  1.
         13    1    4    4    0    0 -0.53122867470E+01  0.28079177279E+02 -0.12778315552E+02  0.31304266475E+02  0.10566000000E+00 0. -1.
        -13    1    4    4    0    0 -0.83602044553E+00  0.26965821557E+01 -0.14286247060E+01  0.31658518749E+01  0.10566000000E+00 0.  1.
         14    1    4    4    0    0 -0.40118023670E+00  0.52025157359E+01 -0.23621485880E+01  0.57277274304E+01  0.00000000000E+00 0. -1.
<mgrwt>
<rscale>  0 0.79877770E+02</rscale>
<asrwt>0</asrwt>
<pdfrwt beam="1">  1        2 0.62333912E-02 0.79877770E+02</pdfrwt>
<pdfrwt beam="2">  1       -1 0.60567657E-02 0.79877770E+02</pdfrwt>
<totfact> 0.14353473E+05</totfact>
</mgrwt>
</event>
<event>
 8    1  0.1520917E-017  0.8060858E+02  0.7818608E-02  0.1327333E+00
         -1   -1    0    0    0  501 -0.00000000000E+00  0.00000000000E+00  0.22549311056E+01  0.22549367380E+01  0.50400000000E-02 0.  1.
          2   -1    0    0  501    0  0.00000000000E+00 -0.00000000000E+00 -0.72039175285E+03  0.72039175285E+03  0.25500000000E-02 0. -1.
         24    2    1    2    0    0  0.00000000000E+00  0.00000000000E+00 -0.71813682174E+03  0.72264668959E+03  0.80608580398E+02 0.  0.
         66    2    3    3    0    0 -0.26789582785E+02  0.86479293114E+01 -0.61755883223E+03  0.61820334818E+03  0.20000012428E+01 0.  0.
        -13    1    3    3    0    0  0.26789582785E+02 -0.86479293114E+01 -0.10057798951E+03  0.10444334141E+03  0.10566000000E+00 0.  1.
         13    1    4    4    0    0 -0.62702804937E+01  0.18747387783E+01 -0.15606560872E+03  0.15620280552E+03  0.10566000000E+00 0. -1.
        -13    1    4    4    0    0 -0.62486238835E+01  0.26394546572E+01 -0.14076556940E+03  0.14092894917E+03  0.10566000000E+00 0. -1.
        -14    1    4    4    0    0 -0.14270678408E+02  0.41337358760E+01 -0.32072765411E+03  0.32107159349E+03  0.00000000000E+00 0.  1.
<mgrwt>
<rscale>  0 0.80608580E+02</rscale>
<asrwt>0</asrwt>
<pdfrwt beam="1">  1        2 0.11082932E+00 0.80608580E+02</pdfrwt>
<pdfrwt beam="2">  1       -1 0.34691349E-03 0.80608580E+02</pdfrwt>
<totfact> 0.33010092E+05</totfact>
</mgrwt>
</event>
<event>
 8    1  0.1520917E-017  0.7872804E+02  0.7818608E-02  0.1332700E+00
          2   -1    0    0  501    0  0.00000000000E+00  0.00000000000E+00  0.29092605307E+03  0.29092605308E+03  0.25500000000E-02 0. -1.
         -1   -1    0    0    0  501 -0.00000000000E+00 -0.00000000000E+00 -0.53261835856E+01  0.53261859702E+01  0.50400000000E-02 0.  1.
         24    2    1    2    0    0 -0.35527136788E-14 -0.17763568394E-14  0.28559986949E+03  0.29625223905E+03  0.78728036261E+02 0.  0.
         66    2    3    3    0    0 -0.30473027826E+02  0.11612786485E+02  0.22568247900E+03  0.22803518047E+03  0.19999925726E+01 0.  0.
        -13    1    3    3    0    0  0.30473027826E+02 -0.11612786485E+02  0.59917390487E+02  0.68217058583E+02  0.10566000000E+00 0.  1.
         13    1    4    4    0    0 -0.88222056396E+01  0.28978612933E+01  0.68659355741E+02  0.69284538010E+02  0.10566000000E+00 0. -1.
        -13    1    4    4    0    0 -0.18075029889E+02  0.69422105592E+01  0.13101929575E+03  0.13244231958E+03  0.10566000000E+00 0.  1.
        -14    1    4    4    0    0 -0.35757922974E+01  0.17727146320E+01  0.26003827503E+02  0.26308322876E+02  0.00000000000E+00 0.  1.
<mgrwt>
<rscale>  0 0.78728036E+02</rscale>
<asrwt>0</asrwt>
<pdfrwt beam="1">  1        2 0.44757859E-01 0.78728036E+02</pdfrwt>
<pdfrwt beam="2">  1       -1 0.81941295E-03 0.78728036E+02</pdfrwt>
<totfact> 0.26294050E+05</totfact>
</mgrwt>
</event>
<event>
 8    1  0.1520917E-017  0.7995604E+02  0.7818608E-02  0.1329176E+00
         -1   -1    0    0    0  501 -0.00000000000E+00  0.00000000000E+00  0.11236630613E+02  0.11236631743E+02  0.50400000000E-02 0.  1.
          2   -1    0    0  501    0  0.00000000000E+00 -0.00000000000E+00 -0.14223498601E+03  0.14223498603E+03  0.25500000000E-02 0. -1.
         24    2    1    2    0    0  0.00000000000E+00 -0.35527136788E-14 -0.13099835540E+03  0.15347161778E+03  0.79956040084E+02 0.  0.
         66    2    3    3    0    0  0.22866076517E+02 -0.23622457150E+02 -0.10911448443E+03  0.11397740415E+03  0.20000019194E+01 0.  0.
        -13    1    3    3    0    0 -0.22866076517E+02  0.23622457150E+02 -0.21883870963E+02  0.39494213620E+02  0.10566000000E+00 0.  1.
         13    1    4    4    0    0  0.16005608908E+02 -0.16756620344E+02 -0.76113979620E+02  0.79563263505E+02  0.10566000000E+00 0. -1.
        -13    1    4    4    0    0  0.15592310878E+01 -0.18011209088E+01 -0.96129321666E+01  0.99042852841E+01  0.10566000000E+00 0.  1.
        -14    1    4    4    0    0  0.53012365215E+01 -0.50647158975E+01 -0.23387572646E+02  0.24509855366E+02  0.00000000000E+00 0.  1.
<mgrwt>
<rscale>  0 0.79956040E+02</rscale>
<asrwt>0</asrwt>
<pdfrwt beam="1">  1        2 0.21882304E-01 0.79956040E+02</pdfrwt>
<pdfrwt beam="2">  1       -1 0.17287126E-02 0.79956040E+02</pdfrwt>
<totfact> 0.19721317E+05</totfact>
</mgrwt>
</event>
<event>
 8    1  0.1520917E-017  0.7342595E+02  0.7818608E-02  0.1348816E+00
          2   -1    0    0  501    0  0.00000000000E+00  0.00000000000E+00  0.64676930654E+03  0.64676930655E+03  0.25500000000E-02 0. -1.
         -1   -1    0    0    0  501 -0.00000000000E+00 -0.00000000000E+00 -0.20839585754E+01  0.20839646700E+01  0.50400000000E-02 0.  1.
         24    2    1    2    0    0 -0.88817841970E-15  0.00000000000E+00  0.64468534797E+03  0.64885327122E+03  0.73425946955E+02 0.  0.
         66    2    3    3    0    0 -0.45964784863E+01  0.13328810667E+02  0.62186870419E+03  0.62203172753E+03  0.19999998575E+01 0.  0.
        -13    1    3    3    0    0  0.45964784863E+01 -0.13328810667E+02  0.22816643776E+02  0.26821543682E+02  0.10566000000E+00 0.  1.
         13    1    4    4    0    0 -0.23057507503E+01  0.83613692813E+01  0.39894449184E+03  0.39903877971E+03  0.10566000000E+00 0. -1.
        -13    1    4    4    0    0 -0.54186591504E+00  0.58721496418E+00  0.38507188361E+02  0.38515622279E+02  0.10566000000E+00 0.  1.
        -14    1    4    4    0    0 -0.17488618209E+01  0.43802264220E+01  0.18441702399E+03  0.18447732554E+03  0.00000000000E+00 0.  1.
<mgrwt>
<rscale>  0 0.73425947E+02</rscale>
<asrwt>0</asrwt>
<pdfrwt beam="1">  1        2 0.99503108E-01 0.73425947E+02</pdfrwt>
<pdfrwt beam="2">  1       -1 0.32060904E-03 0.73425947E+02</pdfrwt>
<totfact> 0.40973591E+05</totfact>
</mgrwt>
</event>
<event>
 8    1  0.1520917E-017  0.8096344E+02  0.7818608E-02  0.1326339E+00
          2   -1    0    0  501    0  0.00000000000E+00  0.00000000000E+00  0.57905970553E+03  0.57905970553E+03  0.25500000000E-02 0. -1.
         -1   -1    0    0    0  501 -0.00000000000E+00 -0.00000000000E+00 -0.28300505375E+01  0.28300550253E+01  0.50400000000E-02 0.  1.
         24    2    1    2    0    0  0.35527136788E-14  0.00000000000E+00  0.57622965499E+03  0.58188976056E+03  0.80963437135E+02 0.  0.
         66    2    3    3    0    0 -0.30031705670E+02 -0.11095537574E+02  0.46605212118E+03  0.46715478585E+03  0.19999980282E+01 0.  0.
        -13    1    3    3    0    0  0.30031705670E+02  0.11095537574E+02  0.11017753381E+03  0.11473497470E+03  0.10566000000E+00 0.  1.
         13    1    4    4    0    0 -0.15320232429E+02 -0.63464754366E+01  0.24423708905E+03  0.24479941606E+03  0.10566000000E+00 0. -1.
        -13    1    4    4    0    0 -0.48516801206E+01 -0.19589950954E+01  0.70949444430E+02  0.71142190652E+02  0.10566000000E+00 0.  1.
         14    1    4    4    0    0 -0.98597931206E+01 -0.27900670423E+01  0.15086558770E+03  0.15121317914E+03  0.00000000000E+00 0. -1.
<mgrwt>
<rscale>  0 0.80963437E+02</rscale>
<asrwt>0</asrwt>
<pdfrwt beam="1">  1        2 0.89086110E-01 0.80963437E+02</pdfrwt>
<pdfrwt beam="2">  1       -1 0.43539273E-03 0.80963437E+02</pdfrwt>
<totfact> 0.30864267E+05</totfact>
</mgrwt>
</event>
<event>
 8    1  0.1520917E-017  0.8115449E+02  0.7818608E-02  0.1325807E+00
          2   -1    0    0  501    0  0.00000000000E+00  0.00000000000E+00  0.13324173646E+03  0.13324173649E+03  0.25500000000E-02 0. -1.
         -1   -1    0    0    0  501 -0.00000000000E+00 -0.00000000000E+00 -0.12357333451E+02  0.12357334479E+02  0.50400000000E-02 0.  1.
         24    2    1    2    0    0  0.88817841970E-15  0.00000000000E+00  0.12088440301E+03  0.14559907097E+03  0.81154485858E+02 0.  0.
         66    2    3    3    0    0 -0.55227354068E+01 -0.27431666886E+02  0.11313826984E+03  0.11656442446E+03  0.19999981791E+01 0.  0.
        -13    1    3    3    0    0  0.55227354068E+01  0.27431666886E+02  0.77461331688E+01  0.29034646504E+02  0.10566000000E+00 0.  1.
         13    1    4    4    0    0 -0.19261421083E+01 -0.10963859247E+02  0.45543344986E+02  0.46884151582E+02  0.10566000000E+00 0. -1.
        -13    1    4    4    0    0 -0.33887962280E+00 -0.45397900044E+01  0.18511069702E+02  0.19062932571E+02  0.10566000000E+00 0.  1.
         14    1    4    4    0    0 -0.32577136757E+01 -0.11928017635E+02  0.49083855156E+02  0.50617340310E+02  0.00000000000E+00 0. -1.
<mgrwt>
<rscale>  0 0.81154486E+02</rscale>
<asrwt>0</asrwt>
<pdfrwt beam="1">  1        2 0.20498730E-01 0.81154486E+02</pdfrwt>
<pdfrwt beam="2">  1       -1 0.19011282E-02 0.81154486E+02</pdfrwt>
<totfact> 0.18570896E+05</totfact>
</mgrwt>
</event>
<event>
 8    1  0.1520917E-017  0.7981771E+02  0.7818608E-02  0.1329570E+00
          2   -1    0    0  501    0  0.00000000000E+00  0.00000000000E+00  0.76922988728E+03  0.76922988728E+03  0.25500000000E-02 0. -1.
         -1   -1    0    0    0  501 -0.00000000000E+00 -0.00000000000E+00 -0.20705310632E+01  0.20705371973E+01  0.50400000000E-02 0.  1.
         24    2    1    2    0    0  0.00000000000E+00  0.35527136788E-14  0.76715935622E+03  0.77130042448E+03  0.79817710907E+02 0.  0.
         66    2    3    3    0    0  0.58040886505E+01 -0.18406327899E+02  0.72109876285E+03  0.72135976192E+03  0.19999951606E+01 0.  0.
        -13    1    3    3    0    0 -0.58040886505E+01  0.18406327899E+02  0.46060593362E+02  0.49940662558E+02  0.10566000000E+00 0.  1.
         13    1    4    4    0    0  0.36009478718E+01 -0.10110935118E+02  0.41661285081E+03  0.41675109652E+03  0.10566000000E+00 0. -1.
        -13    1    4    4    0    0  0.11336410914E+01 -0.57316253983E+01  0.21695996775E+03  0.21703864965E+03  0.10566000000E+00 0.  1.
        -14    1    4    4    0    0  0.10694996874E+01 -0.25637673825E+01  0.87525944304E+02  0.87570015754E+02  0.00000000000E+00 0.  1.
<mgrwt>
<rscale>  0 0.79817711E+02</rscale>
<asrwt>0</asrwt>
<pdfrwt beam="1">  1        2 0.11834319E+00 0.79817711E+02</pdfrwt>
<pdfrwt beam="2">  1       -1 0.31854336E-03 0.79817711E+02</pdfrwt>
<totfact> 0.34324601E+05</totfact>
</mgrwt>
</event>
<event>
 8    1  0.1520917E-017  0.7619528E+02  0.7818608E-02  0.1340209E+00
         -1   -1    0    0    0  501 -0.00000000000E+00  0.00000000000E+00  0.12117861337E+03  0.12117861347E+03  0.50400000000E-02 0.  1.
          2   -1    0    0  501    0  0.00000000000E+00 -0.00000000000E+00 -0.11977610371E+02  0.11977610642E+02  0.25500000000E-02 0. -1.
         24    2    1    2    0    0  0.00000000000E+00  0.00000000000E+00  0.10920100300E+03  0.13315622412E+03  0.76195281777E+02 0.  0.
         66    2    3    3    0    0  0.33744712289E+02 -0.12228587891E+02  0.32451411998E+02  0.48428691094E+02  0.20000027831E+01 0.  0.
        -13    1    3    3    0    0 -0.33744712289E+02  0.12228587891E+02  0.76749591001E+02  0.84727533023E+02  0.10566000000E+00 0.  1.
         13    1    4    4    0    0  0.15193533660E+02 -0.56174855113E+01  0.14818138070E+02  0.21954224843E+02  0.10566000000E+00 0. -1.
        -13    1    4    4    0    0  0.53326295793E+01 -0.13288594734E+01  0.53949910643E+01  0.77019412066E+01  0.10566000000E+00 0.  1.
        -14    1    4    4    0    0  0.13218549050E+02 -0.52822429060E+01  0.12238282864E+02  0.18772525045E+02  0.00000000000E+00 0.  1.
<mgrwt>
<rscale>  0 0.76195282E+02</rscale>
<asrwt>0</asrwt>
<pdfrwt beam="1">  1        2 0.18427094E-02 0.76195282E+02</pdfrwt>
<pdfrwt beam="2">  1       -1 0.18642863E-01 0.76195282E+02</pdfrwt>
<totfact> 0.12836645E+05</totfact>
</mgrwt>
</event>
<event>
 8    1  0.1520917E-017  0.7892677E+02  0.7818608E-02  0.1332125E+00
          2   -1    0    0  501    0  0.00000000000E+00  0.00000000000E+00  0.27733092628E+03  0.27733092629E+03  0.25500000000E-02 0. -1.
         -1   -1    0    0    0  501 -0.00000000000E+00 -0.00000000000E+00 -0.56155233691E+01  0.56155256308E+01  0.50400000000E-02 0.  1.
         24    2    1    2    0    0  0.00000000000E+00  0.00000000000E+00  0.27171540291E+03  0.28294645192E+03  0.78926766540E+02 0.  0.
         66    2    3    3    0    0  0.11600320723E+02  0.35822635253E+02  0.17798548045E+03  0.18193586750E+03  0.19999984290E+01 0.  0.
        -13    1    3    3    0    0 -0.11600320723E+02 -0.35822635253E+02  0.93729922462E+02  0.10101058443E+03  0.10566000000E+00 0.  1.
         13    1    4    4    0    0  0.72868778465E+01  0.22670015560E+02  0.11467894866E+03  0.11712514940E+03  0.10566000000E+00 0. -1.
        -13    1    4    4    0    0  0.37386740276E+01  0.10060770362E+02  0.48319890825E+02  0.49497674664E+02  0.10566000000E+00 0.  1.
         14    1    4    4    0    0  0.57476884888E+00  0.30918493301E+01  0.14986640969E+02  0.15313043428E+02  0.00000000000E+00 0. -1.
<mgrwt>
<rscale>  0 0.78926767E+02</rscale>
<asrwt>0</asrwt>
<pdfrwt beam="1">  1        2 0.42666282E-01 0.78926767E+02</pdfrwt>
<pdfrwt beam="2">  1       -1 0.86392714E-03 0.78926767E+02</pdfrwt>
<totfact> 0.25672603E+05</totfact>
</mgrwt>
</event>
<event>
 8    1  0.1520917E-017  0.7926093E+02  0.7818608E-02  0.1331162E+00
          2   -1    0    0  501    0  0.00000000000E+00  0.00000000000E+00  0.38168696757E+03  0.38168696758E+03  0.25500000000E-02 0. -1.
         -1   -1    0    0    0  501 -0.00000000000E+00 -0.00000000000E+00 -0.41148201112E+01  0.41148231978E+01  0.50400000000E-02 0.  1.
         24    2    1    2    0    0 -0.44408920985E-15 -0.17763568394E-14  0.37757214746E+03  0.38580179078E+03  0.79260931294E+02 0.  0.
         66    2    3    3    0    0  0.28096330834E+01  0.14362514858E+02  0.36803968979E+03  0.36833597318E+03  0.20000018373E+01 0.  0.
        -13    1    3    3    0    0 -0.28096330834E+01 -0.14362514858E+02  0.95324576743E+01  0.17465817601E+02  0.10566000000E+00 0.  1.
         13    1    4    4    0    0  0.12354905420E+01  0.79272246130E+01  0.19736524664E+03  0.19752827411E+03  0.10566000000E+00 0. -1.
        -13    1    4    4    0    0  0.31464854437E+00  0.21039882612E+00  0.90868776960E+01  0.90953714421E+01  0.10566000000E+00 0.  1.
        -14    1    4    4    0    0  0.12594939970E+01  0.62248914191E+01  0.16158756545E+03  0.16171232763E+03  0.00000000000E+00 0.  1.
<mgrwt>
<rscale>  0 0.79260931E+02</rscale>
<asrwt>0</asrwt>
<pdfrwt beam="1">  1        2 0.58721086E-01 0.79260931E+02</pdfrwt>
<pdfrwt beam="2">  1       -1 0.63304934E-03 0.79260931E+02</pdfrwt>
<totfact> 0.28473929E+05</totfact>
</mgrwt>
</event>
<event>
 8    1  0.1520917E-017  0.8483288E+02  0.7818608E-02  0.1315870E+00
         -1   -1    0    0    0  501 -0.00000000000E+00  0.00000000000E+00  0.19576101613E+02  0.19576102262E+02  0.50400000000E-02 0.  1.
          2   -1    0    0  501    0  0.00000000000E+00 -0.00000000000E+00 -0.91905653352E+02  0.91905653387E+02  0.25500000000E-02 0. -1.
         24    2    1    2    0    0  0.00000000000E+00  0.35527136788E-14 -0.72329551739E+02  0.11148175565E+03  0.84832881526E+02 0.  0.
         66    2    3    3    0    0  0.19056047407E+02  0.20460608205E+02 -0.78059730146E+02  0.82940285129E+02  0.19999989976E+01 0.  0.
        -13    1    3    3    0    0 -0.19056047407E+02 -0.20460608205E+02  0.57301784070E+01  0.28541470521E+02  0.10566000000E+00 0.  1.
         13    1    4    4    0    0  0.13235929558E+02  0.13742735888E+02 -0.55215530168E+02  0.58419333758E+02  0.10566000000E+00 0. -1.
        -13    1    4    4    0    0  0.47530706684E+01  0.52211429114E+01 -0.17587173776E+02  0.18951829979E+02  0.10566000000E+00 0.  1.
         14    1    4    4    0    0  0.10670471805E+01  0.14967294048E+01 -0.52570262011E+01  0.55691213917E+01  0.00000000000E+00 0. -1.
<mgrwt>
<rscale>  0 0.84832882E+02</rscale>
<asrwt>0</asrwt>
<pdfrwt beam="1">  1        2 0.14139331E-01 0.84832882E+02</pdfrwt>
<pdfrwt beam="2">  1       -1 0.30117081E-02 0.84832882E+02</pdfrwt>
<totfact> 0.14786523E+05</totfact>
</mgrwt>
</event>
<event>
 8    1  0.1520917E-017  0.8040189E+02  0.7818608E-02  0.1327915E+00
          2   -1    0    0  501    0  0.00000000000E+00  0.00000000000E+00  0.25190754598E+02  0.25190754727E+02  0.25500000000E-02 0. -1.
         -1   -1    0    0    0  501 -0.00000000000E+00 -0.00000000000E+00 -0.64155116170E+02  0.64155116368E+02  0.50400000000E-02 0.  1.
         24    2    1    2    0    0  0.00000000000E+00  0.00000000000E+00 -0.38964361572E+02  0.89345871095E+02  0.80401885606E+02 0.  0.
         66    2    3    3    0    0  0.43327626650E+01  0.35734115093E+02 -0.39323270008E+02  0.53348096259E+02  0.19999991246E+01 0.  0.
        -13    1    3    3    0    0 -0.43327626650E+01 -0.35734115093E+02  0.35890843607E+00  0.35997774836E+02  0.10566000000E+00 0.  1.
         13    1    4    4    0    0  0.18252135022E+00  0.34296966990E+00 -0.38207169629E+00  0.55505410049E+00  0.10566000000E+00 0.  1.
        -13    1    4    4    0    0  0.36194000699E+01  0.27685816222E+02 -0.30703667653E+02  0.41500974063E+02  0.10566000000E+00 0. -1.
         14    1    4    4    0    0  0.53084124488E+00  0.77053292011E+01 -0.82375306587E+01  0.11292068096E+02  0.00000000000E+00 0. -1.
<mgrwt>
<rscale>  0 0.80401886E+02</rscale>
<asrwt>0</asrwt>
<pdfrwt beam="1">  1        2 0.38755007E-02 0.80401886E+02</pdfrwt>
<pdfrwt beam="2">  1       -1 0.98700179E-02 0.80401886E+02</pdfrwt>
<totfact> 0.12816702E+05</totfact>
</mgrwt>
</event>
<event>
 8    1  0.1520917E-017  0.7988083E+02  0.7818608E-02  0.1329390E+00
          2   -1    0    0  501    0  0.00000000000E+00  0.00000000000E+00  0.76027063838E+02  0.76027063880E+02  0.25500000000E-02 0. -1.
         -1   -1    0    0    0  501 -0.00000000000E+00 -0.00000000000E+00 -0.20982483000E+02  0.20982483605E+02  0.50400000000E-02 0.  1.
         24    2    1    2    0    0  0.00000000000E+00  0.00000000000E+00  0.55044580838E+02  0.97009547485E+02  0.79880826383E+02 0.  0.
         66    2    3    3    0    0  0.13796513701E+02 -0.14684779647E+02  0.69384355439E+02  0.72278456866E+02  0.20000009028E+01 0.  0.
        -13    1    3    3    0    0 -0.13796513701E+02  0.14684779647E+02 -0.14339774601E+02  0.24731090619E+02  0.10566000000E+00 0.  1.
         13    1    4    4    0    0  0.42702163725E+01 -0.41142364421E+01  0.21233010016E+02  0.22045715405E+02  0.10566000000E+00 0. -1.
        -13    1    4    4    0    0  0.67599806144E-01 -0.31940448691E+00  0.16130400513E+01  0.16491365021E+01  0.10566000000E+00 0.  1.
         14    1    4    4    0    0  0.94586975220E+01 -0.10251138718E+02  0.46538305372E+02  0.48583604958E+02  0.00000000000E+00 0. -1.
<mgrwt>
<rscale>  0 0.79880826E+02</rscale>
<asrwt>0</asrwt>
<pdfrwt beam="1">  1        2 0.11696471E-01 0.79880826E+02</pdfrwt>
<pdfrwt beam="2">  1       -1 0.32280744E-02 0.79880826E+02</pdfrwt>
<totfact> 0.16547167E+05</totfact>
</mgrwt>
</event>
<event>
 8    1  0.1520917E-017  0.7999624E+02  0.7818608E-02  0.1329062E+00
         -1   -1    0    0    0  501 -0.00000000000E+00  0.00000000000E+00  0.19988882044E+01  0.19988945584E+01  0.50400000000E-02 0.  1.
          2   -1    0    0  501    0  0.00000000000E+00 -0.00000000000E+00 -0.80036839107E+03  0.80036839107E+03  0.25500000000E-02 0. -1.
         24    2    1    2    0    0 -0.35527136788E-14  0.17763568394E-14 -0.79836950287E+03  0.80236728563E+03  0.79996237082E+02 0.  0.
         66    2    3    3    0    0  0.22432008707E+02 -0.90475428520E+01 -0.71863415044E+03  0.71904387573E+03  0.20000021802E+01 0.  0.
        -13    1    3    3    0    0 -0.22432008707E+02  0.90475428520E+01 -0.79735352428E+02  0.83323409899E+02  0.10566000000E+00 0.  1.
         13    1    4    4    0    0  0.82223060595E+01 -0.35592590769E+01 -0.24814236736E+03  0.24830408834E+03  0.10566000000E+00 0. -1.
        -13    1    4    4    0    0  0.36865562206E+01 -0.12340708610E+01 -0.13527779567E+03  0.13533368684E+03  0.10566000000E+00 0.  1.
        -14    1    4    4    0    0  0.10523146427E+02 -0.42542129141E+01 -0.33521398740E+03  0.33540610055E+03  0.00000000000E+00 0.  1.
<mgrwt>
<rscale>  0 0.79996237E+02</rscale>
<asrwt>0</asrwt>
<pdfrwt beam="1">  1        2 0.12313334E+00 0.79996237E+02</pdfrwt>
<pdfrwt beam="2">  1       -1 0.30752239E-03 0.79996237E+02</pdfrwt>
<totfact> 0.34372565E+05</totfact>
</mgrwt>
</event>
<event>
 8    1  0.1520917E-017  0.7495343E+02  0.7818608E-02  0.1344015E+00
          2   -1    0    0  501    0  0.00000000000E+00  0.00000000000E+00  0.21821640636E+03  0.21821640637E+03  0.25500000000E-02 0. -1.
         -1   -1    0    0    0  501 -0.00000000000E+00 -0.00000000000E+00 -0.64362892040E+01  0.64362911773E+01  0.50400000000E-02 0.  1.
         24    2    1    2    0    0  0.00000000000E+00  0.00000000000E+00  0.21178011715E+03  0.22465269755E+03  0.74953428840E+02 0.  0.
         66    2    3    3    0    0  0.25670471613E+02 -0.15885279677E+02  0.17239187554E+03  0.17502649515E+03  0.20000072167E+01 0.  0.
        -13    1    3    3    0    0 -0.25670471613E+02  0.15885279677E+02  0.39388241615E+02  0.49626202402E+02  0.10566000000E+00 0.  1.
         13    1    4    4    0    0  0.85319011622E+01 -0.57432414715E+01  0.60182923115E+02  0.61055495729E+02  0.10566000000E+00 0. -1.
        -13    1    4    4    0    0  0.19135305464E+01 -0.11981304154E+01  0.10480953252E+02  0.10721877669E+02  0.10566000000E+00 0. -1.
        -14    1    4    4    0    0  0.15225039905E+02 -0.89439077898E+01  0.10172799917E+03  0.10324912175E+03  0.00000000000E+00 0.  1.
<mgrwt>
<rscale>  0 0.74953429E+02</rscale>
<asrwt>0</asrwt>
<pdfrwt beam="1">  1        2 0.33571758E-01 0.74953429E+02</pdfrwt>
<pdfrwt beam="2">  1       -1 0.99019841E-03 0.74953429E+02</pdfrwt>
<totfact> 0.26985137E+05</totfact>
</mgrwt>
</event>
<event>
 8    1  0.1520917E-017  0.8048302E+02  0.7818608E-02  0.1327686E+00
         -1   -1    0    0    0  501 -0.00000000000E+00  0.00000000000E+00  0.35220584189E+02  0.35220584550E+02  0.50400000000E-02 0.  1.
          2   -1    0    0  501    0  0.00000000000E+00 -0.00000000000E+00 -0.45978203958E+02  0.45978204029E+02  0.25500000000E-02 0. -1.
         24    2    1    2    0    0 -0.35527136788E-14  0.00000000000E+00 -0.10757619769E+02  0.81198788579E+02  0.80483022331E+02 0.  0.
         66    2    3    3    0    0  0.31503710709E+02 -0.54978342536E+01 -0.29984733253E+02  0.43883871631E+02  0.19999977880E+01 0.  0.
        -13    1    3    3    0    0 -0.31503710709E+02  0.54978342536E+01  0.19227113484E+02  0.37314916948E+02  0.10566000000E+00 0.  1.
         13    1    4    4    0    0  0.47240798229E+01 -0.43708211224E+00 -0.47436640877E+01  0.67098050611E+01  0.10566000000E+00 0. -1.
        -13    1    4    4    0    0  0.60564629685E+01 -0.74370472842E+00 -0.50642553728E+01  0.79304279158E+01  0.10566000000E+00 0.  1.
        -14    1    4    4    0    0  0.20723167917E+02 -0.43170474129E+01 -0.20176813793E+02  0.29243638654E+02  0.00000000000E+00 0.  1.
<mgrwt>
<rscale>  0 0.80483022E+02</rscale>
<asrwt>0</asrwt>
<pdfrwt beam="1">  1        2 0.70735699E-02 0.80483022E+02</pdfrwt>
<pdfrwt beam="2">  1       -1 0.54185514E-02 0.80483022E+02</pdfrwt>
<totfact> 0.14435058E+05</totfact>
</mgrwt>
</event>
<event>
 8    1  0.1520917E-017  0.8471563E+02  0.7818608E-02  0.1316178E+00
         -1   -1    0    0    0  501 -0.00000000000E+00  0.00000000000E+00  0.61267649804E+02  0.61267650012E+02  0.50400000000E-02 0.  1.
          2   -1    0    0  501    0  0.00000000000E+00 -0.00000000000E+00 -0.29284369393E+02  0.29284369504E+02  0.25500000000E-02 0. -1.
         24    2    1    2    0    0  0.00000000000E+00  0.00000000000E+00  0.31983280411E+02  0.90552019516E+02  0.84715630273E+02 0.  0.
         66    2    3    3    0    0  0.32483770299E+02  0.12829485895E+00 -0.13016893014E+02  0.35052122537E+02  0.19999995517E+01 0.  0.
        -13    1    3    3    0    0 -0.32483770299E+02 -0.12829485895E+00  0.45000173425E+02  0.55499896979E+02  0.10566000000E+00 0.  1.
         13    1    4    4    0    0  0.20584576519E+02  0.18728594184E+00 -0.91592563766E+01  0.22531378296E+02  0.10566000000E+00 0. -1.
        -13    1    4    4    0    0  0.36159418222E+01  0.18651591497E+00 -0.12912275259E+01  0.38455501567E+01  0.10566000000E+00 0.  1.
        -14    1    4    4    0    0  0.82832519574E+01 -0.24550699786E+00 -0.25664091116E+01  0.86751940845E+01  0.00000000000E+00 0.  1.
<mgrwt>
<rscale>  0 0.84715630E+02</rscale>
<asrwt>0</asrwt>
<pdfrwt beam="1">  1        2 0.45052877E-02 0.84715630E+02</pdfrwt>
<pdfrwt beam="2">  1       -1 0.94257922E-02 0.84715630E+02</pdfrwt>
<totfact> 0.11393639E+05</totfact>
</mgrwt>
</event>
<event>
 8    1  0.1520917E-017  0.8979074E+02  0.7818608E-02  0.1303359E+00
          2   -1    0    0  501    0  0.00000000000E+00  0.00000000000E+00  0.94737073905E+03  0.94737073905E+03  0.25500000000E-02 0. -1.
         -1   -1    0    0    0  501 -0.00000000000E+00 -0.00000000000E+00 -0.21275637361E+01  0.21275697058E+01  0.50400000000E-02 0.  1.
         24    2    1    2    0    0  0.00000000000E+00  0.17763568394E-14  0.94524317531E+03  0.94949830876E+03  0.89790744841E+02 0.  0.
         66    2    3    3    0    0  0.33950894151E+02 -0.10801779821E+02  0.76133917980E+03  0.76217497228E+03  0.20000013300E+01 0.  0.
        -13    1    3    3    0    0 -0.33950894151E+02  0.10801779821E+02  0.18390399551E+03  0.18732333648E+03  0.10566000000E+00 0.  1.
         13    1    4    4    0    0  0.11601967318E+02 -0.43428957985E+01  0.25199405741E+03  0.25229839977E+03  0.10566000000E+00 0. -1.
        -13    1    4    4    0    0  0.20871437486E+02 -0.62041258035E+01  0.47695952039E+03  0.47745628421E+03  0.10566000000E+00 0.  1.
         14    1    4    4    0    0  0.14774893474E+01 -0.25475821944E+00  0.32385601995E+02  0.32420288294E+02  0.00000000000E+00 0. -1.
<mgrwt>
<rscale>  0 0.89790745E+02</rscale>
<asrwt>0</asrwt>
<pdfrwt beam="1">  1        2 0.14574948E+00 0.89790745E+02</pdfrwt>
<pdfrwt beam="2">  1       -1 0.32731766E-03 0.89790745E+02</pdfrwt>
<totfact> 0.25975682E+05</totfact>
</mgrwt>
</event>
<event>
 8    1  0.1520917E-017  0.8410653E+02  0.7818608E-02  0.1317786E+00
         -1   -1    0    0    0  501 -0.00000000000E+00  0.00000000000E+00  0.87411092827E+02  0.87411092973E+02  0.50400000000E-02 0.  1.
          2   -1    0    0  501    0  0.00000000000E+00 -0.00000000000E+00 -0.20231722530E+02  0.20231722691E+02  0.25500000000E-02 0. -1.
         24    2    1    2    0    0  0.00000000000E+00  0.00000000000E+00  0.67179370298E+02  0.10764281566E+03  0.84106527513E+02 0.  0.
         66    2    3    3    0    0 -0.89166402413E+01 -0.19844906101E+02 -0.12414805537E+02  0.25128751637E+02  0.19999977429E+01 0.  0.
        -13    1    3    3    0    0  0.89166402413E+01  0.19844906101E+02  0.79594175834E+02  0.82514064026E+02  0.10566000000E+00 0.  1.
         13    1    4    4    0    0 -0.52512276988E+01 -0.10945005878E+02 -0.69268401877E+01  0.13977153681E+02  0.10566000000E+00 0. -1.
        -13    1    4    4    0    0 -0.19436228022E+01 -0.32767406190E+01 -0.24687445077E+01  0.45409869149E+01  0.10566000000E+00 0.  1.
        -14    1    4    4    0    0 -0.17217897403E+01 -0.56231596045E+01 -0.30192208412E+01  0.66106110410E+01  0.00000000000E+00 0.  1.
<mgrwt>
<rscale>  0 0.84106528E+02</rscale>
<asrwt>0</asrwt>
<pdfrwt beam="1">  1        2 0.31125727E-02 0.84106528E+02</pdfrwt>
<pdfrwt beam="2">  1       -1 0.13447860E-01 0.84106528E+02</pdfrwt>
<totfact> 0.10771210E+05</totfact>
</mgrwt>
</event>
<event>
 8    1  0.1520917E-017  0.7871666E+02  0.7818608E-02  0.1332733E+00
         -1   -1    0    0    0  501 -0.00000000000E+00  0.00000000000E+00  0.13572979847E+01  0.13573073421E+01  0.50400000000E-02 0.  1.
          2   -1    0    0  501    0  0.00000000000E+00 -0.00000000000E+00 -0.11412916845E+04  0.11412916845E+04  0.25500000000E-02 0. -1.
         24    2    1    2    0    0  0.00000000000E+00  0.00000000000E+00 -0.11399343865E+04  0.11426489919E+04  0.78716662812E+02 0.  0.
         66    2    3    3    0    0  0.94697834627E+01 -0.19671872212E+02 -0.10452558436E+04  0.10454857426E+04  0.20000007276E+01 0.  0.
        -13    1    3    3    0    0 -0.94697834627E+01  0.19671872212E+02 -0.94678542923E+02  0.97163249272E+02  0.10566000000E+00 0.  1.
         13    1    4    4    0    0  0.18527447385E+01 -0.29703705781E+01 -0.15859703048E+03  0.15863569902E+03  0.10566000000E+00 0. -1.
        -13    1    4    4    0    0  0.30891652094E+01 -0.66427590694E+01 -0.31986393133E+03  0.31994783156E+03  0.10566000000E+00 0.  1.
         14    1    4    4    0    0  0.45278735148E+01 -0.10058742564E+02 -0.56679488180E+03  0.56690221201E+03  0.00000000000E+00 0. -1.
<mgrwt>
<rscale>  0 0.78716663E+02</rscale>
<asrwt>0</asrwt>
<pdfrwt beam="1">  1        2 0.17558257E+00 0.78716663E+02</pdfrwt>
<pdfrwt beam="2">  1       -1 0.20881671E-03 0.78716663E+02</pdfrwt>
<totfact> 0.36698010E+05</totfact>
</mgrwt>
</event>
<event>
 8    1  0.1520917E-017  0.7115859E+02  0.7818608E-02  0.1356197E+00
          2   -1    0    0  501    0  0.00000000000E+00  0.00000000000E+00  0.51164260309E+03  0.51164260310E+03  0.25500000000E-02 0. -1.
         -1   -1    0    0    0  501 -0.00000000000E+00 -0.00000000000E+00 -0.24741582296E+01  0.24741633630E+01  0.50400000000E-02 0.  1.
         24    2    1    2    0    0  0.35527136788E-14  0.00000000000E+00  0.50916844486E+03  0.51411676646E+03  0.71158585660E+02 0.  0.
         66    2    3    3    0    0  0.27349279427E+02 -0.10387734510E+02  0.40072025814E+03  0.40179175375E+03  0.19999958610E+01 0.  0.
        -13    1    3    3    0    0 -0.27349279427E+02  0.10387734510E+02  0.10844818673E+03  0.11232501272E+03  0.10566000000E+00 0.  1.
         13    1    4    4    0    0  0.74279753414E+01 -0.35213969669E+01  0.11597132727E+03  0.11626235404E+03  0.10566000000E+00 0. -1.
        -13    1    4    4    0    0  0.12179953175E+02 -0.39230049378E+01  0.16698578307E+03  0.16747538368E+03  0.10566000000E+00 0.  1.
         14    1    4    4    0    0  0.77413509109E+01 -0.29433326054E+01  0.11776314779E+03  0.11805401602E+03  0.00000000000E+00 0. -1.
<mgrwt>
<rscale>  0 0.71158586E+02</rscale>
<asrwt>0</asrwt>
<pdfrwt beam="1">  1        2 0.78714288E-01 0.71158586E+02</pdfrwt>
<pdfrwt beam="2">  1       -1 0.38063993E-03 0.71158586E+02</pdfrwt>
<totfact> 0.41541021E+05</totfact>
</mgrwt>
</event>
<event>
 8    1  0.1520917E-017  0.7289422E+02  0.7818608E-02  0.1350519E+00
          2   -1    0    0  501    0  0.00000000000E+00  0.00000000000E+00  0.33783451956E+03  0.33783451957E+03  0.25500000000E-02 0. -1.
         -1   -1    0    0    0  501 -0.00000000000E+00 -0.00000000000E+00 -0.39320763536E+01  0.39320795837E+01  0.50400000000E-02 0.  1.
         24    2    1    2    0    0  0.00000000000E+00 -0.44408920985E-15  0.33390244320E+03  0.34176659915E+03  0.72894215941E+02 0.  0.
         66    2    3    3    0    0 -0.24485656627E+02  0.29046012767E+01  0.29274334570E+03  0.29378674338E+03  0.20000102926E+01 0.  0.
        -13    1    3    3    0    0  0.24485656627E+02 -0.29046012767E+01  0.41159097499E+02  0.47979855773E+02  0.10566000000E+00 0.  1.
         13    1    4    4    0    0 -0.87375059037E+01  0.81072620006E+00  0.10978727260E+03  0.11013744902E+03  0.10566000000E+00 0. -1.
        -13    1    4    4    0    0 -0.15753976105E+02  0.21225281062E+01  0.18283376426E+03  0.18352353910E+03  0.10566000000E+00 0.  1.
        -14    1    4    4    0    0  0.58253819815E-02 -0.28653029628E-01  0.12230884499E+00  0.12575525732E+00  0.00000000000E+00 0.  1.
<mgrwt>
<rscale>  0 0.72894216E+02</rscale>
<asrwt>0</asrwt>
<pdfrwt beam="1">  1        2 0.51974541E-01 0.72894216E+02</pdfrwt>
<pdfrwt beam="2">  1       -1 0.60493508E-03 0.72894216E+02</pdfrwt>
<totfact> 0.33904789E+05</totfact>
</mgrwt>
</event>
<event>
 8    1  0.1520917E-017  0.7921959E+02  0.7818608E-02  0.1331281E+00
          2   -1    0    0  501    0  0.00000000000E+00  0.00000000000E+00  0.56922531161E+02  0.56922531219E+02  0.25500000000E-02 0. -1.
         -1   -1    0    0    0  501 -0.00000000000E+00 -0.00000000000E+00 -0.27562647596E+02  0.27562648057E+02  0.50400000000E-02 0.  1.
         24    2    1    2    0    0  0.00000000000E+00  0.71054273576E-14  0.29359883566E+02  0.84485179275E+02  0.79219585673E+02 0.  0.
         66    2    3    3    0    0  0.16069716455E+02  0.36085273984E+02  0.17418255318E+02  0.43217801909E+02  0.19999995230E+01 0.  0.
        -13    1    3    3    0    0 -0.16069716455E+02 -0.36085273984E+02  0.11941628248E+02  0.41267377366E+02  0.10566000000E+00 0.  1.
         13    1    4    4    0    0  0.51716091440E+01  0.11004930333E+02  0.50192231528E+01  0.13155143399E+02  0.10566000000E+00 0.  1.
        -13    1    4    4    0    0  0.19199278675E+01  0.39600623117E+01  0.25657029512E+01  0.50953127675E+01  0.10566000000E+00 0. -1.
        -14    1    4    4    0    0  0.89781794434E+01  0.21120281340E+02  0.98333292138E+01  0.24967345742E+02  0.00000000000E+00 0.  1.
<mgrwt>
<rscale>  0 0.79219586E+02</rscale>
<asrwt>0</asrwt>
<pdfrwt beam="1">  1        2 0.87573125E-02 0.79219586E+02</pdfrwt>
<pdfrwt beam="2">  1       -1 0.42404074E-02 0.79219586E+02</pdfrwt>
<totfact> 0.15795985E+05</totfact>
</mgrwt>
</event>
<event>
 8    1  0.1520917E-017  0.8466418E+02  0.7818608E-02  0.1316313E+00
          2   -1    0    0  501    0  0.00000000000E+00  0.00000000000E+00  0.14136406015E+03  0.14136406017E+03  0.25500000000E-02 0. -1.
         -1   -1    0    0    0  501 -0.00000000000E+00 -0.00000000000E+00 -0.12676529718E+02  0.12676530719E+02  0.50400000000E-02 0.  1.
         24    2    1    2    0    0 -0.35527136788E-14  0.00000000000E+00  0.12868753043E+03  0.15404059089E+03  0.84664178691E+02 0.  0.
         66    2    3    3    0    0 -0.17446150266E+02 -0.35995693634E+02  0.89454904325E+02  0.98011417824E+02  0.19999991898E+01 0.  0.
        -13    1    3    3    0    0  0.17446150266E+02  0.35995693634E+02  0.39232626104E+02  0.56029173065E+02  0.10566000000E+00 0.  1.
         13    1    4    4    0    0 -0.36602434054E+01 -0.71272333286E+01  0.17003971277E+02  0.18797367899E+02  0.10566000000E+00 0. -1.
        -13    1    4    4    0    0 -0.86753528735E+01 -0.17154112627E+02  0.42035596868E+02  0.46222590749E+02  0.10566000000E+00 0.  1.
         14    1    4    4    0    0 -0.51105539872E+01 -0.11714347678E+02  0.30415336180E+02  0.32991459175E+02  0.00000000000E+00 0. -1.
<mgrwt>
<rscale>  0 0.84664179E+02</rscale>
<asrwt>0</asrwt>
<pdfrwt beam="1">  1        2 0.21748317E-01 0.84664179E+02</pdfrwt>
<pdfrwt beam="2">  1       -1 0.19502355E-02 0.84664179E+02</pdfrwt>
<totfact> 0.16899365E+05</totfact>
</mgrwt>
</event>
<event>
 8    1  0.1520917E-017  0.8648897E+02  0.7818608E-02  0.1311584E+00
         -1   -1    0    0    0  501 -0.00000000000E+00  0.00000000000E+00  0.52060680034E+02  0.52060680278E+02  0.50400000000E-02 0.  1.
          2   -1    0    0  501    0  0.00000000000E+00 -0.00000000000E+00 -0.35921262174E+02  0.35921262265E+02  0.25500000000E-02 0. -1.
         24    2    1    2    0    0  0.00000000000E+00  0.00000000000E+00  0.16139417860E+02  0.87981942543E+02  0.86488966954E+02 0.  0.
         66    2    3    3    0    0  0.10354672171E+02 -0.36284296049E+02 -0.13368533135E+02  0.40081006106E+02  0.19999991997E+01 0.  0.
        -13    1    3    3    0    0 -0.10354672171E+02  0.36284296049E+02  0.29507950995E+02  0.47900936436E+02  0.10566000000E+00 0.  1.
         13    1    4    4    0    0  0.52812925439E+00 -0.26037257108E+01 -0.94902494197E+00  0.28231401776E+01  0.10566000000E+00 0. -1.
        -13    1    4    4    0    0  0.73236056542E+01 -0.25014314432E+02 -0.10014935443E+02  0.27922414334E+02  0.10566000000E+00 0.  1.
        -14    1    4    4    0    0  0.25029372624E+01 -0.86662559058E+01 -0.24045727500E+01  0.93354515946E+01  0.00000000000E+00 0.  1.
<mgrwt>
<rscale>  0 0.86488967E+02</rscale>
<asrwt>0</asrwt>
<pdfrwt beam="1">  1        2 0.55263480E-02 0.86488967E+02</pdfrwt>
<pdfrwt beam="2">  1       -1 0.80093354E-02 0.86488967E+02</pdfrwt>
<totfact> 0.11214434E+05</totfact>
</mgrwt>
</event>
<event>
 8    1  0.1520917E-017  0.8229393E+02  0.7818608E-02  0.1322665E+00
         -1   -1    0    0    0  501 -0.00000000000E+00  0.00000000000E+00  0.33674135178E+01  0.33674172895E+01  0.50400000000E-02 0.  1.
          2   -1    0    0  501    0  0.00000000000E+00 -0.00000000000E+00 -0.50278110942E+03  0.50278110942E+03  0.25500000000E-02 0. -1.
         24    2    1    2    0    0  0.22204460493E-15  0.00000000000E+00 -0.49941369590E+03  0.50614852671E+03  0.82293933203E+02 0.  0.
         66    2    3    3    0    0 -0.11248994245E+01  0.31694579070E+02 -0.41085790680E+03  0.41208498070E+03  0.19999997684E+01 0.  0.
        -13    1    3    3    0    0  0.11248994245E+01 -0.31694579070E+02 -0.88555789103E+02  0.94063546015E+02  0.10566000000E+00 0.  1.
         13    1    4    4    0    0 -0.18507681514E+00  0.16918528115E+02 -0.21241443536E+03  0.21308724589E+03  0.10566000000E+00 0. -1.
        -13    1    4    4    0    0  0.19374598555E+00  0.21609423704E+01 -0.30712016387E+02  0.30788736967E+02  0.10566000000E+00 0.  1.
        -14    1    4    4    0    0 -0.11335685949E+01  0.12615108585E+02 -0.16773145504E+03  0.16820899784E+03  0.00000000000E+00 0.  1.
<mgrwt>
<rscale>  0 0.82293933E+02</rscale>
<asrwt>0</asrwt>
<pdfrwt beam="1">  1        2 0.77350880E-01 0.82293933E+02</pdfrwt>
<pdfrwt beam="2">  1       -1 0.51806431E-03 0.82293933E+02</pdfrwt>
<totfact> 0.28335518E+05</totfact>
</mgrwt>
</event>
<event>
 8    1  0.1520917E-017  0.8059606E+02  0.7818608E-02  0.1327368E+00
         -1   -1    0    0    0  501 -0.00000000000E+00  0.00000000000E+00  0.25371338699E+01  0.25371388758E+01  0.50400000000E-02 0.  1.
          2   -1    0    0  501    0  0.00000000000E+00 -0.00000000000E+00 -0.64006456978E+03  0.64006456978E+03  0.25500000000E-02 0. -1.
         24    2    1    2    0    0  0.17763568394E-14  0.00000000000E+00 -0.63752743591E+03  0.64260170866E+03  0.80596057197E+02 0.  0.
         66    2    3    3    0    0  0.87696395790E+01  0.36276014601E+02 -0.43963312498E+03  0.44121892569E+03  0.19999988870E+01 0.  0.
        -13    1    3    3    0    0 -0.87696395790E+01 -0.36276014601E+02 -0.19789431093E+03  0.20138278297E+03  0.10566000000E+00 0.  1.
         13    1    4    4    0    0  0.22627037942E+01  0.10604289097E+02 -0.12462751501E+03  0.12509835905E+03  0.10566000000E+00 0. -1.
        -13    1    4    4    0    0 -0.16776321402E-02  0.87776297057E+00 -0.91331242215E+01  0.91758156437E+01  0.10566000000E+00 0.  1.
         14    1    4    4    0    0  0.65086134170E+01  0.24793962534E+02 -0.30587248575E+03  0.30694475100E+03  0.00000000000E+00 0. -1.
<mgrwt>
<rscale>  0 0.80596057E+02</rscale>
<asrwt>0</asrwt>
<pdfrwt beam="1">  1        2 0.98471343E-01 0.80596057E+02</pdfrwt>
<pdfrwt beam="2">  1       -1 0.39032919E-03 0.80596057E+02</pdfrwt>
<totfact> 0.32101558E+05</totfact>
</mgrwt>
</event>
<event>
 8    1  0.1520917E-017  0.7893599E+02  0.7818608E-02  0.1332098E+00
          2   -1    0    0  501    0  0.00000000000E+00  0.00000000000E+00  0.91871940344E+03  0.91871940345E+03  0.25500000000E-02 0. -1.
         -1   -1    0    0    0  501 -0.00000000000E+00 -0.00000000000E+00 -0.16955330771E+01  0.16955405678E+01  0.50400000000E-02 0.  1.
         24    2    1    2    0    0 -0.17763568394E-14  0.00000000000E+00  0.91702387037E+03  0.92041494402E+03  0.78935988902E+02 0.  0.
         66    2    3    3    0    0  0.10122622159E+02 -0.22911956034E+02  0.81406930680E+03  0.81445703477E+03  0.20000003357E+01 0.  0.
        -13    1    3    3    0    0 -0.10122622159E+02  0.22911956034E+02  0.10295456357E+03  0.10595790925E+03  0.10566000000E+00 0.  1.
         13    1    4    4    0    0  0.35928869828E+01 -0.77603680858E+01  0.30375747968E+03  0.30387785338E+03  0.10566000000E+00 0. -1.
        -13    1    4    4    0    0  0.57030111800E+01 -0.12425435846E+02  0.42211303131E+03  0.42233439140E+03  0.10566000000E+00 0.  1.
         14    1    4    4    0    0  0.82672399578E+00 -0.27261521020E+01  0.88198795807E+02  0.88244789986E+02  0.00000000000E+00 0. -1.
<mgrwt>
<rscale>  0 0.78935989E+02</rscale>
<asrwt>0</asrwt>
<pdfrwt beam="1">  1        2 0.14134105E+00 0.78935989E+02</pdfrwt>
<pdfrwt beam="2">  1       -1 0.26085256E-03 0.78935989E+02</pdfrwt>
<totfact> 0.36259457E+05</totfact>
</mgrwt>
</event>
<event>
 8    1  0.1520917E-017  0.8050403E+02  0.7818608E-02  0.1327627E+00
         -1   -1    0    0    0  501 -0.00000000000E+00  0.00000000000E+00  0.35495821843E+02  0.35495822200E+02  0.50400000000E-02 0.  1.
          2   -1    0    0  501    0  0.00000000000E+00 -0.00000000000E+00 -0.45645503410E+02  0.45645503481E+02  0.25500000000E-02 0. -1.
         24    2    1    2    0    0  0.00000000000E+00 -0.35527136788E-14 -0.10149681567E+02  0.81141325682E+02  0.80504029076E+02 0.  0.
         66    2    3    3    0    0 -0.90828954162E+01  0.28688969450E+02 -0.31985059492E+02  0.43961346520E+02  0.19999999710E+01 0.  0.
        -13    1    3    3    0    0  0.90828954162E+01 -0.28688969450E+02  0.21835377925E+02  0.37179979161E+02  0.10566000000E+00 0.  1.
         13    1    4    4    0    0 -0.65622196201E+01  0.21963938390E+02 -0.24881244083E+02  0.33831417161E+02  0.10566000000E+00 0. -1.
        -13    1    4    4    0    0 -0.10579759505E+00  0.14622493984E+00 -0.15018000630E+00  0.25747414247E+00  0.10566000000E+00 0.  1.
         14    1    4    4    0    0 -0.24148782010E+01  0.65788061209E+01 -0.69536354029E+01  0.98724552173E+01  0.00000000000E+00 0. -1.
<mgrwt>
<rscale>  0 0.80504029E+02</rscale>
<asrwt>0</asrwt>
<pdfrwt beam="1">  1        2 0.70223852E-02 0.80504029E+02</pdfrwt>
<pdfrwt beam="2">  1       -1 0.54608957E-02 0.80504029E+02</pdfrwt>
<totfact> 0.14402403E+05</totfact>
</mgrwt>
</event>
<event>
 8    1  0.1520917E-017  0.7608036E+02  0.7818608E-02  0.1340558E+00
          2   -1    0    0  501    0  0.00000000000E+00  0.00000000000E+00  0.14397442554E+02  0.14397442780E+02  0.25500000000E-02 0. -1.
         -1   -1    0    0    0  501 -0.00000000000E+00 -0.00000000000E+00 -0.10050778695E+03  0.10050778708E+03  0.50400000000E-02 0.  1.
         24    2    1    2    0    0  0.00000000000E+00  0.00000000000E+00 -0.86110344400E+02  0.11490522986E+03  0.76080355129E+02 0.  0.
         66    2    3    3    0    0  0.17587244239E+02  0.28094814384E+02 -0.14974313040E+02  0.36426086918E+02  0.20000004805E+01 0.  0.
        -13    1    3    3    0    0 -0.17587244239E+02 -0.28094814384E+02 -0.71136031360E+02  0.78479142942E+02  0.10566000000E+00 0.  1.
         13    1    4    4    0    0  0.77295284460E+00  0.16644367764E+01 -0.65748290742E+00  0.19522432460E+01  0.10566000000E+00 0. -1.
        -13    1    4    4    0    0  0.53043143595E+00  0.49150088306E+00 -0.26339915474E+00  0.77683574622E+00  0.10566000000E+00 0.  1.
         14    1    4    4    0    0  0.16283859959E+02  0.25938876725E+02 -0.14053430978E+02  0.33697007926E+02  0.00000000000E+00 0. -1.
<mgrwt>
<rscale>  0 0.76080355E+02</rscale>
<asrwt>0</asrwt>
<pdfrwt beam="1">  1        2 0.22149912E-02 0.76080355E+02</pdfrwt>
<pdfrwt beam="2">  1       -1 0.15462736E-01 0.76080355E+02</pdfrwt>
<totfact> 0.13419999E+05</totfact>
</mgrwt>
</event>
<event>
 8    1  0.1520917E-017  0.7734183E+02  0.7818608E-02  0.1336769E+00
         -1   -1    0    0    0  501 -0.00000000000E+00  0.00000000000E+00  0.62025356591E+01  0.62025377067E+01  0.50400000000E-02 0.  1.
          2   -1    0    0  501    0  0.00000000000E+00 -0.00000000000E+00 -0.24110130709E+03  0.24110130710E+03  0.25500000000E-02 0. -1.
         24    2    1    2    0    0  0.00000000000E+00  0.00000000000E+00 -0.23489877143E+03  0.24730384481E+03  0.77341831101E+02 0.  0.
         66    2    3    3    0    0 -0.13646571921E+02  0.27278155766E+02 -0.19340508023E+03  0.19580564794E+03  0.19999998741E+01 0.  0.
        -13    1    3    3    0    0  0.13646571921E+02 -0.27278155766E+02 -0.41493691196E+02  0.51498196865E+02  0.10566000000E+00 0.  1.
         13    1    4    4    0    0 -0.18393544021E+01  0.31052688566E+01 -0.20706686530E+02  0.21019132960E+02  0.10566000000E+00 0. -1.
        -13    1    4    4    0    0 -0.29436809673E+01  0.73515563445E+01 -0.49522566826E+02  0.50151833739E+02  0.10566000000E+00 0.  1.
        -14    1    4    4    0    0 -0.88635365515E+01  0.16821330565E+02 -0.12317582687E+03  0.12463468124E+03  0.00000000000E+00 0.  1.
<mgrwt>
<rscale>  0 0.77341831E+02</rscale>
<asrwt>0</asrwt>
<pdfrwt beam="1">  1        2 0.37092502E-01 0.77341831E+02</pdfrwt>
<pdfrwt beam="2">  1       -1 0.95423660E-03 0.77341831E+02</pdfrwt>
<totfact> 0.25747292E+05</totfact>
</mgrwt>
</event>
<event>
 8    1  0.1520917E-017  0.8025992E+02  0.7818608E-02  0.1328315E+00
         -1   -1    0    0    0  501 -0.00000000000E+00  0.00000000000E+00  0.32808353628E+01  0.32808392340E+01  0.50400000000E-02 0.  1.
          2   -1    0    0  501    0  0.00000000000E+00 -0.00000000000E+00 -0.49085446382E+03  0.49085446382E+03  0.25500000000E-02 0. -1.
         24    2    1    2    0    0  0.00000000000E+00  0.00000000000E+00 -0.48757362845E+03  0.49413530306E+03  0.80259918788E+02 0.  0.
         66    2    3    3    0    0  0.19332695927E+02 -0.20785802838E+02 -0.41835860482E+03  0.41932532116E+03  0.20000010444E+01 0.  0.
        -13    1    3    3    0    0 -0.19332695927E+02  0.20785802838E+02 -0.69215023636E+02  0.74809981903E+02  0.10566000000E+00 0.  1.
         13    1    4    4    0    0  0.10257191991E+02 -0.11146062675E+02 -0.20927898653E+03  0.20982647609E+03  0.10566000000E+00 0. -1.
        -13    1    4    4    0    0  0.27556940917E+01 -0.27822532292E+01 -0.59535440148E+02  0.59664181722E+02  0.10566000000E+00 0.  1.
         14    1    4    4    0    0  0.63198098440E+01 -0.68574869340E+01 -0.14954417814E+03  0.14983466334E+03  0.00000000000E+00 0. -1.
<mgrwt>
<rscale>  0 0.80259919E+02</rscale>
<asrwt>0</asrwt>
<pdfrwt beam="1">  1        2 0.75516013E-01 0.80259919E+02</pdfrwt>
<pdfrwt beam="2">  1       -1 0.50474459E-03 0.80259919E+02</pdfrwt>
<totfact> 0.30016887E+05</totfact>
</mgrwt>
</event>
<event>
 8    1  0.1520917E-017  0.7847645E+02  0.7818608E-02  0.1333431E+00
         -1   -1    0    0    0  501 -0.00000000000E+00  0.00000000000E+00  0.14686461095E+01  0.14686547574E+01  0.50400000000E-02 0.  1.
          2   -1    0    0  501    0  0.00000000000E+00 -0.00000000000E+00 -0.10483355513E+04  0.10483355513E+04  0.25500000000E-02 0. -1.
         24    2    1    2    0    0  0.00000000000E+00 -0.88817841970E-15 -0.10468669052E+04  0.10498042061E+04  0.78476454300E+02 0.  0.
         66    2    3    3    0    0 -0.18615751282E+02 -0.62119426474E+01 -0.97791193047E+03  0.97811087214E+03  0.20000000973E+01 0.  0.
        -13    1    3    3    0    0  0.18615751282E+02  0.62119426474E+01 -0.68954974761E+02  0.71693333969E+02  0.10566000000E+00 0.  1.
         13    1    4    4    0    0 -0.13701794749E+01 -0.14963070812E+00 -0.63920137488E+02  0.63935083653E+02  0.10566000000E+00 0. -1.
        -13    1    4    4    0    0 -0.13276419620E+02 -0.42757979755E+01 -0.67003640191E+03  0.67018157004E+03  0.10566000000E+00 0.  1.
        -14    1    4    4    0    0 -0.39691521870E+01 -0.17865139638E+01 -0.24395539108E+03  0.24399421845E+03  0.00000000000E+00 0.  1.
<mgrwt>
<rscale>  0 0.78476454E+02</rscale>
<asrwt>0</asrwt>
<pdfrwt beam="1">  1        2 0.16128179E+00 0.78476454E+02</pdfrwt>
<pdfrwt beam="2">  1       -1 0.22594706E-03 0.78476454E+02</pdfrwt>
<totfact> 0.37075872E+05</totfact>
</mgrwt>
</event>
<event>
 8    1  0.1520917E-017  0.7963124E+02  0.7818608E-02  0.1330101E+00
          2   -1    0    0  501    0  0.00000000000E+00  0.00000000000E+00  0.11639432421E+04  0.11639432421E+04  0.25500000000E-02 0. -1.
         -1   -1    0    0    0  501 -0.00000000000E+00 -0.00000000000E+00 -0.13619893272E+01  0.13619986523E+01  0.50400000000E-02 0.  1.
         24    2    1    2    0    0 -0.35527136788E-14  0.00000000000E+00  0.11625812528E+04  0.11653052408E+04  0.79631242818E+02 0.  0.
         66    2    3    3    0    0 -0.25432470790E+02  0.56961784568E+01  0.10216491550E+04  0.10219834895E+04  0.19999997539E+01 0.  0.
        -13    1    3    3    0    0  0.25432470790E+02 -0.56961784568E+01  0.14093209781E+03  0.14332175123E+03  0.10566000000E+00 0.  1.
         13    1    4    4    0    0 -0.96670030839E+01  0.18362983862E+01  0.39774542104E+03  0.39786713116E+03  0.10566000000E+00 0. -1.
        -13    1    4    4    0    0 -0.42859115685E+01  0.70253343656E+00  0.14823438544E+03  0.14829803364E+03  0.10566000000E+00 0.  1.
         14    1    4    4    0    0 -0.11479556137E+02  0.31573466341E+01  0.47566934852E+03  0.47581832475E+03  0.00000000000E+00 0. -1.
<mgrwt>
<rscale>  0 0.79631243E+02</rscale>
<asrwt>0</asrwt>
<pdfrwt beam="1">  1        2 0.17906936E+00 0.79631243E+02</pdfrwt>
<pdfrwt beam="2">  1       -1 0.20953617E-03 0.79631243E+02</pdfrwt>
<totfact> 0.35564382E+05</totfact>
</mgrwt>
</event>
<event>
 8    1  0.1520917E-017  0.8046030E+02  0.7818608E-02  0.1327750E+00
          2   -1    0    0  501    0  0.00000000000E+00  0.00000000000E+00  0.53253947796E+01  0.53253953901E+01  0.25500000000E-02 0. -1.
         -1   -1    0    0    0  501 -0.00000000000E+00 -0.00000000000E+00 -0.30391450112E+03  0.30391450116E+03  0.50400000000E-02 0.  1.
         24    2    1    2    0    0  0.00000000000E+00 -0.71054273576E-14 -0.29858910634E+03  0.30923989655E+03  0.80460295763E+02 0.  0.
         66    2    3    3    0    0  0.16738280455E+02 -0.33282284243E+02 -0.91279012429E+02  0.98609018762E+02  0.19999985416E+01 0.  0.
        -13    1    3    3    0    0 -0.16738280455E+02  0.33282284243E+02 -0.20731009391E+03  0.21063087779E+03  0.10566000000E+00 0.  1.
         13    1    4    4    0    0  0.75874490572E+01 -0.15943589441E+02 -0.43465564340E+02  0.46915177447E+02  0.10566000000E+00 0. -1.
        -13    1    4    4    0    0  0.46581191847E-01 -0.34159028311E+00 -0.70037344605E+00  0.78774407549E+00  0.10566000000E+00 0.  1.
         14    1    4    4    0    0  0.91042502056E+01 -0.16997104519E+02 -0.47113074643E+02  0.50906097239E+02  0.00000000000E+00 0. -1.
<mgrwt>
<rscale>  0 0.80460296E+02</rscale>
<asrwt>0</asrwt>
<pdfrwt beam="1">  1        2 0.81929179E-03 0.80460296E+02</pdfrwt>
<pdfrwt beam="2">  1       -1 0.46756064E-01 0.80460296E+02</pdfrwt>
<totfact> 0.84721309E+04</totfact>
</mgrwt>
</event>
<event>
 8    1  0.1520917E-017  0.7808733E+02  0.7818608E-02  0.1334569E+00
          2   -1    0    0  501    0  0.00000000000E+00  0.00000000000E+00  0.11637564696E+03  0.11637564699E+03  0.25500000000E-02 0. -1.
         -1   -1    0    0    0  501 -0.00000000000E+00 -0.00000000000E+00 -0.13099027873E+02  0.13099028843E+02  0.50400000000E-02 0.  1.
         24    2    1    2    0    0  0.00000000000E+00  0.00000000000E+00  0.10327661909E+03  0.12947467584E+03  0.78087333364E+02 0.  0.
         66    2    3    3    0    0  0.86365144078E+01 -0.36828063303E+02  0.67533150276E+02  0.77431401969E+02  0.19999992469E+01 0.  0.
        -13    1    3    3    0    0 -0.86365144078E+01  0.36828063303E+02  0.35743468815E+02  0.52043273866E+02  0.10566000000E+00 0.  1.
         13    1    4    4    0    0  0.41376737226E+01 -0.15390664979E+02  0.29103632160E+02  0.33181704014E+02  0.10566000000E+00 0. -1.
        -13    1    4    4    0    0  0.99315003546E+00 -0.42856107693E+01  0.86719283873E+01  0.97245212041E+01  0.10566000000E+00 0.  1.
        -14    1    4    4    0    0  0.35056906498E+01 -0.17151787555E+02  0.29757589729E+02  0.34525176752E+02  0.00000000000E+00 0.  1.
<mgrwt>
<rscale>  0 0.78087333E+02</rscale>
<asrwt>0</asrwt>
<pdfrwt beam="1">  1        2 0.17903945E-01 0.78087333E+02</pdfrwt>
<pdfrwt beam="2">  1       -1 0.20152352E-02 0.78087333E+02</pdfrwt>
<totfact> 0.19750392E+05</totfact>
</mgrwt>
</event>
<event>
 8    1  0.1520917E-017  0.7940078E+02  0.7818608E-02  0.1330761E+00
         -1   -1    0    0    0  501 -0.00000000000E+00  0.00000000000E+00  0.23731177956E+02  0.23731178491E+02  0.50400000000E-02 0.  1.
          2   -1    0    0  501    0  0.00000000000E+00 -0.00000000000E+00 -0.66415618951E+02  0.66415619000E+02  0.25500000000E-02 0. -1.
         24    2    1    2    0    0  0.88817841970E-15  0.71054273576E-14 -0.42684440995E+02  0.90146797492E+02  0.79400778302E+02 0.  0.
         66    2    3    3    0    0  0.45101844773E+01  0.39008183311E+02 -0.27791785737E+02  0.48149387168E+02  0.20000002460E+01 0.  0.
        -13    1    3    3    0    0 -0.45101844773E+01 -0.39008183311E+02 -0.14892655258E+02  0.41997410324E+02  0.10566000000E+00 0.  1.
         13    1    4    4    0    0  0.27572541775E+01  0.18147031760E+02 -0.12492752975E+02  0.22203541457E+02  0.10566000000E+00 0. -1.
        -13    1    4    4    0    0  0.15381848012E+01  0.13076979134E+02 -0.95144290809E+01  0.16245273791E+02  0.10566000000E+00 0.  1.
        -14    1    4    4    0    0  0.21474549864E+00  0.77841724164E+01 -0.57846036811E+01  0.97005719206E+01  0.00000000000E+00 0.  1.
<mgrwt>
<rscale>  0 0.79400778E+02</rscale>
<asrwt>0</asrwt>
<pdfrwt beam="1">  1        2 0.10217787E-01 0.79400778E+02</pdfrwt>
<pdfrwt beam="2">  1       -1 0.36509505E-02 0.79400778E+02</pdfrwt>
<totfact> 0.16270722E+05</totfact>
</mgrwt>
</event>
<event>
 8    1  0.1520917E-017  0.8555181E+02  0.7818608E-02  0.1313996E+00
          2   -1    0    0  501    0  0.00000000000E+00  0.00000000000E+00  0.62714844655E+02  0.62714844706E+02  0.25500000000E-02 0. -1.
         -1   -1    0    0    0  501 -0.00000000000E+00 -0.00000000000E+00 -0.29176158199E+02  0.29176158634E+02  0.50400000000E-02 0.  1.
         24    2    1    2    0    0  0.35527136788E-14 -0.71054273576E-14  0.33538686456E+02  0.91891003341E+02  0.85551814743E+02 0.  0.
         66    2    3    3    0    0 -0.12772610880E+02  0.36615736536E+02  0.36109896694E+02  0.53026185872E+02  0.19999995222E+01 0.  0.
        -13    1    3    3    0    0  0.12772610880E+02 -0.36615736536E+02 -0.25712102382E+01  0.38864817469E+02  0.10566000000E+00 0.  1.
         13    1    4    4    0    0 -0.78593626147E+01  0.20354274746E+02  0.20754822199E+02  0.30113782387E+02  0.10566000000E+00 0. -1.
        -13    1    4    4    0    0 -0.79079472633E+00  0.21288381208E+01  0.23399393040E+01  0.32624818813E+01  0.10566000000E+00 0.  1.
        -14    1    4    4    0    0 -0.41224535391E+01  0.14132623669E+02  0.13015135191E+02  0.19649921603E+02  0.00000000000E+00 0.  1.
<mgrwt>
<rscale>  0 0.85551815E+02</rscale>
<asrwt>0</asrwt>
<pdfrwt beam="1">  1        2 0.96484375E-02 0.85551815E+02</pdfrwt>
<pdfrwt beam="2">  1       -1 0.44886398E-02 0.85551815E+02</pdfrwt>
<totfact> 0.13095774E+05</totfact>
</mgrwt>
</event>
<event>
 8    1  0.1520917E-017  0.8023350E+02  0.7818608E-02  0.1328390E+00
          2   -1    0    0  501    0  0.00000000000E+00  0.00000000000E+00  0.47956848103E+01  0.47956854883E+01  0.25500000000E-02 0. -1.
         -1   -1    0    0    0  501 -0.00000000000E+00 -0.00000000000E+00 -0.33558363948E+03  0.33558363952E+03  0.50400000000E-02 0.  1.
         24    2    1    2    0    0  0.00000000000E+00  0.00000000000E+00 -0.33078795467E+03  0.34037932500E+03  0.80233496353E+02 0.  0.
         66    2    3    3    0    0  0.33170744483E+02  0.20613932463E+02 -0.20393982582E+03  0.20765520716E+03  0.20000010588E+01 0.  0.
        -13    1    3    3    0    0 -0.33170744483E+02 -0.20613932463E+02 -0.12684812885E+03  0.13272411784E+03  0.10566000000E+00 0.  1.
         13    1    4    4    0    0  0.40983875321E+01  0.26035316651E+01 -0.22644446054E+02  0.23159388131E+02  0.10566000000E+00 0.  1.
        -13    1    4    4    0    0  0.18646382815E+01  0.93605463074E+00 -0.11830965999E+02  0.12013991622E+02  0.10566000000E+00 0. -1.
         14    1    4    4    0    0  0.27207718670E+02  0.17074346167E+02 -0.16946441377E+03  0.17248182741E+03  0.00000000000E+00 0. -1.
<mgrwt>
<rscale>  0 0.80233496E+02</rscale>
<asrwt>0</asrwt>
<pdfrwt beam="1">  1        2 0.73779798E-03 0.80233496E+02</pdfrwt>
<pdfrwt beam="2">  1       -1 0.51628234E-01 0.80233496E+02</pdfrwt>
<totfact> 0.81808480E+04</totfact>
</mgrwt>
</event>
<event>
 8    1  0.1520917E-017  0.8002056E+02  0.7818608E-02  0.1328993E+00
          2   -1    0    0  501    0  0.00000000000E+00  0.00000000000E+00  0.34845242595E+02  0.34845242688E+02  0.25500000000E-02 0. -1.
         -1   -1    0    0    0  501 -0.00000000000E+00 -0.00000000000E+00 -0.45940925052E+02  0.45940925328E+02  0.50400000000E-02 0.  1.
         24    2    1    2    0    0  0.00000000000E+00 -0.35527136788E-14 -0.11095682457E+02  0.80786168016E+02  0.80020564692E+02 0.  0.
         66    2    3    3    0    0 -0.48215573364E+01 -0.25315299633E+02  0.25314172623E+02  0.36178987859E+02  0.20000040647E+01 0.  0.
        -13    1    3    3    0    0  0.48215573364E+01  0.25315299633E+02 -0.36409855080E+02  0.44607180158E+02  0.10566000000E+00 0.  1.
         13    1    4    4    0    0 -0.23131553213E+00 -0.36172865467E+01  0.33027330699E+01  0.49048423627E+01  0.10566000000E+00 0. -1.
        -13    1    4    4    0    0 -0.38039042830E+01 -0.15497829720E+02  0.16199475563E+02  0.22739537954E+02  0.10566000000E+00 0.  1.
        -14    1    4    4    0    0 -0.78633752133E+00 -0.62001833666E+01  0.58119639897E+01  0.85346075419E+01  0.00000000000E+00 0.  1.
<mgrwt>
<rscale>  0 0.80020565E+02</rscale>
<asrwt>0</asrwt>
<pdfrwt beam="1">  1        2 0.53608066E-02 0.80020565E+02</pdfrwt>
<pdfrwt beam="2">  1       -1 0.70678346E-02 0.80020565E+02</pdfrwt>
<totfact> 0.13851767E+05</totfact>
</mgrwt>
</event>
<event>
 8    1  0.1520917E-017  0.7287356E+02  0.7818608E-02  0.1350585E+00
          2   -1    0    0  501    0  0.00000000000E+00  0.00000000000E+00  0.19341609754E+02  0.19341609922E+02  0.25500000000E-02 0. -1.
         -1   -1    0    0    0  501 -0.00000000000E+00 -0.00000000000E+00 -0.68641586916E+02  0.68641587101E+02  0.50400000000E-02 0.  1.
         24    2    1    2    0    0 -0.35527136788E-14 -0.35527136788E-14 -0.49299977162E+02  0.87983197023E+02  0.72873556316E+02 0.  0.
         66    2    3    3    0    0 -0.21496558089E+02 -0.29329072563E+02 -0.22462859238E+02  0.42788744160E+02  0.20000186473E+01 0.  0.
        -13    1    3    3    0    0  0.21496558089E+02  0.29329072563E+02 -0.26837117924E+02  0.45194452863E+02  0.10566000000E+00 0.  1.
         13    1    4    4    0    0 -0.99833887072E+01 -0.12629181915E+02 -0.10041866281E+02  0.18974048813E+02  0.10566000000E+00 0. -1.
        -13    1    4    4    0    0 -0.39572628825E+01 -0.58491478629E+01 -0.36772557770E+01  0.79627780534E+01  0.10566000000E+00 0.  1.
         14    1    4    4    0    0 -0.75559064993E+01 -0.10850742785E+02 -0.87437371804E+01  0.15851917294E+02  0.00000000000E+00 0. -1.
<mgrwt>
<rscale>  0 0.72873556E+02</rscale>
<asrwt>0</asrwt>
<pdfrwt beam="1">  1        2 0.29756323E-02 0.72873556E+02</pdfrwt>
<pdfrwt beam="2">  1       -1 0.10560244E-01 0.72873556E+02</pdfrwt>
<totfact> 0.16087583E+05</totfact>
</mgrwt>
</event>
<event>
 8    1  0.1520917E-017  0.8433464E+02  0.7818608E-02  0.1317182E+00
         -1   -1    0    0    0  501 -0.00000000000E+00  0.00000000000E+00  0.18769854329E+01  0.18769921995E+01  0.50400000000E-02 0.  1.
          2   -1    0    0  501    0  0.00000000000E+00 -0.00000000000E+00 -0.94730606688E+03  0.94730606688E+03  0.25500000000E-02 0. -1.
         24    2    1    2    0    0  0.00000000000E+00  0.00000000000E+00 -0.94542908145E+03  0.94918305908E+03  0.84334640593E+02 0.  0.
         66    2    3    3    0    0 -0.18834823534E+02 -0.98036870900E+00 -0.89715374910E+03  0.89735420054E+03  0.20000016678E+01 0.  0.
        -13    1    3    3    0    0  0.18834823534E+02  0.98036870900E+00 -0.48275332349E+02  0.51828858542E+02  0.10566000000E+00 0.  1.
         13    1    4    4    0    0 -0.12168635266E+02 -0.11087726305E+01 -0.58056901154E+03  0.58069759202E+03  0.10566000000E+00 0. -1.
        -13    1    4    4    0    0 -0.12568463620E+01 -0.23895141286E-01 -0.43631372660E+02  0.43649605703E+02  0.10566000000E+00 0.  1.
        -14    1    4    4    0    0 -0.54093419063E+01  0.15229906283E+00 -0.27295336490E+03  0.27300700281E+03  0.00000000000E+00 0.  1.
<mgrwt>
<rscale>  0 0.84334641E+02</rscale>
<asrwt>0</asrwt>
<pdfrwt beam="1">  1        2 0.14573901E+00 0.84334641E+02</pdfrwt>
<pdfrwt beam="2">  1       -1 0.28876827E-03 0.84334641E+02</pdfrwt>
<totfact> 0.30608988E+05</totfact>
</mgrwt>
</event>
<event>
 8    1  0.1520917E-017  0.8449719E+02  0.7818608E-02  0.1316753E+00
         -1   -1    0    0    0  501 -0.00000000000E+00  0.00000000000E+00  0.42100339921E+01  0.42100370089E+01  0.50400000000E-02 0.  1.
          2   -1    0    0  501    0  0.00000000000E+00 -0.00000000000E+00 -0.42397361455E+03  0.42397361455E+03  0.25500000000E-02 0. -1.
         24    2    1    2    0    0 -0.17763568394E-14 -0.35527136788E-14 -0.41976358055E+03  0.42818365156E+03  0.84497194663E+02 0.  0.
         66    2    3    3    0    0  0.57784925899E+01  0.11447828955E+02 -0.41386443422E+03  0.41406788535E+03  0.19999992592E+01 0.  0.
        -13    1    3    3    0    0 -0.57784925899E+01 -0.11447828955E+02 -0.58991463322E+01  0.14115766216E+02  0.10566000000E+00 0.  1.
         13    1    4    4    0    0  0.46103020915E-01  0.15481646996E-01 -0.33765738636E+01  0.33785766621E+01  0.10566000000E+00 0.  1.
        -13    1    4    4    0    0  0.52642572399E+00  0.20017313675E+01 -0.58796231812E+02  0.58832746764E+02  0.10566000000E+00 0.  1.
         14    1    4    4    0    0  0.52059638450E+01  0.94306159403E+01 -0.35169162855E+03  0.35185656192E+03  0.00000000000E+00 0. -1.
<mgrwt>
<rscale>  0 0.84497195E+02</rscale>
<asrwt>0</asrwt>
<pdfrwt beam="1">  1        2 0.65226676E-01 0.84497195E+02</pdfrwt>
<pdfrwt beam="2">  1       -1 0.64769811E-03 0.84497195E+02</pdfrwt>
<totfact> 0.24983986E+05</totfact>
</mgrwt>
</event>
<event>
 8    1  0.1520917E-017  0.7818234E+02  0.7818608E-02  0.1334290E+00
          2   -1    0    0  501    0  0.00000000000E+00  0.00000000000E+00  0.53789532955E+03  0.53789532956E+03  0.25500000000E-02 0. -1.
         -1   -1    0    0    0  501 -0.00000000000E+00 -0.00000000000E+00 -0.28409211361E+01  0.28409256067E+01  0.50400000000E-02 0.  1.
         24    2    1    2    0    0  0.00000000000E+00  0.71054273576E-14  0.53505440841E+03  0.54073625516E+03  0.78182336140E+02 0.  0.
         66    2    3    3    0    0  0.13166406551E+02 -0.35845632339E+02  0.32467287841E+03  0.32691702556E+03  0.20000008390E+01 0.  0.
        -13    1    3    3    0    0 -0.13166406551E+02  0.35845632339E+02  0.21038153000E+03  0.21381922960E+03  0.10566000000E+00 0.  1.
         13    1    4    4    0    0  0.45407261950E+01 -0.13077295583E+02  0.11398162706E+03  0.11481923326E+03  0.10566000000E+00 0. -1.
        -13    1    4    4    0    0  0.32095004886E+01 -0.96170867971E+01  0.83091115015E+02  0.83707429839E+02  0.10566000000E+00 0.  1.
        -14    1    4    4    0    0  0.54161798673E+01 -0.13151249959E+02  0.12760013634E+03  0.12839036246E+03  0.00000000000E+00 0.  1.
<mgrwt>
<rscale>  0 0.78182336E+02</rscale>
<asrwt>0</asrwt>
<pdfrwt beam="1">  1        2 0.82753161E-01 0.78182336E+02</pdfrwt>
<pdfrwt beam="2">  1       -1 0.43706496E-03 0.78182336E+02</pdfrwt>
<totfact> 0.33071943E+05</totfact>
</mgrwt>
</event>
<event>
 8    1  0.1520917E-017  0.8003947E+02  0.7818608E-02  0.1328939E+00
         -1   -1    0    0    0  501 -0.00000000000E+00  0.00000000000E+00  0.43959101287E+01  0.43959130179E+01  0.50400000000E-02 0.  1.
          2   -1    0    0  501    0  0.00000000000E+00 -0.00000000000E+00 -0.36433381970E+03  0.36433381971E+03  0.25500000000E-02 0. -1.
         24    2    1    2    0    0  0.00000000000E+00  0.71054273576E-14 -0.35993790958E+03  0.36872973273E+03  0.80039471827E+02 0.  0.
         66    2    3    3    0    0  0.22828984168E+02 -0.30270643699E+02 -0.23873470038E+03  0.24173483728E+03  0.19999999480E+01 0.  0.
        -13    1    3    3    0    0 -0.22828984168E+02  0.30270643699E+02 -0.12120320920E+03  0.12699489546E+03  0.10566000000E+00 0.  1.
         13    1    4    4    0    0  0.84186328935E+01 -0.11024636496E+02 -0.91350763435E+02  0.92397993126E+02  0.10566000000E+00 0. -1.
        -13    1    4    4    0    0  0.53854212965E+01 -0.72083244123E+01 -0.58718995018E+02  0.59404496827E+02  0.10566000000E+00 0.  1.
        -14    1    4    4    0    0  0.90249299777E+01 -0.12037682790E+02 -0.88664941926E+02  0.89932347322E+02  0.00000000000E+00 0.  1.
<mgrwt>
<rscale>  0 0.80039472E+02</rscale>
<asrwt>0</asrwt>
<pdfrwt beam="1">  1        2 0.56051333E-01 0.80039472E+02</pdfrwt>
<pdfrwt beam="2">  1       -1 0.67629437E-03 0.80039472E+02</pdfrwt>
<totfact> 0.27302105E+05</totfact>
</mgrwt>
</event>
<event>
 8    1  0.1520917E-017  0.8246250E+02  0.7818608E-02  0.1322205E+00
         -1   -1    0    0    0  501 -0.00000000000E+00  0.00000000000E+00  0.92057686152E+02  0.92057686290E+02  0.50400000000E-02 0.  1.
          2   -1    0    0  501    0  0.00000000000E+00 -0.00000000000E+00 -0.18466854892E+02  0.18466855068E+02  0.25500000000E-02 0. -1.
         24    2    1    2    0    0  0.00000000000E+00  0.00000000000E+00  0.73590831260E+02  0.11052454136E+03  0.82462499338E+02 0.  0.
         66    2    3    3    0    0  0.50691303506E+01 -0.18153277071E+02 -0.12296806880E+02  0.22593118646E+02  0.19999999366E+01 0.  0.
        -13    1    3    3    0    0 -0.50691303506E+01  0.18153277071E+02  0.85887638141E+02  0.87931422713E+02  0.10566000000E+00 0.  1.
         13    1    4    4    0    0  0.29491781507E+01 -0.10793232677E+02 -0.66520069557E+01  0.13017368550E+02  0.10566000000E+00 0. -1.
        -13    1    4    4    0    0  0.16503874906E-01 -0.40264246316E+00 -0.86139253699E-01  0.42541431294E+00  0.10566000000E+00 0. -1.
         14    1    4    4    0    0  0.21034483249E+01 -0.69574019310E+01 -0.55586606710E+01  0.91503357830E+01  0.00000000000E+00 0. -1.
<mgrwt>
<rscale>  0 0.82462499E+02</rscale>
<asrwt>0</asrwt>
<pdfrwt beam="1">  1        2 0.28410546E-02 0.82462499E+02</pdfrwt>
<pdfrwt beam="2">  1       -1 0.14162721E-01 0.82462499E+02</pdfrwt>
<totfact> 0.11187710E+05</totfact>
</mgrwt>
</event>
<event>
 8    1  0.1520917E-017  0.8151115E+02  0.7818608E-02  0.1324817E+00
         -1   -1    0    0    0  501 -0.00000000000E+00  0.00000000000E+00  0.11729407170E+01  0.11729515451E+01  0.50400000000E-02 0.  1.
          2   -1    0    0  501    0  0.00000000000E+00 -0.00000000000E+00 -0.14161067156E+04  0.14161067156E+04  0.25500000000E-02 0. -1.
         24    2    1    2    0    0  0.00000000000E+00  0.00000000000E+00 -0.14149337748E+04  0.14172796671E+04  0.81511150187E+02 0.  0.
         66    2    3    3    0    0  0.22392953019E+01 -0.23354224031E+02 -0.12868156878E+04  0.12870310985E+04  0.20000013862E+01 0.  0.
        -13    1    3    3    0    0 -0.22392953019E+01  0.23354224031E+02 -0.12811808706E+03  0.13024856858E+03  0.10566000000E+00 0.  1.
         13    1    4    4    0    0  0.11371407350E+01 -0.12101492031E+02 -0.65499236358E+03  0.65510514172E+03  0.10566000000E+00 0. -1.
        -13    1    4    4    0    0 -0.18164819619E+00 -0.21021647164E+01 -0.13835895563E+03  0.13837508396E+03  0.10566000000E+00 0. -1.
         14    1    4    4    0    0  0.12838027630E+01 -0.91505672838E+01 -0.49346436857E+03  0.49355087284E+03  0.00000000000E+00 0. -1.
<mgrwt>
<rscale>  0 0.81511150E+02</rscale>
<asrwt>0</asrwt>
<pdfrwt beam="1">  1        2 0.21786120E+00 0.81511150E+02</pdfrwt>
<pdfrwt beam="2">  1       -1 0.18045438E-03 0.81511150E+02</pdfrwt>
<totfact> 0.32290847E+05</totfact>
</mgrwt>
</event>
<event>
 8    1  0.1520917E-017  0.8152491E+02  0.7818608E-02  0.1324779E+00
          2   -1    0    0  501    0  0.00000000000E+00  0.00000000000E+00  0.59379105155E+03  0.59379105156E+03  0.25500000000E-02 0. -1.
         -1   -1    0    0    0  501 -0.00000000000E+00 -0.00000000000E+00 -0.27982508940E+01  0.27982554328E+01  0.50400000000E-02 0.  1.
         24    2    1    2    0    0  0.00000000000E+00 -0.88817841970E-15  0.59099280066E+03  0.59658930699E+03  0.81524908988E+02 0.  0.
         66    2    3    3    0    0 -0.91290605840E+01  0.77497856276E+01  0.58061782220E+03  0.58074474116E+03  0.19999997665E+01 0.  0.
        -13    1    3    3    0    0  0.91290605840E+01 -0.77497856276E+01  0.10374978455E+02  0.15844565832E+02  0.10566000000E+00 0.  1.
         13    1    4    4    0    0 -0.42947051670E+01  0.27305052764E+01  0.25872668774E+03  0.25877675758E+03  0.10566000000E+00 0. -1.
        -13    1    4    4    0    0 -0.44635197716E+01  0.43954173239E+01  0.27594191060E+03  0.27601302848E+03  0.10566000000E+00 0.  1.
        -14    1    4    4    0    0 -0.37083564532E+00  0.62386302735E+00  0.45949223861E+02  0.45954955093E+02  0.00000000000E+00 0.  1.
<mgrwt>
<rscale>  0 0.81524909E+02</rscale>
<asrwt>0</asrwt>
<pdfrwt beam="1">  1        2 0.91352546E-01 0.81524909E+02</pdfrwt>
<pdfrwt beam="2">  1       -1 0.43050013E-03 0.81524909E+02</pdfrwt>
<totfact> 0.30530923E+05</totfact>
</mgrwt>
</event>
<event>
 8    1  0.1520917E-017  0.8046716E+02  0.7818608E-02  0.1327731E+00
         -1   -1    0    0    0  501 -0.00000000000E+00  0.00000000000E+00  0.12358234160E+02  0.12358235188E+02  0.50400000000E-02 0.  1.
          2   -1    0    0  501    0  0.00000000000E+00 -0.00000000000E+00 -0.13098481869E+03  0.13098481871E+03  0.25500000000E-02 0. -1.
         24    2    1    2    0    0  0.00000000000E+00  0.00000000000E+00 -0.11862658453E+03  0.14334305390E+03  0.80467164389E+02 0.  0.
         66    2    3    3    0    0  0.17659616128E+02  0.32880011127E+02 -0.85998015420E+02  0.93768949173E+02  0.19999998491E+01 0.  0.
        -13    1    3    3    0    0 -0.17659616128E+02 -0.32880011127E+02 -0.32628569110E+02  0.49574104729E+02  0.10566000000E+00 0.  1.
         13    1    4    4    0    0  0.79936395414E+01  0.14049568572E+02 -0.37345544737E+02  0.40693851205E+02  0.10566000000E+00 0. -1.
        -13    1    4    4    0    0  0.67225879525E+01  0.12192545716E+02 -0.30704348359E+02  0.33713788456E+02  0.10566000000E+00 0.  1.
         14    1    4    4    0    0  0.29433886338E+01  0.66378968388E+01 -0.17948122323E+02  0.19361309512E+02  0.00000000000E+00 0. -1.
<mgrwt>
<rscale>  0 0.80467164E+02</rscale>
<asrwt>0</asrwt>
<pdfrwt beam="1">  1        2 0.20151510E-01 0.80467164E+02</pdfrwt>
<pdfrwt beam="2">  1       -1 0.19012670E-02 0.80467164E+02</pdfrwt>
<totfact> 0.18895991E+05</totfact>
</mgrwt>
</event>
<event>
 8    1  0.1520917E-017  0.7954667E+02  0.7818608E-02  0.1330343E+00
         -1   -1    0    0    0  501 -0.00000000000E+00  0.00000000000E+00  0.11731613503E+02  0.11731614585E+02  0.50400000000E-02 0.  1.
          2   -1    0    0  501    0  0.00000000000E+00 -0.00000000000E+00 -0.13484231830E+03  0.13484231832E+03  0.25500000000E-02 0. -1.
         24    2    1    2    0    0  0.35527136788E-14  0.00000000000E+00 -0.12311070479E+03  0.14657393291E+03  0.79546666635E+02 0.  0.
         66    2    3    3    0    0  0.11501766007E+02  0.17044101632E+02 -0.12427345829E+03  0.12597890483E+03  0.20000010670E+01 0.  0.
        -13    1    3    3    0    0 -0.11501766007E+02 -0.17044101632E+02  0.11627534990E+01  0.20595028076E+02  0.10566000000E+00 0.  1.
         13    1    4    4    0    0  0.62951646692E+01  0.99496422494E+01 -0.68609125274E+02  0.69612123326E+02  0.10566000000E+00 0. -1.
        -13    1    4    4    0    0  0.31841679720E+01  0.35027818057E+01 -0.31343112085E+02  0.31698742014E+02  0.10566000000E+00 0.  1.
        -14    1    4    4    0    0  0.20224333661E+01  0.35916775771E+01 -0.24321220934E+02  0.24668039489E+02  0.00000000000E+00 0.  1.
<mgrwt>
<rscale>  0 0.79546667E+02</rscale>
<asrwt>0</asrwt>
<pdfrwt beam="1">  1        2 0.20744971E-01 0.79546667E+02</pdfrwt>
<pdfrwt beam="2">  1       -1 0.18048638E-02 0.79546667E+02</pdfrwt>
<totfact> 0.19659583E+05</totfact>
</mgrwt>
</event>
<event>
 8    1  0.1520917E-017  0.8153574E+02  0.7818608E-02  0.1324749E+00
         -1   -1    0    0    0  501 -0.00000000000E+00  0.00000000000E+00  0.61090873210E+01  0.61090894000E+01  0.50400000000E-02 0.  1.
          2   -1    0    0  501    0  0.00000000000E+00 -0.00000000000E+00 -0.27205682852E+03  0.27205682853E+03  0.25500000000E-02 0. -1.
         24    2    1    2    0    0 -0.35527136788E-14  0.00000000000E+00 -0.26594774120E+03  0.27816591793E+03  0.81535739710E+02 0.  0.
         66    2    3    3    0    0 -0.21767862595E+02  0.19972288443E+02 -0.22877770920E+03  0.23068587380E+03  0.19999994959E+01 0.  0.
        -13    1    3    3    0    0  0.21767862595E+02 -0.19972288443E+02 -0.37170031999E+02  0.47480044129E+02  0.10566000000E+00 0.  1.
         13    1    4    4    0    0 -0.15531167491E+02  0.14743386906E+02 -0.16746566998E+03  0.16882934107E+03  0.10566000000E+00 0. -1.
        -13    1    4    4    0    0 -0.15110856955E+01  0.12697822746E+01 -0.12201410243E+02  0.12360473411E+02  0.10566000000E+00 0.  1.
        -14    1    4    4    0    0 -0.47256094089E+01  0.39591192622E+01 -0.49110628979E+02  0.49496059321E+02  0.00000000000E+00 0.  1.
<mgrwt>
<rscale>  0 0.81535740E+02</rscale>
<asrwt>0</asrwt>
<pdfrwt beam="1">  1        2 0.41854887E-01 0.81535740E+02</pdfrwt>
<pdfrwt beam="2">  1       -1 0.93985996E-03 0.81535740E+02</pdfrwt>
<totfact> 0.23407958E+05</totfact>
</mgrwt>
</event>
<event>
 8    1  0.1520917E-017  0.7846174E+02  0.7818608E-02  0.1333474E+00
         -1   -1    0    0    0  501 -0.00000000000E+00  0.00000000000E+00  0.11543386728E+02  0.11543387828E+02  0.50400000000E-02 0.  1.
          2   -1    0    0  501    0  0.00000000000E+00 -0.00000000000E+00 -0.13332838273E+03  0.13332838275E+03  0.25500000000E-02 0. -1.
         24    2    1    2    0    0  0.00000000000E+00  0.00000000000E+00 -0.12178499600E+03  0.14487177058E+03  0.78461740105E+02 0.  0.
         66    2    3    3    0    0 -0.27777208362E+02  0.80844987626E+01 -0.10978742890E+03  0.11355268367E+03  0.19999998031E+01 0.  0.
        -13    1    3    3    0    0  0.27777208362E+02 -0.80844987626E+01 -0.11997567101E+02  0.31319086912E+02  0.10566000000E+00 0.  1.
         13    1    4    4    0    0 -0.25608168869E+02  0.69121886550E+01 -0.10006110481E+03  0.10351711223E+03  0.10566000000E+00 0. -1.
        -13    1    4    4    0    0 -0.90229868085E+00  0.44840558611E+00 -0.39723310786E+01  0.40994863962E+01  0.10566000000E+00 0. -1.
         14    1    4    4    0    0 -0.12667408129E+01  0.72390452148E+00 -0.57539930124E+01  0.59360850423E+01  0.00000000000E+00 0. -1.
<mgrwt>
<rscale>  0 0.78461740E+02</rscale>
<asrwt>0</asrwt>
<pdfrwt beam="1">  1        2 0.20512058E-01 0.78461740E+02</pdfrwt>
<pdfrwt beam="2">  1       -1 0.17759058E-02 0.78461740E+02</pdfrwt>
<totfact> 0.20318560E+05</totfact>
</mgrwt>
</event>
<event>
 8    1  0.1520917E-017  0.8060071E+02  0.7818608E-02  0.1327355E+00
         -1   -1    0    0    0  501 -0.00000000000E+00  0.00000000000E+00  0.12571756258E+02  0.12571757268E+02  0.50400000000E-02 0.  1.
          2   -1    0    0  501    0  0.00000000000E+00 -0.00000000000E+00 -0.12918788394E+03  0.12918788397E+03  0.25500000000E-02 0. -1.
         24    2    1    2    0    0  0.00000000000E+00  0.00000000000E+00 -0.11661612768E+03  0.14175964123E+03  0.80600711207E+02 0.  0.
         66    2    3    3    0    0  0.34112645085E+02 -0.14465728930E+02 -0.86107329340E+02  0.93762476646E+02  0.19999981134E+01 0.  0.
        -13    1    3    3    0    0 -0.34112645085E+02  0.14465728930E+02 -0.30508798342E+02  0.47997164588E+02  0.10566000000E+00 0.  1.
         13    1    4    4    0    0  0.81979233257E+01 -0.29824121710E+01 -0.19732333121E+02  0.21574912830E+02  0.10566000000E+00 0. -1.
        -13    1    4    4    0    0  0.45601506308E+01 -0.15606933076E+01 -0.12064127700E+02  0.12991731162E+02  0.10566000000E+00 0.  1.
        -14    1    4    4    0    0  0.21354571128E+02 -0.99226234514E+01 -0.54310868520E+02  0.59195832654E+02  0.00000000000E+00 0.  1.
<mgrwt>
<rscale>  0 0.80600711E+02</rscale>
<asrwt>0</asrwt>
<pdfrwt beam="1">  1        2 0.19875058E-01 0.80600711E+02</pdfrwt>
<pdfrwt beam="2">  1       -1 0.19341165E-02 0.80600711E+02</pdfrwt>
<totfact> 0.18732706E+05</totfact>
</mgrwt>
</event>
<event>
 8    1  0.1520917E-017  0.7888406E+02  0.7818608E-02  0.1332248E+00
         -1   -1    0    0    0  501 -0.00000000000E+00  0.00000000000E+00  0.22387261817E+02  0.22387262384E+02  0.50400000000E-02 0.  1.
          2   -1    0    0  501    0  0.00000000000E+00 -0.00000000000E+00 -0.69489229422E+02  0.69489229468E+02  0.25500000000E-02 0. -1.
         24    2    1    2    0    0  0.00000000000E+00  0.00000000000E+00 -0.47101967605E+02  0.91876491852E+02  0.78884056709E+02 0.  0.
         66    2    3    3    0    0  0.22469616026E+02  0.86093020591E+01 -0.59927667974E+02  0.64609048255E+02  0.20000003358E+01 0.  0.
        -13    1    3    3    0    0 -0.22469616026E+02 -0.86093020591E+01  0.12825700369E+02  0.27267443597E+02  0.10566000000E+00 0.  1.
         13    1    4    4    0    0  0.34377114348E+01  0.81796348319E+00 -0.78535093063E+01  0.86125313717E+01  0.10566000000E+00 0. -1.
        -13    1    4    4    0    0  0.76948027459E+00  0.17390594884E+00 -0.22712740339E+01  0.24066975183E+01  0.10566000000E+00 0. -1.
         14    1    4    4    0    0  0.18262424317E+02  0.76174326270E+01 -0.49802884634E+02  0.53589819365E+02  0.00000000000E+00 0. -1.
<mgrwt>
<rscale>  0 0.78884057E+02</rscale>
<asrwt>0</asrwt>
<pdfrwt beam="1">  1        2 0.10690651E-01 0.78884057E+02</pdfrwt>
<pdfrwt beam="2">  1       -1 0.34441942E-02 0.78884057E+02</pdfrwt>
<totfact> 0.16741934E+05</totfact>
</mgrwt>
</event>
<event>
 8    1  0.1520917E-017  0.7959349E+02  0.7818608E-02  0.1330209E+00
         -1   -1    0    0    0  501 -0.00000000000E+00  0.00000000000E+00  0.11526218517E+02  0.11526219619E+02  0.50400000000E-02 0.  1.
          2   -1    0    0  501    0  0.00000000000E+00 -0.00000000000E+00 -0.13740678660E+03  0.13740678662E+03  0.25500000000E-02 0. -1.
         24    2    1    2    0    0 -0.17763568394E-14  0.00000000000E+00 -0.12588056808E+03  0.14893300624E+03  0.79593485459E+02 0.  0.
         66    2    3    3    0    0  0.11439587100E+02  0.10742888661E+02 -0.13136095323E+03  0.13231014261E+03  0.19999986840E+01 0.  0.
        -13    1    3    3    0    0 -0.11439587100E+02 -0.10742888661E+02  0.54803851486E+01  0.16622863629E+02  0.10566000000E+00 0.  1.
         13    1    4    4    0    0  0.44582129041E+01  0.43437206740E+01 -0.50205530978E+02  0.50590019534E+02  0.10566000000E+00 0. -1.
        -13    1    4    4    0    0  0.15609672100E+00  0.66037995334E-01 -0.70660353370E+00  0.73428863029E+00  0.10566000000E+00 0. -1.
         14    1    4    4    0    0  0.68252774753E+01  0.63331299919E+01 -0.80448818719E+02  0.80985834449E+02  0.00000000000E+00 0. -1.
<mgrwt>
<rscale>  0 0.79593485E+02</rscale>
<asrwt>0</asrwt>
<pdfrwt beam="1">  1        2 0.21139504E-01 0.79593485E+02</pdfrwt>
<pdfrwt beam="2">  1       -1 0.17732646E-02 0.79593485E+02</pdfrwt>
<totfact> 0.19744742E+05</totfact>
</mgrwt>
</event>
<event>
 8    1  0.1520917E-017  0.7918398E+02  0.7818608E-02  0.1331383E+00
          2   -1    0    0  501    0  0.00000000000E+00  0.00000000000E+00  0.12218087555E+02  0.12218087821E+02  0.25500000000E-02 0. -1.
         -1   -1    0    0    0  501 -0.00000000000E+00 -0.00000000000E+00 -0.12829550407E+03  0.12829550416E+03  0.50400000000E-02 0.  1.
         24    2    1    2    0    0 -0.11102230246E-15 -0.71054273576E-14 -0.11607741651E+03  0.14051359199E+03  0.79183981391E+02 0.  0.
         66    2    3    3    0    0 -0.61455755372E+00 -0.39494564515E+02 -0.53981726020E+02  0.66919541623E+02  0.19999999300E+01 0.  0.
        -13    1    3    3    0    0  0.61455755372E+00  0.39494564515E+02 -0.62095690490E+02  0.73594050362E+02  0.10566000000E+00 0.  1.
         13    1    4    4    0    0  0.49694477984E+00 -0.15147595462E+02 -0.21684428391E+02  0.26456042808E+02  0.10566000000E+00 0. -1.
        -13    1    4    4    0    0 -0.21380037343E+00 -0.85452738847E+01 -0.11303084595E+02  0.14171743074E+02  0.10566000000E+00 0.  1.
         14    1    4    4    0    0 -0.89770196012E+00 -0.15801695168E+02 -0.20994213034E+02  0.26291755740E+02  0.00000000000E+00 0. -1.
<mgrwt>
<rscale>  0 0.79183981E+02</rscale>
<asrwt>0</asrwt>
<pdfrwt beam="1">  1        2 0.18797059E-02 0.79183981E+02</pdfrwt>
<pdfrwt beam="2">  1       -1 0.19737769E-01 0.79183981E+02</pdfrwt>
<totfact> 0.11501557E+05</totfact>
</mgrwt>
</event>
<event>
 8    1  0.1520917E-017  0.7272212E+02  0.7818608E-02  0.1351074E+00
          2   -1    0    0  501    0  0.00000000000E+00  0.00000000000E+00  0.11763855644E+03  0.11763855647E+03  0.25500000000E-02 0. -1.
         -1   -1    0    0    0  501 -0.00000000000E+00 -0.00000000000E+00 -0.11238887215E+02  0.11238888345E+02  0.50400000000E-02 0.  1.
         24    2    1    2    0    0  0.00000000000E+00  0.00000000000E+00  0.10639966923E+03  0.12887744482E+03  0.72722116102E+02 0.  0.
         66    2    3    3    0    0 -0.18769645062E+02  0.57446865341E+01  0.10742439833E+03  0.10922134569E+03  0.19999994399E+01 0.  0.
        -13    1    3    3    0    0  0.18769645062E+02 -0.57446865341E+01 -0.10247291036E+01  0.19656099128E+02  0.10566000000E+00 0.  1.
         13    1    4    4    0    0 -0.70095382460E+01  0.21755568749E+01  0.35816149566E+02  0.36560558091E+02  0.10566000000E+00 0. -1.
        -13    1    4    4    0    0 -0.47054772531E+01  0.12151025404E+01  0.30582293887E+02  0.30966205028E+02  0.10566000000E+00 0.  1.
        -14    1    4    4    0    0 -0.70546295634E+01  0.23540271188E+01  0.41025954878E+02  0.41694582569E+02  0.00000000000E+00 0.  1.
<mgrwt>
<rscale>  0 0.72722116E+02</rscale>
<asrwt>0</asrwt>
<pdfrwt beam="1">  1        2 0.18098241E-01 0.72722116E+02</pdfrwt>
<pdfrwt beam="2">  1       -1 0.17290595E-02 0.72722116E+02</pdfrwt>
<totfact> 0.23921504E+05</totfact>
</mgrwt>
</event>
<event>
 8    1  0.1520917E-017  0.8012441E+02  0.7818608E-02  0.1328699E+00
          2   -1    0    0  501    0  0.00000000000E+00  0.00000000000E+00  0.33608497995E+02  0.33608498092E+02  0.25500000000E-02 0. -1.
         -1   -1    0    0    0  501 -0.00000000000E+00 -0.00000000000E+00 -0.47755186943E+02  0.47755187209E+02  0.50400000000E-02 0.  1.
         24    2    1    2    0    0  0.35527136788E-14 -0.17763568394E-14 -0.14146688947E+02  0.81363685301E+02  0.80124406254E+02 0.  0.
         66    2    3    3    0    0  0.16392771211E+02 -0.11329197016E+02  0.28185459502E+02  0.34575913294E+02  0.19999999461E+01 0.  0.
        -13    1    3    3    0    0 -0.16392771211E+02  0.11329197016E+02 -0.42332148449E+02  0.46787772007E+02  0.10566000000E+00 0.  1.
         13    1    4    4    0    0  0.60621785568E+01 -0.42712159658E+01  0.11197638528E+02  0.13430992789E+02  0.10566000000E+00 0. -1.
        -13    1    4    4    0    0  0.28392898874E+01 -0.25089775350E+01  0.58794202881E+01  0.69953757794E+01  0.10566000000E+00 0.  1.
        -14    1    4    4    0    0  0.74913027664E+01 -0.45490035156E+01  0.11108400686E+02  0.14149544725E+02  0.00000000000E+00 0.  1.
<mgrwt>
<rscale>  0 0.80124406E+02</rscale>
<asrwt>0</asrwt>
<pdfrwt beam="1">  1        2 0.51705382E-02 0.80124406E+02</pdfrwt>
<pdfrwt beam="2">  1       -1 0.73469519E-02 0.80124406E+02</pdfrwt>
<totfact> 0.13702345E+05</totfact>
</mgrwt>
</event>
<event>
 8    1  0.1520917E-017  0.8347571E+02  0.7818608E-02  0.1319468E+00
         -1   -1    0    0    0  501 -0.00000000000E+00  0.00000000000E+00  0.26439165899E+02  0.26439166379E+02  0.50400000000E-02 0.  1.
          2   -1    0    0  501    0  0.00000000000E+00 -0.00000000000E+00 -0.65888941806E+02  0.65888941855E+02  0.25500000000E-02 0. -1.
         24    2    1    2    0    0  0.17763568394E-14  0.17763568394E-14 -0.39449775907E+02  0.92328108235E+02  0.83475713540E+02 0.  0.
         66    2    3    3    0    0  0.14939531384E+02  0.15152825001E+02 -0.59419185835E+02  0.63146158327E+02  0.19999906675E+01 0.  0.
        -13    1    3    3    0    0 -0.14939531384E+02 -0.15152825001E+02  0.19969409928E+02  0.29181949907E+02  0.10566000000E+00 0.  1.
         13    1    4    4    0    0  0.64368586302E+01  0.55092609486E+01 -0.22318727466E+02  0.23873036359E+02  0.10566000000E+00 0. -1.
        -13    1    4    4    0    0  0.78088266484E+01  0.90353683887E+01 -0.34909841318E+02  0.36896122295E+02  0.10566000000E+00 0.  1.
        -14    1    4    4    0    0  0.69384610522E+00  0.60819566379E+00 -0.21906170513E+01  0.23769996737E+01  0.00000000000E+00 0.  1.
<mgrwt>
<rscale>  0 0.83475714E+02</rscale>
<asrwt>0</asrwt>
<pdfrwt beam="1">  1        2 0.10136760E-01 0.83475714E+02</pdfrwt>
<pdfrwt beam="2">  1       -1 0.40675641E-02 0.83475714E+02</pdfrwt>
<totfact> 0.14174111E+05</totfact>
</mgrwt>
</event>
<event>
 8    1  0.1520917E-017  0.8152112E+02  0.7818608E-02  0.1324789E+00
         -1   -1    0    0    0  501 -0.00000000000E+00  0.00000000000E+00  0.25036171101E+02  0.25036171608E+02  0.50400000000E-02 0.  1.
          2   -1    0    0  501    0  0.00000000000E+00 -0.00000000000E+00 -0.66360910459E+02  0.66360910507E+02  0.25500000000E-02 0. -1.
         24    2    1    2    0    0  0.00000000000E+00  0.00000000000E+00 -0.41324739358E+02  0.91397082116E+02  0.81521117119E+02 0.  0.
         66    2    3    3    0    0  0.13224274597E+02 -0.60383157654E+01 -0.63338401490E+02  0.65016119653E+02  0.20000038797E+01 0.  0.
        -13    1    3    3    0    0 -0.13224274597E+02  0.60383157654E+01  0.22013662133E+02  0.26380962462E+02  0.10566000000E+00 0.  1.
         13    1    4    4    0    0  0.11513976271E+02 -0.54817039512E+01 -0.57413728699E+02  0.58812992909E+02  0.10566000000E+00 0. -1.
        -13    1    4    4    0    0  0.11050137507E+01 -0.52723594688E+00 -0.38047080823E+01  0.39982497121E+01  0.10566000000E+00 0. -1.
         14    1    4    4    0    0  0.60528457576E+00 -0.29375867330E-01 -0.21199647095E+01  0.22048770326E+01  0.00000000000E+00 0. -1.
<mgrwt>
<rscale>  0 0.81521117E+02</rscale>
<asrwt>0</asrwt>
<pdfrwt beam="1">  1        2 0.10209371E-01 0.81521117E+02</pdfrwt>
<pdfrwt beam="2">  1       -1 0.38517187E-02 0.81521117E+02</pdfrwt>
<totfact> 0.15144816E+05</totfact>
</mgrwt>
</event>
<event>
 8    1  0.1520917E-017  0.7996896E+02  0.7818608E-02  0.1329140E+00
         -1   -1    0    0    0  501 -0.00000000000E+00  0.00000000000E+00  0.89170625163E+02  0.89170625305E+02  0.50400000000E-02 0.  1.
          2   -1    0    0  501    0  0.00000000000E+00 -0.00000000000E+00 -0.17929206234E+02  0.17929206415E+02  0.25500000000E-02 0. -1.
         24    2    1    2    0    0  0.71054273576E-14  0.00000000000E+00  0.71241418929E+02  0.10709983172E+03  0.79968957624E+02 0.  0.
         66    2    3    3    0    0 -0.35491550438E+02  0.85703047359E+01  0.13896698458E+02  0.39118007637E+02  0.20000044166E+01 0.  0.
        -13    1    3    3    0    0  0.35491550438E+02 -0.85703047359E+01  0.57344720471E+02  0.67981824084E+02  0.10566000000E+00 0.  1.
         13    1    4    4    0    0 -0.19778103645E+02  0.43741025933E+01  0.83635274532E+01  0.21914970061E+02  0.10566000000E+00 0. -1.
        -13    1    4    4    0    0 -0.11073706117E+02  0.33030980964E+01  0.36867231546E+01  0.12130149045E+02  0.10566000000E+00 0.  1.
        -14    1    4    4    0    0 -0.46397406768E+01  0.89310404618E+00  0.18464478497E+01  0.50728885309E+01  0.00000000000E+00 0.  1.
<mgrwt>
<rscale>  0 0.79968958E+02</rscale>
<asrwt>0</asrwt>
<pdfrwt beam="1">  1        2 0.27583395E-02 0.79968958E+02</pdfrwt>
<pdfrwt beam="2">  1       -1 0.13718558E-01 0.79968958E+02</pdfrwt>
<totfact> 0.12154506E+05</totfact>
</mgrwt>
</event>
<event>
 8    1  0.1520917E-017  0.7980434E+02  0.7818608E-02  0.1329608E+00
         -1   -1    0    0    0  501 -0.00000000000E+00  0.00000000000E+00  0.72415837504E+01  0.72415855043E+01  0.50400000000E-02 0.  1.
          2   -1    0    0  501    0  0.00000000000E+00 -0.00000000000E+00 -0.21986667684E+03  0.21986667685E+03  0.25500000000E-02 0. -1.
         24    2    1    2    0    0  0.00000000000E+00  0.71054273576E-14 -0.21262509309E+03  0.22710826236E+03  0.79804339609E+02 0.  0.
         66    2    3    3    0    0 -0.55572683859E+01  0.35808013364E+02 -0.15374984382E+03  0.15797503451E+03  0.19999997208E+01 0.  0.
        -13    1    3    3    0    0  0.55572683859E+01 -0.35808013364E+02 -0.58875249264E+02  0.69133227849E+02  0.10566000000E+00 0.  1.
         13    1    4    4    0    0 -0.24642391003E+01  0.21511625396E+02 -0.92799768052E+02  0.95292342903E+02  0.10566000000E+00 0. -1.
        -13    1    4    4    0    0 -0.82267879315E+00  0.36221182491E+01 -0.14656130107E+02  0.15119849693E+02  0.10566000000E+00 0.  1.
         14    1    4    4    0    0 -0.22703504924E+01  0.10674269719E+02 -0.46293945666E+02  0.47562841912E+02  0.00000000000E+00 0. -1.
<mgrwt>
<rscale>  0 0.79804340E+02</rscale>
<asrwt>0</asrwt>
<pdfrwt beam="1">  1        2 0.33825638E-01 0.79804340E+02</pdfrwt>
<pdfrwt beam="2">  1       -1 0.11140901E-02 0.79804340E+02</pdfrwt>
<totfact> 0.22949896E+05</totfact>
</mgrwt>
</event>
<event>
 8    1  0.1520917E-017  0.7965626E+02  0.7818608E-02  0.1330030E+00
         -1   -1    0    0    0  501 -0.00000000000E+00  0.00000000000E+00  0.12828960498E+01  0.12829059499E+01  0.50400000000E-02 0.  1.
          2   -1    0    0  501    0  0.00000000000E+00 -0.00000000000E+00 -0.12364788886E+04  0.12364788886E+04  0.25500000000E-02 0. -1.
         24    2    1    2    0    0 -0.88817841970E-15  0.53290705182E-14 -0.12351959925E+04  0.12377617945E+04  0.79656261785E+02 0.  0.
         66    2    3    3    0    0 -0.59223347941E+01  0.15333089312E+02 -0.11812748008E+04  0.11813908467E+04  0.20000003164E+01 0.  0.
        -13    1    3    3    0    0  0.59223347941E+01 -0.15333089312E+02 -0.53921191766E+02  0.56370947861E+02  0.10566000000E+00 0.  1.
         13    1    4    4    0    0 -0.48876352932E+01  0.13267363093E+02 -0.10139857434E+04  0.10140843213E+04  0.10566000000E+00 0. -1.
        -13    1    4    4    0    0 -0.16525070728E+00  0.10231418342E+01 -0.62626901042E+02  0.62635565178E+02  0.10566000000E+00 0.  1.
        -14    1    4    4    0    0 -0.86944879360E+00  0.10425843845E+01 -0.10466215636E+03  0.10467096014E+03  0.00000000000E+00 0.  1.
<mgrwt>
<rscale>  0 0.79656262E+02</rscale>
<asrwt>0</asrwt>
<pdfrwt beam="1">  1        2 0.19022657E+00 0.79656262E+02</pdfrwt>
<pdfrwt beam="2">  1       -1 0.19737037E-03 0.79656262E+02</pdfrwt>
<totfact> 0.35299441E+05</totfact>
</mgrwt>
</event>
<event>
 8    1  0.1520917E-017  0.8154811E+02  0.7818608E-02  0.1324715E+00
          2   -1    0    0  501    0  0.00000000000E+00  0.00000000000E+00  0.82584159892E+03  0.82584159892E+03  0.25500000000E-02 0. -1.
         -1   -1    0    0    0  501 -0.00000000000E+00 -0.00000000000E+00 -0.20131230688E+01  0.20131293778E+01  0.50400000000E-02 0.  1.
         24    2    1    2    0    0  0.71054273576E-14  0.17763568394E-14  0.82382847585E+03  0.82785472830E+03  0.81548105731E+02 0.  0.
         66    2    3    3    0    0  0.27930028784E+02  0.89028187143E+01  0.69950592534E+03  0.70012276512E+03  0.19999906715E+01 0.  0.
        -13    1    3    3    0    0 -0.27930028784E+02 -0.89028187143E+01  0.12432255051E+03  0.12773196318E+03  0.10566000000E+00 0.  1.
         13    1    4    4    0    0  0.39823764492E+00  0.25951788663E+00  0.83235363805E+01  0.83377673671E+01  0.10566000000E+00 0. -1.
        -13    1    4    4    0    0  0.32399617041E+01  0.10013529918E+01  0.75540280660E+02  0.75616434893E+02  0.10566000000E+00 0.  1.
         14    1    4    4    0    0  0.24291829435E+02  0.76419478358E+01  0.61564210830E+03  0.61616856286E+03  0.00000000000E+00 0. -1.
<mgrwt>
<rscale>  0 0.81548106E+02</rscale>
<asrwt>0</asrwt>
<pdfrwt beam="1">  1        2 0.12705233E+00 0.81548106E+02</pdfrwt>
<pdfrwt beam="2">  1       -1 0.30971227E-03 0.81548106E+02</pdfrwt>
<totfact> 0.32866848E+05</totfact>
</mgrwt>
</event>
<event>
 8    1  0.1520917E-017  0.7972366E+02  0.7818608E-02  0.1329837E+00
         -1   -1    0    0    0  501 -0.00000000000E+00  0.00000000000E+00  0.27486615479E+01  0.27486661686E+01  0.50400000000E-02 0.  1.
          2   -1    0    0  501    0  0.00000000000E+00 -0.00000000000E+00 -0.57808650749E+03  0.57808650750E+03  0.25500000000E-02 0. -1.
         24    2    1    2    0    0  0.00000000000E+00  0.00000000000E+00 -0.57533784595E+03  0.58083517367E+03  0.79723660178E+02 0.  0.
         66    2    3    3    0    0  0.12311256872E+02  0.28780187909E+02 -0.46736156776E+03  0.46841296022E+03  0.20000050430E+01 0.  0.
        -13    1    3    3    0    0 -0.12311256872E+02 -0.28780187909E+02 -0.10797627819E+03  0.11242221345E+03  0.10566000000E+00 0.  1.
         13    1    4    4    0    0  0.75390001924E+01  0.17947888883E+02 -0.28682919171E+03  0.28748906001E+03  0.10566000000E+00 0. -1.
        -13    1    4    4    0    0  0.18175572080E+01  0.28787393872E+01 -0.49290617629E+02  0.49408165367E+02  0.10566000000E+00 0. -1.
        -14    1    4    4    0    0  0.29546994715E+01  0.79535596394E+01 -0.13124175842E+03  0.13151573485E+03  0.00000000000E+00 0.  1.
<mgrwt>
<rscale>  0 0.79723660E+02</rscale>
<asrwt>0</asrwt>
<pdfrwt beam="1">  1        2 0.88936289E-01 0.79723660E+02</pdfrwt>
<pdfrwt beam="2">  1       -1 0.42287183E-03 0.79723660E+02</pdfrwt>
<totfact> 0.32114149E+05</totfact>
</mgrwt>
</event>
<event>
 8    1  0.1520917E-017  0.8067391E+02  0.7818608E-02  0.1327150E+00
         -1   -1    0    0    0  501 -0.00000000000E+00  0.00000000000E+00  0.45462953692E+02  0.45462953972E+02  0.50400000000E-02 0.  1.
          2   -1    0    0  501    0  0.00000000000E+00 -0.00000000000E+00 -0.35788920213E+02  0.35788920304E+02  0.25500000000E-02 0. -1.
         24    2    1    2    0    0  0.00000000000E+00  0.00000000000E+00  0.96740334795E+01  0.81251874275E+02  0.80673912447E+02 0.  0.
         66    2    3    3    0    0  0.19064176566E+02 -0.76466242852E+01 -0.30094991128E+02  0.36491398704E+02  0.19999993355E+01 0.  0.
        -13    1    3    3    0    0 -0.19064176566E+02  0.76466242852E+01  0.39769024607E+02  0.44760475571E+02  0.10566000000E+00 0.  1.
         13    1    4    4    0    0  0.67575152089E+01 -0.19595656414E+01 -0.11317914242E+02  0.13327049791E+02  0.10566000000E+00 0. -1.
        -13    1    4    4    0    0  0.11781818716E+02 -0.53411760141E+01 -0.17905552637E+02  0.22089802913E+02  0.10566000000E+00 0.  1.
        -14    1    4    4    0    0  0.52484264110E+00 -0.34588262967E+00 -0.87152424879E+00  0.10745460007E+01  0.00000000000E+00 0.  1.
<mgrwt>
<rscale>  0 0.80673912E+02</rscale>
<asrwt>0</asrwt>
<pdfrwt beam="1">  1        2 0.55059878E-02 0.80673912E+02</pdfrwt>
<pdfrwt beam="2">  1       -1 0.69943006E-02 0.80673912E+02</pdfrwt>
<totfact> 0.13615027E+05</totfact>
</mgrwt>
</event>
<event>
 8    1  0.1520917E-017  0.7910098E+02  0.7818608E-02  0.1331622E+00
         -1   -1    0    0    0  501 -0.00000000000E+00  0.00000000000E+00  0.23454409317E+01  0.23454463468E+01  0.50400000000E-02 0.  1.
          2   -1    0    0  501    0  0.00000000000E+00 -0.00000000000E+00 -0.66692761676E+03  0.66692761677E+03  0.25500000000E-02 0. -1.
         24    2    1    2    0    0  0.17763568394E-14 -0.10658141036E-13 -0.66458217583E+03  0.66927306312E+03  0.79100977101E+02 0.  0.
         66    2    3    3    0    0 -0.14486435769E+02  0.30196514916E+02 -0.51009314054E+03  0.51119536221E+03  0.19999958998E+01 0.  0.
        -13    1    3    3    0    0  0.14486435769E+02 -0.30196514916E+02 -0.15448903529E+03  0.15807770090E+03  0.10566000000E+00 0.  1.
         13    1    4    4    0    0 -0.86004470265E+01  0.17545349329E+02 -0.30848218605E+03  0.30910043230E+03  0.10566000000E+00 0. -1.
        -13    1    4    4    0    0 -0.19545299484E+01  0.43837098836E+01 -0.64013573516E+02  0.64193347459E+02  0.10566000000E+00 0.  1.
        -14    1    4    4    0    0 -0.39314587940E+01  0.82674557034E+01 -0.13759738097E+03  0.13790158245E+03  0.00000000000E+00 0.  1.
<mgrwt>
<rscale>  0 0.79100977E+02</rscale>
<asrwt>0</asrwt>
<pdfrwt beam="1">  1        2 0.10260410E+00 0.79100977E+02</pdfrwt>
<pdfrwt beam="2">  1       -1 0.36083802E-03 0.79100977E+02</pdfrwt>
<totfact> 0.34055011E+05</totfact>
</mgrwt>
</event>
<event>
 8    1  0.1520917E-017  0.8006217E+02  0.7818608E-02  0.1328875E+00
          2   -1    0    0  501    0  0.00000000000E+00  0.00000000000E+00  0.16901601138E+02  0.16901601331E+02  0.25500000000E-02 0. -1.
         -1   -1    0    0    0  501 -0.00000000000E+00 -0.00000000000E+00 -0.94812768626E+02  0.94812768760E+02  0.50400000000E-02 0.  1.
         24    2    1    2    0    0  0.35527136788E-14 -0.35527136788E-14 -0.77911167487E+02  0.11171437009E+03  0.80062166255E+02 0.  0.
         66    2    3    3    0    0 -0.19150070558E+02  0.19236894812E+02  0.20276468031E+01  0.27292758411E+02  0.19999964325E+01 0.  0.
        -13    1    3    3    0    0  0.19150070558E+02 -0.19236894812E+02 -0.79938814290E+02  0.84421611679E+02  0.10566000000E+00 0.  1.
         13    1    4    4    0    0 -0.12349575246E+02  0.11652653755E+02  0.13659893333E+01  0.17034477955E+02  0.10566000000E+00 0. -1.
        -13    1    4    4    0    0 -0.59136379789E+00  0.63742267755E+00 -0.20880095084E+00  0.90043360887E+00  0.10566000000E+00 0.  1.
         14    1    4    4    0    0 -0.62091315137E+01  0.69468183798E+01  0.87045842064E+00  0.93578468474E+01  0.00000000000E+00 0. -1.
<mgrwt>
<rscale>  0 0.80062166E+02</rscale>
<asrwt>0</asrwt>
<pdfrwt beam="1">  1        2 0.26002464E-02 0.80062166E+02</pdfrwt>
<pdfrwt beam="2">  1       -1 0.14586580E-01 0.80062166E+02</pdfrwt>
<totfact> 0.11964834E+05</totfact>
</mgrwt>
</event>
<event>
 8    1  0.1520917E-017  0.7868457E+02  0.7818608E-02  0.1332826E+00
         -1   -1    0    0    0  501 -0.00000000000E+00  0.00000000000E+00  0.66814367478E+01  0.66814386487E+01  0.50400000000E-02 0.  1.
          2   -1    0    0  501    0  0.00000000000E+00 -0.00000000000E+00 -0.23165901779E+03  0.23165901781E+03  0.25500000000E-02 0. -1.
         24    2    1    2    0    0  0.17763568394E-14  0.00000000000E+00 -0.22497758104E+03  0.23834045645E+03  0.78684567804E+02 0.  0.
         66    2    3    3    0    0 -0.12726732991E+02  0.18857333953E+02 -0.20969179958E+03  0.21093178893E+03  0.19999982952E+01 0.  0.
        -13    1    3    3    0    0  0.12726732991E+02 -0.18857333953E+02 -0.15285781461E+02  0.27408667522E+02  0.10566000000E+00 0.  1.
         13    1    4    4    0    0 -0.59703842460E+01  0.78361554520E+01 -0.90689504398E+02  0.91223068312E+02  0.10566000000E+00 0. -1.
        -13    1    4    4    0    0 -0.11153761744E+01  0.27212432150E+01 -0.28731777561E+02  0.28882095396E+02  0.10566000000E+00 0.  1.
        -14    1    4    4    0    0 -0.56409725703E+01  0.82999352865E+01 -0.90270517624E+02  0.90826625223E+02  0.00000000000E+00 0.  1.
<mgrwt>
<rscale>  0 0.78684568E+02</rscale>
<asrwt>0</asrwt>
<pdfrwt beam="1">  1        2 0.35639843E-01 0.78684568E+02</pdfrwt>
<pdfrwt beam="2">  1       -1 0.10279137E-02 0.78684568E+02</pdfrwt>
<totfact> 0.24263374E+05</totfact>
</mgrwt>
</event>
<event>
 8    1  0.1520917E-017  0.7941447E+02  0.7818608E-02  0.1330721E+00
         -1   -1    0    0    0  501 -0.00000000000E+00  0.00000000000E+00  0.44707429552E+02  0.44707429836E+02  0.50400000000E-02 0.  1.
          2   -1    0    0  501    0  0.00000000000E+00 -0.00000000000E+00 -0.35266276656E+02  0.35266276748E+02  0.25500000000E-02 0. -1.
         24    2    1    2    0    0  0.00000000000E+00  0.00000000000E+00  0.94411528955E+01  0.79973706584E+02  0.79414472087E+02 0.  0.
         66    2    3    3    0    0  0.13303374185E+02 -0.22181511985E+02 -0.25582552487E+02  0.36434410065E+02  0.20000015962E+01 0.  0.
        -13    1    3    3    0    0 -0.13303374185E+02  0.22181511985E+02  0.35023705383E+02  0.43539296519E+02  0.10566000000E+00 0.  1.
         13    1    4    4    0    0  0.78200266753E+01 -0.12072014187E+02 -0.14189178377E+02  0.20204709619E+02  0.10566000000E+00 0. -1.
        -13    1    4    4    0    0  0.35387427364E-01 -0.87991420345E-01 -0.74948294175E-01  0.16054919019E+00  0.10566000000E+00 0. -1.
         14    1    4    4    0    0  0.54479600819E+01 -0.10021506377E+02 -0.11318425816E+02  0.16069151256E+02  0.00000000000E+00 0. -1.
<mgrwt>
<rscale>  0 0.79414472E+02</rscale>
<asrwt>0</asrwt>
<pdfrwt beam="1">  1        2 0.54255810E-02 0.79414472E+02</pdfrwt>
<pdfrwt beam="2">  1       -1 0.68780661E-02 0.79414472E+02</pdfrwt>
<totfact> 0.14181704E+05</totfact>
</mgrwt>
</event>
<event>
 8    1  0.1520917E-017  0.7693250E+02  0.7818608E-02  0.1337989E+00
         -1   -1    0    0    0  501 -0.00000000000E+00  0.00000000000E+00  0.59295816205E+01  0.59295837625E+01  0.50400000000E-02 0.  1.
          2   -1    0    0  501    0  0.00000000000E+00 -0.00000000000E+00 -0.24953735765E+03  0.24953735766E+03  0.25500000000E-02 0. -1.
         24    2    1    2    0    0  0.35527136788E-14 -0.35527136788E-14 -0.24360777603E+03  0.25546694142E+03  0.76932500409E+02 0.  0.
         66    2    3    3    0    0  0.24541302515E+02 -0.29330929052E+02 -0.10899573970E+03  0.11552770312E+03  0.19999969046E+01 0.  0.
        -13    1    3    3    0    0 -0.24541302515E+02  0.29330929052E+02 -0.13461203633E+03  0.13993923830E+03  0.10566000000E+00 0.  1.
         13    1    4    4    0    0  0.36992122185E+01 -0.44820701734E+01 -0.18181426969E+02  0.19087916982E+02  0.10566000000E+00 0. -1.
        -13    1    4    4    0    0  0.67356577911E+01 -0.83297368949E+01 -0.28399870031E+02  0.30353210447E+02  0.10566000000E+00 0.  1.
        -14    1    4    4    0    0  0.14106432506E+02 -0.16519121984E+02 -0.62414442700E+02  0.66086575692E+02  0.00000000000E+00 0.  1.
<mgrwt>
<rscale>  0 0.76932500E+02</rscale>
<asrwt>0</asrwt>
<pdfrwt beam="1">  1        2 0.38390355E-01 0.76932500E+02</pdfrwt>
<pdfrwt beam="2">  1       -1 0.91224369E-03 0.76932500E+02</pdfrwt>
<totfact> 0.26429323E+05</totfact>
</mgrwt>
</event>
<event>
 8    1  0.1520917E-017  0.8092861E+02  0.7818608E-02  0.1326437E+00
         -1   -1    0    0    0  501 -0.00000000000E+00  0.00000000000E+00  0.38994999735E+01  0.38995032305E+01  0.50400000000E-02 0.  1.
          2   -1    0    0  501    0  0.00000000000E+00 -0.00000000000E+00 -0.41988952457E+03  0.41988952458E+03  0.25500000000E-02 0. -1.
         24    2    1    2    0    0  0.00000000000E+00  0.00000000000E+00 -0.41599002460E+03  0.42378902781E+03  0.80928607593E+02 0.  0.
         66    2    3    3    0    0  0.10010964492E+02  0.23535946807E+02 -0.37215242642E+03  0.37303563994E+03  0.19999932734E+01 0.  0.
        -13    1    3    3    0    0 -0.10010964492E+02 -0.23535946807E+02 -0.43837598176E+02  0.50753387868E+02  0.10566000000E+00 0.  1.
         13    1    4    4    0    0  0.29336316436E+01  0.84868345477E+01 -0.12648396970E+03  0.12680235925E+03  0.10566000000E+00 0. -1.
        -13    1    4    4    0    0  0.49540253687E+01  0.10846738970E+02 -0.18310736437E+03  0.18349526469E+03  0.10566000000E+00 0.  1.
        -14    1    4    4    0    0  0.21233074798E+01  0.42023732895E+01 -0.62561092353E+02  0.62738016006E+02  0.00000000000E+00 0.  1.
<mgrwt>
<rscale>  0 0.80928608E+02</rscale>
<asrwt>0</asrwt>
<pdfrwt beam="1">  1        2 0.64598353E-01 0.80928608E+02</pdfrwt>
<pdfrwt beam="2">  1       -1 0.59992366E-03 0.80928608E+02</pdfrwt>
<totfact> 0.27880162E+05</totfact>
</mgrwt>
</event>
<event>
 8    1  0.1520917E-017  0.8074342E+02  0.7818608E-02  0.1326955E+00
          2   -1    0    0  501    0  0.00000000000E+00  0.00000000000E+00  0.15818068874E+03  0.15818068877E+03  0.25500000000E-02 0. -1.
         -1   -1    0    0    0  501 -0.00000000000E+00 -0.00000000000E+00 -0.10303879187E+02  0.10303880420E+02  0.50400000000E-02 0.  1.
         24    2    1    2    0    0  0.88817841970E-15  0.00000000000E+00  0.14787680956E+03  0.16848456919E+03  0.80743416130E+02 0.  0.
         66    2    3    3    0    0  0.53582834954E+01  0.39971964687E+02  0.76453218336E+02  0.86461342535E+02  0.19999990160E+01 0.  0.
        -13    1    3    3    0    0 -0.53582834954E+01 -0.39971964687E+02  0.71423591222E+02  0.82023226650E+02  0.10566000000E+00 0.  1.
         13    1    4    4    0    0  0.11239236455E+01  0.72977012650E+01  0.14912512576E+02  0.16640728454E+02  0.10566000000E+00 0. -1.
        -13    1    4    4    0    0  0.90214130901E+00  0.40657540326E+01  0.71724974656E+01  0.82945824925E+01  0.10566000000E+00 0.  1.
         14    1    4    4    0    0  0.33322185409E+01  0.28608509390E+02  0.54368208294E+02  0.61526031589E+02  0.00000000000E+00 0. -1.
<mgrwt>
<rscale>  0 0.80743416E+02</rscale>
<asrwt>0</asrwt>
<pdfrwt beam="1">  1        2 0.24335490E-01 0.80743416E+02</pdfrwt>
<pdfrwt beam="2">  1       -1 0.15852123E-02 0.80743416E+02</pdfrwt>
<totfact> 0.19884569E+05</totfact>
</mgrwt>
</event>
<event>
 8    1  0.1520917E-017  0.7975721E+02  0.7818608E-02  0.1329742E+00
          2   -1    0    0  501    0  0.00000000000E+00  0.00000000000E+00  0.61689866828E+03  0.61689866829E+03  0.25500000000E-02 0. -1.
         -1   -1    0    0    0  501 -0.00000000000E+00 -0.00000000000E+00 -0.25778975092E+01  0.25779024360E+01  0.50400000000E-02 0.  1.
         24    2    1    2    0    0  0.27755575616E-16  0.00000000000E+00  0.61432077077E+03  0.61947657072E+03  0.79757208277E+02 0.  0.
         66    2    3    3    0    0 -0.22690901654E+00  0.22205219272E+02  0.56439060225E+03  0.56483083765E+03  0.19999996055E+01 0.  0.
        -13    1    3    3    0    0  0.22690901654E+00 -0.22205219272E+02  0.49930168517E+02  0.54645733070E+02  0.10566000000E+00 0.  1.
         13    1    4    4    0    0 -0.20627790947E+00  0.20777903312E+02  0.52651343046E+03  0.52692330318E+03  0.10566000000E+00 0. -1.
        -13    1    4    4    0    0 -0.24841921125E+00  0.58772770792E+00  0.16466142985E+02  0.16478839911E+02  0.10566000000E+00 0. -1.
         14    1    4    4    0    0  0.22778810418E+00  0.83958825255E+00  0.21411028810E+02  0.21428694560E+02  0.00000000000E+00 0. -1.
<mgrwt>
<rscale>  0 0.79757208E+02</rscale>
<asrwt>0</asrwt>
<pdfrwt beam="1">  1        2 0.94907590E-01 0.79757208E+02</pdfrwt>
<pdfrwt beam="2">  1       -1 0.39659957E-03 0.79757208E+02</pdfrwt>
<totfact> 0.32666859E+05</totfact>
</mgrwt>
</event>
<event>
 8    1  0.1520917E-017  0.8094375E+02  0.7818608E-02  0.1326394E+00
          2   -1    0    0  501    0  0.00000000000E+00  0.00000000000E+00  0.37204553700E+03  0.37204553701E+03  0.25500000000E-02 0. -1.
         -1   -1    0    0    0  501 -0.00000000000E+00 -0.00000000000E+00 -0.44026115343E+01  0.44026144191E+01  0.50400000000E-02 0.  1.
         24    2    1    2    0    0  0.00000000000E+00  0.00000000000E+00  0.36764292546E+03  0.37644815142E+03  0.80943746320E+02 0.  0.
         66    2    3    3    0    0  0.34222585024E+02 -0.18614216108E+02  0.23451603958E+03  0.23773819045E+03  0.20000017855E+01 0.  0.
        -13    1    3    3    0    0 -0.34222585024E+02  0.18614216108E+02  0.13312688588E+03  0.13870996098E+03  0.10566000000E+00 0.  1.
         13    1    4    4    0    0  0.48041603672E+01 -0.26064289056E+01  0.33760379895E+02  0.34200114666E+02  0.10566000000E+00 0. -1.
        -13    1    4    4    0    0  0.14431391185E+02 -0.68558290426E+01  0.94577086610E+02  0.95917172181E+02  0.10566000000E+00 0.  1.
        -14    1    4    4    0    0  0.14987033471E+02 -0.91519581603E+01  0.10617857308E+03  0.10762090360E+03  0.00000000000E+00 0.  1.
<mgrwt>
<rscale>  0 0.80943746E+02</rscale>
<asrwt>0</asrwt>
<pdfrwt beam="1">  1        2 0.57237777E-01 0.80943746E+02</pdfrwt>
<pdfrwt beam="2">  1       -1 0.67732505E-03 0.80943746E+02</pdfrwt>
<totfact> 0.26708711E+05</totfact>
</mgrwt>
</event>
<event>
 8    1  0.1520917E-017  0.7963935E+02  0.7818608E-02  0.1330078E+00
         -1   -1    0    0    0  501 -0.00000000000E+00  0.00000000000E+00  0.56834412645E+01  0.56834434992E+01  0.50400000000E-02 0.  1.
          2   -1    0    0  501    0  0.00000000000E+00 -0.00000000000E+00 -0.27898702482E+03  0.27898702483E+03  0.25500000000E-02 0. -1.
         24    2    1    2    0    0 -0.35527136788E-14 -0.35527136788E-14 -0.27330358355E+03  0.28467046833E+03  0.79639354313E+02 0.  0.
         66    2    3    3    0    0  0.17150776391E+02 -0.15179623401E+02 -0.25306168694E+03  0.25410389116E+03  0.20000018483E+01 0.  0.
        -13    1    3    3    0    0 -0.17150776391E+02  0.15179623401E+02 -0.20241896614E+02  0.30566577171E+02  0.10566000000E+00 0.  1.
         13    1    4    4    0    0  0.21185564652E+00 -0.28405440508E+00 -0.35521602517E+01  0.35713549543E+01  0.10566000000E+00 0.  1.
        -13    1    4    4    0    0  0.82225394802E+01 -0.67944334097E+01 -0.10960425792E+03  0.11012210949E+03  0.10566000000E+00 0.  1.
         14    1    4    4    0    0  0.87163812639E+01 -0.81011355864E+01 -0.13990526876E+03  0.14041042671E+03  0.00000000000E+00 0. -1.
<mgrwt>
<rscale>  0 0.79639354E+02</rscale>
<asrwt>0</asrwt>
<pdfrwt beam="1">  1        2 0.42921070E-01 0.79639354E+02</pdfrwt>
<pdfrwt beam="2">  1       -1 0.87437597E-03 0.79639354E+02</pdfrwt>
<totfact> 0.25128703E+05</totfact>
</mgrwt>
</event>
<event>
 8    1  0.1520917E-017  0.8015766E+02  0.7818608E-02  0.1328605E+00
          2   -1    0    0  501    0  0.00000000000E+00  0.00000000000E+00  0.15856132186E+03  0.15856132188E+03  0.25500000000E-02 0. -1.
         -1   -1    0    0    0  501 -0.00000000000E+00 -0.00000000000E+00 -0.10130543892E+02  0.10130545146E+02  0.50400000000E-02 0.  1.
         24    2    1    2    0    0 -0.35527136788E-14  0.22204460493E-15  0.14843077797E+03  0.16869186702E+03  0.80157658105E+02 0.  0.
         66    2    3    3    0    0  0.16178266901E+02 -0.98831433894E+00  0.15134466628E+03  0.15222326070E+03  0.19999999833E+01 0.  0.
        -13    1    3    3    0    0 -0.16178266901E+02  0.98831433894E+00 -0.29138883185E+01  0.16468606326E+02  0.10566000000E+00 0.  1.
         13    1    4    4    0    0  0.27479043035E+01 -0.52271390173E+00  0.26058513738E+02  0.26208424412E+02  0.10566000000E+00 0. -1.
        -13    1    4    4    0    0  0.11995028610E+02 -0.57842925070E+00  0.11562195841E+03  0.11624398360E+03  0.10566000000E+00 0.  1.
        -14    1    4    4    0    0  0.14353339880E+01  0.11282881349E+00  0.96641941347E+01  0.97708526891E+01  0.00000000000E+00 0.  1.
<mgrwt>
<rscale>  0 0.80157658E+02</rscale>
<asrwt>0</asrwt>
<pdfrwt beam="1">  1        2 0.24394047E-01 0.80157658E+02</pdfrwt>
<pdfrwt beam="2">  1       -1 0.15585455E-02 0.80157658E+02</pdfrwt>
<totfact> 0.20288243E+05</totfact>
</mgrwt>
</event>
<event>
 8    1  0.1520917E-017  0.7952423E+02  0.7818608E-02  0.1330407E+00
         -1   -1    0    0    0  501 -0.00000000000E+00  0.00000000000E+00  0.18757778449E+02  0.18757779126E+02  0.50400000000E-02 0.  1.
          2   -1    0    0  501    0  0.00000000000E+00 -0.00000000000E+00 -0.84286399644E+02  0.84286399683E+02  0.25500000000E-02 0. -1.
         24    2    1    2    0    0  0.00000000000E+00  0.00000000000E+00 -0.65528621195E+02  0.10304417881E+03  0.79524226438E+02 0.  0.
         66    2    3    3    0    0 -0.22622809695E+01  0.39598922441E+02 -0.35913132696E+02  0.53543866721E+02  0.19999974212E+01 0.  0.
        -13    1    3    3    0    0  0.22622809695E+01 -0.39598922441E+02 -0.29615488499E+02  0.49500312088E+02  0.10566000000E+00 0.  1.
         13    1    4    4    0    0 -0.88510116961E+00  0.15844736924E+02 -0.15174161244E+02  0.21956899275E+02  0.10566000000E+00 0. -1.
        -13    1    4    4    0    0  0.14879498015E+00  0.54385821775E+01 -0.44872998644E+01  0.70531794360E+01  0.10566000000E+00 0.  1.
         14    1    4    4    0    0 -0.15259747801E+01  0.18315603340E+02 -0.16251671588E+02  0.24533788010E+02  0.00000000000E+00 0. -1.
<mgrwt>
<rscale>  0 0.79524226E+02</rscale>
<asrwt>0</asrwt>
<pdfrwt beam="1">  1        2 0.12967138E-01 0.79524226E+02</pdfrwt>
<pdfrwt beam="2">  1       -1 0.28858122E-02 0.79524226E+02</pdfrwt>
<totfact> 0.17197094E+05</totfact>
</mgrwt>
</event>
<event>
 8    1  0.1520917E-017  0.7085154E+02  0.7818608E-02  0.1357221E+00
          2   -1    0    0  501    0  0.00000000000E+00  0.00000000000E+00  0.69470073840E+03  0.69470073840E+03  0.25500000000E-02 0. -1.
         -1   -1    0    0    0  501 -0.00000000000E+00 -0.00000000000E+00 -0.18065084290E+01  0.18065154595E+01  0.50400000000E-02 0.  1.
         24    2    1    2    0    0  0.00000000000E+00  0.00000000000E+00  0.69289422997E+03  0.69650725386E+03  0.70851540268E+02 0.  0.
         66    2    3    3    0    0  0.51033508053E+01 -0.24032526456E+02  0.59723164544E+03  0.59774011479E+03  0.19999998420E+01 0.  0.
        -13    1    3    3    0    0 -0.51033508053E+01  0.24032526456E+02  0.95662584531E+02  0.98767139072E+02  0.10566000000E+00 0.  1.
         13    1    4    4    0    0  0.12036307848E+01 -0.71889950360E+01  0.19188622587E+03  0.19202464743E+03  0.10566000000E+00 0. -1.
        -13    1    4    4    0    0  0.30888914265E+01 -0.14910260517E+02  0.35743194020E+03  0.35775614622E+03  0.10566000000E+00 0.  1.
        -14    1    4    4    0    0  0.81082859400E+00 -0.19332709028E+01  0.47913479363E+02  0.47959321138E+02  0.00000000000E+00 0.  1.
<mgrwt>
<rscale>  0 0.70851540E+02</rscale>
<asrwt>0</asrwt>
<pdfrwt beam="1">  1        2 0.10687708E+00 0.70851540E+02</pdfrwt>
<pdfrwt beam="2">  1       -1 0.27792479E-03 0.70851540E+02</pdfrwt>
<totfact> 0.45697800E+05</totfact>
</mgrwt>
</event>
<event>
 8    1  0.1520917E-017  0.7872911E+02  0.7818608E-02  0.1332697E+00
         -1   -1    0    0    0  501 -0.00000000000E+00  0.00000000000E+00  0.66716268945E+00  0.66718172622E+00  0.50400000000E-02 0.  1.
          2   -1    0    0  501    0  0.00000000000E+00 -0.00000000000E+00 -0.23225908228E+04  0.23225908228E+04  0.25500000000E-02 0. -1.
         24    2    1    2    0    0  0.17763568394E-14  0.00000000000E+00 -0.23219236601E+04  0.23232580045E+04  0.78729106564E+02 0.  0.
         66    2    3    3    0    0  0.11765018421E+02  0.80393652895E+01 -0.22437534422E+04  0.22437995803E+04  0.19999993443E+01 0.  0.
        -13    1    3    3    0    0 -0.11765018421E+02 -0.80393652895E+01 -0.78170217881E+02  0.79458424225E+02  0.10566000000E+00 0.  1.
         13    1    4    4    0    0  0.11271056924E+01  0.11175867244E+01 -0.25387289219E+03  0.25387787600E+03  0.10566000000E+00 0. -1.
        -13    1    4    4    0    0  0.21697792975E+01  0.18534740336E+01 -0.36388337397E+03  0.36389457859E+03  0.10566000000E+00 0.  1.
        -14    1    4    4    0    0  0.84681334306E+01  0.50683045315E+01 -0.16259971760E+04  0.16260271257E+04  0.00000000000E+00 0.  1.
<mgrwt>
<rscale>  0 0.78729107E+02</rscale>
<asrwt>0</asrwt>
<pdfrwt beam="1">  1        2 0.35731519E+00 0.78729107E+02</pdfrwt>
<pdfrwt beam="2">  1       -1 0.10264374E-03 0.78729107E+02</pdfrwt>
<totfact> 0.24431849E+05</totfact>
</mgrwt>
</event>
<event>
 8    1  0.1520917E-017  0.7750061E+02  0.7818608E-02  0.1336298E+00
         -1   -1    0    0    0  501 -0.00000000000E+00  0.00000000000E+00  0.61323777978E+02  0.61323778185E+02  0.50400000000E-02 0.  1.
          2   -1    0    0  501    0  0.00000000000E+00 -0.00000000000E+00 -0.24486197358E+02  0.24486197491E+02  0.25500000000E-02 0. -1.
         24    2    1    2    0    0  0.00000000000E+00  0.88817841970E-15  0.36837580620E+02  0.85809975676E+02  0.77500610188E+02 0.  0.
         66    2    3    3    0    0  0.30873649563E+02 -0.72712597016E+01 -0.61663353315E+01  0.32374019559E+02  0.19999990012E+01 0.  0.
        -13    1    3    3    0    0 -0.30873649563E+02  0.72712597016E+01  0.43003915951E+02  0.53435956117E+02  0.10566000000E+00 0.  1.
         13    1    4    4    0    0  0.11982365671E+01 -0.16816192903E+00 -0.48026322190E+00  0.13060880916E+01  0.10566000000E+00 0. -1.
        -13    1    4    4    0    0  0.64495578784E+01 -0.20661141428E+01 -0.14745898962E+01  0.69318975667E+01  0.10566000000E+00 0.  1.
        -14    1    4    4    0    0  0.23225855117E+02 -0.50369836298E+01 -0.42114822134E+01  0.24136033900E+02  0.00000000000E+00 0.  1.
<mgrwt>
<rscale>  0 0.77500610E+02</rscale>
<asrwt>0</asrwt>
<pdfrwt beam="1">  1        2 0.37671073E-02 0.77500610E+02</pdfrwt>
<pdfrwt beam="2">  1       -1 0.94344274E-02 0.77500610E+02</pdfrwt>
<totfact> 0.14140836E+05</totfact>
</mgrwt>
</event>
<event>
 8    1  0.1520917E-017  0.7256992E+02  0.7818608E-02  0.1351566E+00
         -1   -1    0    0    0  501 -0.00000000000E+00  0.00000000000E+00  0.12426443076E+02  0.12426444098E+02  0.50400000000E-02 0.  1.
          2   -1    0    0  501    0  0.00000000000E+00 -0.00000000000E+00 -0.10595135040E+03  0.10595135043E+03  0.25500000000E-02 0. -1.
         24    2    1    2    0    0 -0.44408920985E-15  0.00000000000E+00 -0.93524907323E+02  0.11837779453E+03  0.72569924539E+02 0.  0.
         66    2    3    3    0    0 -0.33780669027E+01  0.95878225787E+01 -0.10356952519E+03  0.10408642686E+03  0.20000073682E+01 0.  0.
        -13    1    3    3    0    0  0.33780669027E+01 -0.95878225787E+01  0.10044617868E+02  0.14291367672E+02  0.10566000000E+00 0.  1.
         13    1    4    4    0    0 -0.20025301648E+01  0.40632273657E+01 -0.47051072097E+02  0.47268747531E+02  0.10566000000E+00 0. -1.
        -13    1    4    4    0    0 -0.49052655996E-01  0.19336481143E+01 -0.15384602090E+02  0.15506080959E+02  0.10566000000E+00 0.  1.
        -14    1    4    4    0    0 -0.13264840819E+01  0.35909470987E+01 -0.41133851004E+02  0.41311598365E+02  0.00000000000E+00 0.  1.
<mgrwt>
<rscale>  0 0.72569925E+02</rscale>
<asrwt>0</asrwt>
<pdfrwt beam="1">  1        2 0.16300207E-01 0.72569925E+02</pdfrwt>
<pdfrwt beam="2">  1       -1 0.19117606E-02 0.72569925E+02</pdfrwt>
<totfact> 0.23346244E+05</totfact>
</mgrwt>
</event>
<event>
 8    1  0.1520917E-017  0.7812388E+02  0.7818608E-02  0.1334462E+00
         -1   -1    0    0    0  501 -0.00000000000E+00  0.00000000000E+00  0.17625821579E+02  0.17625822299E+02  0.50400000000E-02 0.  1.
          2   -1    0    0  501    0  0.00000000000E+00 -0.00000000000E+00 -0.86568158963E+02  0.86568159001E+02  0.25500000000E-02 0. -1.
         24    2    1    2    0    0  0.00000000000E+00 -0.17763568394E-14 -0.68942337384E+02  0.10419398130E+03  0.78123875064E+02 0.  0.
         66    2    3    3    0    0  0.35612897226E+02  0.15215839552E+02 -0.41031533053E+02  0.56456947620E+02  0.20000019412E+01 0.  0.
        -13    1    3    3    0    0 -0.35612897226E+02 -0.15215839552E+02 -0.27910804331E+02  0.47737033680E+02  0.10566000000E+00 0.  1.
         13    1    4    4    0    0  0.35339644813E+01  0.20129745721E+01 -0.46321820060E+01  0.61651638872E+01  0.10566000000E+00 0. -1.
        -13    1    4    4    0    0  0.13700828873E+02  0.53985196159E+01 -0.14832729058E+02  0.20901620540E+02  0.10566000000E+00 0.  1.
         14    1    4    4    0    0  0.18378103871E+02  0.78043453639E+01 -0.21566621990E+02  0.29390163193E+02  0.00000000000E+00 0. -1.
<mgrwt>
<rscale>  0 0.78123875E+02</rscale>
<asrwt>0</asrwt>
<pdfrwt beam="1">  1        2 0.13318178E-01 0.78123875E+02</pdfrwt>
<pdfrwt beam="2">  1       -1 0.27116650E-02 0.78123875E+02</pdfrwt>
<totfact> 0.18164352E+05</totfact>
</mgrwt>
</event>
<event>
 8    1  0.1520917E-017  0.7932437E+02  0.7818608E-02  0.1330980E+00
         -1   -1    0    0    0  501 -0.00000000000E+00  0.00000000000E+00  0.11500052624E+02  0.11500053729E+02  0.50400000000E-02 0.  1.
          2   -1    0    0  501    0  0.00000000000E+00 -0.00000000000E+00 -0.13678970433E+03  0.13678970435E+03  0.25500000000E-02 0. -1.
         24    2    1    2    0    0  0.00000000000E+00  0.17763568394E-14 -0.12528965171E+03  0.14828975808E+03  0.79324369065E+02 0.  0.
         66    2    3    3    0    0 -0.32813991681E+01  0.10238358207E+02 -0.13400423580E+03  0.13444971837E+03  0.19999994951E+01 0.  0.
        -13    1    3    3    0    0  0.32813991681E+01 -0.10238358207E+02  0.87145840945E+01  0.13840039713E+02  0.10566000000E+00 0.  1.
         13    1    4    4    0    0 -0.20856988438E+01  0.56184410091E+01 -0.65164231161E+02  0.65439324614E+02  0.10566000000E+00 0. -1.
        -13    1    4    4    0    0 -0.70412807313E+00  0.12924125198E+01 -0.19289796331E+02  0.19346150340E+02  0.10566000000E+00 0.  1.
        -14    1    4    4    0    0 -0.49157225119E+00  0.33275046784E+01 -0.49550208308E+02  0.49664243415E+02  0.00000000000E+00 0.  1.
<mgrwt>
<rscale>  0 0.79324369E+02</rscale>
<asrwt>0</asrwt>
<pdfrwt beam="1">  1        2 0.21044569E-01 0.79324369E+02</pdfrwt>
<pdfrwt beam="2">  1       -1 0.17692391E-02 0.79324369E+02</pdfrwt>
<totfact> 0.19895139E+05</totfact>
</mgrwt>
</event>
<event>
 8    1  0.1520917E-017  0.7999793E+02  0.7818608E-02  0.1329057E+00
         -1   -1    0    0    0  501 -0.00000000000E+00  0.00000000000E+00  0.15248659220E+02  0.15248660053E+02  0.50400000000E-02 0.  1.
          2   -1    0    0  501    0  0.00000000000E+00 -0.00000000000E+00 -0.10492181228E+03  0.10492181231E+03  0.25500000000E-02 0. -1.
         24    2    1    2    0    0  0.00000000000E+00  0.17763568394E-14 -0.89673153058E+02  0.12017047236E+03  0.79997925274E+02 0.  0.
         66    2    3    3    0    0  0.37350708783E+02  0.87424835496E+01 -0.27975590562E+02  0.47519891860E+02  0.19999974662E+01 0.  0.
        -13    1    3    3    0    0 -0.37350708783E+02 -0.87424835496E+01 -0.61697562496E+02  0.72650580502E+02  0.10566000000E+00 0.  1.
         13    1    4    4    0    0  0.19353463210E+02  0.54823270287E+01 -0.14322628349E+02  0.24693345151E+02  0.10566000000E+00 0.  1.
        -13    1    4    4    0    0  0.60022820292E+01  0.97771939654E+00 -0.46457267406E+01  0.76535786244E+01  0.10566000000E+00 0. -1.
        -14    1    4    4    0    0  0.11994963543E+02  0.22824371244E+01 -0.90072354725E+01  0.15172968084E+02  0.00000000000E+00 0.  1.
<mgrwt>
<rscale>  0 0.79997925E+02</rscale>
<asrwt>0</asrwt>
<pdfrwt beam="1">  1        2 0.16141817E-01 0.79997925E+02</pdfrwt>
<pdfrwt beam="2">  1       -1 0.23459477E-02 0.79997925E+02</pdfrwt>
<totfact> 0.17969255E+05</totfact>
</mgrwt>
</event>
<event>
 8    1  0.1520917E-017  0.7940107E+02  0.7818608E-02  0.1330760E+00
         -1   -1    0    0    0  501 -0.00000000000E+00  0.00000000000E+00  0.16734238030E+01  0.16734313927E+01  0.50400000000E-02 0.  1.
          2   -1    0    0  501    0  0.00000000000E+00 -0.00000000000E+00 -0.94185873570E+03  0.94185873570E+03  0.25500000000E-02 0. -1.
         24    2    1    2    0    0 -0.44408920985E-15  0.35527136788E-14 -0.94018531189E+03  0.94353216709E+03  0.79401068243E+02 0.  0.
         66    2    3    3    0    0 -0.34470991723E+01  0.26072489331E+02 -0.82339471407E+03  0.82381703815E+03  0.20000007401E+01 0.  0.
        -13    1    3    3    0    0  0.34470991723E+01 -0.26072489331E+02 -0.11679059783E+03  0.11971512894E+03  0.10566000000E+00 0.  1.
         13    1    4    4    0    0 -0.10149992994E+01  0.10090072338E+02 -0.28955172422E+03  0.28972927354E+03  0.10566000000E+00 0. -1.
        -13    1    4    4    0    0 -0.10443472809E+01  0.64981328367E+01 -0.21895637964E+03  0.21905529836E+03  0.10566000000E+00 0.  1.
         14    1    4    4    0    0 -0.13877525920E+01  0.94842841569E+01 -0.31488661020E+03  0.31503246624E+03  0.00000000000E+00 0. -1.
<mgrwt>
<rscale>  0 0.79401068E+02</rscale>
<asrwt>0</asrwt>
<pdfrwt beam="1">  1        2 0.14490092E+00 0.79401068E+02</pdfrwt>
<pdfrwt beam="2">  1       -1 0.25745115E-03 0.79401068E+02</pdfrwt>
<totfact> 0.35791130E+05</totfact>
</mgrwt>
</event>
<event>
 8    1  0.1735132E-017  0.8125806E+02  0.7818608E-02  0.1325519E+00
         -1   -1    0    0    0  501 -0.00000000000E+00  0.00000000000E+00  0.95631499928E+01  0.95631513209E+01  0.50400000000E-02 0.  1.
          2   -1    0    0  501    0  0.00000000000E+00 -0.00000000000E+00 -0.17261237090E+03  0.17261237092E+03  0.25500000000E-02 0. -1.
         24    2    1    2    0    0  0.00000000000E+00  0.00000000000E+00 -0.16304922091E+03  0.18217552224E+03  0.81258060922E+02 0.  0.
         66    2    3    3    0    0 -0.14738047412E+02  0.77786679589E+01 -0.16458599248E+03  0.16543961630E+03  0.20000004973E+01 0.  0.
        -13    1    3    3    0    0  0.14738047412E+02 -0.77786679589E+01  0.15367715787E+01  0.16735905940E+02  0.10566000000E+00 0.  1.
         13    1    4    4    0    0 -0.67077242827E+01  0.39614527635E+01 -0.72265039073E+02  0.72683792618E+02  0.10566000000E+00 0. -1.
        -13    1    4    4    0    0 -0.45836370329E+01  0.26458139930E+01 -0.50467967024E+02  0.50744821605E+02  0.10566000000E+00 0.  1.
        -14    1    4    4    0    0 -0.34466860961E+01  0.11714012024E+01 -0.41852986388E+02  0.42011002075E+02  0.00000000000E+00 0.  1.
<mgrwt>
<rscale>  0 0.81258061E+02</rscale>
<asrwt>0</asrwt>
<pdfrwt beam="1">  1        2 0.26555747E-01 0.81258061E+02</pdfrwt>
<pdfrwt beam="2">  1       -1 0.14712541E-02 0.81258061E+02</pdfrwt>
<totfact> 0.20126851E+05</totfact>
</mgrwt>
</event>
<event>
 8    1  0.1520917E-017  0.7909778E+02  0.7818608E-02  0.1331631E+00
          2   -1    0    0  501    0  0.00000000000E+00  0.00000000000E+00  0.70265767061E+03  0.70265767061E+03  0.25500000000E-02 0. -1.
         -1   -1    0    0    0  501 -0.00000000000E+00 -0.00000000000E+00 -0.22259953305E+01  0.22260010362E+01  0.50400000000E-02 0.  1.
         24    2    1    2    0    0  0.17763568394E-14  0.35527136788E-14  0.70043167528E+03  0.70488367165E+03  0.79097780153E+02 0.  0.
         66    2    3    3    0    0  0.11891403419E+02  0.27399245087E+02  0.58110635281E+03  0.58187689194E+03  0.19999998029E+01 0.  0.
        -13    1    3    3    0    0 -0.11891403419E+02 -0.27399245087E+02  0.11932532247E+03  0.12300677971E+03  0.10566000000E+00 0.  1.
         13    1    4    4    0    0  0.72849636295E+00  0.12734491685E+01  0.31761704955E+02  0.31795745712E+02  0.10566000000E+00 0. -1.
        -13    1    4    4    0    0  0.51579492771E+01  0.11649806579E+02  0.23146120959E+03  0.23181161563E+03  0.10566000000E+00 0.  1.
         14    1    4    4    0    0  0.60049577791E+01  0.14475989340E+02  0.31788343826E+03  0.31826953060E+03  0.00000000000E+00 0. -1.
<mgrwt>
<rscale>  0 0.79097780E+02</rscale>
<asrwt>0</asrwt>
<pdfrwt beam="1">  1        2 0.10810125E+00 0.79097780E+02</pdfrwt>
<pdfrwt beam="2">  1       -1 0.34246105E-03 0.79097780E+02</pdfrwt>
<totfact> 0.34481854E+05</totfact>
</mgrwt>
</event>
<event>
 8    1  0.1520917E-017  0.8098890E+02  0.7818608E-02  0.1326268E+00
         -1   -1    0    0    0  501 -0.00000000000E+00  0.00000000000E+00  0.18308098430E+03  0.18308098437E+03  0.50400000000E-02 0.  1.
          2   -1    0    0  501    0  0.00000000000E+00 -0.00000000000E+00 -0.89566948011E+01  0.89566951641E+01  0.25500000000E-02 0. -1.
         24    2    1    2    0    0  0.71054273576E-14  0.00000000000E+00  0.17412428950E+03  0.19203767953E+03  0.80988901505E+02 0.  0.
         66    2    3    3    0    0  0.20913102576E+02  0.34555982829E+02  0.93076925331E+02  0.10148294354E+03  0.19999978354E+01 0.  0.
        -13    1    3    3    0    0 -0.20913102576E+02 -0.34555982829E+02  0.81047364165E+02  0.90554735993E+02  0.10566000000E+00 0.  1.
         13    1    4    4    0    0  0.18571774520E+01  0.37223413122E+01  0.10070986788E+02  0.10896828523E+02  0.10566000000E+00 0.  1.
        -13    1    4    4    0    0  0.15862666803E+02  0.26030146195E+02  0.68558924657E+02  0.75030194076E+02  0.10566000000E+00 0. -1.
         14    1    4    4    0    0  0.31932583206E+01  0.48034953223E+01  0.14447013887E+02  0.15555920939E+02  0.00000000000E+00 0. -1.
<mgrwt>
<rscale>  0 0.80988902E+02</rscale>
<asrwt>0</asrwt>
<pdfrwt beam="1">  1        2 0.13779530E-02 0.80988902E+02</pdfrwt>
<pdfrwt beam="2">  1       -1 0.28166306E-01 0.80988902E+02</pdfrwt>
<totfact> 0.99086888E+04</totfact>
</mgrwt>
</event>
<event>
 8    1  0.1520917E-017  0.7932905E+02  0.7818608E-02  0.1330966E+00
          2   -1    0    0  501    0  0.00000000000E+00  0.00000000000E+00  0.27284807094E+02  0.27284807213E+02  0.25500000000E-02 0. -1.
         -1   -1    0    0    0  501 -0.00000000000E+00 -0.00000000000E+00 -0.57661192970E+02  0.57661193191E+02  0.50400000000E-02 0.  1.
         24    2    1    2    0    0  0.00000000000E+00  0.00000000000E+00 -0.30376385877E+02  0.84946000404E+02  0.79329049948E+02 0.  0.
         66    2    3    3    0    0  0.18387821826E+02  0.32103997665E+02  0.39671757280E-01  0.37051048858E+02  0.19999975006E+01 0.  0.
        -13    1    3    3    0    0 -0.18387821826E+02 -0.32103997665E+02 -0.30416057634E+02  0.47894951546E+02  0.10566000000E+00 0.  1.
         13    1    4    4    0    0  0.50603758287E+00  0.82368050199E+00 -0.97480808512E-01  0.97733829776E+00  0.10566000000E+00 0.  1.
        -13    1    4    4    0    0  0.42256293458E+01  0.69030678789E+01 -0.65386933993E+00  0.81207757424E+01  0.10566000000E+00 0.  1.
         14    1    4    4    0    0  0.13656154897E+02  0.24377249285E+02  0.79102190572E+00  0.27952934817E+02  0.00000000000E+00 0. -1.
<mgrwt>
<rscale>  0 0.79329050E+02</rscale>
<asrwt>0</asrwt>
<pdfrwt beam="1">  1        2 0.41976627E-02 0.79329050E+02</pdfrwt>
<pdfrwt beam="2">  1       -1 0.88709528E-02 0.79329050E+02</pdfrwt>
<totfact> 0.13522970E+05</totfact>
</mgrwt>
</event>
<event>
 8    1  0.1520917E-017  0.7943465E+02  0.7818608E-02  0.1330664E+00
         -1   -1    0    0    0  501 -0.00000000000E+00  0.00000000000E+00  0.41237762355E+02  0.41237762663E+02  0.50400000000E-02 0.  1.
          2   -1    0    0  501    0  0.00000000000E+00 -0.00000000000E+00 -0.38252942093E+02  0.38252942178E+02  0.25500000000E-02 0. -1.
         24    2    1    2    0    0  0.00000000000E+00  0.35527136788E-14  0.29848202622E+01  0.79490704841E+02  0.79434646120E+02 0.  0.
         66    2    3    3    0    0  0.23981065753E+01  0.19909565129E+02 -0.32784565758E+02  0.38483365998E+02  0.20000019489E+01 0.  0.
        -13    1    3    3    0    0 -0.23981065753E+01 -0.19909565129E+02  0.35769386020E+02  0.41007338844E+02  0.10566000000E+00 0.  1.
         13    1    4    4    0    0  0.87119825673E+00  0.52475891046E+01 -0.73143837642E+01  0.90447527163E+01  0.10566000000E+00 0. -1.
        -13    1    4    4    0    0  0.20665223939E+00  0.32033956714E+01 -0.61160515150E+01  0.69080893990E+01  0.10566000000E+00 0.  1.
         14    1    4    4    0    0  0.13202560792E+01  0.11458580353E+02 -0.19354130478E+02  0.22530523882E+02  0.00000000000E+00 0. -1.
<mgrwt>
<rscale>  0 0.79434646E+02</rscale>
<asrwt>0</asrwt>
<pdfrwt beam="1">  1        2 0.58850680E-02 0.79434646E+02</pdfrwt>
<pdfrwt beam="2">  1       -1 0.63442712E-02 0.79434646E+02</pdfrwt>
<totfact> 0.14405637E+05</totfact>
</mgrwt>
</event>
<event>
 8    1  0.1520917E-017  0.7888091E+02  0.7818608E-02  0.1332258E+00
         -1   -1    0    0    0  501 -0.00000000000E+00  0.00000000000E+00  0.34714644402E+03  0.34714644405E+03  0.50400000000E-02 0.  1.
          2   -1    0    0  501    0  0.00000000000E+00 -0.00000000000E+00 -0.44809604697E+01  0.44809611953E+01  0.25500000000E-02 0. -1.
         24    2    1    2    0    0  0.00000000000E+00  0.35527136788E-14  0.34266548355E+03  0.35162740525E+03  0.78880913454E+02 0.  0.
         66    2    3    3    0    0  0.35710616587E+02 -0.16450043739E+02  0.18380625294E+03  0.18797497358E+03  0.19999996900E+01 0.  0.
        -13    1    3    3    0    0 -0.35710616587E+02  0.16450043739E+02  0.15885923061E+03  0.16365243167E+03  0.10566000000E+00 0.  1.
         13    1    4    4    0    0  0.69198823729E+01 -0.37094500838E+01  0.37595525173E+02  0.38406763324E+02  0.10566000000E+00 0. -1.
        -13    1    4    4    0    0  0.54611401537E+01 -0.18917813293E+01  0.27739458681E+02  0.28335342248E+02  0.10566000000E+00 0.  1.
         14    1    4    4    0    0  0.23329594060E+02 -0.10848812326E+02  0.11847126908E+03  0.12123286801E+03  0.00000000000E+00 0. -1.
<mgrwt>
<rscale>  0 0.78880913E+02</rscale>
<asrwt>0</asrwt>
<pdfrwt beam="1">  1        2 0.68937814E-03 0.78880913E+02</pdfrwt>
<pdfrwt beam="2">  1       -1 0.53407180E-01 0.78880913E+02</pdfrwt>
<totfact> 0.84169371E+04</totfact>
</mgrwt>
</event>
<event>
 8    1  0.1520917E-017  0.7716719E+02  0.7818608E-02  0.1337288E+00
          2   -1    0    0  501    0  0.00000000000E+00  0.00000000000E+00  0.19165035756E+03  0.19165035758E+03  0.25500000000E-02 0. -1.
         -1   -1    0    0    0  501 -0.00000000000E+00 -0.00000000000E+00 -0.77677581659E+01  0.77677598009E+01  0.50400000000E-02 0.  1.
         24    2    1    2    0    0  0.00000000000E+00  0.00000000000E+00  0.18388259939E+03  0.19941811738E+03  0.77167189780E+02 0.  0.
         66    2    3    3    0    0 -0.71113677237E+01  0.11056869643E+02  0.18567427653E+03  0.18614983986E+03  0.19999999288E+01 0.  0.
        -13    1    3    3    0    0  0.71113677237E+01 -0.11056869643E+02 -0.17916771346E+01  0.13268277514E+02  0.10566000000E+00 0.  1.
         13    1    4    4    0    0 -0.36652269545E+01  0.55516889037E+01  0.95924984082E+02  0.96155441206E+02  0.10566000000E+00 0. -1.
        -13    1    4    4    0    0 -0.17707261954E+00  0.11812470572E+01  0.18948230200E+02  0.18986134179E+02  0.10566000000E+00 0.  1.
         14    1    4    4    0    0 -0.32690681496E+01  0.43239336818E+01  0.70801062245E+02  0.71008264478E+02  0.00000000000E+00 0. -1.
<mgrwt>
<rscale>  0 0.77167190E+02</rscale>
<asrwt>0</asrwt>
<pdfrwt beam="1">  1        2 0.29484665E-01 0.77167190E+02</pdfrwt>
<pdfrwt beam="2">  1       -1 0.11950401E-02 0.77167190E+02</pdfrwt>
<totfact> 0.23902346E+05</totfact>
</mgrwt>
</event>
<event>
 8    1  0.1520917E-017  0.8047520E+02  0.7818608E-02  0.1327708E+00
          2   -1    0    0  501    0  0.00000000000E+00  0.00000000000E+00  0.15352447376E+04  0.15352447376E+04  0.25500000000E-02 0. -1.
         -1   -1    0    0    0  501 -0.00000000000E+00 -0.00000000000E+00 -0.10545909057E+01  0.10546029490E+01  0.50400000000E-02 0.  1.
         24    2    1    2    0    0  0.00000000000E+00  0.17763568394E-14  0.15341901466E+04  0.15362993405E+04  0.80475198438E+02 0.  0.
         66    2    3    3    0    0 -0.58975310125E+01  0.12041574358E+02  0.14913104691E+04  0.14913720849E+04  0.20000014474E+01 0.  0.
        -13    1    3    3    0    0  0.58975310125E+01 -0.12041574358E+02  0.42879677576E+02  0.44927255626E+02  0.10566000000E+00 0.  1.
         13    1    4    4    0    0 -0.14467302093E+01  0.30861655313E+01  0.33010958890E+03  0.33012720169E+03  0.10566000000E+00 0.  1.
        -13    1    4    4    0    0 -0.28279181479E+01  0.59305924718E+01  0.67952305849E+03  0.67955483019E+03  0.10566000000E+00 0. -1.
         14    1    4    4    0    0 -0.16228826553E+01  0.30248163548E+01  0.48167782168E+03  0.48169005300E+03  0.00000000000E+00 0. -1.
<mgrwt>
<rscale>  0 0.80475198E+02</rscale>
<asrwt>0</asrwt>
<pdfrwt beam="1">  1        2 0.23618947E+00 0.80475198E+02</pdfrwt>
<pdfrwt beam="2">  1       -1 0.16224708E-03 0.80475198E+02</pdfrwt>
<totfact> 0.32445696E+05</totfact>
</mgrwt>
</event>
<event>
 8    1  0.1520917E-017  0.7874226E+02  0.7818608E-02  0.1332659E+00
         -1   -1    0    0    0  501 -0.00000000000E+00  0.00000000000E+00  0.79217450906E+01  0.79217466939E+01  0.50400000000E-02 0.  1.
          2   -1    0    0  501    0  0.00000000000E+00 -0.00000000000E+00 -0.19567476431E+03  0.19567476433E+03  0.25500000000E-02 0. -1.
         24    2    1    2    0    0  0.00000000000E+00 -0.17763568394E-14 -0.18775301922E+03  0.20359651102E+03  0.78742257231E+02 0.  0.
         66    2    3    3    0    0 -0.30132351803E+02 -0.10446841402E+02 -0.15351736752E+03  0.15680777165E+03  0.19999998901E+01 0.  0.
        -13    1    3    3    0    0  0.30132351803E+02  0.10446841402E+02 -0.34235651701E+02  0.46788739371E+02  0.10566000000E+00 0.  1.
         13    1    4    4    0    0 -0.47626649445E+01 -0.11817736522E+01 -0.21368950073E+02  0.21925390706E+02  0.10566000000E+00 0.  1.
        -13    1    4    4    0    0 -0.16832446426E+02 -0.58332051551E+01 -0.88154668454E+02  0.89936723697E+02  0.10566000000E+00 0. -1.
        -14    1    4    4    0    0 -0.85372404330E+01 -0.34318625947E+01 -0.43993748992E+02  0.44945657248E+02  0.00000000000E+00 0.  1.
<mgrwt>
<rscale>  0 0.78742257E+02</rscale>
<asrwt>0</asrwt>
<pdfrwt beam="1">  1        2 0.30103806E-01 0.78742257E+02</pdfrwt>
<pdfrwt beam="2">  1       -1 0.12187303E-02 0.78742257E+02</pdfrwt>
<totfact> 0.22826452E+05</totfact>
</mgrwt>
</event>
<event>
 8    1  0.1520917E-017  0.8129049E+02  0.7818608E-02  0.1325429E+00
         -1   -1    0    0    0  501 -0.00000000000E+00  0.00000000000E+00  0.25753536184E+01  0.25753585501E+01  0.50400000000E-02 0.  1.
          2   -1    0    0  501    0  0.00000000000E+00 -0.00000000000E+00 -0.64147862242E+03  0.64147862242E+03  0.25500000000E-02 0. -1.
         24    2    1    2    0    0 -0.71054273576E-14 -0.88817841970E-15 -0.63890326880E+03  0.64405398097E+03  0.81290488525E+02 0.  0.
         66    2    3    3    0    0 -0.38014670669E+02 -0.54393265893E+01 -0.42455279019E+03  0.42629071432E+03  0.19999991291E+01 0.  0.
        -13    1    3    3    0    0  0.38014670669E+02  0.54393265893E+01 -0.21435047861E+03  0.21776326665E+03  0.10566000000E+00 0.  1.
         13    1    4    4    0    0 -0.10482508596E+02 -0.19513569537E+01 -0.11644122201E+03  0.11692844020E+03  0.10566000000E+00 0. -1.
        -13    1    4    4    0    0 -0.86689393503E+01 -0.71960765992E+00 -0.10275594791E+03  0.10312353921E+03  0.10566000000E+00 0.  1.
        -14    1    4    4    0    0 -0.18863222722E+02 -0.27683619757E+01 -0.20535562027E+03  0.20623873490E+03  0.00000000000E+00 0.  1.
<mgrwt>
<rscale>  0 0.81290489E+02</rscale>
<asrwt>0</asrwt>
<pdfrwt beam="1">  1        2 0.98688892E-01 0.81290489E+02</pdfrwt>
<pdfrwt beam="2">  1       -1 0.39620914E-03 0.81290489E+02</pdfrwt>
<totfact> 0.31410310E+05</totfact>
</mgrwt>
</event>
<event>
 8    1  0.1520917E-017  0.7802128E+02  0.7818608E-02  0.1334762E+00
          2   -1    0    0  501    0  0.00000000000E+00  0.00000000000E+00  0.32378320598E+02  0.32378320698E+02  0.25500000000E-02 0. -1.
         -1   -1    0    0    0  501 -0.00000000000E+00 -0.00000000000E+00 -0.47001510587E+02  0.47001510857E+02  0.50400000000E-02 0.  1.
         24    2    1    2    0    0  0.00000000000E+00  0.00000000000E+00 -0.14623189989E+02  0.79379831555E+02  0.78021278971E+02 0.  0.
         66    2    3    3    0    0  0.22121898752E+02 -0.24817771647E+02  0.13398016055E+02  0.35899958670E+02  0.20000010874E+01 0.  0.
        -13    1    3    3    0    0 -0.22121898752E+02  0.24817771647E+02 -0.28021206044E+02  0.43479872885E+02  0.10566000000E+00 0.  1.
         13    1    4    4    0    0  0.66671133354E+01 -0.70031504713E+01  0.38522539921E+01  0.10408916447E+02  0.10566000000E+00 0. -1.
        -13    1    4    4    0    0  0.44359916555E+01 -0.61579774231E+01  0.28027843709E+01  0.80910736109E+01  0.10566000000E+00 0.  1.
        -14    1    4    4    0    0  0.11018793761E+02 -0.11656643753E+02  0.67429776917E+01  0.17399968612E+02  0.00000000000E+00 0.  1.
<mgrwt>
<rscale>  0 0.78021279E+02</rscale>
<asrwt>0</asrwt>
<pdfrwt beam="1">  1        2 0.49812801E-02 0.78021279E+02</pdfrwt>
<pdfrwt beam="2">  1       -1 0.72310017E-02 0.78021279E+02</pdfrwt>
<totfact> 0.14647275E+05</totfact>
</mgrwt>
</event>
<event>
 8    1  0.1520917E-017  0.7858664E+02  0.7818608E-02  0.1333111E+00
         -1   -1    0    0    0  501 -0.00000000000E+00  0.00000000000E+00  0.14898381533E+01  0.14898466782E+01  0.50400000000E-02 0.  1.
          2   -1    0    0  501    0  0.00000000000E+00 -0.00000000000E+00 -0.10363276712E+04  0.10363276712E+04  0.25500000000E-02 0. -1.
         24    2    1    2    0    0 -0.17763568394E-14  0.00000000000E+00 -0.10348378330E+04  0.10378175178E+04  0.78586638282E+02 0.  0.
         66    2    3    3    0    0  0.11676067049E+02 -0.18414753827E+02 -0.94903186310E+03  0.94928442043E+03  0.20000015688E+01 0.  0.
        -13    1    3    3    0    0 -0.11676067049E+02  0.18414753827E+02 -0.85805969908E+02  0.88533097405E+02  0.10566000000E+00 0.  1.
         13    1    4    4    0    0  0.55123430166E+01 -0.87614690808E+01 -0.47031652232E+03  0.47043043226E+03  0.10566000000E+00 0. -1.
        -13    1    4    4    0    0  0.30903172815E+01 -0.52566076726E+01 -0.23031176602E+03  0.23039249709E+03  0.10566000000E+00 0.  1.
        -14    1    4    4    0    0  0.30734067510E+01 -0.43966770737E+01 -0.24840357476E+03  0.24846149109E+03  0.00000000000E+00 0.  1.
<mgrwt>
<rscale>  0 0.78586638E+02</rscale>
<asrwt>0</asrwt>
<pdfrwt beam="1">  1        2 0.15943445E+00 0.78586638E+02</pdfrwt>
<pdfrwt beam="2">  1       -1 0.22920735E-03 0.78586638E+02</pdfrwt>
<totfact> 0.36936461E+05</totfact>
</mgrwt>
</event>
<event>
 8    1  0.1520917E-017  0.7875767E+02  0.7818608E-02  0.1332614E+00
          2   -1    0    0  501    0  0.00000000000E+00  0.00000000000E+00  0.71911991787E+02  0.71911991833E+02  0.25500000000E-02 0. -1.
         -1   -1    0    0    0  501 -0.00000000000E+00 -0.00000000000E+00 -0.21563756829E+02  0.21563757418E+02  0.50400000000E-02 0.  1.
         24    2    1    2    0    0  0.00000000000E+00 -0.88817841970E-15  0.50348234958E+02  0.93475749251E+02  0.78757672227E+02 0.  0.
         66    2    3    3    0    0  0.11096427459E+02 -0.73487839008E+01  0.69145712309E+02  0.70443344992E+02  0.19999989439E+01 0.  0.
        -13    1    3    3    0    0 -0.11096427459E+02  0.73487839008E+01 -0.18797477350E+02  0.23032404259E+02  0.10566000000E+00 0.  1.
         13    1    4    4    0    0  0.42073107270E+01 -0.24467611262E+01  0.25763195005E+02  0.26219105333E+02  0.10566000000E+00 0. -1.
        -13    1    4    4    0    0  0.35929174344E+01 -0.34437496980E+01  0.25899638638E+02  0.26373678418E+02  0.10566000000E+00 0.  1.
        -14    1    4    4    0    0  0.32961992977E+01 -0.14582730765E+01  0.17482878665E+02  0.17850561240E+02  0.00000000000E+00 0.  1.
<mgrwt>
<rscale>  0 0.78757672E+02</rscale>
<asrwt>0</asrwt>
<pdfrwt beam="1">  1        2 0.11063383E-01 0.78757672E+02</pdfrwt>
<pdfrwt beam="2">  1       -1 0.33175011E-02 0.78757672E+02</pdfrwt>
<totfact> 0.16955711E+05</totfact>
</mgrwt>
</event>
<event>
 8    1  0.1520917E-017  0.7991829E+02  0.7818608E-02  0.1329283E+00
         -1   -1    0    0    0  501 -0.00000000000E+00  0.00000000000E+00  0.48265112340E+01  0.48265138655E+01  0.50400000000E-02 0.  1.
          2   -1    0    0  501    0  0.00000000000E+00 -0.00000000000E+00 -0.33082543534E+03  0.33082543535E+03  0.25500000000E-02 0. -1.
         24    2    1    2    0    0 -0.35527136788E-14 -0.35527136788E-14 -0.32599892411E+03  0.33565194922E+03  0.79918286355E+02 0.  0.
         66    2    3    3    0    0 -0.18183518418E+02 -0.24592805893E+02 -0.27094092478E+03  0.27266908728E+03  0.19999985115E+01 0.  0.
        -13    1    3    3    0    0  0.18183518418E+02  0.24592805893E+02 -0.55057999332E+02  0.62982861940E+02  0.10566000000E+00 0.  1.
         13    1    4    4    0    0 -0.16748763437E+02 -0.22867042531E+02 -0.24784211544E+03  0.24945770796E+03  0.10566000000E+00 0. -1.
        -13    1    4    4    0    0 -0.68518242592E+00 -0.10460203241E+01 -0.14152003837E+02  0.14207533569E+02  0.10566000000E+00 0.  1.
        -14    1    4    4    0    0 -0.74957255551E+00 -0.67974303796E+00 -0.89468055018E+01  0.90038457506E+01  0.00000000000E+00 0.  1.
<mgrwt>
<rscale>  0 0.79918286E+02</rscale>
<asrwt>0</asrwt>
<pdfrwt beam="1">  1        2 0.50896203E-01 0.79918286E+02</pdfrwt>
<pdfrwt beam="2">  1       -1 0.74254065E-03 0.79918286E+02</pdfrwt>
<totfact> 0.26481603E+05</totfact>
</mgrwt>
</event>
<event>
 8    1  0.1520917E-017  0.8125532E+02  0.7818608E-02  0.1325526E+00
          2   -1    0    0  501    0  0.00000000000E+00  0.00000000000E+00  0.85751924357E+01  0.85751928148E+01  0.25500000000E-02 0. -1.
         -1   -1    0    0    0  501 -0.00000000000E+00 -0.00000000000E+00 -0.19248626828E+03  0.19248626834E+03  0.50400000000E-02 0.  1.
         24    2    1    2    0    0  0.00000000000E+00 -0.35527136788E-14 -0.18391107584E+03  0.20106146116E+03  0.81255321954E+02 0.  0.
         66    2    3    3    0    0 -0.27706160422E+02 -0.22551018580E+02 -0.44258744125E+02  0.56912355430E+02  0.20000011817E+01 0.  0.
        -13    1    3    3    0    0  0.27706160422E+02  0.22551018580E+02 -0.13965233172E+03  0.14414910573E+03  0.10566000000E+00 0.  1.
         13    1    4    4    0    0 -0.12801214928E+02 -0.10075671332E+02 -0.21348297271E+02  0.26854258820E+02  0.10566000000E+00 0. -1.
        -13    1    4    4    0    0 -0.11175392716E+02 -0.92150822419E+01 -0.17638239495E+02  0.22823798974E+02  0.10566000000E+00 0.  1.
        -14    1    4    4    0    0 -0.37295527782E+01 -0.32602650066E+01 -0.52722073600E+01  0.72342976359E+01  0.00000000000E+00 0.  1.
<mgrwt>
<rscale>  0 0.81255322E+02</rscale>
<asrwt>0</asrwt>
<pdfrwt beam="1">  1        2 0.13192605E-02 0.81255322E+02</pdfrwt>
<pdfrwt beam="2">  1       -1 0.29613269E-01 0.81255322E+02</pdfrwt>
<totfact> 0.96838023E+04</totfact>
</mgrwt>
</event>
<event>
 8    1  0.1520917E-017  0.7949159E+02  0.7818608E-02  0.1330500E+00
          2   -1    0    0  501    0  0.00000000000E+00  0.00000000000E+00  0.57927728310E+03  0.57927728310E+03  0.25500000000E-02 0. -1.
         -1   -1    0    0    0  501 -0.00000000000E+00 -0.00000000000E+00 -0.27270653768E+01  0.27270700341E+01  0.50400000000E-02 0.  1.
         24    2    1    2    0    0  0.00000000000E+00  0.00000000000E+00  0.57655021772E+03  0.58200435314E+03  0.79491594001E+02 0.  0.
         66    2    3    3    0    0  0.11309646991E+02  0.93618774362E+01  0.55867912618E+03  0.55887558445E+03  0.19999997760E+01 0.  0.
        -13    1    3    3    0    0 -0.11309646991E+02 -0.93618774362E+01  0.17871091542E+02  0.23128768690E+02  0.10566000000E+00 0.  1.
         13    1    4    4    0    0  0.27922256602E+01  0.28025371096E+01  0.15672171044E+03  0.15677166971E+03  0.10566000000E+00 0. -1.
        -13    1    4    4    0    0  0.21723341911E+00  0.36020402175E-01  0.47910305641E+01  0.47972518935E+01  0.10566000000E+00 0. -1.
         14    1    4    4    0    0  0.83001879114E+01  0.65233199244E+01  0.39716638518E+03  0.39730666284E+03  0.00000000000E+00 0. -1.
<mgrwt>
<rscale>  0 0.79491594E+02</rscale>
<asrwt>0</asrwt>
<pdfrwt beam="1">  1        2 0.89119635E-01 0.79491594E+02</pdfrwt>
<pdfrwt beam="2">  1       -1 0.41954863E-03 0.79491594E+02</pdfrwt>
<totfact> 0.32377816E+05</totfact>
</mgrwt>
</event>
<event>
 8    1  0.1520917E-017  0.7645272E+02  0.7818608E-02  0.1339431E+00
         -1   -1    0    0    0  501 -0.00000000000E+00  0.00000000000E+00  0.17780334867E+01  0.17780406298E+01  0.50400000000E-02 0.  1.
          2   -1    0    0  501    0  0.00000000000E+00 -0.00000000000E+00 -0.82183585538E+03  0.82183585539E+03  0.25500000000E-02 0. -1.
         24    2    1    2    0    0  0.00000000000E+00  0.00000000000E+00 -0.82005782190E+03  0.82361389602E+03  0.76452720413E+02 0.  0.
         66    2    3    3    0    0  0.27085056998E+02  0.53202620776E+01 -0.69479042032E+03  0.69534137923E+03  0.19999999146E+01 0.  0.
        -13    1    3    3    0    0 -0.27085056998E+02 -0.53202620776E+01 -0.12526740158E+03  0.12827251679E+03  0.10566000000E+00 0.  1.
         13    1    4    4    0    0  0.49142987317E+01  0.14341457348E+01 -0.12386440569E+03  0.12397019507E+03  0.10566000000E+00 0. -1.
        -13    1    4    4    0    0  0.16087696844E+02  0.31556545989E+01 -0.42815473004E+03  0.42846850079E+03  0.10566000000E+00 0. -1.
        -14    1    4    4    0    0  0.60830614223E+01  0.73046174393E+00 -0.14277128459E+03  0.14290268337E+03  0.00000000000E+00 0.  1.
<mgrwt>
<rscale>  0 0.76452720E+02</rscale>
<asrwt>0</asrwt>
<pdfrwt beam="1">  1        2 0.12643598E+00 0.76452720E+02</pdfrwt>
<pdfrwt beam="2">  1       -1 0.27354482E-03 0.76452720E+02</pdfrwt>
<totfact> 0.38824645E+05</totfact>
</mgrwt>
</event>
<event>
 8    1  0.1520917E-017  0.8155010E+02  0.7818608E-02  0.1324709E+00
         -1   -1    0    0    0  501 -0.00000000000E+00  0.00000000000E+00  0.39649938071E+02  0.39649938391E+02  0.50400000000E-02 0.  1.
          2   -1    0    0  501    0  0.00000000000E+00 -0.00000000000E+00 -0.41932083513E+02  0.41932083591E+02  0.25500000000E-02 0. -1.
         24    2    1    2    0    0  0.35527136788E-14 -0.88817841970E-15 -0.22821454425E+01  0.81582021982E+02  0.81550095787E+02 0.  0.
         66    2    3    3    0    0  0.25285445240E+02 -0.39933482998E+01 -0.32860619953E+02  0.41702768741E+02  0.20000013338E+01 0.  0.
        -13    1    3    3    0    0 -0.25285445240E+02  0.39933482998E+01  0.30578474511E+02  0.39879253241E+02  0.10566000000E+00 0.  1.
         13    1    4    4    0    0  0.11247784536E+02 -0.13251121721E+01 -0.14581520867E+02  0.18463490841E+02  0.10566000000E+00 0. -1.
        -13    1    4    4    0    0  0.68002653835E+01 -0.17841822788E+01 -0.97016170431E+01  0.11981629813E+02  0.10566000000E+00 0.  1.
         14    1    4    4    0    0  0.72373953208E+01 -0.88405384884E+00 -0.85774820436E+01  0.11257648087E+02  0.00000000000E+00 0. -1.
<mgrwt>
<rscale>  0 0.81550096E+02</rscale>
<asrwt>0</asrwt>
<pdfrwt beam="1">  1        2 0.64510898E-02 0.81550096E+02</pdfrwt>
<pdfrwt beam="2">  1       -1 0.60999905E-02 0.81550096E+02</pdfrwt>
<totfact> 0.13651479E+05</totfact>
</mgrwt>
</event>
<event>
 8    1  0.1520917E-017  0.8526667E+02  0.7818608E-02  0.1314737E+00
         -1   -1    0    0    0  501 -0.00000000000E+00  0.00000000000E+00  0.32808049624E+01  0.32808088336E+01  0.50400000000E-02 0.  1.
          2   -1    0    0  501    0  0.00000000000E+00 -0.00000000000E+00 -0.55401046387E+03  0.55401046388E+03  0.25500000000E-02 0. -1.
         24    2    1    2    0    0  0.00000000000E+00  0.88817841970E-15 -0.55072965891E+03  0.55729127271E+03  0.85266672491E+02 0.  0.
         66    2    3    3    0    0 -0.41786718298E+02  0.54742592590E+01 -0.31659263792E+03  0.31939160247E+03  0.20000001721E+01 0.  0.
        -13    1    3    3    0    0  0.41786718298E+02 -0.54742592590E+01 -0.23413702099E+03  0.23789967025E+03  0.10566000000E+00 0.  1.
         13    1    4    4    0    0 -0.15395332313E+02  0.25369791101E+01 -0.11566651957E+03  0.11671421265E+03  0.10566000000E+00 0. -1.
        -13    1    4    4    0    0 -0.84480080662E+00  0.23892667750E-01 -0.80659429732E+01  0.81107866045E+01  0.10566000000E+00 0.  1.
        -14    1    4    4    0    0 -0.25546585178E+02  0.29133874812E+01 -0.19286017538E+03  0.19456660322E+03  0.00000000000E+00 0.  1.
<mgrwt>
<rscale>  0 0.85266672E+02</rscale>
<asrwt>0</asrwt>
<pdfrwt beam="1">  1        2 0.85232305E-01 0.85266672E+02</pdfrwt>
<pdfrwt beam="2">  1       -1 0.50473996E-03 0.85266672E+02</pdfrwt>
<totfact> 0.26609632E+05</totfact>
</mgrwt>
</event>
<event>
 8    1  0.1520917E-017  0.8136890E+02  0.7818608E-02  0.1325211E+00
          2   -1    0    0  501    0  0.00000000000E+00  0.00000000000E+00  0.43028455707E+02  0.43028455782E+02  0.25500000000E-02 0. -1.
         -1   -1    0    0    0  501 -0.00000000000E+00 -0.00000000000E+00 -0.38468138412E+02  0.38468138742E+02  0.50400000000E-02 0.  1.
         24    2    1    2    0    0  0.00000000000E+00  0.00000000000E+00  0.45603172950E+01  0.81496594524E+02  0.81368903306E+02 0.  0.
         66    2    3    3    0    0 -0.41433220344E+01  0.15685713268E+02  0.39622889931E+02  0.42862362526E+02  0.19999991538E+01 0.  0.
        -13    1    3    3    0    0  0.41433220344E+01 -0.15685713268E+02 -0.35062572636E+02  0.38634231998E+02  0.10566000000E+00 0.  1.
         13    1    4    4    0    0 -0.22971169273E+01  0.56916007610E+01  0.14002800276E+02  0.15289232976E+02  0.10566000000E+00 0. -1.
        -13    1    4    4    0    0 -0.30258509237E+00  0.35103801010E+01  0.91632324432E+01  0.98178571509E+01  0.10566000000E+00 0.  1.
         14    1    4    4    0    0 -0.15436200147E+01  0.64837324062E+01  0.16456857211E+02  0.17755272398E+02  0.00000000000E+00 0. -1.
<mgrwt>
<rscale>  0 0.81368903E+02</rscale>
<asrwt>0</asrwt>
<pdfrwt beam="1">  1        2 0.66197624E-02 0.81368903E+02</pdfrwt>
<pdfrwt beam="2">  1       -1 0.59181752E-02 0.81368903E+02</pdfrwt>
<totfact> 0.13810475E+05</totfact>
</mgrwt>
</event>
<event>
 8    1  0.1520917E-017  0.7881601E+02  0.7818608E-02  0.1332445E+00
         -1   -1    0    0    0  501 -0.00000000000E+00  0.00000000000E+00  0.35571072660E+01  0.35571108366E+01  0.50400000000E-02 0.  1.
          2   -1    0    0  501    0  0.00000000000E+00 -0.00000000000E+00 -0.43658788795E+03  0.43658788795E+03  0.25500000000E-02 0. -1.
         24    2    1    2    0    0  0.17763568394E-14  0.00000000000E+00 -0.43303078068E+03  0.44014499879E+03  0.78816006900E+02 0.  0.
         66    2    3    3    0    0 -0.14372252701E+02 -0.28811732125E+02 -0.34330088817E+03  0.34481324999E+03  0.19999983331E+01 0.  0.
        -13    1    3    3    0    0  0.14372252701E+02  0.28811732125E+02 -0.89729892513E+02  0.95331748804E+02  0.10566000000E+00 0.  1.
         13    1    4    4    0    0 -0.78734154753E+01 -0.15724138246E+02 -0.19341231582E+03  0.19421012916E+03  0.10566000000E+00 0. -1.
        -13    1    4    4    0    0 -0.22955999846E+00 -0.97141210507E+00 -0.91279626695E+01  0.91829845803E+01  0.10566000000E+00 0.  1.
         14    1    4    4    0    0 -0.62692772270E+01 -0.12116181775E+02 -0.14076060968E+03  0.14142013624E+03  0.00000000000E+00 0. -1.
<mgrwt>
<rscale>  0 0.78816007E+02</rscale>
<asrwt>0</asrwt>
<pdfrwt beam="1">  1        2 0.67167325E-01 0.78816007E+02</pdfrwt>
<pdfrwt beam="2">  1       -1 0.54724789E-03 0.78816007E+02</pdfrwt>
<totfact> 0.30273996E+05</totfact>
</mgrwt>
</event>
<event>
 8    1  0.1520917E-017  0.8462489E+02  0.7818608E-02  0.1316416E+00
          2   -1    0    0  501    0  0.00000000000E+00  0.00000000000E+00  0.43542494058E+03  0.43542494059E+03  0.25500000000E-02 0. -1.
         -1   -1    0    0    0  501 -0.00000000000E+00 -0.00000000000E+00 -0.41117128946E+01  0.41117159835E+01  0.50400000000E-02 0.  1.
         24    2    1    2    0    0 -0.17763568394E-14 -0.71054273576E-14  0.43131322769E+03  0.43953665658E+03  0.84624890507E+02 0.  0.
         66    2    3    3    0    0 -0.94972635568E+01  0.39425008060E+02  0.27806261191E+03  0.28101129054E+03  0.19999983421E+01 0.  0.
        -13    1    3    3    0    0  0.94972635568E+01 -0.39425008060E+02  0.15325061578E+03  0.15852536604E+03  0.10566000000E+00 0.  1.
         13    1    4    4    0    0 -0.69471060818E+01  0.25574963869E+02  0.18124815090E+03  0.18317544712E+03  0.10566000000E+00 0. -1.
        -13    1    4    4    0    0 -0.13756910726E+01  0.86527972916E+01  0.58430328746E+02  0.59083651786E+02  0.10566000000E+00 0.  1.
        -14    1    4    4    0    0 -0.11744664024E+01  0.51972468996E+01  0.38384132267E+02  0.38752191636E+02  0.00000000000E+00 0.  1.
<mgrwt>
<rscale>  0 0.84624891E+02</rscale>
<asrwt>0</asrwt>
<pdfrwt beam="1">  1        2 0.66988432E-01 0.84624891E+02</pdfrwt>
<pdfrwt beam="2">  1       -1 0.63257165E-03 0.84624891E+02</pdfrwt>
<totfact> 0.25113872E+05</totfact>
</mgrwt>
</event>
<event>
 8    1  0.1520917E-017  0.7817246E+02  0.7818608E-02  0.1334319E+00
          2   -1    0    0  501    0  0.00000000000E+00  0.00000000000E+00  0.22730671355E+03  0.22730671356E+03  0.25500000000E-02 0. -1.
         -1   -1    0    0    0  501 -0.00000000000E+00 -0.00000000000E+00 -0.67210201703E+01  0.67210220600E+01  0.50400000000E-02 0.  1.
         24    2    1    2    0    0  0.00000000000E+00 -0.88817841970E-15  0.22058569338E+03  0.23402773562E+03  0.78172456259E+02 0.  0.
         66    2    3    3    0    0  0.10275293894E+02 -0.72912322764E+01  0.22105152325E+03  0.22141932992E+03  0.19999996804E+01 0.  0.
        -13    1    3    3    0    0 -0.10275293894E+02  0.72912322764E+01 -0.46582987676E+00  0.12608405697E+02  0.10566000000E+00 0.  1.
         13    1    4    4    0    0  0.53701030677E+01 -0.35015722919E+01  0.10746303405E+03  0.10765414004E+03  0.10566000000E+00 0. -1.
        -13    1    4    4    0    0  0.21011536899E+01 -0.87058604890E+00  0.44558999453E+02  0.44617130827E+02  0.10566000000E+00 0.  1.
        -14    1    4    4    0    0  0.28040371362E+01 -0.29190739356E+01  0.69029489750E+02  0.69148059062E+02  0.00000000000E+00 0.  1.
<mgrwt>
<rscale>  0 0.78172456E+02</rscale>
<asrwt>0</asrwt>
<pdfrwt beam="1">  1        2 0.34970261E-01 0.78172456E+02</pdfrwt>
<pdfrwt beam="2">  1       -1 0.10340033E-02 0.78172456E+02</pdfrwt>
<totfact> 0.24518002E+05</totfact>
</mgrwt>
</event>
<event>
 8    1  0.1520917E-017  0.7977602E+02  0.7818608E-02  0.1329688E+00
         -1   -1    0    0    0  501 -0.00000000000E+00  0.00000000000E+00  0.31491961494E+02  0.31491961897E+02  0.50400000000E-02 0.  1.
          2   -1    0    0  501    0  0.00000000000E+00 -0.00000000000E+00 -0.50522516331E+02  0.50522516395E+02  0.25500000000E-02 0. -1.
         24    2    1    2    0    0  0.35527136788E-14  0.00000000000E+00 -0.19030554837E+02  0.82014478293E+02  0.79776015394E+02 0.  0.
         66    2    3    3    0    0  0.22060049398E+02 -0.70686500374E+01 -0.42872801702E+02  0.48771802522E+02  0.20000006602E+01 0.  0.
        -13    1    3    3    0    0 -0.22060049398E+02  0.70686500374E+01  0.23842246865E+02  0.33242675771E+02  0.10566000000E+00 0.  1.
         13    1    4    4    0    0  0.68920847923E+01 -0.29449596016E+01 -0.14469107690E+02  0.16295393865E+02  0.10566000000E+00 0.  1.
        -13    1    4    4    0    0  0.58363630236E+01 -0.13420164874E+01 -0.10043871699E+02  0.11694214995E+02  0.10566000000E+00 0. -1.
         14    1    4    4    0    0  0.93316015817E+01 -0.27816739484E+01 -0.18359822313E+02  0.20782193662E+02  0.00000000000E+00 0. -1.
<mgrwt>
<rscale>  0 0.79776015E+02</rscale>
<asrwt>0</asrwt>
<pdfrwt beam="1">  1        2 0.77726948E-02 0.79776015E+02</pdfrwt>
<pdfrwt beam="2">  1       -1 0.48449172E-02 0.79776015E+02</pdfrwt>
<totfact> 0.15092303E+05</totfact>
</mgrwt>
</event>
<event>
 8    1  0.1520917E-017  0.8185315E+02  0.7818608E-02  0.1323873E+00
         -1   -1    0    0    0  501 -0.00000000000E+00  0.00000000000E+00  0.14479897218E+02  0.14479898095E+02  0.50400000000E-02 0.  1.
          2   -1    0    0  501    0  0.00000000000E+00 -0.00000000000E+00 -0.11567653760E+03  0.11567653763E+03  0.25500000000E-02 0. -1.
         24    2    1    2    0    0 -0.17763568394E-14  0.00000000000E+00 -0.10119664038E+03  0.13015643572E+03  0.81853147377E+02 0.  0.
         66    2    3    3    0    0 -0.11529375986E+02  0.28280973359E+02 -0.93891419619E+02  0.98753929785E+02  0.20000012851E+01 0.  0.
        -13    1    3    3    0    0  0.11529375986E+02 -0.28280973359E+02 -0.73052207619E+01  0.31402505938E+02  0.10566000000E+00 0.  1.
         13    1    4    4    0    0 -0.34262750290E+01  0.78090226450E+01 -0.24488039139E+02  0.25930588504E+02  0.10566000000E+00 0. -1.
        -13    1    4    4    0    0 -0.30685680302E+01  0.63145870396E+01 -0.22985523068E+02  0.24034049887E+02  0.10566000000E+00 0.  1.
         14    1    4    4    0    0 -0.50345329268E+01  0.14157363674E+02 -0.46417857412E+02  0.48789291394E+02  0.00000000000E+00 0. -1.
<mgrwt>
<rscale>  0 0.81853147E+02</rscale>
<asrwt>0</asrwt>
<pdfrwt beam="1">  1        2 0.17796390E-01 0.81853147E+02</pdfrwt>
<pdfrwt beam="2">  1       -1 0.22276767E-02 0.81853147E+02</pdfrwt>
<totfact> 0.17386514E+05</totfact>
</mgrwt>
</event>
<event>
 8    1  0.1520917E-017  0.7952112E+02  0.7818608E-02  0.1330416E+00
          2   -1    0    0  501    0  0.00000000000E+00  0.00000000000E+00  0.25924933520E+02  0.25924933646E+02  0.25500000000E-02 0. -1.
         -1   -1    0    0    0  501 -0.00000000000E+00 -0.00000000000E+00 -0.60979992788E+02  0.60979992996E+02  0.50400000000E-02 0.  1.
         24    2    1    2    0    0  0.00000000000E+00  0.00000000000E+00 -0.35055059267E+02  0.86904926642E+02  0.79521123573E+02 0.  0.
         66    2    3    3    0    0  0.16013444540E+02  0.34383184115E+02 -0.45956043625E+01  0.38259029456E+02  0.19999998797E+01 0.  0.
        -13    1    3    3    0    0 -0.16013444540E+02 -0.34383184115E+02 -0.30459454905E+02  0.48645897186E+02  0.10566000000E+00 0.  1.
         13    1    4    4    0    0  0.13037023736E+02  0.28154554212E+02 -0.34860625185E+01  0.31221894669E+02  0.10566000000E+00 0. -1.
        -13    1    4    4    0    0  0.21001554225E+01  0.51270161250E+01 -0.88179889955E+00  0.56112102509E+01  0.10566000000E+00 0.  1.
         14    1    4    4    0    0  0.87626538135E+00  0.11016137773E+01 -0.22774294448E+00  0.14259245357E+01  0.00000000000E+00 0. -1.
<mgrwt>
<rscale>  0 0.79521124E+02</rscale>
<asrwt>0</asrwt>
<pdfrwt beam="1">  1        2 0.39884513E-02 0.79521124E+02</pdfrwt>
<pdfrwt beam="2">  1       -1 0.93815374E-02 0.79521124E+02</pdfrwt>
<totfact> 0.13297287E+05</totfact>
</mgrwt>
</event>
<event>
 8    1  0.1520917E-017  0.8152684E+02  0.7818608E-02  0.1324773E+00
          2   -1    0    0  501    0  0.00000000000E+00  0.00000000000E+00  0.57943525067E+02  0.57943525123E+02  0.25500000000E-02 0. -1.
         -1   -1    0    0    0  501 -0.00000000000E+00 -0.00000000000E+00 -0.28677171289E+02  0.28677171732E+02  0.50400000000E-02 0.  1.
         24    2    1    2    0    0  0.00000000000E+00  0.35527136788E-14  0.29266353778E+02  0.86620696855E+02  0.81526840121E+02 0.  0.
         66    2    3    3    0    0  0.18426732186E+02 -0.26979560578E+02 -0.11213904222E+02  0.34600473865E+02  0.19999989387E+01 0.  0.
        -13    1    3    3    0    0 -0.18426732186E+02  0.26979560578E+02  0.40480258000E+02  0.52020222989E+02  0.10566000000E+00 0.  1.
         13    1    4    4    0    0  0.76333392407E+01 -0.10768388095E+02 -0.47377713444E+01  0.14024396296E+02  0.10566000000E+00 0. -1.
        -13    1    4    4    0    0  0.94238485783E+01 -0.13519902167E+02 -0.50525333747E+01  0.17237631338E+02  0.10566000000E+00 0.  1.
        -14    1    4    4    0    0  0.13695443676E+01 -0.26912703165E+01 -0.14235995030E+01  0.33384462308E+01  0.00000000000E+00 0.  1.
<mgrwt>
<rscale>  0 0.81526840E+02</rscale>
<asrwt>0</asrwt>
<pdfrwt beam="1">  1        2 0.89143884E-02 0.81526840E+02</pdfrwt>
<pdfrwt beam="2">  1       -1 0.44118726E-02 0.81526840E+02</pdfrwt>
<totfact> 0.14665826E+05</totfact>
</mgrwt>
</event>
<event>
 8    1  0.1520917E-017  0.8113398E+02  0.7818608E-02  0.1325864E+00
         -1   -1    0    0    0  501 -0.00000000000E+00  0.00000000000E+00  0.18617066452E+01  0.18617134673E+01  0.50400000000E-02 0.  1.
          2   -1    0    0  501    0  0.00000000000E+00 -0.00000000000E+00 -0.88396193525E+03  0.88396193525E+03  0.25500000000E-02 0. -1.
         24    2    1    2    0    0  0.00000000000E+00  0.00000000000E+00 -0.88210022860E+03  0.88582364872E+03  0.81133983809E+02 0.  0.
         66    2    3    3    0    0 -0.13675999416E+01  0.33585441216E+02 -0.68880387476E+03  0.68962644241E+03  0.19999982014E+01 0.  0.
        -13    1    3    3    0    0  0.13675999416E+01 -0.33585441216E+02 -0.19329635384E+03  0.19619720631E+03  0.10566000000E+00 0.  1.
         13    1    4    4    0    0 -0.79589377282E+00  0.12645755648E+02 -0.24642788209E+03  0.24675344135E+03  0.10566000000E+00 0. -1.
        -13    1    4    4    0    0 -0.71365663757E+00  0.18566441050E+02 -0.39767555627E+03  0.39810938353E+03  0.10566000000E+00 0.  1.
        -14    1    4    4    0    0  0.14195046879E+00  0.23732445183E+01 -0.44700436403E+02  0.44763617527E+02  0.00000000000E+00 0.  1.
<mgrwt>
<rscale>  0 0.81133984E+02</rscale>
<asrwt>0</asrwt>
<pdfrwt beam="1">  1        2 0.13599381E+00 0.81133984E+02</pdfrwt>
<pdfrwt beam="2">  1       -1 0.28641764E-03 0.81133984E+02</pdfrwt>
<totfact> 0.33621706E+05</totfact>
</mgrwt>
</event>
<event>
 8    1  0.1520917E-017  0.7979586E+02  0.7818608E-02  0.1329632E+00
         -1   -1    0    0    0  501 -0.00000000000E+00  0.00000000000E+00  0.20449477077E+01  0.20449539185E+01  0.50400000000E-02 0.  1.
          2   -1    0    0  501    0  0.00000000000E+00 -0.00000000000E+00 -0.77842693674E+03  0.77842693674E+03  0.25500000000E-02 0. -1.
         24    2    1    2    0    0  0.00000000000E+00  0.00000000000E+00 -0.77638198903E+03  0.78047189066E+03  0.79795859672E+02 0.  0.
         66    2    3    3    0    0  0.35112665120E+02 -0.53740641440E+01 -0.56558923882E+03  0.56670712621E+03  0.20000015341E+01 0.  0.
        -13    1    3    3    0    0 -0.35112665120E+02  0.53740641440E+01 -0.21079275021E+03  0.21376476446E+03  0.10566000000E+00 0.  1.
         13    1    4    4    0    0  0.56524944469E+01 -0.35501473639E+00 -0.91206502037E+02  0.91382240653E+02  0.10566000000E+00 0. -1.
        -13    1    4    4    0    0  0.26986692737E+02 -0.49493419863E+01 -0.43395935618E+03  0.43482584048E+03  0.10566000000E+00 0.  1.
        -14    1    4    4    0    0  0.24734779355E+01 -0.69707421331E-01 -0.40423380602E+02  0.40499045069E+02  0.00000000000E+00 0.  1.
<mgrwt>
<rscale>  0 0.79795860E+02</rscale>
<asrwt>0</asrwt>
<pdfrwt beam="1">  1        2 0.11975775E+00 0.79795860E+02</pdfrwt>
<pdfrwt beam="2">  1       -1 0.31460844E-03 0.79795860E+02</pdfrwt>
<totfact> 0.34425764E+05</totfact>
</mgrwt>
</event>
<event>
 8    1  0.1520917E-017  0.8685262E+02  0.7818608E-02  0.1310658E+00
         -1   -1    0    0    0  501 -0.00000000000E+00  0.00000000000E+00  0.28311803341E+01  0.28311848201E+01  0.50400000000E-02 0.  1.
          2   -1    0    0  501    0  0.00000000000E+00 -0.00000000000E+00 -0.66609777218E+03  0.66609777219E+03  0.25500000000E-02 0. -1.
         24    2    1    2    0    0  0.00000000000E+00  0.00000000000E+00 -0.66326659185E+03  0.66892895701E+03  0.86852620345E+02 0.  0.
         66    2    3    3    0    0 -0.37103033865E+00  0.33449229321E+02 -0.54481151216E+03  0.54584116040E+03  0.19999997056E+01 0.  0.
        -13    1    3    3    0    0  0.37103033865E+00 -0.33449229321E+02 -0.11845507968E+03  0.12308779660E+03  0.10566000000E+00 0.  1.
         13    1    4    4    0    0 -0.10902909886E+00  0.17752473935E+02 -0.29157170436E+03  0.29211167756E+03  0.10566000000E+00 0. -1.
        -13    1    4    4    0    0 -0.25597645953E+00  0.23749860647E+01 -0.32263234331E+02  0.32351716126E+02  0.10566000000E+00 0.  1.
        -14    1    4    4    0    0 -0.60247802512E-02  0.13321769321E+02 -0.22097657347E+03  0.22137776672E+03  0.00000000000E+00 0.  1.
<mgrwt>
<rscale>  0 0.86852620E+02</rscale>
<asrwt>0</asrwt>
<pdfrwt beam="1">  1        2 0.10247646E+00 0.86852620E+02</pdfrwt>
<pdfrwt beam="2">  1       -1 0.43556708E-03 0.86852620E+02</pdfrwt>
<totfact> 0.26675019E+05</totfact>
</mgrwt>
</event>
<event>
 8    1  0.1520917E-017  0.7824080E+02  0.7818608E-02  0.1334119E+00
          2   -1    0    0  501    0  0.00000000000E+00  0.00000000000E+00  0.46633781671E+03  0.46633781672E+03  0.25500000000E-02 0. -1.
         -1   -1    0    0    0  501 -0.00000000000E+00 -0.00000000000E+00 -0.32817514956E+01  0.32817553657E+01  0.50400000000E-02 0.  1.
         24    2    1    2    0    0  0.00000000000E+00  0.88817841970E-15  0.46305606522E+03  0.46961957208E+03  0.78240801065E+02 0.  0.
         66    2    3    3    0    0 -0.17734919479E+02 -0.49733422649E+01  0.43865931725E+03  0.43905040498E+03  0.19999996314E+01 0.  0.
        -13    1    3    3    0    0  0.17734919479E+02  0.49733422649E+01  0.24396747962E+02  0.30569167102E+02  0.10566000000E+00 0.  1.
         13    1    4    4    0    0 -0.12163245105E+02 -0.36895213400E+01  0.30352325562E+03  0.30378929369E+03  0.10566000000E+00 0. -1.
        -13    1    4    4    0    0 -0.18749384053E+01 -0.92209367711E+00  0.45249549641E+02  0.45297886899E+02  0.10566000000E+00 0.  1.
        -14    1    4    4    0    0 -0.36967359686E+01 -0.36172724781E+00  0.89886511998E+02  0.89963224389E+02  0.00000000000E+00 0.  1.
<mgrwt>
<rscale>  0 0.78240801E+02</rscale>
<asrwt>0</asrwt>
<pdfrwt beam="1">  1        2 0.71744238E-01 0.78240801E+02</pdfrwt>
<pdfrwt beam="2">  1       -1 0.50488544E-03 0.78240801E+02</pdfrwt>
<totfact> 0.31545360E+05</totfact>
</mgrwt>
</event>
<event>
 8    1  0.1520917E-017  0.8057120E+02  0.7818608E-02  0.1327438E+00
         -1   -1    0    0    0  501 -0.00000000000E+00  0.00000000000E+00  0.36902646875E+01  0.36902681292E+01  0.50400000000E-02 0.  1.
          2   -1    0    0  501    0  0.00000000000E+00 -0.00000000000E+00 -0.43978651220E+03  0.43978651221E+03  0.25500000000E-02 0. -1.
         24    2    1    2    0    0  0.00000000000E+00  0.00000000000E+00 -0.43609624751E+03  0.44347678034E+03  0.80571195866E+02 0.  0.
         66    2    3    3    0    0 -0.18620504196E+02 -0.10907212490E+02 -0.40526153940E+03  0.40584061622E+03  0.19999997061E+01 0.  0.
        -13    1    3    3    0    0  0.18620504196E+02  0.10907212490E+02 -0.30834708116E+02  0.37636164117E+02  0.10566000000E+00 0.  1.
         13    1    4    4    0    0 -0.87863426534E+01 -0.58563512438E+01 -0.20721946675E+03  0.20748834963E+03  0.10566000000E+00 0. -1.
        -13    1    4    4    0    0 -0.69589220548E+01 -0.31452156943E+01 -0.13473226021E+03  0.13494855346E+03  0.10566000000E+00 0.  1.
        -14    1    4    4    0    0 -0.28752394875E+01 -0.19056455517E+01 -0.63309812440E+02  0.63403713127E+02  0.00000000000E+00 0.  1.
<mgrwt>
<rscale>  0 0.80571196E+02</rscale>
<asrwt>0</asrwt>
<pdfrwt beam="1">  1        2 0.67659422E-01 0.80571196E+02</pdfrwt>
<pdfrwt beam="2">  1       -1 0.56773364E-03 0.80571196E+02</pdfrwt>
<totfact> 0.28654471E+05</totfact>
</mgrwt>
</event>
<event>
 8    1  0.1520917E-017  0.8009904E+02  0.7818608E-02  0.1328771E+00
          2   -1    0    0  501    0  0.00000000000E+00  0.00000000000E+00  0.13626438843E+03  0.13626438845E+03  0.25500000000E-02 0. -1.
         -1   -1    0    0    0  501 -0.00000000000E+00 -0.00000000000E+00 -0.11770968487E+02  0.11770969566E+02  0.50400000000E-02 0.  1.
         24    2    1    2    0    0  0.71054273576E-14  0.00000000000E+00  0.12449341994E+03  0.14803535802E+03  0.80099036292E+02 0.  0.
         66    2    3    3    0    0  0.37689668367E+02 -0.92715631516E+01  0.80345001026E+02  0.89251286692E+02  0.20000003515E+01 0.  0.
        -13    1    3    3    0    0 -0.37689668367E+02  0.92715631516E+01  0.44148418912E+02  0.58784071324E+02  0.10566000000E+00 0.  1.
         13    1    4    4    0    0  0.27178634311E+02 -0.63521496059E+01  0.57254260770E+02  0.63695286387E+02  0.10566000000E+00 0. -1.
        -13    1    4    4    0    0  0.53318393246E+01 -0.10227636542E+01  0.11859576740E+02  0.13043591552E+02  0.10566000000E+00 0.  1.
        -14    1    4    4    0    0  0.51791947315E+01 -0.18966498915E+01  0.11231163516E+02  0.12512408752E+02  0.00000000000E+00 0.  1.
<mgrwt>
<rscale>  0 0.80099036E+02</rscale>
<asrwt>0</asrwt>
<pdfrwt beam="1">  1        2 0.20963752E-01 0.80099036E+02</pdfrwt>
<pdfrwt beam="2">  1       -1 0.18109183E-02 0.80099036E+02</pdfrwt>
<totfact> 0.19364533E+05</totfact>
</mgrwt>
</event>
<event>
 8    1  0.1520917E-017  0.7994778E+02  0.7818608E-02  0.1329200E+00
          2   -1    0    0  501    0  0.00000000000E+00  0.00000000000E+00  0.11229008773E+04  0.11229008773E+04  0.25500000000E-02 0. -1.
         -1   -1    0    0    0  501 -0.00000000000E+00 -0.00000000000E+00 -0.14230169010E+01  0.14230258262E+01  0.50400000000E-02 0.  1.
         24    2    1    2    0    0  0.00000000000E+00  0.00000000000E+00  0.11214778604E+04  0.11243239032E+04  0.79947781597E+02 0.  0.
         66    2    3    3    0    0 -0.98269087606E+01  0.20691820199E+01  0.11048572516E+04  0.11049046999E+04  0.19999995089E+01 0.  0.
        -13    1    3    3    0    0  0.98269087606E+01 -0.20691820199E+01  0.16620608865E+02  0.19419203205E+02  0.10566000000E+00 0.  1.
         13    1    4    4    0    0 -0.98904013661E+00 -0.15480645266E+00  0.77911602122E+02  0.77918104923E+02  0.10566000000E+00 0. -1.
        -13    1    4    4    0    0 -0.47953794390E+01  0.16030367234E+01  0.53108884972E+03  0.53111292853E+03  0.10566000000E+00 0.  1.
        -14    1    4    4    0    0 -0.40424891851E+01  0.62095174919E+00  0.49585679971E+03  0.49587366649E+03  0.00000000000E+00 0.  1.
<mgrwt>
<rscale>  0 0.79947782E+02</rscale>
<asrwt>0</asrwt>
<pdfrwt beam="1">  1        2 0.17275487E+00 0.79947782E+02</pdfrwt>
<pdfrwt beam="2">  1       -1 0.21892524E-03 0.79947782E+02</pdfrwt>
<totfact> 0.35282361E+05</totfact>
</mgrwt>
</event>
<event>
 8    1  0.1520917E-017  0.7972905E+02  0.7818608E-02  0.1329822E+00
         -1   -1    0    0    0  501 -0.00000000000E+00  0.00000000000E+00  0.54517497597E+01  0.54517520894E+01  0.50400000000E-02 0.  1.
          2   -1    0    0  501    0  0.00000000000E+00 -0.00000000000E+00 -0.29149907857E+03  0.29149907858E+03  0.25500000000E-02 0. -1.
         24    2    1    2    0    0 -0.44408920985E-15  0.00000000000E+00 -0.28604732881E+03  0.29695083067E+03  0.79729050642E+02 0.  0.
         66    2    3    3    0    0 -0.30856766642E+01  0.12236637182E+02 -0.28385410851E+03  0.28414153446E+03  0.19999994139E+01 0.  0.
        -13    1    3    3    0    0  0.30856766642E+01 -0.12236637182E+02 -0.21932202965E+01  0.12809296206E+02  0.10566000000E+00 0.  1.
         13    1    4    4    0    0 -0.23909482634E+01  0.75137172615E+01 -0.18098896502E+03  0.18116067234E+03  0.10566000000E+00 0. -1.
        -13    1    4    4    0    0 -0.11416928942E+00  0.35001592834E+00 -0.42900602419E+01  0.43071251075E+01  0.10566000000E+00 0.  1.
         14    1    4    4    0    0 -0.58055911142E+00  0.43729039917E+01 -0.98575083248E+02  0.98673737010E+02  0.00000000000E+00 0. -1.
<mgrwt>
<rscale>  0 0.79729051E+02</rscale>
<asrwt>0</asrwt>
<pdfrwt beam="1">  1        2 0.44846000E-01 0.79729051E+02</pdfrwt>
<pdfrwt beam="2">  1       -1 0.83873114E-03 0.79729051E+02</pdfrwt>
<totfact> 0.25455902E+05</totfact>
</mgrwt>
</event>
<event>
 8    1  0.1520917E-017  0.7725155E+02  0.7818608E-02  0.1337037E+00
          2   -1    0    0  501    0  0.00000000000E+00  0.00000000000E+00  0.18626120337E+02  0.18626120512E+02  0.25500000000E-02 0. -1.
         -1   -1    0    0    0  501 -0.00000000000E+00 -0.00000000000E+00 -0.80099900274E+02  0.80099900432E+02  0.50400000000E-02 0.  1.
         24    2    1    2    0    0  0.00000000000E+00  0.71054273576E-14 -0.61473779936E+02  0.98726020945E+02  0.77251547505E+02 0.  0.
         66    2    3    3    0    0 -0.24907887859E+01  0.38157800197E+02 -0.24028437436E+02  0.45206056598E+02  0.20000007171E+01 0.  0.
        -13    1    3    3    0    0  0.24907887859E+01 -0.38157800197E+02 -0.37445342500E+02  0.53519964347E+02  0.10566000000E+00 0.  1.
         13    1    4    4    0    0 -0.11227362387E+01  0.15414932014E+02 -0.92232007986E+01  0.17998868371E+02  0.10566000000E+00 0. -1.
        -13    1    4    4    0    0 -0.10561870062E+01  0.21778642308E+02 -0.13991245293E+02  0.25907352251E+02  0.10566000000E+00 0.  1.
        -14    1    4    4    0    0 -0.31186554090E+00  0.96422587542E+00 -0.81399134451E+00  0.12998359756E+01  0.00000000000E+00 0.  1.
<mgrwt>
<rscale>  0 0.77251548E+02</rscale>
<asrwt>0</asrwt>
<pdfrwt beam="1">  1        2 0.28655570E-02 0.77251548E+02</pdfrwt>
<pdfrwt beam="2">  1       -1 0.12323061E-01 0.77251548E+02</pdfrwt>
<totfact> 0.13531373E+05</totfact>
</mgrwt>
</event>
<event>
 8    1  0.1520917E-017  0.8286182E+02  0.7818608E-02  0.1321121E+00
         -1   -1    0    0    0  501 -0.00000000000E+00  0.00000000000E+00  0.27879535121E+01  0.27879580677E+01  0.50400000000E-02 0.  1.
          2   -1    0    0  501    0  0.00000000000E+00 -0.00000000000E+00 -0.61569142795E+03  0.61569142795E+03  0.25500000000E-02 0. -1.
         24    2    1    2    0    0  0.17763568394E-14  0.00000000000E+00 -0.61290347444E+03  0.61847938602E+03  0.82861824487E+02 0.  0.
         66    2    3    3    0    0 -0.57134225213E+01 -0.36824408179E+02 -0.44136146415E+03  0.44293636369E+03  0.20000002867E+01 0.  0.
        -13    1    3    3    0    0  0.57134225213E+01  0.36824408179E+02 -0.17154201028E+03  0.17554302233E+03  0.10566000000E+00 0.  1.
         13    1    4    4    0    0 -0.16356956095E+01 -0.94711110917E+01 -0.10573675816E+03  0.10617273961E+03  0.10566000000E+00 0. -1.
        -13    1    4    4    0    0 -0.66127581906E+00 -0.54889040965E+01 -0.71435491246E+02  0.71649186509E+02  0.10566000000E+00 0.  1.
         14    1    4    4    0    0 -0.34164510927E+01 -0.21864392991E+02 -0.26418921475E+03  0.26511443757E+03  0.00000000000E+00 0. -1.
<mgrwt>
<rscale>  0 0.82861824E+02</rscale>
<asrwt>0</asrwt>
<pdfrwt beam="1">  1        2 0.94721650E-01 0.82861824E+02</pdfrwt>
<pdfrwt beam="2">  1       -1 0.42891677E-03 0.82861824E+02</pdfrwt>
<totfact> 0.29557044E+05</totfact>
</mgrwt>
</event>
<event>
 8    1  0.1520917E-017  0.8109561E+02  0.7818608E-02  0.1325971E+00
         -1   -1    0    0    0  501 -0.00000000000E+00  0.00000000000E+00  0.11512121361E+03  0.11512121373E+03  0.50400000000E-02 0.  1.
          2   -1    0    0  501    0  0.00000000000E+00 -0.00000000000E+00 -0.14281681978E+02  0.14281682205E+02  0.25500000000E-02 0. -1.
         24    2    1    2    0    0  0.17763568394E-14  0.00000000000E+00  0.10083953164E+03  0.12940289593E+03  0.81095612301E+02 0.  0.
         66    2    3    3    0    0  0.14868596767E+02 -0.19098261296E+02 -0.14106014077E+01  0.24327115533E+02  0.19999998699E+01 0.  0.
        -13    1    3    3    0    0 -0.14868596767E+02  0.19098261296E+02  0.10225013304E+03  0.10507578040E+03  0.10566000000E+00 0.  1.
         13    1    4    4    0    0  0.10321491732E+02 -0.12772944452E+02 -0.89482346618E+00  0.16446676704E+02  0.10566000000E+00 0. -1.
        -13    1    4    4    0    0  0.20127497073E+01 -0.27721716803E+01 -0.75466702778E+00  0.35095275419E+01  0.10566000000E+00 0.  1.
        -14    1    4    4    0    0  0.25343553284E+01 -0.35531451640E+01  0.23888908626E+00  0.43709112874E+01  0.00000000000E+00 0.  1.
<mgrwt>
<rscale>  0 0.81095612E+02</rscale>
<asrwt>0</asrwt>
<pdfrwt beam="1">  1        2 0.21971818E-02 0.81095612E+02</pdfrwt>
<pdfrwt beam="2">  1       -1 0.17710956E-01 0.81095612E+02</pdfrwt>
<totfact> 0.11107077E+05</totfact>
</mgrwt>
</event>
<event>
 8    1  0.1520917E-017  0.7958776E+02  0.7818608E-02  0.1330225E+00
          2   -1    0    0  501    0  0.00000000000E+00  0.00000000000E+00  0.10761729857E+04  0.10761729857E+04  0.25500000000E-02 0. -1.
         -1   -1    0    0    0  501 -0.00000000000E+00 -0.00000000000E+00 -0.14714625198E+01  0.14714711512E+01  0.50400000000E-02 0.  1.
         24    2    1    2    0    0  0.22204460493E-15  0.00000000000E+00  0.10747015232E+04  0.10776444569E+04  0.79587759503E+02 0.  0.
         66    2    3    3    0    0 -0.19237402698E+01  0.26846133022E+02  0.93410694648E+03  0.93449676461E+03  0.19999899333E+01 0.  0.
        -13    1    3    3    0    0  0.19237402698E+01 -0.26846133022E+02  0.14059457671E+03  0.14314769226E+03  0.10566000000E+00 0.  1.
         13    1    4    4    0    0 -0.13534854781E+01  0.15294194737E+02  0.53970924796E+03  0.53992761349E+03  0.10566000000E+00 0. -1.
        -13    1    4    4    0    0 -0.84442514453E+00  0.49309095096E+01  0.16900119368E+03  0.16907525411E+03  0.10566000000E+00 0.  1.
        -14    1    4    4    0    0  0.27417035284E+00  0.66210287754E+01  0.22539650485E+03  0.22549389701E+03  0.00000000000E+00 0.  1.
<mgrwt>
<rscale>  0 0.79587760E+02</rscale>
<asrwt>0</asrwt>
<pdfrwt beam="1">  1        2 0.16556478E+00 0.79587760E+02</pdfrwt>
<pdfrwt beam="2">  1       -1 0.22637992E-03 0.79587760E+02</pdfrwt>
<totfact> 0.35745430E+05</totfact>
</mgrwt>
</event>
<event>
 8    1  0.1520917E-017  0.7944301E+02  0.7818608E-02  0.1330640E+00
          2   -1    0    0  501    0  0.00000000000E+00  0.00000000000E+00  0.11850863979E+04  0.11850863979E+04  0.25500000000E-02 0. -1.
         -1   -1    0    0    0  501 -0.00000000000E+00 -0.00000000000E+00 -0.13313730744E+01  0.13313826140E+01  0.50400000000E-02 0.  1.
         24    2    1    2    0    0  0.00000000000E+00  0.00000000000E+00  0.11837550248E+04  0.11864177805E+04  0.79443005521E+02 0.  0.
         66    2    3    3    0    0 -0.20427626315E+02 -0.92688586869E+01  0.10813536571E+04  0.10815881523E+04  0.19999994729E+01 0.  0.
        -13    1    3    3    0    0  0.20427626315E+02  0.92688586869E+01  0.10240136775E+03  0.10482962816E+03  0.10566000000E+00 0.  1.
         13    1    4    4    0    0 -0.67185274581E+01 -0.28115006622E+01  0.31533044301E+03  0.31541455674E+03  0.10566000000E+00 0. -1.
        -13    1    4    4    0    0 -0.15686339960E+01 -0.51017036771E+00  0.76179785147E+02  0.76197714635E+02  0.10566000000E+00 0.  1.
         14    1    4    4    0    0 -0.12140464861E+02 -0.59471876569E+01  0.68984342889E+03  0.68997588096E+03  0.00000000000E+00 0. -1.
<mgrwt>
<rscale>  0 0.79443006E+02</rscale>
<asrwt>0</asrwt>
<pdfrwt beam="1">  1        2 0.18232114E+00 0.79443006E+02</pdfrwt>
<pdfrwt beam="2">  1       -1 0.20482718E-03 0.79443006E+02</pdfrwt>
<totfact> 0.35725722E+05</totfact>
</mgrwt>
</event>
<event>
 8    1  0.1534558E-017  0.8139939E+02  0.7818608E-02  0.1325126E+00
          2   -1    0    0  501    0  0.00000000000E+00  0.00000000000E+00  0.70136040857E+02  0.70136040904E+02  0.25500000000E-02 0. -1.
         -1   -1    0    0    0  501 -0.00000000000E+00 -0.00000000000E+00 -0.23617888693E+02  0.23617889231E+02  0.50400000000E-02 0.  1.
         24    2    1    2    0    0  0.00000000000E+00  0.00000000000E+00  0.46518152164E+02  0.93753930134E+02  0.81399391490E+02 0.  0.
         66    2    3    3    0    0  0.16839055993E+02 -0.28171985715E+02  0.50945595527E+02  0.60635536384E+02  0.19999957824E+01 0.  0.
        -13    1    3    3    0    0 -0.16839055993E+02  0.28171985715E+02 -0.44274433631E+01  0.33118393750E+02  0.10566000000E+00 0.  1.
         13    1    4    4    0    0  0.75536039463E+01 -0.11302222899E+02  0.21304642868E+02  0.25272438482E+02  0.10566000000E+00 0. -1.
        -13    1    4    4    0    0  0.54962255012E+01 -0.92251177743E+01  0.17213856392E+02  0.20288896190E+02  0.10566000000E+00 0.  1.
        -14    1    4    4    0    0  0.37892265454E+01 -0.76446450412E+01  0.12427096267E+02  0.15074201712E+02  0.00000000000E+00 0.  1.
<mgrwt>
<rscale>  0 0.81399391E+02</rscale>
<asrwt>0</asrwt>
<pdfrwt beam="1">  1        2 0.10790160E-01 0.81399391E+02</pdfrwt>
<pdfrwt beam="2">  1       -1 0.36335215E-02 0.81399391E+02</pdfrwt>
<totfact> 0.15412634E+05</totfact>
</mgrwt>
</event>
<event>
 8    1  0.1520917E-017  0.7892697E+02  0.7818608E-02  0.1332124E+00
         -1   -1    0    0    0  501 -0.00000000000E+00  0.00000000000E+00  0.21345210818E+02  0.21345211413E+02  0.50400000000E-02 0.  1.
          2   -1    0    0  501    0  0.00000000000E+00 -0.00000000000E+00 -0.72960935535E+02  0.72960935579E+02  0.25500000000E-02 0. -1.
         24    2    1    2    0    0  0.00000000000E+00  0.00000000000E+00 -0.51615724717E+02  0.94306146993E+02  0.78926968285E+02 0.  0.
         66    2    3    3    0    0  0.19905846378E+02 -0.74703530407E+01 -0.65512815611E+02  0.68905572315E+02  0.19999980506E+01 0.  0.
        -13    1    3    3    0    0 -0.19905846378E+02  0.74703530407E+01  0.13897090894E+02  0.25400574678E+02  0.10566000000E+00 0.  1.
         13    1    4    4    0    0  0.77780548404E+01 -0.24280496829E+01 -0.26375301404E+02  0.27605456898E+02  0.10566000000E+00 0. -1.
        -13    1    4    4    0    0  0.12126673286E+02 -0.50093771466E+01 -0.39122019307E+02  0.41263708305E+02  0.10566000000E+00 0.  1.
        -14    1    4    4    0    0  0.11182515680E-02 -0.32926211187E-01 -0.15494899755E-01  0.36407111780E-01  0.00000000000E+00 0.  1.
<mgrwt>
<rscale>  0 0.78926968E+02</rscale>
<asrwt>0</asrwt>
<pdfrwt beam="1">  1        2 0.11224759E-01 0.78926968E+02</pdfrwt>
<pdfrwt beam="2">  1       -1 0.32838787E-02 0.78926968E+02</pdfrwt>
<totfact> 0.16917927E+05</totfact>
</mgrwt>
</event>
<event>
 8    1  0.1520917E-017  0.8511573E+02  0.7818608E-02  0.1315130E+00
         -1   -1    0    0    0  501 -0.00000000000E+00  0.00000000000E+00  0.47941820601E+01  0.47941847093E+01  0.50400000000E-02 0.  1.
          2   -1    0    0  501    0  0.00000000000E+00 -0.00000000000E+00 -0.37778530857E+03  0.37778530858E+03  0.25500000000E-02 0. -1.
         24    2    1    2    0    0 -0.27755575616E-16  0.00000000000E+00 -0.37299112651E+03  0.38257949329E+03  0.85115734323E+02 0.  0.
         66    2    3    3    0    0 -0.15604365222E+00 -0.15090515714E+02 -0.36534382682E+03  0.36566085355E+03  0.20000016733E+01 0.  0.
        -13    1    3    3    0    0  0.15604365222E+00  0.15090515714E+02 -0.76472996906E+01  0.16918639742E+02  0.10566000000E+00 0.  1.
         13    1    4    4    0    0 -0.16720309611E+00 -0.19125406017E+01 -0.50854819143E+02  0.50891154070E+02  0.10566000000E+00 0. -1.
        -13    1    4    4    0    0 -0.83645929009E+00 -0.61422948143E+01 -0.14305397784E+03  0.14318826484E+03  0.10566000000E+00 0.  1.
         14    1    4    4    0    0  0.84761873399E+00 -0.70356802980E+01 -0.17143502984E+03  0.17158143463E+03  0.00000000000E+00 0. -1.
<mgrwt>
<rscale>  0 0.85115734E+02</rscale>
<asrwt>0</asrwt>
<pdfrwt beam="1">  1        2 0.58120794E-01 0.85115734E+02</pdfrwt>
<pdfrwt beam="2">  1       -1 0.73756697E-03 0.85115734E+02</pdfrwt>
<totfact> 0.23537118E+05</totfact>
</mgrwt>
</event>
<event>
 8    1  0.1520917E-017  0.8485833E+02  0.7818608E-02  0.1315803E+00
         -1   -1    0    0    0  501 -0.00000000000E+00  0.00000000000E+00  0.11391848548E+02  0.11391849663E+02  0.50400000000E-02 0.  1.
          2   -1    0    0  501    0  0.00000000000E+00 -0.00000000000E+00 -0.15802824963E+03  0.15802824965E+03  0.25500000000E-02 0. -1.
         24    2    1    2    0    0  0.35527136788E-14  0.00000000000E+00 -0.14663640109E+03  0.16942009932E+03  0.84858328579E+02 0.  0.
         66    2    3    3    0    0 -0.21776757338E+02 -0.91550894774E+00 -0.14598232422E+03  0.14761403829E+03  0.19999997187E+01 0.  0.
        -13    1    3    3    0    0  0.21776757338E+02  0.91550894774E+00 -0.65407686251E+00  0.21806061024E+02  0.10566000000E+00 0.  1.
         13    1    4    4    0    0 -0.31719790659E+01  0.20301070218E+00 -0.22064405768E+02  0.22292416434E+02  0.10566000000E+00 0. -1.
        -13    1    4    4    0    0 -0.10083760650E+02 -0.11538023005E+01 -0.63622026543E+02  0.64426600982E+02  0.10566000000E+00 0.  1.
        -14    1    4    4    0    0 -0.85210176226E+01  0.35282650615E-01 -0.60295891912E+02  0.60895020878E+02  0.00000000000E+00 0.  1.
<mgrwt>
<rscale>  0 0.84858329E+02</rscale>
<asrwt>0</asrwt>
<pdfrwt beam="1">  1        2 0.24312037E-01 0.84858329E+02</pdfrwt>
<pdfrwt beam="2">  1       -1 0.17525923E-02 0.84858329E+02</pdfrwt>
<totfact> 0.17415964E+05</totfact>
</mgrwt>
</event>
<event>
 8    1  0.1520917E-017  0.8099460E+02  0.7818608E-02  0.1326252E+00
         -1   -1    0    0    0  501 -0.00000000000E+00  0.00000000000E+00  0.19540809969E+03  0.19540809976E+03  0.50400000000E-02 0.  1.
          2   -1    0    0  501    0  0.00000000000E+00 -0.00000000000E+00 -0.83928524361E+01  0.83928528235E+01  0.25500000000E-02 0. -1.
         24    2    1    2    0    0  0.88817841970E-15  0.71054273576E-14  0.18701524726E+03  0.20380095258E+03  0.80994602083E+02 0.  0.
         66    2    3    3    0    0  0.60892065766E+01 -0.37527448431E+02  0.12848830362E+03  0.13400982049E+03  0.19999998694E+01 0.  0.
        -13    1    3    3    0    0 -0.60892065766E+01  0.37527448431E+02  0.58526943642E+02  0.69791132091E+02  0.10566000000E+00 0.  1.
         13    1    4    4    0    0  0.21438982108E+01 -0.87906505544E+01  0.31481426822E+02  0.32756117528E+02  0.10566000000E+00 0. -1.
        -13    1    4    4    0    0  0.88608351945E+00 -0.45009433630E+01  0.15455165161E+02  0.16121939379E+02  0.10566000000E+00 0.  1.
        -14    1    4    4    0    0  0.30592248463E+01 -0.24235854514E+02  0.81551711633E+02  0.85131763584E+02  0.00000000000E+00 0.  1.
<mgrwt>
<rscale>  0 0.80994602E+02</rscale>
<asrwt>0</asrwt>
<pdfrwt beam="1">  1        2 0.12912081E-02 0.80994602E+02</pdfrwt>
<pdfrwt beam="2">  1       -1 0.30062783E-01 0.80994602E+02</pdfrwt>
<totfact> 0.97196642E+04</totfact>
</mgrwt>
</event>
<event>
 8    1  0.1520917E-017  0.7932657E+02  0.7818608E-02  0.1330973E+00
          2   -1    0    0  501    0  0.00000000000E+00  0.00000000000E+00  0.39836602748E+02  0.39836602830E+02  0.25500000000E-02 0. -1.
         -1   -1    0    0    0  501 -0.00000000000E+00 -0.00000000000E+00 -0.39490718956E+02  0.39490719278E+02  0.50400000000E-02 0.  1.
         24    2    1    2    0    0  0.00000000000E+00  0.35527136788E-14  0.34588379237E+00  0.79327322108E+02  0.79326568041E+02 0.  0.
         66    2    3    3    0    0  0.22733173527E+01 -0.26350510002E+02  0.29697115958E+02  0.39817534170E+02  0.19999955011E+01 0.  0.
        -13    1    3    3    0    0 -0.22733173527E+01  0.26350510002E+02 -0.29351232166E+02  0.39509787937E+02  0.10566000000E+00 0.  1.
         13    1    4    4    0    0  0.88696091143E+00 -0.91282533431E+01  0.10098782923E+02  0.13642151198E+02  0.10566000000E+00 0. -1.
        -13    1    4    4    0    0  0.11737830193E+01 -0.16569668643E+02  0.19171750668E+02  0.25367279579E+02  0.10566000000E+00 0.  1.
        -14    1    4    4    0    0  0.21257342193E+00 -0.65258801588E+00  0.42658236772E+00  0.80810339353E+00  0.00000000000E+00 0.  1.
<mgrwt>
<rscale>  0 0.79326568E+02</rscale>
<asrwt>0</asrwt>
<pdfrwt beam="1">  1        2 0.61287081E-02 0.79326568E+02</pdfrwt>
<pdfrwt beam="2">  1       -1 0.60754953E-02 0.79326568E+02</pdfrwt>
<totfact> 0.14579881E+05</totfact>
</mgrwt>
</event>
<event>
 8    1  0.1822028E-017  0.7947755E+02  0.7818608E-02  0.1330541E+00
          2   -1    0    0  501    0  0.00000000000E+00  0.00000000000E+00  0.21280668533E+03  0.21280668534E+03  0.25500000000E-02 0. -1.
         -1   -1    0    0    0  501 -0.00000000000E+00 -0.00000000000E+00 -0.74206793892E+01  0.74206811007E+01  0.50400000000E-02 0.  1.
         24    2    1    2    0    0  0.00000000000E+00  0.35527136788E-14  0.20538600594E+03  0.22022736644E+03  0.79477553406E+02 0.  0.
         66    2    3    3    0    0 -0.20937094062E+02 -0.31115325871E+02  0.13895440524E+03  0.14394044655E+03  0.20000012241E+01 0.  0.
        -13    1    3    3    0    0  0.20937094062E+02  0.31115325871E+02  0.66431600697E+02  0.76286919895E+02  0.10566000000E+00 0.  1.
         13    1    4    4    0    0 -0.83693376410E+01 -0.12450535631E+02  0.55916274275E+02  0.57893890376E+02  0.10566000000E+00 0. -1.
        -13    1    4    4    0    0 -0.11746494886E+02 -0.17420030870E+02  0.75907137489E+02  0.78761299529E+02  0.10566000000E+00 0.  1.
        -14    1    4    4    0    0 -0.82126153489E+00 -0.12447593702E+01  0.71309934780E+01  0.72852566449E+01  0.00000000000E+00 0.  1.
<mgrwt>
<rscale>  0 0.79477553E+02</rscale>
<asrwt>0</asrwt>
<pdfrwt beam="1">  1        2 0.32739487E-01 0.79477553E+02</pdfrwt>
<pdfrwt beam="2">  1       -1 0.11416432E-02 0.79477553E+02</pdfrwt>
<totfact> 0.22934448E+05</totfact>
</mgrwt>
</event>
<event>
 8    1  0.1520917E-017  0.7776978E+02  0.7818608E-02  0.1335502E+00
          2   -1    0    0  501    0  0.00000000000E+00  0.00000000000E+00  0.32870185391E+02  0.32870185490E+02  0.25500000000E-02 0. -1.
         -1   -1    0    0    0  501 -0.00000000000E+00 -0.00000000000E+00 -0.46000185181E+02  0.46000185457E+02  0.50400000000E-02 0.  1.
         24    2    1    2    0    0  0.00000000000E+00  0.00000000000E+00 -0.13129999791E+02  0.78870370947E+02  0.77769778956E+02 0.  0.
         66    2    3    3    0    0  0.25762720150E+02  0.19041322427E+02  0.15736018989E+02  0.35747895212E+02  0.20000022928E+01 0.  0.
        -13    1    3    3    0    0 -0.25762720150E+02 -0.19041322427E+02 -0.28866018779E+02  0.43122475735E+02  0.10566000000E+00 0.  1.
         13    1    4    4    0    0  0.10902837309E+02  0.87839419935E+01  0.60294481290E+01  0.15244504160E+02  0.10566000000E+00 0. -1.
        -13    1    4    4    0    0  0.63673008467E+01  0.42697974193E+01  0.42715922561E+01  0.87767507947E+01  0.10566000000E+00 0.  1.
         14    1    4    4    0    0  0.84925819948E+01  0.59875830141E+01  0.54349786037E+01  0.11726640257E+02  0.00000000000E+00 0. -1.
<mgrwt>
<rscale>  0 0.77769779E+02</rscale>
<asrwt>0</asrwt>
<pdfrwt beam="1">  1        2 0.50569516E-02 0.77769779E+02</pdfrwt>
<pdfrwt beam="2">  1       -1 0.70769517E-02 0.77769779E+02</pdfrwt>
<totfact> 0.14822855E+05</totfact>
</mgrwt>
</event>
<event>
 8    1  0.1520917E-017  0.7639591E+02  0.7818608E-02  0.1339602E+00
         -1   -1    0    0    0  501 -0.00000000000E+00  0.00000000000E+00  0.24325023889E+01  0.24325076102E+01  0.50400000000E-02 0.  1.
          2   -1    0    0  501    0  0.00000000000E+00 -0.00000000000E+00 -0.59982768154E+03  0.59982768155E+03  0.25500000000E-02 0. -1.
         24    2    1    2    0    0  0.00000000000E+00  0.00000000000E+00 -0.59739517915E+03  0.60226018916E+03  0.76395911990E+02 0.  0.
         66    2    3    3    0    0  0.19357250663E+02  0.15414485252E+02 -0.52803235491E+03  0.52861562344E+03  0.20000008609E+01 0.  0.
        -13    1    3    3    0    0 -0.19357250663E+02 -0.15414485252E+02 -0.69362824245E+02  0.73644565720E+02  0.10566000000E+00 0.  1.
         13    1    4    4    0    0  0.44959858374E+01  0.31393759586E+01 -0.11064160781E+03  0.11077746212E+03  0.10566000000E+00 0. -1.
        -13    1    4    4    0    0  0.87664445051E+01  0.66730987146E+01 -0.25067449089E+03  0.25091650472E+03  0.10566000000E+00 0.  1.
        -14    1    4    4    0    0  0.60948203210E+01  0.56020105792E+01 -0.16671625620E+03  0.16692165659E+03  0.00000000000E+00 0.  1.
<mgrwt>
<rscale>  0 0.76395912E+02</rscale>
<asrwt>0</asrwt>
<pdfrwt beam="1">  1        2 0.92281064E-01 0.76395912E+02</pdfrwt>
<pdfrwt beam="2">  1       -1 0.37423202E-03 0.76395912E+02</pdfrwt>
<totfact> 0.36249687E+05</totfact>
</mgrwt>
</event>
<event>
 8    1  0.1520917E-017  0.7926286E+02  0.7818608E-02  0.1331156E+00
         -1   -1    0    0    0  501 -0.00000000000E+00  0.00000000000E+00  0.48351242616E+01  0.48351268883E+01  0.50400000000E-02 0.  1.
          2   -1    0    0  501    0  0.00000000000E+00 -0.00000000000E+00 -0.32484169136E+03  0.32484169137E+03  0.25500000000E-02 0. -1.
         24    2    1    2    0    0  0.35527136788E-14  0.00000000000E+00 -0.32000656710E+03  0.32967681826E+03  0.79262863378E+02 0.  0.
         66    2    3    3    0    0  0.16895327836E+02 -0.33659546721E+02 -0.21108423732E+03  0.21442707953E+03  0.20000008288E+01 0.  0.
        -13    1    3    3    0    0 -0.16895327836E+02  0.33659546721E+02 -0.10892232978E+03  0.11524973873E+03  0.10566000000E+00 0.  1.
         13    1    4    4    0    0  0.51120073296E+01 -0.11071834820E+02 -0.66945045755E+02  0.68046810802E+02  0.10566000000E+00 0. -1.
        -13    1    4    4    0    0  0.36538899700E+01 -0.84682868587E+01 -0.51871457762E+02  0.52685122081E+02  0.10566000000E+00 0.  1.
         14    1    4    4    0    0  0.81294305365E+01 -0.14119425043E+02 -0.92267733801E+02  0.93695146647E+02  0.00000000000E+00 0. -1.
<mgrwt>
<rscale>  0 0.79262863E+02</rscale>
<asrwt>0</asrwt>
<pdfrwt beam="1">  1        2 0.49975628E-01 0.79262863E+02</pdfrwt>
<pdfrwt beam="2">  1       -1 0.74386573E-03 0.79262863E+02</pdfrwt>
<totfact> 0.26881475E+05</totfact>
</mgrwt>
</event>
<event>
 8    1  0.1520917E-017  0.7987363E+02  0.7818608E-02  0.1329410E+00
          2   -1    0    0  501    0  0.00000000000E+00  0.00000000000E+00  0.48036367321E+02  0.48036367388E+02  0.25500000000E-02 0. -1.
         -1   -1    0    0    0  501 -0.00000000000E+00 -0.00000000000E+00 -0.33202954960E+02  0.33202955343E+02  0.50400000000E-02 0.  1.
         24    2    1    2    0    0  0.00000000000E+00  0.71054273576E-14  0.14833412360E+02  0.81239322731E+02  0.79873634170E+02 0.  0.
         66    2    3    3    0    0 -0.19902143160E+02 -0.32599174726E+02  0.19201381128E+02  0.42795964263E+02  0.20000061904E+01 0.  0.
        -13    1    3    3    0    0  0.19902143160E+02  0.32599174726E+02 -0.43679687682E+01  0.38443358469E+02  0.10566000000E+00 0.  1.
         13    1    4    4    0    0 -0.12885769514E+01 -0.13738034153E+01  0.10059906568E+01  0.21379774602E+01  0.10566000000E+00 0.  1.
        -13    1    4    4    0    0 -0.71646049791E+01 -0.12401886302E+02  0.68591382367E+01  0.15880720694E+02  0.10566000000E+00 0.  1.
         14    1    4    4    0    0 -0.11448961229E+02 -0.18823485008E+02  0.11336252235E+02  0.24777266109E+02  0.00000000000E+00 0. -1.
<mgrwt>
<rscale>  0 0.79873634E+02</rscale>
<asrwt>0</asrwt>
<pdfrwt beam="1">  1        2 0.73902103E-02 0.79873634E+02</pdfrwt>
<pdfrwt beam="2">  1       -1 0.51081470E-02 0.79873634E+02</pdfrwt>
<totfact> 0.14878390E+05</totfact>
</mgrwt>
</event>
<event>
 8    1  0.1520917E-017  0.8062647E+02  0.7818608E-02  0.1327283E+00
         -1   -1    0    0    0  501 -0.00000000000E+00  0.00000000000E+00  0.73241264370E+02  0.73241264544E+02  0.50400000000E-02 0.  1.
          2   -1    0    0  501    0  0.00000000000E+00 -0.00000000000E+00 -0.22189087507E+02  0.22189087654E+02  0.25500000000E-02 0. -1.
         24    2    1    2    0    0  0.00000000000E+00  0.00000000000E+00  0.51052176863E+02  0.95430352197E+02  0.80626468099E+02 0.  0.
         66    2    3    3    0    0  0.19387085796E+02 -0.22114138986E+02 -0.70507195072E+01  0.30308528134E+02  0.19999983249E+01 0.  0.
        -13    1    3    3    0    0 -0.19387085796E+02  0.22114138986E+02  0.58102896370E+02  0.65121824064E+02  0.10566000000E+00 0.  1.
         13    1    4    4    0    0  0.15828024936E+02 -0.18272742258E+02 -0.57168642399E+01  0.24841762896E+02  0.10566000000E+00 0. -1.
        -13    1    4    4    0    0  0.43119971276E+00 -0.83489763640E+00 -0.41177944115E+00  0.10313649205E+01  0.10566000000E+00 0.  1.
        -14    1    4    4    0    0  0.31278611474E+01 -0.30064990919E+01 -0.92207582622E+00  0.44354003174E+01  0.00000000000E+00 0.  1.
<mgrwt>
<rscale>  0 0.80626468E+02</rscale>
<asrwt>0</asrwt>
<pdfrwt beam="1">  1        2 0.34137058E-02 0.80626468E+02</pdfrwt>
<pdfrwt beam="2">  1       -1 0.11267887E-01 0.80626468E+02</pdfrwt>
<totfact> 0.12398040E+05</totfact>
</mgrwt>
</event>
<event>
 8    1  0.1520917E-017  0.8198585E+02  0.7818608E-02  0.1323509E+00
          2   -1    0    0  501    0  0.00000000000E+00  0.00000000000E+00  0.92881636847E+03  0.92881636848E+03  0.25500000000E-02 0. -1.
         -1   -1    0    0    0  501 -0.00000000000E+00 -0.00000000000E+00 -0.18092021621E+01  0.18092091822E+01  0.50400000000E-02 0.  1.
         24    2    1    2    0    0  0.00000000000E+00  0.00000000000E+00  0.92700716631E+03  0.93062557766E+03  0.81985848785E+02 0.  0.
         66    2    3    3    0    0 -0.51159213807E+01  0.13488386825E+02  0.89902975952E+03  0.89914771742E+03  0.19999999010E+01 0.  0.
        -13    1    3    3    0    0  0.51159213807E+01 -0.13488386825E+02  0.27977406789E+02  0.31477860242E+02  0.10566000000E+00 0.  1.
         13    1    4    4    0    0 -0.12705235031E+01  0.45237670349E+01  0.25631970230E+03  0.25636278913E+03  0.10566000000E+00 0. -1.
        -13    1    4    4    0    0 -0.27511830010E+01  0.63215212893E+01  0.48369678986E+03  0.48374593159E+03  0.10566000000E+00 0.  1.
        -14    1    4    4    0    0 -0.10942148766E+01  0.26430985011E+01  0.15901326736E+03  0.15903899670E+03  0.00000000000E+00 0.  1.
<mgrwt>
<rscale>  0 0.81985849E+02</rscale>
<asrwt>0</asrwt>
<pdfrwt beam="1">  1        2 0.14289498E+00 0.81985849E+02</pdfrwt>
<pdfrwt beam="2">  1       -1 0.27833903E-03 0.81985849E+02</pdfrwt>
<totfact> 0.32892520E+05</totfact>
</mgrwt>
</event>
<event>
 8    1  0.1520917E-017  0.7947328E+02  0.7818608E-02  0.1330553E+00
          2   -1    0    0  501    0  0.00000000000E+00  0.00000000000E+00  0.40068206055E+03  0.40068206056E+03  0.25500000000E-02 0. -1.
         -1   -1    0    0    0  501 -0.00000000000E+00 -0.00000000000E+00 -0.39407806101E+01  0.39407838330E+01  0.50400000000E-02 0.  1.
         24    2    1    2    0    0  0.00000000000E+00 -0.71054273576E-14  0.39674127994E+03  0.40462284439E+03  0.79473284787E+02 0.  0.
         66    2    3    3    0    0  0.17094464297E+02  0.35842265711E+02  0.20016177590E+03  0.20407259808E+03  0.20000091952E+01 0.  0.
        -13    1    3    3    0    0 -0.17094464297E+02 -0.35842265711E+02  0.19657950404E+03  0.20055024631E+03  0.10566000000E+00 0.  1.
         13    1    4    4    0    0  0.14180635363E+02  0.28627772703E+02  0.15854529837E+03  0.16173207038E+03  0.10566000000E+00 0. -1.
        -13    1    4    4    0    0  0.22244446540E+01  0.50293540015E+01  0.30064188928E+02  0.30563199695E+02  0.10566000000E+00 0.  1.
         14    1    4    4    0    0  0.68938427992E+00  0.21851390072E+01  0.11552288600E+02  0.11777328010E+02  0.00000000000E+00 0. -1.
<mgrwt>
<rscale>  0 0.79473285E+02</rscale>
<asrwt>0</asrwt>
<pdfrwt beam="1">  1        2 0.61643380E-01 0.79473285E+02</pdfrwt>
<pdfrwt beam="2">  1       -1 0.60627433E-03 0.79473285E+02</pdfrwt>
<totfact> 0.28762321E+05</totfact>
</mgrwt>
</event>
<event>
 8    1  0.1520917E-017  0.8108155E+02  0.7818608E-02  0.1326010E+00
          2   -1    0    0  501    0  0.00000000000E+00  0.00000000000E+00  0.43735987731E+02  0.43735987805E+02  0.25500000000E-02 0. -1.
         -1   -1    0    0    0  501 -0.00000000000E+00 -0.00000000000E+00 -0.37578992714E+02  0.37578993052E+02  0.50400000000E-02 0.  1.
         24    2    1    2    0    0  0.00000000000E+00  0.00000000000E+00  0.61569950167E+01  0.81314980857E+02  0.81081548605E+02 0.  0.
         66    2    3    3    0    0  0.24006560294E+02 -0.17681761179E+02  0.30592715603E+02  0.42765334683E+02  0.19999967551E+01 0.  0.
        -13    1    3    3    0    0 -0.24006560294E+02  0.17681761179E+02 -0.24435720586E+02  0.38549646174E+02  0.10566000000E+00 0.  1.
         13    1    4    4    0    0  0.15001381683E+02 -0.10558929833E+02  0.19876506456E+02  0.27048458820E+02  0.10566000000E+00 0. -1.
        -13    1    4    4    0    0  0.68852647773E+01 -0.51312518264E+01  0.79262461030E+01  0.11686451886E+02  0.10566000000E+00 0.  1.
         14    1    4    4    0    0  0.21199138341E+01 -0.19915795196E+01  0.27899630445E+01  0.40304239773E+01  0.00000000000E+00 0. -1.
<mgrwt>
<rscale>  0 0.81081549E+02</rscale>
<asrwt>0</asrwt>
<pdfrwt beam="1">  1        2 0.67286135E-02 0.81081549E+02</pdfrwt>
<pdfrwt beam="2">  1       -1 0.57813835E-02 0.81081549E+02</pdfrwt>
<totfact> 0.13994130E+05</totfact>
</mgrwt>
</event>
<event>
 8    1  0.1520917E-017  0.8078682E+02  0.7818608E-02  0.1326833E+00
          2   -1    0    0  501    0  0.00000000000E+00  0.00000000000E+00  0.73240063310E+03  0.73240063310E+03  0.25500000000E-02 0. -1.
         -1   -1    0    0    0  501 -0.00000000000E+00 -0.00000000000E+00 -0.22277773315E+01  0.22277830326E+01  0.50400000000E-02 0.  1.
         24    2    1    2    0    0  0.00000000000E+00  0.00000000000E+00  0.73017285576E+03  0.73462841613E+03  0.80786821294E+02 0.  0.
         66    2    3    3    0    0  0.24347895598E+02 -0.12809101736E+02  0.63394730982E+03  0.63454714934E+03  0.19999986813E+01 0.  0.
        -13    1    3    3    0    0 -0.24347895598E+02  0.12809101736E+02  0.96225545942E+02  0.10008126679E+03  0.10566000000E+00 0.  1.
         13    1    4    4    0    0  0.49423395448E+01 -0.29987453575E+01  0.12760347951E+03  0.12773440547E+03  0.10566000000E+00 0. -1.
        -13    1    4    4    0    0  0.91462217682E+01 -0.49312229891E+01  0.25811281697E+03  0.25832190729E+03  0.10566000000E+00 0.  1.
        -14    1    4    4    0    0  0.10259334285E+02 -0.48791333897E+01  0.24823101334E+03  0.24849083658E+03  0.00000000000E+00 0.  1.
<mgrwt>
<rscale>  0 0.80786821E+02</rscale>
<asrwt>0</asrwt>
<pdfrwt beam="1">  1        2 0.11267701E+00 0.80786821E+02</pdfrwt>
<pdfrwt beam="2">  1       -1 0.34273544E-03 0.80786821E+02</pdfrwt>
<totfact> 0.32937734E+05</totfact>
</mgrwt>
</event>
<event>
 8    1  0.1520917E-017  0.8005079E+02  0.7818608E-02  0.1328907E+00
          2   -1    0    0  501    0  0.00000000000E+00  0.00000000000E+00  0.10421838323E+04  0.10421838323E+04  0.25500000000E-02 0. -1.
         -1   -1    0    0    0  501 -0.00000000000E+00 -0.00000000000E+00 -0.15371835687E+01  0.15371918310E+01  0.50400000000E-02 0.  1.
         24    2    1    2    0    0  0.17763568394E-14 -0.35527136788E-14  0.10406466488E+04  0.10437210242E+04  0.80050788279E+02 0.  0.
         66    2    3    3    0    0  0.84653790403E+01 -0.24709549330E+02  0.91564393240E+03  0.91601857810E+03  0.20000006905E+01 0.  0.
        -13    1    3    3    0    0 -0.84653790403E+01  0.24709549330E+02  0.12500271635E+03  0.12770244606E+03  0.10566000000E+00 0.  1.
         13    1    4    4    0    0  0.24787710389E+01 -0.87554755937E+01  0.31791011953E+03  0.31804034009E+03  0.10566000000E+00 0. -1.
        -13    1    4    4    0    0  0.17795566543E+01 -0.46814915729E+01  0.15479846944E+03  0.15487950313E+03  0.10566000000E+00 0.  1.
        -14    1    4    4    0    0  0.42070513470E+01 -0.11272582164E+02  0.44293534343E+03  0.44309873488E+03  0.00000000000E+00 0.  1.
<mgrwt>
<rscale>  0 0.80050788E+02</rscale>
<asrwt>0</asrwt>
<pdfrwt beam="1">  1        2 0.16033666E+00 0.80050788E+02</pdfrwt>
<pdfrwt beam="2">  1       -1 0.23648941E-03 0.80050788E+02</pdfrwt>
<totfact> 0.35212295E+05</totfact>
</mgrwt>
</event>
<event>
 8    1  0.1520917E-017  0.8129613E+02  0.7818608E-02  0.1325413E+00
         -1   -1    0    0    0  501 -0.00000000000E+00  0.00000000000E+00  0.66691328742E+01  0.66691347786E+01  0.50400000000E-02 0.  1.
          2   -1    0    0  501    0  0.00000000000E+00 -0.00000000000E+00 -0.24774809046E+03  0.24774809048E+03  0.25500000000E-02 0. -1.
         24    2    1    2    0    0  0.00000000000E+00  0.00000000000E+00 -0.24107895759E+03  0.25441722525E+03  0.81296129761E+02 0.  0.
         66    2    3    3    0    0  0.93057638632E+01  0.16205866308E+02 -0.23349320955E+03  0.23424838589E+03  0.20000110962E+01 0.  0.
        -13    1    3    3    0    0 -0.93057638632E+01 -0.16205866308E+02 -0.75857480419E+01  0.20168839363E+02  0.10566000000E+00 0.  1.
         13    1    4    4    0    0  0.50604936151E+01  0.97056923588E+01 -0.13109919949E+03  0.13155538883E+03  0.10566000000E+00 0. -1.
        -13    1    4    4    0    0  0.15212597505E+01  0.19135910194E+01 -0.27093571677E+02  0.27203838922E+02  0.10566000000E+00 0.  1.
         14    1    4    4    0    0  0.27240104975E+01  0.45865829299E+01 -0.75300438382E+02  0.75489158140E+02  0.00000000000E+00 0. -1.
<mgrwt>
<rscale>  0 0.81296130E+02</rscale>
<asrwt>0</asrwt>
<pdfrwt beam="1">  1        2 0.38115084E-01 0.81296130E+02</pdfrwt>
<pdfrwt beam="2">  1       -1 0.10260208E-02 0.81296130E+02</pdfrwt>
<totfact> 0.22805949E+05</totfact>
</mgrwt>
</event>
<event>
 8    1  0.1520917E-017  0.8195118E+02  0.7818608E-02  0.1323604E+00
          2   -1    0    0  501    0  0.00000000000E+00  0.00000000000E+00  0.28008786137E+03  0.28008786138E+03  0.25500000000E-02 0. -1.
         -1   -1    0    0    0  501 -0.00000000000E+00 -0.00000000000E+00 -0.59945433610E+01  0.59945454797E+01  0.50400000000E-02 0.  1.
         24    2    1    2    0    0  0.71054273576E-14 -0.88817841970E-15  0.27409331801E+03  0.28608240686E+03  0.81951183874E+02 0.  0.
         66    2    3    3    0    0  0.38911134256E+02 -0.79780410411E+01  0.10234707234E+03  0.10980277227E+03  0.20000181449E+01 0.  0.
        -13    1    3    3    0    0 -0.38911134256E+02  0.79780410411E+01  0.17174624567E+03  0.17627963459E+03  0.10566000000E+00 0.  1.
         13    1    4    4    0    0  0.19622011330E+02 -0.38798779406E+01  0.49005214190E+02  0.52930132848E+02  0.10566000000E+00 0. -1.
        -13    1    4    4    0    0  0.10049980584E+02 -0.23844202242E+01  0.28128116154E+02  0.29964806890E+02  0.10566000000E+00 0.  1.
        -14    1    4    4    0    0  0.92391423418E+01 -0.17137428763E+01  0.25213741998E+02  0.26907832529E+02  0.00000000000E+00 0.  1.
<mgrwt>
<rscale>  0 0.81951184E+02</rscale>
<asrwt>0</asrwt>
<pdfrwt beam="1">  1        2 0.43090430E-01 0.81951184E+02</pdfrwt>
<pdfrwt beam="2">  1       -1 0.92223782E-03 0.81951184E+02</pdfrwt>
<totfact> 0.23342304E+05</totfact>
</mgrwt>
</event>
<event>
 8    1  0.1520917E-017  0.7996003E+02  0.7818608E-02  0.1329165E+00
         -1   -1    0    0    0  501 -0.00000000000E+00  0.00000000000E+00  0.69227431921E+02  0.69227432104E+02  0.50400000000E-02 0.  1.
          2   -1    0    0  501    0  0.00000000000E+00 -0.00000000000E+00 -0.23089136904E+02  0.23089137045E+02  0.25500000000E-02 0. -1.
         24    2    1    2    0    0 -0.44408920985E-15  0.00000000000E+00  0.46138295017E+02  0.92316569149E+02  0.79960031718E+02 0.  0.
         66    2    3    3    0    0  0.18703694716E+01  0.19721622077E+02 -0.16976558834E+02  0.26165706721E+02  0.19999997595E+01 0.  0.
        -13    1    3    3    0    0 -0.18703694716E+01 -0.19721622077E+02  0.63114853851E+02  0.66150862428E+02  0.10566000000E+00 0.  1.
         13    1    4    4    0    0  0.21715220593E+01  0.14383072512E+02 -0.11982404580E+02  0.18846152565E+02  0.10566000000E+00 0. -1.
        -13    1    4    4    0    0 -0.70270819365E-01  0.15341654425E+01 -0.14728472524E+01  0.21305033812E+01  0.10566000000E+00 0. -1.
         14    1    4    4    0    0 -0.23088176828E+00  0.38043841230E+01 -0.35213070015E+01  0.51890507750E+01  0.00000000000E+00 0. -1.
<mgrwt>
<rscale>  0 0.79960032E+02</rscale>
<asrwt>0</asrwt>
<pdfrwt beam="1">  1        2 0.35521750E-02 0.79960032E+02</pdfrwt>
<pdfrwt beam="2">  1       -1 0.10650374E-01 0.79960032E+02</pdfrwt>
<totfact> 0.12795993E+05</totfact>
</mgrwt>
</event>
<event>
 8    1  0.1520917E-017  0.7973814E+02  0.7818608E-02  0.1329796E+00
         -1   -1    0    0    0  501 -0.00000000000E+00  0.00000000000E+00  0.37240722627E+02  0.37240722968E+02  0.50400000000E-02 0.  1.
          2   -1    0    0  501    0  0.00000000000E+00 -0.00000000000E+00 -0.42682913305E+02  0.42682913381E+02  0.25500000000E-02 0. -1.
         24    2    1    2    0    0  0.00000000000E+00  0.00000000000E+00 -0.54421906777E+01  0.79923636349E+02  0.79738135217E+02 0.  0.
         66    2    3    3    0    0  0.20524309084E+02 -0.59883045226E+01 -0.36422895554E+02  0.42281608068E+02  0.20000014606E+01 0.  0.
        -13    1    3    3    0    0 -0.20524309084E+02  0.59883045226E+01  0.30980704877E+02  0.37642028281E+02  0.10566000000E+00 0.  1.
         13    1    4    4    0    0  0.85476285231E+01 -0.31178337099E+01 -0.14287130348E+02  0.16938597876E+02  0.10566000000E+00 0. -1.
        -13    1    4    4    0    0  0.46148605403E+01 -0.88573625983E+00 -0.78399417623E+01  0.91409691718E+01  0.10566000000E+00 0.  1.
         14    1    4    4    0    0  0.73618200201E+01 -0.19847345529E+01 -0.14295823444E+02  0.16202041020E+02  0.00000000000E+00 0. -1.
<mgrwt>
<rscale>  0 0.79738135E+02</rscale>
<asrwt>0</asrwt>
<pdfrwt beam="1">  1        2 0.65666020E-02 0.79738135E+02</pdfrwt>
<pdfrwt beam="2">  1       -1 0.57293420E-02 0.79738135E+02</pdfrwt>
<totfact> 0.14579192E+05</totfact>
</mgrwt>
</event>
<event>
 8    1  0.1520917E-017  0.7905809E+02  0.7818608E-02  0.1331746E+00
          2   -1    0    0  501    0  0.00000000000E+00  0.00000000000E+00  0.81345656817E+02  0.81345656857E+02  0.25500000000E-02 0. -1.
         -1   -1    0    0    0  501 -0.00000000000E+00 -0.00000000000E+00 -0.19208713580E+02  0.19208714241E+02  0.50400000000E-02 0.  1.
         24    2    1    2    0    0  0.00000000000E+00  0.00000000000E+00  0.62136943237E+02  0.10055437110E+03  0.79058091503E+02 0.  0.
         66    2    3    3    0    0  0.33072166817E+02  0.20195731554E+02  0.40850094669E+02  0.56341512370E+02  0.19999976704E+01 0.  0.
        -13    1    3    3    0    0 -0.33072166817E+02 -0.20195731554E+02  0.21286848568E+02  0.44212858728E+02  0.10566000000E+00 0.  1.
         13    1    4    4    0    0  0.18086263883E+02  0.11721383440E+02  0.22887191592E+02  0.31437850976E+02  0.10566000000E+00 0. -1.
        -13    1    4    4    0    0  0.38359987507E+00  0.30245224310E+00  0.35656076872E+00  0.61394286452E+00  0.10566000000E+00 0.  1.
        -14    1    4    4    0    0  0.14602303059E+02  0.81718958705E+01  0.17606342309E+02  0.24289718529E+02  0.00000000000E+00 0.  1.
<mgrwt>
<rscale>  0 0.79058092E+02</rscale>
<asrwt>0</asrwt>
<pdfrwt beam="1">  1        2 0.12514717E-01 0.79058092E+02</pdfrwt>
<pdfrwt beam="2">  1       -1 0.29551867E-02 0.79058092E+02</pdfrwt>
<totfact> 0.17310909E+05</totfact>
</mgrwt>
</event>
<event>
 8    1  0.1520917E-017  0.8444417E+02  0.7818608E-02  0.1316893E+00
          2   -1    0    0  501    0  0.00000000000E+00  0.00000000000E+00  0.15384444224E+04  0.15384444224E+04  0.25500000000E-02 0. -1.
         -1   -1    0    0    0  501 -0.00000000000E+00 -0.00000000000E+00 -0.11587654014E+01  0.11587763620E+01  0.50400000000E-02 0.  1.
         24    2    1    2    0    0 -0.35527136788E-14  0.00000000000E+00  0.15372856570E+04  0.15396031987E+04  0.84444173458E+02 0.  0.
         66    2    3    3    0    0 -0.19564294395E+02  0.13256790832E+02  0.14064689618E+04  0.14066689179E+04  0.19999998744E+01 0.  0.
        -13    1    3    3    0    0  0.19564294395E+02 -0.13256790832E+02  0.13081669516E+03  0.13293428081E+03  0.10566000000E+00 0.  1.
         13    1    4    4    0    0 -0.51965474959E+01  0.30645610887E+01  0.38624609539E+03  0.38629322155E+03  0.10566000000E+00 0. -1.
        -13    1    4    4    0    0 -0.79588617641E+01  0.57556114505E+01  0.53341491520E+03  0.53350534530E+03  0.10566000000E+00 0.  1.
        -14    1    4    4    0    0 -0.64088851346E+01  0.44366182931E+01  0.48680795123E+03  0.48687035109E+03  0.00000000000E+00 0.  1.
<mgrwt>
<rscale>  0 0.84444173E+02</rscale>
<asrwt>0</asrwt>
<pdfrwt beam="1">  1        2 0.23668388E+00 0.84444173E+02</pdfrwt>
<pdfrwt beam="2">  1       -1 0.17827235E-03 0.84444173E+02</pdfrwt>
<totfact> 0.28592646E+05</totfact>
</mgrwt>
</event>
<event>
 8    1  0.1520917E-017  0.8092509E+02  0.7818608E-02  0.1326446E+00
          2   -1    0    0  501    0  0.00000000000E+00  0.00000000000E+00  0.39322283143E+02  0.39322283226E+02  0.25500000000E-02 0. -1.
         -1   -1    0    0    0  501 -0.00000000000E+00 -0.00000000000E+00 -0.41635870416E+02  0.41635870721E+02  0.50400000000E-02 0.  1.
         24    2    1    2    0    0  0.00000000000E+00  0.17763568394E-14 -0.23135872731E+01  0.80958153947E+02  0.80925088844E+02 0.  0.
         66    2    3    3    0    0  0.19542880234E+02  0.14363094385E+02  0.31212945548E+02  0.39578663675E+02  0.20000000859E+01 0.  0.
        -13    1    3    3    0    0 -0.19542880234E+02 -0.14363094385E+02 -0.33526532821E+02  0.41379490272E+02  0.10566000000E+00 0.  1.
         13    1    4    4    0    0  0.37057055631E+01  0.29229835458E+01  0.66689313211E+01  0.81707952814E+01  0.10566000000E+00 0. -1.
        -13    1    4    4    0    0  0.21103837254E+00  0.41721367088E-01  0.46030621856E+00  0.51896408122E+00  0.10566000000E+00 0.  1.
         14    1    4    4    0    0  0.15626136298E+02  0.11398389472E+02  0.24083708009E+02  0.30888904312E+02  0.00000000000E+00 0. -1.
<mgrwt>
<rscale>  0 0.80925089E+02</rscale>
<asrwt>0</asrwt>
<pdfrwt beam="1">  1        2 0.60495820E-02 0.80925089E+02</pdfrwt>
<pdfrwt beam="2">  1       -1 0.64055186E-02 0.80925089E+02</pdfrwt>
<totfact> 0.13760189E+05</totfact>
</mgrwt>
</event>
<event>
 8    1  0.1520917E-017  0.7964586E+02  0.7818608E-02  0.1330059E+00
         -1   -1    0    0    0  501 -0.00000000000E+00  0.00000000000E+00  0.77124888094E+02  0.77124888259E+02  0.50400000000E-02 0.  1.
          2   -1    0    0  501    0  0.00000000000E+00 -0.00000000000E+00 -0.20562309187E+02  0.20562309345E+02  0.25500000000E-02 0. -1.
         24    2    1    2    0    0  0.00000000000E+00 -0.17763568394E-14  0.56562578907E+02  0.97687197604E+02  0.79645861430E+02 0.  0.
         66    2    3    3    0    0  0.35037624330E+02  0.13896093769E+02  0.43964195277E+02  0.57944689192E+02  0.19999996268E+01 0.  0.
        -13    1    3    3    0    0 -0.35037624330E+02 -0.13896093769E+02  0.12598383631E+02  0.39742508412E+02  0.10566000000E+00 0.  1.
         13    1    4    4    0    0  0.66409396325E+01  0.24159289988E+01  0.82440968907E+01  0.10858871475E+02  0.10566000000E+00 0. -1.
        -13    1    4    4    0    0  0.12736771553E+02  0.42745214190E+01  0.16053633166E+02  0.20933876488E+02  0.10566000000E+00 0.  1.
         14    1    4    4    0    0  0.15659913144E+02  0.72056433510E+01  0.19666465220E+02  0.26151941229E+02  0.00000000000E+00 0. -1.
<mgrwt>
<rscale>  0 0.79645861E+02</rscale>
<asrwt>0</asrwt>
<pdfrwt beam="1">  1        2 0.31634322E-02 0.79645861E+02</pdfrwt>
<pdfrwt beam="2">  1       -1 0.11865367E-01 0.79645861E+02</pdfrwt>
<totfact> 0.12645143E+05</totfact>
</mgrwt>
</event>
<event>
 8    1  0.1520917E-017  0.8111785E+02  0.7818608E-02  0.1325909E+00
          2   -1    0    0  501    0  0.00000000000E+00  0.00000000000E+00  0.71257519040E+03  0.71257519041E+03  0.25500000000E-02 0. -1.
         -1   -1    0    0    0  501 -0.00000000000E+00 -0.00000000000E+00 -0.23085626150E+01  0.23085681166E+01  0.50400000000E-02 0.  1.
         24    2    1    2    0    0 -0.17763568394E-14  0.00000000000E+00  0.71026662779E+03  0.71488375852E+03  0.81117850393E+02 0.  0.
         66    2    3    3    0    0 -0.12103918268E+02 -0.31012911886E+02  0.55913750334E+03  0.56013128210E+03  0.19999992364E+01 0.  0.
        -13    1    3    3    0    0  0.12103918268E+02  0.31012911886E+02  0.15112912445E+03  0.15475247643E+03  0.10566000000E+00 0.  1.
         13    1    4    4    0    0 -0.59984021586E+01 -0.13359686808E+02  0.25276338178E+03  0.25318728323E+03  0.10566000000E+00 0. -1.
        -13    1    4    4    0    0 -0.17516010945E+01 -0.56700932246E+01  0.92631463607E+02  0.92821426823E+02  0.10566000000E+00 0.  1.
         14    1    4    4    0    0 -0.43539150149E+01 -0.11983131853E+02  0.21374265796E+03  0.21412257204E+03  0.00000000000E+00 0. -1.
<mgrwt>
<rscale>  0 0.81117850E+02</rscale>
<asrwt>0</asrwt>
<pdfrwt beam="1">  1        2 0.10962704E+00 0.81117850E+02</pdfrwt>
<pdfrwt beam="2">  1       -1 0.35516363E-03 0.81117850E+02</pdfrwt>
<totfact> 0.32395670E+05</totfact>
</mgrwt>
</event>
<event>
 8    1  0.1520917E-017  0.7985152E+02  0.7818608E-02  0.1329473E+00
          2   -1    0    0  501    0  0.00000000000E+00  0.00000000000E+00  0.26819461548E+02  0.26819461669E+02  0.25500000000E-02 0. -1.
         -1   -1    0    0    0  501 -0.00000000000E+00 -0.00000000000E+00 -0.59436927606E+02  0.59436927820E+02  0.50400000000E-02 0.  1.
         24    2    1    2    0    0  0.00000000000E+00  0.00000000000E+00 -0.32617466058E+02  0.86256389489E+02  0.79851522438E+02 0.  0.
         66    2    3    3    0    0 -0.19487594855E+02  0.14179602219E+02  0.18031631029E+02  0.30165662340E+02  0.19999986372E+01 0.  0.
        -13    1    3    3    0    0  0.19487594855E+02 -0.14179602219E+02 -0.50649097087E+02  0.56090727149E+02  0.10566000000E+00 0.  1.
         13    1    4    4    0    0 -0.81412482671E+01  0.67672149192E+01  0.72339431743E+01  0.12822488799E+02  0.10566000000E+00 0. -1.
        -13    1    4    4    0    0 -0.79107081626E+01  0.53054516577E+01  0.79668590807E+01  0.12418096818E+02  0.10566000000E+00 0.  1.
        -14    1    4    4    0    0 -0.34356384256E+01  0.21069356420E+01  0.28308287737E+01  0.49250767239E+01  0.00000000000E+00 0.  1.
<mgrwt>
<rscale>  0 0.79851522E+02</rscale>
<asrwt>0</asrwt>
<pdfrwt beam="1">  1        2 0.41260710E-02 0.79851522E+02</pdfrwt>
<pdfrwt beam="2">  1       -1 0.91441428E-02 0.79851522E+02</pdfrwt>
<totfact> 0.13230529E+05</totfact>
</mgrwt>
</event>
<event>
 8    1  0.1520917E-017  0.7961723E+02  0.7818608E-02  0.1330141E+00
         -1   -1    0    0    0  501 -0.00000000000E+00  0.00000000000E+00  0.77887768257E+01  0.77887784563E+01  0.50400000000E-02 0.  1.
          2   -1    0    0  501    0  0.00000000000E+00 -0.00000000000E+00 -0.20346269925E+03  0.20346269927E+03  0.25500000000E-02 0. -1.
         24    2    1    2    0    0  0.00000000000E+00  0.17763568394E-14 -0.19567392243E+03  0.21125147773E+03  0.79617227552E+02 0.  0.
         66    2    3    3    0    0 -0.28896120421E+02  0.10554083979E+02 -0.16483140007E+03  0.16768948955E+03  0.19999985381E+01 0.  0.
        -13    1    3    3    0    0  0.28896120421E+02 -0.10554083979E+02 -0.30842522361E+02  0.43561988174E+02  0.10566000000E+00 0.  1.
         13    1    4    4    0    0 -0.89501939603E+01  0.32655348619E+01 -0.49098764629E+02  0.50014693261E+02  0.10566000000E+00 0. -1.
        -13    1    4    4    0    0 -0.59521586204E+01  0.14740900903E+01 -0.32241736851E+02  0.32819839930E+02  0.10566000000E+00 0.  1.
         14    1    4    4    0    0 -0.13993767841E+02  0.58144590264E+01 -0.83490898587E+02  0.84854956361E+02  0.00000000000E+00 0. -1.
<mgrwt>
<rscale>  0 0.79617228E+02</rscale>
<asrwt>0</asrwt>
<pdfrwt beam="1">  1        2 0.31301950E-01 0.79617228E+02</pdfrwt>
<pdfrwt beam="2">  1       -1 0.11982736E-02 0.79617228E+02</pdfrwt>
<totfact> 0.22473117E+05</totfact>
</mgrwt>
</event>
<event>
 8    1  0.1520917E-017  0.7978292E+02  0.7818608E-02  0.1329669E+00
          2   -1    0    0  501    0  0.00000000000E+00  0.00000000000E+00  0.64356688802E+03  0.64356688802E+03  0.25500000000E-02 0. -1.
         -1   -1    0    0    0  501 -0.00000000000E+00 -0.00000000000E+00 -0.24726673937E+01  0.24726725301E+01  0.50400000000E-02 0.  1.
         24    2    1    2    0    0  0.00000000000E+00  0.00000000000E+00  0.64109422063E+03  0.64603956055E+03  0.79782918484E+02 0.  0.
         66    2    3    3    0    0 -0.46128845622E+01 -0.37555592630E+02  0.42240984213E+03  0.42410585468E+03  0.20000006120E+01 0.  0.
        -13    1    3    3    0    0  0.46128845622E+01  0.37555592630E+02  0.21868437850E+03  0.22193370588E+03  0.10566000000E+00 0.  1.
         13    1    4    4    0    0 -0.15943201081E+01 -0.94460211468E+01  0.10333038844E+03  0.10377354919E+03  0.10566000000E+00 0. -1.
        -13    1    4    4    0    0 -0.22337697877E+01 -0.24851272019E+02  0.28179718056E+03  0.28289969527E+03  0.10566000000E+00 0.  1.
        -14    1    4    4    0    0 -0.78479466639E+00 -0.32582994647E+01  0.37282273128E+02  0.37432610217E+02  0.00000000000E+00 0.  1.
<mgrwt>
<rscale>  0 0.79782918E+02</rscale>
<asrwt>0</asrwt>
<pdfrwt beam="1">  1        2 0.99010244E-01 0.79782918E+02</pdfrwt>
<pdfrwt beam="2">  1       -1 0.38041095E-03 0.79782918E+02</pdfrwt>
<totfact> 0.33006195E+05</totfact>
</mgrwt>
</event>
<event>
 8    1  0.1520917E-017  0.7878010E+02  0.7818608E-02  0.1332549E+00
         -1   -1    0    0    0  501 -0.00000000000E+00  0.00000000000E+00  0.38232101867E+03  0.38232101870E+03  0.50400000000E-02 0.  1.
          2   -1    0    0  501    0  0.00000000000E+00 -0.00000000000E+00 -0.40583068830E+01  0.40583076841E+01  0.25500000000E-02 0. -1.
         24    2    1    2    0    0  0.00000000000E+00  0.00000000000E+00  0.37826271179E+03  0.38637932639E+03  0.78780103650E+02 0.  0.
         66    2    3    3    0    0  0.35765557867E+02 -0.16174213554E+02  0.17471122825E+03  0.17907761890E+03  0.20000000294E+01 0.  0.
        -13    1    3    3    0    0 -0.35765557867E+02  0.16174213554E+02  0.20355148353E+03  0.20730170749E+03  0.10566000000E+00 0.  1.
         13    1    4    4    0    0  0.16569891354E+02 -0.71284638065E+01  0.79367725077E+02  0.81391788551E+02  0.10566000000E+00 0. -1.
        -13    1    4    4    0    0  0.10129467431E+02 -0.40294082452E+01  0.48739633554E+02  0.49944021507E+02  0.10566000000E+00 0.  1.
        -14    1    4    4    0    0  0.90661990828E+01 -0.50163415021E+01  0.46603869623E+02  0.47741808844E+02  0.00000000000E+00 0.  1.
<mgrwt>
<rscale>  0 0.78780104E+02</rscale>
<asrwt>0</asrwt>
<pdfrwt beam="1">  1        2 0.62435476E-03 0.78780104E+02</pdfrwt>
<pdfrwt beam="2">  1       -1 0.58818638E-01 0.78780104E+02</pdfrwt>
<totfact> 0.80671350E+04</totfact>
</mgrwt>
</event>
<event>
 8    1  0.1520917E-017  0.8348863E+02  0.7818608E-02  0.1319433E+00
          2   -1    0    0  501    0  0.00000000000E+00  0.00000000000E+00  0.23545475222E+03  0.23545475224E+03  0.25500000000E-02 0. -1.
         -1   -1    0    0    0  501 -0.00000000000E+00 -0.00000000000E+00 -0.74009447947E+01  0.74009465108E+01  0.50400000000E-02 0.  1.
         24    2    1    2    0    0  0.00000000000E+00  0.00000000000E+00  0.22805380743E+03  0.24285569875E+03  0.83488629955E+02 0.  0.
         66    2    3    3    0    0  0.11374789545E+02 -0.96275208527E+01  0.22744423335E+03  0.22794068150E+03  0.20000006806E+01 0.  0.
        -13    1    3    3    0    0 -0.11374789545E+02  0.96275208527E+01  0.60957407800E+00  0.14915017249E+02  0.10566000000E+00 0.  1.
         13    1    4    4    0    0  0.52574451660E+01 -0.47377044365E+01  0.98268920405E+02  0.98523491892E+02  0.10566000000E+00 0. -1.
        -13    1    4    4    0    0  0.24971735417E+01 -0.15774644191E+01  0.41973038348E+02  0.42076969733E+02  0.10566000000E+00 0.  1.
         14    1    4    4    0    0  0.36201708369E+01 -0.33123519971E+01  0.87202274597E+02  0.87340219874E+02  0.00000000000E+00 0. -1.
<mgrwt>
<rscale>  0 0.83488630E+02</rscale>
<asrwt>0</asrwt>
<pdfrwt beam="1">  1        2 0.36223805E-01 0.83488630E+02</pdfrwt>
<pdfrwt beam="2">  1       -1 0.11386071E-02 0.83488630E+02</pdfrwt>
<totfact> 0.20875583E+05</totfact>
</mgrwt>
</event>
<event>
 8    1  0.1520917E-017  0.7902300E+02  0.7818608E-02  0.1331847E+00
         -1   -1    0    0    0  501 -0.00000000000E+00  0.00000000000E+00  0.74015342153E+02  0.74015342324E+02  0.50400000000E-02 0.  1.
          2   -1    0    0  501    0  0.00000000000E+00 -0.00000000000E+00 -0.21092367604E+02  0.21092367758E+02  0.25500000000E-02 0. -1.
         24    2    1    2    0    0  0.00000000000E+00  0.00000000000E+00  0.52922974549E+02  0.95107710082E+02  0.79023004764E+02 0.  0.
         66    2    3    3    0    0 -0.32163921158E+02 -0.22397236027E+02  0.32250370047E+02  0.50796066614E+02  0.20000023551E+01 0.  0.
        -13    1    3    3    0    0  0.32163921158E+02  0.22397236027E+02  0.20672604502E+02  0.44311643468E+02  0.10566000000E+00 0.  1.
         13    1    4    4    0    0 -0.22699087341E+02 -0.15559140834E+02  0.22260192086E+02  0.35395801239E+02  0.10566000000E+00 0. -1.
        -13    1    4    4    0    0 -0.42440811978E+01 -0.29007975098E+01  0.37747349988E+01  0.63786079792E+01  0.10566000000E+00 0.  1.
        -14    1    4    4    0    0 -0.52207526185E+01 -0.39372976833E+01  0.62154429624E+01  0.90216573959E+01  0.00000000000E+00 0.  1.
<mgrwt>
<rscale>  0 0.79023005E+02</rscale>
<asrwt>0</asrwt>
<pdfrwt beam="1">  1        2 0.32449796E-02 0.79023005E+02</pdfrwt>
<pdfrwt beam="2">  1       -1 0.11386976E-01 0.79023005E+02</pdfrwt>
<totfact> 0.12998032E+05</totfact>
</mgrwt>
</event>
<event>
 8    1  0.1520917E-017  0.7944371E+02  0.7818608E-02  0.1330638E+00
         -1   -1    0    0    0  501 -0.00000000000E+00  0.00000000000E+00  0.65875648515E+01  0.65875667795E+01  0.50400000000E-02 0.  1.
          2   -1    0    0  501    0  0.00000000000E+00 -0.00000000000E+00 -0.23951572987E+03  0.23951572989E+03  0.25500000000E-02 0. -1.
         24    2    1    2    0    0  0.00000000000E+00  0.00000000000E+00 -0.23292816502E+03  0.24610329667E+03  0.79443706923E+02 0.  0.
         66    2    3    3    0    0  0.33145166726E+02  0.21795300395E+02 -0.12111524545E+03  0.12746191542E+03  0.20000014369E+01 0.  0.
        -13    1    3    3    0    0 -0.33145166726E+02 -0.21795300395E+02 -0.11181291957E+03  0.11864138124E+03  0.10566000000E+00 0.  1.
         13    1    4    4    0    0  0.18939374911E+02  0.12309052430E+02 -0.66348705209E+02  0.70088333842E+02  0.10566000000E+00 0. -1.
        -13    1    4    4    0    0  0.47041440703E+01  0.31893303517E+01 -0.19379691585E+02  0.20196148383E+02  0.10566000000E+00 0.  1.
         14    1    4    4    0    0  0.95016477452E+01  0.62969176127E+01 -0.35386848659E+02  0.37177433199E+02  0.00000000000E+00 0. -1.
<mgrwt>
<rscale>  0 0.79443707E+02</rscale>
<asrwt>0</asrwt>
<pdfrwt beam="1">  1        2 0.36848567E-01 0.79443707E+02</pdfrwt>
<pdfrwt beam="2">  1       -1 0.10134718E-02 0.79443707E+02</pdfrwt>
<totfact> 0.23940942E+05</totfact>
</mgrwt>
</event>
<event>
 8    1  0.1520917E-017  0.7897095E+02  0.7818608E-02  0.1331997E+00
          2   -1    0    0  501    0  0.00000000000E+00  0.00000000000E+00  0.16177038784E+03  0.16177038786E+03  0.25500000000E-02 0. -1.
         -1   -1    0    0    0  501 -0.00000000000E+00 -0.00000000000E+00 -0.96377499376E+01  0.96377512554E+01  0.50400000000E-02 0.  1.
         24    2    1    2    0    0 -0.35527136788E-14  0.35527136788E-14  0.15213263790E+03  0.17140813912E+03  0.78970948075E+02 0.  0.
         66    2    3    3    0    0 -0.20222924817E+02  0.30926034587E+02  0.10616798729E+03  0.11243232565E+03  0.20000058476E+01 0.  0.
        -13    1    3    3    0    0  0.20222924817E+02 -0.30926034587E+02  0.45964650613E+02  0.58975813462E+02  0.10566000000E+00 0.  1.
         13    1    4    4    0    0 -0.12941130912E+02  0.19955677716E+02  0.65470875244E+02  0.69657365810E+02  0.10566000000E+00 0. -1.
        -13    1    4    4    0    0 -0.27468694923E+01  0.43123619040E+01  0.15747674375E+02  0.16557239186E+02  0.10566000000E+00 0.  1.
         14    1    4    4    0    0 -0.45349244126E+01  0.66579949675E+01  0.24949437671E+02  0.26217720658E+02  0.00000000000E+00 0. -1.
<mgrwt>
<rscale>  0 0.78970948E+02</rscale>
<asrwt>0</asrwt>
<pdfrwt beam="1">  1        2 0.24887752E-01 0.78970948E+02</pdfrwt>
<pdfrwt beam="2">  1       -1 0.14827309E-02 0.78970948E+02</pdfrwt>
<totfact> 0.21244864E+05</totfact>
</mgrwt>
</event>
<event>
 8    1  0.1520917E-017  0.7906017E+02  0.7818608E-02  0.1331740E+00
         -1   -1    0    0    0  501 -0.00000000000E+00  0.00000000000E+00  0.11410941851E+02  0.11410942964E+02  0.50400000000E-02 0.  1.
          2   -1    0    0  501    0  0.00000000000E+00 -0.00000000000E+00 -0.13694115118E+03  0.13694115121E+03  0.25500000000E-02 0. -1.
         24    2    1    2    0    0  0.17763568394E-14  0.17763568394E-14 -0.12553020933E+03  0.14835209417E+03  0.79060169428E+02 0.  0.
         66    2    3    3    0    0 -0.86335159247E+01 -0.79536508988E+01 -0.13358532986E+03  0.13411501966E+03  0.19999961241E+01 0.  0.
        -13    1    3    3    0    0  0.86335159247E+01  0.79536508988E+01  0.80551205295E+01  0.14237074511E+02  0.10566000000E+00 0.  1.
         13    1    4    4    0    0 -0.54235317841E+01 -0.58663404460E+01 -0.95781062134E+02  0.96113743423E+02  0.10566000000E+00 0. -1.
        -13    1    4    4    0    0 -0.88678927385E+00 -0.33222682391E+00 -0.92719636199E+01  0.93207962795E+01  0.10566000000E+00 0. -1.
         14    1    4    4    0    0 -0.23231948667E+01 -0.17550836289E+01 -0.28532304106E+02  0.28680479957E+02  0.00000000000E+00 0. -1.
<mgrwt>
<rscale>  0 0.79060169E+02</rscale>
<asrwt>0</asrwt>
<pdfrwt beam="1">  1        2 0.21067868E-01 0.79060169E+02</pdfrwt>
<pdfrwt beam="2">  1       -1 0.17555297E-02 0.79060169E+02</pdfrwt>
<totfact> 0.20079133E+05</totfact>
</mgrwt>
</event>
<event>
 8    1  0.1520917E-017  0.8047939E+02  0.7818608E-02  0.1327696E+00
          2   -1    0    0  501    0  0.00000000000E+00  0.00000000000E+00  0.44601090615E+02  0.44601090688E+02  0.25500000000E-02 0. -1.
         -1   -1    0    0    0  501 -0.00000000000E+00 -0.00000000000E+00 -0.36304782441E+02  0.36304782791E+02  0.50400000000E-02 0.  1.
         24    2    1    2    0    0  0.00000000000E+00  0.00000000000E+00  0.82963081738E+01  0.80905873479E+02  0.80479386392E+02 0.  0.
         66    2    3    3    0    0 -0.20873719790E+02 -0.18014410730E+02  0.33580351259E+02  0.43495645324E+02  0.19999998991E+01 0.  0.
        -13    1    3    3    0    0  0.20873719790E+02  0.18014410730E+02 -0.25284043085E+02  0.37410228155E+02  0.10566000000E+00 0.  1.
         13    1    4    4    0    0 -0.37512121944E+01 -0.38998713944E+01  0.73734525900E+01  0.91465598426E+01  0.10566000000E+00 0. -1.
        -13    1    4    4    0    0 -0.50531493493E+01 -0.39858229361E+01  0.81159008228E+01  0.10358576786E+02  0.10566000000E+00 0.  1.
         14    1    4    4    0    0 -0.12069358247E+02 -0.10128716399E+02  0.18090997846E+02  0.23990508695E+02  0.00000000000E+00 0. -1.
<mgrwt>
<rscale>  0 0.80479386E+02</rscale>
<asrwt>0</asrwt>
<pdfrwt beam="1">  1        2 0.68617063E-02 0.80479386E+02</pdfrwt>
<pdfrwt beam="2">  1       -1 0.55853512E-02 0.80479386E+02</pdfrwt>
<totfact> 0.14343943E+05</totfact>
</mgrwt>
</event>
<event>
 8    1  0.1520917E-017  0.8475460E+02  0.7818608E-02  0.1316076E+00
         -1   -1    0    0    0  501 -0.00000000000E+00  0.00000000000E+00  0.29839146459E+01  0.29839189023E+01  0.50400000000E-02 0.  1.
          2   -1    0    0  501    0  0.00000000000E+00 -0.00000000000E+00 -0.60183841412E+03  0.60183841412E+03  0.25500000000E-02 0. -1.
         24    2    1    2    0    0  0.00000000000E+00  0.35527136788E-14 -0.59885449947E+03  0.60482233302E+03  0.84754604527E+02 0.  0.
         66    2    3    3    0    0 -0.60172456799E+01 -0.23055714145E+02 -0.54946686884E+03  0.54998692089E+03  0.20000000646E+01 0.  0.
        -13    1    3    3    0    0  0.60172456799E+01  0.23055714145E+02 -0.49387630635E+02  0.54835412135E+02  0.10566000000E+00 0.  1.
         13    1    4    4    0    0 -0.24629123057E+01 -0.99975572787E+01 -0.25321978783E+03  0.25342906148E+03  0.10566000000E+00 0. -1.
        -13    1    4    4    0    0 -0.87835490264E+00 -0.33431606543E+01 -0.85794878980E+02  0.85864548294E+02  0.10566000000E+00 0.  1.
        -14    1    4    4    0    0 -0.26759784716E+01 -0.97149962117E+01 -0.21045220203E+03  0.21069331112E+03  0.00000000000E+00 0.  1.
<mgrwt>
<rscale>  0 0.84754605E+02</rscale>
<asrwt>0</asrwt>
<pdfrwt beam="1">  1        2 0.92590429E-01 0.84754605E+02</pdfrwt>
<pdfrwt beam="2">  1       -1 0.45906460E-03 0.84754605E+02</pdfrwt>
<totfact> 0.27688789E+05</totfact>
</mgrwt>
</event>
<event>
 8    1  0.1520917E-017  0.8281653E+02  0.7818608E-02  0.1321243E+00
          2   -1    0    0  501    0  0.00000000000E+00  0.00000000000E+00  0.14567250842E+04  0.14567250842E+04  0.25500000000E-02 0. -1.
         -1   -1    0    0    0  501 -0.00000000000E+00 -0.00000000000E+00 -0.11770488815E+01  0.11770596718E+01  0.50400000000E-02 0.  1.
         24    2    1    2    0    0  0.00000000000E+00 -0.17763568394E-14  0.14555480353E+04  0.14579021439E+04  0.82816532125E+02 0.  0.
         66    2    3    3    0    0  0.83572865857E+01  0.14961337607E+02  0.13913223323E+04  0.13914293077E+04  0.19999995378E+01 0.  0.
        -13    1    3    3    0    0 -0.83572865857E+01 -0.14961337607E+02  0.64225703029E+02  0.66472836224E+02  0.10566000000E+00 0.  1.
         13    1    4    4    0    0  0.30351421836E+01  0.60524581062E+01  0.56223174005E+03  0.56227251847E+03  0.10566000000E+00 0. -1.
        -13    1    4    4    0    0  0.10824546648E+01  0.10660748655E+01  0.97875250040E+02  0.97887098016E+02  0.10566000000E+00 0.  1.
        -14    1    4    4    0    0  0.42396897373E+01  0.78428046348E+01  0.73121534221E+03  0.73126969118E+03  0.00000000000E+00 0.  1.
<mgrwt>
<rscale>  0 0.82816532E+02</rscale>
<asrwt>0</asrwt>
<pdfrwt beam="1">  1        2 0.22411179E+00 0.82816532E+02</pdfrwt>
<pdfrwt beam="2">  1       -1 0.18108508E-03 0.82816532E+02</pdfrwt>
<totfact> 0.30705159E+05</totfact>
</mgrwt>
</event>
<event>
 8    1  0.1698350E-017  0.8010274E+02  0.7818608E-02  0.1328760E+00
         -1   -1    0    0    0  501 -0.00000000000E+00  0.00000000000E+00  0.41846125370E+01  0.41846155721E+01  0.50400000000E-02 0.  1.
          2   -1    0    0  501    0  0.00000000000E+00 -0.00000000000E+00 -0.38333578242E+03  0.38333578242E+03  0.25500000000E-02 0. -1.
         24    2    1    2    0    0  0.00000000000E+00  0.00000000000E+00 -0.37915116988E+03  0.38752039800E+03  0.80102741793E+02 0.  0.
         66    2    3    3    0    0 -0.34073496257E+02  0.11614143943E+02 -0.27435007604E+03  0.27670897295E+03  0.20000004537E+01 0.  0.
        -13    1    3    3    0    0  0.34073496257E+02 -0.11614143943E+02 -0.10480109384E+03  0.11081142504E+03  0.10566000000E+00 0.  1.
         13    1    4    4    0    0 -0.23161075900E+02  0.83536990915E+01 -0.18445032459E+03  0.18608641308E+03  0.10566000000E+00 0. -1.
        -13    1    4    4    0    0 -0.31241870186E+01  0.13134514851E+01 -0.25572443356E+02  0.25796254042E+02  0.10566000000E+00 0.  1.
        -14    1    4    4    0    0 -0.77882333380E+01  0.19469933659E+01 -0.64327308094E+02  0.64826305835E+02  0.00000000000E+00 0.  1.
<mgrwt>
<rscale>  0 0.80102742E+02</rscale>
<asrwt>0</asrwt>
<pdfrwt beam="1">  1        2 0.58974708E-01 0.80102742E+02</pdfrwt>
<pdfrwt beam="2">  1       -1 0.64378708E-03 0.80102742E+02</pdfrwt>
<totfact> 0.27740990E+05</totfact>
</mgrwt>
</event>
<event>
 8    1  0.1520917E-017  0.8087307E+02  0.7818608E-02  0.1326592E+00
         -1   -1    0    0    0  501 -0.00000000000E+00  0.00000000000E+00  0.81460102161E+01  0.81460117753E+01  0.50400000000E-02 0.  1.
          2   -1    0    0  501    0  0.00000000000E+00 -0.00000000000E+00 -0.20072564908E+03  0.20072564910E+03  0.25500000000E-02 0. -1.
         24    2    1    2    0    0  0.00000000000E+00  0.00000000000E+00 -0.19257963886E+03  0.20887166087E+03  0.80873069747E+02 0.  0.
         66    2    3    3    0    0  0.33839634104E+02  0.10231393654E+02 -0.14691336482E+03  0.15112027992E+03  0.19999971616E+01 0.  0.
        -13    1    3    3    0    0 -0.33839634104E+02 -0.10231393654E+02 -0.45666274043E+02  0.57751380948E+02  0.10566000000E+00 0.  1.
         13    1    4    4    0    0  0.39931472605E+01  0.86385823228E+00 -0.19117485794E+02  0.19549447645E+02  0.10566000000E+00 0. -1.
        -13    1    4    4    0    0  0.20566230988E+02  0.67760016883E+01 -0.87901445195E+02  0.90529328327E+02  0.10566000000E+00 0.  1.
         14    1    4    4    0    0  0.92802558563E+01  0.25915337336E+01 -0.39894433831E+02  0.41041503951E+02  0.00000000000E+00 0. -1.
<mgrwt>
<rscale>  0 0.80873070E+02</rscale>
<asrwt>0</asrwt>
<pdfrwt beam="1">  1        2 0.30880865E-01 0.80873070E+02</pdfrwt>
<pdfrwt beam="2">  1       -1 0.12532326E-02 0.80873070E+02</pdfrwt>
<totfact> 0.21462425E+05</totfact>
</mgrwt>
</event>
<event>
 8    1  0.1520917E-017  0.8043807E+02  0.7818608E-02  0.1327813E+00
          2   -1    0    0  501    0  0.00000000000E+00  0.00000000000E+00  0.24070596984E+03  0.24070596985E+03  0.25500000000E-02 0. -1.
         -1   -1    0    0    0  501 -0.00000000000E+00 -0.00000000000E+00 -0.67201095967E+01  0.67201114867E+01  0.50400000000E-02 0.  1.
         24    2    1    2    0    0 -0.71054273576E-14  0.00000000000E+00  0.23398586024E+03  0.24742608134E+03  0.80438068932E+02 0.  0.
         66    2    3    3    0    0  0.38719982150E+02  0.77818976289E+01  0.14003644754E+03  0.14551289151E+03  0.20000024696E+01 0.  0.
        -13    1    3    3    0    0 -0.38719982150E+02 -0.77818976289E+01  0.93949412709E+02  0.10191318983E+03  0.10566000000E+00 0.  1.
         13    1    4    4    0    0  0.18299473270E+02  0.36028065800E+01  0.63530168332E+02  0.66211361484E+02  0.10566000000E+00 0. -1.
        -13    1    4    4    0    0  0.52412951904E+01  0.13610395178E+01  0.18602185516E+02  0.19374624483E+02  0.10566000000E+00 0.  1.
         14    1    4    4    0    0  0.15179213690E+02  0.28180515312E+01  0.57904093688E+02  0.59926905547E+02  0.00000000000E+00 0. -1.
<mgrwt>
<rscale>  0 0.80438069E+02</rscale>
<asrwt>0</asrwt>
<pdfrwt beam="1">  1        2 0.37031690E-01 0.80438069E+02</pdfrwt>
<pdfrwt beam="2">  1       -1 0.10338631E-02 0.80438069E+02</pdfrwt>
<totfact> 0.23211290E+05</totfact>
</mgrwt>
</event>
<event>
 8    1  0.1520917E-017  0.8348837E+02  0.7818608E-02  0.1319434E+00
         -1   -1    0    0    0  501 -0.00000000000E+00  0.00000000000E+00  0.36546004232E+01  0.36546038985E+01  0.50400000000E-02 0.  1.
          2   -1    0    0  501    0  0.00000000000E+00 -0.00000000000E+00 -0.47681716722E+03  0.47681716723E+03  0.25500000000E-02 0. -1.
         24    2    1    2    0    0  0.00000000000E+00  0.00000000000E+00 -0.47316256680E+03  0.48047177113E+03  0.83488371829E+02 0.  0.
         66    2    3    3    0    0  0.39250212077E+02 -0.19428170335E+01 -0.31733089920E+03  0.31976124416E+03  0.19999990625E+01 0.  0.
        -13    1    3    3    0    0 -0.39250212077E+02  0.19428170335E+01 -0.15583166760E+03  0.16071052696E+03  0.10566000000E+00 0.  1.
         13    1    4    4    0    0  0.33980522664E+02 -0.12696004909E+01 -0.27164310311E+03  0.27376317217E+03  0.10566000000E+00 0. -1.
        -13    1    4    4    0    0  0.98310335120E+00 -0.22228522054E-01 -0.95684990149E+01  0.96194762717E+01  0.10566000000E+00 0.  1.
        -14    1    4    4    0    0  0.42865860621E+01 -0.65098802064E+00 -0.36119297079E+02  0.36378595725E+02  0.00000000000E+00 0.  1.
<mgrwt>
<rscale>  0 0.83488372E+02</rscale>
<asrwt>0</asrwt>
<pdfrwt beam="1">  1        2 0.73356438E-01 0.83488372E+02</pdfrwt>
<pdfrwt beam="2">  1       -1 0.56224687E-03 0.83488372E+02</pdfrwt>
<totfact> 0.26823690E+05</totfact>
</mgrwt>
</event>
<event>
 8    1  0.1520917E-017  0.7951090E+02  0.7818608E-02  0.1330445E+00
          2   -1    0    0  501    0  0.00000000000E+00  0.00000000000E+00  0.13930372261E+04  0.13930372261E+04  0.25500000000E-02 0. -1.
         -1   -1    0    0    0  501 -0.00000000000E+00 -0.00000000000E+00 -0.11345625377E+01  0.11345737321E+01  0.50400000000E-02 0.  1.
         24    2    1    2    0    0  0.00000000000E+00  0.00000000000E+00  0.13919026636E+04  0.13941717999E+04  0.79510896246E+02 0.  0.
         66    2    3    3    0    0 -0.66246714493E+01  0.21461713741E+02  0.12710248641E+04  0.12712248804E+04  0.19999981428E+01 0.  0.
        -13    1    3    3    0    0  0.66246714493E+01 -0.21461713741E+02  0.12087779952E+03  0.12294691948E+03  0.10566000000E+00 0.  1.
         13    1    4    4    0    0 -0.20016288281E+01  0.57180166266E+01  0.29733231309E+03  0.29739404467E+03  0.10566000000E+00 0. -1.
        -13    1    4    4    0    0 -0.27208329427E+01  0.94369034566E+01  0.58915894638E+03  0.58924081100E+03  0.10566000000E+00 0.  1.
         14    1    4    4    0    0 -0.19022096785E+01  0.63067936578E+01  0.38453360461E+03  0.38459002473E+03  0.00000000000E+00 0. -1.
<mgrwt>
<rscale>  0 0.79510896E+02</rscale>
<asrwt>0</asrwt>
<pdfrwt beam="1">  1        2 0.21431494E+00 0.79510896E+02</pdfrwt>
<pdfrwt beam="2">  1       -1 0.17454770E-03 0.79510896E+02</pdfrwt>
<totfact> 0.34607959E+05</totfact>
</mgrwt>
</event>
<event>
 8    1  0.1520917E-017  0.7981261E+02  0.7818608E-02  0.1329584E+00
          2   -1    0    0  501    0  0.00000000000E+00  0.00000000000E+00  0.27154848444E+02  0.27154848563E+02  0.25500000000E-02 0. -1.
         -1   -1    0    0    0  501 -0.00000000000E+00 -0.00000000000E+00 -0.58645628437E+02  0.58645628654E+02  0.50400000000E-02 0.  1.
         24    2    1    2    0    0  0.35527136788E-14 -0.35527136788E-14 -0.31490779994E+02  0.85800477217E+02  0.79812609694E+02 0.  0.
         66    2    3    3    0    0 -0.21477027624E+02  0.23500337016E+02  0.10067259267E+02  0.33449638192E+02  0.20000076413E+01 0.  0.
        -13    1    3    3    0    0  0.21477027624E+02 -0.23500337016E+02 -0.41558039261E+02  0.52350839026E+02  0.10566000000E+00 0.  1.
         13    1    4    4    0    0 -0.13378397173E+02  0.13988004383E+02  0.56511785826E+01  0.20164145430E+02  0.10566000000E+00 0. -1.
        -13    1    4    4    0    0 -0.11895646951E+01  0.11079203446E+01  0.84163468843E+00  0.18335933677E+01  0.10566000000E+00 0.  1.
         14    1    4    4    0    0 -0.69090657555E+01  0.84044122891E+01  0.35744459961E+01  0.11451899393E+02  0.00000000000E+00 0. -1.
<mgrwt>
<rscale>  0 0.79812610E+02</rscale>
<asrwt>0</asrwt>
<pdfrwt beam="1">  1        2 0.41776690E-02 0.79812610E+02</pdfrwt>
<pdfrwt beam="2">  1       -1 0.90224044E-02 0.79812610E+02</pdfrwt>
<totfact> 0.13281143E+05</totfact>
</mgrwt>
</event>
<event>
 8    1  0.1520917E-017  0.7935700E+02  0.7818608E-02  0.1330886E+00
          2   -1    0    0  501    0  0.00000000000E+00  0.00000000000E+00  0.25313706323E+02  0.25313706452E+02  0.25500000000E-02 0. -1.
         -1   -1    0    0    0  501 -0.00000000000E+00 -0.00000000000E+00 -0.62194899254E+02  0.62194899458E+02  0.50400000000E-02 0.  1.
         24    2    1    2    0    0 -0.35527136788E-14  0.17763568394E-14 -0.36881192931E+02  0.87508605909E+02  0.79357001684E+02 0.  0.
         66    2    3    3    0    0  0.17591381587E+02 -0.15878521568E+02  0.16606512371E+02  0.29006213345E+02  0.20000015430E+01 0.  0.
        -13    1    3    3    0    0 -0.17591381587E+02  0.15878521568E+02 -0.53487705301E+02  0.58502392564E+02  0.10566000000E+00 0.  1.
         13    1    4    4    0    0  0.81002287418E+01 -0.74555077954E+01  0.82221561675E+01  0.13740935857E+02  0.10566000000E+00 0. -1.
        -13    1    4    4    0    0  0.10912728326E+01 -0.70925772842E+00  0.48801126396E+00  0.13940021341E+01  0.10566000000E+00 0.  1.
        -14    1    4    4    0    0  0.83998800129E+01 -0.77137560439E+01  0.78963449392E+01  0.13871275354E+02  0.00000000000E+00 0.  1.
<mgrwt>
<rscale>  0 0.79357002E+02</rscale>
<asrwt>0</asrwt>
<pdfrwt beam="1">  1        2 0.38944164E-02 0.79357002E+02</pdfrwt>
<pdfrwt beam="2">  1       -1 0.95684461E-02 0.79357002E+02</pdfrwt>
<totfact> 0.13312687E+05</totfact>
</mgrwt>
</event>
<event>
 8    1  0.1520917E-017  0.7524471E+02  0.7818608E-02  0.1343115E+00
          2   -1    0    0  501    0  0.00000000000E+00  0.00000000000E+00  0.50449552612E+03  0.50449552613E+03  0.25500000000E-02 0. -1.
         -1   -1    0    0    0  501 -0.00000000000E+00 -0.00000000000E+00 -0.28056553454E+01  0.28056598723E+01  0.50400000000E-02 0.  1.
         24    2    1    2    0    0  0.71054273576E-14  0.00000000000E+00  0.50168987078E+03  0.50730118600E+03  0.75244713289E+02 0.  0.
         66    2    3    3    0    0  0.33599050280E+02 -0.95748060535E+01  0.34465169448E+03  0.34642367649E+03  0.20000069601E+01 0.  0.
        -13    1    3    3    0    0 -0.33599050280E+02  0.95748060535E+01  0.15703817629E+03  0.16087750952E+03  0.10566000000E+00 0.  1.
         13    1    4    4    0    0  0.89997451833E+01 -0.18844644504E+01  0.89187649145E+02  0.89660440238E+02  0.10566000000E+00 0. -1.
        -13    1    4    4    0    0  0.16659829493E+02 -0.53079469967E+01  0.16822728520E+03  0.16913354153E+03  0.10566000000E+00 0.  1.
        -14    1    4    4    0    0  0.79394756038E+01 -0.23823946064E+01  0.87236760140E+02  0.87629694720E+02  0.00000000000E+00 0.  1.
<mgrwt>
<rscale>  0 0.75244713E+02</rscale>
<asrwt>0</asrwt>
<pdfrwt beam="1">  1        2 0.77614782E-01 0.75244713E+02</pdfrwt>
<pdfrwt beam="2">  1       -1 0.43163916E-03 0.75244713E+02</pdfrwt>
<totfact> 0.35808361E+05</totfact>
</mgrwt>
</event>
<event>
 8    1  0.1520917E-017  0.7933831E+02  0.7818608E-02  0.1330940E+00
          2   -1    0    0  501    0  0.00000000000E+00  0.00000000000E+00  0.79869957161E+03  0.79869957161E+03  0.25500000000E-02 0. -1.
         -1   -1    0    0    0  501 -0.00000000000E+00 -0.00000000000E+00 -0.19702518182E+01  0.19702582645E+01  0.50400000000E-02 0.  1.
         24    2    1    2    0    0  0.00000000000E+00 -0.35527136788E-14  0.79672931979E+03  0.80066982988E+03  0.79338310178E+02 0.  0.
         66    2    3    3    0    0  0.11943241182E+02 -0.20812389331E+02  0.71708479229E+03  0.71748895176E+03  0.20000009715E+01 0.  0.
        -13    1    3    3    0    0 -0.11943241182E+02  0.20812389331E+02  0.79644527497E+02  0.83180878115E+02  0.10566000000E+00 0.  1.
         13    1    4    4    0    0  0.12873252225E+00 -0.24107542622E+00  0.15614676962E+02  0.15617425847E+02  0.10566000000E+00 0. -1.
        -13    1    4    4    0    0  0.79426918919E+00 -0.17327823916E+01  0.56943181730E+02  0.56975174488E+02  0.10566000000E+00 0.  1.
         14    1    4    4    0    0  0.11020239471E+02 -0.18838531513E+02  0.64452693360E+03  0.64489635143E+03  0.00000000000E+00 0. -1.
<mgrwt>
<rscale>  0 0.79338310E+02</rscale>
<asrwt>0</asrwt>
<pdfrwt beam="1">  1        2 0.12287690E+00 0.79338310E+02</pdfrwt>
<pdfrwt beam="2">  1       -1 0.30311607E-03 0.79338310E+02</pdfrwt>
<totfact> 0.35104957E+05</totfact>
</mgrwt>
</event>
<event>
 8    1  0.1520917E-017  0.7885168E+02  0.7818608E-02  0.1332342E+00
         -1   -1    0    0    0  501 -0.00000000000E+00  0.00000000000E+00  0.13131824359E+01  0.13131921076E+01  0.50400000000E-02 0.  1.
          2   -1    0    0  501    0  0.00000000000E+00 -0.00000000000E+00 -0.11836826424E+04  0.11836826424E+04  0.25500000000E-02 0. -1.
         24    2    1    2    0    0  0.35527136788E-14 -0.17763568394E-14 -0.11823694600E+04  0.11849958345E+04  0.78851683250E+02 0.  0.
         66    2    3    3    0    0  0.13843912856E+02 -0.89064533784E+01 -0.11295245797E+04  0.11296462964E+04  0.19999984537E+01 0.  0.
        -13    1    3    3    0    0 -0.13843912856E+02  0.89064533784E+01 -0.52844880326E+02  0.55349538170E+02  0.10566000000E+00 0.  1.
         13    1    4    4    0    0  0.77254050052E+01 -0.52033461392E+01 -0.67393112392E+03  0.67399549527E+03  0.10566000000E+00 0. -1.
        -13    1    4    4    0    0  0.47565086696E+01 -0.23429016811E+01 -0.33692839395E+03  0.33697012832E+03  0.10566000000E+00 0.  1.
         14    1    4    4    0    0  0.13619991808E+01 -0.13602055580E+01 -0.11866506179E+03  0.11868067278E+03  0.00000000000E+00 0. -1.
<mgrwt>
<rscale>  0 0.78851683E+02</rscale>
<asrwt>0</asrwt>
<pdfrwt beam="1">  1        2 0.18210417E+00 0.78851683E+02</pdfrwt>
<pdfrwt beam="2">  1       -1 0.20202976E-03 0.78851683E+02</pdfrwt>
<totfact> 0.36428887E+05</totfact>
</mgrwt>
</event>
<event>
 8    1  0.1520917E-017  0.7581095E+02  0.7818608E-02  0.1341378E+00
         -1   -1    0    0    0  501 -0.00000000000E+00  0.00000000000E+00  0.31057745886E+02  0.31057746295E+02  0.50400000000E-02 0.  1.
          2   -1    0    0  501    0  0.00000000000E+00 -0.00000000000E+00 -0.46263017017E+02  0.46263017087E+02  0.25500000000E-02 0. -1.
         24    2    1    2    0    0  0.00000000000E+00  0.17763568394E-14 -0.15205271130E+02  0.77320763382E+02  0.75810950264E+02 0.  0.
         66    2    3    3    0    0  0.59254034653E+00 -0.12772224200E+02 -0.43973861933E+02  0.45838644713E+02  0.20000001706E+01 0.  0.
        -13    1    3    3    0    0 -0.59254034653E+00  0.12772224200E+02  0.28768590803E+02  0.31482118669E+02  0.10566000000E+00 0.  1.
         13    1    4    4    0    0 -0.40732999358E+00 -0.72336811534E+01 -0.23101549830E+02  0.24211254187E+02  0.10566000000E+00 0. -1.
        -13    1    4    4    0    0  0.56223664971E+00 -0.27352299374E+01 -0.91891244146E+01  0.96046220333E+01  0.10566000000E+00 0.  1.
         14    1    4    4    0    0  0.43763369040E+00 -0.28033131095E+01 -0.11683187689E+02  0.12022768492E+02  0.00000000000E+00 0. -1.
<mgrwt>
<rscale>  0 0.75810950E+02</rscale>
<asrwt>0</asrwt>
<pdfrwt beam="1">  1        2 0.71173873E-02 0.75810950E+02</pdfrwt>
<pdfrwt beam="2">  1       -1 0.47781148E-02 0.75810950E+02</pdfrwt>
<totfact> 0.17025709E+05</totfact>
</mgrwt>
</event>
<event>
 8    1  0.1520917E-017  0.7999536E+02  0.7818608E-02  0.1329065E+00
          2   -1    0    0  501    0  0.00000000000E+00  0.00000000000E+00  0.33770430002E+03  0.33770430003E+03  0.25500000000E-02 0. -1.
         -1   -1    0    0    0  501 -0.00000000000E+00 -0.00000000000E+00 -0.47373215865E+01  0.47373242675E+01  0.50400000000E-02 0.  1.
         24    2    1    2    0    0  0.22204460493E-15 -0.17763568394E-14  0.33296697844E+03  0.34244162430E+03  0.79995358142E+02 0.  0.
         66    2    3    3    0    0  0.15728058037E+01 -0.11135932013E+02  0.33078845863E+03  0.33098562969E+03  0.19999997986E+01 0.  0.
        -13    1    3    3    0    0 -0.15728058037E+01  0.11135932013E+02  0.21785198062E+01  0.11455994609E+02  0.10566000000E+00 0.  1.
         13    1    4    4    0    0  0.10144905863E+01 -0.92131554260E+01  0.26797273276E+03  0.26813300448E+03  0.10566000000E+00 0. -1.
        -13    1    4    4    0    0  0.59052169138E+00 -0.68456834437E+00  0.28642454852E+02  0.28656914239E+02  0.10566000000E+00 0.  1.
        -14    1    4    4    0    0 -0.32206473971E-01 -0.12382082428E+01  0.34173271023E+02  0.34195710978E+02  0.00000000000E+00 0.  1.
<mgrwt>
<rscale>  0 0.79995358E+02</rscale>
<asrwt>0</asrwt>
<pdfrwt beam="1">  1        2 0.51954523E-01 0.79995358E+02</pdfrwt>
<pdfrwt beam="2">  1       -1 0.72881870E-03 0.79995358E+02</pdfrwt>
<totfact> 0.26610849E+05</totfact>
</mgrwt>
</event>
<event>
 8    1  0.1520917E-017  0.7820072E+02  0.7818608E-02  0.1334236E+00
         -1   -1    0    0    0  501 -0.00000000000E+00  0.00000000000E+00  0.56781803379E+01  0.56781825747E+01  0.50400000000E-02 0.  1.
          2   -1    0    0  501    0  0.00000000000E+00 -0.00000000000E+00 -0.26924783073E+03  0.26924783074E+03  0.25500000000E-02 0. -1.
         24    2    1    2    0    0  0.00000000000E+00 -0.88817841970E-15 -0.26356965039E+03  0.27492601331E+03  0.78200717326E+02 0.  0.
         66    2    3    3    0    0  0.38368248120E+02 -0.53807602202E+01 -0.14971353337E+03  0.15465838845E+03  0.19999996237E+01 0.  0.
        -13    1    3    3    0    0 -0.38368248120E+02  0.53807602202E+01 -0.11385611702E+03  0.12026762486E+03  0.10566000000E+00 0.  1.
         13    1    4    4    0    0  0.18247218769E+02 -0.29789736824E+01 -0.70463622620E+02  0.72848943395E+02  0.10566000000E+00 0. -1.
        -13    1    4    4    0    0  0.10852942026E+02 -0.92705181992E+00 -0.44626880485E+02  0.45937080900E+02  0.10566000000E+00 0.  1.
        -14    1    4    4    0    0  0.92680873261E+01 -0.14747347179E+01 -0.34623030265E+02  0.35872364153E+02  0.00000000000E+00 0.  1.
<mgrwt>
<rscale>  0 0.78200717E+02</rscale>
<asrwt>0</asrwt>
<pdfrwt beam="1">  1        2 0.41422733E-01 0.78200717E+02</pdfrwt>
<pdfrwt beam="2">  1       -1 0.87356659E-03 0.78200717E+02</pdfrwt>
<totfact> 0.26022270E+05</totfact>
</mgrwt>
</event>
<event>
 8    1  0.1520917E-017  0.8108503E+02  0.7818608E-02  0.1326000E+00
          2   -1    0    0  501    0  0.00000000000E+00  0.00000000000E+00  0.62901285210E+02  0.62901285261E+02  0.25500000000E-02 0. -1.
         -1   -1    0    0    0  501 -0.00000000000E+00 -0.00000000000E+00 -0.26131346767E+02  0.26131347253E+02  0.50400000000E-02 0.  1.
         24    2    1    2    0    0  0.00000000000E+00 -0.44408920985E-15  0.36769938442E+02  0.89032632515E+02  0.81085025001E+02 0.  0.
         66    2    3    3    0    0 -0.37397310691E+02  0.38892695935E+01  0.34975981439E+02  0.51390704952E+02  0.20000032311E+01 0.  0.
        -13    1    3    3    0    0  0.37397310691E+02 -0.38892695935E+01  0.17939570036E+01  0.37641927563E+02  0.10566000000E+00 0.  1.
         13    1    4    4    0    0 -0.40545594693E+01  0.24930508267E+00  0.33107435871E+01  0.52415448724E+01  0.10566000000E+00 0. -1.
        -13    1    4    4    0    0 -0.24219101135E+02  0.20152354989E+01  0.23116065997E+02  0.33540866195E+02  0.10566000000E+00 0.  1.
        -14    1    4    4    0    0 -0.91236500870E+01  0.16247290119E+01  0.85491718546E+01  0.12608293884E+02  0.00000000000E+00 0.  1.
<mgrwt>
<rscale>  0 0.81085025E+02</rscale>
<asrwt>0</asrwt>
<pdfrwt beam="1">  1        2 0.96771208E-02 0.81085025E+02</pdfrwt>
<pdfrwt beam="2">  1       -1 0.40202072E-02 0.81085025E+02</pdfrwt>
<totfact> 0.15172315E+05</totfact>
</mgrwt>
</event>
<event>
 8    1  0.1520917E-017  0.8744520E+02  0.7818608E-02  0.1309159E+00
         -1   -1    0    0    0  501 -0.00000000000E+00  0.00000000000E+00  0.24158812290E+02  0.24158812816E+02  0.50400000000E-02 0.  1.
          2   -1    0    0  501    0  0.00000000000E+00 -0.00000000000E+00 -0.79129126303E+02  0.79129126344E+02  0.25500000000E-02 0. -1.
         24    2    1    2    0    0  0.00000000000E+00  0.00000000000E+00 -0.54970314013E+02  0.10328793916E+03  0.87445199716E+02 0.  0.
         66    2    3    3    0    0 -0.20178897674E+02  0.85323641361E+01 -0.72160836839E+02  0.75439880195E+02  0.20000003375E+01 0.  0.
        -13    1    3    3    0    0  0.20178897674E+02 -0.85323641361E+01  0.17190522826E+02  0.27848058966E+02  0.10566000000E+00 0.  1.
         13    1    4    4    0    0 -0.15479377915E+02  0.57639108458E+01 -0.55579959461E+02  0.57982556572E+02  0.10566000000E+00 0. -1.
        -13    1    4    4    0    0 -0.15772167419E+01  0.81357377894E+00 -0.54840454272E+01  0.57650180596E+01  0.10566000000E+00 0. -1.
         14    1    4    4    0    0 -0.31223030166E+01  0.19548795113E+01 -0.11096831951E+02  0.11692305563E+02  0.00000000000E+00 0. -1.
<mgrwt>
<rscale>  0 0.87445200E+02</rscale>
<asrwt>0</asrwt>
<pdfrwt beam="1">  1        2 0.12173712E-01 0.87445200E+02</pdfrwt>
<pdfrwt beam="2">  1       -1 0.37167404E-02 0.87445200E+02</pdfrwt>
<totfact> 0.13079047E+05</totfact>
</mgrwt>
</event>
<event>
 8    1  0.1520917E-017  0.7786107E+02  0.7818608E-02  0.1335233E+00
         -1   -1    0    0    0  501 -0.00000000000E+00  0.00000000000E+00  0.30095197011E+01  0.30095239213E+01  0.50400000000E-02 0.  1.
          2   -1    0    0  501    0  0.00000000000E+00 -0.00000000000E+00 -0.50359712369E+03  0.50359712370E+03  0.25500000000E-02 0. -1.
         24    2    1    2    0    0  0.00000000000E+00  0.00000000000E+00 -0.50058760399E+03  0.50660664762E+03  0.77861069497E+02 0.  0.
         66    2    3    3    0    0 -0.23949322455E+02  0.26606276405E+02 -0.34958836611E+03  0.35142209622E+03  0.19999995180E+01 0.  0.
        -13    1    3    3    0    0  0.23949322455E+02 -0.26606276405E+02 -0.15099923787E+03  0.15518455140E+03  0.10566000000E+00 0.  1.
         13    1    4    4    0    0 -0.48973439262E+01  0.48403517322E+01 -0.70189571709E+02  0.70526591604E+02  0.10566000000E+00 0. -1.
        -13    1    4    4    0    0 -0.18743071023E+02  0.21622343802E+02 -0.27648985141E+03  0.27796668426E+03  0.10566000000E+00 0.  1.
        -14    1    4    4    0    0 -0.30890750504E+00  0.14358087088E+00 -0.29089429925E+01  0.29288203508E+01  0.00000000000E+00 0.  1.
<mgrwt>
<rscale>  0 0.77861069E+02</rscale>
<asrwt>0</asrwt>
<pdfrwt beam="1">  1        2 0.77476414E-01 0.77861069E+02</pdfrwt>
<pdfrwt beam="2">  1       -1 0.46300376E-03 0.77861069E+02</pdfrwt>
<totfact> 0.32751216E+05</totfact>
</mgrwt>
</event>
<event>
 8    1  0.1520917E-017  0.8013882E+02  0.7818608E-02  0.1328658E+00
         -1   -1    0    0    0  501 -0.00000000000E+00  0.00000000000E+00  0.76518091773E+00  0.76519751598E+00  0.50400000000E-02 0.  1.
          2   -1    0    0  501    0  0.00000000000E+00 -0.00000000000E+00 -0.20982492393E+04  0.20982492393E+04  0.25500000000E-02 0. -1.
         24    2    1    2    0    0  0.00000000000E+00  0.00000000000E+00 -0.20974840584E+04  0.20990144368E+04  0.80138822057E+02 0.  0.
         66    2    3    3    0    0  0.58128156254E+01 -0.10609664639E+02 -0.20492365903E+04  0.20492732753E+04  0.20000017374E+01 0.  0.
        -13    1    3    3    0    0 -0.58128156254E+01  0.10609664639E+02 -0.48247468104E+02  0.49741161544E+02  0.10566000000E+00 0.  1.
         13    1    4    4    0    0  0.31092241062E+01 -0.66768109411E+01 -0.11700534564E+04  0.11700766424E+04  0.10566000000E+00 0. -1.
        -13    1    4    4    0    0  0.15095273487E+01 -0.16503755922E+01 -0.47641246718E+03  0.47641772896E+03  0.10566000000E+00 0.  1.
        -14    1    4    4    0    0  0.11940641705E+01 -0.22824781053E+01 -0.40277066675E+03  0.40277890398E+03  0.00000000000E+00 0.  1.
<mgrwt>
<rscale>  0 0.80138822E+02</rscale>
<asrwt>0</asrwt>
<pdfrwt beam="1">  1        2 0.32280297E+00 0.80138822E+02</pdfrwt>
<pdfrwt beam="2">  1       -1 0.11772310E-03 0.80138822E+02</pdfrwt>
<totfact> 0.26355531E+05</totfact>
</mgrwt>
</event>
<event>
 8    1  0.1520917E-017  0.7927052E+02  0.7818608E-02  0.1331134E+00
          2   -1    0    0  501    0  0.00000000000E+00  0.00000000000E+00  0.28774994121E+03  0.28774994122E+03  0.25500000000E-02 0. -1.
         -1   -1    0    0    0  501 -0.00000000000E+00 -0.00000000000E+00 -0.54594394584E+01  0.54594417848E+01  0.50400000000E-02 0.  1.
         24    2    1    2    0    0  0.00000000000E+00  0.35527136788E-14  0.28229050175E+03  0.29320938301E+03  0.79270517241E+02 0.  0.
         66    2    3    3    0    0 -0.12128975545E+02 -0.20902066446E+02  0.25731851871E+03  0.25845856243E+03  0.19999985806E+01 0.  0.
        -13    1    3    3    0    0  0.12128975545E+02  0.20902066446E+02  0.24971983044E+02  0.34750820576E+02  0.10566000000E+00 0.  1.
         13    1    4    4    0    0 -0.46059405682E+01 -0.84656002164E+01  0.97478570639E+02  0.97953886974E+02  0.10566000000E+00 0. -1.
        -13    1    4    4    0    0 -0.75489342909E+01 -0.12156567507E+02  0.15704247971E+03  0.15769312014E+03  0.10566000000E+00 0.  1.
         14    1    4    4    0    0  0.25899314585E-01 -0.27989872289E+00  0.27974683575E+01  0.28115553135E+01  0.00000000000E+00 0. -1.
<mgrwt>
<rscale>  0 0.79270517E+02</rscale>
<asrwt>0</asrwt>
<pdfrwt beam="1">  1        2 0.44269226E-01 0.79270517E+02</pdfrwt>
<pdfrwt beam="2">  1       -1 0.83991387E-03 0.79270517E+02</pdfrwt>
<totfact> 0.25722866E+05</totfact>
</mgrwt>
</event>
<event>
 8    1  0.1520917E-017  0.7825101E+02  0.7818608E-02  0.1334089E+00
          2   -1    0    0  501    0  0.00000000000E+00  0.00000000000E+00  0.84339060018E+02  0.84339060056E+02  0.25500000000E-02 0. -1.
         -1   -1    0    0    0  501 -0.00000000000E+00 -0.00000000000E+00 -0.18150606011E+02  0.18150606711E+02  0.50400000000E-02 0.  1.
         24    2    1    2    0    0  0.35527136788E-14  0.35527136788E-14  0.66188454007E+02  0.10248966677E+03  0.78251008621E+02 0.  0.
         66    2    3    3    0    0  0.22425306578E+02  0.30567372401E+02  0.45647174511E+02  0.59371063381E+02  0.19999988722E+01 0.  0.
        -13    1    3    3    0    0 -0.22425306578E+02 -0.30567372401E+02  0.20541279496E+02  0.43118603386E+02  0.10566000000E+00 0.  1.
         13    1    4    4    0    0  0.10070439606E+02  0.13842898197E+02  0.19260502857E+02  0.25768541260E+02  0.10566000000E+00 0. -1.
        -13    1    4    4    0    0  0.62481946259E+01  0.79769406702E+01  0.12519081073E+02  0.16106212264E+02  0.10566000000E+00 0.  1.
         14    1    4    4    0    0  0.61066723462E+01  0.87475335336E+01  0.13867590581E+02  0.17496309856E+02  0.00000000000E+00 0. -1.
<mgrwt>
<rscale>  0 0.78251009E+02</rscale>
<asrwt>0</asrwt>
<pdfrwt beam="1">  1        2 0.12975240E-01 0.78251009E+02</pdfrwt>
<pdfrwt beam="2">  1       -1 0.27924009E-02 0.78251009E+02</pdfrwt>
<totfact> 0.17962138E+05</totfact>
</mgrwt>
</event>
<event>
 8    1  0.1520917E-017  0.8313440E+02  0.7818608E-02  0.1320385E+00
         -1   -1    0    0    0  501 -0.00000000000E+00  0.00000000000E+00  0.88708111301E+02  0.88708111444E+02  0.50400000000E-02 0.  1.
          2   -1    0    0  501    0  0.00000000000E+00 -0.00000000000E+00 -0.19477721866E+02  0.19477722033E+02  0.25500000000E-02 0. -1.
         24    2    1    2    0    0  0.00000000000E+00  0.00000000000E+00  0.69230389434E+02  0.10818583348E+03  0.83134395673E+02 0.  0.
         66    2    3    3    0    0  0.19184410449E+02 -0.65880739102E+01 -0.12544025060E+02  0.23933175644E+02  0.20000024028E+01 0.  0.
        -13    1    3    3    0    0 -0.19184410449E+02  0.65880739102E+01  0.81774414494E+02  0.84252657833E+02  0.10566000000E+00 0.  1.
         13    1    4    4    0    0  0.46899879102E+01 -0.14020866079E+01 -0.29371111756E+01  0.57096076526E+01  0.10566000000E+00 0. -1.
        -13    1    4    4    0    0  0.95327297715E+01 -0.25856350484E+01 -0.63754655427E+01  0.11756537348E+02  0.10566000000E+00 0.  1.
        -14    1    4    4    0    0  0.49616927669E+01 -0.26003522539E+01 -0.32314483413E+01  0.64670306432E+01  0.00000000000E+00 0.  1.
<mgrwt>
<rscale>  0 0.83134396E+02</rscale>
<asrwt>0</asrwt>
<pdfrwt beam="1">  1        2 0.29965726E-02 0.83134396E+02</pdfrwt>
<pdfrwt beam="2">  1       -1 0.13647402E-01 0.83134396E+02</pdfrwt>
<totfact> 0.11051320E+05</totfact>
</mgrwt>
</event>
<event>
 8    1  0.1520917E-017  0.7859192E+02  0.7818608E-02  0.1333096E+00
         -1   -1    0    0    0  501 -0.00000000000E+00  0.00000000000E+00  0.57951226356E+01  0.57951248272E+01  0.50400000000E-02 0.  1.
          2   -1    0    0  501    0  0.00000000000E+00 -0.00000000000E+00 -0.26646063902E+03  0.26646063903E+03  0.25500000000E-02 0. -1.
         24    2    1    2    0    0  0.35527136788E-14 -0.35527136788E-14 -0.26066551639E+03  0.27225576386E+03  0.78591917668E+02 0.  0.
         66    2    3    3    0    0 -0.17403806769E+02  0.16633596739E+02 -0.23789546789E+03  0.23911884633E+03  0.20000001208E+01 0.  0.
        -13    1    3    3    0    0  0.17403806769E+02 -0.16633596739E+02 -0.22770048499E+02  0.33136917527E+02  0.10566000000E+00 0.  1.
         13    1    4    4    0    0 -0.26788841381E+01  0.20274783324E+01 -0.31021924248E+02  0.31203493982E+02  0.10566000000E+00 0. -1.
        -13    1    4    4    0    0 -0.65447035762E+01  0.65988066326E+01 -0.85857467912E+02  0.86359095376E+02  0.10566000000E+00 0.  1.
         14    1    4    4    0    0 -0.81802190544E+01  0.80073117736E+01 -0.12101607573E+03  0.12155625698E+03  0.00000000000E+00 0. -1.
<mgrwt>
<rscale>  0 0.78591918E+02</rscale>
<asrwt>0</asrwt>
<pdfrwt beam="1">  1        2 0.40993935E-01 0.78591918E+02</pdfrwt>
<pdfrwt beam="2">  1       -1 0.89155771E-03 0.78591918E+02</pdfrwt>
<totfact> 0.25587878E+05</totfact>
</mgrwt>
</event>
<event>
 8    1  0.1520917E-017  0.7926296E+02  0.7818608E-02  0.1331156E+00
         -1   -1    0    0    0  501 -0.00000000000E+00  0.00000000000E+00  0.11586821026E+01  0.11586930640E+01  0.50400000000E-02 0.  1.
          2   -1    0    0  501    0  0.00000000000E+00 -0.00000000000E+00 -0.13555459695E+04  0.13555459695E+04  0.25500000000E-02 0. -1.
         24    2    1    2    0    0  0.00000000000E+00  0.00000000000E+00 -0.13543872874E+04  0.13567046626E+04  0.79262962131E+02 0.  0.
         66    2    3    3    0    0 -0.17524012281E+02  0.10421956476E+02 -0.12588142072E+04  0.12589809039E+04  0.19999957709E+01 0.  0.
        -13    1    3    3    0    0  0.17524012281E+02 -0.10421956476E+02 -0.95573080218E+02  0.97723758675E+02  0.10566000000E+00 0.  1.
         13    1    4    4    0    0 -0.39986712914E+01  0.16114161852E+01 -0.25741050611E+03  0.25744662719E+03  0.10566000000E+00 0. -1.
        -13    1    4    4    0    0 -0.10927852306E+01  0.82106585565E+00 -0.10101854620E+03  0.10102784848E+03  0.10566000000E+00 0.  1.
         14    1    4    4    0    0 -0.12432555759E+02  0.79894744355E+01 -0.90038515486E+03  0.90050642820E+03  0.00000000000E+00 0. -1.
<mgrwt>
<rscale>  0 0.79262962E+02</rscale>
<asrwt>0</asrwt>
<pdfrwt beam="1">  1        2 0.20854427E+00 0.79262962E+02</pdfrwt>
<pdfrwt beam="2">  1       -1 0.17826071E-03 0.79262962E+02</pdfrwt>
<totfact> 0.35137202E+05</totfact>
</mgrwt>
</event>
<event>
 8    1  0.1520917E-017  0.8815434E+02  0.7818608E-02  0.1307384E+00
          2   -1    0    0  501    0  0.00000000000E+00  0.00000000000E+00  0.33725406349E+02  0.33725406446E+02  0.25500000000E-02 0. -1.
         -1   -1    0    0    0  501 -0.00000000000E+00 -0.00000000000E+00 -0.57606331892E+02  0.57606332112E+02  0.50400000000E-02 0.  1.
         24    2    1    2    0    0 -0.71054273576E-14  0.00000000000E+00 -0.23880925542E+02  0.91331738558E+02  0.88154341148E+02 0.  0.
         66    2    3    3    0    0  0.33522695502E+02  0.28054240897E+02 -0.17619377312E+02  0.47172597983E+02  0.19999993798E+01 0.  0.
        -13    1    3    3    0    0 -0.33522695502E+02 -0.28054240897E+02 -0.62615482301E+01  0.44159140575E+02  0.10566000000E+00 0.  1.
         13    1    4    4    0    0  0.46036559268E+01  0.35772156489E+01 -0.25030700637E+01  0.63456003239E+01  0.10566000000E+00 0. -1.
        -13    1    4    4    0    0  0.19184371570E+02  0.16467583765E+02 -0.10923344205E+02  0.27541823474E+02  0.10566000000E+00 0.  1.
        -14    1    4    4    0    0  0.97346680053E+01  0.80094414832E+01 -0.41929630440E+01  0.13285174185E+02  0.00000000000E+00 0.  1.
<mgrwt>
<rscale>  0 0.88154341E+02</rscale>
<asrwt>0</asrwt>
<pdfrwt beam="1">  1        2 0.51885241E-02 0.88154341E+02</pdfrwt>
<pdfrwt beam="2">  1       -1 0.88625126E-02 0.88154341E+02</pdfrwt>
<totfact> 0.10484893E+05</totfact>
</mgrwt>
</event>
<event>
 8    1  0.1626662E-017  0.7689161E+02  0.7818608E-02  0.1338111E+00
         -1   -1    0    0    0  501 -0.00000000000E+00  0.00000000000E+00  0.19559218730E+01  0.19559283665E+01  0.50400000000E-02 0.  1.
          2   -1    0    0  501    0  0.00000000000E+00 -0.00000000000E+00 -0.75569357909E+03  0.75569357909E+03  0.25500000000E-02 0. -1.
         24    2    1    2    0    0  0.00000000000E+00  0.35527136788E-14 -0.75373765721E+03  0.75764950746E+03  0.76891613642E+02 0.  0.
         66    2    3    3    0    0 -0.12190829190E+02  0.19513771637E+02 -0.68029505043E+03  0.68068697596E+03  0.19999992937E+01 0.  0.
        -13    1    3    3    0    0  0.12190829190E+02 -0.19513771637E+02 -0.73442606785E+02  0.76962531502E+02  0.10566000000E+00 0.  1.
         13    1    4    4    0    0 -0.86169134384E+01  0.13844536475E+02 -0.47876564998E+03  0.47904329778E+03  0.10566000000E+00 0. -1.
        -13    1    4    4    0    0 -0.20997145159E+01  0.41777185419E+01 -0.14491819768E+03  0.14499364578E+03  0.10566000000E+00 0.  1.
        -14    1    4    4    0    0 -0.14742012356E+01  0.14915166199E+01 -0.56611202772E+02  0.56650032396E+02  0.00000000000E+00 0.  1.
<mgrwt>
<rscale>  0 0.76891614E+02</rscale>
<asrwt>0</asrwt>
<pdfrwt beam="1">  1        2 0.11626032E+00 0.76891614E+02</pdfrwt>
<pdfrwt beam="2">  1       -1 0.30091216E-03 0.76891614E+02</pdfrwt>
<totfact> 0.37684523E+05</totfact>
</mgrwt>
</event>
<event>
 8    1  0.1520917E-017  0.8994084E+02  0.7818608E-02  0.1302995E+00
          2   -1    0    0  501    0  0.00000000000E+00  0.00000000000E+00  0.93464858906E+03  0.93464858906E+03  0.25500000000E-02 0. -1.
         -1   -1    0    0    0  501 -0.00000000000E+00 -0.00000000000E+00 -0.21637394731E+01  0.21637453429E+01  0.50400000000E-02 0.  1.
         24    2    1    2    0    0  0.00000000000E+00  0.00000000000E+00  0.93248484959E+03  0.93681233441E+03  0.89940842706E+02 0.  0.
         66    2    3    3    0    0 -0.38350816789E+02  0.55218962469E+01  0.70377534825E+03  0.70484396662E+03  0.19999982582E+01 0.  0.
        -13    1    3    3    0    0  0.38350816789E+02 -0.55218962469E+01  0.22870950133E+03  0.23196836778E+03  0.10566000000E+00 0.  1.
         13    1    4    4    0    0 -0.18932508526E+02  0.28842868632E+01  0.33854701583E+03  0.33908826592E+03  0.10566000000E+00 0. -1.
        -13    1    4    4    0    0 -0.15922137818E+02  0.17102551009E+01  0.30035910575E+03  0.30078570946E+03  0.10566000000E+00 0. -1.
         14    1    4    4    0    0 -0.34961704450E+01  0.92735428291E+00  0.64869226675E+02  0.64969991251E+02  0.00000000000E+00 0. -1.
<mgrwt>
<rscale>  0 0.89940843E+02</rscale>
<asrwt>0</asrwt>
<pdfrwt beam="1">  1        2 0.14379241E+00 0.89940843E+02</pdfrwt>
<pdfrwt beam="2">  1       -1 0.33288272E-03 0.89940843E+02</pdfrwt>
<totfact> 0.25832901E+05</totfact>
</mgrwt>
</event>
<event>
 8    1  0.1520917E-017  0.8111756E+02  0.7818608E-02  0.1325910E+00
          2   -1    0    0  501    0  0.00000000000E+00  0.00000000000E+00  0.52555513910E+03  0.52555513911E+03  0.25500000000E-02 0. -1.
         -1   -1    0    0    0  501 -0.00000000000E+00 -0.00000000000E+00 -0.31300495845E+01  0.31300536422E+01  0.50400000000E-02 0.  1.
         24    2    1    2    0    0  0.00000000000E+00  0.00000000000E+00  0.52242508952E+03  0.52868519275E+03  0.81117562070E+02 0.  0.
         66    2    3    3    0    0  0.22447238954E+02 -0.56646184478E+01  0.47822345604E+03  0.47878767773E+03  0.20000008091E+01 0.  0.
        -13    1    3    3    0    0 -0.22447238954E+02  0.56646184478E+01  0.44201633480E+02  0.49897515020E+02  0.10566000000E+00 0.  1.
         13    1    4    4    0    0  0.91905278968E+01 -0.25216845870E+01  0.18663289175E+03  0.18687608767E+03  0.10566000000E+00 0.  1.
        -13    1    4    4    0    0  0.11239781531E+02 -0.22634412384E+01  0.25018690532E+03  0.25044950511E+03  0.10566000000E+00 0. -1.
        -14    1    4    4    0    0  0.20169295267E+01 -0.87949262240E+00  0.41403658969E+02  0.41462084946E+02  0.00000000000E+00 0.  1.
<mgrwt>
<rscale>  0 0.81117562E+02</rscale>
<asrwt>0</asrwt>
<pdfrwt beam="1">  1        2 0.80854527E-01 0.81117562E+02</pdfrwt>
<pdfrwt beam="2">  1       -1 0.48154706E-03 0.81117562E+02</pdfrwt>
<totfact> 0.29832969E+05</totfact>
</mgrwt>
</event>
<event>
 8    1  0.1520917E-017  0.7902245E+02  0.7818608E-02  0.1331849E+00
          2   -1    0    0  501    0  0.00000000000E+00  0.00000000000E+00  0.31643169461E+02  0.31643169564E+02  0.25500000000E-02 0. -1.
         -1   -1    0    0    0  501 -0.00000000000E+00 -0.00000000000E+00 -0.49335661559E+02  0.49335661817E+02  0.50400000000E-02 0.  1.
         24    2    1    2    0    0 -0.44408920985E-15  0.17763568394E-14 -0.17692492098E+02  0.80978831381E+02  0.79022445262E+02 0.  0.
         66    2    3    3    0    0 -0.29775167385E+01  0.10811681985E+02  0.29945336397E+02  0.32038746163E+02  0.20000026230E+01 0.  0.
        -13    1    3    3    0    0  0.29775167385E+01 -0.10811681985E+02 -0.47637828495E+02  0.48940085217E+02  0.10566000000E+00 0.  1.
         13    1    4    4    0    0 -0.18821515012E+01  0.49660514254E+01  0.14987960656E+02  0.15901392697E+02  0.10566000000E+00 0. -1.
        -13    1    4    4    0    0  0.85909272251E-01  0.77918818629E+00  0.28913448992E+01  0.29975913655E+01  0.10566000000E+00 0.  1.
         14    1    4    4    0    0 -0.11812745095E+01  0.50664423738E+01  0.12066030842E+02  0.13139762101E+02  0.00000000000E+00 0. -1.
<mgrwt>
<rscale>  0 0.79022445E+02</rscale>
<asrwt>0</asrwt>
<pdfrwt beam="1">  1        2 0.48681799E-02 0.79022445E+02</pdfrwt>
<pdfrwt beam="2">  1       -1 0.75901018E-02 0.79022445E+02</pdfrwt>
<totfact> 0.14072824E+05</totfact>
</mgrwt>
</event>
<event>
 8    1  0.1520917E-017  0.7180777E+02  0.7818608E-02  0.1354051E+00
         -1   -1    0    0    0  501 -0.00000000000E+00  0.00000000000E+00  0.16963371775E+01  0.16963446646E+01  0.50400000000E-02 0.  1.
          2   -1    0    0  501    0  0.00000000000E+00 -0.00000000000E+00 -0.75992327113E+03  0.75992327114E+03  0.25500000000E-02 0. -1.
         24    2    1    2    0    0  0.00000000000E+00  0.35527136788E-14 -0.75822693395E+03  0.76161961580E+03  0.71807769765E+02 0.  0.
         66    2    3    3    0    0  0.13254937042E+02 -0.25283738811E+02 -0.60986613405E+03  0.61053719155E+03  0.20000010706E+01 0.  0.
        -13    1    3    3    0    0 -0.13254937042E+02  0.25283738811E+02 -0.14836079990E+03  0.15108242425E+03  0.10566000000E+00 0.  1.
         13    1    4    4    0    0  0.69799730026E+01 -0.12408735599E+02 -0.29996955810E+03  0.30030724882E+03  0.10566000000E+00 0. -1.
        -13    1    4    4    0    0  0.20295928556E+00 -0.16559612586E+00 -0.79440821887E+01  0.79491018615E+01  0.10566000000E+00 0. -1.
        -14    1    4    4    0    0  0.60720047538E+01 -0.12709407086E+02 -0.30195249376E+03  0.30228084088E+03  0.00000000000E+00 0.  1.
<mgrwt>
<rscale>  0 0.71807770E+02</rscale>
<asrwt>0</asrwt>
<pdfrwt beam="1">  1        2 0.11691100E+00 0.71807770E+02</pdfrwt>
<pdfrwt beam="2">  1       -1 0.26097613E-03 0.71807770E+02</pdfrwt>
<totfact> 0.45002381E+05</totfact>
</mgrwt>
</event>
<event>
 8    1  0.1520917E-017  0.8128971E+02  0.7818608E-02  0.1325431E+00
          2   -1    0    0  501    0  0.00000000000E+00  0.00000000000E+00  0.62710798067E+03  0.62710798068E+03  0.25500000000E-02 0. -1.
         -1   -1    0    0    0  501 -0.00000000000E+00 -0.00000000000E+00 -0.26343191219E+01  0.26343239431E+01  0.50400000000E-02 0.  1.
         24    2    1    2    0    0  0.00000000000E+00  0.00000000000E+00  0.62447366155E+03  0.62974230462E+03  0.81289705736E+02 0.  0.
         66    2    3    3    0    0  0.70171820549E+01 -0.80961656366E+01  0.61596204538E+03  0.61605846320E+03  0.19999990312E+01 0.  0.
        -13    1    3    3    0    0 -0.70171820549E+01  0.80961656366E+01  0.85116161699E+01  0.13683841415E+02  0.10566000000E+00 0.  1.
         13    1    4    4    0    0  0.18489262617E+01 -0.17737466136E+01  0.18327879505E+03  0.18329673370E+03  0.10566000000E+00 0. -1.
        -13    1    4    4    0    0  0.20043608858E+01 -0.16514332311E+01  0.13435693906E+03  0.13438207816E+03  0.10566000000E+00 0.  1.
        -14    1    4    4    0    0  0.31638949073E+01 -0.46709857919E+01  0.29832631127E+03  0.29837965134E+03  0.00000000000E+00 0.  1.
<mgrwt>
<rscale>  0 0.81289706E+02</rscale>
<asrwt>0</asrwt>
<pdfrwt beam="1">  1        2 0.96478080E-01 0.81289706E+02</pdfrwt>
<pdfrwt beam="2">  1       -1 0.40528053E-03 0.81289706E+02</pdfrwt>
<totfact> 0.31224946E+05</totfact>
</mgrwt>
</event>
<event>
 8    1  0.1520917E-017  0.7989963E+02  0.7818608E-02  0.1329337E+00
          2   -1    0    0  501    0  0.00000000000E+00  0.00000000000E+00  0.16249905780E+03  0.16249905782E+03  0.25500000000E-02 0. -1.
         -1   -1    0    0    0  501 -0.00000000000E+00 -0.00000000000E+00 -0.98215193689E+01  0.98215206620E+01  0.50400000000E-02 0.  1.
         24    2    1    2    0    0  0.17763568394E-14  0.00000000000E+00  0.15267753843E+03  0.17232057849E+03  0.79899630957E+02 0.  0.
         66    2    3    3    0    0 -0.12703124297E+02 -0.22157551531E+02  0.14256826939E+03  0.14485177907E+03  0.20000013834E+01 0.  0.
        -13    1    3    3    0    0  0.12703124297E+02  0.22157551531E+02  0.10109269044E+02  0.27468799417E+02  0.10566000000E+00 0.  1.
         13    1    4    4    0    0 -0.61480635681E+01 -0.10012029668E+02  0.63014734589E+02  0.64100759458E+02  0.10566000000E+00 0. -1.
        -13    1    4    4    0    0 -0.40470213162E+01 -0.86224315689E+01  0.55695748243E+02  0.56504444463E+02  0.10566000000E+00 0.  1.
        -14    1    4    4    0    0 -0.25080394128E+01 -0.35230902942E+01  0.23857786558E+02  0.24246575147E+02  0.00000000000E+00 0.  1.
<mgrwt>
<rscale>  0 0.79899631E+02</rscale>
<asrwt>0</asrwt>
<pdfrwt beam="1">  1        2 0.24999854E-01 0.79899631E+02</pdfrwt>
<pdfrwt beam="2">  1       -1 0.15110032E-02 0.79899631E+02</pdfrwt>
<totfact> 0.20627883E+05</totfact>
</mgrwt>
</event>
<event>
 8    1  0.1520917E-017  0.7885682E+02  0.7818608E-02  0.1332327E+00
         -1   -1    0    0    0  501 -0.00000000000E+00  0.00000000000E+00  0.29784158873E+01  0.29784201515E+01  0.50400000000E-02 0.  1.
          2   -1    0    0  501    0  0.00000000000E+00 -0.00000000000E+00 -0.52195476084E+03  0.52195476085E+03  0.25500000000E-02 0. -1.
         24    2    1    2    0    0  0.00000000000E+00  0.11102230246E-15 -0.51897634495E+03  0.52493318100E+03  0.78856818931E+02 0.  0.
         66    2    3    3    0    0 -0.23218866611E+02 -0.65874147783E+00 -0.47152932401E+03  0.47210534111E+03  0.19999986777E+01 0.  0.
        -13    1    3    3    0    0  0.23218866611E+02  0.65874147783E+00 -0.47447020946E+02  0.52827839892E+02  0.10566000000E+00 0.  1.
         13    1    4    4    0    0 -0.10620316598E+02 -0.83288869917E+00 -0.20838740220E+03  0.20865954421E+03  0.10566000000E+00 0. -1.
        -13    1    4    4    0    0 -0.36204188887E+01  0.25416981656E+00 -0.85663477601E+02  0.85740390680E+02  0.10566000000E+00 0.  1.
        -14    1    4    4    0    0 -0.89781311246E+01 -0.80022595219E-01 -0.17747844420E+03  0.17770540622E+03  0.00000000000E+00 0.  1.
<mgrwt>
<rscale>  0 0.78856819E+02</rscale>
<asrwt>0</asrwt>
<pdfrwt beam="1">  1        2 0.80300660E-01 0.78856819E+02</pdfrwt>
<pdfrwt beam="2">  1       -1 0.45821857E-03 0.78856819E+02</pdfrwt>
<totfact> 0.32044279E+05</totfact>
</mgrwt>
</event>
<event>
 8    1  0.1520917E-017  0.7843967E+02  0.7818608E-02  0.1333539E+00
          2   -1    0    0  501    0  0.00000000000E+00  0.00000000000E+00  0.12004269509E+03  0.12004269512E+03  0.25500000000E-02 0. -1.
         -1   -1    0    0    0  501 -0.00000000000E+00 -0.00000000000E+00 -0.12813735420E+02  0.12813736411E+02  0.50400000000E-02 0.  1.
         24    2    1    2    0    0  0.00000000000E+00 -0.35527136788E-14  0.10722895967E+03  0.13285643153E+03  0.78439668577E+02 0.  0.
         66    2    3    3    0    0  0.13686656593E+02  0.30865309652E+02  0.87362694464E+02  0.93681547154E+02  0.19999961231E+01 0.  0.
        -13    1    3    3    0    0 -0.13686656593E+02 -0.30865309652E+02  0.19866265210E+02  0.39174884378E+02  0.10566000000E+00 0.  1.
         13    1    4    4    0    0  0.15420184875E+01  0.34658033109E+01  0.99995007351E+01  0.10695363135E+02  0.10566000000E+00 0. -1.
        -13    1    4    4    0    0  0.23474930472E+01  0.48671479625E+01  0.15924084136E+02  0.16816285931E+02  0.10566000000E+00 0.  1.
        -14    1    4    4    0    0  0.97971450582E+01  0.22532358378E+02  0.61439109592E+02  0.66169898087E+02  0.00000000000E+00 0.  1.
<mgrwt>
<rscale>  0 0.78439669E+02</rscale>
<asrwt>0</asrwt>
<pdfrwt beam="1">  1        2 0.18468108E-01 0.78439669E+02</pdfrwt>
<pdfrwt beam="2">  1       -1 0.19713439E-02 0.78439669E+02</pdfrwt>
<totfact> 0.19695235E+05</totfact>
</mgrwt>
</event>
<event>
 8    1  0.1520917E-017  0.8092738E+02  0.7818608E-02  0.1326440E+00
         -1   -1    0    0    0  501 -0.00000000000E+00  0.00000000000E+00  0.14622559536E+02  0.14622560404E+02  0.50400000000E-02 0.  1.
          2   -1    0    0  501    0  0.00000000000E+00 -0.00000000000E+00 -0.11197152660E+03  0.11197152662E+03  0.25500000000E-02 0. -1.
         24    2    1    2    0    0  0.00000000000E+00  0.00000000000E+00 -0.97348967060E+02  0.12659408703E+03  0.80927384012E+02 0.  0.
         66    2    3    3    0    0 -0.21782472379E+02  0.18887969513E+02 -0.93061510408E+02  0.97445760425E+02  0.20000025257E+01 0.  0.
        -13    1    3    3    0    0  0.21782472379E+02 -0.18887969513E+02 -0.42874566520E+01  0.29148326604E+02  0.10566000000E+00 0.  1.
         13    1    4    4    0    0 -0.15803397773E+02  0.12841778162E+02 -0.65472964954E+02  0.68566602303E+02  0.10566000000E+00 0. -1.
        -13    1    4    4    0    0 -0.54870379664E+00  0.31453323283E+00 -0.20839841392E+01  0.21804038477E+01  0.10566000000E+00 0. -1.
         14    1    4    4    0    0 -0.54303708089E+01  0.57316581179E+01 -0.25504561315E+02  0.26698754274E+02  0.00000000000E+00 0. -1.
<mgrwt>
<rscale>  0 0.80927384E+02</rscale>
<asrwt>0</asrwt>
<pdfrwt beam="1">  1        2 0.17226388E-01 0.80927384E+02</pdfrwt>
<pdfrwt beam="2">  1       -1 0.22496247E-02 0.80927384E+02</pdfrwt>
<totfact> 0.17752680E+05</totfact>
</mgrwt>
</event>
<event>
 8    1  0.1520917E-017  0.8035511E+02  0.7818608E-02  0.1328047E+00
          2   -1    0    0  501    0  0.00000000000E+00  0.00000000000E+00  0.55462794315E+02  0.55462794374E+02  0.25500000000E-02 0. -1.
         -1   -1    0    0    0  501 -0.00000000000E+00 -0.00000000000E+00 -0.29104840583E+02  0.29104841020E+02  0.50400000000E-02 0.  1.
         24    2    1    2    0    0  0.00000000000E+00  0.00000000000E+00  0.26357953732E+02  0.84567635394E+02  0.80355107063E+02 0.  0.
         66    2    3    3    0    0  0.35666671556E+01 -0.39978174370E+02  0.12007977440E+02  0.41942425433E+02  0.19999971067E+01 0.  0.
        -13    1    3    3    0    0 -0.35666671556E+01  0.39978174370E+02  0.14349976293E+02  0.42625209961E+02  0.10566000000E+00 0.  1.
         13    1    4    4    0    0  0.21576560144E+01 -0.14615218372E+02  0.39646306473E+01  0.15296716895E+02  0.10566000000E+00 0. -1.
        -13    1    4    4    0    0  0.98317094356E+00 -0.16656227542E+02  0.53037794856E+01  0.17508220410E+02  0.10566000000E+00 0.  1.
         14    1    4    4    0    0  0.42584019762E+00 -0.87067284552E+01  0.27395673069E+01  0.91374881284E+01  0.00000000000E+00 0. -1.
<mgrwt>
<rscale>  0 0.80355107E+02</rscale>
<asrwt>0</asrwt>
<pdfrwt beam="1">  1        2 0.85327375E-02 0.80355107E+02</pdfrwt>
<pdfrwt beam="2">  1       -1 0.44776679E-02 0.80355107E+02</pdfrwt>
<totfact> 0.15105991E+05</totfact>
</mgrwt>
</event>
<event>
 8    1  0.1520917E-017  0.8139173E+02  0.7818608E-02  0.1325148E+00
         -1   -1    0    0    0  501 -0.00000000000E+00  0.00000000000E+00  0.51278630268E+03  0.51278630271E+03  0.50400000000E-02 0.  1.
          2   -1    0    0  501    0  0.00000000000E+00 -0.00000000000E+00 -0.32297138925E+01  0.32297148991E+01  0.25500000000E-02 0. -1.
         24    2    1    2    0    0  0.00000000000E+00  0.00000000000E+00  0.50955658879E+03  0.51601601760E+03  0.81391727141E+02 0.  0.
         66    2    3    3    0    0 -0.24790799260E+02 -0.28185954635E+02  0.35419055448E+03  0.35617970275E+03  0.19999998129E+01 0.  0.
        -13    1    3    3    0    0  0.24790799260E+02  0.28185954635E+02  0.15536603431E+03  0.15983631486E+03  0.10566000000E+00 0.  1.
         13    1    4    4    0    0 -0.17756057484E+02 -0.19888760785E+02  0.25659857503E+03  0.25797999971E+03  0.10566000000E+00 0. -1.
        -13    1    4    4    0    0 -0.58352158963E+01 -0.63808498543E+01  0.77385357633E+02  0.77867000259E+02  0.10566000000E+00 0.  1.
         14    1    4    4    0    0 -0.11995258792E+01 -0.19163439959E+01  0.20206621824E+02  0.20332702776E+02  0.00000000000E+00 0. -1.
<mgrwt>
<rscale>  0 0.81391727E+02</rscale>
<asrwt>0</asrwt>
<pdfrwt beam="1">  1        2 0.49687925E-03 0.81391727E+02</pdfrwt>
<pdfrwt beam="2">  1       -1 0.78890183E-01 0.81391727E+02</pdfrwt>
<totfact> 0.62872474E+04</totfact>
</mgrwt>
</event>
<event>
 8    1  0.1520917E-017  0.8171281E+02  0.7818608E-02  0.1324260E+00
         -1   -1    0    0    0  501 -0.00000000000E+00  0.00000000000E+00  0.30888863185E+01  0.30888904303E+01  0.50400000000E-02 0.  1.
          2   -1    0    0  501    0  0.00000000000E+00 -0.00000000000E+00 -0.54040338770E+03  0.54040338770E+03  0.25500000000E-02 0. -1.
         24    2    1    2    0    0  0.00000000000E+00  0.00000000000E+00 -0.53731450138E+03  0.54349227813E+03  0.81712808047E+02 0.  0.
         66    2    3    3    0    0  0.27714389071E+02  0.20001710597E+02 -0.41740805775E+03  0.41880979269E+03  0.19999977628E+01 0.  0.
        -13    1    3    3    0    0 -0.27714389071E+02 -0.20001710597E+02 -0.11990644363E+03  0.12468248544E+03  0.10566000000E+00 0.  1.
         13    1    4    4    0    0  0.94449595090E+00  0.87506688835E+00 -0.18845941523E+02  0.18890169151E+02  0.10566000000E+00 0.  1.
        -13    1    4    4    0    0  0.16313923203E+02  0.12356832203E+02 -0.24600569882E+03  0.24685552538E+03  0.10566000000E+00 0. -1.
        -14    1    4    4    0    0  0.10455969916E+02  0.67698115051E+01 -0.15255641740E+03  0.15306409816E+03  0.00000000000E+00 0.  1.
<mgrwt>
<rscale>  0 0.81712808E+02</rscale>
<asrwt>0</asrwt>
<pdfrwt beam="1">  1        2 0.83138908E-01 0.81712808E+02</pdfrwt>
<pdfrwt beam="2">  1       -1 0.47521403E-03 0.81712808E+02</pdfrwt>
<totfact> 0.29520360E+05</totfact>
</mgrwt>
</event>
<event>
 8    1  0.1520917E-017  0.8271274E+02  0.7818608E-02  0.1321525E+00
          2   -1    0    0  501    0  0.00000000000E+00  0.00000000000E+00  0.71422217012E+03  0.71422217013E+03  0.25500000000E-02 0. -1.
         -1   -1    0    0    0  501 -0.00000000000E+00 -0.00000000000E+00 -0.23946996173E+01  0.23947049210E+01  0.50400000000E-02 0.  1.
         24    2    1    2    0    0  0.00000000000E+00  0.71054273576E-14  0.71182747051E+03  0.71661687505E+03  0.82712742899E+02 0.  0.
         66    2    3    3    0    0  0.10415511067E+02 -0.30343628258E+02  0.58190346226E+03  0.58279057820E+03  0.19999992398E+01 0.  0.
        -13    1    3    3    0    0 -0.10415511067E+02  0.30343628258E+02  0.12992400824E+03  0.13382629685E+03  0.10566000000E+00 0.  1.
         13    1    4    4    0    0  0.75092776793E+01 -0.20630085959E+02  0.40212617413E+03  0.40272504365E+03  0.10566000000E+00 0. -1.
        -13    1    4    4    0    0  0.14542075327E+00 -0.12141529731E+01  0.25719600524E+02  0.25748870457E+02  0.10566000000E+00 0.  1.
        -14    1    4    4    0    0  0.27608126348E+01 -0.84993893254E+01  0.15405768761E+03  0.15431666409E+03  0.00000000000E+00 0.  1.
<mgrwt>
<rscale>  0 0.82712743E+02</rscale>
<asrwt>0</asrwt>
<pdfrwt beam="1">  1        2 0.10988043E+00 0.82712743E+02</pdfrwt>
<pdfrwt beam="2">  1       -1 0.36841542E-03 0.82712743E+02</pdfrwt>
<totfact> 0.30809089E+05</totfact>
</mgrwt>
</event>
<event>
 8    1  0.1520917E-017  0.7905201E+02  0.7818608E-02  0.1331763E+00
         -1   -1    0    0    0  501 -0.00000000000E+00  0.00000000000E+00  0.19604120648E+02  0.19604121296E+02  0.50400000000E-02 0.  1.
          2   -1    0    0  501    0  0.00000000000E+00 -0.00000000000E+00 -0.79692694208E+02  0.79692694249E+02  0.25500000000E-02 0. -1.
         24    2    1    2    0    0  0.00000000000E+00  0.00000000000E+00 -0.60088573560E+02  0.99296815544E+02  0.79052013919E+02 0.  0.
         66    2    3    3    0    0  0.79967102335E+01  0.35247252244E+02 -0.50081693207E+02  0.61793949204E+02  0.19999996017E+01 0.  0.
        -13    1    3    3    0    0 -0.79967102335E+01 -0.35247252244E+02 -0.10006880354E+02  0.37502866341E+02  0.10566000000E+00 0.  1.
         13    1    4    4    0    0  0.19240809754E+01  0.82324934091E+01 -0.11466750331E+02  0.14246879045E+02  0.10566000000E+00 0. -1.
        -13    1    4    4    0    0  0.27720832270E+01  0.12590175647E+02 -0.19439702337E+02  0.23326168979E+02  0.10566000000E+00 0.  1.
        -14    1    4    4    0    0  0.33005460310E+01  0.14424583188E+02 -0.19175240539E+02  0.24220901180E+02  0.00000000000E+00 0.  1.
<mgrwt>
<rscale>  0 0.79052014E+02</rscale>
<asrwt>0</asrwt>
<pdfrwt beam="1">  1        2 0.12260414E-01 0.79052014E+02</pdfrwt>
<pdfrwt beam="2">  1       -1 0.30160187E-02 0.79052014E+02</pdfrwt>
<totfact> 0.17223530E+05</totfact>
</mgrwt>
</event>
<event>
 8    1  0.1520917E-017  0.8521243E+02  0.7818608E-02  0.1314878E+00
          2   -1    0    0  501    0  0.00000000000E+00  0.00000000000E+00  0.38770732097E+02  0.38770732181E+02  0.25500000000E-02 0. -1.
         -1   -1    0    0    0  501 -0.00000000000E+00 -0.00000000000E+00 -0.46821129888E+02  0.46821130159E+02  0.50400000000E-02 0.  1.
         24    2    1    2    0    0  0.00000000000E+00  0.00000000000E+00 -0.80503977911E+01  0.85591862340E+02  0.85212428637E+02 0.  0.
         66    2    3    3    0    0  0.42293931559E+02 -0.43530923667E+01 -0.16592855543E+01  0.42596705177E+02  0.20000008782E+01 0.  0.
        -13    1    3    3    0    0 -0.42293931559E+02  0.43530923667E+01 -0.63911122367E+01  0.42995157163E+02  0.10566000000E+00 0.  1.
         13    1    4    4    0    0  0.26558255316E+02 -0.27156140888E+01 -0.56265821800E+00  0.26702869389E+02  0.10566000000E+00 0. -1.
        -13    1    4    4    0    0  0.16369918209E+01 -0.34979321049E+00  0.13676005527E+00  0.16828442769E+01  0.10566000000E+00 0.  1.
         14    1    4    4    0    0  0.14098684422E+02 -0.12876850674E+01 -0.12333873916E+01  0.14210991511E+02  0.00000000000E+00 0. -1.
<mgrwt>
<rscale>  0 0.85212429E+02</rscale>
<asrwt>0</asrwt>
<pdfrwt beam="1">  1        2 0.59647280E-02 0.85212429E+02</pdfrwt>
<pdfrwt beam="2">  1       -1 0.72032508E-02 0.85212429E+02</pdfrwt>
<totfact> 0.11883001E+05</totfact>
</mgrwt>
</event>
<event>
 8    1  0.1520917E-017  0.7890444E+02  0.7818608E-02  0.1332190E+00
         -1   -1    0    0    0  501 -0.00000000000E+00  0.00000000000E+00  0.59091802074E+02  0.59091802289E+02  0.50400000000E-02 0.  1.
          2   -1    0    0  501    0  0.00000000000E+00 -0.00000000000E+00 -0.26339994967E+02  0.26339995091E+02  0.25500000000E-02 0. -1.
         24    2    1    2    0    0  0.88817841970E-15  0.00000000000E+00  0.32751807106E+02  0.85431797379E+02  0.78904443061E+02 0.  0.
         66    2    3    3    0    0 -0.76813584273E+01  0.14768816981E+02 -0.22310249924E+02  0.27908215165E+02  0.19999999356E+01 0.  0.
        -13    1    3    3    0    0  0.76813584273E+01 -0.14768816981E+02  0.55062057030E+02  0.57523582214E+02  0.10566000000E+00 0.  1.
         13    1    4    4    0    0 -0.36609117366E+01  0.62050135277E+01 -0.94801922091E+01  0.11907547018E+02  0.10566000000E+00 0. -1.
        -13    1    4    4    0    0 -0.33260930446E+00  0.19369853470E+01 -0.23715835110E+01  0.30819009668E+01  0.10566000000E+00 0.  1.
        -14    1    4    4    0    0 -0.36878373862E+01  0.66268181061E+01 -0.10458474204E+02  0.12918767181E+02  0.00000000000E+00 0.  1.
<mgrwt>
<rscale>  0 0.78904443E+02</rscale>
<asrwt>0</asrwt>
<pdfrwt beam="1">  1        2 0.40523070E-02 0.78904443E+02</pdfrwt>
<pdfrwt beam="2">  1       -1 0.90910464E-02 0.78904443E+02</pdfrwt>
<totfact> 0.13634652E+05</totfact>
</mgrwt>
</event>
<event>
 8    1  0.1520917E-017  0.7913699E+02  0.7818608E-02  0.1331519E+00
          2   -1    0    0  501    0  0.00000000000E+00  0.00000000000E+00  0.29452482887E+03  0.29452482888E+03  0.25500000000E-02 0. -1.
         -1   -1    0    0    0  501 -0.00000000000E+00 -0.00000000000E+00 -0.53159033589E+01  0.53159057481E+01  0.50400000000E-02 0.  1.
         24    2    1    2    0    0 -0.14210854715E-13 -0.44408920985E-15  0.28920892551E+03  0.29984073463E+03  0.79136992284E+02 0.  0.
         66    2    3    3    0    0 -0.36584903185E+02 -0.31209926687E+01  0.20031255372E+03  0.20365980192E+03  0.20000003750E+01 0.  0.
        -13    1    3    3    0    0  0.36584903185E+02  0.31209926687E+01  0.88896371789E+02  0.96180932713E+02  0.10566000000E+00 0.  1.
         13    1    4    4    0    0 -0.59353540235E+01 -0.60156834997E+00  0.30802059446E+02  0.31374644891E+02  0.10566000000E+00 0. -1.
        -13    1    4    4    0    0 -0.54310987909E+00  0.13088885578E+00  0.35332039692E+01  0.35786582062E+01  0.10566000000E+00 0.  1.
        -14    1    4    4    0    0 -0.30106439282E+02 -0.26503131745E+01  0.16597729031E+03  0.16870649882E+03  0.00000000000E+00 0.  1.
<mgrwt>
<rscale>  0 0.79136992E+02</rscale>
<asrwt>0</asrwt>
<pdfrwt beam="1">  1        2 0.45311529E-01 0.79136992E+02</pdfrwt>
<pdfrwt beam="2">  1       -1 0.81783116E-03 0.79136992E+02</pdfrwt>
<totfact> 0.26055279E+05</totfact>
</mgrwt>
</event>
<event>
 8    1  0.1520917E-017  0.7919948E+02  0.7818608E-02  0.1331339E+00
         -1   -1    0    0    0  501 -0.00000000000E+00  0.00000000000E+00  0.39598384102E+02  0.39598384423E+02  0.50400000000E-02 0.  1.
          2   -1    0    0  501    0  0.00000000000E+00 -0.00000000000E+00 -0.39601095608E+02  0.39601095690E+02  0.25500000000E-02 0. -1.
         24    2    1    2    0    0  0.35527136788E-14  0.00000000000E+00 -0.27115056344E-02  0.79199480113E+02  0.79199480066E+02 0.  0.
         66    2    3    3    0    0 -0.31648524000E+02 -0.17658426919E+01 -0.23694967363E+02  0.39625733469E+02  0.20000007160E+01 0.  0.
        -13    1    3    3    0    0  0.31648524000E+02  0.17658426919E+01  0.23692255857E+02  0.39573746644E+02  0.10566000000E+00 0.  1.
         13    1    4    4    0    0 -0.21470393766E+02 -0.59120283378E+00 -0.15511550959E+02  0.26494276862E+02  0.10566000000E+00 0. -1.
        -13    1    4    4    0    0 -0.15187466724E+01 -0.21477496358E+00 -0.94704003330E+00  0.18057598401E+01  0.10566000000E+00 0.  1.
         14    1    4    4    0    0 -0.86593835613E+01 -0.95986489458E+00 -0.72363763710E+01  0.11325696767E+02  0.00000000000E+00 0. -1.
<mgrwt>
<rscale>  0 0.79199480E+02</rscale>
<asrwt>0</asrwt>
<pdfrwt beam="1">  1        2 0.60924763E-02 0.79199480E+02</pdfrwt>
<pdfrwt beam="2">  1       -1 0.60920591E-02 0.79199480E+02</pdfrwt>
<totfact> 0.14626868E+05</totfact>
</mgrwt>
</event>
<event>
 8    1  0.1520917E-017  0.7729894E+02  0.7818608E-02  0.1336896E+00
          2   -1    0    0  501    0  0.00000000000E+00  0.00000000000E+00  0.19800434839E+02  0.19800435003E+02  0.25500000000E-02 0. -1.
         -1   -1    0    0    0  501 -0.00000000000E+00 -0.00000000000E+00 -0.75441862016E+02  0.75441862184E+02  0.50400000000E-02 0.  1.
         24    2    1    2    0    0 -0.71054273576E-14  0.00000000000E+00 -0.55641427177E+02  0.95242297187E+02  0.77298944075E+02 0.  0.
         66    2    3    3    0    0  0.36357392447E+02 -0.77292762420E+01 -0.14906322696E+02  0.40097382663E+02  0.19999858439E+01 0.  0.
        -13    1    3    3    0    0 -0.36357392447E+02  0.77292762420E+01 -0.40735104481E+02  0.55144914524E+02  0.10566000000E+00 0.  1.
         13    1    4    4    0    0  0.48642835977E+01 -0.10196611718E+01 -0.24289349549E+01  0.55327979246E+01  0.10566000000E+00 0. -1.
        -13    1    4    4    0    0  0.24233029438E+02 -0.57160327088E+01 -0.99591318206E+01  0.26816193174E+02  0.10566000000E+00 0.  1.
        -14    1    4    4    0    0  0.72600794105E+01 -0.99358236140E+00 -0.25182559207E+01  0.77483915646E+01  0.00000000000E+00 0.  1.
<mgrwt>
<rscale>  0 0.77298944E+02</rscale>
<asrwt>0</asrwt>
<pdfrwt beam="1">  1        2 0.30462208E-02 0.77298944E+02</pdfrwt>
<pdfrwt beam="2">  1       -1 0.11606440E-01 0.77298944E+02</pdfrwt>
<totfact> 0.13671424E+05</totfact>
</mgrwt>
</event>
<event>
 8    1  0.1520917E-017  0.7921652E+02  0.7818608E-02  0.1331290E+00
          2   -1    0    0  501    0  0.00000000000E+00  0.00000000000E+00  0.29758431431E+03  0.29758431432E+03  0.25500000000E-02 0. -1.
         -1   -1    0    0    0  501 -0.00000000000E+00 -0.00000000000E+00 -0.52718305798E+01  0.52718329890E+01  0.50400000000E-02 0.  1.
         24    2    1    2    0    0 -0.71054273576E-14  0.17763568394E-14  0.29231248373E+03  0.30285614731E+03  0.79216524910E+02 0.  0.
         66    2    3    3    0    0  0.32806513969E+02 -0.10856245629E+02  0.22005503657E+03  0.22276073382E+03  0.19999960859E+01 0.  0.
        -13    1    3    3    0    0 -0.32806513969E+02  0.10856245629E+02  0.72257447162E+02  0.80095413491E+02  0.10566000000E+00 0.  1.
         13    1    4    4    0    0  0.88304927287E+01 -0.24178495993E+01  0.58866336164E+02  0.59574157954E+02  0.10566000000E+00 0. -1.
        -13    1    4    4    0    0  0.21488375822E+02 -0.74716142899E+01  0.14135150114E+03  0.14317064418E+03  0.10566000000E+00 0.  1.
         14    1    4    4    0    0  0.24876454184E+01 -0.96678173935E+00  0.19837199263E+02  0.20015931686E+02  0.00000000000E+00 0. -1.
<mgrwt>
<rscale>  0 0.79216525E+02</rscale>
<asrwt>0</asrwt>
<pdfrwt beam="1">  1        2 0.45782202E-01 0.79216525E+02</pdfrwt>
<pdfrwt beam="2">  1       -1 0.81105105E-03 0.79216525E+02</pdfrwt>
<totfact> 0.26084153E+05</totfact>
</mgrwt>
</event>
<event>
 8    1  0.1520917E-017  0.8213225E+02  0.7818608E-02  0.1323107E+00
          2   -1    0    0  501    0  0.00000000000E+00  0.00000000000E+00  0.49646382981E+02  0.49646383046E+02  0.25500000000E-02 0. -1.
         -1   -1    0    0    0  501 -0.00000000000E+00 -0.00000000000E+00 -0.33968769389E+02  0.33968769763E+02  0.50400000000E-02 0.  1.
         24    2    1    2    0    0 -0.35527136788E-14  0.35527136788E-14  0.15677613592E+02  0.83615152809E+02  0.82132248303E+02 0.  0.
         66    2    3    3    0    0 -0.28774890208E+02  0.29165005144E+02  0.53853652364E+01  0.41371415145E+02  0.20000002145E+01 0.  0.
        -13    1    3    3    0    0  0.28774890208E+02 -0.29165005144E+02  0.10292248356E+02  0.42243737664E+02  0.10566000000E+00 0.  1.
         13    1    4    4    0    0 -0.17796713741E+02  0.17392976319E+02  0.25056466537E+01  0.25010559258E+02  0.10566000000E+00 0. -1.
        -13    1    4    4    0    0 -0.62112593212E+01  0.64952069863E+01  0.18400149068E+01  0.91741089509E+01  0.10566000000E+00 0.  1.
        -14    1    4    4    0    0 -0.47669171457E+01  0.52768218387E+01  0.10397036759E+01  0.71867469362E+01  0.00000000000E+00 0.  1.
<mgrwt>
<rscale>  0 0.82132248E+02</rscale>
<asrwt>0</asrwt>
<pdfrwt beam="1">  1        2 0.76379051E-02 0.82132248E+02</pdfrwt>
<pdfrwt beam="2">  1       -1 0.52259645E-02 0.82132248E+02</pdfrwt>
<totfact> 0.13880563E+05</totfact>
</mgrwt>
</event>
<event>
 8    1  0.1520917E-017  0.7974669E+02  0.7818608E-02  0.1329772E+00
         -1   -1    0    0    0  501 -0.00000000000E+00  0.00000000000E+00  0.54306682315E+01  0.54306705702E+01  0.50400000000E-02 0.  1.
          2   -1    0    0  501    0  0.00000000000E+00 -0.00000000000E+00 -0.29276015194E+03  0.29276015195E+03  0.25500000000E-02 0. -1.
         24    2    1    2    0    0  0.00000000000E+00  0.17763568394E-14 -0.28732948371E+03  0.29819082252E+03  0.79746689133E+02 0.  0.
         66    2    3    3    0    0  0.27909278571E+02 -0.14374238364E+02 -0.23552461516E+03  0.23761605774E+03  0.19999976507E+01 0.  0.
        -13    1    3    3    0    0 -0.27909278571E+02  0.14374238364E+02 -0.51804868545E+02  0.60574764778E+02  0.10566000000E+00 0.  1.
         13    1    4    4    0    0  0.16877884388E+02 -0.87238600947E+01 -0.14127626245E+03  0.14254810491E+03  0.10566000000E+00 0. -1.
        -13    1    4    4    0    0  0.25165906389E+01 -0.77166242680E+00 -0.18535302994E+02  0.18721573450E+02  0.10566000000E+00 0.  1.
        -14    1    4    4    0    0  0.85148035441E+01 -0.48787158427E+01 -0.75713049719E+02  0.76346379387E+02  0.00000000000E+00 0.  1.
<mgrwt>
<rscale>  0 0.79746689E+02</rscale>
<asrwt>0</asrwt>
<pdfrwt beam="1">  1        2 0.45040011E-01 0.79746689E+02</pdfrwt>
<pdfrwt beam="2">  1       -1 0.83548783E-03 0.79746689E+02</pdfrwt>
<totfact> 0.25480948E+05</totfact>
</mgrwt>
</event>
<event>
 8    1  0.1520917E-017  0.7893887E+02  0.7818608E-02  0.1332090E+00
          2   -1    0    0  501    0  0.00000000000E+00  0.00000000000E+00  0.13650212069E+03  0.13650212072E+03  0.25500000000E-02 0. -1.
         -1   -1    0    0    0  501 -0.00000000000E+00 -0.00000000000E+00 -0.11412542441E+02  0.11412543554E+02  0.50400000000E-02 0.  1.
         24    2    1    2    0    0  0.00000000000E+00  0.00000000000E+00  0.12508957825E+03  0.14791466427E+03  0.78938870775E+02 0.  0.
         66    2    3    3    0    0  0.77943585254E+01  0.35604435064E+02  0.90841364096E+02  0.97900874593E+02  0.19999985666E+01 0.  0.
        -13    1    3    3    0    0 -0.77943585254E+01 -0.35604435064E+02  0.34248214156E+02  0.50013789678E+02  0.10566000000E+00 0.  1.
         13    1    4    4    0    0  0.84135510849E+00  0.45604689046E+01  0.11933255065E+02  0.12803104918E+02  0.10566000000E+00 0. -1.
        -13    1    4    4    0    0  0.15587997521E+01  0.60956344916E+01  0.17449020137E+02  0.18549018419E+02  0.10566000000E+00 0.  1.
         14    1    4    4    0    0  0.53942036648E+01  0.24948331667E+02  0.61459088893E+02  0.66548751256E+02  0.00000000000E+00 0. -1.
<mgrwt>
<rscale>  0 0.78938871E+02</rscale>
<asrwt>0</asrwt>
<pdfrwt beam="1">  1        2 0.21000327E-01 0.78938871E+02</pdfrwt>
<pdfrwt beam="2">  1       -1 0.17557758E-02 0.78938871E+02</pdfrwt>
<totfact> 0.20140936E+05</totfact>
</mgrwt>
</event>
<event>
 8    1  0.1520917E-017  0.8285681E+02  0.7818608E-02  0.1321134E+00
         -1   -1    0    0    0  501 -0.00000000000E+00  0.00000000000E+00  0.36111566732E+03  0.36111566736E+03  0.50400000000E-02 0.  1.
          2   -1    0    0  501    0  0.00000000000E+00 -0.00000000000E+00 -0.47528052102E+01  0.47528058943E+01  0.25500000000E-02 0. -1.
         24    2    1    2    0    0  0.00000000000E+00  0.00000000000E+00  0.35636286211E+03  0.36586847325E+03  0.82856805556E+02 0.  0.
         66    2    3    3    0    0  0.22253133268E+02  0.33344780904E+02  0.13255957163E+03  0.13850312772E+03  0.20000009738E+01 0.  0.
        -13    1    3    3    0    0 -0.22253133268E+02 -0.33344780904E+02  0.22380329049E+03  0.22736534554E+03  0.10566000000E+00 0.  1.
         13    1    4    4    0    0  0.26429296060E+00  0.63814274696E+00  0.20412266330E+01  0.21575094757E+01  0.10566000000E+00 0. -1.
        -13    1    4    4    0    0  0.12112157684E+00  0.24820754158E+00  0.88481264579E+00  0.93291739925E+00  0.10566000000E+00 0. -1.
         14    1    4    4    0    0  0.21867718731E+02  0.32458430615E+02  0.12963353235E+03  0.13541270084E+03  0.00000000000E+00 0. -1.
<mgrwt>
<rscale>  0 0.82856806E+02</rscale>
<asrwt>0</asrwt>
<pdfrwt beam="1">  1        2 0.73120073E-03 0.82856806E+02</pdfrwt>
<pdfrwt beam="2">  1       -1 0.55556266E-01 0.82856806E+02</pdfrwt>
<totfact> 0.72830099E+04</totfact>
</mgrwt>
</event>
<event>
 8    1  0.1520917E-017  0.7996107E+02  0.7818608E-02  0.1329162E+00
          2   -1    0    0  501    0  0.00000000000E+00  0.00000000000E+00  0.24502120300E+03  0.24502120301E+03  0.25500000000E-02 0. -1.
         -1   -1    0    0    0  501 -0.00000000000E+00 -0.00000000000E+00 -0.65236928249E+01  0.65236947718E+01  0.50400000000E-02 0.  1.
         24    2    1    2    0    0  0.00000000000E+00  0.00000000000E+00  0.23849751017E+03  0.25154489778E+03  0.79961073291E+02 0.  0.
         66    2    3    3    0    0 -0.15782252023E+02 -0.36185940919E+02  0.13869922426E+03  0.14422196997E+03  0.20000031625E+01 0.  0.
        -13    1    3    3    0    0  0.15782252023E+02  0.36185940919E+02  0.99798285916E+02  0.10732292782E+03  0.10566000000E+00 0.  1.
         13    1    4    4    0    0 -0.52576969848E+01 -0.13177488773E+02  0.49232453883E+02  0.51236073886E+02  0.10566000000E+00 0. -1.
        -13    1    4    4    0    0 -0.29839431505E+01 -0.76113013920E+01  0.27242046487E+02  0.28442504926E+02  0.10566000000E+00 0.  1.
         14    1    4    4    0    0 -0.75406118873E+01 -0.15397150755E+02  0.62224723887E+02  0.64543391155E+02  0.00000000000E+00 0. -1.
<mgrwt>
<rscale>  0 0.79961073E+02</rscale>
<asrwt>0</asrwt>
<pdfrwt beam="1">  1        2 0.37695571E-01 0.79961073E+02</pdfrwt>
<pdfrwt beam="2">  1       -1 0.10036452E-02 0.79961073E+02</pdfrwt>
<totfact> 0.23727509E+05</totfact>
</mgrwt>
</event>
<event>
 8    1  0.1520917E-017  0.8014377E+02  0.7818608E-02  0.1328644E+00
         -1   -1    0    0    0  501 -0.00000000000E+00  0.00000000000E+00  0.60304531660E+02  0.60304531871E+02  0.50400000000E-02 0.  1.
          2   -1    0    0  501    0  0.00000000000E+00 -0.00000000000E+00 -0.26627449213E+02  0.26627449335E+02  0.25500000000E-02 0. -1.
         24    2    1    2    0    0  0.00000000000E+00 -0.35527136788E-14  0.33677082447E+02  0.86931981206E+02  0.80143767533E+02 0.  0.
         66    2    3    3    0    0  0.30909839205E+02  0.23854823623E+02  0.71908913602E+01  0.39751474087E+02  0.20000009480E+01 0.  0.
        -13    1    3    3    0    0 -0.30909839205E+02 -0.23854823623E+02  0.26486191087E+02  0.47180507119E+02  0.10566000000E+00 0.  1.
         13    1    4    4    0    0  0.17103644509E+02  0.13895969070E+02  0.39257414517E+01  0.22384262817E+02  0.10566000000E+00 0. -1.
        -13    1    4    4    0    0  0.11428361422E+02  0.87239138682E+01  0.27807454033E+01  0.14644378683E+02  0.10566000000E+00 0.  1.
        -14    1    4    4    0    0  0.23778332739E+01  0.12349406846E+01  0.48440450528E+00  0.27228325871E+01  0.00000000000E+00 0.  1.
<mgrwt>
<rscale>  0 0.80143768E+02</rscale>
<asrwt>0</asrwt>
<pdfrwt beam="1">  1        2 0.40965307E-02 0.80143768E+02</pdfrwt>
<pdfrwt beam="2">  1       -1 0.92776201E-02 0.80143768E+02</pdfrwt>
<totfact> 0.13076365E+05</totfact>
</mgrwt>
</event>
<event>
 8    1  0.1520917E-017  0.8028813E+02  0.7818608E-02  0.1328236E+00
          2   -1    0    0  501    0  0.00000000000E+00  0.00000000000E+00  0.15833061053E+04  0.15833061053E+04  0.25500000000E-02 0. -1.
         -1   -1    0    0    0  501 -0.00000000000E+00 -0.00000000000E+00 -0.10178298481E+01  0.10178423264E+01  0.50400000000E-02 0.  1.
         24    2    1    2    0    0 -0.17763568394E-14  0.17763568394E-14  0.15822882754E+04  0.15843239476E+04  0.80288133596E+02 0.  0.
         66    2    3    3    0    0  0.13539443600E+02 -0.12516728678E+02  0.14947360788E+04  0.14948511398E+04  0.20000007958E+01 0.  0.
        -13    1    3    3    0    0 -0.13539443600E+02  0.12516728678E+02  0.87552196641E+02  0.89472807771E+02  0.10566000000E+00 0.  1.
         13    1    4    4    0    0  0.24181412172E+01 -0.21286792860E+01  0.21527659159E+03  0.21530072163E+03  0.10566000000E+00 0.  1.
        -13    1    4    4    0    0  0.53864837259E+01 -0.43494798905E+01  0.56965708842E+03  0.56969916775E+03  0.10566000000E+00 0. -1.
        -14    1    4    4    0    0  0.57348186569E+01 -0.60385695016E+01  0.70980239875E+03  0.70985125043E+03  0.00000000000E+00 0.  1.
<mgrwt>
<rscale>  0 0.80288134E+02</rscale>
<asrwt>0</asrwt>
<pdfrwt beam="1">  1        2 0.24358591E+00 0.80288134E+02</pdfrwt>
<pdfrwt beam="2">  1       -1 0.15658994E-03 0.80288134E+02</pdfrwt>
<totfact> 0.32208186E+05</totfact>
</mgrwt>
</event>
<event>
 8    1  0.1520917E-017  0.8165798E+02  0.7818608E-02  0.1324411E+00
         -1   -1    0    0    0  501 -0.00000000000E+00  0.00000000000E+00  0.57939415062E+02  0.57939415281E+02  0.50400000000E-02 0.  1.
          2   -1    0    0  501    0  0.00000000000E+00 -0.00000000000E+00 -0.28771543956E+02  0.28771544069E+02  0.25500000000E-02 0. -1.
         24    2    1    2    0    0  0.00000000000E+00  0.00000000000E+00  0.29167871106E+02  0.86710959350E+02  0.81657980422E+02 0.  0.
         66    2    3    3    0    0  0.20866577298E+02  0.22391517218E+02 -0.14062503755E+02  0.33742378416E+02  0.19999994675E+01 0.  0.
        -13    1    3    3    0    0 -0.20866577298E+02 -0.22391517218E+02  0.43230374862E+02  0.52968580934E+02  0.10566000000E+00 0.  1.
         13    1    4    4    0    0  0.42831139623E+01  0.41225080121E+01 -0.23149557210E+01  0.63804640544E+01  0.10566000000E+00 0. -1.
        -13    1    4    4    0    0  0.23349532021E+01  0.21049664283E+01 -0.11478153481E+01  0.33483629178E+01  0.10566000000E+00 0.  1.
         14    1    4    4    0    0  0.14248510133E+02  0.16164042778E+02 -0.10599732686E+02  0.24013551444E+02  0.00000000000E+00 0. -1.
<mgrwt>
<rscale>  0 0.81657980E+02</rscale>
<asrwt>0</asrwt>
<pdfrwt beam="1">  1        2 0.44263914E-02 0.81657980E+02</pdfrwt>
<pdfrwt beam="2">  1       -1 0.89137562E-02 0.81657980E+02</pdfrwt>
<totfact> 0.12596244E+05</totfact>
</mgrwt>
</event>
<event>
 8    1  0.1520917E-017  0.8083789E+02  0.7818608E-02  0.1326690E+00
          2   -1    0    0  501    0  0.00000000000E+00  0.00000000000E+00  0.22418896246E+03  0.22418896247E+03  0.25500000000E-02 0. -1.
         -1   -1    0    0    0  501 -0.00000000000E+00 -0.00000000000E+00 -0.72871160544E+01  0.72871177973E+01  0.50400000000E-02 0.  1.
         24    2    1    2    0    0 -0.71054273576E-14  0.00000000000E+00  0.21690184640E+03  0.23147608027E+03  0.80837891881E+02 0.  0.
         66    2    3    3    0    0 -0.36278861658E+02 -0.13270770323E+02  0.14232742895E+03  0.14749022402E+03  0.20000001337E+01 0.  0.
        -13    1    3    3    0    0  0.36278861658E+02  0.13270770323E+02  0.74574417452E+02  0.83985856253E+02  0.10566000000E+00 0.  1.
         13    1    4    4    0    0 -0.99740431318E+00 -0.21465477995E+00  0.36352079784E+01  0.37771408658E+01  0.10566000000E+00 0.  1.
        -13    1    4    4    0    0 -0.10466999570E+01 -0.40863976484E+00  0.32746649429E+01  0.34636919293E+01  0.10566000000E+00 0. -1.
        -14    1    4    4    0    0 -0.34234757387E+02 -0.12647475778E+02  0.13541755603E+03  0.14024939122E+03  0.00000000000E+00 0.  1.
<mgrwt>
<rscale>  0 0.80837892E+02</rscale>
<asrwt>0</asrwt>
<pdfrwt beam="1">  1        2 0.34490612E-01 0.80837892E+02</pdfrwt>
<pdfrwt beam="2">  1       -1 0.11210948E-02 0.80837892E+02</pdfrwt>
<totfact> 0.22337969E+05</totfact>
</mgrwt>
</event>
<event>
 8    1  0.1520917E-017  0.8211718E+02  0.7818608E-02  0.1323148E+00
         -1   -1    0    0    0  501 -0.00000000000E+00  0.00000000000E+00  0.73283012036E+02  0.73283012209E+02  0.50400000000E-02 0.  1.
          2   -1    0    0  501    0  0.00000000000E+00 -0.00000000000E+00 -0.23004076210E+02  0.23004076351E+02  0.25500000000E-02 0. -1.
         24    2    1    2    0    0  0.17763568394E-14  0.00000000000E+00  0.50278935826E+02  0.96287088561E+02  0.82117184777E+02 0.  0.
         66    2    3    3    0    0 -0.75039604219E+01 -0.37429946503E+02  0.75077360292E+01  0.38957366659E+02  0.19999998597E+01 0.  0.
        -13    1    3    3    0    0  0.75039604219E+01  0.37429946503E+02  0.42771199797E+02  0.57329721902E+02  0.10566000000E+00 0.  1.
         13    1    4    4    0    0 -0.44546778321E+01 -0.21139825001E+02  0.47384308888E+01  0.22117871665E+02  0.10566000000E+00 0. -1.
        -13    1    4    4    0    0 -0.30839105963E+00 -0.15834427629E+01 -0.44493033263E-01  0.16172630258E+01  0.10566000000E+00 0.  1.
        -14    1    4    4    0    0 -0.27408915302E+01 -0.14706678740E+02  0.28137981737E+01  0.15222231968E+02  0.00000000000E+00 0.  1.
<mgrwt>
<rscale>  0 0.82117185E+02</rscale>
<asrwt>0</asrwt>
<pdfrwt beam="1">  1        2 0.35390887E-02 0.82117185E+02</pdfrwt>
<pdfrwt beam="2">  1       -1 0.11274310E-01 0.82117185E+02</pdfrwt>
<totfact> 0.11851463E+05</totfact>
</mgrwt>
</event>
<event>
 8    1  0.1520917E-017  0.8175038E+02  0.7818608E-02  0.1324156E+00
          2   -1    0    0  501    0  0.00000000000E+00  0.00000000000E+00  0.89439050010E+01  0.89439053645E+01  0.25500000000E-02 0. -1.
         -1   -1    0    0    0  501 -0.00000000000E+00 -0.00000000000E+00 -0.18680665480E+03  0.18680665487E+03  0.50400000000E-02 0.  1.
         24    2    1    2    0    0  0.00000000000E+00  0.88817841970E-15 -0.17786274980E+03  0.19575056023E+03  0.81750376546E+02 0.  0.
         66    2    3    3    0    0  0.32057179757E+02 -0.50342271840E+01 -0.29565848633E+02  0.43944801854E+02  0.19999968230E+01 0.  0.
        -13    1    3    3    0    0 -0.32057179757E+02  0.50342271840E+01 -0.14829690117E+03  0.15180575838E+03  0.10566000000E+00 0.  1.
         13    1    4    4    0    0  0.48131073280E+00 -0.78624570391E-01 -0.20810017940E+00  0.54065845489E+00  0.10566000000E+00 0. -1.
        -13    1    4    4    0    0  0.30951901604E+01 -0.55339483029E+00 -0.26767760175E+01  0.41307071853E+01  0.10566000000E+00 0.  1.
         14    1    4    4    0    0  0.28480678864E+02 -0.44022077833E+01 -0.26680972436E+02  0.39273436214E+02  0.00000000000E+00 0. -1.
<mgrwt>
<rscale>  0 0.81750377E+02</rscale>
<asrwt>0</asrwt>
<pdfrwt beam="1">  1        2 0.13759856E-02 0.81750377E+02</pdfrwt>
<pdfrwt beam="2">  1       -1 0.28739483E-01 0.81750377E+02</pdfrwt>
<totfact> 0.96195532E+04</totfact>
</mgrwt>
</event>
<event>
 8    1  0.1520917E-017  0.7881307E+02  0.7818608E-02  0.1332454E+00
         -1   -1    0    0    0  501 -0.00000000000E+00  0.00000000000E+00  0.51991414781E+01  0.51991439210E+01  0.50400000000E-02 0.  1.
          2   -1    0    0  501    0  0.00000000000E+00 -0.00000000000E+00 -0.29867906761E+03  0.29867906762E+03  0.25500000000E-02 0. -1.
         24    2    1    2    0    0 -0.35527136788E-14 -0.35527136788E-14 -0.29347992613E+03  0.30387821154E+03  0.78813072567E+02 0.  0.
         66    2    3    3    0    0  0.27126804688E+02  0.24848622201E+02 -0.20102713097E+03  0.20437520629E+03  0.20000000422E+01 0.  0.
        -13    1    3    3    0    0 -0.27126804688E+02 -0.24848622201E+02 -0.92452795158E+02  0.99503005253E+02  0.10566000000E+00 0.  1.
         13    1    4    4    0    0  0.71256259600E+01  0.61081836897E+01 -0.51071916364E+02  0.51927220785E+02  0.10566000000E+00 0. -1.
        -13    1    4    4    0    0  0.95457981065E+01  0.10034731516E+02 -0.75309559602E+02  0.76572573612E+02  0.10566000000E+00 0.  1.
        -14    1    4    4    0    0  0.10455380621E+02  0.87057069945E+01 -0.74645655008E+02  0.75875411892E+02  0.00000000000E+00 0.  1.
<mgrwt>
<rscale>  0 0.78813073E+02</rscale>
<asrwt>0</asrwt>
<pdfrwt beam="1">  1        2 0.45950612E-01 0.78813073E+02</pdfrwt>
<pdfrwt beam="2">  1       -1 0.79986834E-03 0.78813073E+02</pdfrwt>
<totfact> 0.26470412E+05</totfact>
</mgrwt>
</event>
<event>
 8    1  0.1520917E-017  0.8023606E+02  0.7818608E-02  0.1328383E+00
          2   -1    0    0  501    0  0.00000000000E+00  0.00000000000E+00  0.12152102334E+04  0.12152102334E+04  0.25500000000E-02 0. -1.
         -1   -1    0    0    0  501 -0.00000000000E+00 -0.00000000000E+00 -0.13244213651E+01  0.13244309548E+01  0.50400000000E-02 0.  1.
         24    2    1    2    0    0  0.11102230246E-15  0.00000000000E+00  0.12138858120E+04  0.12165346644E+04  0.80236057504E+02 0.  0.
         66    2    3    3    0    0 -0.65995891584E+00  0.26837457488E+02  0.10588208514E+04  0.10591630092E+04  0.20000003095E+01 0.  0.
        -13    1    3    3    0    0  0.65995891584E+00 -0.26837457488E+02  0.15506496062E+03  0.15737165516E+03  0.10566000000E+00 0.  1.
         13    1    4    4    0    0 -0.11845922688E+00  0.12001280829E+02  0.43699112648E+03  0.43715592248E+03  0.10566000000E+00 0.  1.
        -13    1    4    4    0    0 -0.87440796841E-01  0.32987410167E+01  0.13170155666E+03  0.13174293350E+03  0.10566000000E+00 0. -1.
        -14    1    4    4    0    0 -0.45405889212E+00  0.11537435642E+02  0.49012816829E+03  0.49026415323E+03  0.00000000000E+00 0.  1.
<mgrwt>
<rscale>  0 0.80236058E+02</rscale>
<asrwt>0</asrwt>
<pdfrwt beam="1">  1        2 0.18695563E+00 0.80236058E+02</pdfrwt>
<pdfrwt beam="2">  1       -1 0.20375764E-03 0.80236058E+02</pdfrwt>
<totfact> 0.34720049E+05</totfact>
</mgrwt>
</event>
<event>
 8    1  0.1520917E-017  0.8026802E+02  0.7818608E-02  0.1328293E+00
          2   -1    0    0  501    0  0.00000000000E+00  0.00000000000E+00  0.29146859833E+02  0.29146859944E+02  0.25500000000E-02 0. -1.
         -1   -1    0    0    0  501 -0.00000000000E+00 -0.00000000000E+00 -0.55262853635E+02  0.55262853865E+02  0.50400000000E-02 0.  1.
         24    2    1    2    0    0  0.00000000000E+00  0.00000000000E+00 -0.26115993802E+02  0.84409713809E+02  0.80268017622E+02 0.  0.
         66    2    3    3    0    0 -0.12950556647E+02  0.53609235067E+01  0.26453276539E+02  0.30003870681E+02  0.19999994675E+01 0.  0.
        -13    1    3    3    0    0  0.12950556647E+02 -0.53609235067E+01 -0.52569270341E+02  0.54405843128E+02  0.10566000000E+00 0.  1.
         13    1    4    4    0    0 -0.68690811025E+01  0.36735065960E+01  0.15441390799E+02  0.17295277961E+02  0.10566000000E+00 0. -1.
        -13    1    4    4    0    0 -0.26921861202E+01  0.56702824875E+00  0.53129965832E+01  0.59840190399E+01  0.10566000000E+00 0.  1.
         14    1    4    4    0    0 -0.33892894248E+01  0.11203886620E+01  0.56988891563E+01  0.67245736797E+01  0.00000000000E+00 0. -1.
<mgrwt>
<rscale>  0 0.80268018E+02</rscale>
<asrwt>0</asrwt>
<pdfrwt beam="1">  1        2 0.44841323E-02 0.80268018E+02</pdfrwt>
<pdfrwt beam="2">  1       -1 0.85019775E-02 0.80268018E+02</pdfrwt>
<totfact> 0.13253821E+05</totfact>
</mgrwt>
</event>
<event>
 8    1  0.1520917E-017  0.7977610E+02  0.7818608E-02  0.1329688E+00
         -1   -1    0    0    0  501 -0.00000000000E+00  0.00000000000E+00  0.91663120300E+01  0.91663134156E+01  0.50400000000E-02 0.  1.
          2   -1    0    0  501    0  0.00000000000E+00 -0.00000000000E+00 -0.17357648864E+03  0.17357648866E+03  0.25500000000E-02 0. -1.
         24    2    1    2    0    0 -0.35527136788E-14  0.17763568394E-14 -0.16441017661E+03  0.18274280208E+03  0.79776096276E+02 0.  0.
         66    2    3    3    0    0 -0.18036583875E+02  0.10405200171E+02 -0.16012225395E+03  0.16148288690E+03  0.20000005749E+01 0.  0.
        -13    1    3    3    0    0  0.18036583875E+02 -0.10405200171E+02 -0.42879226581E+01  0.21259915175E+02  0.10566000000E+00 0.  1.
         13    1    4    4    0    0 -0.11876920558E+02  0.65118578814E+01 -0.11005018010E+03  0.11088065133E+03  0.10566000000E+00 0. -1.
        -13    1    4    4    0    0 -0.29901871427E+01  0.19549477374E+01 -0.26247190901E+02  0.26489417397E+02  0.10566000000E+00 0.  1.
        -14    1    4    4    0    0 -0.31694761741E+01  0.19383945521E+01 -0.23824882955E+02  0.24112818178E+02  0.00000000000E+00 0.  1.
<mgrwt>
<rscale>  0 0.79776096E+02</rscale>
<asrwt>0</asrwt>
<pdfrwt beam="1">  1        2 0.26704073E-01 0.79776096E+02</pdfrwt>
<pdfrwt beam="2">  1       -1 0.14102021E-02 0.79776096E+02</pdfrwt>
<totfact> 0.21171533E+05</totfact>
</mgrwt>
</event>
<event>
 8    1  0.1520917E-017  0.7947326E+02  0.7818608E-02  0.1330553E+00
         -1   -1    0    0    0  501 -0.00000000000E+00  0.00000000000E+00  0.49621884189E+01  0.49621909784E+01  0.50400000000E-02 0.  1.
          2   -1    0    0  501    0  0.00000000000E+00 -0.00000000000E+00 -0.31820624815E+03  0.31820624816E+03  0.25500000000E-02 0. -1.
         24    2    1    2    0    0  0.35527136788E-14  0.00000000000E+00 -0.31324405973E+03  0.32316843914E+03  0.79473260273E+02 0.  0.
         66    2    3    3    0    0 -0.28056702899E+02  0.26816838408E+02 -0.19090597432E+03  0.19482148863E+03  0.19999998950E+01 0.  0.
        -13    1    3    3    0    0  0.28056702899E+02 -0.26816838408E+02 -0.12233808541E+03  0.12834695051E+03  0.10566000000E+00 0.  1.
         13    1    4    4    0    0 -0.15602209967E+02  0.15070875523E+02 -0.10897549912E+03  0.11111359420E+03  0.10566000000E+00 0. -1.
        -13    1    4    4    0    0 -0.11232691050E+02  0.11009307380E+02 -0.74669969534E+02  0.76308542848E+02  0.10566000000E+00 0.  1.
        -14    1    4    4    0    0 -0.12218018815E+01  0.73665550596E+00 -0.72605056707E+01  0.73993515775E+01  0.00000000000E+00 0.  1.
<mgrwt>
<rscale>  0 0.79473260E+02</rscale>
<asrwt>0</asrwt>
<pdfrwt beam="1">  1        2 0.48954791E-01 0.79473260E+02</pdfrwt>
<pdfrwt beam="2">  1       -1 0.76341405E-03 0.79473260E+02</pdfrwt>
<totfact> 0.26497840E+05</totfact>
</mgrwt>
</event>
<event>
 8    1  0.1520917E-017  0.8598498E+02  0.7818608E-02  0.1312877E+00
          2   -1    0    0  501    0  0.00000000000E+00  0.00000000000E+00  0.53213288516E+01  0.53213294625E+01  0.25500000000E-02 0. -1.
         -1   -1    0    0    0  501 -0.00000000000E+00 -0.00000000000E+00 -0.34734825156E+03  0.34734825160E+03  0.50400000000E-02 0.  1.
         24    2    1    2    0    0  0.00000000000E+00  0.00000000000E+00 -0.34202692271E+03  0.35266958106E+03  0.85984984428E+02 0.  0.
         66    2    3    3    0    0  0.19476827471E+02 -0.36448780542E+02 -0.12283843470E+03  0.12961921713E+03  0.19999993605E+01 0.  0.
        -13    1    3    3    0    0 -0.19476827471E+02  0.36448780542E+02 -0.21918848801E+03  0.22305036393E+03  0.10566000000E+00 0.  1.
         13    1    4    4    0    0  0.32848643767E+01 -0.63464764050E+01 -0.23207953510E+02  0.24283499890E+02  0.10566000000E+00 0. -1.
        -13    1    4    4    0    0  0.88181332284E+01 -0.17088576059E+02 -0.57213086104E+02  0.60358324123E+02  0.10566000000E+00 0.  1.
         14    1    4    4    0    0  0.73738298654E+01 -0.13013728078E+02 -0.42417395087E+02  0.44977393114E+02  0.00000000000E+00 0. -1.
<mgrwt>
<rscale>  0 0.85984984E+02</rscale>
<asrwt>0</asrwt>
<pdfrwt beam="1">  1        2 0.81866630E-03 0.85984984E+02</pdfrwt>
<pdfrwt beam="2">  1       -1 0.53438175E-01 0.85984984E+02</pdfrwt>
<totfact> 0.67401737E+04</totfact>
</mgrwt>
</event>
<event>
 8    1  0.1520917E-017  0.8098446E+02  0.7818608E-02  0.1326281E+00
          2   -1    0    0  501    0  0.00000000000E+00  0.00000000000E+00  0.15939675951E+03  0.15939675953E+03  0.25500000000E-02 0. -1.
         -1   -1    0    0    0  501 -0.00000000000E+00 -0.00000000000E+00 -0.10286410949E+02  0.10286412184E+02  0.50400000000E-02 0.  1.
         24    2    1    2    0    0  0.35527136788E-14  0.35527136788E-14  0.14911034856E+03  0.16968317172E+03  0.80984459715E+02 0.  0.
         66    2    3    3    0    0 -0.26757731886E+02 -0.23468077576E+02  0.11495195083E+03  0.12035230734E+03  0.20000002724E+01 0.  0.
        -13    1    3    3    0    0  0.26757731886E+02  0.23468077576E+02  0.34158397737E+02  0.49330864383E+02  0.10566000000E+00 0.  1.
         13    1    4    4    0    0 -0.76258720979E+01 -0.63073568576E+01  0.32695392287E+02  0.34160452523E+02  0.10566000000E+00 0. -1.
        -13    1    4    4    0    0 -0.14963939035E+01 -0.15423717926E+01  0.56852484517E+01  0.60787596970E+01  0.10566000000E+00 0.  1.
        -14    1    4    4    0    0 -0.17635465884E+02 -0.15618348926E+02  0.76571310090E+02  0.80113095116E+02  0.00000000000E+00 0.  1.
<mgrwt>
<rscale>  0 0.80984460E+02</rscale>
<asrwt>0</asrwt>
<pdfrwt beam="1">  1        2 0.24522578E-01 0.80984460E+02</pdfrwt>
<pdfrwt beam="2">  1       -1 0.15825249E-02 0.80984460E+02</pdfrwt>
<totfact> 0.19777539E+05</totfact>
</mgrwt>
</event>
<event>
 8    1  0.1520917E-017  0.7926996E+02  0.7818608E-02  0.1331136E+00
          2   -1    0    0  501    0  0.00000000000E+00  0.00000000000E+00  0.19406897452E+03  0.19406897454E+03  0.25500000000E-02 0. -1.
         -1   -1    0    0    0  501 -0.00000000000E+00 -0.00000000000E+00 -0.80947072817E+01  0.80947088507E+01  0.50400000000E-02 0.  1.
         24    2    1    2    0    0 -0.35527136788E-14 -0.35527136788E-14  0.18597426724E+03  0.20216368339E+03  0.79269961562E+02 0.  0.
         66    2    3    3    0    0 -0.27680018649E+02  0.26126432632E+02  0.12100129031E+03  0.12686246952E+03  0.20000006321E+01 0.  0.
        -13    1    3    3    0    0  0.27680018649E+02 -0.26126432632E+02  0.64972976935E+02  0.75301213870E+02  0.10566000000E+00 0.  1.
         13    1    4    4    0    0 -0.94382990484E+01  0.88287854165E+01  0.39922703287E+02  0.41962630312E+02  0.10566000000E+00 0.  1.
        -13    1    4    4    0    0 -0.17714674819E+02  0.16636678842E+02  0.79075810855E+02  0.82725956104E+02  0.10566000000E+00 0. -1.
         14    1    4    4    0    0 -0.52704478129E+00  0.66096837324E+00  0.20027761638E+01  0.21738831050E+01  0.00000000000E+00 0. -1.
<mgrwt>
<rscale>  0 0.79269962E+02</rscale>
<asrwt>0</asrwt>
<pdfrwt beam="1">  1        2 0.29856767E-01 0.79269962E+02</pdfrwt>
<pdfrwt beam="2">  1       -1 0.12453397E-02 0.79269962E+02</pdfrwt>
<totfact> 0.22364349E+05</totfact>
</mgrwt>
</event>
<event>
 8    1  0.1520917E-017  0.7964717E+02  0.7818608E-02  0.1330056E+00
         -1   -1    0    0    0  501 -0.00000000000E+00  0.00000000000E+00  0.10947376219E+02  0.10947377379E+02  0.50400000000E-02 0.  1.
          2   -1    0    0  501    0  0.00000000000E+00 -0.00000000000E+00 -0.14486737950E+03  0.14486737953E+03  0.25500000000E-02 0. -1.
         24    2    1    2    0    0  0.00000000000E+00 -0.71054273576E-14 -0.13392000328E+03  0.15581475691E+03  0.79647166867E+02 0.  0.
         66    2    3    3    0    0 -0.10452749367E+02 -0.38309859973E+02 -0.61823415867E+02  0.73505374562E+02  0.19999999165E+01 0.  0.
        -13    1    3    3    0    0  0.10452749367E+02  0.38309859973E+02 -0.72096587418E+02  0.82309382344E+02  0.10566000000E+00 0.  1.
         13    1    4    4    0    0 -0.24741610899E+01 -0.88041596218E+01 -0.13289443021E+02  0.16132425719E+02  0.10566000000E+00 0. -1.
        -13    1    4    4    0    0 -0.34537526898E+01 -0.15316924873E+02 -0.24648917228E+02  0.29225278096E+02  0.10566000000E+00 0.  1.
        -14    1    4    4    0    0 -0.45248355871E+01 -0.14188775478E+02 -0.23885055618E+02  0.28147670747E+02  0.00000000000E+00 0.  1.
<mgrwt>
<rscale>  0 0.79647167E+02</rscale>
<asrwt>0</asrwt>
<pdfrwt beam="1">  1        2 0.22287288E-01 0.79647167E+02</pdfrwt>
<pdfrwt beam="2">  1       -1 0.16842119E-02 0.79647167E+02</pdfrwt>
<totfact> 0.20041513E+05</totfact>
</mgrwt>
</event>
<event>
 8    1  0.1548476E-017  0.7982100E+02  0.7818608E-02  0.1329560E+00
          2   -1    0    0  501    0  0.00000000000E+00  0.00000000000E+00  0.29452582382E+02  0.29452582492E+02  0.25500000000E-02 0. -1.
         -1   -1    0    0    0  501 -0.00000000000E+00 -0.00000000000E+00 -0.54081775308E+02  0.54081775543E+02  0.50400000000E-02 0.  1.
         24    2    1    2    0    0 -0.14210854715E-13 -0.17763568394E-14 -0.24629192926E+02  0.83534358035E+02  0.79820998667E+02 0.  0.
         66    2    3    3    0    0 -0.39298592693E+02 -0.66395670194E+01 -0.13936719597E+02  0.42269319713E+02  0.19999994994E+01 0.  0.
        -13    1    3    3    0    0  0.39298592693E+02  0.66395670194E+01 -0.10692473329E+02  0.41265038322E+02  0.10566000000E+00 0.  1.
         13    1    4    4    0    0 -0.31673036048E+02 -0.52487056622E+01 -0.10992695173E+02  0.33934947102E+02  0.10566000000E+00 0. -1.
        -13    1    4    4    0    0 -0.25248477041E+01 -0.48192542878E+00 -0.56843705922E+00  0.26346523060E+01  0.10566000000E+00 0.  1.
        -14    1    4    4    0    0 -0.51007089411E+01 -0.90893592843E+00 -0.23755873652E+01  0.56997203048E+01  0.00000000000E+00 0.  1.
<mgrwt>
<rscale>  0 0.79820999E+02</rscale>
<asrwt>0</asrwt>
<pdfrwt beam="1">  1        2 0.45311665E-02 0.79820999E+02</pdfrwt>
<pdfrwt beam="2">  1       -1 0.83202732E-02 0.79820999E+02</pdfrwt>
<totfact> 0.13490928E+05</totfact>
</mgrwt>
</event>
<event>
 8    1  0.1704911E-017  0.8002560E+02  0.7818608E-02  0.1328979E+00
          2   -1    0    0  501    0  0.00000000000E+00  0.00000000000E+00  0.28196674775E+02  0.28196674890E+02  0.25500000000E-02 0. -1.
         -1   -1    0    0    0  501 -0.00000000000E+00 -0.00000000000E+00 -0.56780606341E+02  0.56780606564E+02  0.50400000000E-02 0.  1.
         24    2    1    2    0    0  0.00000000000E+00  0.00000000000E+00 -0.28583931566E+02  0.84977281454E+02  0.80025603525E+02 0.  0.
         66    2    3    3    0    0  0.32026417991E+02  0.88568722606E+01  0.93216104623E+01  0.34569177780E+02  0.19999988081E+01 0.  0.
        -13    1    3    3    0    0 -0.32026417991E+02 -0.88568722606E+01 -0.37905542028E+02  0.50408103674E+02  0.10566000000E+00 0.  1.
         13    1    4    4    0    0  0.18969391807E+02  0.51589398759E+01  0.57151005660E+01  0.20472567614E+02  0.10566000000E+00 0. -1.
        -13    1    4    4    0    0  0.11736308296E+02  0.29737633681E+01  0.30070988810E+01  0.12475496331E+02  0.10566000000E+00 0.  1.
        -14    1    4    4    0    0  0.13207178878E+01  0.72416901659E+00  0.59941101532E+00  0.16211138360E+01  0.00000000000E+00 0.  1.
<mgrwt>
<rscale>  0 0.80025604E+02</rscale>
<asrwt>0</asrwt>
<pdfrwt beam="1">  1        2 0.43379500E-02 0.80025604E+02</pdfrwt>
<pdfrwt beam="2">  1       -1 0.87354779E-02 0.80025604E+02</pdfrwt>
<totfact> 0.13279879E+05</totfact>
</mgrwt>
</event>
<event>
 8    1  0.1520917E-017  0.8218870E+02  0.7818608E-02  0.1322953E+00
         -1   -1    0    0    0  501 -0.00000000000E+00  0.00000000000E+00  0.49249439725E+02  0.49249439983E+02  0.50400000000E-02 0.  1.
          2   -1    0    0  501    0  0.00000000000E+00 -0.00000000000E+00 -0.34289640198E+02  0.34289640293E+02  0.25500000000E-02 0. -1.
         24    2    1    2    0    0  0.00000000000E+00  0.00000000000E+00  0.14959799527E+02  0.83539080276E+02  0.82188699536E+02 0.  0.
         66    2    3    3    0    0  0.27344092030E+02  0.10177728877E+02 -0.21894826693E+02  0.36533121378E+02  0.19999969134E+01 0.  0.
        -13    1    3    3    0    0 -0.27344092030E+02 -0.10177728877E+02  0.36854626219E+02  0.47005958897E+02  0.10566000000E+00 0.  1.
         13    1    4    4    0    0  0.55902669640E+01  0.13249312370E+01 -0.42518573333E+01  0.71481453770E+01  0.10566000000E+00 0. -1.
        -13    1    4    4    0    0  0.43911968302E+01  0.20962396960E+01 -0.35439908105E+01  0.60206200150E+01  0.10566000000E+00 0.  1.
        -14    1    4    4    0    0  0.17362628236E+02  0.67565579437E+01 -0.14098978549E+02  0.23364355986E+02  0.00000000000E+00 0.  1.
<mgrwt>
<rscale>  0 0.82188700E+02</rscale>
<asrwt>0</asrwt>
<pdfrwt beam="1">  1        2 0.52753293E-02 0.82188700E+02</pdfrwt>
<pdfrwt beam="2">  1       -1 0.75768369E-02 0.82188700E+02</pdfrwt>
<totfact> 0.12814697E+05</totfact>
</mgrwt>
</event>
<event>
 8    1  0.1520917E-017  0.8085073E+02  0.7818608E-02  0.1326654E+00
          2   -1    0    0  501    0  0.00000000000E+00  0.00000000000E+00  0.15516519763E+02  0.15516519972E+02  0.25500000000E-02 0. -1.
         -1   -1    0    0    0  501 -0.00000000000E+00 -0.00000000000E+00 -0.10532065047E+03  0.10532065059E+03  0.50400000000E-02 0.  1.
         24    2    1    2    0    0  0.17763568394E-14  0.35527136788E-14 -0.89804130703E+02  0.12083717056E+03  0.80850726015E+02 0.  0.
         66    2    3    3    0    0 -0.15137625272E+02 -0.16579975468E+02  0.52703715232E+01  0.23147788213E+02  0.19999994336E+01 0.  0.
        -13    1    3    3    0    0  0.15137625272E+02  0.16579975468E+02 -0.95074502227E+02  0.97689382346E+02  0.10566000000E+00 0.  1.
         13    1    4    4    0    0 -0.18692162743E+01 -0.15881365065E+01  0.57486283986E+00  0.25214635361E+01  0.10566000000E+00 0. -1.
        -13    1    4    4    0    0 -0.15627854538E+01 -0.16359189745E+01  0.33851973804E-01  0.22651355936E+01  0.10566000000E+00 0.  1.
         14    1    4    4    0    0 -0.11705623544E+02 -0.13355919987E+02  0.46616567095E+01  0.18361189083E+02  0.00000000000E+00 0. -1.
<mgrwt>
<rscale>  0 0.80850726E+02</rscale>
<asrwt>0</asrwt>
<pdfrwt beam="1">  1        2 0.23871570E-02 0.80850726E+02</pdfrwt>
<pdfrwt beam="2">  1       -1 0.16203177E-01 0.80850726E+02</pdfrwt>
<totfact> 0.11415339E+05</totfact>
</mgrwt>
</event>
<event>
 8    1  0.1520917E-017  0.7722607E+02  0.7818608E-02  0.1337113E+00
          2   -1    0    0  501    0  0.00000000000E+00  0.00000000000E+00  0.10390364286E+04  0.10390364286E+04  0.25500000000E-02 0. -1.
         -1   -1    0    0    0  501 -0.00000000000E+00 -0.00000000000E+00 -0.14349465568E+01  0.14349554078E+01  0.50400000000E-02 0.  1.
         24    2    1    2    0    0  0.00000000000E+00  0.17763568394E-14  0.10376014820E+04  0.10404713840E+04  0.77226066889E+02 0.  0.
         66    2    3    3    0    0  0.20058740945E+02 -0.99509975887E+01  0.94255049311E+03  0.94281854430E+03  0.19999952456E+01 0.  0.
        -13    1    3    3    0    0 -0.20058740945E+02  0.99509975887E+01  0.95050988886E+02  0.97652839660E+02  0.10566000000E+00 0.  1.
         13    1    4    4    0    0  0.12508570766E+02 -0.55146892497E+01  0.57075562980E+03  0.57091932552E+03  0.10566000000E+00 0.  1.
        -13    1    4    4    0    0  0.34570363383E+01 -0.16120621114E+01  0.17418217314E+03  0.17422396634E+03  0.10566000000E+00 0. -1.
        -14    1    4    4    0    0  0.40931338405E+01 -0.28242462276E+01  0.19761269017E+03  0.19767525244E+03  0.00000000000E+00 0.  1.
<mgrwt>
<rscale>  0 0.77226067E+02</rscale>
<asrwt>0</asrwt>
<pdfrwt beam="1">  1        2 0.15985240E+00 0.77226067E+02</pdfrwt>
<pdfrwt beam="2">  1       -1 0.22076080E-03 0.77226067E+02</pdfrwt>
<totfact> 0.38646403E+05</totfact>
</mgrwt>
</event>
<event>
 8    1  0.1520917E-017  0.7847143E+02  0.7818608E-02  0.1333446E+00
         -1   -1    0    0    0  501 -0.00000000000E+00  0.00000000000E+00  0.25435799625E+01  0.25435849558E+01  0.50400000000E-02 0.  1.
          2   -1    0    0  501    0  0.00000000000E+00 -0.00000000000E+00 -0.60522571125E+03  0.60522571126E+03  0.25500000000E-02 0. -1.
         24    2    1    2    0    0  0.00000000000E+00  0.00000000000E+00 -0.60268213129E+03  0.60776929622E+03  0.78471434572E+02 0.  0.
         66    2    3    3    0    0  0.17695251030E+02  0.32989778695E+02 -0.39185530743E+03  0.39364454698E+03  0.20000015718E+01 0.  0.
        -13    1    3    3    0    0 -0.17695251030E+02 -0.32989778695E+02 -0.21082682387E+03  0.21412474923E+03  0.10566000000E+00 0.  1.
         13    1    4    4    0    0  0.10463660026E+02  0.20700272824E+02 -0.24189801614E+03  0.24300751192E+03  0.10566000000E+00 0. -1.
        -13    1    4    4    0    0  0.17046336461E+01  0.29700326954E+01 -0.40586596396E+02  0.40730944516E+02  0.10566000000E+00 0.  1.
         14    1    4    4    0    0  0.55269573583E+01  0.93194731755E+01 -0.10937069489E+03  0.10990609055E+03  0.00000000000E+00 0. -1.
<mgrwt>
<rscale>  0 0.78471435E+02</rscale>
<asrwt>0</asrwt>
<pdfrwt beam="1">  1        2 0.93111534E-01 0.78471435E+02</pdfrwt>
<pdfrwt beam="2">  1       -1 0.39132086E-03 0.78471435E+02</pdfrwt>
<totfact> 0.33898988E+05</totfact>
</mgrwt>
</event>
<event>
 8    1  0.1520917E-017  0.7589147E+02  0.7818608E-02  0.1341132E+00
         -1   -1    0    0    0  501 -0.00000000000E+00  0.00000000000E+00  0.30820738632E+01  0.30820779841E+01  0.50400000000E-02 0.  1.
          2   -1    0    0  501    0  0.00000000000E+00 -0.00000000000E+00 -0.46717823899E+03  0.46717823900E+03  0.25500000000E-02 0. -1.
         24    2    1    2    0    0  0.00000000000E+00  0.00000000000E+00 -0.46409616513E+03  0.47026031698E+03  0.75891470151E+02 0.  0.
         66    2    3    3    0    0  0.10059631651E+02 -0.35430597768E+02 -0.28809767146E+03  0.29044929290E+03  0.19999983215E+01 0.  0.
        -13    1    3    3    0    0 -0.10059631651E+02  0.35430597768E+02 -0.17599849366E+03  0.17981102409E+03  0.10566000000E+00 0.  1.
         13    1    4    4    0    0  0.42682003923E+01 -0.13289517090E+02 -0.11577296102E+03  0.11661139938E+03  0.10566000000E+00 0. -1.
        -13    1    4    4    0    0  0.19737348711E+01 -0.74146149656E+01 -0.57892136909E+02  0.58398483065E+02  0.10566000000E+00 0.  1.
         14    1    4    4    0    0  0.38176963875E+01 -0.14726465713E+02 -0.11443257354E+03  0.11543941045E+03  0.00000000000E+00 0. -1.
<mgrwt>
<rscale>  0 0.75891470E+02</rscale>
<asrwt>0</asrwt>
<pdfrwt beam="1">  1        2 0.71873519E-01 0.75891470E+02</pdfrwt>
<pdfrwt beam="2">  1       -1 0.47416590E-03 0.75891470E+02</pdfrwt>
<totfact> 0.34166070E+05</totfact>
</mgrwt>
</event>
<event>
 8    1  0.1520917E-017  0.8431606E+02  0.7818608E-02  0.1317231E+00
          2   -1    0    0  501    0  0.00000000000E+00  0.00000000000E+00  0.92871367123E+02  0.92871367158E+02  0.25500000000E-02 0. -1.
         -1   -1    0    0    0  501 -0.00000000000E+00 -0.00000000000E+00 -0.19137215069E+02  0.19137215733E+02  0.50400000000E-02 0.  1.
         24    2    1    2    0    0  0.44408920985E-15  0.00000000000E+00  0.73734152054E+02  0.11200858289E+03  0.84316056965E+02 0.  0.
         66    2    3    3    0    0 -0.23253839582E+01  0.39742675347E+02  0.55218590736E+02  0.68102719623E+02  0.20000007345E+01 0.  0.
        -13    1    3    3    0    0  0.23253839582E+01 -0.39742675347E+02  0.18515561318E+02  0.43905863267E+02  0.10566000000E+00 0.  1.
         13    1    4    4    0    0 -0.73203987458E+00  0.66255466269E+01  0.95732465123E+01  0.11665846018E+02  0.10566000000E+00 0. -1.
        -13    1    4    4    0    0 -0.86402503803E+00  0.18425969507E+02  0.24103563139E+02  0.30352196157E+02  0.10566000000E+00 0.  1.
         14    1    4    4    0    0 -0.72931904558E+00  0.14691159213E+02  0.21541781085E+02  0.26084677449E+02  0.00000000000E+00 0. -1.
<mgrwt>
<rscale>  0 0.84316057E+02</rscale>
<asrwt>0</asrwt>
<pdfrwt beam="1">  1        2 0.14287903E-01 0.84316057E+02</pdfrwt>
<pdfrwt beam="2">  1       -1 0.29441870E-02 0.84316057E+02</pdfrwt>
<totfact> 0.15076249E+05</totfact>
</mgrwt>
</event>
<event>
 8    1  0.1520917E-017  0.7951816E+02  0.7818608E-02  0.1330424E+00
          2   -1    0    0  501    0  0.00000000000E+00  0.00000000000E+00  0.23666575542E+02  0.23666575679E+02  0.25500000000E-02 0. -1.
         -1   -1    0    0    0  501 -0.00000000000E+00 -0.00000000000E+00 -0.66793966764E+02  0.66793966954E+02  0.50400000000E-02 0.  1.
         24    2    1    2    0    0  0.00000000000E+00  0.00000000000E+00 -0.43127391222E+02  0.90460542633E+02  0.79518160817E+02 0.  0.
         66    2    3    3    0    0 -0.54921293448E+01 -0.24992500310E+02  0.13002839451E+02  0.28772597976E+02  0.20000010170E+01 0.  0.
        -13    1    3    3    0    0  0.54921293448E+01  0.24992500310E+02 -0.56130230673E+02  0.61687944656E+02  0.10566000000E+00 0.  1.
         13    1    4    4    0    0 -0.26037692508E+00 -0.19358884822E+01  0.14970852801E+01  0.24633084927E+01  0.10566000000E+00 0. -1.
        -13    1    4    4    0    0 -0.87703542739E+00 -0.27464705374E+01  0.12620748596E+01  0.31490138997E+01  0.10566000000E+00 0. -1.
         14    1    4    4    0    0 -0.43547169924E+01 -0.20310141290E+02  0.10243679311E+02  0.23160275584E+02  0.00000000000E+00 0. -1.
<mgrwt>
<rscale>  0 0.79518161E+02</rscale>
<asrwt>0</asrwt>
<pdfrwt beam="1">  1        2 0.36410117E-02 0.79518161E+02</pdfrwt>
<pdfrwt beam="2">  1       -1 0.10275995E-01 0.79518161E+02</pdfrwt>
<totfact> 0.13062680E+05</totfact>
</mgrwt>
</event>
<event>
 8    1  0.1520917E-017  0.8050962E+02  0.7818608E-02  0.1327611E+00
         -1   -1    0    0    0  501 -0.00000000000E+00  0.00000000000E+00  0.45296561524E+01  0.45296589563E+01  0.50400000000E-02 0.  1.
          2   -1    0    0  501    0  0.00000000000E+00 -0.00000000000E+00 -0.35774218163E+03  0.35774218164E+03  0.25500000000E-02 0. -1.
         24    2    1    2    0    0  0.00000000000E+00  0.00000000000E+00 -0.35321252548E+03  0.36227184059E+03  0.80509616407E+02 0.  0.
         66    2    3    3    0    0  0.77823100084E+01 -0.33209868920E+02 -0.27269595069E+03  0.27482820320E+03  0.20000010333E+01 0.  0.
        -13    1    3    3    0    0 -0.77823100084E+01  0.33209868920E+02 -0.80516574781E+02  0.87443637397E+02  0.10566000000E+00 0.  1.
         13    1    4    4    0    0  0.45574518606E+00 -0.17207443216E+01 -0.16178028050E+02  0.16276007505E+02  0.10566000000E+00 0. -1.
        -13    1    4    4    0    0  0.49202194944E+01 -0.18981445637E+02 -0.15065258733E+03  0.15192339212E+03  0.10566000000E+00 0.  1.
        -14    1    4    4    0    0  0.24063453279E+01 -0.12507678961E+02 -0.10586533531E+03  0.10662880358E+03  0.00000000000E+00 0.  1.
<mgrwt>
<rscale>  0 0.80509616E+02</rscale>
<asrwt>0</asrwt>
<pdfrwt beam="1">  1        2 0.55037237E-01 0.80509616E+02</pdfrwt>
<pdfrwt beam="2">  1       -1 0.69687068E-03 0.80509616E+02</pdfrwt>
<totfact> 0.26713033E+05</totfact>
</mgrwt>
</event>
<event>
 8    1  0.1520917E-017  0.7861520E+02  0.7818608E-02  0.1333028E+00
          2   -1    0    0  501    0  0.00000000000E+00  0.00000000000E+00  0.92176056201E+03  0.92176056202E+03  0.25500000000E-02 0. -1.
         -1   -1    0    0    0  501 -0.00000000000E+00 -0.00000000000E+00 -0.16762311965E+01  0.16762387735E+01  0.50400000000E-02 0.  1.
         24    2    1    2    0    0 -0.35527136788E-14  0.00000000000E+00  0.92008433082E+03  0.92343680079E+03  0.78615197254E+02 0.  0.
         66    2    3    3    0    0 -0.22049461539E+02 -0.15321036554E+02  0.79714625880E+03  0.79760082171E+03  0.19999906065E+01 0.  0.
        -13    1    3    3    0    0  0.22049461539E+02  0.15321036554E+02  0.12293807202E+03  0.12583597908E+03  0.10566000000E+00 0.  1.
         13    1    4    4    0    0 -0.64827489280E+01 -0.49123445048E+01  0.21842285000E+03  0.21857426594E+03  0.10566000000E+00 0.  1.
        -13    1    4    4    0    0 -0.78431023508E+01 -0.53356849846E+01  0.30103585458E+03  0.30118529296E+03  0.10566000000E+00 0. -1.
        -14    1    4    4    0    0 -0.77236102601E+01 -0.50730070649E+01  0.27768755421E+03  0.27784126281E+03  0.00000000000E+00 0.  1.
<mgrwt>
<rscale>  0 0.78615197E+02</rscale>
<asrwt>0</asrwt>
<pdfrwt beam="1">  1        2 0.14180956E+00 0.78615197E+02</pdfrwt>
<pdfrwt beam="2">  1       -1 0.25788187E-03 0.78615197E+02</pdfrwt>
<totfact> 0.36655985E+05</totfact>
</mgrwt>
</event>
<event>
 8    1  0.1520917E-017  0.8031878E+02  0.7818608E-02  0.1328149E+00
          2   -1    0    0  501    0  0.00000000000E+00  0.00000000000E+00  0.31363775543E+03  0.31363775544E+03  0.25500000000E-02 0. -1.
         -1   -1    0    0    0  501 -0.00000000000E+00 -0.00000000000E+00 -0.51421624814E+01  0.51421649513E+01  0.50400000000E-02 0.  1.
         24    2    1    2    0    0 -0.17763568394E-14  0.00000000000E+00  0.30849559295E+03  0.31877992039E+03  0.80318782213E+02 0.  0.
         66    2    3    3    0    0  0.13454829927E+02 -0.49941541728E+01  0.30310130987E+03  0.30344748816E+03  0.19999995782E+01 0.  0.
        -13    1    3    3    0    0 -0.13454829927E+02  0.49941541728E+01  0.53942830749E+01  0.15332432233E+02  0.10566000000E+00 0.  1.
         13    1    4    4    0    0  0.15476721734E+01 -0.42410158569E+00  0.29886714448E+02  0.29929951818E+02  0.10566000000E+00 0. -1.
        -13    1    4    4    0    0  0.77621512714E+01 -0.37973703152E+01  0.17815105748E+03  0.17836053784E+03  0.10566000000E+00 0.  1.
        -14    1    4    4    0    0  0.41450064818E+01 -0.77268227193E+00  0.95063537944E+02  0.95156998497E+02  0.00000000000E+00 0.  1.
<mgrwt>
<rscale>  0 0.80318782E+02</rscale>
<asrwt>0</asrwt>
<pdfrwt beam="1">  1        2 0.48251958E-01 0.80318782E+02</pdfrwt>
<pdfrwt beam="2">  1       -1 0.79110218E-03 0.80318782E+02</pdfrwt>
<totfact> 0.25639123E+05</totfact>
</mgrwt>
</event>
<event>
 8    1  0.1520917E-017  0.7950832E+02  0.7818608E-02  0.1330453E+00
          2   -1    0    0  501    0  0.00000000000E+00  0.00000000000E+00  0.19230393810E+02  0.19230393980E+02  0.25500000000E-02 0. -1.
         -1   -1    0    0    0  501 -0.00000000000E+00 -0.00000000000E+00 -0.82182058989E+02  0.82182059144E+02  0.50400000000E-02 0.  1.
         24    2    1    2    0    0 -0.35527136788E-14  0.00000000000E+00 -0.62951665179E+02  0.10141245312E+03  0.79508323462E+02 0.  0.
         66    2    3    3    0    0 -0.21728688338E+02  0.20707065837E+02  0.17032078187E+01  0.30130041276E+02  0.19999994749E+01 0.  0.
        -13    1    3    3    0    0  0.21728688338E+02 -0.20707065837E+02 -0.64654872998E+02  0.71282411848E+02  0.10566000000E+00 0.  1.
         13    1    4    4    0    0 -0.96430677584E+01  0.85009846282E+01  0.13221130081E+01  0.12923414498E+02  0.10566000000E+00 0. -1.
        -13    1    4    4    0    0 -0.42614275960E+01  0.44864853024E+01 -0.28385676781E+00  0.61951637771E+01  0.10566000000E+00 0.  1.
        -14    1    4    4    0    0 -0.78241929840E+01  0.77195959067E+01  0.66495157840E+00  0.11011463001E+02  0.00000000000E+00 0.  1.
<mgrwt>
<rscale>  0 0.79508323E+02</rscale>
<asrwt>0</asrwt>
<pdfrwt beam="1">  1        2 0.29585222E-02 0.79508323E+02</pdfrwt>
<pdfrwt beam="2">  1       -1 0.12643394E-01 0.79508323E+02</pdfrwt>
<totfact> 0.12537691E+05</totfact>
</mgrwt>
</event>
<event>
 8    1  0.1520917E-017  0.7959616E+02  0.7818608E-02  0.1330201E+00
          2   -1    0    0  501    0  0.00000000000E+00  0.00000000000E+00  0.82467380690E+03  0.82467380691E+03  0.25500000000E-02 0. -1.
         -1   -1    0    0    0  501 -0.00000000000E+00 -0.00000000000E+00 -0.19206192129E+01  0.19206258258E+01  0.50400000000E-02 0.  1.
         24    2    1    2    0    0 -0.35527136788E-14  0.00000000000E+00  0.82275318769E+03  0.82659443273E+03  0.79596158014E+02 0.  0.
         66    2    3    3    0    0 -0.17994119892E+02 -0.29327037047E+02  0.61881763315E+03  0.61977667473E+03  0.19999996348E+01 0.  0.
        -13    1    3    3    0    0  0.17994119892E+02  0.29327037047E+02  0.20393555455E+03  0.20681775800E+03  0.10566000000E+00 0.  1.
         13    1    4    4    0    0 -0.57319538100E+01 -0.78172663391E+01  0.17401115999E+03  0.17428097978E+03  0.10566000000E+00 0. -1.
        -13    1    4    4    0    0 -0.39797927720E+01 -0.75625996005E+01  0.14982806475E+03  0.15007162228E+03  0.10566000000E+00 0.  1.
         14    1    4    4    0    0 -0.82823733096E+01 -0.13947171108E+02  0.29497840841E+03  0.29542407267E+03  0.00000000000E+00 0. -1.
<mgrwt>
<rscale>  0 0.79596158E+02</rscale>
<asrwt>0</asrwt>
<pdfrwt beam="1">  1        2 0.12687329E+00 0.79596158E+02</pdfrwt>
<pdfrwt beam="2">  1       -1 0.29547946E-03 0.79596158E+02</pdfrwt>
<totfact> 0.34995293E+05</totfact>
</mgrwt>
</event>
<event>
 8    1  0.1520917E-017  0.8207277E+02  0.7818608E-02  0.1323270E+00
          2   -1    0    0  501    0  0.00000000000E+00  0.00000000000E+00  0.26782320115E+02  0.26782320236E+02  0.25500000000E-02 0. -1.
         -1   -1    0    0    0  501 -0.00000000000E+00 -0.00000000000E+00 -0.62876742877E+02  0.62876743079E+02  0.50400000000E-02 0.  1.
         24    2    1    2    0    0  0.00000000000E+00  0.71054273576E-14 -0.36094422762E+02  0.89659063315E+02  0.82072774292E+02 0.  0.
         66    2    3    3    0    0  0.46614715371E+01 -0.39265985806E+02 -0.61692723467E+01  0.40070024711E+02  0.20000002077E+01 0.  0.
        -13    1    3    3    0    0 -0.46614715371E+01  0.39265985806E+02 -0.29925150416E+02  0.49589038604E+02  0.10566000000E+00 0.  1.
         13    1    4    4    0    0  0.30752102655E+01 -0.18465710315E+02 -0.31448062292E+01  0.18982632744E+02  0.10566000000E+00 0. -1.
        -13    1    4    4    0    0  0.93239552943E+00 -0.12534279018E+02 -0.21113396925E+01  0.12745447472E+02  0.10566000000E+00 0.  1.
         14    1    4    4    0    0  0.65386574215E+00 -0.82659964724E+01 -0.91312642492E+00  0.83419444950E+01  0.00000000000E+00 0. -1.
<mgrwt>
<rscale>  0 0.82072774E+02</rscale>
<asrwt>0</asrwt>
<pdfrwt beam="1">  1        2 0.41203570E-02 0.82072774E+02</pdfrwt>
<pdfrwt beam="2">  1       -1 0.96733451E-02 0.82072774E+02</pdfrwt>
<totfact> 0.12239911E+05</totfact>
</mgrwt>
</event>
<event>
 8    1  0.1520917E-017  0.7738981E+02  0.7818608E-02  0.1336626E+00
          2   -1    0    0  501    0  0.00000000000E+00  0.00000000000E+00  0.52612778975E+01  0.52612785155E+01  0.25500000000E-02 0. -1.
         -1   -1    0    0    0  501 -0.00000000000E+00 -0.00000000000E+00 -0.28458780262E+03  0.28458780266E+03  0.50400000000E-02 0.  1.
         24    2    1    2    0    0  0.00000000000E+00  0.00000000000E+00 -0.27932652472E+03  0.28984908118E+03  0.77389808421E+02 0.  0.
         66    2    3    3    0    0 -0.38144455326E+02 -0.41732374044E+01 -0.15766941679E+03  0.16228388821E+03  0.19999999062E+01 0.  0.
        -13    1    3    3    0    0  0.38144455326E+02  0.41732374044E+01 -0.12165710793E+03  0.12756519297E+03  0.10566000000E+00 0.  1.
         13    1    4    4    0    0 -0.12970291885E+02 -0.12672633013E+01 -0.53065723603E+02  0.54642626340E+02  0.10566000000E+00 0. -1.
        -13    1    4    4    0    0 -0.14487009797E+02 -0.23770767755E+01 -0.61972842951E+02  0.63688055193E+02  0.10566000000E+00 0.  1.
         14    1    4    4    0    0 -0.10687153645E+02 -0.52889732756E+00 -0.42630850235E+02  0.43953206676E+02  0.00000000000E+00 0. -1.
<mgrwt>
<rscale>  0 0.77389808E+02</rscale>
<asrwt>0</asrwt>
<pdfrwt beam="1">  1        2 0.80942764E-03 0.77389808E+02</pdfrwt>
<pdfrwt beam="2">  1       -1 0.43782727E-01 0.77389808E+02</pdfrwt>
<totfact> 0.96084008E+04</totfact>
</mgrwt>
</event>
<event>
 8    1  0.1520917E-017  0.7784012E+02  0.7818608E-02  0.1335295E+00
          2   -1    0    0  501    0  0.00000000000E+00  0.00000000000E+00  0.11419837303E+03  0.11419837306E+03  0.25500000000E-02 0. -1.
         -1   -1    0    0    0  501 -0.00000000000E+00 -0.00000000000E+00 -0.13264384459E+02  0.13264385416E+02  0.50400000000E-02 0.  1.
         24    2    1    2    0    0 -0.35527136788E-14  0.00000000000E+00  0.10093398857E+03  0.12746275848E+03  0.77840123003E+02 0.  0.
         66    2    3    3    0    0 -0.30345373414E+02 -0.20696768585E+02  0.29557675246E+02  0.47189555066E+02  0.20000059847E+01 0.  0.
        -13    1    3    3    0    0  0.30345373414E+02  0.20696768585E+02  0.71376313326E+02  0.80273203409E+02  0.10566000000E+00 0.  1.
         13    1    4    4    0    0 -0.14355596173E+02 -0.88970542911E+01  0.13528566463E+02  0.21639639348E+02  0.10566000000E+00 0. -1.
        -13    1    4    4    0    0 -0.54754089860E+01 -0.43282001802E+01  0.61428654103E+01  0.92983536095E+01  0.10566000000E+00 0.  1.
         14    1    4    4    0    0 -0.10514368255E+02 -0.74715141134E+01  0.98862433724E+01  0.16251562109E+02  0.00000000000E+00 0. -1.
<mgrwt>
<rscale>  0 0.77840123E+02</rscale>
<asrwt>0</asrwt>
<pdfrwt beam="1">  1        2 0.17568980E-01 0.77840123E+02</pdfrwt>
<pdfrwt beam="2">  1       -1 0.20406746E-02 0.77840123E+02</pdfrwt>
<totfact> 0.19807774E+05</totfact>
</mgrwt>
</event>
<event>
 8    1  0.1520917E-017  0.7996276E+02  0.7818608E-02  0.1329157E+00
         -1   -1    0    0    0  501 -0.00000000000E+00  0.00000000000E+00  0.26518078743E+02  0.26518079222E+02  0.50400000000E-02 0.  1.
          2   -1    0    0  501    0  0.00000000000E+00 -0.00000000000E+00 -0.60280040601E+02  0.60280040655E+02  0.25500000000E-02 0. -1.
         24    2    1    2    0    0  0.35527136788E-14  0.35527136788E-14 -0.33761961858E+02  0.86798119877E+02  0.79962763495E+02 0.  0.
         66    2    3    3    0    0  0.18311027133E+02  0.19841460248E+02 -0.48863117032E+02  0.55862164889E+02  0.20000001452E+01 0.  0.
        -13    1    3    3    0    0 -0.18311027133E+02 -0.19841460248E+02  0.15101155174E+02  0.30935954989E+02  0.10566000000E+00 0.  1.
         13    1    4    4    0    0  0.58820314443E+01  0.62413058355E+01 -0.15763116722E+02  0.17945450824E+02  0.10566000000E+00 0.  1.
        -13    1    4    4    0    0  0.30932743461E+00  0.59586086195E+00 -0.17535793625E+01  0.18806749439E+01  0.10566000000E+00 0.  1.
         14    1    4    4    0    0  0.12119668254E+02  0.13004293551E+02 -0.31346420947E+02  0.36036039121E+02  0.00000000000E+00 0. -1.
<mgrwt>
<rscale>  0 0.79962763E+02</rscale>
<asrwt>0</asrwt>
<pdfrwt beam="1">  1        2 0.92738523E-02 0.79962763E+02</pdfrwt>
<pdfrwt beam="2">  1       -1 0.40797045E-02 0.79962763E+02</pdfrwt>
<totfact> 0.15602704E+05</totfact>
</mgrwt>
</event>
<event>
 8    1  0.1520917E-017  0.8160363E+02  0.7818608E-02  0.1324561E+00
          2   -1    0    0  501    0  0.00000000000E+00  0.00000000000E+00  0.36511001835E+03  0.36511001835E+03  0.25500000000E-02 0. -1.
         -1   -1    0    0    0  501 -0.00000000000E+00 -0.00000000000E+00 -0.45596877564E+01  0.45596905418E+01  0.50400000000E-02 0.  1.
         24    2    1    2    0    0  0.35527136788E-14  0.00000000000E+00  0.36055033059E+03  0.36966970890E+03  0.81603632196E+02 0.  0.
         66    2    3    3    0    0 -0.25938141313E+02  0.31068295966E+02  0.20292313381E+03  0.20692951559E+03  0.19999994648E+01 0.  0.
        -13    1    3    3    0    0  0.25938141313E+02 -0.31068295966E+02  0.15762719678E+03  0.16274019330E+03  0.10566000000E+00 0.  1.
         13    1    4    4    0    0 -0.75886475212E+01  0.10022299395E+02  0.64768712022E+02  0.65977505844E+02  0.10566000000E+00 0. -1.
        -13    1    4    4    0    0 -0.62625886660E+01  0.64949371732E+01  0.45723606851E+02  0.46605403262E+02  0.10566000000E+00 0.  1.
         14    1    4    4    0    0 -0.12086905125E+02  0.14551059398E+02  0.92430814940E+02  0.94346606487E+02  0.00000000000E+00 0. -1.
<mgrwt>
<rscale>  0 0.81603632E+02</rscale>
<asrwt>0</asrwt>
<pdfrwt beam="1">  1        2 0.56170767E-01 0.81603632E+02</pdfrwt>
<pdfrwt beam="2">  1       -1 0.70149070E-03 0.81603632E+02</pdfrwt>
<totfact> 0.25972937E+05</totfact>
</mgrwt>
</event>
<event>
 8    1  0.1520917E-017  0.7983731E+02  0.7818608E-02  0.1329514E+00
         -1   -1    0    0    0  501 -0.00000000000E+00  0.00000000000E+00  0.17143080315E+02  0.17143081056E+02  0.50400000000E-02 0.  1.
          2   -1    0    0  501    0  0.00000000000E+00 -0.00000000000E+00 -0.92952904300E+02  0.92952904335E+02  0.25500000000E-02 0. -1.
         24    2    1    2    0    0  0.00000000000E+00  0.00000000000E+00 -0.75809823984E+02  0.11009598539E+03  0.79837313248E+02 0.  0.
         66    2    3    3    0    0  0.21117728774E+02 -0.32184429751E+02 -0.52371896212E+02  0.65027774762E+02  0.19999976745E+01 0.  0.
        -13    1    3    3    0    0 -0.21117728774E+02  0.32184429751E+02 -0.23437927773E+02  0.45068210629E+02  0.10566000000E+00 0.  1.
         13    1    4    4    0    0  0.92932613392E+01 -0.14714237038E+02 -0.23237013805E+02  0.29031766266E+02  0.10566000000E+00 0. -1.
        -13    1    4    4    0    0  0.95032745785E+01 -0.13559262859E+02 -0.22001909527E+02  0.27536539795E+02  0.10566000000E+00 0.  1.
        -14    1    4    4    0    0  0.23211928561E+01 -0.39109298541E+01 -0.71329728794E+01  0.84594687006E+01  0.00000000000E+00 0.  1.
<mgrwt>
<rscale>  0 0.79837313E+02</rscale>
<asrwt>0</asrwt>
<pdfrwt beam="1">  1        2 0.14300447E-01 0.79837313E+02</pdfrwt>
<pdfrwt beam="2">  1       -1 0.26373971E-02 0.79837313E+02</pdfrwt>
<totfact> 0.17466977E+05</totfact>
</mgrwt>
</event>
<event>
 8    1  0.1520917E-017  0.7669604E+02  0.7818608E-02  0.1338698E+00
          2   -1    0    0  501    0  0.00000000000E+00  0.00000000000E+00  0.29381301199E+03  0.29381301200E+03  0.25500000000E-02 0. -1.
         -1   -1    0    0    0  501 -0.00000000000E+00 -0.00000000000E+00 -0.50051232268E+01  0.50051257644E+01  0.50400000000E-02 0.  1.
         24    2    1    2    0    0  0.00000000000E+00  0.88817841970E-15  0.28880788877E+03  0.29881813777E+03  0.76696041918E+02 0.  0.
         66    2    3    3    0    0  0.32137211410E+02  0.74061039227E+01  0.22054291219E+03  0.22300409604E+03  0.19999999287E+01 0.  0.
        -13    1    3    3    0    0 -0.32137211410E+02 -0.74061039227E+01  0.68264976572E+02  0.75814041727E+02  0.10566000000E+00 0.  1.
         13    1    4    4    0    0  0.25460615988E+02  0.53600603312E+01  0.17330386235E+03  0.17524614998E+03  0.10566000000E+00 0. -1.
        -13    1    4    4    0    0  0.61612803263E+01  0.20702515251E+01  0.44182698586E+02  0.44658362431E+02  0.10566000000E+00 0.  1.
         14    1    4    4    0    0  0.51531509560E+00 -0.24207933552E-01  0.30563512550E+01  0.30995836278E+01  0.00000000000E+00 0. -1.
<mgrwt>
<rscale>  0 0.76696042E+02</rscale>
<asrwt>0</asrwt>
<pdfrwt beam="1">  1        2 0.45202016E-01 0.76696042E+02</pdfrwt>
<pdfrwt beam="2">  1       -1 0.77001892E-03 0.76696042E+02</pdfrwt>
<totfact> 0.28255635E+05</totfact>
</mgrwt>
</event>
<event>
 8    1  0.1520917E-017  0.7901981E+02  0.7818608E-02  0.1331856E+00
          2   -1    0    0  501    0  0.00000000000E+00  0.00000000000E+00  0.15040692055E+03  0.15040692057E+03  0.25500000000E-02 0. -1.
         -1   -1    0    0    0  501 -0.00000000000E+00 -0.00000000000E+00 -0.10378726732E+02  0.10378727956E+02  0.50400000000E-02 0.  1.
         24    2    1    2    0    0  0.00000000000E+00  0.00000000000E+00  0.14002819382E+03  0.16078564853E+03  0.79019805799E+02 0.  0.
         66    2    3    3    0    0 -0.32647941938E+02  0.88447568362E+01  0.11150534463E+03  0.11653994901E+03  0.19999993266E+01 0.  0.
        -13    1    3    3    0    0  0.32647941938E+02 -0.88447568362E+01  0.28522849192E+02  0.44245699524E+02  0.10566000000E+00 0.  1.
         13    1    4    4    0    0 -0.17837963886E+02  0.42192807272E+01  0.61331025279E+02  0.64011726357E+02  0.10566000000E+00 0. -1.
        -13    1    4    4    0    0 -0.12660571701E+02  0.41204193044E+01  0.44036419779E+02  0.46005275371E+02  0.10566000000E+00 0.  1.
         14    1    4    4    0    0 -0.21494063512E+01  0.50505680460E+00  0.61378995706E+01  0.65229472769E+01  0.00000000000E+00 0. -1.
<mgrwt>
<rscale>  0 0.79019806E+02</rscale>
<asrwt>0</asrwt>
<pdfrwt beam="1">  1        2 0.23139524E-01 0.79019806E+02</pdfrwt>
<pdfrwt beam="2">  1       -1 0.15967274E-02 0.79019806E+02</pdfrwt>
<totfact> 0.20713665E+05</totfact>
</mgrwt>
</event>
<event>
 8    1  0.1520917E-017  0.8516135E+02  0.7818608E-02  0.1315011E+00
         -1   -1    0    0    0  501 -0.00000000000E+00  0.00000000000E+00  0.56812295587E+01  0.56812317942E+01  0.50400000000E-02 0.  1.
          2   -1    0    0  501    0  0.00000000000E+00 -0.00000000000E+00 -0.31914101768E+03  0.31914101769E+03  0.25500000000E-02 0. -1.
         24    2    1    2    0    0 -0.35527136788E-14  0.00000000000E+00 -0.31345978812E+03  0.32482224949E+03  0.85161346814E+02 0.  0.
         66    2    3    3    0    0 -0.16183617848E+02 -0.36592369745E+02 -0.21211508902E+03  0.21586505509E+03  0.20000023025E+01 0.  0.
        -13    1    3    3    0    0  0.16183617848E+02  0.36592369745E+02 -0.10134469911E+03  0.10895719440E+03  0.10566000000E+00 0.  1.
         13    1    4    4    0    0 -0.61377182622E+01 -0.13473617083E+02 -0.77910394550E+02  0.79304796108E+02  0.10566000000E+00 0. -1.
        -13    1    4    4    0    0 -0.10639064875E+01 -0.27159741065E+01 -0.13142994273E+02  0.13463204479E+02  0.10566000000E+00 0.  1.
        -14    1    4    4    0    0 -0.89819930979E+01 -0.20402778556E+02 -0.12106170019E+03  0.12309705450E+03  0.00000000000E+00 0.  1.
<mgrwt>
<rscale>  0 0.85161347E+02</rscale>
<asrwt>0</asrwt>
<pdfrwt beam="1">  1        2 0.49098604E-01 0.85161347E+02</pdfrwt>
<pdfrwt beam="2">  1       -1 0.87403574E-03 0.85161347E+02</pdfrwt>
<totfact> 0.22121164E+05</totfact>
</mgrwt>
</event>
<event>
 8    1  0.1520917E-017  0.7979762E+02  0.7818608E-02  0.1329627E+00
         -1   -1    0    0    0  501 -0.00000000000E+00  0.00000000000E+00  0.51009017860E+02  0.51009018109E+02  0.50400000000E-02 0.  1.
          2   -1    0    0  501    0  0.00000000000E+00 -0.00000000000E+00 -0.31208505403E+02  0.31208505507E+02  0.25500000000E-02 0. -1.
         24    2    1    2    0    0  0.00000000000E+00  0.00000000000E+00  0.19800512457E+02  0.82217523616E+02  0.79797624626E+02 0.  0.
         66    2    3    3    0    0 -0.17225601653E+02  0.16097985927E+02 -0.23225254797E+02  0.33155376138E+02  0.20000008137E+01 0.  0.
        -13    1    3    3    0    0  0.17225601653E+02 -0.16097985927E+02  0.43025767255E+02  0.49062147477E+02  0.10566000000E+00 0.  1.
         13    1    4    4    0    0 -0.12878385747E+01  0.13626199331E+01 -0.18033431348E+01  0.26035498409E+01  0.10566000000E+00 0. -1.
        -13    1    4    4    0    0 -0.51996853781E+01  0.36895595420E+01 -0.64475176789E+01  0.90681434649E+01  0.10566000000E+00 0.  1.
        -14    1    4    4    0    0 -0.10738077701E+02  0.11045806452E+02 -0.14974393984E+02  0.21483682832E+02  0.00000000000E+00 0.  1.
<mgrwt>
<rscale>  0 0.79797625E+02</rscale>
<asrwt>0</asrwt>
<pdfrwt beam="1">  1        2 0.48013086E-02 0.79797625E+02</pdfrwt>
<pdfrwt beam="2">  1       -1 0.78475411E-02 0.79797625E+02</pdfrwt>
<totfact> 0.13657075E+05</totfact>
</mgrwt>
</event>
<event>
 8    1  0.1520917E-017  0.8050351E+02  0.7818608E-02  0.1327629E+00
          2   -1    0    0  501    0  0.00000000000E+00  0.00000000000E+00  0.51250141538E+03  0.51250141539E+03  0.25500000000E-02 0. -1.
         -1   -1    0    0    0  501 -0.00000000000E+00 -0.00000000000E+00 -0.31613624236E+01  0.31613664411E+01  0.50400000000E-02 0.  1.
         24    2    1    2    0    0 -0.35527136788E-14  0.00000000000E+00  0.50934005296E+03  0.51566278183E+03  0.80503509342E+02 0.  0.
         66    2    3    3    0    0 -0.30757400565E+02 -0.38898889458E+00  0.42087920182E+03  0.42200648279E+03  0.19999971464E+01 0.  0.
        -13    1    3    3    0    0  0.30757400565E+02  0.38898889458E+00  0.88460851132E+02  0.93656299035E+02  0.10566000000E+00 0.  1.
         13    1    4    4    0    0 -0.66290637148E+01 -0.15043045096E+00  0.97712129889E+02  0.97936911359E+02  0.10566000000E+00 0. -1.
        -13    1    4    4    0    0 -0.10878421736E+02 -0.78335342849E+00  0.14472407098E+03  0.14513449482E+03  0.10566000000E+00 0.  1.
         14    1    4    4    0    0 -0.13249915115E+02  0.54479498487E+00  0.17844300095E+03  0.17893507661E+03  0.00000000000E+00 0. -1.
<mgrwt>
<rscale>  0 0.80503509E+02</rscale>
<asrwt>0</asrwt>
<pdfrwt beam="1">  1        2 0.78846370E-01 0.80503509E+02</pdfrwt>
<pdfrwt beam="2">  1       -1 0.48636377E-03 0.80503509E+02</pdfrwt>
<totfact> 0.30192372E+05</totfact>
</mgrwt>
</event>
<event>
 8    1  0.1520917E-017  0.7984934E+02  0.7818608E-02  0.1329480E+00
          2   -1    0    0  501    0  0.00000000000E+00  0.00000000000E+00  0.25980616749E+03  0.25980616750E+03  0.25500000000E-02 0. -1.
         -1   -1    0    0    0  501 -0.00000000000E+00 -0.00000000000E+00 -0.61352619961E+01  0.61352640663E+01  0.50400000000E-02 0.  1.
         24    2    1    2    0    0  0.00000000000E+00  0.17763568394E-14  0.25367090549E+03  0.26594143157E+03  0.79849337697E+02 0.  0.
         66    2    3    3    0    0 -0.11269255150E+02 -0.10683022412E+02  0.24932523453E+03  0.24981632383E+03  0.19999991139E+01 0.  0.
        -13    1    3    3    0    0  0.11269255150E+02  0.10683022412E+02  0.43456709595E+01  0.16125107739E+02  0.10566000000E+00 0.  1.
         13    1    4    4    0    0 -0.69982777789E+01 -0.76972751860E+01  0.16331406234E+03  0.16364509788E+03  0.10566000000E+00 0. -1.
        -13    1    4    4    0    0 -0.17779395377E+01 -0.91321490951E+00  0.34865538036E+02  0.34922942846E+02  0.10566000000E+00 0.  1.
         14    1    4    4    0    0 -0.24930378332E+01 -0.20725323164E+01  0.51145634152E+02  0.51248283099E+02  0.00000000000E+00 0. -1.
<mgrwt>
<rscale>  0 0.79849338E+02</rscale>
<asrwt>0</asrwt>
<pdfrwt beam="1">  1        2 0.39970170E-01 0.79849338E+02</pdfrwt>
<pdfrwt beam="2">  1       -1 0.94388685E-03 0.79849338E+02</pdfrwt>
<totfact> 0.24320872E+05</totfact>
</mgrwt>
</event>
<event>
 8    1  0.1520917E-017  0.8055591E+02  0.7818608E-02  0.1327481E+00
          2   -1    0    0  501    0  0.00000000000E+00  0.00000000000E+00  0.14957925903E+03  0.14957925905E+03  0.25500000000E-02 0. -1.
         -1   -1    0    0    0  501 -0.00000000000E+00 -0.00000000000E+00 -0.10845845203E+02  0.10845846374E+02  0.50400000000E-02 0.  1.
         24    2    1    2    0    0  0.00000000000E+00 -0.71054273576E-14  0.13873341383E+03  0.16042510542E+03  0.80555908154E+02 0.  0.
         66    2    3    3    0    0  0.29571937619E+01 -0.38826405877E+02  0.89725696379E+02  0.97831157460E+02  0.19999977674E+01 0.  0.
        -13    1    3    3    0    0 -0.29571937619E+01  0.38826405877E+02  0.49007717448E+02  0.62593947964E+02  0.10566000000E+00 0.  1.
         13    1    4    4    0    0  0.78532042010E+00 -0.91931498768E+01  0.19347536732E+02  0.21435229750E+02  0.10566000000E+00 0. -1.
        -13    1    4    4    0    0  0.14874846067E+01 -0.18656546248E+02  0.45034757505E+02  0.48769046289E+02  0.10566000000E+00 0.  1.
         14    1    4    4    0    0  0.68438873509E+00 -0.10976709752E+02  0.25343402142E+02  0.27626881421E+02  0.00000000000E+00 0. -1.
<mgrwt>
<rscale>  0 0.80555908E+02</rscale>
<asrwt>0</asrwt>
<pdfrwt beam="1">  1        2 0.23012195E-01 0.80555908E+02</pdfrwt>
<pdfrwt beam="2">  1       -1 0.16685916E-02 0.80555908E+02</pdfrwt>
<totfact> 0.19647386E+05</totfact>
</mgrwt>
</event>
<event>
 8    1  0.1520917E-017  0.7931293E+02  0.7818608E-02  0.1331013E+00
         -1   -1    0    0    0  501 -0.00000000000E+00  0.00000000000E+00  0.43531352390E+01  0.43531381566E+01  0.50400000000E-02 0.  1.
          2   -1    0    0  501    0  0.00000000000E+00 -0.00000000000E+00 -0.36126484971E+03  0.36126484972E+03  0.25500000000E-02 0. -1.
         24    2    1    2    0    0  0.55511151231E-16  0.71054273576E-14 -0.35691171447E+03  0.36561798787E+03  0.79312931679E+02 0.  0.
         66    2    3    3    0    0 -0.21406020480E+00  0.38345511208E+02 -0.22471469965E+03  0.22797175311E+03  0.19999822350E+01 0.  0.
        -13    1    3    3    0    0  0.21406020480E+00 -0.38345511208E+02 -0.13219701482E+03  0.13764623476E+03  0.10566000000E+00 0.  1.
         13    1    4    4    0    0  0.11770152454E+00  0.10117563472E+02 -0.57345880968E+02  0.58231779746E+02  0.10566000000E+00 0. -1.
        -13    1    4    4    0    0 -0.49378707077E+00  0.43709507842E+01 -0.28126418423E+02  0.28468502134E+02  0.10566000000E+00 0.  1.
        -14    1    4    4    0    0  0.16202534143E+00  0.23856996951E+02 -0.13924240026E+03  0.14127147124E+03  0.00000000000E+00 0.  1.
<mgrwt>
<rscale>  0 0.79312932E+02</rscale>
<asrwt>0</asrwt>
<pdfrwt beam="1">  1        2 0.55579184E-01 0.79312932E+02</pdfrwt>
<pdfrwt beam="2">  1       -1 0.66971363E-03 0.79312932E+02</pdfrwt>
<totfact> 0.27876970E+05</totfact>
</mgrwt>
</event>
<event>
 8    1  0.1520917E-017  0.8016627E+02  0.7818608E-02  0.1328580E+00
          2   -1    0    0  501    0  0.00000000000E+00  0.00000000000E+00  0.11671211268E+03  0.11671211271E+03  0.25500000000E-02 0. -1.
         -1   -1    0    0    0  501 -0.00000000000E+00 -0.00000000000E+00 -0.13765988643E+02  0.13765989566E+02  0.50400000000E-02 0.  1.
         24    2    1    2    0    0  0.00000000000E+00  0.00000000000E+00  0.10294612404E+03  0.13047810228E+03  0.80166269210E+02 0.  0.
         66    2    3    3    0    0  0.11797730101E+02  0.33504394503E+02  0.21364991115E+02  0.41499322223E+02  0.20000032727E+01 0.  0.
        -13    1    3    3    0    0 -0.11797730101E+02 -0.33504394503E+02  0.81581132926E+02  0.88978780055E+02  0.10566000000E+00 0.  1.
         13    1    4    4    0    0  0.12118508713E+01  0.51036666334E+01  0.30666232322E+01  0.60771159050E+01  0.10566000000E+00 0. -1.
        -13    1    4    4    0    0  0.26535962022E+01  0.67771009583E+01  0.49268707149E+01  0.87895329387E+01  0.10566000000E+00 0.  1.
         14    1    4    4    0    0  0.79322830272E+01  0.21623626912E+02  0.13371497168E+02  0.26632673380E+02  0.00000000000E+00 0. -1.
<mgrwt>
<rscale>  0 0.80166269E+02</rscale>
<asrwt>0</asrwt>
<pdfrwt beam="1">  1        2 0.17955709E-01 0.80166269E+02</pdfrwt>
<pdfrwt beam="2">  1       -1 0.21178445E-02 0.80166269E+02</pdfrwt>
<totfact> 0.18430266E+05</totfact>
</mgrwt>
</event>
<event>
 8    1  0.1520917E-017  0.7617350E+02  0.7818608E-02  0.1340275E+00
         -1   -1    0    0    0  501 -0.00000000000E+00  0.00000000000E+00  0.15811725597E+01  0.15811805922E+01  0.50400000000E-02 0.  1.
          2   -1    0    0  501    0  0.00000000000E+00 -0.00000000000E+00 -0.91741849337E+03  0.91741849338E+03  0.25500000000E-02 0. -1.
         24    2    1    2    0    0  0.00000000000E+00 -0.17763568394E-14 -0.91583732081E+03  0.91899967397E+03  0.76173503006E+02 0.  0.
         66    2    3    3    0    0 -0.22544765001E+02  0.13120203768E+02 -0.79261756485E+03  0.79304918528E+03  0.19999993604E+01 0.  0.
        -13    1    3    3    0    0  0.22544765001E+02 -0.13120203768E+02 -0.12321975597E+03  0.12595048869E+03  0.10566000000E+00 0.  1.
         13    1    4    4    0    0 -0.87164052230E+01  0.55499798510E+01 -0.32400260518E+03  0.32416736005E+03  0.10566000000E+00 0. -1.
        -13    1    4    4    0    0 -0.13530476296E+02  0.74984502517E+01 -0.45353429773E+03  0.45379805081E+03  0.10566000000E+00 0.  1.
        -14    1    4    4    0    0 -0.29788348229E+00  0.71773665094E-01 -0.15080661946E+02  0.15083774420E+02  0.00000000000E+00 0.  1.
<mgrwt>
<rscale>  0 0.76173503E+02</rscale>
<asrwt>0</asrwt>
<pdfrwt beam="1">  1        2 0.14114088E+00 0.76173503E+02</pdfrwt>
<pdfrwt beam="2">  1       -1 0.24325867E-03 0.76173503E+02</pdfrwt>
<totfact> 0.39756072E+05</totfact>
</mgrwt>
</event>
<event>
 8    1  0.1520917E-017  0.7881463E+02  0.7818608E-02  0.1332449E+00
         -1   -1    0    0    0  501 -0.00000000000E+00  0.00000000000E+00  0.79973068527E+00  0.79974656646E+00  0.50400000000E-02 0.  1.
          2   -1    0    0  501    0  0.00000000000E+00 -0.00000000000E+00 -0.19418052189E+04  0.19418052189E+04  0.25500000000E-02 0. -1.
         24    2    1    2    0    0  0.00000000000E+00  0.00000000000E+00 -0.19410054882E+04  0.19426049655E+04  0.78814634313E+02 0.  0.
         66    2    3    3    0    0  0.19928175233E+01 -0.10522233024E+02 -0.19052221165E+04  0.19052532645E+04  0.20000000872E+01 0.  0.
        -13    1    3    3    0    0 -0.19928175233E+01  0.10522233024E+02 -0.35783371729E+02  0.37351700976E+02  0.10566000000E+00 0.  1.
         13    1    4    4    0    0  0.10656867775E+01 -0.63942300104E+01 -0.11614915683E+04  0.11615096626E+04  0.10566000000E+00 0. -1.
        -13    1    4    4    0    0  0.91988173111E+00 -0.32903352913E+01 -0.66033052662E+03  0.66033937338E+03  0.10566000000E+00 0.  1.
         14    1    4    4    0    0  0.72490146918E-02 -0.83766772268E+00 -0.83400021561E+02  0.83404228527E+02  0.00000000000E+00 0. -1.
<mgrwt>
<rscale>  0 0.78814634E+02</rscale>
<asrwt>0</asrwt>
<pdfrwt beam="1">  1        2 0.29873549E+00 0.78814634E+02</pdfrwt>
<pdfrwt beam="2">  1       -1 0.12303827E-03 0.78814634E+02</pdfrwt>
<totfact> 0.29632393E+05</totfact>
</mgrwt>
</event>
<event>
 8    1  0.1520917E-017  0.7915600E+02  0.7818608E-02  0.1331464E+00
          2   -1    0    0  501    0  0.00000000000E+00  0.00000000000E+00  0.56990419360E+02  0.56990419417E+02  0.25500000000E-02 0. -1.
         -1   -1    0    0    0  501 -0.00000000000E+00 -0.00000000000E+00 -0.27485636905E+02  0.27485637367E+02  0.50400000000E-02 0.  1.
         24    2    1    2    0    0  0.00000000000E+00  0.00000000000E+00  0.29504782455E+02  0.84476056784E+02  0.79155997764E+02 0.  0.
         66    2    3    3    0    0 -0.77457705696E+01  0.36239076821E+02  0.29516528600E+02  0.47418278213E+02  0.19999993884E+01 0.  0.
        -13    1    3    3    0    0  0.77457705696E+01 -0.36239076821E+02 -0.11746144633E-01  0.37057778571E+02  0.10566000000E+00 0.  1.
         13    1    4    4    0    0 -0.21299163193E+01  0.70535300370E+01  0.56387934616E+01  0.92787922300E+01  0.10566000000E+00 0. -1.
        -13    1    4    4    0    0 -0.26434982727E+01  0.11205005764E+02  0.90064455720E+01  0.14617368544E+02  0.10566000000E+00 0.  1.
         14    1    4    4    0    0 -0.29723559776E+01  0.17980541020E+02  0.14871289566E+02  0.23522117439E+02  0.00000000000E+00 0. -1.
<mgrwt>
<rscale>  0 0.79155998E+02</rscale>
<asrwt>0</asrwt>
<pdfrwt beam="1">  1        2 0.87677568E-02 0.79155998E+02</pdfrwt>
<pdfrwt beam="2">  1       -1 0.42285596E-02 0.79155998E+02</pdfrwt>
<totfact> 0.15834816E+05</totfact>
</mgrwt>
</event>
<event>
 8    1  0.1520917E-017  0.7856792E+02  0.7818608E-02  0.1333165E+00
          2   -1    0    0  501    0  0.00000000000E+00  0.00000000000E+00  0.24037120320E+03  0.24037120321E+03  0.25500000000E-02 0. -1.
         -1   -1    0    0    0  501 -0.00000000000E+00 -0.00000000000E+00 -0.64201923046E+01  0.64201942829E+01  0.50400000000E-02 0.  1.
         24    2    1    2    0    0 -0.71054273576E-14  0.00000000000E+00  0.23395101089E+03  0.24679139749E+03  0.78567922075E+02 0.  0.
         66    2    3    3    0    0 -0.38948063608E+02  0.49267444639E+01  0.11700832881E+03  0.12343489573E+03  0.20000009951E+01 0.  0.
        -13    1    3    3    0    0  0.38948063608E+02 -0.49267444639E+01  0.11694268208E+03  0.12335650176E+03  0.10566000000E+00 0.  1.
         13    1    4    4    0    0 -0.14151200309E+02  0.11049622645E+01  0.42221446529E+02  0.44543676575E+02  0.10566000000E+00 0. -1.
        -13    1    4    4    0    0 -0.46001724641E+01  0.83699202310E+00  0.15257825775E+02  0.15958526052E+02  0.10566000000E+00 0.  1.
         14    1    4    4    0    0 -0.20196690835E+02  0.29847901763E+01  0.59529056505E+02  0.62932693105E+02  0.00000000000E+00 0. -1.
<mgrwt>
<rscale>  0 0.78567922E+02</rscale>
<asrwt>0</asrwt>
<pdfrwt beam="1">  1        2 0.36980178E-01 0.78567922E+02</pdfrwt>
<pdfrwt beam="2">  1       -1 0.98772225E-03 0.78567922E+02</pdfrwt>
<totfact> 0.24679790E+05</totfact>
</mgrwt>
</event>
<event>
 8    1  0.1520917E-017  0.7998275E+02  0.7818608E-02  0.1329100E+00
         -1   -1    0    0    0  501 -0.00000000000E+00  0.00000000000E+00  0.63203035143E+01  0.63203055239E+01  0.50400000000E-02 0.  1.
          2   -1    0    0  501    0  0.00000000000E+00 -0.00000000000E+00 -0.25304317885E+03  0.25304317886E+03  0.25500000000E-02 0. -1.
         24    2    1    2    0    0 -0.17763568394E-14 -0.71054273576E-14 -0.24672287533E+03  0.25936348438E+03  0.79982747010E+02 0.  0.
         66    2    3    3    0    0  0.96223267186E+01  0.33648066967E+02 -0.18602610143E+03  0.18930000525E+03  0.19999980427E+01 0.  0.
        -13    1    3    3    0    0 -0.96223267186E+01 -0.33648066967E+02 -0.60696773902E+02  0.70063479133E+02  0.10566000000E+00 0.  1.
         13    1    4    4    0    0  0.31972582838E+01  0.13582607497E+02 -0.77047202811E+02  0.78300653331E+02  0.10566000000E+00 0. -1.
        -13    1    4    4    0    0  0.25091631460E+01  0.72057304929E+01 -0.37953975670E+02  0.38713484535E+02  0.10566000000E+00 0. -1.
         14    1    4    4    0    0  0.39159052888E+01  0.12859728977E+02 -0.71024922949E+02  0.72285867384E+02  0.00000000000E+00 0. -1.
<mgrwt>
<rscale>  0 0.79982747E+02</rscale>
<asrwt>0</asrwt>
<pdfrwt beam="1">  1        2 0.38929712E-01 0.79982747E+02</pdfrwt>
<pdfrwt beam="2">  1       -1 0.97235474E-03 0.79982747E+02</pdfrwt>
<totfact> 0.23985681E+05</totfact>
</mgrwt>
</event>
<event>
 8    1  0.1520917E-017  0.7933436E+02  0.7818608E-02  0.1330951E+00
          2   -1    0    0  501    0  0.00000000000E+00  0.00000000000E+00  0.17757179954E+01  0.17757198264E+01  0.25500000000E-02 0. -1.
         -1   -1    0    0    0  501 -0.00000000000E+00 -0.00000000000E+00 -0.88611170570E+03  0.88611170571E+03  0.50400000000E-02 0.  1.
         24    2    1    2    0    0  0.00000000000E+00 -0.35527136788E-14 -0.88433598770E+03  0.88788742554E+03  0.79334363827E+02 0.  0.
         66    2    3    3    0    0 -0.20549069112E+02 -0.25513061202E+02 -0.69227669488E+03  0.69305425676E+03  0.20000010289E+01 0.  0.
        -13    1    3    3    0    0  0.20549069112E+02  0.25513061202E+02 -0.19205929282E+03  0.19483316877E+03  0.10566000000E+00 0.  1.
         13    1    4    4    0    0 -0.78260672205E+01 -0.10574894935E+02 -0.26908512657E+03  0.26940655567E+03  0.10566000000E+00 0. -1.
        -13    1    4    4    0    0 -0.12213229966E+01 -0.16570342056E+01 -0.38488552647E+02  0.38543705597E+02  0.10566000000E+00 0.  1.
         14    1    4    4    0    0 -0.11501678895E+02 -0.13281132061E+02 -0.38470301567E+03  0.38510399550E+03  0.00000000000E+00 0. -1.
<mgrwt>
<rscale>  0 0.79334364E+02</rscale>
<asrwt>0</asrwt>
<pdfrwt beam="1">  1        2 0.27318823E-03 0.79334364E+02</pdfrwt>
<pdfrwt beam="2">  1       -1 0.13632453E+00 0.79334364E+02</pdfrwt>
<totfact> 0.42568531E+04</totfact>
</mgrwt>
</event>
<event>
 8    1  0.1520917E-017  0.7811188E+02  0.7818608E-02  0.1334497E+00
          2   -1    0    0  501    0  0.00000000000E+00  0.00000000000E+00  0.13660427404E+04  0.13660427405E+04  0.25500000000E-02 0. -1.
         -1   -1    0    0    0  501 -0.00000000000E+00 -0.00000000000E+00 -0.11166258141E+01  0.11166371883E+01  0.50400000000E-02 0.  1.
         24    2    1    2    0    0  0.00000000000E+00  0.17763568394E-14  0.13649261146E+04  0.13671593776E+04  0.78111877815E+02 0.  0.
         66    2    3    3    0    0 -0.13509551130E+02 -0.13892667424E+02  0.12758947770E+04  0.12760434931E+04  0.19999976917E+01 0.  0.
        -13    1    3    3    0    0  0.13509551130E+02  0.13892667424E+02  0.89031337585E+02  0.91115884543E+02  0.10566000000E+00 0.  1.
         13    1    4    4    0    0 -0.15043161355E+01 -0.18844239465E+01  0.13582791009E+03  0.13584935165E+03  0.10566000000E+00 0. -1.
        -13    1    4    4    0    0 -0.82312272557E+01 -0.74814954830E+01  0.71957150590E+03  0.71965748043E+03  0.10566000000E+00 0.  1.
         14    1    4    4    0    0 -0.37740077387E+01 -0.45267479942E+01  0.42049536106E+03  0.42053666101E+03  0.00000000000E+00 0. -1.
<mgrwt>
<rscale>  0 0.78111878E+02</rscale>
<asrwt>0</asrwt>
<pdfrwt beam="1">  1        2 0.21016097E+00 0.78111878E+02</pdfrwt>
<pdfrwt beam="2">  1       -1 0.17178902E-03 0.78111878E+02</pdfrwt>
<totfact> 0.36426155E+05</totfact>
</mgrwt>
</event>
<event>
 8    1  0.1520917E-017  0.7822777E+02  0.7818608E-02  0.1334157E+00
          2   -1    0    0  501    0  0.00000000000E+00  0.00000000000E+00  0.12081448070E+02  0.12081448339E+02  0.25500000000E-02 0. -1.
         -1   -1    0    0    0  501 -0.00000000000E+00 -0.00000000000E+00 -0.12663183298E+03  0.12663183308E+03  0.50400000000E-02 0.  1.
         24    2    1    2    0    0 -0.35527136788E-14  0.35527136788E-14 -0.11455038491E+03  0.13871328142E+03  0.78227768466E+02 0.  0.
         66    2    3    3    0    0 -0.30453954035E+02  0.17117321797E+02 -0.26221087146E+02  0.43726324265E+02  0.20000001916E+01 0.  0.
        -13    1    3    3    0    0  0.30453954035E+02 -0.17117321797E+02 -0.88329297766E+02  0.94986957156E+02  0.10566000000E+00 0.  1.
         13    1    4    4    0    0 -0.11989146149E+02  0.68520141378E+01 -0.10667223333E+02  0.17449657326E+02  0.10566000000E+00 0. -1.
        -13    1    4    4    0    0 -0.12828414193E+02  0.63605984493E+01 -0.10314030642E+02  0.17646977516E+02  0.10566000000E+00 0.  1.
         14    1    4    4    0    0 -0.56363936932E+01  0.39047092097E+01 -0.52398331707E+01  0.86296894228E+01  0.00000000000E+00 0. -1.
<mgrwt>
<rscale>  0 0.78227768E+02</rscale>
<asrwt>0</asrwt>
<pdfrwt beam="1">  1        2 0.18586844E-02 0.78227768E+02</pdfrwt>
<pdfrwt beam="2">  1       -1 0.19481820E-01 0.78227768E+02</pdfrwt>
<totfact> 0.11894618E+05</totfact>
</mgrwt>
</event>
<event>
 8    1  0.1520917E-017  0.7823023E+02  0.7818608E-02  0.1334150E+00
          2   -1    0    0  501    0  0.00000000000E+00  0.00000000000E+00  0.48789561042E+03  0.48789561042E+03  0.25500000000E-02 0. -1.
         -1   -1    0    0    0  501 -0.00000000000E+00 -0.00000000000E+00 -0.31358986657E+01  0.31359027158E+01  0.50400000000E-02 0.  1.
         24    2    1    2    0    0  0.00000000000E+00 -0.17763568394E-14  0.48475971175E+03  0.49103151314E+03  0.78230229188E+02 0.  0.
         66    2    3    3    0    0 -0.16304883651E+01 -0.14969286076E+02  0.46895794778E+03  0.46920389470E+03  0.20000003793E+01 0.  0.
        -13    1    3    3    0    0  0.16304883651E+01  0.14969286076E+02  0.15801763973E+02  0.21827618437E+02  0.10566000000E+00 0.  1.
         13    1    4    4    0    0 -0.11818093516E+01 -0.77161716719E+01  0.22361644808E+03  0.22375268265E+03  0.10566000000E+00 0. -1.
        -13    1    4    4    0    0  0.13368989197E+00 -0.50321114620E+01  0.17335236473E+03  0.17342546970E+03  0.10566000000E+00 0.  1.
        -14    1    4    4    0    0 -0.58236890548E+00 -0.22210029422E+01  0.71989134966E+02  0.72025742348E+02  0.00000000000E+00 0.  1.
<mgrwt>
<rscale>  0 0.78230229E+02</rscale>
<asrwt>0</asrwt>
<pdfrwt beam="1">  1        2 0.75060870E-01 0.78230229E+02</pdfrwt>
<pdfrwt beam="2">  1       -1 0.48244622E-03 0.78230229E+02</pdfrwt>
<totfact> 0.32025068E+05</totfact>
</mgrwt>
</event>
<event>
 8    1  0.1520917E-017  0.7149082E+02  0.7818608E-02  0.1355096E+00
         -1   -1    0    0    0  501 -0.00000000000E+00  0.00000000000E+00  0.31103927016E+02  0.31103927425E+02  0.50400000000E-02 0.  1.
          2   -1    0    0  501    0  0.00000000000E+00 -0.00000000000E+00 -0.41079522314E+02  0.41079522393E+02  0.25500000000E-02 0. -1.
         24    2    1    2    0    0  0.00000000000E+00  0.00000000000E+00 -0.99755952980E+01  0.72183449818E+02  0.71490824069E+02 0.  0.
         66    2    3    3    0    0  0.29873097686E+02  0.83109986958E+01 -0.22890676622E+02  0.38593493665E+02  0.20000030932E+01 0.  0.
        -13    1    3    3    0    0 -0.29873097686E+02 -0.83109986958E+01  0.12915081324E+02  0.33589956153E+02  0.10566000000E+00 0.  1.
         13    1    4    4    0    0  0.14280301981E+02  0.35108918015E+01 -0.10056867708E+02  0.17815867592E+02  0.10566000000E+00 0.  1.
        -13    1    4    4    0    0  0.13123394083E+02  0.38480255999E+01 -0.11096565929E+02  0.17611806061E+02  0.10566000000E+00 0. -1.
         14    1    4    4    0    0  0.24694016224E+01  0.95208129441E+00 -0.17372429847E+01  0.31658200125E+01  0.00000000000E+00 0. -1.
<mgrwt>
<rscale>  0 0.71490824E+02</rscale>
<asrwt>0</asrwt>
<pdfrwt beam="1">  1        2 0.63199265E-02 0.71490824E+02</pdfrwt>
<pdfrwt beam="2">  1       -1 0.47852196E-02 0.71490824E+02</pdfrwt>
<totfact> 0.19495654E+05</totfact>
</mgrwt>
</event>
<event>
 8    1  0.1520917E-017  0.8064403E+02  0.7818608E-02  0.1327234E+00
         -1   -1    0    0    0  501 -0.00000000000E+00  0.00000000000E+00  0.21880697293E+02  0.21880697874E+02  0.50400000000E-02 0.  1.
          2   -1    0    0  501    0  0.00000000000E+00 -0.00000000000E+00 -0.74305902896E+02  0.74305902940E+02  0.25500000000E-02 0. -1.
         24    2    1    2    0    0  0.00000000000E+00  0.17763568394E-14 -0.52425205603E+02  0.96186600814E+02  0.80644032598E+02 0.  0.
         66    2    3    3    0    0 -0.37468927536E+02 -0.11599235365E+02 -0.15206582477E+02  0.42115352787E+02  0.19999994972E+01 0.  0.
        -13    1    3    3    0    0  0.37468927536E+02  0.11599235365E+02 -0.37218623126E+02  0.54071248027E+02  0.10566000000E+00 0.  1.
         13    1    4    4    0    0 -0.10632034440E+02 -0.36423732624E+01 -0.39938723525E+01  0.11927666148E+02  0.10566000000E+00 0. -1.
        -13    1    4    4    0    0 -0.22379411355E+01 -0.56841098000E+00 -0.13347310499E+01  0.26691089486E+01  0.10566000000E+00 0.  1.
        -14    1    4    4    0    0 -0.24598951960E+02 -0.73884511222E+01 -0.98779790748E+01  0.27518577691E+02  0.00000000000E+00 0.  1.
<mgrwt>
<rscale>  0 0.80644033E+02</rscale>
<asrwt>0</asrwt>
<pdfrwt beam="1">  1        2 0.11431677E-01 0.80644033E+02</pdfrwt>
<pdfrwt beam="2">  1       -1 0.33662612E-02 0.80644033E+02</pdfrwt>
<totfact> 0.16034956E+05</totfact>
</mgrwt>
</event>
<event>
 8    1  0.1520917E-017  0.7998646E+02  0.7818608E-02  0.1329090E+00
          2   -1    0    0  501    0  0.00000000000E+00  0.00000000000E+00  0.13580952641E+03  0.13580952643E+03  0.25500000000E-02 0. -1.
         -1   -1    0    0    0  501 -0.00000000000E+00 -0.00000000000E+00 -0.11777218201E+02  0.11777219279E+02  0.50400000000E-02 0.  1.
         24    2    1    2    0    0 -0.71054273576E-14 -0.17763568394E-14  0.12403230821E+03  0.14758674571E+03  0.79986461544E+02 0.  0.
         66    2    3    3    0    0  0.36702698675E+02  0.13803378348E+02  0.47782374658E+02  0.61844778891E+02  0.20000010706E+01 0.  0.
        -13    1    3    3    0    0 -0.36702698675E+02 -0.13803378348E+02  0.76249933549E+02  0.85741966820E+02  0.10566000000E+00 0.  1.
         13    1    4    4    0    0  0.12640351914E+02  0.44560930722E+01  0.15448642363E+02  0.20452554287E+02  0.10566000000E+00 0. -1.
        -13    1    4    4    0    0  0.88122765878E+01  0.40012329724E+01  0.11758772844E+02  0.15229773038E+02  0.10566000000E+00 0.  1.
         14    1    4    4    0    0  0.15250070174E+02  0.53460523030E+01  0.20574959452E+02  0.26162451566E+02  0.00000000000E+00 0. -1.
<mgrwt>
<rscale>  0 0.79986462E+02</rscale>
<asrwt>0</asrwt>
<pdfrwt beam="1">  1        2 0.20893772E-01 0.79986462E+02</pdfrwt>
<pdfrwt beam="2">  1       -1 0.18118800E-02 0.79986462E+02</pdfrwt>
<totfact> 0.19416777E+05</totfact>
</mgrwt>
</event>
<event>
 8    1  0.1520917E-017  0.8006362E+02  0.7818608E-02  0.1328871E+00
          2   -1    0    0  501    0  0.00000000000E+00  0.00000000000E+00  0.15699065207E+02  0.15699065414E+02  0.25500000000E-02 0. -1.
         -1   -1    0    0    0  501 -0.00000000000E+00 -0.00000000000E+00 -0.10207905010E+03  0.10207905023E+03  0.50400000000E-02 0.  1.
         24    2    1    2    0    0  0.00000000000E+00  0.00000000000E+00 -0.86379984898E+02  0.11777811564E+03  0.80063616789E+02 0.  0.
         66    2    3    3    0    0 -0.24163764687E+02 -0.63520202246E+01 -0.89181328041E+02  0.92636628570E+02  0.19999992265E+01 0.  0.
        -13    1    3    3    0    0  0.24163764687E+02  0.63520202246E+01  0.28013431425E+01  0.25141487073E+02  0.10566000000E+00 0.  1.
         13    1    4    4    0    0 -0.15621187690E+02 -0.35120652841E+01 -0.55603148965E+02  0.57862573796E+02  0.10566000000E+00 0. -1.
        -13    1    4    4    0    0 -0.12646260940E+01 -0.54850324966E+00 -0.42283008825E+01  0.44485758801E+01  0.10566000000E+00 0.  1.
        -14    1    4    4    0    0 -0.72779509037E+01 -0.22914516908E+01 -0.29349878193E+02  0.30325478894E+02  0.00000000000E+00 0.  1.
<mgrwt>
<rscale>  0 0.80063617E+02</rscale>
<asrwt>0</asrwt>
<pdfrwt beam="1">  1        2 0.24152409E-02 0.80063617E+02</pdfrwt>
<pdfrwt beam="2">  1       -1 0.15704469E-01 0.80063617E+02</pdfrwt>
<totfact> 0.11777303E+05</totfact>
</mgrwt>
</event>
<event>
 8    1  0.1520917E-017  0.7937685E+02  0.7818608E-02  0.1330829E+00
         -1   -1    0    0    0  501 -0.00000000000E+00  0.00000000000E+00  0.36596700102E+01  0.36596734806E+01  0.50400000000E-02 0.  1.
          2   -1    0    0  501    0  0.00000000000E+00 -0.00000000000E+00 -0.43041318435E+03  0.43041318435E+03  0.25500000000E-02 0. -1.
         24    2    1    2    0    0  0.00000000000E+00  0.00000000000E+00 -0.42675351434E+03  0.43407285783E+03  0.79376847445E+02 0.  0.
         66    2    3    3    0    0 -0.38822171245E+02 -0.48691496133E+01 -0.24907666222E+03  0.25213895627E+03  0.20000014862E+01 0.  0.
        -13    1    3    3    0    0  0.38822171245E+02  0.48691496133E+01 -0.17767685211E+03  0.18193390156E+03  0.10566000000E+00 0.  1.
         13    1    4    4    0    0 -0.11420483495E+02 -0.16136184589E+01 -0.72946491239E+02  0.73852778932E+02  0.10566000000E+00 0. -1.
        -13    1    4    4    0    0 -0.24760393625E+02 -0.31219332180E+01 -0.16192181532E+03  0.16383378468E+03  0.10566000000E+00 0.  1.
        -14    1    4    4    0    0 -0.26412941247E+01 -0.13359793639E+00 -0.14208355662E+02  0.14452392663E+02  0.00000000000E+00 0.  1.
<mgrwt>
<rscale>  0 0.79376847E+02</rscale>
<asrwt>0</asrwt>
<pdfrwt beam="1">  1        2 0.66217373E-01 0.79376847E+02</pdfrwt>
<pdfrwt beam="2">  1       -1 0.56302677E-03 0.79376847E+02</pdfrwt>
<totfact> 0.29575804E+05</totfact>
</mgrwt>
</event>
<event>
 8    1  0.1520917E-017  0.8160728E+02  0.7818608E-02  0.1324551E+00
          2   -1    0    0  501    0  0.00000000000E+00  0.00000000000E+00  0.51155589403E+02  0.51155589466E+02  0.25500000000E-02 0. -1.
         -1   -1    0    0    0  501 -0.00000000000E+00 -0.00000000000E+00 -0.32546532036E+02  0.32546532426E+02  0.50400000000E-02 0.  1.
         24    2    1    2    0    0 -0.35527136788E-14 -0.35527136788E-14  0.18609057367E+02  0.83702121893E+02  0.81607280271E+02 0.  0.
         66    2    3    3    0    0 -0.31730078403E+02 -0.20775499603E+02  0.24678482605E+02  0.45292899745E+02  0.20000010904E+01 0.  0.
        -13    1    3    3    0    0  0.31730078403E+02  0.20775499603E+02 -0.60694252378E+01  0.38409222148E+02  0.10566000000E+00 0.  1.
         13    1    4    4    0    0 -0.10144365512E+02 -0.69991301186E+01  0.80184439408E+01  0.14703828798E+02  0.10566000000E+00 0. -1.
        -13    1    4    4    0    0 -0.65562222316E+01 -0.50028550946E+01  0.51183545653E+01  0.97067670488E+01  0.10566000000E+00 0.  1.
         14    1    4    4    0    0 -0.15029490660E+02 -0.87735143900E+01  0.11541684099E+02  0.20882303898E+02  0.00000000000E+00 0. -1.
<mgrwt>
<rscale>  0 0.81607280E+02</rscale>
<asrwt>0</asrwt>
<pdfrwt beam="1">  1        2 0.78700907E-02 0.81607280E+02</pdfrwt>
<pdfrwt beam="2">  1       -1 0.50071588E-02 0.81607280E+02</pdfrwt>
<totfact> 0.14220927E+05</totfact>
</mgrwt>
</event>
<event>
 8    1  0.1520917E-017  0.8012958E+02  0.7818608E-02  0.1328684E+00
          2   -1    0    0  501    0  0.00000000000E+00  0.00000000000E+00  0.22495262122E+02  0.22495262267E+02  0.25500000000E-02 0. -1.
         -1   -1    0    0    0  501 -0.00000000000E+00 -0.00000000000E+00 -0.71356696006E+02  0.71356696184E+02  0.50400000000E-02 0.  1.
         24    2    1    2    0    0  0.35527136788E-14  0.00000000000E+00 -0.48861433884E+02  0.93851958451E+02  0.80129584947E+02 0.  0.
         66    2    3    3    0    0  0.21271606434E+02  0.40677076895E+01  0.14998626121E+02  0.26419429846E+02  0.20000004469E+01 0.  0.
        -13    1    3    3    0    0 -0.21271606434E+02 -0.40677076895E+01 -0.63860060005E+02  0.67432528604E+02  0.10566000000E+00 0.  1.
         13    1    4    4    0    0  0.77234697510E+01  0.21982776586E+01  0.49300229347E+01  0.94234123242E+01  0.10566000000E+00 0. -1.
        -13    1    4    4    0    0  0.55145971107E+01  0.44571306641E+00  0.40130182295E+01  0.68355629451E+01  0.10566000000E+00 0.  1.
         14    1    4    4    0    0  0.80335395720E+01  0.14237169645E+01  0.60555849564E+01  0.10160454577E+02  0.00000000000E+00 0. -1.
<mgrwt>
<rscale>  0 0.80129585E+02</rscale>
<asrwt>0</asrwt>
<pdfrwt beam="1">  1        2 0.34608096E-02 0.80129585E+02</pdfrwt>
<pdfrwt beam="2">  1       -1 0.10977953E-01 0.80129585E+02</pdfrwt>
<totfact> 0.12653329E+05</totfact>
</mgrwt>
</event>
<event>
 8    1  0.1520917E-017  0.7959544E+02  0.7818608E-02  0.1330203E+00
         -1   -1    0    0    0  501 -0.00000000000E+00  0.00000000000E+00  0.60661678285E+01  0.60661699222E+01  0.50400000000E-02 0.  1.
          2   -1    0    0  501    0  0.00000000000E+00 -0.00000000000E+00 -0.26109698119E+03  0.26109698120E+03  0.25500000000E-02 0. -1.
         24    2    1    2    0    0  0.00000000000E+00  0.00000000000E+00 -0.25503081336E+03  0.26716315113E+03  0.79595436773E+02 0.  0.
         66    2    3    3    0    0 -0.18541467243E+02 -0.34076612645E+02 -0.15702063763E+03  0.16175438846E+03  0.20000013385E+01 0.  0.
        -13    1    3    3    0    0  0.18541467243E+02  0.34076612645E+02 -0.98010175728E+02  0.10540876267E+03  0.10566000000E+00 0.  1.
         13    1    4    4    0    0 -0.14246369076E+02 -0.26472597762E+02 -0.12485392938E+03  0.12842224227E+03  0.10566000000E+00 0. -1.
        -13    1    4    4    0    0 -0.12796940821E+01 -0.22009978341E+01 -0.96466240896E+01  0.99775011286E+01  0.10566000000E+00 0.  1.
         14    1    4    4    0    0 -0.30154040856E+01 -0.54030170493E+01 -0.22520084162E+02  0.23354645056E+02  0.00000000000E+00 0. -1.
<mgrwt>
<rscale>  0 0.79595437E+02</rscale>
<asrwt>0</asrwt>
<pdfrwt beam="1">  1        2 0.40168758E-01 0.79595437E+02</pdfrwt>
<pdfrwt beam="2">  1       -1 0.93325695E-03 0.79595437E+02</pdfrwt>
<totfact> 0.24569075E+05</totfact>
</mgrwt>
</event>
<event>
 8    1  0.1520917E-017  0.8181354E+02  0.7818608E-02  0.1323982E+00
          2   -1    0    0  501    0  0.00000000000E+00  0.00000000000E+00  0.52603378418E+02  0.52603378480E+02  0.25500000000E-02 0. -1.
         -1   -1    0    0    0  501 -0.00000000000E+00 -0.00000000000E+00 -0.31810954178E+02  0.31810954577E+02  0.50400000000E-02 0.  1.
         24    2    1    2    0    0  0.17763568394E-14  0.00000000000E+00  0.20792424240E+02  0.84414333057E+02  0.81813536287E+02 0.  0.
         66    2    3    3    0    0 -0.90876589673E+01 -0.39399684433E+02  0.16630691214E+02  0.43766431946E+02  0.19999990200E+01 0.  0.
        -13    1    3    3    0    0  0.90876589673E+01  0.39399684433E+02  0.41617330253E+01  0.40647901111E+02  0.10566000000E+00 0.  1.
         13    1    4    4    0    0 -0.42315672409E+01 -0.17668530565E+02  0.73815841248E+01  0.19610764439E+02  0.10566000000E+00 0. -1.
        -13    1    4    4    0    0 -0.39498818842E+01 -0.18351767175E+02  0.83344432505E+01  0.20539304605E+02  0.10566000000E+00 0.  1.
        -14    1    4    4    0    0 -0.90620984231E+00 -0.33793866932E+01  0.91466383918E+00  0.36163629020E+01  0.00000000000E+00 0.  1.
<mgrwt>
<rscale>  0 0.81813536E+02</rscale>
<asrwt>0</asrwt>
<pdfrwt beam="1">  1        2 0.80928273E-02 0.81813536E+02</pdfrwt>
<pdfrwt beam="2">  1       -1 0.48939931E-02 0.81813536E+02</pdfrwt>
<totfact> 0.14210683E+05</totfact>
</mgrwt>
</event>
<event>
 8    1  0.1520917E-017  0.8092808E+02  0.7818608E-02  0.1326438E+00
          2   -1    0    0  501    0  0.00000000000E+00  0.00000000000E+00  0.26613405488E+04  0.26613405488E+04  0.25500000000E-02 0. -1.
         -1   -1    0    0    0  501 -0.00000000000E+00 -0.00000000000E+00 -0.61522043038E+00  0.61524107434E+00  0.50400000000E-02 0.  1.
         24    2    1    2    0    0  0.11102230246E-15  0.17763568394E-14  0.26607253284E+04  0.26619557899E+04  0.80928080568E+02 0.  0.
         66    2    3    3    0    0 -0.52679591684E+00 -0.13184979445E+02  0.25885289471E+04  0.25885633527E+04  0.19999893373E+01 0.  0.
        -13    1    3    3    0    0  0.52679591684E+00  0.13184979445E+02  0.72196381320E+02  0.73392437190E+02  0.10566000000E+00 0.  1.
         13    1    4    4    0    0 -0.53905649675E+00 -0.11963560073E+02  0.23325138820E+04  0.23325446272E+04  0.10566000000E+00 0. -1.
        -13    1    4    4    0    0  0.14819593768E+00 -0.61693625263E+00  0.80615597907E+02  0.80618163973E+02  0.10566000000E+00 0. -1.
         14    1    4    4    0    0 -0.13593535777E+00 -0.60448311917E+00  0.17539946723E+03  0.17540056152E+03  0.00000000000E+00 0. -1.
<mgrwt>
<rscale>  0 0.80928081E+02</rscale>
<asrwt>0</asrwt>
<pdfrwt beam="1">  1        2 0.40942797E+00 0.80928081E+02</pdfrwt>
<pdfrwt beam="2">  1       -1 0.94652975E-04 0.80928081E+02</pdfrwt>
<totfact> 0.18233606E+05</totfact>
</mgrwt>
</event>
<event>
 8    1  0.1520917E-017  0.8325477E+02  0.7818608E-02  0.1320061E+00
          2   -1    0    0  501    0  0.00000000000E+00  0.00000000000E+00  0.21105768966E+03  0.21105768968E+03  0.25500000000E-02 0. -1.
         -1   -1    0    0    0  501 -0.00000000000E+00 -0.00000000000E+00 -0.82102628874E+01  0.82102644344E+01  0.50400000000E-02 0.  1.
         24    2    1    2    0    0 -0.35527136788E-14  0.35527136788E-14  0.20284742678E+03  0.21926795411E+03  0.83254772544E+02 0.  0.
         66    2    3    3    0    0  0.26856491007E+02  0.31742044687E+02  0.97752098740E+02  0.10624641790E+03  0.19999993214E+01 0.  0.
        -13    1    3    3    0    0 -0.26856491007E+02 -0.31742044687E+02  0.10509532804E+03  0.11302153622E+03  0.10566000000E+00 0.  1.
         13    1    4    4    0    0  0.12561160296E+02  0.13750000947E+02  0.43494551602E+02  0.47314188751E+02  0.10566000000E+00 0. -1.
        -13    1    4    4    0    0  0.92352407414E+01  0.11289322164E+02  0.33281506767E+02  0.36337423178E+02  0.10566000000E+00 0.  1.
        -14    1    4    4    0    0  0.50600899701E+01  0.67027215751E+01  0.20976040371E+02  0.22594805966E+02  0.00000000000E+00 0.  1.
<mgrwt>
<rscale>  0 0.83254773E+02</rscale>
<asrwt>0</asrwt>
<pdfrwt beam="1">  1        2 0.32470412E-01 0.83254773E+02</pdfrwt>
<pdfrwt beam="2">  1       -1 0.12631176E-02 0.83254773E+02</pdfrwt>
<totfact> 0.20229361E+05</totfact>
</mgrwt>
</event>
<event>
 8    1  0.1520917E-017  0.8035405E+02  0.7818608E-02  0.1328050E+00
          2   -1    0    0  501    0  0.00000000000E+00  0.00000000000E+00  0.15211079371E+02  0.15211079585E+02  0.25500000000E-02 0. -1.
         -1   -1    0    0    0  501 -0.00000000000E+00 -0.00000000000E+00 -0.10611957499E+03  0.10611957511E+03  0.50400000000E-02 0.  1.
         24    2    1    2    0    0  0.00000000000E+00 -0.71054273576E-14 -0.90908495619E+02  0.12133065469E+03  0.80354049013E+02 0.  0.
         66    2    3    3    0    0 -0.45149415115E+01 -0.38154377404E+02 -0.27870377909E+02  0.47506832927E+02  0.19999994785E+01 0.  0.
        -13    1    3    3    0    0  0.45149415115E+01  0.38154377404E+02 -0.63038117710E+02  0.73823821768E+02  0.10566000000E+00 0.  1.
         13    1    4    4    0    0 -0.27294596414E+01 -0.15860467093E+02 -0.11401886248E+02  0.19723552935E+02  0.10566000000E+00 0. -1.
        -13    1    4    4    0    0 -0.51928311086E+00 -0.94924218701E+01 -0.67044606005E+01  0.11633429584E+02  0.10566000000E+00 0.  1.
         14    1    4    4    0    0 -0.12661987593E+01 -0.12801488441E+02 -0.97640310613E+01  0.16149850407E+02  0.00000000000E+00 0. -1.
<mgrwt>
<rscale>  0 0.80354049E+02</rscale>
<asrwt>0</asrwt>
<pdfrwt beam="1">  1        2 0.23401661E-02 0.80354049E+02</pdfrwt>
<pdfrwt beam="2">  1       -1 0.16326088E-01 0.80354049E+02</pdfrwt>
<totfact> 0.11573257E+05</totfact>
</mgrwt>
</event>
<event>
 8    1  0.1520917E-017  0.7381938E+02  0.7818608E-02  0.1347566E+00
          2   -1    0    0  501    0  0.00000000000E+00  0.00000000000E+00  0.38846210005E+03  0.38846210005E+03  0.25500000000E-02 0. -1.
         -1   -1    0    0    0  501 -0.00000000000E+00 -0.00000000000E+00 -0.35069691500E+01  0.35069727716E+01  0.50400000000E-02 0.  1.
         24    2    1    2    0    0 -0.71054273576E-14 -0.88817841970E-15  0.38495513090E+03  0.39196907283E+03  0.73819382610E+02 0.  0.
         66    2    3    3    0    0  0.36093462179E+02  0.68708794481E+01  0.20972031352E+03  0.21292382888E+03  0.20000008916E+01 0.  0.
        -13    1    3    3    0    0 -0.36093462179E+02 -0.68708794481E+01  0.17523481737E+03  0.17904524395E+03  0.10566000000E+00 0.  1.
         13    1    4    4    0    0  0.93854172757E+01  0.24020001513E+01  0.55901630548E+02  0.56734990298E+02  0.10566000000E+00 0. -1.
        -13    1    4    4    0    0  0.17968034447E+02  0.25487468287E+01  0.10101584773E+03  0.10263312832E+03  0.10566000000E+00 0.  1.
        -14    1    4    4    0    0  0.87400104565E+01  0.19201324681E+01  0.52802835247E+02  0.53555710261E+02  0.00000000000E+00 0.  1.
<mgrwt>
<rscale>  0 0.73819383E+02</rscale>
<asrwt>0</asrwt>
<pdfrwt beam="1">  1        2 0.59763369E-01 0.73819383E+02</pdfrwt>
<pdfrwt beam="2">  1       -1 0.53953427E-03 0.73819383E+02</pdfrwt>
<totfact> 0.34472472E+05</totfact>
</mgrwt>
</event>
<event>
 8    1  0.1520917E-017  0.8009975E+02  0.7818608E-02  0.1328769E+00
         -1   -1    0    0    0  501 -0.00000000000E+00  0.00000000000E+00  0.37623665055E+01  0.37623698812E+01  0.50400000000E-02 0.  1.
          2   -1    0    0  501    0  0.00000000000E+00 -0.00000000000E+00 -0.42632523083E+03  0.42632523084E+03  0.25500000000E-02 0. -1.
         24    2    1    2    0    0  0.00000000000E+00 -0.17763568394E-14 -0.42256286432E+03  0.43008760072E+03  0.80099750224E+02 0.  0.
         66    2    3    3    0    0  0.25764150004E+01  0.11891881188E+02 -0.41615053603E+03  0.41633318795E+03  0.19999990153E+01 0.  0.
        -13    1    3    3    0    0 -0.25764150004E+01 -0.11891881188E+02 -0.64123282905E+01  0.13754412767E+02  0.10566000000E+00 0.  1.
         13    1    4    4    0    0  0.16777784321E+01  0.87356087316E+01 -0.31484668616E+03  0.31497233649E+03  0.10566000000E+00 0. -1.
        -13    1    4    4    0    0  0.55835023856E-01  0.17594940904E+01 -0.55062394508E+02  0.55090628877E+02  0.10566000000E+00 0.  1.
         14    1    4    4    0    0  0.84280154441E+00  0.13967783655E+01 -0.46241455364E+02  0.46270222589E+02  0.00000000000E+00 0. -1.
<mgrwt>
<rscale>  0 0.80099750E+02</rscale>
<asrwt>0</asrwt>
<pdfrwt beam="1">  1        2 0.65588459E-01 0.80099750E+02</pdfrwt>
<pdfrwt beam="2">  1       -1 0.57882622E-03 0.80099750E+02</pdfrwt>
<totfact> 0.28790227E+05</totfact>
</mgrwt>
</event>
<event>
 8    1  0.1520917E-017  0.7908236E+02  0.7818608E-02  0.1331676E+00
          2   -1    0    0  501    0  0.00000000000E+00  0.00000000000E+00  0.25487051091E+03  0.25487051092E+03  0.25500000000E-02 0. -1.
         -1   -1    0    0    0  501 -0.00000000000E+00 -0.00000000000E+00 -0.61345051742E+01  0.61345072446E+01  0.50400000000E-02 0.  1.
         24    2    1    2    0    0  0.00000000000E+00  0.00000000000E+00  0.24873600573E+03  0.26100501816E+03  0.79082355548E+02 0.  0.
         66    2    3    3    0    0  0.49214256833E+01 -0.32509560215E+02  0.19678662687E+03  0.19952460612E+03  0.19999997038E+01 0.  0.
        -13    1    3    3    0    0 -0.49214256833E+01  0.32509560215E+02  0.51949378865E+02  0.61480412041E+02  0.10566000000E+00 0.  1.
         13    1    4    4    0    0  0.25779735905E+01 -0.13054128702E+02  0.78902539522E+02  0.80016736568E+02  0.10566000000E+00 0. -1.
        -13    1    4    4    0    0  0.16371624210E+01 -0.16279347723E+02  0.96354234545E+02  0.97733551772E+02  0.10566000000E+00 0.  1.
         14    1    4    4    0    0  0.70628967184E+00 -0.31760837905E+01  0.21529852799E+02  0.21774317783E+02  0.00000000000E+00 0. -1.
<mgrwt>
<rscale>  0 0.79082356E+02</rscale>
<asrwt>0</asrwt>
<pdfrwt beam="1">  1        2 0.39210847E-01 0.79082356E+02</pdfrwt>
<pdfrwt beam="2">  1       -1 0.94377021E-03 0.79082356E+02</pdfrwt>
<totfact> 0.24773468E+05</totfact>
</mgrwt>
</event>
<event>
 8    1  0.1520917E-017  0.7944031E+02  0.7818608E-02  0.1330647E+00
         -1   -1    0    0    0  501 -0.00000000000E+00  0.00000000000E+00  0.55600490775E+01  0.55600513618E+01  0.50400000000E-02 0.  1.
          2   -1    0    0  501    0  0.00000000000E+00 -0.00000000000E+00 -0.28375473019E+03  0.28375473020E+03  0.25500000000E-02 0. -1.
         24    2    1    2    0    0  0.17763568394E-14  0.35527136788E-14 -0.27819468111E+03  0.28931478156E+03  0.79440306090E+02 0.  0.
         66    2    3    3    0    0  0.80634607185E+01  0.30459062437E+02 -0.22711405212E+03  0.22929798637E+03  0.19999995731E+01 0.  0.
        -13    1    3    3    0    0 -0.80634607185E+01 -0.30459062437E+02 -0.51080628992E+02  0.60016795196E+02  0.10566000000E+00 0.  1.
         13    1    4    4    0    0  0.42944672194E+01  0.15792647615E+02 -0.11767539760E+03  0.11880808277E+03  0.10566000000E+00 0. -1.
        -13    1    4    4    0    0  0.28692701961E+00  0.30597287934E+01 -0.24006461666E+02  0.24202595587E+02  0.10566000000E+00 0.  1.
         14    1    4    4    0    0  0.34820664795E+01  0.11606686029E+02 -0.85432192852E+02  0.86287308007E+02  0.00000000000E+00 0. -1.
<mgrwt>
<rscale>  0 0.79440306E+02</rscale>
<asrwt>0</asrwt>
<pdfrwt beam="1">  1        2 0.43654563E-01 0.79440306E+02</pdfrwt>
<pdfrwt beam="2">  1       -1 0.85539256E-03 0.79440306E+02</pdfrwt>
<totfact> 0.25449840E+05</totfact>
</mgrwt>
</event>
<event>
 8    1  0.1520917E-017  0.7958922E+02  0.7818608E-02  0.1330221E+00
         -1   -1    0    0    0  501 -0.00000000000E+00  0.00000000000E+00  0.53418584967E+01  0.53418608743E+01  0.50400000000E-02 0.  1.
          2   -1    0    0  501    0  0.00000000000E+00 -0.00000000000E+00 -0.29645314629E+03  0.29645314630E+03  0.25500000000E-02 0. -1.
         24    2    1    2    0    0  0.00000000000E+00  0.00000000000E+00 -0.29111128779E+03  0.30179500717E+03  0.79589223361E+02 0.  0.
         66    2    3    3    0    0 -0.14870716546E+02 -0.10671783597E+02 -0.27952801935E+03  0.28013378727E+03  0.19999988112E+01 0.  0.
        -13    1    3    3    0    0  0.14870716546E+02  0.10671783597E+02 -0.11583268444E+02  0.21661219902E+02  0.10566000000E+00 0.  1.
         13    1    4    4    0    0 -0.73895098914E+01 -0.57875381354E+01 -0.14530453323E+03  0.14560741394E+03  0.10566000000E+00 0. -1.
        -13    1    4    4    0    0 -0.12878318461E+01 -0.69243787928E+00 -0.16206074758E+02  0.16272246440E+02  0.10566000000E+00 0.  1.
        -14    1    4    4    0    0 -0.61933748089E+01 -0.41918075825E+01 -0.11801741136E+03  0.11825412689E+03  0.00000000000E+00 0.  1.
<mgrwt>
<rscale>  0 0.79589223E+02</rscale>
<asrwt>0</asrwt>
<pdfrwt beam="1">  1        2 0.45608164E-01 0.79589223E+02</pdfrwt>
<pdfrwt beam="2">  1       -1 0.82182480E-03 0.79589223E+02</pdfrwt>
<totfact> 0.25729831E+05</totfact>
</mgrwt>
</event>
<event>
 8    1  0.1520917E-017  0.8235119E+02  0.7818608E-02  0.1322508E+00
         -1   -1    0    0    0  501 -0.00000000000E+00  0.00000000000E+00  0.11976090145E+02  0.11976091205E+02  0.50400000000E-02 0.  1.
          2   -1    0    0  501    0  0.00000000000E+00 -0.00000000000E+00 -0.14156788440E+03  0.14156788443E+03  0.25500000000E-02 0. -1.
         24    2    1    2    0    0 -0.35527136788E-14  0.88817841970E-15 -0.12959179426E+03  0.15354397563E+03  0.82351194974E+02 0.  0.
         66    2    3    3    0    0  0.26422250133E+02 -0.46246645144E+01 -0.12302027699E+03  0.12592661104E+03  0.19999981411E+01 0.  0.
        -13    1    3    3    0    0 -0.26422250133E+02  0.46246645144E+01 -0.65715172696E+01  0.27617364596E+02  0.10566000000E+00 0.  1.
         13    1    4    4    0    0  0.11290017057E+02 -0.19712926827E+01 -0.49522526020E+02  0.50831508215E+02  0.10566000000E+00 0.  1.
        -13    1    4    4    0    0  0.97416235184E+01 -0.14294458428E+01 -0.49351295977E+02  0.50323991523E+02  0.10566000000E+00 0. -1.
         14    1    4    4    0    0  0.53906095571E+01 -0.12239259889E+01 -0.24146454993E+02  0.24771111298E+02  0.00000000000E+00 0. -1.
<mgrwt>
<rscale>  0 0.82351195E+02</rscale>
<asrwt>0</asrwt>
<pdfrwt beam="1">  1        2 0.21779673E-01 0.82351195E+02</pdfrwt>
<pdfrwt beam="2">  1       -1 0.18424756E-02 0.82351195E+02</pdfrwt>
<totfact> 0.18204587E+05</totfact>
</mgrwt>
</event>
<event>
 8    1  0.1520917E-017  0.7979988E+02  0.7818608E-02  0.1329620E+00
         -1   -1    0    0    0  501 -0.00000000000E+00  0.00000000000E+00  0.29969894363E+02  0.29969894787E+02  0.50400000000E-02 0.  1.
          2   -1    0    0  501    0  0.00000000000E+00 -0.00000000000E+00 -0.53120140798E+02  0.53120140859E+02  0.25500000000E-02 0. -1.
         24    2    1    2    0    0 -0.35527136788E-14  0.00000000000E+00 -0.23150246434E+02  0.83090035646E+02  0.79799875399E+02 0.  0.
         66    2    3    3    0    0 -0.29527470611E+02 -0.26548950989E+02 -0.15377047228E+02  0.42628299287E+02  0.19999998349E+01 0.  0.
        -13    1    3    3    0    0  0.29527470611E+02  0.26548950989E+02 -0.77731992061E+01  0.40461736359E+02  0.10566000000E+00 0.  1.
         13    1    4    4    0    0 -0.12494977895E+02 -0.10666012497E+02 -0.66082665554E+01  0.17707869609E+02  0.10566000000E+00 0. -1.
        -13    1    4    4    0    0 -0.83387725637E+00 -0.11909060778E+01 -0.56731552523E+00  0.15641673522E+01  0.10566000000E+00 0.  1.
         14    1    4    4    0    0 -0.16198615460E+02 -0.14692032414E+02 -0.82014651476E+01  0.23356262326E+02  0.00000000000E+00 0. -1.
<mgrwt>
<rscale>  0 0.79799875E+02</rscale>
<asrwt>0</asrwt>
<pdfrwt beam="1">  1        2 0.81723294E-02 0.79799875E+02</pdfrwt>
<pdfrwt beam="2">  1       -1 0.46107530E-02 0.79799875E+02</pdfrwt>
<totfact> 0.15247056E+05</totfact>
</mgrwt>
</event>
<event>
 8    1  0.1520917E-017  0.8423548E+02  0.7818608E-02  0.1317444E+00
         -1   -1    0    0    0  501 -0.00000000000E+00  0.00000000000E+00  0.47580987465E+01  0.47581014158E+01  0.50400000000E-02 0.  1.
          2   -1    0    0  501    0  0.00000000000E+00 -0.00000000000E+00 -0.37281770518E+03  0.37281770519E+03  0.25500000000E-02 0. -1.
         24    2    1    2    0    0  0.35527136788E-14  0.00000000000E+00 -0.36805960644E+03  0.37757580661E+03  0.84235478541E+02 0.  0.
         66    2    3    3    0    0 -0.22933397408E+02 -0.33304692669E+02 -0.13171509593E+03  0.13779698753E+03  0.20000011111E+01 0.  0.
        -13    1    3    3    0    0  0.22933397408E+02  0.33304692669E+02 -0.23634451050E+03  0.23977881908E+03  0.10566000000E+00 0.  1.
         13    1    4    4    0    0 -0.30051762268E+01 -0.35822440583E+01 -0.15907065033E+02  0.16580393199E+02  0.10566000000E+00 0. -1.
        -13    1    4    4    0    0 -0.17887810447E+01 -0.23818511328E+01 -0.87728807004E+01  0.92653954186E+01  0.10566000000E+00 0.  1.
         14    1    4    4    0    0 -0.18139440136E+02 -0.27340597478E+02 -0.10703515020E+03  0.11195119891E+03  0.00000000000E+00 0. -1.
<mgrwt>
<rscale>  0 0.84235479E+02</rscale>
<asrwt>0</asrwt>
<pdfrwt beam="1">  1        2 0.57356547E-01 0.84235479E+02</pdfrwt>
<pdfrwt beam="2">  1       -1 0.73201569E-03 0.84235479E+02</pdfrwt>
<totfact> 0.24075278E+05</totfact>
</mgrwt>
</event>
<event>
 8    1  0.1520917E-017  0.8137846E+02  0.7818608E-02  0.1325184E+00
         -1   -1    0    0    0  501 -0.00000000000E+00  0.00000000000E+00  0.31774982748E+01  0.31775022719E+01  0.50400000000E-02 0.  1.
          2   -1    0    0  501    0  0.00000000000E+00 -0.00000000000E+00 -0.52104272409E+03  0.52104272409E+03  0.25500000000E-02 0. -1.
         24    2    1    2    0    0 -0.88817841970E-15  0.17763568394E-14 -0.51786522581E+03  0.52422022636E+03  0.81378459218E+02 0.  0.
         66    2    3    3    0    0  0.40531652812E+01 -0.11170592196E+02 -0.50960567508E+03  0.50974812834E+03  0.19999994954E+01 0.  0.
        -13    1    3    3    0    0 -0.40531652812E+01  0.11170592196E+02 -0.82595507342E+01  0.14472098023E+02  0.10566000000E+00 0.  1.
         13    1    4    4    0    0  0.32393418018E+01 -0.75140228328E+01 -0.35292072996E+03  0.35301558985E+03  0.10566000000E+00 0. -1.
        -13    1    4    4    0    0  0.92125075292E-01 -0.49922623358E+00 -0.11785628605E+02  0.11797030114E+02  0.10566000000E+00 0.  1.
         14    1    4    4    0    0  0.72169840415E+00 -0.31573431300E+01 -0.14489931651E+03  0.14493550838E+03  0.00000000000E+00 0. -1.
<mgrwt>
<rscale>  0 0.81378459E+02</rscale>
<asrwt>0</asrwt>
<pdfrwt beam="1">  1        2 0.80160352E-01 0.81378459E+02</pdfrwt>
<pdfrwt beam="2">  1       -1 0.48884661E-03 0.81378459E+02</pdfrwt>
<totfact> 0.29505025E+05</totfact>
</mgrwt>
</event>
<event>
 8    1  0.1520917E-017  0.8009723E+02  0.7818608E-02  0.1328776E+00
         -1   -1    0    0    0  501 -0.00000000000E+00  0.00000000000E+00  0.71446572825E+02  0.71446573003E+02  0.50400000000E-02 0.  1.
          2   -1    0    0  501    0  0.00000000000E+00 -0.00000000000E+00 -0.22448824414E+02  0.22448824559E+02  0.25500000000E-02 0. -1.
         24    2    1    2    0    0  0.00000000000E+00 -0.35527136788E-14  0.48997748411E+02  0.93895397562E+02  0.80097230501E+02 0.  0.
         66    2    3    3    0    0  0.25772714039E+02 -0.30142750328E+02  0.18193807208E+02  0.43678745504E+02  0.20000004473E+01 0.  0.
        -13    1    3    3    0    0 -0.25772714039E+02  0.30142750328E+02  0.30803941203E+02  0.50216652058E+02  0.10566000000E+00 0.  1.
         13    1    4    4    0    0  0.14805941168E+02 -0.16156898576E+02  0.10283931525E+02  0.24208091150E+02  0.10566000000E+00 0. -1.
        -13    1    4    4    0    0  0.40459062275E+01 -0.49939283294E+01  0.24586436395E+01  0.68822067640E+01  0.10566000000E+00 0.  1.
         14    1    4    4    0    0  0.69208666429E+01 -0.89919234226E+01  0.54512320435E+01  0.12588447590E+02  0.00000000000E+00 0. -1.
<mgrwt>
<rscale>  0 0.80097231E+02</rscale>
<asrwt>0</asrwt>
<pdfrwt beam="1">  1        2 0.34536654E-02 0.80097231E+02</pdfrwt>
<pdfrwt beam="2">  1       -1 0.10991780E-01 0.80097231E+02</pdfrwt>
<totfact> 0.12662693E+05</totfact>
</mgrwt>
</event>
<event>
 8    1  0.1520917E-017  0.8211837E+02  0.7818608E-02  0.1323145E+00
         -1   -1    0    0    0  501 -0.00000000000E+00  0.00000000000E+00  0.18268413476E+01  0.18268482999E+01  0.50400000000E-02 0.  1.
          2   -1    0    0  501    0  0.00000000000E+00 -0.00000000000E+00 -0.92282418973E+03  0.92282418973E+03  0.25500000000E-02 0. -1.
         24    2    1    2    0    0 -0.88817841970E-15 -0.35527136788E-14 -0.92099734838E+03  0.92465103803E+03  0.82118368279E+02 0.  0.
         66    2    3    3    0    0 -0.65024367901E+01 -0.26635644179E+02 -0.80454400692E+03  0.80501353920E+03  0.20000003011E+01 0.  0.
        -13    1    3    3    0    0  0.65024367901E+01  0.26635644179E+02 -0.11645334146E+03  0.11963749883E+03  0.10566000000E+00 0.  1.
         13    1    4    4    0    0 -0.20299791952E+01 -0.73657361873E+01 -0.22339374999E+03  0.22352439148E+03  0.10566000000E+00 0. -1.
        -13    1    4    4    0    0 -0.40682027110E+01 -0.18769468611E+02 -0.56141345859E+03  0.56174186766E+03  0.10566000000E+00 0.  1.
        -14    1    4    4    0    0 -0.40425488399E+00 -0.50043938085E+00 -0.19736798336E+02  0.19747280070E+02  0.00000000000E+00 0.  1.
<mgrwt>
<rscale>  0 0.82118368E+02</rscale>
<asrwt>0</asrwt>
<pdfrwt beam="1">  1        2 0.14197258E+00 0.82118368E+02</pdfrwt>
<pdfrwt beam="2">  1       -1 0.28105379E-03 0.82118368E+02</pdfrwt>
<totfact> 0.32734787E+05</totfact>
</mgrwt>
</event>
<event>
 8    1  0.1520917E-017  0.7910437E+02  0.7818608E-02  0.1331612E+00
          2   -1    0    0  501    0  0.00000000000E+00  0.00000000000E+00  0.51271414539E+03  0.51271414540E+03  0.25500000000E-02 0. -1.
         -1   -1    0    0    0  501 -0.00000000000E+00 -0.00000000000E+00 -0.30511623163E+01  0.30511664790E+01  0.50400000000E-02 0.  1.
         24    2    1    2    0    0  0.00000000000E+00  0.00000000000E+00  0.50966298307E+03  0.51576531188E+03  0.79104365355E+02 0.  0.
         66    2    3    3    0    0  0.72868276245E+01 -0.23148102020E+02  0.45841960857E+03  0.45906586674E+03  0.20000004545E+01 0.  0.
        -13    1    3    3    0    0 -0.72868276245E+01  0.23148102020E+02  0.51243374506E+02  0.56699445136E+02  0.10566000000E+00 0.  1.
         13    1    4    4    0    0  0.23267407340E+01 -0.80547344290E+01  0.15225192583E+03  0.15248263033E+03  0.10566000000E+00 0. -1.
        -13    1    4    4    0    0  0.50052985931E+00 -0.16561794287E+01  0.43114755587E+02  0.43149586021E+02  0.10566000000E+00 0.  1.
        -14    1    4    4    0    0  0.44595570312E+01 -0.13437188162E+02  0.26305292715E+03  0.26343365039E+03  0.00000000000E+00 0.  1.
<mgrwt>
<rscale>  0 0.79104365E+02</rscale>
<asrwt>0</asrwt>
<pdfrwt beam="1">  1        2 0.78878967E-01 0.79104365E+02</pdfrwt>
<pdfrwt beam="2">  1       -1 0.46941070E-03 0.79104365E+02</pdfrwt>
<totfact> 0.31607407E+05</totfact>
</mgrwt>
</event>
<event>
 8    1  0.1520917E-017  0.7976165E+02  0.7818608E-02  0.1329729E+00
         -1   -1    0    0    0  501 -0.00000000000E+00  0.00000000000E+00  0.38388119618E+02  0.38388119948E+02  0.50400000000E-02 0.  1.
          2   -1    0    0  501    0  0.00000000000E+00 -0.00000000000E+00 -0.41431570329E+02  0.41431570407E+02  0.25500000000E-02 0. -1.
         24    2    1    2    0    0  0.35527136788E-14  0.00000000000E+00 -0.30434507112E+01  0.79819690356E+02  0.79761647276E+02 0.  0.
         66    2    3    3    0    0  0.30624741728E+02  0.13920849789E+02 -0.22911353139E+02  0.40750398377E+02  0.20000001191E+01 0.  0.
        -13    1    3    3    0    0 -0.30624741728E+02 -0.13920849789E+02  0.19867902428E+02  0.39069291978E+02  0.10566000000E+00 0.  1.
         13    1    4    4    0    0  0.34473412975E+01  0.16743118813E+01 -0.24890487843E+01  0.45709966291E+01  0.10566000000E+00 0. -1.
        -13    1    4    4    0    0  0.12800273800E+02  0.52335028181E+01 -0.10389492031E+02  0.17297088478E+02  0.10566000000E+00 0.  1.
        -14    1    4    4    0    0  0.14377126631E+02  0.70130350901E+01 -0.10032812323E+02  0.18882313271E+02  0.00000000000E+00 0.  1.
<mgrwt>
<rscale>  0 0.79761647E+02</rscale>
<asrwt>0</asrwt>
<pdfrwt beam="1">  1        2 0.63740878E-02 0.79761647E+02</pdfrwt>
<pdfrwt beam="2">  1       -1 0.59058646E-02 0.79761647E+02</pdfrwt>
<totfact> 0.14477728E+05</totfact>
</mgrwt>
</event>
<event>
 8    1  0.1520917E-017  0.8410811E+02  0.7818608E-02  0.1317782E+00
         -1   -1    0    0    0  501 -0.00000000000E+00  0.00000000000E+00  0.28875366765E+02  0.28875367205E+02  0.50400000000E-02 0.  1.
          2   -1    0    0  501    0  0.00000000000E+00 -0.00000000000E+00 -0.61247488344E+02  0.61247488397E+02  0.25500000000E-02 0. -1.
         24    2    1    2    0    0  0.00000000000E+00  0.88817841970E-15 -0.32372121579E+02  0.90122855602E+02  0.84108114034E+02 0.  0.
         66    2    3    3    0    0  0.34989215407E+02 -0.59454226582E+01 -0.40320761260E+02  0.53752740367E+02  0.20000157556E+01 0.  0.
        -13    1    3    3    0    0 -0.34989215407E+02  0.59454226582E+01  0.79486396813E+01  0.36370115235E+02  0.10566000000E+00 0.  1.
         13    1    4    4    0    0  0.26812014672E+02 -0.47626900241E+01 -0.31896050021E+02  0.41939677133E+02  0.10566000000E+00 0. -1.
        -13    1    4    4    0    0  0.55166886210E+01 -0.10222494991E+01 -0.55405396315E+01  0.78859109064E+01  0.10566000000E+00 0.  1.
         14    1    4    4    0    0  0.26605121141E+01 -0.16048313498E+00 -0.28841716075E+01  0.39271523280E+01  0.00000000000E+00 0. -1.
<mgrwt>
<rscale>  0 0.84108114E+02</rscale>
<asrwt>0</asrwt>
<pdfrwt beam="1">  1        2 0.94226905E-02 0.84108114E+02</pdfrwt>
<pdfrwt beam="2">  1       -1 0.44423642E-02 0.84108114E+02</pdfrwt>
<totfact> 0.13643330E+05</totfact>
</mgrwt>
</event>
<event>
 8    1  0.1520917E-017  0.7815551E+02  0.7818608E-02  0.1334369E+00
         -1   -1    0    0    0  501 -0.00000000000E+00  0.00000000000E+00  0.40003537561E+01  0.40003569310E+01  0.50400000000E-02 0.  1.
          2   -1    0    0  501    0  0.00000000000E+00 -0.00000000000E+00 -0.38173382938E+03  0.38173382939E+03  0.25500000000E-02 0. -1.
         24    2    1    2    0    0  0.00000000000E+00  0.00000000000E+00 -0.37773347563E+03  0.38573418632E+03  0.78155510930E+02 0.  0.
         66    2    3    3    0    0 -0.19594057415E+02 -0.11183241444E+02 -0.34631270520E+03  0.34705256338E+03  0.19999975788E+01 0.  0.
        -13    1    3    3    0    0  0.19594057415E+02  0.11183241444E+02 -0.31420770424E+02  0.38681622940E+02  0.10566000000E+00 0.  1.
         13    1    4    4    0    0 -0.98042658688E+01 -0.51872656101E+01 -0.18011810823E+03  0.18045934564E+03  0.10566000000E+00 0. -1.
        -13    1    4    4    0    0 -0.98616692157E+00 -0.47513732758E+00 -0.12882963656E+02  0.12929818146E+02  0.10566000000E+00 0. -1.
         14    1    4    4    0    0 -0.88036246248E+01 -0.55208385065E+01 -0.15331163332E+03  0.15366339959E+03  0.00000000000E+00 0. -1.
<mgrwt>
<rscale>  0 0.78155511E+02</rscale>
<asrwt>0</asrwt>
<pdfrwt beam="1">  1        2 0.58728253E-01 0.78155511E+02</pdfrwt>
<pdfrwt beam="2">  1       -1 0.61543959E-03 0.78155511E+02</pdfrwt>
<totfact> 0.29538085E+05</totfact>
</mgrwt>
</event>
<event>
 8    1  0.1520917E-017  0.7952566E+02  0.7818608E-02  0.1330403E+00
         -1   -1    0    0    0  501 -0.00000000000E+00  0.00000000000E+00  0.19310616820E+03  0.19310616827E+03  0.50400000000E-02 0.  1.
          2   -1    0    0  501    0  0.00000000000E+00 -0.00000000000E+00 -0.81876338637E+01  0.81876342608E+01  0.25500000000E-02 0. -1.
         24    2    1    2    0    0  0.35527136788E-14  0.00000000000E+00  0.18491853434E+03  0.20129380253E+03  0.79525659976E+02 0.  0.
         66    2    3    3    0    0 -0.31192212347E+02  0.17870902155E+02  0.49655013451E+02  0.61334685277E+02  0.20000005726E+01 0.  0.
        -13    1    3    3    0    0  0.31192212347E+02 -0.17870902155E+02  0.13526352089E+03  0.13995911725E+03  0.10566000000E+00 0.  1.
         13    1    4    4    0    0 -0.23787036284E+02  0.13306700769E+02  0.37378497015E+02  0.46260723985E+02  0.10566000000E+00 0. -1.
        -13    1    4    4    0    0 -0.52291480050E+01  0.31146409151E+01  0.78613660428E+01  0.99426966655E+01  0.10566000000E+00 0.  1.
        -14    1    4    4    0    0 -0.21760280583E+01  0.14495604706E+01  0.44151503934E+01  0.51312646263E+01  0.00000000000E+00 0.  1.
<mgrwt>
<rscale>  0 0.79525660E+02</rscale>
<asrwt>0</asrwt>
<pdfrwt beam="1">  1        2 0.12596360E-02 0.79525660E+02</pdfrwt>
<pdfrwt beam="2">  1       -1 0.29708642E-01 0.79525660E+02</pdfrwt>
<totfact> 0.10218863E+05</totfact>
</mgrwt>
</event>
<event>
 8    1  0.1520917E-017  0.8098333E+02  0.7818608E-02  0.1326284E+00
          2   -1    0    0  501    0  0.00000000000E+00  0.00000000000E+00  0.14500420105E+03  0.14500420108E+03  0.25500000000E-02 0. -1.
         -1   -1    0    0    0  501 -0.00000000000E+00 -0.00000000000E+00 -0.11307085935E+02  0.11307087058E+02  0.50400000000E-02 0.  1.
         24    2    1    2    0    0  0.00000000000E+00  0.00000000000E+00  0.13369711512E+03  0.15631128813E+03  0.80983332897E+02 0.  0.
         66    2    3    3    0    0 -0.26515114649E+02  0.22701638538E+02  0.10640600951E+03  0.11200292203E+03  0.19999967683E+01 0.  0.
        -13    1    3    3    0    0  0.26515114649E+02 -0.22701638538E+02  0.27291105608E+02  0.44308366100E+02  0.10566000000E+00 0.  1.
         13    1    4    4    0    0 -0.62013031362E+01  0.53903777520E+01  0.23502405737E+02  0.24897521410E+02  0.10566000000E+00 0. -1.
        -13    1    4    4    0    0 -0.24484493328E+01  0.16356255105E+01  0.83165787550E+01  0.88230845609E+01  0.10566000000E+00 0.  1.
         14    1    4    4    0    0 -0.17865362180E+02  0.15675635275E+02  0.74587025018E+02  0.78282316062E+02  0.00000000000E+00 0. -1.
<mgrwt>
<rscale>  0 0.80983333E+02</rscale>
<asrwt>0</asrwt>
<pdfrwt beam="1">  1        2 0.22308338E-01 0.80983333E+02</pdfrwt>
<pdfrwt beam="2">  1       -1 0.17395519E-02 0.80983333E+02</pdfrwt>
<totfact> 0.19180826E+05</totfact>
</mgrwt>
</event>
<event>
 8    1  0.1520917E-017  0.7787401E+02  0.7818608E-02  0.1335195E+00
          2   -1    0    0  501    0  0.00000000000E+00  0.00000000000E+00  0.12771674547E+02  0.12771674802E+02  0.25500000000E-02 0. -1.
         -1   -1    0    0    0  501 -0.00000000000E+00 -0.00000000000E+00 -0.11870725264E+03  0.11870725274E+03  0.50400000000E-02 0.  1.
         24    2    1    2    0    0  0.35527136788E-14 -0.17763568394E-14 -0.10593557809E+03  0.13147892755E+03  0.77874011605E+02 0.  0.
         66    2    3    3    0    0 -0.28623563111E+02 -0.14932491330E+02 -0.16330039219E+02  0.36234760151E+02  0.19999999615E+01 0.  0.
        -13    1    3    3    0    0  0.28623563111E+02  0.14932491330E+02 -0.89605538871E+02  0.95244167396E+02  0.10566000000E+00 0.  1.
         13    1    4    4    0    0 -0.26800223738E+01 -0.12973473444E+01 -0.11546690477E+01  0.31953176213E+01  0.10566000000E+00 0. -1.
        -13    1    4    4    0    0 -0.60607989284E+01 -0.24958685028E+01 -0.35587732028E+01  0.74591335944E+01  0.10566000000E+00 0.  1.
         14    1    4    4    0    0 -0.19882741808E+02 -0.11139275482E+02 -0.11616596968E+02  0.25580308935E+02  0.00000000000E+00 0. -1.
<mgrwt>
<rscale>  0 0.77874012E+02</rscale>
<asrwt>0</asrwt>
<pdfrwt beam="1">  1        2 0.19648731E-02 0.77874012E+02</pdfrwt>
<pdfrwt beam="2">  1       -1 0.18262654E-01 0.77874012E+02</pdfrwt>
<totfact> 0.12210440E+05</totfact>
</mgrwt>
</event>
<event>
 8    1  0.1520917E-017  0.7983594E+02  0.7818608E-02  0.1329518E+00
          2   -1    0    0  501    0  0.00000000000E+00  0.00000000000E+00  0.10302228982E+04  0.10302228982E+04  0.25500000000E-02 0. -1.
         -1   -1    0    0    0  501 -0.00000000000E+00 -0.00000000000E+00 -0.15466945231E+01  0.15467027346E+01  0.50400000000E-02 0.  1.
         24    2    1    2    0    0  0.00000000000E+00  0.88817841970E-15  0.10286762037E+04  0.10317696010E+04  0.79835940580E+02 0.  0.
         66    2    3    3    0    0  0.29144562893E+02  0.74353391359E+01  0.85333525273E+03  0.85386752097E+03  0.20000000764E+01 0.  0.
        -13    1    3    3    0    0 -0.29144562893E+02 -0.74353391359E+01  0.17534095098E+03  0.17790208001E+03  0.10566000000E+00 0.  1.
         13    1    4    4    0    0  0.79489243871E+01  0.20895059547E+01  0.22812962093E+03  0.22827765231E+03  0.10566000000E+00 0. -1.
        -13    1    4    4    0    0  0.13587724279E+02  0.34641798084E+01  0.42323512563E+03  0.42346736536E+03  0.10566000000E+00 0.  1.
        -14    1    4    4    0    0  0.76079142269E+01  0.18816533727E+01  0.20197050617E+03  0.20212250330E+03  0.00000000000E+00 0.  1.
<mgrwt>
<rscale>  0 0.79835941E+02</rscale>
<asrwt>0</asrwt>
<pdfrwt beam="1">  1        2 0.15849576E+00 0.79835941E+02</pdfrwt>
<pdfrwt beam="2">  1       -1 0.23795375E-03 0.79835941E+02</pdfrwt>
<totfact> 0.35452302E+05</totfact>
</mgrwt>
</event>
<event>
 8    1  0.1520917E-017  0.7988505E+02  0.7818608E-02  0.1329378E+00
          2   -1    0    0  501    0  0.00000000000E+00  0.00000000000E+00  0.23725379000E+02  0.23725379137E+02  0.25500000000E-02 0. -1.
         -1   -1    0    0    0  501 -0.00000000000E+00 -0.00000000000E+00 -0.67244678227E+02  0.67244678415E+02  0.50400000000E-02 0.  1.
         24    2    1    2    0    0  0.00000000000E+00  0.00000000000E+00 -0.43519299226E+02  0.90970057553E+02  0.79885054710E+02 0.  0.
         66    2    3    3    0    0  0.20390193219E+02  0.34316744918E+02 -0.21728092364E+02  0.45491855941E+02  0.19999994796E+01 0.  0.
        -13    1    3    3    0    0 -0.20390193219E+02 -0.34316744918E+02 -0.21791206863E+02  0.45478201612E+02  0.10566000000E+00 0.  1.
         13    1    4    4    0    0  0.19007582573E+01  0.31057540094E+01 -0.14845964592E+01  0.39336726607E+01  0.10566000000E+00 0. -1.
        -13    1    4    4    0    0  0.28090523414E+01  0.50145209166E+01 -0.36486550273E+01  0.68088209423E+01  0.10566000000E+00 0.  1.
        -14    1    4    4    0    0  0.15680382621E+02  0.26196469992E+02 -0.16594840877E+02  0.34749362338E+02  0.00000000000E+00 0.  1.
<mgrwt>
<rscale>  0 0.79885055E+02</rscale>
<asrwt>0</asrwt>
<pdfrwt beam="1">  1        2 0.36500584E-02 0.79885055E+02</pdfrwt>
<pdfrwt beam="2">  1       -1 0.10345335E-01 0.79885055E+02</pdfrwt>
<totfact> 0.12899403E+05</totfact>
</mgrwt>
</event>
<event>
 8    1  0.1520917E-017  0.8203624E+02  0.7818608E-02  0.1323370E+00
         -1   -1    0    0    0  501 -0.00000000000E+00  0.00000000000E+00  0.43959270739E+03  0.43959270742E+03  0.50400000000E-02 0.  1.
          2   -1    0    0  501    0  0.00000000000E+00 -0.00000000000E+00 -0.38273744170E+01  0.38273752665E+01  0.25500000000E-02 0. -1.
         24    2    1    2    0    0 -0.71054273576E-14 -0.35527136788E-14  0.43576533297E+03  0.44342008268E+03  0.82036237771E+02 0.  0.
         66    2    3    3    0    0 -0.36627049946E+02 -0.18347766942E+02  0.20981495532E+03  0.21378610074E+03  0.20000133009E+01 0.  0.
        -13    1    3    3    0    0  0.36627049946E+02  0.18347766942E+02  0.22595037765E+03  0.22963398195E+03  0.10566000000E+00 0.  1.
         13    1    4    4    0    0 -0.20572280056E+02 -0.10553234708E+02  0.11785858984E+03  0.12010515323E+03  0.10566000000E+00 0. -1.
        -13    1    4    4    0    0 -0.68043911355E+00 -0.62038620119E+00  0.47627508315E+01  0.48520960362E+01  0.10566000000E+00 0.  1.
         14    1    4    4    0    0 -0.15374330777E+02 -0.71741460322E+01  0.87193614650E+02  0.88828851472E+02  0.00000000000E+00 0. -1.
<mgrwt>
<rscale>  0 0.82036238E+02</rscale>
<asrwt>0</asrwt>
<pdfrwt beam="1">  1        2 0.58882677E-03 0.82036238E+02</pdfrwt>
<pdfrwt beam="2">  1       -1 0.67629663E-01 0.82036238E+02</pdfrwt>
<totfact> 0.67541409E+04</totfact>
</mgrwt>
</event>
<event>
 8    1  0.1520917E-017  0.7819784E+02  0.7818608E-02  0.1334245E+00
          2   -1    0    0  501    0  0.00000000000E+00  0.00000000000E+00  0.45901501889E+01  0.45901508973E+01  0.25500000000E-02 0. -1.
         -1   -1    0    0    0  501 -0.00000000000E+00 -0.00000000000E+00 -0.33304472024E+03  0.33304472028E+03  0.50400000000E-02 0.  1.
         24    2    1    2    0    0  0.00000000000E+00  0.35527136788E-14 -0.32845457005E+03  0.33763487117E+03  0.78197836582E+02 0.  0.
         66    2    3    3    0    0 -0.32072612884E+02 -0.21983422222E+02 -0.14772549243E+03  0.15277023418E+03  0.19999969430E+01 0.  0.
        -13    1    3    3    0    0  0.32072612884E+02  0.21983422222E+02 -0.18072907762E+03  0.18486463700E+03  0.10566000000E+00 0.  1.
         13    1    4    4    0    0 -0.21076773582E+02 -0.14457650413E+02 -0.97210142652E+02  0.10051406388E+03  0.10566000000E+00 0. -1.
        -13    1    4    4    0    0 -0.62232237040E+01 -0.35604943597E+01 -0.26974177184E+02  0.27910984077E+02  0.10566000000E+00 0.  1.
        -14    1    4    4    0    0 -0.47726155979E+01 -0.39652774493E+01 -0.23541172589E+02  0.24345186214E+02  0.00000000000E+00 0.  1.
<mgrwt>
<rscale>  0 0.78197837E+02</rscale>
<asrwt>0</asrwt>
<pdfrwt beam="1">  1        2 0.70617727E-03 0.78197837E+02</pdfrwt>
<pdfrwt beam="2">  1       -1 0.51237631E-01 0.78197837E+02</pdfrwt>
<totfact> 0.87678985E+04</totfact>
</mgrwt>
</event>
<event>
 8    1  0.1520917E-017  0.8182406E+02  0.7818608E-02  0.1323953E+00
          2   -1    0    0  501    0  0.00000000000E+00  0.00000000000E+00  0.77584138347E+03  0.77584138348E+03  0.25500000000E-02 0. -1.
         -1   -1    0    0    0  501 -0.00000000000E+00 -0.00000000000E+00 -0.21573895510E+01  0.21573954381E+01  0.50400000000E-02 0.  1.
         24    2    1    2    0    0 -0.17763568394E-14  0.35527136788E-14  0.77368399392E+03  0.77799877892E+03  0.81824064568E+02 0.  0.
         66    2    3    3    0    0 -0.13422351094E+02  0.20072828243E+02  0.70080117772E+03  0.70121991461E+03  0.20000019904E+01 0.  0.
        -13    1    3    3    0    0  0.13422351094E+02 -0.20072828243E+02  0.72882816198E+02  0.76778864302E+02  0.10566000000E+00 0.  1.
         13    1    4    4    0    0 -0.87415089197E+01  0.14010716400E+02  0.49929523017E+03  0.49956826579E+03  0.10566000000E+00 0. -1.
        -13    1    4    4    0    0 -0.41015544720E+01  0.51691614828E+01  0.17412083631E+03  0.17424586016E+03  0.10566000000E+00 0.  1.
         14    1    4    4    0    0 -0.57928770219E+00  0.89295036008E+00  0.27385111241E+02  0.27405788664E+02  0.00000000000E+00 0. -1.
<mgrwt>
<rscale>  0 0.81824065E+02</rscale>
<asrwt>0</asrwt>
<pdfrwt beam="1">  1        2 0.11936028E+00 0.81824065E+02</pdfrwt>
<pdfrwt beam="2">  1       -1 0.33190634E-03 0.81824065E+02</pdfrwt>
<totfact> 0.32230387E+05</totfact>
</mgrwt>
</event>
<event>
 8    1  0.1520917E-017  0.7847200E+02  0.7818608E-02  0.1333444E+00
          2   -1    0    0  501    0  0.00000000000E+00  0.00000000000E+00  0.99853335758E+02  0.99853335791E+02  0.25500000000E-02 0. -1.
         -1   -1    0    0    0  501 -0.00000000000E+00 -0.00000000000E+00 -0.15417249130E+02  0.15417249954E+02  0.50400000000E-02 0.  1.
         24    2    1    2    0    0  0.00000000000E+00  0.00000000000E+00  0.84436086628E+02  0.11527058574E+03  0.78472002733E+02 0.  0.
         66    2    3    3    0    0  0.17694615256E+02  0.32414778244E+02  0.22888720029E+02  0.43493801497E+02  0.20000015976E+01 0.  0.
        -13    1    3    3    0    0 -0.17694615256E+02 -0.32414778244E+02  0.61547366599E+02  0.71776784248E+02  0.10566000000E+00 0.  1.
         13    1    4    4    0    0  0.30584491856E+01  0.52403127600E+01  0.40006758842E+01  0.72685322321E+01  0.10566000000E+00 0. -1.
        -13    1    4    4    0    0  0.31801647608E+01  0.50368800009E+01  0.42566745850E+01  0.73221616076E+01  0.10566000000E+00 0.  1.
         14    1    4    4    0    0  0.11456001310E+02  0.22137585484E+02  0.14631369560E+02  0.28903107657E+02  0.00000000000E+00 0. -1.
<mgrwt>
<rscale>  0 0.78472003E+02</rscale>
<asrwt>0</asrwt>
<pdfrwt beam="1">  1        2 0.15362052E-01 0.78472003E+02</pdfrwt>
<pdfrwt beam="2">  1       -1 0.23718845E-02 0.78472003E+02</pdfrwt>
<totfact> 0.18656932E+05</totfact>
</mgrwt>
</event>
<event>
 8    1  0.1520917E-017  0.7980117E+02  0.7818608E-02  0.1329617E+00
          2   -1    0    0  501    0  0.00000000000E+00  0.00000000000E+00  0.53027294398E+02  0.53027294459E+02  0.25500000000E-02 0. -1.
         -1   -1    0    0    0  501 -0.00000000000E+00 -0.00000000000E+00 -0.30023343033E+02  0.30023343456E+02  0.50400000000E-02 0.  1.
         24    2    1    2    0    0  0.00000000000E+00  0.22204460493E-15  0.23003951365E+02  0.83050637915E+02  0.79801169664E+02 0.  0.
         66    2    3    3    0    0 -0.27144166264E+02  0.17331023917E+01  0.41855432892E+02  0.49956848076E+02  0.20000002713E+01 0.  0.
        -13    1    3    3    0    0  0.27144166264E+02 -0.17331023917E+01 -0.18851481527E+02  0.33093789839E+02  0.10566000000E+00 0.  1.
         13    1    4    4    0    0 -0.73137358458E+01  0.95180714805E-01  0.11057180105E+02  0.13257910367E+02  0.10566000000E+00 0. -1.
        -13    1    4    4    0    0 -0.13573550900E+02  0.17432251653E+01  0.21758355746E+02  0.25704422320E+02  0.10566000000E+00 0.  1.
        -14    1    4    4    0    0 -0.62568795183E+01 -0.10530348844E+00  0.90398970408E+01  0.10994515389E+02  0.00000000000E+00 0.  1.
<mgrwt>
<rscale>  0 0.79801170E+02</rscale>
<asrwt>0</asrwt>
<pdfrwt beam="1">  1        2 0.81580452E-02 0.79801170E+02</pdfrwt>
<pdfrwt beam="2">  1       -1 0.46189760E-02 0.79801170E+02</pdfrwt>
<totfact> 0.15240474E+05</totfact>
</mgrwt>
</event>
<event>
 8    1  0.1520917E-017  0.8045322E+02  0.7818608E-02  0.1327770E+00
          2   -1    0    0  501    0  0.00000000000E+00  0.00000000000E+00  0.62895321874E+02  0.62895321925E+02  0.25500000000E-02 0. -1.
         -1   -1    0    0    0  501 -0.00000000000E+00 -0.00000000000E+00 -0.25728147583E+02  0.25728148077E+02  0.50400000000E-02 0.  1.
         24    2    1    2    0    0  0.00000000000E+00  0.00000000000E+00  0.37167174290E+02  0.88623470002E+02  0.80453219889E+02 0.  0.
         66    2    3    3    0    0 -0.10414977516E+02  0.16790173137E+02  0.57161872552E+02  0.60513315374E+02  0.19999983021E+01 0.  0.
        -13    1    3    3    0    0  0.10414977516E+02 -0.16790173137E+02 -0.19994698262E+02  0.28110154629E+02  0.10566000000E+00 0.  1.
         13    1    4    4    0    0 -0.36930424967E+01  0.66271360119E+01  0.19570136485E+02  0.20989495008E+02  0.10566000000E+00 0. -1.
        -13    1    4    4    0    0 -0.33667153859E+01  0.49869527324E+01  0.19693617547E+02  0.20592576482E+02  0.10566000000E+00 0.  1.
        -14    1    4    4    0    0 -0.33552196330E+01  0.51760843932E+01  0.17898118520E+02  0.18931243883E+02  0.00000000000E+00 0.  1.
<mgrwt>
<rscale>  0 0.80453220E+02</rscale>
<asrwt>0</asrwt>
<pdfrwt beam="1">  1        2 0.96762034E-02 0.80453220E+02</pdfrwt>
<pdfrwt beam="2">  1       -1 0.39581766E-02 0.80453220E+02</pdfrwt>
<totfact> 0.15498222E+05</totfact>
</mgrwt>
</event>
<event>
 8    1  0.1520917E-017  0.7926271E+02  0.7818608E-02  0.1331157E+00
          2   -1    0    0  501    0  0.00000000000E+00  0.00000000000E+00  0.14919644852E+03  0.14919644854E+03  0.25500000000E-02 0. -1.
         -1   -1    0    0    0  501 -0.00000000000E+00 -0.00000000000E+00 -0.10527356458E+02  0.10527357664E+02  0.50400000000E-02 0.  1.
         24    2    1    2    0    0  0.44408920985E-15  0.00000000000E+00  0.13866909206E+03  0.15972380620E+03  0.79262709868E+02 0.  0.
         66    2    3    3    0    0  0.26207127177E+01 -0.31173873460E+02  0.11832401640E+03  0.12240609205E+03  0.19999984714E+01 0.  0.
        -13    1    3    3    0    0 -0.26207127177E+01  0.31173873460E+02  0.20345075664E+02  0.37317714151E+02  0.10566000000E+00 0.  1.
         13    1    4    4    0    0  0.51627313249E+00 -0.40399841931E+01  0.14582763942E+02  0.15141207959E+02  0.10566000000E+00 0. -1.
        -13    1    4    4    0    0 -0.22890456658E+00 -0.11237408542E+01  0.41946680537E+01  0.43498959671E+01  0.10566000000E+00 0.  1.
         14    1    4    4    0    0  0.23333441518E+01 -0.26010148413E+02  0.99546584401E+02  0.10291498813E+03  0.00000000000E+00 0. -1.
<mgrwt>
<rscale>  0 0.79262710E+02</rscale>
<asrwt>0</asrwt>
<pdfrwt beam="1">  1        2 0.22953298E-01 0.79262710E+02</pdfrwt>
<pdfrwt beam="2">  1       -1 0.16195935E-02 0.79262710E+02</pdfrwt>
<totfact> 0.20492539E+05</totfact>
</mgrwt>
</event>
<event>
 8    1  0.1520917E-017  0.8639629E+02  0.7818608E-02  0.1311821E+00
         -1   -1    0    0    0  501 -0.00000000000E+00  0.00000000000E+00  0.69408943114E+01  0.69408961413E+01  0.50400000000E-02 0.  1.
          2   -1    0    0  501    0  0.00000000000E+00 -0.00000000000E+00 -0.26885289542E+03  0.26885289543E+03  0.25500000000E-02 0. -1.
         24    2    1    2    0    0 -0.44408920985E-15 -0.35527136788E-14 -0.26191200111E+03  0.27579379158E+03  0.86396291273E+02 0.  0.
         66    2    3    3    0    0 -0.13739874286E+01 -0.22942238155E+02 -0.24769799868E+03  0.24877003976E+03  0.20000000323E+01 0.  0.
        -13    1    3    3    0    0  0.13739874286E+01  0.22942238155E+02 -0.14214002433E+02  0.27023751816E+02  0.10566000000E+00 0.  1.
         13    1    4    4    0    0 -0.55089814718E-01 -0.97470818003E+01 -0.10619779265E+03  0.10664422613E+03  0.10566000000E+00 0. -1.
        -13    1    4    4    0    0 -0.50595543825E-01 -0.28642367726E+00 -0.19890743527E+01  0.20130025455E+01  0.10566000000E+00 0.  1.
        -14    1    4    4    0    0 -0.12683020701E+01 -0.12908732677E+02 -0.13951113168E+03  0.14011281109E+03  0.00000000000E+00 0.  1.
<mgrwt>
<rscale>  0 0.86396291E+02</rscale>
<asrwt>0</asrwt>
<pdfrwt beam="1">  1        2 0.41361976E-01 0.86396291E+02</pdfrwt>
<pdfrwt beam="2">  1       -1 0.10678302E-02 0.86396291E+02</pdfrwt>
<totfact> 0.20005111E+05</totfact>
</mgrwt>
</event>
<event>
 8    1  0.1520917E-017  0.7421099E+02  0.7818608E-02  0.1346332E+00
         -1   -1    0    0    0  501 -0.00000000000E+00  0.00000000000E+00  0.32028364667E+01  0.32028404322E+01  0.50400000000E-02 0.  1.
          2   -1    0    0  501    0  0.00000000000E+00 -0.00000000000E+00 -0.42987427214E+03  0.42987427215E+03  0.25500000000E-02 0. -1.
         24    2    1    2    0    0  0.00000000000E+00  0.00000000000E+00 -0.42667143567E+03  0.43307711258E+03  0.74210992588E+02 0.  0.
         66    2    3    3    0    0 -0.34346167217E+01  0.28728085771E+02 -0.34881349603E+03  0.35001707746E+03  0.19999997337E+01 0.  0.
        -13    1    3    3    0    0  0.34346167217E+01 -0.28728085771E+02 -0.77857939646E+02  0.83060035120E+02  0.10566000000E+00 0.  1.
         13    1    4    4    0    0 -0.22241414222E+01  0.22624213125E+02 -0.27378081569E+03  0.27472303877E+03  0.10566000000E+00 0. -1.
        -13    1    4    4    0    0  0.80674486040E-01  0.65395687169E+00 -0.79746914958E+01  0.80025643672E+01  0.10566000000E+00 0.  1.
         14    1    4    4    0    0 -0.12911497856E+01  0.54499157749E+01 -0.67057988841E+02  0.67291474327E+02  0.00000000000E+00 0. -1.
<mgrwt>
<rscale>  0 0.74210993E+02</rscale>
<asrwt>0</asrwt>
<pdfrwt beam="1">  1        2 0.66134458E-01 0.74210993E+02</pdfrwt>
<pdfrwt beam="2">  1       -1 0.49274472E-03 0.74210993E+02</pdfrwt>
<totfact> 0.35213049E+05</totfact>
</mgrwt>
</event>
<event>
 8    1  0.1520917E-017  0.8069078E+02  0.7818608E-02  0.1327102E+00
         -1   -1    0    0    0  501 -0.00000000000E+00  0.00000000000E+00  0.87941061548E+02  0.87941061692E+02  0.50400000000E-02 0.  1.
          2   -1    0    0  501    0  0.00000000000E+00 -0.00000000000E+00 -0.18509562781E+02  0.18509562957E+02  0.25500000000E-02 0. -1.
         24    2    1    2    0    0  0.00000000000E+00  0.35527136788E-14  0.69431498766E+02  0.10645062465E+03  0.80690783038E+02 0.  0.
         66    2    3    3    0    0 -0.31302331841E+02  0.24758914858E+02  0.27169376829E+02  0.48321991789E+02  0.20000023901E+01 0.  0.
        -13    1    3    3    0    0  0.31302331841E+02 -0.24758914858E+02  0.42262121937E+02  0.58128632861E+02  0.10566000000E+00 0.  1.
         13    1    4    4    0    0 -0.47692607077E+01  0.44597419610E+01  0.42867171135E+01  0.78116741934E+01  0.10566000000E+00 0. -1.
        -13    1    4    4    0    0 -0.76552250008E+01  0.54772557064E+01  0.59273154772E+01  0.11124164359E+02  0.10566000000E+00 0.  1.
        -14    1    4    4    0    0 -0.18877846132E+02  0.14821917190E+02  0.16955344238E+02  0.29386153236E+02  0.00000000000E+00 0.  1.
<mgrwt>
<rscale>  0 0.80690783E+02</rscale>
<asrwt>0</asrwt>
<pdfrwt beam="1">  1        2 0.28476251E-02 0.80690783E+02</pdfrwt>
<pdfrwt beam="2">  1       -1 0.13529394E-01 0.80690783E+02</pdfrwt>
<totfact> 0.11921052E+05</totfact>
</mgrwt>
</event>
<event>
 8    1  0.1520917E-017  0.8439093E+02  0.7818608E-02  0.1317033E+00
         -1   -1    0    0    0  501 -0.00000000000E+00  0.00000000000E+00  0.22192910538E+01  0.22192967767E+01  0.50400000000E-02 0.  1.
          2   -1    0    0  501    0  0.00000000000E+00 -0.00000000000E+00 -0.80226298503E+03  0.80226298504E+03  0.25500000000E-02 0. -1.
         24    2    1    2    0    0  0.35527136788E-14  0.71054273576E-14 -0.80004369398E+03  0.80448228181E+03  0.84390932430E+02 0.  0.
         66    2    3    3    0    0  0.21487137638E+02 -0.31136119048E+02 -0.57789843899E+03  0.57913880959E+03  0.19999997426E+01 0.  0.
        -13    1    3    3    0    0 -0.21487137638E+02  0.31136119048E+02 -0.22214525499E+03  0.22534347222E+03  0.10566000000E+00 0.  1.
         13    1    4    4    0    0  0.10103074991E+02 -0.15868992124E+02 -0.28871090163E+03  0.28932316347E+03  0.10566000000E+00 0. -1.
        -13    1    4    4    0    0  0.95601667959E+01 -0.13387299230E+02 -0.24888402206E+03  0.24942711194E+03  0.10566000000E+00 0.  1.
        -14    1    4    4    0    0  0.18238958511E+01 -0.18798276947E+01 -0.40303515293E+02  0.40388534180E+02  0.00000000000E+00 0.  1.
<mgrwt>
<rscale>  0 0.84390932E+02</rscale>
<asrwt>0</asrwt>
<pdfrwt beam="1">  1        2 0.12342484E+00 0.84390932E+02</pdfrwt>
<pdfrwt beam="2">  1       -1 0.34143048E-03 0.84390932E+02</pdfrwt>
<totfact> 0.29915186E+05</totfact>
</mgrwt>
</event>
<event>
 8    1  0.1520917E-017  0.8177950E+02  0.7818608E-02  0.1324076E+00
         -1   -1    0    0    0  501 -0.00000000000E+00  0.00000000000E+00  0.32785333778E+01  0.32785372517E+01  0.50400000000E-02 0.  1.
          2   -1    0    0  501    0  0.00000000000E+00 -0.00000000000E+00 -0.50997521584E+03  0.50997521585E+03  0.25500000000E-02 0. -1.
         24    2    1    2    0    0  0.00000000000E+00  0.17763568394E-14 -0.50669668247E+03  0.51325375310E+03  0.81779502634E+02 0.  0.
         66    2    3    3    0    0  0.39436136555E+02 -0.93878447012E+01 -0.28588437233E+03  0.28875112959E+03  0.19999998276E+01 0.  0.
        -13    1    3    3    0    0 -0.39436136555E+02  0.93878447012E+01 -0.22081231013E+03  0.22450262351E+03  0.10566000000E+00 0.  1.
         13    1    4    4    0    0  0.27362433208E+02 -0.63919942051E+01 -0.19617655233E+03  0.19817873546E+03  0.10566000000E+00 0. -1.
        -13    1    4    4    0    0  0.27780914308E+00 -0.11672869549E+00 -0.15713084239E+01  0.16034268636E+01  0.10566000000E+00 0.  1.
        -14    1    4    4    0    0  0.11795894204E+02 -0.28791218005E+01 -0.88136511583E+02  0.88968967266E+02  0.00000000000E+00 0.  1.
<mgrwt>
<rscale>  0 0.81779503E+02</rscale>
<asrwt>0</asrwt>
<pdfrwt beam="1">  1        2 0.78457662E-01 0.81779503E+02</pdfrwt>
<pdfrwt beam="2">  1       -1 0.50439046E-03 0.81779503E+02</pdfrwt>
<totfact> 0.28933491E+05</totfact>
</mgrwt>
</event>
<event>
 8    1  0.1520917E-017  0.8040066E+02  0.7818608E-02  0.1327918E+00
         -1   -1    0    0    0  501 -0.00000000000E+00  0.00000000000E+00  0.84274686188E+02  0.84274686338E+02  0.50400000000E-02 0.  1.
          2   -1    0    0  501    0  0.00000000000E+00 -0.00000000000E+00 -0.19176180270E+02  0.19176180440E+02  0.25500000000E-02 0. -1.
         24    2    1    2    0    0 -0.35527136788E-14  0.00000000000E+00  0.65098505917E+02  0.10345086678E+03  0.80400661468E+02 0.  0.
         66    2    3    3    0    0 -0.20765131205E+02  0.30717059140E+02  0.12663704522E+02  0.39231337369E+02  0.20000058387E+01 0.  0.
        -13    1    3    3    0    0  0.20765131205E+02 -0.30717059140E+02  0.52434801395E+02  0.64219529409E+02  0.10566000000E+00 0.  1.
         13    1    4    4    0    0 -0.72349928667E+01  0.10723318375E+02  0.50570222110E+01  0.13889539821E+02  0.10566000000E+00 0. -1.
        -13    1    4    4    0    0 -0.10996911920E+01  0.16917218086E+01  0.98583501951E+00  0.22481721724E+01  0.10566000000E+00 0. -1.
        -14    1    4    4    0    0 -0.12430447146E+02  0.18302018956E+02  0.66208472918E+01  0.23093625376E+02  0.00000000000E+00 0.  1.
<mgrwt>
<rscale>  0 0.80400661E+02</rscale>
<asrwt>0</asrwt>
<pdfrwt beam="1">  1        2 0.29501816E-02 0.80400661E+02</pdfrwt>
<pdfrwt beam="2">  1       -1 0.12965337E-01 0.80400661E+02</pdfrwt>
<totfact> 0.12134101E+05</totfact>
</mgrwt>
</event>
<event>
 8    1  0.1520917E-017  0.8109340E+02  0.7818608E-02  0.1325977E+00
         -1   -1    0    0    0  501 -0.00000000000E+00  0.00000000000E+00  0.69921446367E+01  0.69921464532E+01  0.50400000000E-02 0.  1.
          2   -1    0    0  501    0  0.00000000000E+00 -0.00000000000E+00 -0.23512595178E+03  0.23512595179E+03  0.25500000000E-02 0. -1.
         24    2    1    2    0    0  0.00000000000E+00  0.00000000000E+00 -0.22813380714E+03  0.24211809825E+03  0.81093400083E+02 0.  0.
         66    2    3    3    0    0  0.33768770983E+01 -0.32708183211E+02 -0.18484046473E+03  0.18775309839E+03  0.20000015600E+01 0.  0.
        -13    1    3    3    0    0 -0.33768770983E+01  0.32708183211E+02 -0.43293342411E+02  0.54364999853E+02  0.10566000000E+00 0.  1.
         13    1    4    4    0    0  0.17316504725E+01 -0.14013832683E+02 -0.79415638120E+02  0.80661272380E+02  0.10566000000E+00 0. -1.
        -13    1    4    4    0    0  0.35190600351E+00 -0.12381755075E+01 -0.59322442457E+01  0.60712109377E+01  0.10566000000E+00 0.  1.
         14    1    4    4    0    0  0.12933206224E+01 -0.17456175020E+02 -0.99492582367E+02  0.10102061508E+03  0.00000000000E+00 0. -1.
<mgrwt>
<rscale>  0 0.81093400E+02</rscale>
<asrwt>0</asrwt>
<pdfrwt beam="1">  1        2 0.36173217E-01 0.81093400E+02</pdfrwt>
<pdfrwt beam="2">  1       -1 0.10757149E-02 0.81093400E+02</pdfrwt>
<totfact> 0.22531182E+05</totfact>
</mgrwt>
</event>
<event>
 8    1  0.1520917E-017  0.7921599E+02  0.7818608E-02  0.1331291E+00
         -1   -1    0    0    0  501 -0.00000000000E+00  0.00000000000E+00  0.28792726064E+02  0.28792726505E+02  0.50400000000E-02 0.  1.
          2   -1    0    0  501    0  0.00000000000E+00 -0.00000000000E+00 -0.54485746951E+02  0.54485747011E+02  0.25500000000E-02 0. -1.
         24    2    1    2    0    0  0.00000000000E+00  0.00000000000E+00 -0.25693020887E+02  0.83278473516E+02  0.79215988468E+02 0.  0.
         66    2    3    3    0    0 -0.12514601923E+01 -0.14512005204E+02 -0.51547396671E+02  0.53603157868E+02  0.19999955461E+01 0.  0.
        -13    1    3    3    0    0  0.12514601923E+01  0.14512005204E+02  0.25854375784E+02  0.29675315649E+02  0.10566000000E+00 0.  1.
         13    1    4    4    0    0  0.24371814650E+00 -0.42026097724E+01 -0.15500567514E+02  0.16062381041E+02  0.10566000000E+00 0. -1.
        -13    1    4    4    0    0 -0.14492727625E+01 -0.76620668946E+01 -0.28247851248E+02  0.29304605863E+02  0.10566000000E+00 0.  1.
        -14    1    4    4    0    0 -0.45905576234E-01 -0.26473285368E+01 -0.77989779091E+01  0.82361709629E+01  0.00000000000E+00 0.  1.
<mgrwt>
<rscale>  0 0.79215988E+02</rscale>
<asrwt>0</asrwt>
<pdfrwt beam="1">  1        2 0.83824226E-02 0.79215988E+02</pdfrwt>
<pdfrwt beam="2">  1       -1 0.44296502E-02 0.79215988E+02</pdfrwt>
<totfact> 0.15643690E+05</totfact>
</mgrwt>
</event>
<event>
 8    1  0.1520917E-017  0.8152251E+02  0.7818608E-02  0.1324785E+00
          2   -1    0    0  501    0  0.00000000000E+00  0.00000000000E+00  0.51609446450E+02  0.51609446513E+02  0.25500000000E-02 0. -1.
         -1   -1    0    0    0  501 -0.00000000000E+00 -0.00000000000E+00 -0.32193326332E+02  0.32193326726E+02  0.50400000000E-02 0.  1.
         24    2    1    2    0    0 -0.71054273576E-14  0.35527136788E-14  0.19416120118E+02  0.83802773239E+02  0.81522506599E+02 0.  0.
         66    2    3    3    0    0 -0.37071439142E+02  0.15873054281E+02  0.15639614689E+02  0.43299457208E+02  0.19999986410E+01 0.  0.
        -13    1    3    3    0    0  0.37071439142E+02 -0.15873054281E+02  0.37765054283E+01  0.40503316032E+02  0.10566000000E+00 0.  1.
         13    1    4    4    0    0 -0.31010578584E+00  0.16656515259E+00  0.42156581850E-01  0.36993345545E+00  0.10566000000E+00 0. -1.
        -13    1    4    4    0    0 -0.71696499306E+01  0.34487363898E+01  0.27397972599E+01  0.84151836507E+01  0.10566000000E+00 0.  1.
         14    1    4    4    0    0 -0.29591683425E+02  0.12257752739E+02  0.12857660848E+02  0.34514340101E+02  0.00000000000E+00 0. -1.
<mgrwt>
<rscale>  0 0.81522507E+02</rscale>
<asrwt>0</asrwt>
<pdfrwt beam="1">  1        2 0.79399148E-02 0.81522507E+02</pdfrwt>
<pdfrwt beam="2">  1       -1 0.49528195E-02 0.81522507E+02</pdfrwt>
<totfact> 0.14289473E+05</totfact>
</mgrwt>
</event>
<event>
 8    1  0.1520917E-017  0.8059096E+02  0.7818608E-02  0.1327383E+00
         -1   -1    0    0    0  501 -0.00000000000E+00  0.00000000000E+00  0.43816593658E+01  0.43816622644E+01  0.50400000000E-02 0.  1.
          2   -1    0    0  501    0  0.00000000000E+00 -0.00000000000E+00 -0.37057315740E+03  0.37057315741E+03  0.25500000000E-02 0. -1.
         24    2    1    2    0    0 -0.71054273576E-14  0.00000000000E+00 -0.36619149803E+03  0.37495481967E+03  0.80590964528E+02 0.  0.
         66    2    3    3    0    0 -0.40061752992E+02 -0.40762382797E+01 -0.18134049925E+03  0.18576850229E+03  0.20000004392E+01 0.  0.
        -13    1    3    3    0    0  0.40061752992E+02  0.40762382797E+01 -0.18485099878E+03  0.18918631739E+03  0.10566000000E+00 0.  1.
         13    1    4    4    0    0 -0.77989319976E+01 -0.13623428190E+01 -0.34530600267E+02  0.35426724899E+02  0.10566000000E+00 0. -1.
        -13    1    4    4    0    0 -0.42509684915E+01 -0.68748325873E+00 -0.18784461308E+02  0.19272013829E+02  0.10566000000E+00 0.  1.
         14    1    4    4    0    0 -0.28011852503E+02 -0.20264122019E+01 -0.12802543768E+03  0.13106976356E+03  0.00000000000E+00 0. -1.
<mgrwt>
<rscale>  0 0.80590965E+02</rscale>
<asrwt>0</asrwt>
<pdfrwt beam="1">  1        2 0.57011231E-01 0.80590965E+02</pdfrwt>
<pdfrwt beam="2">  1       -1 0.67410195E-03 0.80590965E+02</pdfrwt>
<totfact> 0.26977878E+05</totfact>
</mgrwt>
</event>
<event>
 8    1  0.1520917E-017  0.8016588E+02  0.7818608E-02  0.1328581E+00
         -1   -1    0    0    0  501 -0.00000000000E+00  0.00000000000E+00  0.96343446324E+01  0.96343459506E+01  0.50400000000E-02 0.  1.
          2   -1    0    0  501    0  0.00000000000E+00 -0.00000000000E+00 -0.16676192309E+03  0.16676192311E+03  0.25500000000E-02 0. -1.
         24    2    1    2    0    0  0.00000000000E+00  0.00000000000E+00 -0.15712757845E+03  0.17639626906E+03  0.80165876944E+02 0.  0.
         66    2    3    3    0    0 -0.10941460347E+02  0.35661115582E+02 -0.46483356787E+02  0.59633322574E+02  0.19999959729E+01 0.  0.
        -13    1    3    3    0    0  0.10941460347E+02 -0.35661115582E+02 -0.11064422167E+03  0.11676294648E+03  0.10566000000E+00 0.  1.
         13    1    4    4    0    0 -0.41442691756E+01  0.13344568858E+02 -0.16984781297E+02  0.21994236626E+02  0.10566000000E+00 0. -1.
        -13    1    4    4    0    0 -0.90630927659E+00  0.48259336624E+01 -0.57450018010E+01  0.75582565415E+01  0.10566000000E+00 0.  1.
        -14    1    4    4    0    0 -0.58908818946E+01  0.17490613062E+02 -0.23753573689E+02  0.30080829407E+02  0.00000000000E+00 0.  1.
<mgrwt>
<rscale>  0 0.80165877E+02</rscale>
<asrwt>0</asrwt>
<pdfrwt beam="1">  1        2 0.25655678E-01 0.80165877E+02</pdfrwt>
<pdfrwt beam="2">  1       -1 0.14822071E-02 0.80165877E+02</pdfrwt>
<totfact> 0.20622798E+05</totfact>
</mgrwt>
</event>
<event>
 8    1  0.1520917E-017  0.7363001E+02  0.7818608E-02  0.1348167E+00
         -1   -1    0    0    0  501 -0.00000000000E+00  0.00000000000E+00  0.10644147815E+02  0.10644149009E+02  0.50400000000E-02 0.  1.
          2   -1    0    0  501    0  0.00000000000E+00 -0.00000000000E+00 -0.12733235557E+03  0.12733235560E+03  0.25500000000E-02 0. -1.
         24    2    1    2    0    0 -0.71054273576E-14 -0.71054273576E-14 -0.11668820776E+03  0.13797650461E+03  0.73630007429E+02 0.  0.
         66    2    3    3    0    0 -0.24166030636E+02 -0.21189493589E+02 -0.91926894130E+02  0.97404032513E+02  0.20000025453E+01 0.  0.
        -13    1    3    3    0    0  0.24166030636E+02  0.21189493589E+02 -0.24761313628E+02  0.40572472095E+02  0.10566000000E+00 0.  1.
         13    1    4    4    0    0 -0.15396093676E+02 -0.13892912003E+02 -0.58442333313E+02  0.62012661542E+02  0.10566000000E+00 0. -1.
        -13    1    4    4    0    0 -0.56450718727E+01 -0.42674052943E+01 -0.19456887155E+02  0.20704086703E+02  0.10566000000E+00 0.  1.
        -14    1    4    4    0    0 -0.31248650870E+01 -0.30291762920E+01 -0.14027673662E+02  0.14687284268E+02  0.00000000000E+00 0.  1.
<mgrwt>
<rscale>  0 0.73630007E+02</rscale>
<asrwt>0</asrwt>
<pdfrwt beam="1">  1        2 0.19589592E-01 0.73630007E+02</pdfrwt>
<pdfrwt beam="2">  1       -1 0.16375614E-02 0.73630007E+02</pdfrwt>
<totfact> 0.23702046E+05</totfact>
</mgrwt>
</event>
<event>
 8    1  0.1520917E-017  0.7802967E+02  0.7818608E-02  0.1334738E+00
          2   -1    0    0  501    0  0.00000000000E+00  0.00000000000E+00  0.18240524521E+02  0.18240524699E+02  0.25500000000E-02 0. -1.
         -1   -1    0    0    0  501 -0.00000000000E+00 -0.00000000000E+00 -0.83449217112E+02  0.83449217264E+02  0.50400000000E-02 0.  1.
         24    2    1    2    0    0  0.17763568394E-14  0.00000000000E+00 -0.65208692591E+02  0.10168974196E+03  0.78029674042E+02 0.  0.
         66    2    3    3    0    0 -0.13593798557E+02 -0.29508021003E+02 -0.45342223769E+01  0.32864476526E+02  0.19999955137E+01 0.  0.
        -13    1    3    3    0    0  0.13593798557E+02  0.29508021003E+02 -0.60674470214E+02  0.68825265437E+02  0.10566000000E+00 0.  1.
         13    1    4    4    0    0 -0.11232409561E+02 -0.25278296885E+02 -0.43712303492E+01  0.28004966288E+02  0.10566000000E+00 0. -1.
        -13    1    4    4    0    0 -0.12623587901E+01 -0.19714792396E+01 -0.10547863392E-01  0.23434067936E+01  0.10566000000E+00 0.  1.
         14    1    4    4    0    0 -0.10990302054E+01 -0.22582448781E+01 -0.15244416429E+00  0.25161034448E+01  0.00000000000E+00 0. -1.
<mgrwt>
<rscale>  0 0.78029674E+02</rscale>
<asrwt>0</asrwt>
<pdfrwt beam="1">  1        2 0.28062346E-02 0.78029674E+02</pdfrwt>
<pdfrwt beam="2">  1       -1 0.12838341E-01 0.78029674E+02</pdfrwt>
<totfact> 0.13092760E+05</totfact>
</mgrwt>
</event>
<event>
 8    1  0.1520917E-017  0.8034165E+02  0.7818608E-02  0.1328085E+00
         -1   -1    0    0    0  501 -0.00000000000E+00  0.00000000000E+00  0.19208089141E+03  0.19208089148E+03  0.50400000000E-02 0.  1.
          2   -1    0    0  501    0  0.00000000000E+00 -0.00000000000E+00 -0.84011226192E+01  0.84011230062E+01  0.25500000000E-02 0. -1.
         24    2    1    2    0    0  0.00000000000E+00  0.35527136788E-14  0.18367976879E+03  0.20048201448E+03  0.80341649646E+02 0.  0.
         66    2    3    3    0    0  0.28348657421E+02 -0.24101253259E+02  0.54285764481E+02  0.65844217777E+02  0.20000007944E+01 0.  0.
        -13    1    3    3    0    0 -0.28348657421E+02  0.24101253259E+02  0.12939400431E+03  0.13463779671E+03  0.10566000000E+00 0.  1.
         13    1    4    4    0    0  0.59632449642E+01 -0.55907361518E+01  0.12620345767E+02  0.15036652305E+02  0.10566000000E+00 0. -1.
        -13    1    4    4    0    0  0.64110967764E+01 -0.46590379475E+01  0.11843449697E+02  0.14250868789E+02  0.10566000000E+00 0.  1.
         14    1    4    4    0    0  0.15974315680E+02 -0.13851479160E+02  0.29821969017E+02  0.36556696684E+02  0.00000000000E+00 0. -1.
<mgrwt>
<rscale>  0 0.80341650E+02</rscale>
<asrwt>0</asrwt>
<pdfrwt beam="1">  1        2 0.12924804E-02 0.80341650E+02</pdfrwt>
<pdfrwt beam="2">  1       -1 0.29550907E-01 0.80341650E+02</pdfrwt>
<totfact> 0.99726459E+04</totfact>
</mgrwt>
</event>
<event>
 8    1  0.1520917E-017  0.7866585E+02  0.7818608E-02  0.1332881E+00
          2   -1    0    0  501    0  0.00000000000E+00  0.00000000000E+00  0.33766857423E+02  0.33766857519E+02  0.25500000000E-02 0. -1.
         -1   -1    0    0    0  501 -0.00000000000E+00 -0.00000000000E+00 -0.45816497461E+02  0.45816497738E+02  0.50400000000E-02 0.  1.
         24    2    1    2    0    0  0.00000000000E+00  0.00000000000E+00 -0.12049640038E+02  0.79583355257E+02  0.78665854148E+02 0.  0.
         66    2    3    3    0    0  0.20840667540E+02 -0.11281447343E+02  0.25697381449E+02  0.35013710062E+02  0.20000003235E+01 0.  0.
        -13    1    3    3    0    0 -0.20840667540E+02  0.11281447343E+02 -0.37747021487E+02  0.44569645195E+02  0.10566000000E+00 0.  1.
         13    1    4    4    0    0  0.35700977687E+01 -0.18770230367E+01  0.41529594481E+01  0.57902547242E+01  0.10566000000E+00 0. -1.
        -13    1    4    4    0    0  0.13686666815E+02 -0.66345956704E+01  0.16867860707E+02  0.22712960993E+02  0.10566000000E+00 0.  1.
        -14    1    4    4    0    0  0.35839029562E+01 -0.27698286357E+01  0.46765612935E+01  0.65104943439E+01  0.00000000000E+00 0.  1.
<mgrwt>
<rscale>  0 0.78665854E+02</rscale>
<asrwt>0</asrwt>
<pdfrwt beam="1">  1        2 0.51949011E-02 0.78665854E+02</pdfrwt>
<pdfrwt beam="2">  1       -1 0.70486920E-02 0.78665854E+02</pdfrwt>
<totfact> 0.14434636E+05</totfact>
</mgrwt>
</event>
<event>
 8    1  0.1638998E-017  0.7935105E+02  0.7818608E-02  0.1330903E+00
          2   -1    0    0  501    0  0.00000000000E+00  0.00000000000E+00  0.53705708803E+03  0.53705708803E+03  0.25500000000E-02 0. -1.
         -1   -1    0    0    0  501 -0.00000000000E+00 -0.00000000000E+00 -0.29310594054E+01  0.29310637385E+01  0.50400000000E-02 0.  1.
         24    2    1    2    0    0  0.35527136788E-14 -0.17763568394E-14  0.53412602862E+03  0.53998815177E+03  0.79351052939E+02 0.  0.
         66    2    3    3    0    0 -0.30624707611E+02 -0.12900373192E+02  0.41442443253E+03  0.41575942878E+03  0.19999996241E+01 0.  0.
        -13    1    3    3    0    0  0.30624707611E+02  0.12900373192E+02  0.11970159609E+03  0.12422872299E+03  0.10566000000E+00 0.  1.
         13    1    4    4    0    0 -0.17281376531E+02 -0.73429305055E+01  0.23102383718E+03  0.23178565338E+03  0.10566000000E+00 0. -1.
        -13    1    4    4    0    0 -0.93802717228E+01 -0.39112544817E+01  0.12127333839E+03  0.12169848470E+03  0.10566000000E+00 0.  1.
        -14    1    4    4    0    0 -0.39630593571E+01 -0.16461882045E+01  0.62127256958E+02  0.62275290703E+02  0.00000000000E+00 0.  1.
<mgrwt>
<rscale>  0 0.79351053E+02</rscale>
<asrwt>0</asrwt>
<pdfrwt beam="1">  1        2 0.82624061E-01 0.79351053E+02</pdfrwt>
<pdfrwt beam="2">  1       -1 0.45093313E-03 0.79351053E+02</pdfrwt>
<totfact> 0.31805067E+05</totfact>
</mgrwt>
</event>
<event>
 8    1  0.1520917E-017  0.7808866E+02  0.7818608E-02  0.1334565E+00
         -1   -1    0    0    0  501 -0.00000000000E+00  0.00000000000E+00  0.50199658032E+01  0.50199683333E+01  0.50400000000E-02 0.  1.
          2   -1    0    0  501    0  0.00000000000E+00 -0.00000000000E+00 -0.30367924042E+03  0.30367924043E+03  0.25500000000E-02 0. -1.
         24    2    1    2    0    0 -0.35527136788E-14  0.00000000000E+00 -0.29865927461E+03  0.30869920876E+03  0.78088662281E+02 0.  0.
         66    2    3    3    0    0 -0.30551562558E+02  0.48093642134E+01 -0.24347058730E+03  0.24543523536E+03  0.19999793950E+01 0.  0.
        -13    1    3    3    0    0  0.30551562558E+02 -0.48093642134E+01 -0.55188687313E+02  0.63263973399E+02  0.10566000000E+00 0.  1.
         13    1    4    4    0    0 -0.23832241096E+02  0.44246534434E+01 -0.18946337423E+03  0.19100768207E+03  0.10566000000E+00 0. -1.
        -13    1    4    4    0    0 -0.32838816294E+01  0.27758096180E+00 -0.24523909121E+02  0.24744579454E+02  0.10566000000E+00 0.  1.
         14    1    4    4    0    0 -0.34354398334E+01  0.10712980820E+00 -0.29483303953E+02  0.29682973834E+02  0.00000000000E+00 0. -1.
<mgrwt>
<rscale>  0 0.78088662E+02</rscale>
<asrwt>0</asrwt>
<pdfrwt beam="1">  1        2 0.46719869E-01 0.78088662E+02</pdfrwt>
<pdfrwt beam="2">  1       -1 0.77230286E-03 0.78088662E+02</pdfrwt>
<totfact> 0.27280910E+05</totfact>
</mgrwt>
</event>
<event>
 8    1  0.1520917E-017  0.7265917E+02  0.7818608E-02  0.1351277E+00
          2   -1    0    0  501    0  0.00000000000E+00  0.00000000000E+00  0.23652005107E+03  0.23652005109E+03  0.25500000000E-02 0. -1.
         -1   -1    0    0    0  501 -0.00000000000E+00 -0.00000000000E+00 -0.55802392907E+01  0.55802415668E+01  0.50400000000E-02 0.  1.
         24    2    1    2    0    0 -0.35527136788E-14  0.00000000000E+00  0.23093981178E+03  0.24210029265E+03  0.72659170357E+02 0.  0.
         66    2    3    3    0    0  0.26931495135E+02  0.24185903350E+02  0.12472504140E+03  0.12988687116E+03  0.19999993445E+01 0.  0.
        -13    1    3    3    0    0 -0.26931495135E+02 -0.24185903350E+02  0.10621477038E+03  0.11221342149E+03  0.10566000000E+00 0.  1.
         13    1    4    4    0    0  0.14797112278E+02  0.13851955506E+02  0.67703923664E+02  0.70672934329E+02  0.10566000000E+00 0. -1.
        -13    1    4    4    0    0  0.49226922124E+01  0.41552514201E+01  0.21419840678E+02  0.22367828497E+02  0.10566000000E+00 0.  1.
         14    1    4    4    0    0  0.72116906451E+01  0.61786964241E+01  0.35601277059E+02  0.36846108338E+02  0.00000000000E+00 0. -1.
<mgrwt>
<rscale>  0 0.72659170E+02</rscale>
<asrwt>0</asrwt>
<pdfrwt beam="1">  1        2 0.36387695E-01 0.72659170E+02</pdfrwt>
<pdfrwt beam="2">  1       -1 0.85849865E-03 0.72659170E+02</pdfrwt>
<totfact> 0.30102503E+05</totfact>
</mgrwt>
</event>
<event>
 8    1  0.1520917E-017  0.7253579E+02  0.7818608E-02  0.1351676E+00
         -1   -1    0    0    0  501 -0.00000000000E+00  0.00000000000E+00  0.13459971025E+02  0.13459971969E+02  0.50400000000E-02 0.  1.
          2   -1    0    0  501    0  0.00000000000E+00 -0.00000000000E+00 -0.97723849729E+02  0.97723849763E+02  0.25500000000E-02 0. -1.
         24    2    1    2    0    0  0.35527136788E-14  0.00000000000E+00 -0.84263878704E+02  0.11118382173E+03  0.72535790894E+02 0.  0.
         66    2    3    3    0    0  0.17278656836E+02  0.27257996507E+02 -0.67434623922E+02  0.74786221039E+02  0.19999995394E+01 0.  0.
        -13    1    3    3    0    0 -0.17278656836E+02 -0.27257996507E+02 -0.16829254782E+02  0.36397600693E+02  0.10566000000E+00 0.  1.
         13    1    4    4    0    0  0.50085680489E+01  0.79618239152E+01 -0.20499467573E+02  0.22554727415E+02  0.10566000000E+00 0. -1.
        -13    1    4    4    0    0  0.47560562723E+01  0.88437401464E+01 -0.20176969878E+02  0.22537814635E+02  0.10566000000E+00 0.  1.
        -14    1    4    4    0    0  0.75140325152E+01  0.10452432445E+02 -0.26758186471E+02  0.29693678988E+02  0.00000000000E+00 0.  1.
<mgrwt>
<rscale>  0 0.72535791E+02</rscale>
<asrwt>0</asrwt>
<pdfrwt beam="1">  1        2 0.15034438E-01 0.72535791E+02</pdfrwt>
<pdfrwt beam="2">  1       -1 0.20707649E-02 0.72535791E+02</pdfrwt>
<totfact> 0.22860792E+05</totfact>
</mgrwt>
</event>
<event>
 8    1  0.1520917E-017  0.8034021E+02  0.7818608E-02  0.1328089E+00
         -1   -1    0    0    0  501 -0.00000000000E+00  0.00000000000E+00  0.19506594601E+01  0.19506659711E+01  0.50400000000E-02 0.  1.
          2   -1    0    0  501    0  0.00000000000E+00 -0.00000000000E+00 -0.82722525457E+03  0.82722525457E+03  0.25500000000E-02 0. -1.
         24    2    1    2    0    0  0.71054273576E-14 -0.44408920985E-15 -0.82527459511E+03  0.82917592054E+03  0.80340213329E+02 0.  0.
         66    2    3    3    0    0  0.32905047668E+02 -0.21870239704E+01 -0.64917058099E+03  0.65001074483E+03  0.19999838349E+01 0.  0.
        -13    1    3    3    0    0 -0.32905047668E+02  0.21870239704E+01 -0.17610401412E+03  0.17916517572E+03  0.10566000000E+00 0.  1.
         13    1    4    4    0    0  0.12943230391E+02 -0.10906014269E+01 -0.26491244095E+03  0.26523070930E+03  0.10566000000E+00 0. -1.
        -13    1    4    4    0    0  0.15544718076E+02 -0.12469963938E+01 -0.30619487228E+03  0.30659175500E+03  0.10566000000E+00 0.  1.
        -14    1    4    4    0    0  0.44170992012E+01  0.15057385038E+00 -0.78063267760E+02  0.78188280524E+02  0.00000000000E+00 0.  1.
<mgrwt>
<rscale>  0 0.80340213E+02</rscale>
<asrwt>0</asrwt>
<pdfrwt beam="1">  1        2 0.12726514E+00 0.80340213E+02</pdfrwt>
<pdfrwt beam="2">  1       -1 0.30010262E-03 0.80340213E+02</pdfrwt>
<totfact> 0.34176266E+05</totfact>
</mgrwt>
</event>
<event>
 8    1  0.1520917E-017  0.7916792E+02  0.7818608E-02  0.1331429E+00
          2   -1    0    0  501    0  0.00000000000E+00  0.00000000000E+00  0.28232702616E+03  0.28232702617E+03  0.25500000000E-02 0. -1.
         -1   -1    0    0    0  501 -0.00000000000E+00 -0.00000000000E+00 -0.55499092969E+01  0.55499115854E+01  0.50400000000E-02 0.  1.
         24    2    1    2    0    0 -0.17763568394E-14  0.00000000000E+00  0.27677711686E+03  0.28787693775E+03  0.79167915680E+02 0.  0.
         66    2    3    3    0    0  0.11412401641E+02 -0.13127699146E+02  0.26766989895E+03  0.26824196950E+03  0.20000004913E+01 0.  0.
        -13    1    3    3    0    0 -0.11412401641E+02  0.13127699146E+02  0.91072179060E+01  0.19634968248E+02  0.10566000000E+00 0.  1.
         13    1    4    4    0    0  0.62563288059E+00 -0.53971676795E+00  0.84897373373E+01  0.85305049548E+01  0.10566000000E+00 0. -1.
        -13    1    4    4    0    0  0.43593734240E+00 -0.64687984544E+00  0.14757089503E+02  0.14778069885E+02  0.10566000000E+00 0.  1.
         14    1    4    4    0    0  0.10350831418E+02 -0.11941102533E+02  0.24442307211E+03  0.24493339466E+03  0.00000000000E+00 0. -1.
<mgrwt>
<rscale>  0 0.79167916E+02</rscale>
<asrwt>0</asrwt>
<pdfrwt beam="1">  1        2 0.43434922E-01 0.79167916E+02</pdfrwt>
<pdfrwt beam="2">  1       -1 0.85383248E-03 0.79167916E+02</pdfrwt>
<totfact> 0.25633195E+05</totfact>
</mgrwt>
</event>
<event>
 8    1  0.1520917E-017  0.7963323E+02  0.7818608E-02  0.1330095E+00
          2   -1    0    0  501    0  0.00000000000E+00  0.00000000000E+00  0.10533609283E+04  0.10533609283E+04  0.25500000000E-02 0. -1.
         -1   -1    0    0    0  501 -0.00000000000E+00 -0.00000000000E+00 -0.15050478253E+01  0.15050562641E+01  0.50400000000E-02 0.  1.
         24    2    1    2    0    0  0.00000000000E+00  0.22204460493E-15  0.10518558805E+04  0.10548659846E+04  0.79633234944E+02 0.  0.
         66    2    3    3    0    0 -0.19515335802E+02  0.12033257786E+01  0.98533582018E+03  0.98553182336E+03  0.20000012087E+01 0.  0.
        -13    1    3    3    0    0  0.19515335802E+02 -0.12033257786E+01  0.66520060292E+02  0.69334161202E+02  0.10566000000E+00 0.  1.
         13    1    4    4    0    0 -0.54649063504E+01  0.52183302777E-01  0.25133711049E+03  0.25139654372E+03  0.10566000000E+00 0. -1.
        -13    1    4    4    0    0 -0.61946231731E+01  0.25551562478E+00  0.29162306959E+03  0.29168898595E+03  0.10566000000E+00 0.  1.
        -14    1    4    4    0    0 -0.78558062782E+01  0.89562685102E+00  0.44237564011E+03  0.44244629369E+03  0.00000000000E+00 0.  1.
<mgrwt>
<rscale>  0 0.79633235E+02</rscale>
<asrwt>0</asrwt>
<pdfrwt beam="1">  1        2 0.16205657E+00 0.79633235E+02</pdfrwt>
<pdfrwt beam="2">  1       -1 0.23154498E-03 0.79633235E+02</pdfrwt>
<totfact> 0.35696375E+05</totfact>
</mgrwt>
</event>
<event>
 8    1  0.1520917E-017  0.7733336E+02  0.7818608E-02  0.1336794E+00
          2   -1    0    0  501    0  0.00000000000E+00  0.00000000000E+00  0.64590923701E+02  0.64590923751E+02  0.25500000000E-02 0. -1.
         -1   -1    0    0    0  501 -0.00000000000E+00 -0.00000000000E+00 -0.23147399833E+02  0.23147400382E+02  0.50400000000E-02 0.  1.
         24    2    1    2    0    0  0.00000000000E+00  0.35527136788E-14  0.41443523868E+02  0.87738324133E+02  0.77333355359E+02 0.  0.
         66    2    3    3    0    0  0.10295930906E+02 -0.31790431539E+02 -0.12778244987E+01  0.33500307015E+02  0.20000010058E+01 0.  0.
        -13    1    3    3    0    0 -0.10295930906E+02  0.31790431539E+02  0.42721348366E+02  0.54238017118E+02  0.10566000000E+00 0.  1.
         13    1    4    4    0    0  0.37242858474E+00 -0.10104403563E+01  0.46658994291E-01  0.10830668778E+01  0.10566000000E+00 0.  1.
        -13    1    4    4    0    0  0.14906987194E+01 -0.44941258732E+01 -0.82436771161E+00  0.48072961418E+01  0.10566000000E+00 0.  1.
         14    1    4    4    0    0  0.84328036017E+01 -0.26285865309E+02 -0.50011578137E+00  0.27609943995E+02  0.00000000000E+00 0. -1.
<mgrwt>
<rscale>  0 0.77333355E+02</rscale>
<asrwt>0</asrwt>
<pdfrwt beam="1">  1        2 0.99370651E-02 0.77333355E+02</pdfrwt>
<pdfrwt beam="2">  1       -1 0.35611385E-02 0.77333355E+02</pdfrwt>
<totfact> 0.17359720E+05</totfact>
</mgrwt>
</event>
<event>
 8    1  0.1520917E-017  0.8032448E+02  0.7818608E-02  0.1328133E+00
         -1   -1    0    0    0  501 -0.00000000000E+00  0.00000000000E+00  0.54964713948E+01  0.54964737055E+01  0.50400000000E-02 0.  1.
          2   -1    0    0  501    0  0.00000000000E+00 -0.00000000000E+00 -0.29346190783E+03  0.29346190784E+03  0.25500000000E-02 0. -1.
         24    2    1    2    0    0 -0.17763568394E-14 -0.71054273576E-14 -0.28796543644E+03  0.29895838155E+03  0.80324475197E+02 0.  0.
         66    2    3    3    0    0 -0.15225914315E+02 -0.34247442968E+02 -0.19752769918E+03  0.20106195004E+03  0.19999991941E+01 0.  0.
        -13    1    3    3    0    0  0.15225914315E+02  0.34247442968E+02 -0.90437737261E+02  0.97896431506E+02  0.10566000000E+00 0.  1.
         13    1    4    4    0    0 -0.87912837917E+01 -0.21062545608E+02 -0.12167588058E+03  0.12379801524E+03  0.10566000000E+00 0. -1.
        -13    1    4    4    0    0 -0.60849673596E+01 -0.12222747549E+02 -0.71631782523E+02  0.72921504488E+02  0.10566000000E+00 0.  1.
        -14    1    4    4    0    0 -0.34966316407E+00 -0.96214981129E+00 -0.42200360784E+01  0.43424303208E+01  0.00000000000E+00 0.  1.
<mgrwt>
<rscale>  0 0.80324475E+02</rscale>
<asrwt>0</asrwt>
<pdfrwt beam="1">  1        2 0.45147974E-01 0.80324475E+02</pdfrwt>
<pdfrwt beam="2">  1       -1 0.84561139E-03 0.80324475E+02</pdfrwt>
<totfact> 0.25024727E+05</totfact>
</mgrwt>
</event>
<event>
 8    1  0.1520917E-017  0.7980101E+02  0.7818608E-02  0.1329617E+00
          2   -1    0    0  501    0  0.00000000000E+00  0.00000000000E+00  0.43416355897E+03  0.43416355898E+03  0.25500000000E-02 0. -1.
         -1   -1    0    0    0  501 -0.00000000000E+00 -0.00000000000E+00 -0.36669352610E+01  0.36669387246E+01  0.50400000000E-02 0.  1.
         24    2    1    2    0    0  0.00000000000E+00  0.00000000000E+00  0.43049662371E+03  0.43783049771E+03  0.79801013109E+02 0.  0.
         66    2    3    3    0    0  0.16873068786E+02  0.34725877751E+02  0.27009964920E+03  0.27285235481E+03  0.19999981799E+01 0.  0.
        -13    1    3    3    0    0 -0.16873068786E+02 -0.34725877751E+02  0.16039697452E+03  0.16497814290E+03  0.10566000000E+00 0.  1.
         13    1    4    4    0    0  0.59953894465E+01  0.11972731091E+02  0.93446969986E+02  0.94401474289E+02  0.10566000000E+00 0. -1.
        -13    1    4    4    0    0  0.52499139796E+01  0.91779583467E+01  0.74160267708E+02  0.74910299604E+02  0.10566000000E+00 0.  1.
         14    1    4    4    0    0  0.56277653603E+01  0.13575188313E+02  0.10249241150E+03  0.10354058091E+03  0.00000000000E+00 0. -1.
<mgrwt>
<rscale>  0 0.79801013E+02</rscale>
<asrwt>0</asrwt>
<pdfrwt beam="1">  1        2 0.66794381E-01 0.79801013E+02</pdfrwt>
<pdfrwt beam="2">  1       -1 0.56414426E-03 0.79801013E+02</pdfrwt>
<totfact> 0.29253838E+05</totfact>
</mgrwt>
</event>
<event>
 8    1  0.1520917E-017  0.8029670E+02  0.7818608E-02  0.1328212E+00
          2   -1    0    0  501    0  0.00000000000E+00  0.00000000000E+00  0.70519999710E+02  0.70519999756E+02  0.25500000000E-02 0. -1.
         -1   -1    0    0    0  501 -0.00000000000E+00 -0.00000000000E+00 -0.22857203056E+02  0.22857203612E+02  0.50400000000E-02 0.  1.
         24    2    1    2    0    0  0.00000000000E+00  0.00000000000E+00  0.47662796654E+02  0.93377203367E+02  0.80296699334E+02 0.  0.
         66    2    3    3    0    0  0.10343600390E+01  0.33254412284E+02  0.49926259006E+02  0.60029635796E+02  0.19999996035E+01 0.  0.
        -13    1    3    3    0    0 -0.10343600390E+01 -0.33254412284E+02 -0.22634623529E+01  0.33347567571E+02  0.10566000000E+00 0.  1.
         13    1    4    4    0    0  0.46568186149E+00  0.11026225357E+02  0.15892320397E+02  0.19348682561E+02  0.10566000000E+00 0. -1.
        -13    1    4    4    0    0  0.98704214557E+00  0.10703656143E+02  0.16058876846E+02  0.19324626688E+02  0.10566000000E+00 0.  1.
        -14    1    4    4    0    0 -0.41836396807E+00  0.11524530784E+02  0.17975061764E+02  0.21356326548E+02  0.00000000000E+00 0.  1.
<mgrwt>
<rscale>  0 0.80296699E+02</rscale>
<asrwt>0</asrwt>
<pdfrwt beam="1">  1        2 0.10849231E-01 0.80296699E+02</pdfrwt>
<pdfrwt beam="2">  1       -1 0.35164929E-02 0.80296699E+02</pdfrwt>
<totfact> 0.16014474E+05</totfact>
</mgrwt>
</event>
<event>
 8    1  0.1751172E-017  0.7961232E+02  0.7818608E-02  0.1330155E+00
          2   -1    0    0  501    0  0.00000000000E+00  0.00000000000E+00  0.27159879646E+03  0.27159879647E+03  0.25500000000E-02 0. -1.
         -1   -1    0    0    0  501 -0.00000000000E+00 -0.00000000000E+00 -0.58340832847E+01  0.58340854617E+01  0.50400000000E-02 0.  1.
         24    2    1    2    0    0  0.71054273576E-14 -0.17763568394E-14  0.26576471317E+03  0.27743288193E+03  0.79612318198E+02 0.  0.
         66    2    3    3    0    0 -0.36603175786E+02  0.11312674774E+02  0.17029666108E+03  0.17456437741E+03  0.19999992560E+01 0.  0.
        -13    1    3    3    0    0  0.36603175786E+02 -0.11312674774E+02  0.95468052090E+02  0.10286850452E+03  0.10566000000E+00 0.  1.
         13    1    4    4    0    0 -0.18339368951E+02  0.54047214660E+01  0.85702735093E+02  0.87809529290E+02  0.10566000000E+00 0. -1.
        -13    1    4    4    0    0 -0.16042061523E+02  0.50404267817E+01  0.72059617764E+02  0.73995630387E+02  0.10566000000E+00 0.  1.
        -14    1    4    4    0    0 -0.22217453126E+01  0.86752652582E+00  0.12534308228E+02  0.12759217737E+02  0.00000000000E+00 0.  1.
<mgrwt>
<rscale>  0 0.79612318E+02</rscale>
<asrwt>0</asrwt>
<pdfrwt beam="1">  1        2 0.41784436E-01 0.79612318E+02</pdfrwt>
<pdfrwt beam="2">  1       -1 0.89755132E-03 0.79612318E+02</pdfrwt>
<totfact> 0.24907944E+05</totfact>
</mgrwt>
</event>
<event>
 8    1  0.1520917E-017  0.7987393E+02  0.7818608E-02  0.1329410E+00
         -1   -1    0    0    0  501 -0.00000000000E+00  0.00000000000E+00  0.33691213701E+02  0.33691214078E+02  0.50400000000E-02 0.  1.
          2   -1    0    0  501    0  0.00000000000E+00 -0.00000000000E+00 -0.47340569325E+02  0.47340569393E+02  0.25500000000E-02 0. -1.
         24    2    1    2    0    0  0.00000000000E+00  0.00000000000E+00 -0.13649355623E+02  0.81031783472E+02  0.79873932066E+02 0.  0.
         66    2    3    3    0    0  0.14379906802E+02  0.36232239653E+02 -0.15520481140E+02  0.42005264479E+02  0.19999997964E+01 0.  0.
        -13    1    3    3    0    0 -0.14379906802E+02 -0.36232239653E+02  0.18711255169E+01  0.39026518993E+02  0.10566000000E+00 0.  1.
         13    1    4    4    0    0  0.54589237895E+01  0.12664678866E+02 -0.45720263395E+01  0.14529574275E+02  0.10566000000E+00 0. -1.
        -13    1    4    4    0    0  0.67625660118E+01  0.17726500227E+02 -0.82163999284E+01  0.20675625775E+02  0.10566000000E+00 0.  1.
         14    1    4    4    0    0  0.21584170007E+01  0.58410605601E+01 -0.27320548722E+01  0.68000644292E+01  0.00000000000E+00 0. -1.
<mgrwt>
<rscale>  0 0.79873932E+02</rscale>
<asrwt>0</asrwt>
<pdfrwt beam="1">  1        2 0.72831645E-02 0.79873932E+02</pdfrwt>
<pdfrwt beam="2">  1       -1 0.51832637E-02 0.79873932E+02</pdfrwt>
<totfact> 0.14831744E+05</totfact>
</mgrwt>
</event>
<event>
 8    1  0.1520917E-017  0.7691531E+02  0.7818608E-02  0.1338040E+00
          2   -1    0    0  501    0  0.00000000000E+00  0.00000000000E+00  0.19632236518E+03  0.19632236520E+03  0.25500000000E-02 0. -1.
         -1   -1    0    0    0  501 -0.00000000000E+00 -0.00000000000E+00 -0.75334821478E+01  0.75334838337E+01  0.50400000000E-02 0.  1.
         24    2    1    2    0    0  0.00000000000E+00  0.00000000000E+00  0.18878888304E+03  0.20385584903E+03  0.76915309448E+02 0.  0.
         66    2    3    3    0    0 -0.17570721557E+02 -0.32130782027E+02  0.12535182058E+03  0.13060703015E+03  0.19999985862E+01 0.  0.
        -13    1    3    3    0    0  0.17570721557E+02  0.32130782027E+02  0.63437062460E+02  0.73248818880E+02  0.10566000000E+00 0.  1.
         13    1    4    4    0    0 -0.15539502220E+02 -0.28127216327E+02  0.10970497401E+03  0.11431451751E+03  0.10566000000E+00 0. -1.
        -13    1    4    4    0    0 -0.11880980887E+01 -0.17415654030E+01  0.79904016927E+01  0.82645211820E+01  0.10566000000E+00 0.  1.
         14    1    4    4    0    0 -0.84312124814E+00 -0.22620002964E+01  0.76564448734E+01  0.80279914599E+01  0.00000000000E+00 0. -1.
<mgrwt>
<rscale>  0 0.76915309E+02</rscale>
<asrwt>0</asrwt>
<pdfrwt beam="1">  1        2 0.30203435E-01 0.76915309E+02</pdfrwt>
<pdfrwt beam="2">  1       -1 0.11589976E-02 0.76915309E+02</pdfrwt>
<totfact> 0.24308991E+05</totfact>
</mgrwt>
</event>
<event>
 8    1  0.1520917E-017  0.7898929E+02  0.7818608E-02  0.1331944E+00
         -1   -1    0    0    0  501 -0.00000000000E+00  0.00000000000E+00  0.65081779745E+02  0.65081779940E+02  0.50400000000E-02 0.  1.
          2   -1    0    0  501    0  0.00000000000E+00 -0.00000000000E+00 -0.23967183884E+02  0.23967184019E+02  0.25500000000E-02 0. -1.
         24    2    1    2    0    0  0.00000000000E+00  0.44408920985E-15  0.41114595861E+02  0.89048963959E+02  0.78989290346E+02 0.  0.
         66    2    3    3    0    0 -0.24021960636E+02  0.36743445226E+01 -0.14491324029E+02  0.28364658810E+02  0.19999992091E+01 0.  0.
        -13    1    3    3    0    0  0.24021960636E+02 -0.36743445226E+01  0.55605919890E+02  0.60684305149E+02  0.10566000000E+00 0.  1.
         13    1    4    4    0    0 -0.53530033774E+01  0.74563138281E+00 -0.41470679590E+01  0.68132186234E+01  0.10566000000E+00 0. -1.
        -13    1    4    4    0    0 -0.10925666385E+02  0.19936441169E+01 -0.59981679277E+01  0.12622756646E+02  0.10566000000E+00 0.  1.
         14    1    4    4    0    0 -0.77432908739E+01  0.93506902296E+00 -0.43460881426E+01  0.89286835412E+01  0.00000000000E+00 0. -1.
<mgrwt>
<rscale>  0 0.78989290E+02</rscale>
<asrwt>0</asrwt>
<pdfrwt beam="1">  1        2 0.36872591E-02 0.78989290E+02</pdfrwt>
<pdfrwt beam="2">  1       -1 0.10012581E-01 0.78989290E+02</pdfrwt>
<totfact> 0.13345175E+05</totfact>
</mgrwt>
</event>
<event>
 8    1  0.1520917E-017  0.8010019E+02  0.7818608E-02  0.1328767E+00
         -1   -1    0    0    0  501 -0.00000000000E+00  0.00000000000E+00  0.16247448359E+01  0.16247526530E+01  0.50400000000E-02 0.  1.
          2   -1    0    0  501    0  0.00000000000E+00 -0.00000000000E+00 -0.98723587276E+03  0.98723587276E+03  0.25500000000E-02 0. -1.
         24    2    1    2    0    0  0.00000000000E+00 -0.35527136788E-14 -0.98561112792E+03  0.98886062542E+03  0.80100193576E+02 0.  0.
         66    2    3    3    0    0 -0.12046740451E+02 -0.23705089054E+02 -0.86243032380E+03  0.86284246454E+03  0.19999992162E+01 0.  0.
        -13    1    3    3    0    0  0.12046740451E+02  0.23705089054E+02 -0.12318080413E+03  0.12601816088E+03  0.10566000000E+00 0.  1.
         13    1    4    4    0    0 -0.45555169709E+01 -0.10506315684E+02 -0.36240664099E+03  0.36258753426E+03  0.10566000000E+00 0. -1.
        -13    1    4    4    0    0 -0.62549470281E+01 -0.11159342831E+02 -0.40915330922E+03  0.40935326663E+03  0.10566000000E+00 0.  1.
        -14    1    4    4    0    0 -0.12362764520E+01 -0.20394305392E+01 -0.90870373589E+02  0.90901663641E+02  0.00000000000E+00 0.  1.
<mgrwt>
<rscale>  0 0.80100194E+02</rscale>
<asrwt>0</asrwt>
<pdfrwt beam="1">  1        2 0.15188196E+00 0.80100194E+02</pdfrwt>
<pdfrwt beam="2">  1       -1 0.24996213E-03 0.80100194E+02</pdfrwt>
<totfact> 0.35095956E+05</totfact>
</mgrwt>
</event>
<event>
 8    1  0.1520917E-017  0.7897709E+02  0.7818608E-02  0.1331980E+00
         -1   -1    0    0    0  501 -0.00000000000E+00  0.00000000000E+00  0.28700650849E+03  0.28700650854E+03  0.50400000000E-02 0.  1.
          2   -1    0    0  501    0  0.00000000000E+00 -0.00000000000E+00 -0.54331354711E+01  0.54331360695E+01  0.25500000000E-02 0. -1.
         24    2    1    2    0    0  0.17763568394E-14  0.00000000000E+00  0.28157337302E+03  0.29243964461E+03  0.78977093785E+02 0.  0.
         66    2    3    3    0    0  0.90696116780E+01 -0.38240565714E+02  0.12765925554E+03  0.13358699135E+03  0.20000027672E+01 0.  0.
        -13    1    3    3    0    0 -0.90696116780E+01  0.38240565714E+02  0.15391411748E+03  0.15885265326E+03  0.10566000000E+00 0.  1.
         13    1    4    4    0    0  0.15416296670E+01 -0.45349338306E+01  0.14908408916E+02  0.15659312479E+02  0.10566000000E+00 0. -1.
        -13    1    4    4    0    0  0.10982912523E+01 -0.35297864303E+01  0.12733591569E+02  0.13259756944E+02  0.10566000000E+00 0.  1.
         14    1    4    4    0    0  0.64296907587E+01 -0.30175845453E+02  0.10001725505E+03  0.10466792193E+03  0.00000000000E+00 0. -1.
<mgrwt>
<rscale>  0 0.78977094E+02</rscale>
<asrwt>0</asrwt>
<pdfrwt beam="1">  1        2 0.83586659E-03 0.78977094E+02</pdfrwt>
<pdfrwt beam="2">  1       -1 0.44154871E-01 0.78977094E+02</pdfrwt>
<totfact> 0.90919344E+04</totfact>
</mgrwt>
</event>
<event>
 8    1  0.1520917E-017  0.7969542E+02  0.7818608E-02  0.1329918E+00
          2   -1    0    0  501    0  0.00000000000E+00  0.00000000000E+00  0.38508017831E+03  0.38508017831E+03  0.25500000000E-02 0. -1.
         -1   -1    0    0    0  501 -0.00000000000E+00 -0.00000000000E+00 -0.41233996814E+01  0.41234027616E+01  0.50400000000E-02 0.  1.
         24    2    1    2    0    0  0.00000000000E+00  0.00000000000E+00  0.38095677862E+03  0.38920358108E+03  0.79695422343E+02 0.  0.
         66    2    3    3    0    0 -0.20758025428E+02 -0.33967677407E+02  0.19580407377E+03  0.19981975387E+03  0.20000009257E+01 0.  0.
        -13    1    3    3    0    0  0.20758025428E+02  0.33967677407E+02  0.18515270485E+03  0.18938382720E+03  0.10566000000E+00 0.  1.
         13    1    4    4    0    0 -0.10696721189E+02 -0.18317054421E+02  0.10648659469E+03  0.10857872876E+03  0.10566000000E+00 0. -1.
        -13    1    4    4    0    0 -0.78232588212E+01 -0.11846198939E+02  0.70107912076E+02  0.71530876603E+02  0.10566000000E+00 0.  1.
         14    1    4    4    0    0 -0.22380454176E+01 -0.38044240463E+01  0.19209567009E+02  0.19710148510E+02  0.00000000000E+00 0. -1.
<mgrwt>
<rscale>  0 0.79695422E+02</rscale>
<asrwt>0</asrwt>
<pdfrwt beam="1">  1        2 0.59243106E-01 0.79695422E+02</pdfrwt>
<pdfrwt beam="2">  1       -1 0.63436940E-03 0.79695422E+02</pdfrwt>
<totfact> 0.28158114E+05</totfact>
</mgrwt>
</event>
<event>
 8    1  0.1520917E-017  0.8116544E+02  0.7818608E-02  0.1325776E+00
         -1   -1    0    0    0  501 -0.00000000000E+00  0.00000000000E+00  0.98491619112E+01  0.98491632007E+01  0.50400000000E-02 0.  1.
          2   -1    0    0  501    0  0.00000000000E+00 -0.00000000000E+00 -0.16721797874E+03  0.16721797876E+03  0.25500000000E-02 0. -1.
         24    2    1    2    0    0  0.35527136788E-14  0.35527136788E-14 -0.15736881683E+03  0.17706714196E+03  0.81165437544E+02 0.  0.
         66    2    3    3    0    0 -0.25446081710E+02 -0.25491072793E+02 -0.11940827133E+03  0.12473825849E+03  0.20000005939E+01 0.  0.
        -13    1    3    3    0    0  0.25446081710E+02  0.25491072793E+02 -0.37960545493E+02  0.52328883466E+02  0.10566000000E+00 0.  1.
         13    1    4    4    0    0 -0.12706418379E+01 -0.11666222191E+01 -0.44913368022E+01  0.48123599604E+01  0.10566000000E+00 0. -1.
        -13    1    4    4    0    0 -0.15701714501E+02 -0.15518192693E+02 -0.73918011961E+02  0.77144292070E+02  0.10566000000E+00 0.  1.
         14    1    4    4    0    0 -0.84737253712E+01 -0.88062578811E+01 -0.40998922570E+02  0.42781606462E+02  0.00000000000E+00 0. -1.
<mgrwt>
<rscale>  0 0.81165438E+02</rscale>
<asrwt>0</asrwt>
<pdfrwt beam="1">  1        2 0.25725841E-01 0.81165438E+02</pdfrwt>
<pdfrwt beam="2">  1       -1 0.15152559E-02 0.81165438E+02</pdfrwt>
<totfact> 0.19974689E+05</totfact>
</mgrwt>
</event>
<event>
 8    1  0.1520917E-017  0.8014765E+02  0.7818608E-02  0.1328633E+00
          2   -1    0    0  501    0  0.00000000000E+00  0.00000000000E+00  0.24904424037E+03  0.24904424038E+03  0.25500000000E-02 0. -1.
         -1   -1    0    0    0  501 -0.00000000000E+00 -0.00000000000E+00 -0.64482967032E+01  0.64482986729E+01  0.50400000000E-02 0.  1.
         24    2    1    2    0    0  0.00000000000E+00  0.17763568394E-14  0.24259594366E+03  0.25549253905E+03  0.80147648934E+02 0.  0.
         66    2    3    3    0    0 -0.17903333549E+02 -0.11202396900E+02  0.22984584277E+03  0.23082273392E+03  0.20000015646E+01 0.  0.
        -13    1    3    3    0    0  0.17903333549E+02  0.11202396900E+02  0.12750100890E+02  0.24669805132E+02  0.10566000000E+00 0.  1.
         13    1    4    4    0    0 -0.97439581699E+01 -0.64347992792E+01  0.12785904380E+03  0.12839118976E+03  0.10566000000E+00 0. -1.
        -13    1    4    4    0    0 -0.72128767205E+01 -0.44697362086E+01  0.87393799737E+02  0.87804849119E+02  0.10566000000E+00 0.  1.
         14    1    4    4    0    0 -0.94649865867E+00 -0.29786141232E+00  0.14592999234E+02  0.14626695039E+02  0.00000000000E+00 0. -1.
<mgrwt>
<rscale>  0 0.80147649E+02</rscale>
<asrwt>0</asrwt>
<pdfrwt beam="1">  1        2 0.38314500E-01 0.80147649E+02</pdfrwt>
<pdfrwt beam="2">  1       -1 0.99204578E-03 0.80147649E+02</pdfrwt>
<totfact> 0.23720365E+05</totfact>
</mgrwt>
</event>
<event>
 8    1  0.1520917E-017  0.8202685E+02  0.7818608E-02  0.1323396E+00
         -1   -1    0    0    0  501 -0.00000000000E+00  0.00000000000E+00  0.19657626188E+03  0.19657626195E+03  0.50400000000E-02 0.  1.
          2   -1    0    0  501    0  0.00000000000E+00 -0.00000000000E+00 -0.85569895569E+01  0.85569899369E+01  0.25500000000E-02 0. -1.
         24    2    1    2    0    0  0.00000000000E+00  0.00000000000E+00  0.18801927232E+03  0.20513325188E+03  0.82026850864E+02 0.  0.
         66    2    3    3    0    0  0.12665308726E+02  0.34211547404E+02  0.47329319210E+02  0.59790504928E+02  0.20000004415E+01 0.  0.
        -13    1    3    3    0    0 -0.12665308726E+02 -0.34211547404E+02  0.14068995312E+03  0.14534274696E+03  0.10566000000E+00 0.  1.
         13    1    4    4    0    0  0.52466661962E+01  0.12989360929E+02  0.17829899620E+02  0.22675261586E+02  0.10566000000E+00 0. -1.
        -13    1    4    4    0    0  0.34462788406E+01  0.10469758422E+02  0.13381014680E+02  0.17336533597E+02  0.10566000000E+00 0.  1.
         14    1    4    4    0    0  0.39723636888E+01  0.10752428054E+02  0.16118404910E+02  0.19778709745E+02  0.00000000000E+00 0. -1.
<mgrwt>
<rscale>  0 0.82026851E+02</rscale>
<asrwt>0</asrwt>
<pdfrwt beam="1">  1        2 0.13164600E-02 0.82026851E+02</pdfrwt>
<pdfrwt beam="2">  1       -1 0.30242501E-01 0.82026851E+02</pdfrwt>
<totfact> 0.93944878E+04</totfact>
</mgrwt>
</event>
<event>
 8    1  0.1520917E-017  0.7955128E+02  0.7818608E-02  0.1330330E+00
         -1   -1    0    0    0  501 -0.00000000000E+00  0.00000000000E+00  0.10801191623E+03  0.10801191635E+03  0.50400000000E-02 0.  1.
          2   -1    0    0  501    0  0.00000000000E+00 -0.00000000000E+00 -0.14647473641E+02  0.14647473863E+02  0.25500000000E-02 0. -1.
         24    2    1    2    0    0  0.00000000000E+00 -0.35527136788E-14  0.93364442589E+02  0.12265939021E+03  0.79551284507E+02 0.  0.
         66    2    3    3    0    0 -0.30066435277E+02  0.23121375182E+02  0.28369743414E+02  0.47407077252E+02  0.20000279146E+01 0.  0.
        -13    1    3    3    0    0  0.30066435277E+02 -0.23121375182E+02  0.64994699175E+02  0.75252312958E+02  0.10566000000E+00 0.  1.
         13    1    4    4    0    0 -0.10844106019E+02  0.89322206270E+01  0.10164875058E+02  0.17341137496E+02  0.10566000000E+00 0. -1.
        -13    1    4    4    0    0 -0.72383028155E+00  0.70851354647E+00  0.10397514356E+01  0.14553930072E+01  0.10566000000E+00 0.  1.
        -14    1    4    4    0    0 -0.18498498977E+02  0.13480641009E+02  0.17165116920E+02  0.28610546749E+02  0.00000000000E+00 0.  1.
<mgrwt>
<rscale>  0 0.79551285E+02</rscale>
<asrwt>0</asrwt>
<pdfrwt beam="1">  1        2 0.22534575E-02 0.79551285E+02</pdfrwt>
<pdfrwt beam="2">  1       -1 0.16617218E-01 0.79551285E+02</pdfrwt>
<totfact> 0.11821494E+05</totfact>
</mgrwt>
</event>
<event>
 8    1  0.1520917E-017  0.8158655E+02  0.7818608E-02  0.1324608E+00
          2   -1    0    0  501    0  0.00000000000E+00  0.00000000000E+00  0.20492153790E+03  0.20492153792E+03  0.25500000000E-02 0. -1.
         -1   -1    0    0    0  501 -0.00000000000E+00 -0.00000000000E+00 -0.81206251222E+01  0.81206266862E+01  0.50400000000E-02 0.  1.
         24    2    1    2    0    0  0.00000000000E+00 -0.17763568394E-14  0.19680091278E+03  0.21304216461E+03  0.81586546858E+02 0.  0.
         66    2    3    3    0    0  0.28622444673E+01  0.14879908595E+02  0.19729006311E+03  0.19788120965E+03  0.20000016409E+01 0.  0.
        -13    1    3    3    0    0 -0.28622444673E+01 -0.14879908595E+02 -0.48915032772E+00  0.15160954959E+02  0.10566000000E+00 0.  1.
         13    1    4    4    0    0 -0.26518785215E-01  0.25886987161E+01  0.36455675151E+02  0.36547633015E+02  0.10566000000E+00 0.  1.
        -13    1    4    4    0    0  0.10075209117E+01  0.63827376707E+01  0.86397034117E+02  0.86638404342E+02  0.10566000000E+00 0. -1.
        -14    1    4    4    0    0  0.18812423408E+01  0.59084722080E+01  0.74437353842E+02  0.74695172291E+02  0.00000000000E+00 0.  1.
<mgrwt>
<rscale>  0 0.81586547E+02</rscale>
<asrwt>0</asrwt>
<pdfrwt beam="1">  1        2 0.31526389E-01 0.81586547E+02</pdfrwt>
<pdfrwt beam="2">  1       -1 0.12493271E-02 0.81586547E+02</pdfrwt>
<totfact> 0.21121970E+05</totfact>
</mgrwt>
</event>
<event>
 8    1  0.1520917E-017  0.7805371E+02  0.7818608E-02  0.1334667E+00
          2   -1    0    0  501    0  0.00000000000E+00  0.00000000000E+00  0.50210442115E+01  0.50210448590E+01  0.25500000000E-02 0. -1.
         -1   -1    0    0    0  501 -0.00000000000E+00 -0.00000000000E+00 -0.30334237278E+03  0.30334237282E+03  0.50400000000E-02 0.  1.
         24    2    1    2    0    0 -0.17763568394E-14  0.00000000000E+00 -0.29832132857E+03  0.30836341768E+03  0.78053714101E+02 0.  0.
         66    2    3    3    0    0 -0.12672435925E+02 -0.34667699144E+02 -0.19901944970E+03  0.20242327275E+03  0.19999993487E+01 0.  0.
        -13    1    3    3    0    0  0.12672435925E+02  0.34667699144E+02 -0.99301878869E+02  0.10594014493E+03  0.10566000000E+00 0.  1.
         13    1    4    4    0    0 -0.56622916576E+01 -0.16342735377E+02 -0.92486166641E+02  0.94089578224E+02  0.10566000000E+00 0. -1.
        -13    1    4    4    0    0 -0.32783495491E+01 -0.10444763521E+02 -0.59993314149E+02  0.60984010752E+02  0.10566000000E+00 0.  1.
         14    1    4    4    0    0 -0.37317947186E+01 -0.78802002461E+01 -0.46539968906E+02  0.47349683775E+02  0.00000000000E+00 0. -1.
<mgrwt>
<rscale>  0 0.78053714E+02</rscale>
<asrwt>0</asrwt>
<pdfrwt beam="1">  1        2 0.77246862E-03 0.78053714E+02</pdfrwt>
<pdfrwt beam="2">  1       -1 0.46668043E-01 0.78053714E+02</pdfrwt>
<totfact> 0.91649002E+04</totfact>
</mgrwt>
</event>
<event>
 8    1  0.1520917E-017  0.7844106E+02  0.7818608E-02  0.1333535E+00
         -1   -1    0    0    0  501 -0.00000000000E+00  0.00000000000E+00  0.25798257481E+02  0.25798257974E+02  0.50400000000E-02 0.  1.
          2   -1    0    0  501    0  0.00000000000E+00 -0.00000000000E+00 -0.59626114009E+02  0.59626114064E+02  0.25500000000E-02 0. -1.
         24    2    1    2    0    0  0.00000000000E+00  0.00000000000E+00 -0.33827856528E+02  0.85424372037E+02  0.78441057238E+02 0.  0.
         66    2    3    3    0    0  0.50723594051E+01 -0.30651761933E+02 -0.42947508114E+02  0.53044771227E+02  0.19999904280E+01 0.  0.
        -13    1    3    3    0    0 -0.50723594051E+01  0.30651761933E+02  0.91196515864E+01  0.32379600811E+02  0.10566000000E+00 0.  1.
         13    1    4    4    0    0  0.36528022468E+01 -0.22095308618E+02 -0.31184300576E+02  0.38392934163E+02  0.10566000000E+00 0. -1.
        -13    1    4    4    0    0  0.14803468382E+01 -0.81722408390E+01 -0.10890739625E+02  0.13696580621E+02  0.10566000000E+00 0.  1.
         14    1    4    4    0    0 -0.60789679936E-01 -0.38421247620E+00 -0.87246791223E+00  0.95525644197E+00  0.00000000000E+00 0. -1.
<mgrwt>
<rscale>  0 0.78441057E+02</rscale>
<asrwt>0</asrwt>
<pdfrwt beam="1">  1        2 0.91732483E-02 0.78441057E+02</pdfrwt>
<pdfrwt beam="2">  1       -1 0.39689628E-02 0.78441057E+02</pdfrwt>
<totfact> 0.16397688E+05</totfact>
</mgrwt>
</event>
<event>
 8    1  0.1520917E-017  0.7972070E+02  0.7818608E-02  0.1329846E+00
          2   -1    0    0  501    0  0.00000000000E+00  0.00000000000E+00  0.19518318682E+03  0.19518318684E+03  0.25500000000E-02 0. -1.
         -1   -1    0    0    0  501 -0.00000000000E+00 -0.00000000000E+00 -0.81402875541E+01  0.81402891144E+01  0.50400000000E-02 0.  1.
         24    2    1    2    0    0  0.35527136788E-14 -0.35527136788E-14  0.18704289926E+03  0.20332347595E+03  0.79720698109E+02 0.  0.
         66    2    3    3    0    0 -0.30693424041E+02  0.13129235247E+02  0.14901231855E+03  0.15271913492E+03  0.19999983508E+01 0.  0.
        -13    1    3    3    0    0  0.30693424041E+02 -0.13129235247E+02  0.38030580711E+02  0.50604341027E+02  0.10566000000E+00 0.  1.
         13    1    4    4    0    0 -0.25450714078E+01  0.90026459701E+00  0.11440556199E+02  0.11755226710E+02  0.10566000000E+00 0. -1.
        -13    1    4    4    0    0 -0.29709790745E+01  0.79424653897E+00  0.12802068082E+02  0.13166687337E+02  0.10566000000E+00 0.  1.
        -14    1    4    4    0    0 -0.25177373558E+02  0.11434724111E+02  0.12476969427E+03  0.12779722088E+03  0.00000000000E+00 0.  1.
<mgrwt>
<rscale>  0 0.79720698E+02</rscale>
<asrwt>0</asrwt>
<pdfrwt beam="1">  1        2 0.30028179E-01 0.79720698E+02</pdfrwt>
<pdfrwt beam="2">  1       -1 0.12523522E-02 0.79720698E+02</pdfrwt>
<totfact> 0.22075874E+05</totfact>
</mgrwt>
</event>
<event>
 8    1  0.1520917E-017  0.8341511E+02  0.7818608E-02  0.1319630E+00
          2   -1    0    0  501    0  0.00000000000E+00  0.00000000000E+00  0.95329368291E+02  0.95329368325E+02  0.25500000000E-02 0. -1.
         -1   -1    0    0    0  501 -0.00000000000E+00 -0.00000000000E+00 -0.18247472135E+02  0.18247472831E+02  0.50400000000E-02 0.  1.
         24    2    1    2    0    0 -0.35527136788E-14  0.00000000000E+00  0.77081896157E+02  0.11357684116E+03  0.83415107336E+02 0.  0.
         66    2    3    3    0    0 -0.31682084770E+02 -0.20159920116E+02  0.13928563210E+02  0.40102141424E+02  0.19999998026E+01 0.  0.
        -13    1    3    3    0    0  0.31682084770E+02  0.20159920116E+02  0.63153332947E+02  0.73474699733E+02  0.10566000000E+00 0.  1.
         13    1    4    4    0    0 -0.10263989984E+02 -0.58034533723E+01  0.45215996736E+01  0.12628760393E+02  0.10566000000E+00 0. -1.
        -13    1    4    4    0    0 -0.17113035498E+01 -0.84262417688E+00  0.86688377276E+00  0.20979101158E+01  0.10566000000E+00 0.  1.
         14    1    4    4    0    0 -0.19706791237E+02 -0.13513842567E+02  0.85400797633E+01  0.25375470914E+02  0.00000000000E+00 0. -1.
<mgrwt>
<rscale>  0 0.83415107E+02</rscale>
<asrwt>0</asrwt>
<pdfrwt beam="1">  1        2 0.14666057E-01 0.83415107E+02</pdfrwt>
<pdfrwt beam="2">  1       -1 0.28073035E-02 0.83415107E+02</pdfrwt>
<totfact> 0.15632459E+05</totfact>
</mgrwt>
</event>
<event>
 8    1  0.1520917E-017  0.7925460E+02  0.7818608E-02  0.1331180E+00
         -1   -1    0    0    0  501 -0.00000000000E+00  0.00000000000E+00  0.22214818339E+02  0.22214818911E+02  0.50400000000E-02 0.  1.
          2   -1    0    0  501    0  0.00000000000E+00 -0.00000000000E+00 -0.70688085791E+02  0.70688085837E+02  0.25500000000E-02 0. -1.
         24    2    1    2    0    0  0.00000000000E+00  0.00000000000E+00 -0.48473267452E+02  0.92902904748E+02  0.79254602726E+02 0.  0.
         66    2    3    3    0    0 -0.19528210399E+01  0.38391511792E+02 -0.13094696437E+02  0.40659473211E+02  0.19999998475E+01 0.  0.
        -13    1    3    3    0    0  0.19528210399E+01 -0.38391511792E+02 -0.35378571015E+02  0.52243431537E+02  0.10566000000E+00 0.  1.
         13    1    4    4    0    0 -0.91212849539E+00  0.20690621689E+02 -0.67436429946E+01  0.21781223316E+02  0.10566000000E+00 0. -1.
        -13    1    4    4    0    0 -0.10707728051E+00  0.19965715363E+00 -0.12126810884E+00  0.27784620353E+00  0.10566000000E+00 0.  1.
        -14    1    4    4    0    0 -0.93361526405E+00  0.17501232949E+02 -0.62297853330E+01  0.18600403692E+02  0.00000000000E+00 0.  1.
<mgrwt>
<rscale>  0 0.79254603E+02</rscale>
<asrwt>0</asrwt>
<pdfrwt beam="1">  1        2 0.10875090E-01 0.79254603E+02</pdfrwt>
<pdfrwt beam="2">  1       -1 0.34176645E-02 0.79254603E+02</pdfrwt>
<totfact> 0.16600174E+05</totfact>
</mgrwt>
</event>
<event>
 8    1  0.1520917E-017  0.8067899E+02  0.7818608E-02  0.1327136E+00
          2   -1    0    0  501    0  0.00000000000E+00  0.00000000000E+00  0.16550070082E+03  0.16550070084E+03  0.25500000000E-02 0. -1.
         -1   -1    0    0    0  501 -0.00000000000E+00 -0.00000000000E+00 -0.98324341529E+01  0.98324354446E+01  0.50400000000E-02 0.  1.
         24    2    1    2    0    0  0.00000000000E+00  0.00000000000E+00  0.15566826667E+03  0.17533313628E+03  0.80678990029E+02 0.  0.
         66    2    3    3    0    0 -0.57409289184E+01  0.16647641730E+02  0.15669414987E+03  0.15769324285E+03  0.19999994979E+01 0.  0.
        -13    1    3    3    0    0  0.57409289184E+01 -0.16647641730E+02 -0.10258831998E+01  0.17639893434E+02  0.10566000000E+00 0.  1.
         13    1    4    4    0    0 -0.22086967979E+01  0.43554574737E+01  0.44522627646E+02  0.44789774368E+02  0.10566000000E+00 0. -1.
        -13    1    4    4    0    0 -0.62658366507E+00  0.23823627570E+01  0.18217516522E+02  0.18383615848E+02  0.10566000000E+00 0.  1.
        -14    1    4    4    0    0 -0.29056484554E+01  0.99098214989E+01  0.93954005697E+02  0.94519852632E+02  0.00000000000E+00 0.  1.
<mgrwt>
<rscale>  0 0.80678990E+02</rscale>
<asrwt>0</asrwt>
<pdfrwt beam="1">  1        2 0.25461644E-01 0.80678990E+02</pdfrwt>
<pdfrwt beam="2">  1       -1 0.15126824E-02 0.80678990E+02</pdfrwt>
<totfact> 0.20226092E+05</totfact>
</mgrwt>
</event>
<event>
 8    1  0.1520917E-017  0.7968319E+02  0.7818608E-02  0.1329953E+00
          2   -1    0    0  501    0  0.00000000000E+00  0.00000000000E+00  0.22516052054E+03  0.22516052056E+03  0.25500000000E-02 0. -1.
         -1   -1    0    0    0  501 -0.00000000000E+00 -0.00000000000E+00 -0.70498705472E+01  0.70498723488E+01  0.50400000000E-02 0.  1.
         24    2    1    2    0    0  0.00000000000E+00  0.00000000000E+00  0.21811064999E+03  0.23221039290E+03  0.79683191025E+02 0.  0.
         66    2    3    3    0    0  0.32482230254E+02 -0.13100243228E+02  0.16431149202E+03  0.16801481504E+03  0.20000018462E+01 0.  0.
        -13    1    3    3    0    0 -0.32482230254E+02  0.13100243228E+02  0.53799157975E+02  0.64195577868E+02  0.10566000000E+00 0.  1.
         13    1    4    4    0    0  0.63998696673E+01 -0.28065111670E+01  0.30171976855E+02  0.30970860306E+02  0.10566000000E+00 0. -1.
        -13    1    4    4    0    0  0.71180969622E+01 -0.32713557166E+01  0.38904454386E+02  0.39685473509E+02  0.10566000000E+00 0.  1.
        -14    1    4    4    0    0  0.18964263625E+02 -0.70223763444E+01  0.95235060777E+02  0.97358481221E+02  0.00000000000E+00 0.  1.
<mgrwt>
<rscale>  0 0.79683191E+02</rscale>
<asrwt>0</asrwt>
<pdfrwt beam="1">  1        2 0.34640077E-01 0.79683191E+02</pdfrwt>
<pdfrwt beam="2">  1       -1 0.10845957E-02 0.79683191E+02</pdfrwt>
<totfact> 0.23236390E+05</totfact>
</mgrwt>
</event>
<event>
 8    1  0.1520917E-017  0.7951293E+02  0.7818608E-02  0.1330439E+00
          2   -1    0    0  501    0  0.00000000000E+00  0.00000000000E+00  0.35668198581E+02  0.35668198672E+02  0.25500000000E-02 0. -1.
         -1   -1    0    0    0  501 -0.00000000000E+00 -0.00000000000E+00 -0.44313322860E+02  0.44313323147E+02  0.50400000000E-02 0.  1.
         24    2    1    2    0    0  0.00000000000E+00  0.71054273576E-14 -0.86451242793E+01  0.79981521818E+02  0.79512927619E+02 0.  0.
         66    2    3    3    0    0 -0.31284437084E+02  0.24474257730E+02 -0.33891229674E+01  0.39914802350E+02  0.19999992669E+01 0.  0.
        -13    1    3    3    0    0  0.31284437084E+02 -0.24474257730E+02 -0.52560013118E+01  0.40066719468E+02  0.10566000000E+00 0.  1.
         13    1    4    4    0    0 -0.19249990293E+01  0.15402438059E+01 -0.62298378813E+00  0.25450432374E+01  0.10566000000E+00 0. -1.
        -13    1    4    4    0    0 -0.50263663653E+00  0.48873052158E+00 -0.50750698578E-01  0.71080291229E+00  0.10566000000E+00 0. -1.
         14    1    4    4    0    0 -0.28856801418E+02  0.22445283403E+02 -0.27153884807E+01  0.36658956201E+02  0.00000000000E+00 0. -1.
<mgrwt>
<rscale>  0 0.79512928E+02</rscale>
<asrwt>0</asrwt>
<pdfrwt beam="1">  1        2 0.54874152E-02 0.79512928E+02</pdfrwt>
<pdfrwt beam="2">  1       -1 0.68174343E-02 0.79512928E+02</pdfrwt>
<totfact> 0.14165103E+05</totfact>
</mgrwt>
</event>
<event>
 8    1  0.1520917E-017  0.7921580E+02  0.7818608E-02  0.1331292E+00
          2   -1    0    0  501    0  0.00000000000E+00  0.00000000000E+00  0.12742030395E+03  0.12742030397E+03  0.25500000000E-02 0. -1.
         -1   -1    0    0    0  501 -0.00000000000E+00 -0.00000000000E+00 -0.12311896915E+02  0.12311897946E+02  0.50400000000E-02 0.  1.
         24    2    1    2    0    0 -0.71054273576E-14  0.17763568394E-14  0.11510840703E+03  0.13973220192E+03  0.79215799456E+02 0.  0.
         66    2    3    3    0    0 -0.37758198580E+02  0.10771099694E+02  0.48756509590E+02  0.62633021594E+02  0.20000044775E+01 0.  0.
        -13    1    3    3    0    0  0.37758198580E+02 -0.10771099694E+02  0.66351897441E+02  0.77099180324E+02  0.10566000000E+00 0.  1.
         13    1    4    4    0    0 -0.15519382128E+02  0.46075894166E+01  0.18731640788E+02  0.24758162947E+02  0.10566000000E+00 0. -1.
        -13    1    4    4    0    0 -0.12394413895E+01  0.24327373621E+00  0.15486342034E+01  0.20012068860E+01  0.10566000000E+00 0. -1.
         14    1    4    4    0    0 -0.20999375062E+02  0.59202365412E+01  0.28476234599E+02  0.35873651761E+02  0.00000000000E+00 0. -1.
<mgrwt>
<rscale>  0 0.79215799E+02</rscale>
<asrwt>0</asrwt>
<pdfrwt beam="1">  1        2 0.19603123E-01 0.79215799E+02</pdfrwt>
<pdfrwt beam="2">  1       -1 0.18941381E-02 0.79215799E+02</pdfrwt>
<totfact> 0.19534544E+05</totfact>
</mgrwt>
</event>
<event>
 8    1  0.1520917E-017  0.7771428E+02  0.7818608E-02  0.1335666E+00
         -1   -1    0    0    0  501 -0.00000000000E+00  0.00000000000E+00  0.47373774996E+01  0.47373801806E+01  0.50400000000E-02 0.  1.
          2   -1    0    0  501    0  0.00000000000E+00 -0.00000000000E+00 -0.31871576810E+03  0.31871576811E+03  0.25500000000E-02 0. -1.
         24    2    1    2    0    0  0.35527136788E-14  0.00000000000E+00 -0.31397839060E+03  0.32345314829E+03  0.77714280381E+02 0.  0.
         66    2    3    3    0    0  0.31525046182E+02  0.61667659250E+01 -0.24790019139E+03  0.24998072412E+03  0.20000002456E+01 0.  0.
        -13    1    3    3    0    0 -0.31525046182E+02 -0.61667659250E+01 -0.66078199209E+02  0.73472424170E+02  0.10566000000E+00 0.  1.
         13    1    4    4    0    0  0.16527659855E+02  0.42317995303E+01 -0.13231001587E+03  0.13340548388E+03  0.10566000000E+00 0. -1.
        -13    1    4    4    0    0  0.10391703555E+02  0.13180523245E+01 -0.79652663241E+02  0.80338550461E+02  0.10566000000E+00 0.  1.
         14    1    4    4    0    0  0.46056827725E+01  0.61691407021E+00 -0.35937512284E+02  0.36236689777E+02  0.00000000000E+00 0. -1.
<mgrwt>
<rscale>  0 0.77714280E+02</rscale>
<asrwt>0</asrwt>
<pdfrwt beam="1">  1        2 0.49033178E-01 0.77714280E+02</pdfrwt>
<pdfrwt beam="2">  1       -1 0.72882777E-03 0.77714280E+02</pdfrwt>
<totfact> 0.28111217E+05</totfact>
</mgrwt>
</event>
<event>
 8    1  0.1520917E-017  0.8085856E+02  0.7818608E-02  0.1326632E+00
         -1   -1    0    0    0  501 -0.00000000000E+00  0.00000000000E+00  0.92593928993E+01  0.92593942710E+01  0.50400000000E-02 0.  1.
          2   -1    0    0  501    0  0.00000000000E+00 -0.00000000000E+00 -0.17652629860E+03  0.17652629862E+03  0.25500000000E-02 0. -1.
         24    2    1    2    0    0  0.35527136788E-14 -0.17763568394E-14 -0.16726690571E+03  0.18578569289E+03  0.80858555144E+02 0.  0.
         66    2    3    3    0    0 -0.26186219021E+02  0.10945821533E+02 -0.14975945954E+03  0.15243826554E+03  0.20000011452E+01 0.  0.
        -13    1    3    3    0    0  0.26186219021E+02 -0.10945821533E+02 -0.17507446165E+02  0.33347427350E+02  0.10566000000E+00 0.  1.
         13    1    4    4    0    0 -0.18505264317E+02  0.79376061599E+01 -0.11018836882E+03  0.11201311613E+03  0.10566000000E+00 0. -1.
        -13    1    4    4    0    0 -0.19203731675E+01  0.60580261571E+00 -0.89277996842E+01  0.91526827296E+01  0.10566000000E+00 0.  1.
         14    1    4    4    0    0 -0.57605815367E+01  0.24024127571E+01 -0.30643291040E+02  0.31272466683E+02  0.00000000000E+00 0. -1.
<mgrwt>
<rscale>  0 0.80858555E+02</rscale>
<asrwt>0</asrwt>
<pdfrwt beam="1">  1        2 0.27157890E-01 0.80858555E+02</pdfrwt>
<pdfrwt beam="2">  1       -1 0.14245222E-02 0.80858555E+02</pdfrwt>
<totfact> 0.20545776E+05</totfact>
</mgrwt>
</event>
<event>
 8    1  0.1520917E-017  0.8004626E+02  0.7818608E-02  0.1328920E+00
         -1   -1    0    0    0  501 -0.00000000000E+00  0.00000000000E+00  0.53516857028E+01  0.53516880761E+01  0.50400000000E-02 0.  1.
          2   -1    0    0  501    0  0.00000000000E+00 -0.00000000000E+00 -0.29931697848E+03  0.29931697849E+03  0.25500000000E-02 0. -1.
         24    2    1    2    0    0 -0.35527136788E-14  0.00000000000E+00 -0.29396529277E+03  0.30466866656E+03  0.80046255565E+02 0.  0.
         66    2    3    3    0    0 -0.29329414181E+02  0.45835779667E+01 -0.24910630123E+03  0.25087680835E+03  0.19999837550E+01 0.  0.
        -13    1    3    3    0    0  0.29329414181E+02 -0.45835779667E+01 -0.44858991547E+02  0.53791858211E+02  0.10566000000E+00 0.  1.
         13    1    4    4    0    0 -0.14631563855E+02  0.23273928075E+01 -0.12869403010E+03  0.12954406187E+03  0.10566000000E+00 0. -1.
        -13    1    4    4    0    0 -0.11309465360E+01 -0.12014644032E+00 -0.96825262637E+01  0.97496643079E+01  0.10566000000E+00 0.  1.
        -14    1    4    4    0    0 -0.13566903789E+02  0.23763315995E+01 -0.11072974486E+03  0.11158308217E+03  0.00000000000E+00 0.  1.
<mgrwt>
<rscale>  0 0.80046256E+02</rscale>
<asrwt>0</asrwt>
<pdfrwt beam="1">  1        2 0.46048753E-01 0.80046256E+02</pdfrwt>
<pdfrwt beam="2">  1       -1 0.82333668E-03 0.80046256E+02</pdfrwt>
<totfact> 0.25434878E+05</totfact>
</mgrwt>
</event>
<event>
 8    1  0.1520917E-017  0.8385013E+02  0.7818608E-02  0.1318467E+00
          2   -1    0    0  501    0  0.00000000000E+00  0.00000000000E+00  0.44820675093E+03  0.44820675094E+03  0.25500000000E-02 0. -1.
         -1   -1    0    0    0  501 -0.00000000000E+00 -0.00000000000E+00 -0.39216503777E+01  0.39216536164E+01  0.50400000000E-02 0.  1.
         24    2    1    2    0    0  0.00000000000E+00  0.71054273576E-14  0.44428510055E+03  0.45212840455E+03  0.83850126007E+02 0.  0.
         66    2    3    3    0    0  0.17840799128E+02 -0.35944943831E+02  0.28728149434E+03  0.29007755874E+03  0.19999987744E+01 0.  0.
        -13    1    3    3    0    0 -0.17840799128E+02  0.35944943831E+02  0.15700360621E+03  0.16205084581E+03  0.10566000000E+00 0.  1.
         13    1    4    4    0    0  0.97146634719E+01 -0.19619577707E+02  0.15421934976E+03  0.15576559800E+03  0.10566000000E+00 0. -1.
        -13    1    4    4    0    0  0.45572180191E+01 -0.91862817530E+01  0.79391537568E+02  0.80051129973E+02  0.10566000000E+00 0.  1.
        -14    1    4    4    0    0  0.35689176368E+01 -0.71390843705E+01  0.53670607009E+02  0.54260830766E+02  0.00000000000E+00 0.  1.
<mgrwt>
<rscale>  0 0.83850126E+02</rscale>
<asrwt>0</asrwt>
<pdfrwt beam="1">  1        2 0.68954854E-01 0.83850126E+02</pdfrwt>
<pdfrwt beam="2">  1       -1 0.60333135E-03 0.83850126E+02</pdfrwt>
<totfact> 0.25980991E+05</totfact>
</mgrwt>
</event>
<event>
 8    1  0.1520917E-017  0.7965072E+02  0.7818608E-02  0.1330046E+00
         -1   -1    0    0    0  501 -0.00000000000E+00  0.00000000000E+00  0.29457085590E+02  0.29457086021E+02  0.50400000000E-02 0.  1.
          2   -1    0    0  501    0  0.00000000000E+00 -0.00000000000E+00 -0.53843052824E+02  0.53843052884E+02  0.25500000000E-02 0. -1.
         24    2    1    2    0    0  0.00000000000E+00  0.35527136788E-14 -0.24385967234E+02  0.83300138905E+02  0.79650723435E+02 0.  0.
         66    2    3    3    0    0  0.26012654917E+02 -0.29961215003E+02 -0.15461498683E+02  0.42630863976E+02  0.20000003925E+01 0.  0.
        -13    1    3    3    0    0 -0.26012654917E+02  0.29961215003E+02 -0.89244685515E+01  0.40669274929E+02  0.10566000000E+00 0.  1.
         13    1    4    4    0    0  0.88076366968E+00 -0.10747888836E+01 -0.31885400869E+00  0.14295970413E+01  0.10566000000E+00 0. -1.
        -13    1    4    4    0    0  0.92171495400E+01 -0.96855959897E+01 -0.48857733662E+01  0.14235468406E+02  0.10566000000E+00 0.  1.
         14    1    4    4    0    0  0.15914741707E+02 -0.19200830130E+02 -0.10256871308E+02  0.26965798529E+02  0.00000000000E+00 0. -1.
<mgrwt>
<rscale>  0 0.79650723E+02</rscale>
<asrwt>0</asrwt>
<pdfrwt beam="1">  1        2 0.82835466E-02 0.79650723E+02</pdfrwt>
<pdfrwt beam="2">  1       -1 0.45318594E-02 0.79650723E+02</pdfrwt>
<totfact> 0.15371199E+05</totfact>
</mgrwt>
</event>
<event>
 8    1  0.1520917E-017  0.7957220E+02  0.7818608E-02  0.1330270E+00
         -1   -1    0    0    0  501 -0.00000000000E+00  0.00000000000E+00  0.78707123892E+02  0.78707124054E+02  0.50400000000E-02 0.  1.
          2   -1    0    0  501    0  0.00000000000E+00 -0.00000000000E+00 -0.20111695487E+02  0.20111695649E+02  0.25500000000E-02 0. -1.
         24    2    1    2    0    0  0.71054273576E-14  0.00000000000E+00  0.58595428405E+02  0.98818819703E+02  0.79572199275E+02 0.  0.
         66    2    3    3    0    0  0.35869233398E+02  0.16465827088E+02  0.35298277886E+02  0.52987675787E+02  0.19999993541E+01 0.  0.
        -13    1    3    3    0    0 -0.35869233398E+02 -0.16465827088E+02  0.23297150519E+02  0.45831143915E+02  0.10566000000E+00 0.  1.
         13    1    4    4    0    0  0.67479708303E+01  0.29908954318E+01  0.71014308719E+01  0.10243146503E+02  0.10566000000E+00 0. -1.
        -13    1    4    4    0    0  0.12749278542E+01  0.79673170276E+00  0.16725404386E+01  0.22513946775E+01  0.10566000000E+00 0.  1.
         14    1    4    4    0    0  0.27846334713E+02  0.12678199953E+02  0.26524306575E+02  0.40493134607E+02  0.00000000000E+00 0. -1.
<mgrwt>
<rscale>  0 0.79572199E+02</rscale>
<asrwt>0</asrwt>
<pdfrwt beam="1">  1        2 0.30941069E-02 0.79572199E+02</pdfrwt>
<pdfrwt beam="2">  1       -1 0.12108789E-01 0.79572199E+02</pdfrwt>
<totfact> 0.12622441E+05</totfact>
</mgrwt>
</event>
<event>
 8    1  0.1520917E-017  0.7997024E+02  0.7818608E-02  0.1329136E+00
         -1   -1    0    0    0  501 -0.00000000000E+00  0.00000000000E+00  0.39883222112E+01  0.39883253957E+01  0.50400000000E-02 0.  1.
          2   -1    0    0  501    0  0.00000000000E+00 -0.00000000000E+00 -0.40087264692E+03  0.40087264692E+03  0.25500000000E-02 0. -1.
         24    2    1    2    0    0  0.00000000000E+00  0.00000000000E+00 -0.39688432470E+03  0.40486097232E+03  0.79970242661E+02 0.  0.
         66    2    3    3    0    0 -0.19145490003E+01  0.32380110818E+02 -0.31671856321E+03  0.31838150913E+03  0.19999989873E+01 0.  0.
        -13    1    3    3    0    0  0.19145490003E+01 -0.32380110818E+02 -0.80165761491E+02  0.86479463192E+02  0.10566000000E+00 0.  1.
         13    1    4    4    0    0 -0.15867207752E+01  0.25343995599E+02 -0.24107993612E+03  0.24241366001E+03  0.10566000000E+00 0. -1.
        -13    1    4    4    0    0 -0.36905245224E+00  0.60553536569E+01 -0.63226556300E+02  0.63517022075E+02  0.10566000000E+00 0.  1.
        -14    1    4    4    0    0  0.41224227144E-01  0.98076156199E+00 -0.12412070793E+02  0.12450827043E+02  0.00000000000E+00 0.  1.
<mgrwt>
<rscale>  0 0.79970243E+02</rscale>
<asrwt>0</asrwt>
<pdfrwt beam="1">  1        2 0.61672683E-01 0.79970243E+02</pdfrwt>
<pdfrwt beam="2">  1       -1 0.61358860E-03 0.79970243E+02</pdfrwt>
<totfact> 0.28302623E+05</totfact>
</mgrwt>
</event>
<event>
 8    1  0.1520917E-017  0.7989529E+02  0.7818608E-02  0.1329349E+00
          2   -1    0    0  501    0  0.00000000000E+00  0.00000000000E+00  0.10855155875E+03  0.10855155878E+03  0.25500000000E-02 0. -1.
         -1   -1    0    0    0  501 -0.00000000000E+00 -0.00000000000E+00 -0.14700978494E+02  0.14700979358E+02  0.50400000000E-02 0.  1.
         24    2    1    2    0    0 -0.35527136788E-14  0.35527136788E-14  0.93850580252E+02  0.12325253813E+03  0.79895286111E+02 0.  0.
         66    2    3    3    0    0 -0.25213611469E+02 -0.17874713127E+02  0.85938180300E+02  0.91348795254E+02  0.19999970633E+01 0.  0.
        -13    1    3    3    0    0  0.25213611469E+02  0.17874713127E+02  0.79123999521E+01  0.31903742880E+02  0.10566000000E+00 0.  1.
         13    1    4    4    0    0 -0.65975304529E+01 -0.51963831756E+01  0.21595157405E+02  0.23170925609E+02  0.10566000000E+00 0. -1.
        -13    1    4    4    0    0 -0.14241713420E+02 -0.93248768490E+01  0.49379816021E+02  0.52231763552E+02  0.10566000000E+00 0.  1.
        -14    1    4    4    0    0 -0.43743675966E+01 -0.33534531027E+01  0.14963206874E+02  0.15946106094E+02  0.00000000000E+00 0.  1.
<mgrwt>
<rscale>  0 0.79895286E+02</rscale>
<asrwt>0</asrwt>
<pdfrwt beam="1">  1        2 0.16700240E-01 0.79895286E+02</pdfrwt>
<pdfrwt beam="2">  1       -1 0.22616891E-02 0.79895286E+02</pdfrwt>
<totfact> 0.18207723E+05</totfact>
</mgrwt>
</event>
<event>
 8    1  0.1520917E-017  0.8070342E+02  0.7818608E-02  0.1327067E+00
         -1   -1    0    0    0  501 -0.00000000000E+00  0.00000000000E+00  0.12271953818E+02  0.12271954853E+02  0.50400000000E-02 0.  1.
          2   -1    0    0  501    0  0.00000000000E+00 -0.00000000000E+00 -0.13268142313E+03  0.13268142316E+03  0.25500000000E-02 0. -1.
         24    2    1    2    0    0  0.00000000000E+00  0.00000000000E+00 -0.12040946931E+03  0.14495337801E+03  0.80703416878E+02 0.  0.
         66    2    3    3    0    0 -0.19315828710E+02 -0.39162375335E+01 -0.12343398205E+03  0.12501354359E+03  0.20000006262E+01 0.  0.
        -13    1    3    3    0    0  0.19315828710E+02  0.39162375335E+01  0.30245127346E+01  0.19939834415E+02  0.10566000000E+00 0.  1.
         13    1    4    4    0    0 -0.20219806336E+01 -0.56142950421E+00 -0.10883671590E+02  0.11084632609E+02  0.10566000000E+00 0. -1.
        -13    1    4    4    0    0 -0.38260670192E+01 -0.12579184078E+01 -0.27395359409E+02  0.27690034827E+02  0.10566000000E+00 0. -1.
        -14    1    4    4    0    0 -0.13467781057E+02 -0.20968896214E+01 -0.85154951049E+02  0.86238876157E+02  0.00000000000E+00 0.  1.
<mgrwt>
<rscale>  0 0.80703417E+02</rscale>
<asrwt>0</asrwt>
<pdfrwt beam="1">  1        2 0.20412526E-01 0.80703417E+02</pdfrwt>
<pdfrwt beam="2">  1       -1 0.18879931E-02 0.80703417E+02</pdfrwt>
<totfact> 0.18823976E+05</totfact>
</mgrwt>
</event>
<event>
 8    1  0.1520917E-017  0.7918513E+02  0.7818608E-02  0.1331380E+00
         -1   -1    0    0    0  501 -0.00000000000E+00  0.00000000000E+00  0.13980364937E+01  0.13980455784E+01  0.50400000000E-02 0.  1.
          2   -1    0    0  501    0  0.00000000000E+00 -0.00000000000E+00 -0.11212627843E+04  0.11212627843E+04  0.25500000000E-02 0. -1.
         24    2    1    2    0    0  0.00000000000E+00  0.00000000000E+00 -0.11198647478E+04  0.11226608299E+04  0.79185134785E+02 0.  0.
         66    2    3    3    0    0  0.28249569586E+02 -0.17914120575E+01 -0.95224904267E+03  0.95267176226E+03  0.20000001363E+01 0.  0.
        -13    1    3    3    0    0 -0.28249569586E+02  0.17914120575E+01 -0.16761570517E+03  0.16998906765E+03  0.10566000000E+00 0.  1.
         13    1    4    4    0    0  0.68934370785E+01  0.50613095471E-01 -0.23268148216E+03  0.23278360196E+03  0.10566000000E+00 0.  1.
        -13    1    4    4    0    0  0.76841171297E+01 -0.94838622338E+00 -0.23962374064E+03  0.23974881300E+03  0.10566000000E+00 0. -1.
         14    1    4    4    0    0  0.13672015377E+02 -0.89363892959E+00 -0.47994381988E+03  0.48013934731E+03  0.00000000000E+00 0. -1.
<mgrwt>
<rscale>  0 0.79185135E+02</rscale>
<asrwt>0</asrwt>
<pdfrwt beam="1">  1        2 0.17250125E+00 0.79185135E+02</pdfrwt>
<pdfrwt beam="2">  1       -1 0.21508413E-03 0.79185135E+02</pdfrwt>
<totfact> 0.36173441E+05</totfact>
</mgrwt>
</event>
<event>
 8    1  0.1520917E-017  0.7631809E+02  0.7818608E-02  0.1339837E+00
          2   -1    0    0  501    0  0.00000000000E+00  0.00000000000E+00  0.60134070064E+01  0.60134075471E+01  0.25500000000E-02 0. -1.
         -1   -1    0    0    0  501 -0.00000000000E+00 -0.00000000000E+00 -0.24214436290E+03  0.24214436296E+03  0.50400000000E-02 0.  1.
         24    2    1    2    0    0  0.00000000000E+00  0.00000000000E+00 -0.23613095590E+03  0.24815777050E+03  0.76318089128E+02 0.  0.
         66    2    3    3    0    0 -0.36315159785E+02  0.10571540623E+02 -0.10236356512E+03  0.10914599294E+03  0.20000024648E+01 0.  0.
        -13    1    3    3    0    0  0.36315159785E+02 -0.10571540623E+02 -0.13376739077E+03  0.13901177756E+03  0.10566000000E+00 0.  1.
         13    1    4    4    0    0 -0.13232830996E+02  0.37940161327E+01 -0.36748227230E+02  0.39242142438E+02  0.10566000000E+00 0. -1.
        -13    1    4    4    0    0 -0.20057527604E+02  0.64196140733E+01 -0.57053405461E+02  0.60816265071E+02  0.10566000000E+00 0.  1.
        -14    1    4    4    0    0 -0.30248011848E+01  0.35791041704E+00 -0.85619324320E+01  0.90875854354E+01  0.00000000000E+00 0.  1.
<mgrwt>
<rscale>  0 0.76318089E+02</rscale>
<asrwt>0</asrwt>
<pdfrwt beam="1">  1        2 0.92513977E-03 0.76318089E+02</pdfrwt>
<pdfrwt beam="2">  1       -1 0.37252972E-01 0.76318089E+02</pdfrwt>
<totfact> 0.10560904E+05</totfact>
</mgrwt>
</event>
<event>
 8    1  0.1520917E-017  0.7816963E+02  0.7818608E-02  0.1334327E+00
          2   -1    0    0  501    0  0.00000000000E+00  0.00000000000E+00  0.17509476815E+02  0.17509477001E+02  0.25500000000E-02 0. -1.
         -1   -1    0    0    0  501 -0.00000000000E+00 -0.00000000000E+00 -0.87245484449E+02  0.87245484595E+02  0.50400000000E-02 0.  1.
         24    2    1    2    0    0  0.00000000000E+00  0.00000000000E+00 -0.69736007634E+02  0.10475496160E+03  0.78169631047E+02 0.  0.
         66    2    3    3    0    0 -0.28278304175E+02 -0.21939626776E+02 -0.13931694845E+02  0.38459092946E+02  0.19999997139E+01 0.  0.
        -13    1    3    3    0    0  0.28278304175E+02  0.21939626776E+02 -0.55804312789E+02  0.66295868649E+02  0.10566000000E+00 0.  1.
         13    1    4    4    0    0 -0.51178689197E+01 -0.33473774834E+01 -0.24510438282E+01  0.65891045051E+01  0.10566000000E+00 0. -1.
        -13    1    4    4    0    0 -0.85105399227E+01 -0.71679615290E+01 -0.36695738524E+01  0.11716906527E+02  0.10566000000E+00 0.  1.
        -14    1    4    4    0    0 -0.14649895333E+02 -0.11424287764E+02 -0.78110771647E+01  0.20153081914E+02  0.00000000000E+00 0.  1.
<mgrwt>
<rscale>  0 0.78169631E+02</rscale>
<asrwt>0</asrwt>
<pdfrwt beam="1">  1        2 0.26937657E-02 0.78169631E+02</pdfrwt>
<pdfrwt beam="2">  1       -1 0.13422382E-01 0.78169631E+02</pdfrwt>
<totfact> 0.12917845E+05</totfact>
</mgrwt>
</event>
<event>
 8    1  0.1520917E-017  0.8190352E+02  0.7818608E-02  0.1323735E+00
          2   -1    0    0  501    0  0.00000000000E+00  0.00000000000E+00  0.50048300184E+03  0.50048300185E+03  0.25500000000E-02 0. -1.
         -1   -1    0    0    0  501 -0.00000000000E+00 -0.00000000000E+00 -0.33508544333E+01  0.33508582237E+01  0.50400000000E-02 0.  1.
         24    2    1    2    0    0  0.00000000000E+00  0.00000000000E+00  0.49713214741E+03  0.50383386007E+03  0.81903519876E+02 0.  0.
         66    2    3    3    0    0 -0.40917230212E+01  0.33259123116E+02  0.39325969405E+03  0.39468987628E+03  0.20000009944E+01 0.  0.
        -13    1    3    3    0    0  0.40917230212E+01 -0.33259123116E+02  0.10387245336E+03  0.10914398379E+03  0.10566000000E+00 0.  1.
         13    1    4    4    0    0 -0.19979533590E+01  0.12370902266E+02  0.14084247862E+03  0.14139888963E+03  0.10566000000E+00 0. -1.
        -13    1    4    4    0    0 -0.95519021339E+00  0.11997095601E+02  0.13896426783E+03  0.13948448512E+03  0.10566000000E+00 0.  1.
        -14    1    4    4    0    0 -0.11385794488E+01  0.88911252492E+01  0.11345294760E+03  0.11380650153E+03  0.00000000000E+00 0.  1.
<mgrwt>
<rscale>  0 0.81903520E+02</rscale>
<asrwt>0</asrwt>
<pdfrwt beam="1">  1        2 0.76997363E-01 0.81903520E+02</pdfrwt>
<pdfrwt beam="2">  1       -1 0.51551651E-03 0.81903520E+02</pdfrwt>
<totfact> 0.28647927E+05</totfact>
</mgrwt>
</event>
<event>
 8    1  0.1520917E-017  0.7943590E+02  0.7818608E-02  0.1330660E+00
         -1   -1    0    0    0  501 -0.00000000000E+00  0.00000000000E+00  0.92142513347E+01  0.92142527131E+01  0.50400000000E-02 0.  1.
          2   -1    0    0  501    0  0.00000000000E+00 -0.00000000000E+00 -0.17120386360E+03  0.17120386362E+03  0.25500000000E-02 0. -1.
         24    2    1    2    0    0  0.44408920985E-15  0.00000000000E+00 -0.16198961226E+03  0.18041811633E+03  0.79435900064E+02 0.  0.
         66    2    3    3    0    0  0.38869622964E+01 -0.24124126891E+02 -0.15209008690E+03  0.15405348585E+03  0.19999985560E+01 0.  0.
        -13    1    3    3    0    0 -0.38869622964E+01  0.24124126891E+02 -0.98995253662E+01  0.26364630486E+02  0.10566000000E+00 0.  1.
         13    1    4    4    0    0  0.18918428136E+01 -0.63635918144E+01 -0.40191060085E+02  0.40735817713E+02  0.10566000000E+00 0. -1.
        -13    1    4    4    0    0  0.37344599558E+00 -0.40110837712E+01 -0.25327500588E+02  0.25646085569E+02  0.10566000000E+00 0.  1.
         14    1    4    4    0    0  0.16216734872E+01 -0.13749451305E+02 -0.86571526225E+02  0.87671582563E+02  0.00000000000E+00 0. -1.
<mgrwt>
<rscale>  0 0.79435900E+02</rscale>
<asrwt>0</asrwt>
<pdfrwt beam="1">  1        2 0.26339054E-01 0.79435900E+02</pdfrwt>
<pdfrwt beam="2">  1       -1 0.14175774E-02 0.79435900E+02</pdfrwt>
<totfact> 0.21313836E+05</totfact>
</mgrwt>
</event>
<event>
 8    1  0.1520917E-017  0.7210629E+02  0.7818608E-02  0.1353074E+00
          2   -1    0    0  501    0  0.00000000000E+00  0.00000000000E+00  0.23845976278E+02  0.23845976414E+02  0.25500000000E-02 0. -1.
         -1   -1    0    0    0  501 -0.00000000000E+00 -0.00000000000E+00 -0.54509370364E+02  0.54509370597E+02  0.50400000000E-02 0.  1.
         24    2    1    2    0    0  0.17763568394E-14 -0.71054273576E-14 -0.30663394086E+02  0.78355347011E+02  0.72106287302E+02 0.  0.
         66    2    3    3    0    0  0.88173261329E+01 -0.34042497149E+02 -0.68433043780E+01  0.35881299759E+02  0.20000013362E+01 0.  0.
        -13    1    3    3    0    0 -0.88173261329E+01  0.34042497149E+02 -0.23820089708E+02  0.42474047252E+02  0.10566000000E+00 0.  1.
         13    1    4    4    0    0  0.50342291278E+01 -0.18530385734E+02 -0.29197454082E+01  0.19423046508E+02  0.10566000000E+00 0. -1.
        -13    1    4    4    0    0  0.62848875545E+00 -0.27659916938E+01 -0.96854615605E+00  0.29991588584E+01  0.10566000000E+00 0.  1.
         14    1    4    4    0    0  0.31546082496E+01 -0.12746119721E+02 -0.29550128137E+01  0.13459094393E+02  0.00000000000E+00 0. -1.
<mgrwt>
<rscale>  0 0.72106287E+02</rscale>
<asrwt>0</asrwt>
<pdfrwt beam="1">  1        2 0.36686118E-02 0.72106287E+02</pdfrwt>
<pdfrwt beam="2">  1       -1 0.83860570E-02 0.72106287E+02</pdfrwt>
<totfact> 0.17219094E+05</totfact>
</mgrwt>
</event>
<event>
 8    1  0.1520917E-017  0.7883281E+02  0.7818608E-02  0.1332397E+00
          2   -1    0    0  501    0  0.00000000000E+00  0.00000000000E+00  0.22227013028E+02  0.22227013174E+02  0.25500000000E-02 0. -1.
         -1   -1    0    0    0  501 -0.00000000000E+00 -0.00000000000E+00 -0.69899310475E+02  0.69899310657E+02  0.50400000000E-02 0.  1.
         24    2    1    2    0    0  0.00000000000E+00  0.00000000000E+00 -0.47672297447E+02  0.92126323830E+02  0.78832807882E+02 0.  0.
         66    2    3    3    0    0 -0.36043173612E+02 -0.15006280331E+02 -0.29962958979E+02  0.49255230464E+02  0.20000009816E+01 0.  0.
        -13    1    3    3    0    0  0.36043173612E+02  0.15006280331E+02 -0.17709338468E+02  0.42871093366E+02  0.10566000000E+00 0.  1.
         13    1    4    4    0    0 -0.14776756289E+02 -0.54817581569E+01 -0.12111697432E+02  0.19877287985E+02  0.10566000000E+00 0. -1.
        -13    1    4    4    0    0 -0.83440348904E+01 -0.37109192292E+01 -0.62768867400E+01  0.11081710651E+02  0.10566000000E+00 0.  1.
        -14    1    4    4    0    0 -0.12922382432E+02 -0.58136029449E+01 -0.11574374807E+02  0.18296231828E+02  0.00000000000E+00 0.  1.
<mgrwt>
<rscale>  0 0.78832808E+02</rscale>
<asrwt>0</asrwt>
<pdfrwt beam="1">  1        2 0.34195405E-02 0.78832808E+02</pdfrwt>
<pdfrwt beam="2">  1       -1 0.10753740E-01 0.78832808E+02</pdfrwt>
<totfact> 0.13223636E+05</totfact>
</mgrwt>
</event>
<event>
 8    1  0.1520917E-017  0.8649164E+02  0.7818608E-02  0.1311577E+00
         -1   -1    0    0    0  501 -0.00000000000E+00  0.00000000000E+00  0.12813322995E+02  0.12813323986E+02  0.50400000000E-02 0.  1.
          2   -1    0    0  501    0  0.00000000000E+00 -0.00000000000E+00 -0.14595752218E+03  0.14595752220E+03  0.25500000000E-02 0. -1.
         24    2    1    2    0    0  0.00000000000E+00  0.00000000000E+00 -0.13314419918E+03  0.15877084619E+03  0.86491640189E+02 0.  0.
         66    2    3    3    0    0 -0.29681883941E+02  0.27150911988E+02 -0.37582410512E+02  0.55087419959E+02  0.20000004440E+01 0.  0.
        -13    1    3    3    0    0  0.29681883941E+02 -0.27150911988E+02 -0.95561788670E+02  0.10368342623E+03  0.10566000000E+00 0.  1.
         13    1    4    4    0    0 -0.23580672907E+01  0.19897783010E+01 -0.24784543901E+01  0.39589896734E+01  0.10566000000E+00 0.  1.
        -13    1    4    4    0    0 -0.55961433746E+01  0.45873952748E+01 -0.63014924097E+01  0.95958838416E+01  0.10566000000E+00 0. -1.
        -14    1    4    4    0    0 -0.21727673276E+02  0.20573738412E+02 -0.28802463712E+02  0.41532546444E+02  0.00000000000E+00 0.  1.
<mgrwt>
<rscale>  0 0.86491640E+02</rscale>
<asrwt>0</asrwt>
<pdfrwt beam="1">  1        2 0.22455002E-01 0.86491640E+02</pdfrwt>
<pdfrwt beam="2">  1       -1 0.19712806E-02 0.86491640E+02</pdfrwt>
<totfact> 0.16126013E+05</totfact>
</mgrwt>
</event>
<event>
 8    1  0.1520917E-017  0.8290001E+02  0.7818608E-02  0.1321017E+00
          2   -1    0    0  501    0  0.00000000000E+00  0.00000000000E+00  0.12250253834E+03  0.12250253837E+03  0.25500000000E-02 0. -1.
         -1   -1    0    0    0  501 -0.00000000000E+00 -0.00000000000E+00 -0.14025038220E+02  0.14025039126E+02  0.50400000000E-02 0.  1.
         24    2    1    2    0    0  0.00000000000E+00  0.00000000000E+00  0.10847750012E+03  0.13652757749E+03  0.82900008346E+02 0.  0.
         66    2    3    3    0    0 -0.74703997194E+01 -0.33260838967E+02  0.93033790943E+02  0.99102858417E+02  0.20000020957E+01 0.  0.
        -13    1    3    3    0    0  0.74703997194E+01  0.33260838967E+02  0.15443709178E+02  0.37424719077E+02  0.10566000000E+00 0.  1.
         13    1    4    4    0    0 -0.39072329503E+00 -0.27022495864E+01  0.87652816989E+01  0.91812931996E+01  0.10566000000E+00 0. -1.
        -13    1    4    4    0    0 -0.30758041860E+01 -0.14439399391E+02  0.38690533751E+02  0.41411657684E+02  0.10566000000E+00 0.  1.
        -14    1    4    4    0    0 -0.40038722383E+01 -0.16119189990E+02  0.45577975493E+02  0.48509907534E+02  0.00000000000E+00 0.  1.
<mgrwt>
<rscale>  0 0.82900008E+02</rscale>
<asrwt>0</asrwt>
<pdfrwt beam="1">  1        2 0.18846544E-01 0.82900008E+02</pdfrwt>
<pdfrwt beam="2">  1       -1 0.21576983E-02 0.82900008E+02</pdfrwt>
<totfact> 0.17096862E+05</totfact>
</mgrwt>
</event>
<event>
 8    1  0.1520917E-017  0.7971632E+02  0.7818608E-02  0.1329858E+00
          2   -1    0    0  501    0  0.00000000000E+00  0.00000000000E+00  0.42764789722E+03  0.42764789723E+03  0.25500000000E-02 0. -1.
         -1   -1    0    0    0  501 -0.00000000000E+00 -0.00000000000E+00 -0.37149068380E+01  0.37149102569E+01  0.50400000000E-02 0.  1.
         24    2    1    2    0    0 -0.17763568394E-14  0.71054273576E-14  0.42393299038E+03  0.43136280749E+03  0.79716317945E+02 0.  0.
         66    2    3    3    0    0  0.63865242459E+01 -0.32251677601E+02  0.33378705819E+03  0.33540834612E+03  0.20000087972E+01 0.  0.
        -13    1    3    3    0    0 -0.63865242459E+01  0.32251677601E+02  0.90145932196E+02  0.95954461363E+02  0.10566000000E+00 0.  1.
         13    1    4    4    0    0  0.27423344586E+01 -0.97366830982E+01  0.10684392364E+03  0.10732175259E+03  0.10566000000E+00 0. -1.
        -13    1    4    4    0    0  0.26177155367E+01 -0.15378764325E+02  0.15571813648E+03  0.15649762943E+03  0.10566000000E+00 0.  1.
         14    1    4    4    0    0  0.10264742506E+01 -0.71362301781E+01  0.71224998068E+02  0.71588964095E+02  0.00000000000E+00 0. -1.
<mgrwt>
<rscale>  0 0.79716318E+02</rscale>
<asrwt>0</asrwt>
<pdfrwt beam="1">  1        2 0.65791999E-01 0.79716318E+02</pdfrwt>
<pdfrwt beam="2">  1       -1 0.57152426E-03 0.79716318E+02</pdfrwt>
<totfact> 0.29184016E+05</totfact>
</mgrwt>
</event>
<event>
 8    1  0.1520917E-017  0.7807975E+02  0.7818608E-02  0.1334591E+00
          2   -1    0    0  501    0  0.00000000000E+00  0.00000000000E+00  0.99211323038E+02  0.99211323071E+02  0.25500000000E-02 0. -1.
         -1   -1    0    0    0  501 -0.00000000000E+00 -0.00000000000E+00 -0.15362277265E+02  0.15362278092E+02  0.50400000000E-02 0.  1.
         24    2    1    2    0    0  0.00000000000E+00 -0.17763568394E-14  0.83849045773E+02  0.11457360116E+03  0.78079751577E+02 0.  0.
         66    2    3    3    0    0 -0.24177766291E+02 -0.13648669034E+02  0.82171784544E+02  0.86758588697E+02  0.19999970591E+01 0.  0.
        -13    1    3    3    0    0  0.24177766291E+02  0.13648669034E+02  0.16772612291E+01  0.27815012466E+02  0.10566000000E+00 0.  1.
         13    1    4    4    0    0 -0.60687156567E+01 -0.33987378018E+01  0.20769537631E+02  0.21903551899E+02  0.10566000000E+00 0. -1.
        -13    1    4    4    0    0 -0.14667831255E+02 -0.75834809914E+01  0.49506163851E+02  0.52187411134E+02  0.10566000000E+00 0.  1.
        -14    1    4    4    0    0 -0.34412193794E+01 -0.26664502409E+01  0.11896083063E+02  0.12667625663E+02  0.00000000000E+00 0.  1.
<mgrwt>
<rscale>  0 0.78079752E+02</rscale>
<asrwt>0</asrwt>
<pdfrwt beam="1">  1        2 0.15263281E-01 0.78079752E+02</pdfrwt>
<pdfrwt beam="2">  1       -1 0.23634273E-02 0.78079752E+02</pdfrwt>
<totfact> 0.18874588E+05</totfact>
</mgrwt>
</event>
<event>
 8    1  0.1520917E-017  0.8068373E+02  0.7818608E-02  0.1327122E+00
         -1   -1    0    0    0  501 -0.00000000000E+00  0.00000000000E+00  0.12373367331E+01  0.12373469977E+01  0.50400000000E-02 0.  1.
          2   -1    0    0  501    0  0.00000000000E+00 -0.00000000000E+00 -0.13152921178E+04  0.13152921178E+04  0.25500000000E-02 0. -1.
         24    2    1    2    0    0 -0.35527136788E-14 -0.17763568394E-14 -0.13140547811E+04  0.13165294648E+04  0.80683728486E+02 0.  0.
         66    2    3    3    0    0 -0.24201394117E+02 -0.95607624595E+01 -0.11599205173E+04  0.11602140846E+04  0.19999995041E+01 0.  0.
        -13    1    3    3    0    0  0.24201394117E+02  0.95607624595E+01 -0.15413426384E+03  0.15631538027E+03  0.10566000000E+00 0.  1.
         13    1    4    4    0    0 -0.12558251583E+02 -0.47012491080E+01 -0.63069270937E+03  0.63083525286E+03  0.10566000000E+00 0. -1.
        -13    1    4    4    0    0 -0.44303368964E+01 -0.22817415639E+01 -0.20793312364E+03  0.20799285877E+03  0.10566000000E+00 0.  1.
        -14    1    4    4    0    0 -0.72128056371E+01 -0.25777717876E+01 -0.32129468425E+03  0.32138597294E+03  0.00000000000E+00 0.  1.
<mgrwt>
<rscale>  0 0.80683728E+02</rscale>
<asrwt>0</asrwt>
<pdfrwt beam="1">  1        2 0.20235151E+00 0.80683728E+02</pdfrwt>
<pdfrwt beam="2">  1       -1 0.19036134E-03 0.80683728E+02</pdfrwt>
<totfact> 0.33780685E+05</totfact>
</mgrwt>
</event>
<event>
 8    1  0.1520917E-017  0.7955846E+02  0.7818608E-02  0.1330309E+00
         -1   -1    0    0    0  501 -0.00000000000E+00  0.00000000000E+00  0.20548022546E+01  0.20548084356E+01  0.50400000000E-02 0.  1.
          2   -1    0    0  501    0  0.00000000000E+00 -0.00000000000E+00 -0.77009103764E+03  0.77009103764E+03  0.25500000000E-02 0. -1.
         24    2    1    2    0    0  0.00000000000E+00  0.35527136788E-14 -0.76803623539E+03  0.77214584608E+03  0.79558461230E+02 0.  0.
         66    2    3    3    0    0  0.56320450404E+01 -0.16003571341E+02 -0.73318851275E+03  0.73338750293E+03  0.19999987345E+01 0.  0.
        -13    1    3    3    0    0 -0.56320450404E+01  0.16003571341E+02 -0.34847722637E+02  0.38758343153E+02  0.10566000000E+00 0.  1.
         13    1    4    4    0    0  0.43969528424E+01 -0.12372671727E+02 -0.55511751202E+03  0.55527279739E+03  0.10566000000E+00 0. -1.
        -13    1    4    4    0    0  0.37327552056E+00 -0.12125546403E+01 -0.41320072141E+02  0.41339680080E+02  0.10566000000E+00 0.  1.
         14    1    4    4    0    0  0.86181667747E+00 -0.24183449739E+01 -0.13675092859E+03  0.13677502546E+03  0.00000000000E+00 0. -1.
<mgrwt>
<rscale>  0 0.79558461E+02</rscale>
<asrwt>0</asrwt>
<pdfrwt beam="1">  1        2 0.11847531E+00 0.79558461E+02</pdfrwt>
<pdfrwt beam="2">  1       -1 0.31612451E-03 0.79558461E+02</pdfrwt>
<totfact> 0.34623202E+05</totfact>
</mgrwt>
</event>
<event>
 8    1  0.1520917E-017  0.8307136E+02  0.7818608E-02  0.1320555E+00
          2   -1    0    0  501    0  0.00000000000E+00  0.00000000000E+00  0.55762112109E+03  0.55762112110E+03  0.25500000000E-02 0. -1.
         -1   -1    0    0    0  501 -0.00000000000E+00 -0.00000000000E+00 -0.30938776340E+01  0.30938817391E+01  0.50400000000E-02 0.  1.
         24    2    1    2    0    0  0.00000000000E+00  0.00000000000E+00  0.55452724346E+03  0.56071500284E+03  0.83071358899E+02 0.  0.
         66    2    3    3    0    0  0.29096081707E+02  0.21353705065E+02  0.41585978073E+03  0.41742774215E+03  0.19999999707E+01 0.  0.
        -13    1    3    3    0    0 -0.29096081707E+02 -0.21353705065E+02  0.13866746273E+03  0.14328726069E+03  0.10566000000E+00 0.  1.
         13    1    4    4    0    0  0.23372888097E+02  0.17831652507E+02  0.33775203314E+03  0.33902906480E+03  0.10566000000E+00 0. -1.
        -13    1    4    4    0    0  0.10953913198E+01  0.85503279381E+00  0.18211192957E+02  0.18264437472E+02  0.10566000000E+00 0.  1.
        -14    1    4    4    0    0  0.46278022900E+01  0.26670197642E+01  0.59896554631E+02  0.60134239873E+02  0.00000000000E+00 0.  1.
<mgrwt>
<rscale>  0 0.83071359E+02</rscale>
<asrwt>0</asrwt>
<pdfrwt beam="1">  1        2 0.85787904E-01 0.83071359E+02</pdfrwt>
<pdfrwt beam="2">  1       -1 0.47598128E-03 0.83071359E+02</pdfrwt>
<totfact> 0.28544667E+05</totfact>
</mgrwt>
</event>
<event>
 8    1  0.1520917E-017  0.8066868E+02  0.7818608E-02  0.1327164E+00
          2   -1    0    0  501    0  0.00000000000E+00  0.00000000000E+00  0.61453086910E+02  0.61453086963E+02  0.25500000000E-02 0. -1.
         -1   -1    0    0    0  501 -0.00000000000E+00 -0.00000000000E+00 -0.26473183054E+02  0.26473183534E+02  0.50400000000E-02 0.  1.
         24    2    1    2    0    0 -0.71054273576E-14  0.00000000000E+00  0.34979903856E+02  0.87926270497E+02  0.80668676509E+02 0.  0.
         66    2    3    3    0    0  0.23096555954E+02  0.51984148611E+01  0.53060689909E+02  0.58137003935E+02  0.19999997327E+01 0.  0.
        -13    1    3    3    0    0 -0.23096555954E+02 -0.51984148611E+01 -0.18080786052E+02  0.29789266562E+02  0.10566000000E+00 0.  1.
         13    1    4    4    0    0  0.10785282538E+02  0.27562020672E+01  0.24244933770E+02  0.26678585923E+02  0.10566000000E+00 0. -1.
        -13    1    4    4    0    0  0.34702210645E+00 -0.82487501688E-01  0.12072796070E+01  0.12632959334E+01  0.10566000000E+00 0.  1.
        -14    1    4    4    0    0  0.11964251310E+02  0.25247002956E+01  0.27608476531E+02  0.30195122079E+02  0.00000000000E+00 0.  1.
<mgrwt>
<rscale>  0 0.80668677E+02</rscale>
<asrwt>0</asrwt>
<pdfrwt beam="1">  1        2 0.94543212E-02 0.80668677E+02</pdfrwt>
<pdfrwt beam="2">  1       -1 0.40727974E-02 0.80668677E+02</pdfrwt>
<totfact> 0.15302420E+05</totfact>
</mgrwt>
</event>
<event>
 8    1  0.1520917E-017  0.7557731E+02  0.7818608E-02  0.1342093E+00
         -1   -1    0    0    0  501 -0.00000000000E+00  0.00000000000E+00  0.47480067077E+02  0.47480067345E+02  0.50400000000E-02 0.  1.
          2   -1    0    0  501    0  0.00000000000E+00 -0.00000000000E+00 -0.30075412129E+02  0.30075412237E+02  0.25500000000E-02 0. -1.
         24    2    1    2    0    0  0.00000000000E+00  0.00000000000E+00  0.17404654948E+02  0.77555479582E+02  0.75577314052E+02 0.  0.
         66    2    3    3    0    0  0.15805257241E+02  0.32355923789E+01 -0.26327626082E+02  0.30942189818E+02  0.20000002901E+01 0.  0.
        -13    1    3    3    0    0 -0.15805257241E+02 -0.32355923789E+01  0.43732281030E+02  0.46613289764E+02  0.10566000000E+00 0.  1.
         13    1    4    4    0    0  0.42011648378E+01  0.46252260325E+00 -0.69020310953E+01  0.80940045978E+01  0.10566000000E+00 0. -1.
        -13    1    4    4    0    0  0.59516227278E+01  0.11621531185E+01 -0.84991152486E+01  0.10441194233E+02  0.10566000000E+00 0. -1.
         14    1    4    4    0    0  0.56524696758E+01  0.16109166571E+01 -0.10926479738E+02  0.12406990988E+02  0.00000000000E+00 0. -1.
<mgrwt>
<rscale>  0 0.75577314E+02</rscale>
<asrwt>0</asrwt>
<pdfrwt beam="1">  1        2 0.46269865E-02 0.75577314E+02</pdfrwt>
<pdfrwt beam="2">  1       -1 0.73046258E-02 0.75577314E+02</pdfrwt>
<totfact> 0.15775849E+05</totfact>
</mgrwt>
</event>
<event>
 8    1  0.1520917E-017  0.8103336E+02  0.7818608E-02  0.1326144E+00
         -1   -1    0    0    0  501 -0.00000000000E+00  0.00000000000E+00  0.16769142823E+01  0.16769218562E+01  0.50400000000E-02 0.  1.
          2   -1    0    0  501    0  0.00000000000E+00 -0.00000000000E+00 -0.97893960532E+03  0.97893960532E+03  0.25500000000E-02 0. -1.
         24    2    1    2    0    0  0.35527136788E-14  0.00000000000E+00 -0.97726269104E+03  0.98061652718E+03  0.81033364015E+02 0.  0.
         66    2    3    3    0    0 -0.17931909951E+02  0.10877215913E+02 -0.90808541493E+03  0.90832977934E+03  0.19999984714E+01 0.  0.
        -13    1    3    3    0    0  0.17931909951E+02 -0.10877215913E+02 -0.69177276104E+02  0.72286747843E+02  0.10566000000E+00 0.  1.
         13    1    4    4    0    0 -0.19906671941E+01  0.12595242876E+01 -0.10681518998E+03  0.10684121458E+03  0.10566000000E+00 0. -1.
        -13    1    4    4    0    0 -0.10095996630E+02  0.52261202236E+01 -0.46649355417E+03  0.46663206997E+03  0.10566000000E+00 0.  1.
        -14    1    4    4    0    0 -0.58452461271E+01  0.43915714021E+01 -0.33477667078E+03  0.33485649479E+03  0.00000000000E+00 0.  1.
<mgrwt>
<rscale>  0 0.81033364E+02</rscale>
<asrwt>0</asrwt>
<pdfrwt beam="1">  1        2 0.15060564E+00 0.81033364E+02</pdfrwt>
<pdfrwt beam="2">  1       -1 0.25798818E-03 0.81033364E+02</pdfrwt>
<totfact> 0.34040095E+05</totfact>
</mgrwt>
</event>
<event>
 8    1  0.1520917E-017  0.7689539E+02  0.7818608E-02  0.1338100E+00
         -1   -1    0    0    0  501 -0.00000000000E+00  0.00000000000E+00  0.12908805885E+02  0.12908806869E+02  0.50400000000E-02 0.  1.
          2   -1    0    0  501    0  0.00000000000E+00 -0.00000000000E+00 -0.11451292365E+03  0.11451292368E+03  0.25500000000E-02 0. -1.
         24    2    1    2    0    0  0.00000000000E+00  0.00000000000E+00 -0.10160411776E+03  0.12742173055E+03  0.76895387827E+02 0.  0.
         66    2    3    3    0    0 -0.28300242925E+02 -0.20081066029E+02 -0.78168957017E+02  0.85548458813E+02  0.20000004193E+01 0.  0.
        -13    1    3    3    0    0  0.28300242925E+02  0.20081066029E+02 -0.23435160747E+02  0.41873271734E+02  0.10566000000E+00 0.  1.
         13    1    4    4    0    0 -0.98211655070E+01 -0.72151695043E+01 -0.25870575337E+02  0.28597408890E+02  0.10566000000E+00 0. -1.
        -13    1    4    4    0    0 -0.13842881984E+02 -0.91535646644E+01 -0.37745334085E+02  0.41232687724E+02  0.10566000000E+00 0.  1.
        -14    1    4    4    0    0 -0.46361954336E+01 -0.37123318600E+01 -0.14553047595E+02  0.15718362200E+02  0.00000000000E+00 0.  1.
<mgrwt>
<rscale>  0 0.76895388E+02</rscale>
<asrwt>0</asrwt>
<pdfrwt beam="1">  1        2 0.17617372E-01 0.76895388E+02</pdfrwt>
<pdfrwt beam="2">  1       -1 0.19859703E-02 0.76895388E+02</pdfrwt>
<totfact> 0.20478043E+05</totfact>
</mgrwt>
</event>
<event>
 8    1  0.1520917E-017  0.7587151E+02  0.7818608E-02  0.1341193E+00
         -1   -1    0    0    0  501 -0.00000000000E+00  0.00000000000E+00  0.97937330665E+02  0.97937330794E+02  0.50400000000E-02 0.  1.
          2   -1    0    0  501    0  0.00000000000E+00 -0.00000000000E+00 -0.14694310156E+02  0.14694310378E+02  0.25500000000E-02 0. -1.
         24    2    1    2    0    0  0.71054273576E-14  0.00000000000E+00  0.83243020509E+02  0.11263164117E+03  0.75871510659E+02 0.  0.
         66    2    3    3    0    0  0.20649788424E+02 -0.54562386571E+01 -0.48441087261E+01  0.21992037228E+02  0.20000024605E+01 0.  0.
        -13    1    3    3    0    0 -0.20649788424E+02  0.54562386571E+01  0.88087129235E+02  0.90639603944E+02  0.10566000000E+00 0.  1.
         13    1    4    4    0    0  0.16194239721E+02 -0.44498900815E+01 -0.42410044506E+01  0.17322015029E+02  0.10566000000E+00 0. -1.
        -13    1    4    4    0    0  0.10581759512E+01 -0.54971369073E+00 -0.25952243043E+00  0.12249234314E+01  0.10566000000E+00 0.  1.
        -14    1    4    4    0    0  0.33973727523E+01 -0.45663488484E+00 -0.34358184513E+00  0.34450987679E+01  0.00000000000E+00 0.  1.
<mgrwt>
<rscale>  0 0.75871511E+02</rscale>
<asrwt>0</asrwt>
<pdfrwt beam="1">  1        2 0.22606631E-02 0.75871511E+02</pdfrwt>
<pdfrwt beam="2">  1       -1 0.15067282E-01 0.75871511E+02</pdfrwt>
<totfact> 0.13585475E+05</totfact>
</mgrwt>
</event>
<event>
 8    1  0.1520917E-017  0.7897542E+02  0.7818608E-02  0.1331984E+00
         -1   -1    0    0    0  501 -0.00000000000E+00  0.00000000000E+00  0.31442689206E+02  0.31442689610E+02  0.50400000000E-02 0.  1.
          2   -1    0    0  501    0  0.00000000000E+00 -0.00000000000E+00 -0.49591147860E+02  0.49591147926E+02  0.25500000000E-02 0. -1.
         24    2    1    2    0    0  0.00000000000E+00 -0.35527136788E-14 -0.18148458654E+02  0.81033837536E+02  0.78975415632E+02 0.  0.
         66    2    3    3    0    0 -0.22625284187E+02 -0.23813102333E+02 -0.31520286314E+02  0.45568583184E+02  0.19999992035E+01 0.  0.
        -13    1    3    3    0    0  0.22625284187E+02  0.23813102333E+02  0.13371827660E+02  0.35465254352E+02  0.10566000000E+00 0.  1.
         13    1    4    4    0    0 -0.20425035330E+02 -0.21855864521E+02 -0.29309686340E+02  0.41879944599E+02  0.10566000000E+00 0. -1.
        -13    1    4    4    0    0 -0.67971324955E+00 -0.63066687661E+00 -0.64060018288E+00  0.11319379138E+01  0.10566000000E+00 0.  1.
         14    1    4    4    0    0 -0.15205356074E+01 -0.13265709348E+01 -0.15699997913E+01  0.25567006714E+01  0.00000000000E+00 0. -1.
<mgrwt>
<rscale>  0 0.78975416E+02</rscale>
<asrwt>0</asrwt>
<pdfrwt beam="1">  1        2 0.76294074E-02 0.78975416E+02</pdfrwt>
<pdfrwt beam="2">  1       -1 0.48373368E-02 0.78975416E+02</pdfrwt>
<totfact> 0.15452109E+05</totfact>
</mgrwt>
</event>
<event>
 8    1  0.1520917E-017  0.7960031E+02  0.7818608E-02  0.1330190E+00
         -1   -1    0    0    0  501 -0.00000000000E+00  0.00000000000E+00  0.84321953323E+01  0.84321968385E+01  0.50400000000E-02 0.  1.
          2   -1    0    0  501    0  0.00000000000E+00 -0.00000000000E+00 -0.18785761094E+03  0.18785761096E+03  0.25500000000E-02 0. -1.
         24    2    1    2    0    0  0.00000000000E+00  0.00000000000E+00 -0.17942541561E+03  0.19628980780E+03  0.79600307026E+02 0.  0.
         66    2    3    3    0    0  0.99027330586E+00 -0.36140695385E+02 -0.48882338106E+02  0.60832667889E+02  0.19999999138E+01 0.  0.
        -13    1    3    3    0    0 -0.99027330586E+00  0.36140695385E+02 -0.13054307751E+03  0.13545713991E+03  0.10566000000E+00 0.  1.
         13    1    4    4    0    0  0.77473276984E+00 -0.26320625370E+02 -0.36534039569E+02  0.45034683767E+02  0.10566000000E+00 0. -1.
        -13    1    4    4    0    0  0.29529510561E+00 -0.71791365834E+01 -0.85089314660E+01  0.11137337205E+02  0.10566000000E+00 0.  1.
        -14    1    4    4    0    0 -0.79754569586E-01 -0.26409334312E+01 -0.38393670714E+01  0.46606469174E+01  0.00000000000E+00 0.  1.
<mgrwt>
<rscale>  0 0.79600307E+02</rscale>
<asrwt>0</asrwt>
<pdfrwt beam="1">  1        2 0.28901168E-01 0.79600307E+02</pdfrwt>
<pdfrwt beam="2">  1       -1 0.12972611E-02 0.79600307E+02</pdfrwt>
<totfact> 0.21874310E+05</totfact>
</mgrwt>
</event>
<event>
 8    1  0.1520917E-017  0.8087681E+02  0.7818608E-02  0.1326581E+00
         -1   -1    0    0    0  501 -0.00000000000E+00  0.00000000000E+00  0.31251693534E+02  0.31251693941E+02  0.50400000000E-02 0.  1.
          2   -1    0    0  501    0  0.00000000000E+00 -0.00000000000E+00 -0.52325626826E+02  0.52325626888E+02  0.25500000000E-02 0. -1.
         24    2    1    2    0    0  0.00000000000E+00  0.00000000000E+00 -0.21073933291E+02  0.83577320829E+02  0.80876806889E+02 0.  0.
         66    2    3    3    0    0 -0.56947220068E+01 -0.20718463547E+02 -0.45914566667E+02  0.50732948084E+02  0.19999996510E+01 0.  0.
        -13    1    3    3    0    0  0.56947220068E+01  0.20718463547E+02  0.24840633375E+02  0.32844372745E+02  0.10566000000E+00 0.  1.
         13    1    4    4    0    0 -0.33120756773E+01 -0.10195892241E+02 -0.21559817548E+02  0.24078267392E+02  0.10566000000E+00 0. -1.
        -13    1    4    4    0    0 -0.18983629976E+01 -0.71866112171E+01 -0.17598659209E+02  0.19104322360E+02  0.10566000000E+00 0.  1.
        -14    1    4    4    0    0 -0.48428333195E+00 -0.33359600889E+01 -0.67560899096E+01  0.75503583310E+01  0.00000000000E+00 0.  1.
<mgrwt>
<rscale>  0 0.80876807E+02</rscale>
<asrwt>0</asrwt>
<pdfrwt beam="1">  1        2 0.80500965E-02 0.80876807E+02</pdfrwt>
<pdfrwt beam="2">  1       -1 0.48079529E-02 0.80876807E+02</pdfrwt>
<totfact> 0.14649069E+05</totfact>
</mgrwt>
</event>
<event>
 8    1  0.1520917E-017  0.7157692E+02  0.7818608E-02  0.1354811E+00
         -1   -1    0    0    0  501 -0.00000000000E+00  0.00000000000E+00  0.17976916010E+02  0.17976916716E+02  0.50400000000E-02 0.  1.
          2   -1    0    0  501    0  0.00000000000E+00 -0.00000000000E+00 -0.71247686406E+02  0.71247686451E+02  0.25500000000E-02 0. -1.
         24    2    1    2    0    0  0.00000000000E+00  0.00000000000E+00 -0.53270770396E+02  0.89224603167E+02  0.71576915495E+02 0.  0.
         66    2    3    3    0    0  0.34119774056E+02 -0.10341389927E+01 -0.39941181927E+02  0.52578764142E+02  0.19999999704E+01 0.  0.
        -13    1    3    3    0    0 -0.34119774056E+02  0.10341389927E+01 -0.13329588469E+02  0.36645839025E+02  0.10566000000E+00 0.  1.
         13    1    4    4    0    0  0.62226164099E+01  0.13561052574E+00 -0.79760209047E+01  0.10117678524E+02  0.10566000000E+00 0. -1.
        -13    1    4    4    0    0  0.57560375097E+01 -0.88159954025E-01 -0.73227738678E+01  0.93152520709E+01  0.10566000000E+00 0.  1.
        -14    1    4    4    0    0  0.22141120136E+02 -0.10815895645E+01 -0.24642387155E+02  0.33145833548E+02  0.00000000000E+00 0.  1.
<mgrwt>
<rscale>  0 0.71576915E+02</rscale>
<asrwt>0</asrwt>
<pdfrwt beam="1">  1        2 0.10961182E-01 0.71576915E+02</pdfrwt>
<pdfrwt beam="2">  1       -1 0.27656795E-02 0.71576915E+02</pdfrwt>
<totfact> 0.21858053E+05</totfact>
</mgrwt>
</event>
<event>
 8    1  0.1520917E-017  0.7987006E+02  0.7818608E-02  0.1329421E+00
         -1   -1    0    0    0  501 -0.00000000000E+00  0.00000000000E+00  0.17803576706E+01  0.17803648044E+01  0.50400000000E-02 0.  1.
          2   -1    0    0  501    0  0.00000000000E+00 -0.00000000000E+00 -0.89577704529E+03  0.89577704529E+03  0.25500000000E-02 0. -1.
         24    2    1    2    0    0  0.00000000000E+00  0.00000000000E+00 -0.89399668762E+03  0.89755741010E+03  0.79870062899E+02 0.  0.
         66    2    3    3    0    0 -0.80004565653E+01 -0.14060220341E+02 -0.85727827778E+03  0.85743322928E+03  0.20000037061E+01 0.  0.
        -13    1    3    3    0    0  0.80004565653E+01  0.14060220341E+02 -0.36718409835E+02  0.40124180816E+02  0.10566000000E+00 0.  1.
         13    1    4    4    0    0 -0.35419782852E+01 -0.53435636567E+01 -0.33025156181E+03  0.33031379706E+03  0.10566000000E+00 0. -1.
        -13    1    4    4    0    0 -0.23879479987E+01 -0.59490150280E+01 -0.35749879916E+03  0.35755628318E+03  0.10566000000E+00 0.  1.
        -14    1    4    4    0    0 -0.20705302815E+01 -0.27676416568E+01 -0.16952791681E+03  0.16956314904E+03  0.00000000000E+00 0.  1.
<mgrwt>
<rscale>  0 0.79870063E+02</rscale>
<asrwt>0</asrwt>
<pdfrwt beam="1">  1        2 0.13781149E+00 0.79870063E+02</pdfrwt>
<pdfrwt beam="2">  1       -1 0.27390244E-03 0.79870063E+02</pdfrwt>
<totfact> 0.35075984E+05</totfact>
</mgrwt>
</event>
<event>
 8    1  0.1520917E-017  0.7859296E+02  0.7818608E-02  0.1333093E+00
         -1   -1    0    0    0  501 -0.00000000000E+00  0.00000000000E+00  0.47713386290E+01  0.47713412909E+01  0.50400000000E-02 0.  1.
          2   -1    0    0  501    0  0.00000000000E+00 -0.00000000000E+00 -0.32364350755E+03  0.32364350756E+03  0.25500000000E-02 0. -1.
         24    2    1    2    0    0  0.35527136788E-14 -0.35527136788E-14 -0.31887216892E+03  0.32841484885E+03  0.78592956640E+02 0.  0.
         66    2    3    3    0    0  0.20002827650E+02 -0.26858001688E+02 -0.24525221332E+03  0.24753608529E+03  0.20000032409E+01 0.  0.
        -13    1    3    3    0    0 -0.20002827650E+02  0.26858001688E+02 -0.73619955601E+02  0.80878763562E+02  0.10566000000E+00 0.  1.
         13    1    4    4    0    0  0.39822211332E+01 -0.60913071779E+01 -0.51088718937E+02  0.51604558664E+02  0.10566000000E+00 0. -1.
        -13    1    4    4    0    0  0.42339280196E+01 -0.45705980630E+01 -0.46013378589E+02  0.46433379010E+02  0.10566000000E+00 0.  1.
         14    1    4    4    0    0  0.11786678497E+02 -0.16196096447E+02 -0.14815011580E+03  0.14949814762E+03  0.00000000000E+00 0. -1.
<mgrwt>
<rscale>  0 0.78592957E+02</rscale>
<asrwt>0</asrwt>
<pdfrwt beam="1">  1        2 0.49791292E-01 0.78592957E+02</pdfrwt>
<pdfrwt beam="2">  1       -1 0.73405256E-03 0.78592957E+02</pdfrwt>
<totfact> 0.27448389E+05</totfact>
</mgrwt>
</event>
<event>
 8    1  0.1520917E-017  0.7816806E+02  0.7818608E-02  0.1334332E+00
          2   -1    0    0  501    0  0.00000000000E+00  0.00000000000E+00  0.62044025435E+02  0.62044025487E+02  0.25500000000E-02 0. -1.
         -1   -1    0    0    0  501 -0.00000000000E+00 -0.00000000000E+00 -0.24620605746E+02  0.24620606262E+02  0.50400000000E-02 0.  1.
         24    2    1    2    0    0  0.00000000000E+00  0.17763568394E-14  0.37423419688E+02  0.86664631749E+02  0.78168062884E+02 0.  0.
         66    2    3    3    0    0 -0.12166848939E+02  0.14577658576E+02  0.56566313243E+02  0.59701659355E+02  0.19999982953E+01 0.  0.
        -13    1    3    3    0    0  0.12166848939E+02 -0.14577658576E+02 -0.19142893554E+02  0.26962972394E+02  0.10566000000E+00 0.  1.
         13    1    4    4    0    0 -0.43249314875E+01  0.43651741382E+01  0.16401647266E+02  0.17515278322E+02  0.10566000000E+00 0. -1.
        -13    1    4    4    0    0 -0.73838899482E+00  0.13362889776E+01  0.51169717859E+01  0.53409222830E+01  0.10566000000E+00 0.  1.
         14    1    4    4    0    0 -0.71035284567E+01  0.88761954601E+01  0.35047694191E+02  0.36845458750E+02  0.00000000000E+00 0. -1.
<mgrwt>
<rscale>  0 0.78168063E+02</rscale>
<asrwt>0</asrwt>
<pdfrwt beam="1">  1        2 0.95452346E-02 0.78168063E+02</pdfrwt>
<pdfrwt beam="2">  1       -1 0.37877856E-02 0.78168063E+02</pdfrwt>
<totfact> 0.16705535E+05</totfact>
</mgrwt>
</event>
<event>
 8    1  0.1520917E-017  0.7794616E+02  0.7818608E-02  0.1334983E+00
          2   -1    0    0  501    0  0.00000000000E+00  0.00000000000E+00  0.60016994550E+03  0.60016994551E+03  0.25500000000E-02 0. -1.
         -1   -1    0    0    0  501 -0.00000000000E+00 -0.00000000000E+00 -0.25307822943E+01  0.25307873128E+01  0.50400000000E-02 0.  1.
         24    2    1    2    0    0  0.00000000000E+00  0.00000000000E+00  0.59763916321E+03  0.60270073282E+03  0.77946160537E+02 0.  0.
         66    2    3    3    0    0  0.82587199155E+01  0.28152668409E+02  0.49707613941E+03  0.49794524555E+03  0.20000012898E+01 0.  0.
        -13    1    3    3    0    0 -0.82587199155E+01 -0.28152668409E+02  0.10056302380E+03  0.10475548727E+03  0.10566000000E+00 0.  1.
         13    1    4    4    0    0  0.26489664028E+01  0.10288657803E+02  0.17986735356E+03  0.18018088007E+03  0.10566000000E+00 0.  1.
        -13    1    4    4    0    0  0.36224625889E+01  0.12203693348E+02  0.20415841320E+03  0.20455493446E+03  0.10566000000E+00 0. -1.
         14    1    4    4    0    0  0.19872909238E+01  0.56603172570E+01  0.11305037265E+03  0.11320943102E+03  0.00000000000E+00 0. -1.
<mgrwt>
<rscale>  0 0.77946161E+02</rscale>
<asrwt>0</asrwt>
<pdfrwt beam="1">  1        2 0.92333949E-01 0.77946161E+02</pdfrwt>
<pdfrwt beam="2">  1       -1 0.38935104E-03 0.77946161E+02</pdfrwt>
<totfact> 0.34415341E+05</totfact>
</mgrwt>
</event>
<event>
 8    1  0.1520917E-017  0.8050768E+02  0.7818608E-02  0.1327617E+00
          2   -1    0    0  501    0  0.00000000000E+00  0.00000000000E+00  0.52669034680E+03  0.52669034681E+03  0.25500000000E-02 0. -1.
         -1   -1    0    0    0  501 -0.00000000000E+00 -0.00000000000E+00 -0.30765148478E+01  0.30765189761E+01  0.50400000000E-02 0.  1.
         24    2    1    2    0    0  0.00000000000E+00  0.35527136788E-14  0.52361383195E+03  0.52976686578E+03  0.80507683293E+02 0.  0.
         66    2    3    3    0    0  0.10111187550E+02  0.16245584967E+02  0.49482344756E+03  0.49519733379E+03  0.19999986865E+01 0.  0.
        -13    1    3    3    0    0 -0.10111187550E+02 -0.16245584967E+02  0.28790384394E+02  0.34569531993E+02  0.10566000000E+00 0.  1.
         13    1    4    4    0    0  0.28459502820E+01  0.41807539216E+01  0.12567868056E+03  0.12578044382E+03  0.10566000000E+00 0. -1.
        -13    1    4    4    0    0  0.44784301114E+01  0.81814323052E+01  0.26076909547E+03  0.26093586279E+03  0.10566000000E+00 0.  1.
        -14    1    4    4    0    0  0.27868071566E+01  0.38833987400E+01  0.10837567153E+03  0.10848102719E+03  0.00000000000E+00 0.  1.
<mgrwt>
<rscale>  0 0.80507683E+02</rscale>
<asrwt>0</asrwt>
<pdfrwt beam="1">  1        2 0.81029298E-01 0.80507683E+02</pdfrwt>
<pdfrwt beam="2">  1       -1 0.47331021E-03 0.80507683E+02</pdfrwt>
<totfact> 0.30446185E+05</totfact>
</mgrwt>
</event>
<event>
 8    1  0.1520917E-017  0.8144522E+02  0.7818608E-02  0.1324999E+00
          2   -1    0    0  501    0  0.00000000000E+00  0.00000000000E+00  0.73309307716E+03  0.73309307716E+03  0.25500000000E-02 0. -1.
         -1   -1    0    0    0  501 -0.00000000000E+00 -0.00000000000E+00 -0.22620985861E+01  0.22621042007E+01  0.50400000000E-02 0.  1.
         24    2    1    2    0    0 -0.35527136788E-14  0.00000000000E+00  0.73083097857E+03  0.73535518136E+03  0.81445217891E+02 0.  0.
         66    2    3    3    0    0  0.31793207633E+02 -0.60462182663E+01  0.58844094729E+03  0.58933361796E+03  0.20000001020E+01 0.  0.
        -13    1    3    3    0    0 -0.31793207633E+02  0.60462182663E+01  0.14239003128E+03  0.14602156341E+03  0.10566000000E+00 0.  1.
         13    1    4    4    0    0  0.10099110408E+02 -0.19076782722E+01  0.19873134383E+03  0.19899695840E+03  0.10566000000E+00 0. -1.
        -13    1    4    4    0    0  0.19733969679E+01 -0.21414989463E+00  0.30470750798E+02  0.30535519874E+02  0.10566000000E+00 0.  1.
         14    1    4    4    0    0  0.19720700257E+02 -0.39243900994E+01  0.35923885266E+03  0.35980113968E+03  0.00000000000E+00 0. -1.
<mgrwt>
<rscale>  0 0.81445218E+02</rscale>
<asrwt>0</asrwt>
<pdfrwt beam="1">  1        2 0.11278359E+00 0.81445218E+02</pdfrwt>
<pdfrwt beam="2">  1       -1 0.34801548E-03 0.81445218E+02</pdfrwt>
<totfact> 0.32255715E+05</totfact>
</mgrwt>
</event>
<event>
 8    1  0.1520917E-017  0.8775928E+02  0.7818608E-02  0.1308370E+00
          2   -1    0    0  501    0  0.00000000000E+00  0.00000000000E+00  0.17991025064E+03  0.17991025066E+03  0.25500000000E-02 0. -1.
         -1   -1    0    0    0  501 -0.00000000000E+00 -0.00000000000E+00 -0.10702128205E+02  0.10702129392E+02  0.50400000000E-02 0.  1.
         24    2    1    2    0    0 -0.17763568394E-14  0.00000000000E+00  0.16920812244E+03  0.19061238005E+03  0.87759277177E+02 0.  0.
         66    2    3    3    0    0  0.12607720626E+02 -0.24196282792E+02  0.15922669824E+03  0.16155976032E+03  0.20000001908E+01 0.  0.
        -13    1    3    3    0    0 -0.12607720626E+02  0.24196282792E+02  0.99814241923E+01  0.29052619732E+02  0.10566000000E+00 0.  1.
         13    1    4    4    0    0  0.64508357225E+01 -0.11132127725E+02  0.73221128974E+02  0.74343005330E+02  0.10566000000E+00 0. -1.
        -13    1    4    4    0    0  0.11850092242E+01 -0.34764213280E+01  0.23277619013E+02  0.23565832535E+02  0.10566000000E+00 0.  1.
        -14    1    4    4    0    0  0.49718756798E+01 -0.95877337382E+01  0.62727950256E+02  0.63650922455E+02  0.00000000000E+00 0.  1.
<mgrwt>
<rscale>  0 0.87759277E+02</rscale>
<asrwt>0</asrwt>
<pdfrwt beam="1">  1        2 0.27678501E-01 0.87759277E+02</pdfrwt>
<pdfrwt beam="2">  1       -1 0.16464813E-02 0.87759277E+02</pdfrwt>
<totfact> 0.16632853E+05</totfact>
</mgrwt>
</event>
<event>
 8    1  0.1520917E-017  0.7956894E+02  0.7818608E-02  0.1330279E+00
          2   -1    0    0  501    0  0.00000000000E+00  0.00000000000E+00  0.74253878516E+02  0.74253878560E+02  0.25500000000E-02 0. -1.
         -1   -1    0    0    0  501 -0.00000000000E+00 -0.00000000000E+00 -0.21316112275E+02  0.21316112871E+02  0.50400000000E-02 0.  1.
         24    2    1    2    0    0  0.35527136788E-14  0.00000000000E+00  0.52937766241E+02  0.95569991431E+02  0.79568939716E+02 0.  0.
         66    2    3    3    0    0 -0.27967635819E+02  0.22629809569E+02  0.61553465183E+01  0.36553867418E+02  0.19999995026E+01 0.  0.
        -13    1    3    3    0    0  0.27967635819E+02 -0.22629809569E+02  0.46782419723E+02  0.59016124013E+02  0.10566000000E+00 0.  1.
         13    1    4    4    0    0 -0.11951154761E+02  0.10115528689E+02  0.29308264502E+01  0.15929687018E+02  0.10566000000E+00 0. -1.
        -13    1    4    4    0    0 -0.11349296604E+02  0.95358684419E+01  0.20594050683E+01  0.14966350043E+02  0.10566000000E+00 0.  1.
         14    1    4    4    0    0 -0.46671844546E+01  0.29784124378E+01  0.11651149998E+01  0.56578303567E+01  0.00000000000E+00 0. -1.
<mgrwt>
<rscale>  0 0.79568940E+02</rscale>
<asrwt>0</asrwt>
<pdfrwt beam="1">  1        2 0.11423673E-01 0.79568940E+02</pdfrwt>
<pdfrwt beam="2">  1       -1 0.32794020E-02 0.79568940E+02</pdfrwt>
<totfact> 0.16624280E+05</totfact>
</mgrwt>
</event>
<event>
 8    1  0.1520917E-017  0.7905431E+02  0.7818608E-02  0.1331757E+00
         -1   -1    0    0    0  501 -0.00000000000E+00  0.00000000000E+00  0.49998675289E+01  0.49998700691E+01  0.50400000000E-02 0.  1.
          2   -1    0    0  501    0  0.00000000000E+00 -0.00000000000E+00 -0.31248737256E+03  0.31248737257E+03  0.25500000000E-02 0. -1.
         24    2    1    2    0    0  0.00000000000E+00  0.71054273576E-14 -0.30748750503E+03  0.31748724264E+03  0.79054307211E+02 0.  0.
         66    2    3    3    0    0 -0.90406063200E+01 -0.37455843838E+02 -0.11889562320E+03  0.12499936807E+03  0.20000002802E+01 0.  0.
        -13    1    3    3    0    0  0.90406063200E+01  0.37455843838E+02 -0.18859188183E+03  0.19248787457E+03  0.10566000000E+00 0.  1.
         13    1    4    4    0    0 -0.31040464460E+01 -0.10573806685E+02 -0.34870740277E+02  0.36570755853E+02  0.10566000000E+00 0. -1.
        -13    1    4    4    0    0 -0.96830568606E-01 -0.17419984774E+01 -0.51831691265E+01  0.54699489105E+01  0.10566000000E+00 0.  1.
        -14    1    4    4    0    0 -0.58397293054E+01 -0.25140038676E+02 -0.78841713800E+02  0.82958663308E+02  0.00000000000E+00 0.  1.
<mgrwt>
<rscale>  0 0.79054307E+02</rscale>
<asrwt>0</asrwt>
<pdfrwt beam="1">  1        2 0.48074965E-01 0.79054307E+02</pdfrwt>
<pdfrwt beam="2">  1       -1 0.76921083E-03 0.79054307E+02</pdfrwt>
<totfact> 0.26691780E+05</totfact>
</mgrwt>
</event>
<event>
 8    1  0.1520917E-017  0.8059508E+02  0.7818608E-02  0.1327371E+00
          2   -1    0    0  501    0  0.00000000000E+00  0.00000000000E+00  0.15522285966E+02  0.15522286175E+02  0.25500000000E-02 0. -1.
         -1   -1    0    0    0  501 -0.00000000000E+00 -0.00000000000E+00 -0.10461678576E+03  0.10461678588E+03  0.50400000000E-02 0.  1.
         24    2    1    2    0    0  0.00000000000E+00  0.00000000000E+00 -0.89094499793E+02  0.12013907205E+03  0.80595078888E+02 0.  0.
         66    2    3    3    0    0 -0.21043446771E+02  0.30104298306E+02 -0.69194772622E+02  0.78364609353E+02  0.20000031165E+01 0.  0.
        -13    1    3    3    0    0  0.21043446771E+02 -0.30104298306E+02 -0.19899727171E+02  0.41774462702E+02  0.10566000000E+00 0.  1.
         13    1    4    4    0    0 -0.19158318832E+02  0.27463283239E+02 -0.63512716653E+02  0.71799369408E+02  0.10566000000E+00 0. -1.
        -13    1    4    4    0    0 -0.56682872795E+00  0.12220676145E+01 -0.24050668247E+01  0.27586689777E+01  0.10566000000E+00 0.  1.
         14    1    4    4    0    0 -0.13182992105E+01  0.14189474517E+01 -0.32769891440E+01  0.38065709673E+01  0.00000000000E+00 0. -1.
<mgrwt>
<rscale>  0 0.80595079E+02</rscale>
<asrwt>0</asrwt>
<pdfrwt beam="1">  1        2 0.23880441E-02 0.80595079E+02</pdfrwt>
<pdfrwt beam="2">  1       -1 0.16094890E-01 0.80595079E+02</pdfrwt>
<totfact> 0.11522862E+05</totfact>
</mgrwt>
</event>
<event>
 8    1  0.1520917E-017  0.8953812E+02  0.7818608E-02  0.1303974E+00
          2   -1    0    0  501    0  0.00000000000E+00  0.00000000000E+00  0.48483522260E+03  0.48483522260E+03  0.25500000000E-02 0. -1.
         -1   -1    0    0    0  501 -0.00000000000E+00 -0.00000000000E+00 -0.41339160241E+01  0.41339190965E+01  0.50400000000E-02 0.  1.
         24    2    1    2    0    0  0.00000000000E+00  0.17763568394E-14  0.48070130657E+03  0.48896914170E+03  0.89538122574E+02 0.  0.
         66    2    3    3    0    0  0.20857776387E+02  0.13274928617E+02  0.44414441549E+03  0.44483652320E+03  0.20000002072E+01 0.  0.
        -13    1    3    3    0    0 -0.20857776387E+02 -0.13274928617E+02  0.36556891086E+02  0.44132618498E+02  0.10566000000E+00 0.  1.
         13    1    4    4    0    0  0.61483512978E+01  0.31006072339E+01  0.11406397093E+03  0.11427167898E+03  0.10566000000E+00 0. -1.
        -13    1    4    4    0    0  0.54041012645E+01  0.38684659413E+01  0.12060693668E+03  0.12078995686E+03  0.10566000000E+00 0.  1.
         14    1    4    4    0    0  0.93053238243E+01  0.63058554421E+01  0.20947350788E+03  0.20977488736E+03  0.00000000000E+00 0. -1.
<mgrwt>
<rscale>  0 0.89538123E+02</rscale>
<asrwt>0</asrwt>
<pdfrwt beam="1">  1        2 0.74590006E-01 0.89538123E+02</pdfrwt>
<pdfrwt beam="2">  1       -1 0.63598756E-03 0.89538123E+02</pdfrwt>
<totfact> 0.22442930E+05</totfact>
</mgrwt>
</event>
<event>
 8    1  0.1520917E-017  0.8021621E+02  0.7818608E-02  0.1328439E+00
         -1   -1    0    0    0  501 -0.00000000000E+00  0.00000000000E+00  0.16114548940E+01  0.16114627755E+01  0.50400000000E-02 0.  1.
          2   -1    0    0  501    0  0.00000000000E+00 -0.00000000000E+00 -0.99826313668E+03  0.99826313668E+03  0.25500000000E-02 0. -1.
         24    2    1    2    0    0 -0.35527136788E-14  0.00000000000E+00 -0.99665168178E+03  0.99987459945E+03  0.80216206815E+02 0.  0.
         66    2    3    3    0    0  0.21451973057E+02  0.22233486989E+02 -0.81694733254E+03  0.81753376642E+03  0.19999996886E+01 0.  0.
        -13    1    3    3    0    0 -0.21451973057E+02 -0.22233486989E+02 -0.17970434924E+03  0.18234083304E+03  0.10566000000E+00 0.  1.
         13    1    4    4    0    0  0.96341646026E+01  0.97187496422E+01 -0.35081386757E+03  0.35108069167E+03  0.10566000000E+00 0. -1.
        -13    1    4    4    0    0  0.28339398202E+01  0.34690183847E+01 -0.13469025774E+03  0.13476476542E+03  0.10566000000E+00 0.  1.
        -14    1    4    4    0    0  0.89838686343E+01  0.90457189623E+01 -0.33144320723E+03  0.33168830933E+03  0.00000000000E+00 0.  1.
<mgrwt>
<rscale>  0 0.80216207E+02</rscale>
<asrwt>0</asrwt>
<pdfrwt beam="1">  1        2 0.15357845E+00 0.80216207E+02</pdfrwt>
<pdfrwt beam="2">  1       -1 0.24791754E-03 0.80216207E+02</pdfrwt>
<totfact> 0.34982558E+05</totfact>
</mgrwt>
</event>
<event>
 8    1  0.1520917E-017  0.8023575E+02  0.7818608E-02  0.1328384E+00
         -1   -1    0    0    0  501 -0.00000000000E+00  0.00000000000E+00  0.53644617791E+01  0.53644641467E+01  0.50400000000E-02 0.  1.
          2   -1    0    0  501    0  0.00000000000E+00 -0.00000000000E+00 -0.30001954455E+03  0.30001954456E+03  0.25500000000E-02 0. -1.
         24    2    1    2    0    0  0.53290705182E-14 -0.35527136788E-14 -0.29465508277E+03  0.30538400871E+03  0.80235746221E+02 0.  0.
         66    2    3    3    0    0 -0.15159752669E+02  0.28497863150E+02 -0.23792783447E+03  0.24011580689E+03  0.19999990610E+01 0.  0.
        -13    1    3    3    0    0  0.15159752669E+02 -0.28497863150E+02 -0.56727248301E+02  0.65268201821E+02  0.10566000000E+00 0.  1.
         13    1    4    4    0    0 -0.76759553679E+01  0.14571365737E+02 -0.11706886231E+03  0.11822171830E+03  0.10566000000E+00 0. -1.
        -13    1    4    4    0    0 -0.42381912029E+01  0.88538523801E+01 -0.72475629737E+02  0.73137412016E+02  0.10566000000E+00 0.  1.
        -14    1    4    4    0    0 -0.32456060980E+01  0.50726450324E+01 -0.48383342422E+02  0.48756676573E+02  0.00000000000E+00 0.  1.
<mgrwt>
<rscale>  0 0.80235746E+02</rscale>
<asrwt>0</asrwt>
<pdfrwt beam="1">  1        2 0.46156840E-01 0.80235746E+02</pdfrwt>
<pdfrwt beam="2">  1       -1 0.82530223E-03 0.80235746E+02</pdfrwt>
<totfact> 0.25299132E+05</totfact>
</mgrwt>
</event>
<event>
 8    1  0.1520917E-017  0.6948148E+02  0.7818608E-02  0.1361865E+00
         -1   -1    0    0    0  501 -0.00000000000E+00  0.00000000000E+00  0.10606566875E+02  0.10606568072E+02  0.50400000000E-02 0.  1.
          2   -1    0    0  501    0  0.00000000000E+00 -0.00000000000E+00 -0.11378978264E+03  0.11378978267E+03  0.25500000000E-02 0. -1.
         24    2    1    2    0    0 -0.35527136788E-14  0.00000000000E+00 -0.10318321576E+03  0.12439635074E+03  0.69481479992E+02 0.  0.
         66    2    3    3    0    0 -0.23680263855E+02  0.10847805855E+02 -0.92714322778E+02  0.96324324228E+02  0.20000004051E+01 0.  0.
        -13    1    3    3    0    0  0.23680263855E+02 -0.10847805855E+02 -0.10468892986E+02  0.28072026512E+02  0.10566000000E+00 0.  1.
         13    1    4    4    0    0 -0.14261849490E+02  0.64854149137E+01 -0.52514456753E+02  0.54801827429E+02  0.10566000000E+00 0. -1.
        -13    1    4    4    0    0 -0.53674255858E+00  0.29317029828E+00 -0.27702249868E+01  0.28388997712E+01  0.10566000000E+00 0.  1.
        -14    1    4    4    0    0 -0.88816718063E+01  0.40692206433E+01 -0.37429641039E+02  0.38683597028E+02  0.00000000000E+00 0.  1.
<mgrwt>
<rscale>  0 0.69481480E+02</rscale>
<asrwt>0</asrwt>
<pdfrwt beam="1">  1        2 0.17506120E-01 0.69481480E+02</pdfrwt>
<pdfrwt beam="2">  1       -1 0.16317797E-02 0.69481480E+02</pdfrwt>
<totfact> 0.26708909E+05</totfact>
</mgrwt>
</event>
<event>
 8    1  0.1520917E-017  0.8000749E+02  0.7818608E-02  0.1329030E+00
         -1   -1    0    0    0  501 -0.00000000000E+00  0.00000000000E+00  0.76958141716E+02  0.76958141881E+02  0.50400000000E-02 0.  1.
          2   -1    0    0  501    0  0.00000000000E+00 -0.00000000000E+00 -0.20794417772E+02  0.20794417929E+02  0.25500000000E-02 0. -1.
         24    2    1    2    0    0  0.35527136788E-14  0.00000000000E+00  0.56163723943E+02  0.97752559809E+02  0.80007493787E+02 0.  0.
         66    2    3    3    0    0 -0.25933058041E+02  0.80871163666E+01 -0.77383337653E+01  0.28316192580E+02  0.20000005693E+01 0.  0.
        -13    1    3    3    0    0  0.25933058041E+02 -0.80871163666E+01  0.63902057709E+02  0.69436367229E+02  0.10566000000E+00 0.  1.
         13    1    4    4    0    0 -0.11647916961E+02  0.41430710085E+01 -0.33566173235E+01  0.12810817726E+02  0.10566000000E+00 0. -1.
        -13    1    4    4    0    0 -0.15830168776E+01  0.75906054979E+00 -0.77841391571E+00  0.19233324239E+01  0.10566000000E+00 0.  1.
        -14    1    4    4    0    0 -0.12702124203E+02  0.31849848083E+01 -0.36033025261E+01  0.13582042431E+02  0.00000000000E+00 0.  1.
<mgrwt>
<rscale>  0 0.80007494E+02</rscale>
<asrwt>0</asrwt>
<pdfrwt beam="1">  1        2 0.31991413E-02 0.80007494E+02</pdfrwt>
<pdfrwt beam="2">  1       -1 0.11839714E-01 0.80007494E+02</pdfrwt>
<totfact> 0.12510272E+05</totfact>
</mgrwt>
</event>
<event>
 8    1  0.1520917E-017  0.7752526E+02  0.7818608E-02  0.1336225E+00
         -1   -1    0    0    0  501 -0.00000000000E+00  0.00000000000E+00  0.13903462024E+02  0.13903462937E+02  0.50400000000E-02 0.  1.
          2   -1    0    0  501    0  0.00000000000E+00 -0.00000000000E+00 -0.10806958970E+03  0.10806958973E+03  0.25500000000E-02 0. -1.
         24    2    1    2    0    0 -0.35527136788E-14  0.35527136788E-14 -0.94166127678E+02  0.12197305267E+03  0.77525260242E+02 0.  0.
         66    2    3    3    0    0  0.21982251631E+02 -0.20087364658E+02 -0.86094093393E+02  0.91120329821E+02  0.19999959657E+01 0.  0.
        -13    1    3    3    0    0 -0.21982251631E+02  0.20087364658E+02 -0.80720342855E+01  0.30852722849E+02  0.10566000000E+00 0.  1.
         13    1    4    4    0    0  0.68616197741E+01 -0.60105652712E+01 -0.28009993581E+02  0.29458099484E+02  0.10566000000E+00 0. -1.
        -13    1    4    4    0    0  0.26708539776E+01 -0.21627331444E+01 -0.84968211139E+01  0.91661337924E+01  0.10566000000E+00 0.  1.
        -14    1    4    4    0    0  0.12449777879E+02 -0.11914066242E+02 -0.49587278698E+02  0.52496096544E+02  0.00000000000E+00 0.  1.
<mgrwt>
<rscale>  0 0.77525260E+02</rscale>
<asrwt>0</asrwt>
<pdfrwt beam="1">  1        2 0.16626090E-01 0.77525260E+02</pdfrwt>
<pdfrwt beam="2">  1       -1 0.21389943E-02 0.77525260E+02</pdfrwt>
<totfact> 0.19705965E+05</totfact>
</mgrwt>
</event>
<event>
 8    1  0.1520917E-017  0.8103901E+02  0.7818608E-02  0.1326128E+00
          2   -1    0    0  501    0  0.00000000000E+00  0.00000000000E+00  0.85045346225E+02  0.85045346263E+02  0.25500000000E-02 0. -1.
         -1   -1    0    0    0  501 -0.00000000000E+00 -0.00000000000E+00 -0.19305351479E+02  0.19305352137E+02  0.50400000000E-02 0.  1.
         24    2    1    2    0    0  0.00000000000E+00  0.00000000000E+00  0.65739994746E+02  0.10435069840E+03  0.81039011269E+02 0.  0.
         66    2    3    3    0    0  0.13815811117E+02  0.36737811625E+02  0.45720247097E+02  0.60290002766E+02  0.19999997574E+01 0.  0.
        -13    1    3    3    0    0 -0.13815811117E+02 -0.36737811625E+02  0.20019747649E+02  0.44060695634E+02  0.10566000000E+00 0.  1.
         13    1    4    4    0    0  0.95091449510E+01  0.25132770581E+02  0.31387732740E+02  0.41319256109E+02  0.10566000000E+00 0. -1.
        -13    1    4    4    0    0  0.24510301023E+01  0.80848913437E+01  0.96809690464E+01  0.12849332368E+02  0.10566000000E+00 0.  1.
         14    1    4    4    0    0  0.18556360634E+01  0.35201497003E+01  0.46515453109E+01  0.61214142885E+01  0.00000000000E+00 0. -1.
<mgrwt>
<rscale>  0 0.81039011E+02</rscale>
<asrwt>0</asrwt>
<pdfrwt beam="1">  1        2 0.13083900E-01 0.81039011E+02</pdfrwt>
<pdfrwt beam="2">  1       -1 0.29700541E-02 0.81039011E+02</pdfrwt>
<totfact> 0.16383843E+05</totfact>
</mgrwt>
</event>
<event>
 8    1  0.1520917E-017  0.7719138E+02  0.7818608E-02  0.1337216E+00
          2   -1    0    0  501    0  0.00000000000E+00  0.00000000000E+00  0.22854080189E+03  0.22854080190E+03  0.25500000000E-02 0. -1.
         -1   -1    0    0    0  501 -0.00000000000E+00 -0.00000000000E+00 -0.65179910949E+01  0.65179930435E+01  0.50400000000E-02 0.  1.
         24    2    1    2    0    0  0.00000000000E+00  0.17763568394E-14  0.22202281079E+03  0.23505879494E+03  0.77191376259E+02 0.  0.
         66    2    3    3    0    0 -0.37287335845E+02 -0.85083908211E+01  0.95895331452E+02  0.10326012144E+03  0.19999891853E+01 0.  0.
        -13    1    3    3    0    0  0.37287335845E+02  0.85083908211E+01  0.12612747934E+03  0.13179867350E+03  0.10566000000E+00 0.  1.
         13    1    4    4    0    0 -0.78024716056E+01 -0.20787514299E+01  0.19860938237E+02  0.21439864793E+02  0.10566000000E+00 0. -1.
        -13    1    4    4    0    0 -0.20600901535E+02 -0.45797695595E+01  0.51134949474E+02  0.55318764040E+02  0.10566000000E+00 0.  1.
         14    1    4    4    0    0 -0.88839627051E+01 -0.18498698317E+01  0.24899443742E+02  0.26501492607E+02  0.00000000000E+00 0. -1.
<mgrwt>
<rscale>  0 0.77191376E+02</rscale>
<asrwt>0</asrwt>
<pdfrwt beam="1">  1        2 0.35160121E-01 0.77191376E+02</pdfrwt>
<pdfrwt beam="2">  1       -1 0.10027681E-02 0.77191376E+02</pdfrwt>
<totfact> 0.25392988E+05</totfact>
</mgrwt>
</event>
<event>
 8    1  0.1520917E-017  0.8490126E+02  0.7818608E-02  0.1315691E+00
         -1   -1    0    0    0  501 -0.00000000000E+00  0.00000000000E+00  0.43013293541E+01  0.43013323069E+01  0.50400000000E-02 0.  1.
          2   -1    0    0  501    0  0.00000000000E+00 -0.00000000000E+00 -0.41895309457E+03  0.41895309457E+03  0.25500000000E-02 0. -1.
         24    2    1    2    0    0  0.00000000000E+00 -0.44408920985E-15 -0.41465176521E+03  0.42325442688E+03  0.84901257239E+02 0.  0.
         66    2    3    3    0    0  0.23138803637E+02 -0.28302934194E+01 -0.38416323223E+03  0.38487504958E+03  0.19999991409E+01 0.  0.
        -13    1    3    3    0    0 -0.23138803637E+02  0.28302934194E+01 -0.30488532979E+02  0.38379377299E+02  0.10566000000E+00 0.  1.
         13    1    4    4    0    0  0.11600831512E+02 -0.13949790757E+01 -0.18728098383E+03  0.18764515269E+03  0.10566000000E+00 0. -1.
        -13    1    4    4    0    0  0.90571288926E+01 -0.81153035613E+00 -0.16094585696E+03  0.16120257505E+03  0.10566000000E+00 0.  1.
         14    1    4    4    0    0  0.24808432327E+01 -0.62378398757E+00 -0.35936391440E+02  0.36027321845E+02  0.00000000000E+00 0. -1.
<mgrwt>
<rscale>  0 0.84901257E+02</rscale>
<asrwt>0</asrwt>
<pdfrwt beam="1">  1        2 0.64454290E-01 0.84901257E+02</pdfrwt>
<pdfrwt beam="2">  1       -1 0.66174354E-03 0.84901257E+02</pdfrwt>
<totfact> 0.24571650E+05</totfact>
</mgrwt>
</event>
<event>
 8    1  0.1520917E-017  0.8639064E+02  0.7818608E-02  0.1311835E+00
          2   -1    0    0  501    0  0.00000000000E+00  0.00000000000E+00  0.84198176171E+02  0.84198176210E+02  0.25500000000E-02 0. -1.
         -1   -1    0    0    0  501 -0.00000000000E+00 -0.00000000000E+00 -0.22160046485E+02  0.22160047059E+02  0.50400000000E-02 0.  1.
         24    2    1    2    0    0  0.00000000000E+00  0.17763568394E-14  0.62038129685E+02  0.10635822327E+03  0.86390636772E+02 0.  0.
         66    2    3    3    0    0 -0.32995272007E+02  0.14202351329E+02  0.60516952749E+02  0.70403809055E+02  0.20000003207E+01 0.  0.
        -13    1    3    3    0    0  0.32995272007E+02 -0.14202351329E+02  0.15211769365E+01  0.35954414213E+02  0.10566000000E+00 0.  1.
         13    1    4    4    0    0 -0.27023032233E+02  0.11237519031E+02  0.50179798792E+02  0.58090872569E+02  0.10566000000E+00 0. -1.
        -13    1    4    4    0    0 -0.55862375213E+01  0.29098041951E+01  0.97579973635E+01  0.11614761585E+02  0.10566000000E+00 0.  1.
         14    1    4    4    0    0 -0.38600225332E+00  0.55028103284E-01  0.57915659360E+00  0.69817490046E+00  0.00000000000E+00 0. -1.
<mgrwt>
<rscale>  0 0.86390637E+02</rscale>
<asrwt>0</asrwt>
<pdfrwt beam="1">  1        2 0.12953565E-01 0.86390637E+02</pdfrwt>
<pdfrwt beam="2">  1       -1 0.34092381E-02 0.86390637E+02</pdfrwt>
<totfact> 0.13743215E+05</totfact>
</mgrwt>
</event>
<event>
 8    1  0.1520917E-017  0.7992444E+02  0.7818608E-02  0.1329266E+00
          2   -1    0    0  501    0  0.00000000000E+00  0.00000000000E+00  0.14480524392E+03  0.14480524394E+03  0.25500000000E-02 0. -1.
         -1   -1    0    0    0  501 -0.00000000000E+00 -0.00000000000E+00 -0.11028461100E+02  0.11028462252E+02  0.50400000000E-02 0.  1.
         24    2    1    2    0    0  0.00000000000E+00  0.17763568394E-14  0.13377678282E+03  0.15583370619E+03  0.79924441597E+02 0.  0.
         66    2    3    3    0    0 -0.35024706943E+02 -0.11522702170E+02  0.96849418499E+02  0.10364995239E+03  0.20000010555E+01 0.  0.
        -13    1    3    3    0    0  0.35024706943E+02  0.11522702170E+02  0.36927364317E+02  0.52183753805E+02  0.10566000000E+00 0.  1.
         13    1    4    4    0    0 -0.44567578833E+01 -0.16130181183E+01  0.12190836489E+02  0.13080220816E+02  0.10566000000E+00 0. -1.
        -13    1    4    4    0    0 -0.19145833551E+02 -0.63244964589E+01  0.55494132526E+02  0.59043815144E+02  0.10566000000E+00 0.  1.
        -14    1    4    4    0    0 -0.11422115509E+02 -0.35851875926E+01  0.29164449484E+02  0.31525916425E+02  0.00000000000E+00 0.  1.
<mgrwt>
<rscale>  0 0.79924442E+02</rscale>
<asrwt>0</asrwt>
<pdfrwt beam="1">  1        2 0.22277728E-01 0.79924442E+02</pdfrwt>
<pdfrwt beam="2">  1       -1 0.16966866E-02 0.79924442E+02</pdfrwt>
<totfact> 0.19854755E+05</totfact>
</mgrwt>
</event>
<event>
 8    1  0.1520917E-017  0.8113504E+02  0.7818608E-02  0.1325861E+00
          2   -1    0    0  501    0  0.00000000000E+00  0.00000000000E+00  0.18793851918E+02  0.18793852091E+02  0.25500000000E-02 0. -1.
         -1   -1    0    0    0  501 -0.00000000000E+00 -0.00000000000E+00 -0.87567127053E+02  0.87567127198E+02  0.50400000000E-02 0.  1.
         24    2    1    2    0    0  0.00000000000E+00  0.00000000000E+00 -0.68773275135E+02  0.10636097929E+03  0.81135038931E+02 0.  0.
         66    2    3    3    0    0  0.29137115469E+02 -0.25805426415E+02 -0.19528344104E+02  0.43591831400E+02  0.20000027571E+01 0.  0.
        -13    1    3    3    0    0 -0.29137115469E+02  0.25805426415E+02 -0.49244931031E+02  0.62769147889E+02  0.10566000000E+00 0.  1.
         13    1    4    4    0    0  0.11960503713E+02 -0.10192564350E+02 -0.72191153598E+01  0.17293605978E+02  0.10566000000E+00 0. -1.
        -13    1    4    4    0    0  0.90022687231E+01 -0.88489353332E+01 -0.63884434778E+01  0.14148069579E+02  0.10566000000E+00 0.  1.
        -14    1    4    4    0    0  0.81743430332E+01 -0.67639267321E+01 -0.59207852662E+01  0.12150155844E+02  0.00000000000E+00 0.  1.
<mgrwt>
<rscale>  0 0.81135039E+02</rscale>
<asrwt>0</asrwt>
<pdfrwt beam="1">  1        2 0.28913619E-02 0.81135039E+02</pdfrwt>
<pdfrwt beam="2">  1       -1 0.13471866E-01 0.81135039E+02</pdfrwt>
<totfact> 0.11770400E+05</totfact>
</mgrwt>
</event>
<event>
 8    1  0.1520917E-017  0.7923440E+02  0.7818608E-02  0.1331238E+00
         -1   -1    0    0    0  501 -0.00000000000E+00  0.00000000000E+00  0.21968214558E+02  0.21968215137E+02  0.50400000000E-02 0.  1.
          2   -1    0    0  501    0  0.00000000000E+00 -0.00000000000E+00 -0.71445158070E+02  0.71445158116E+02  0.25500000000E-02 0. -1.
         24    2    1    2    0    0  0.00000000000E+00 -0.35527136788E-14 -0.49476943512E+02  0.93413373252E+02  0.79234401387E+02 0.  0.
         66    2    3    3    0    0 -0.38452393417E+01  0.21301818519E+02 -0.63837115282E+02  0.67436863958E+02  0.19999988036E+01 0.  0.
        -13    1    3    3    0    0  0.38452393417E+01 -0.21301818519E+02  0.14360171770E+02  0.25976509294E+02  0.10566000000E+00 0.  1.
         13    1    4    4    0    0 -0.16200026418E+01  0.64279726714E+01 -0.21769695954E+02  0.22756846600E+02  0.10566000000E+00 0. -1.
        -13    1    4    4    0    0 -0.28223869662E+00  0.32995943696E+01 -0.87966330743E+01  0.93999414448E+01  0.10566000000E+00 0.  1.
         14    1    4    4    0    0 -0.19429980032E+01  0.11574251478E+02 -0.33270786254E+02  0.35280075914E+02  0.00000000000E+00 0. -1.
<mgrwt>
<rscale>  0 0.79234401E+02</rscale>
<asrwt>0</asrwt>
<pdfrwt beam="1">  1        2 0.10991563E-01 0.79234401E+02</pdfrwt>
<pdfrwt beam="2">  1       -1 0.33797254E-02 0.79234401E+02</pdfrwt>
<totfact> 0.16654990E+05</totfact>
</mgrwt>
</event>
<event>
 8    1  0.1520917E-017  0.7488086E+02  0.7818608E-02  0.1344240E+00
          2   -1    0    0  501    0  0.00000000000E+00  0.00000000000E+00  0.21641496677E+03  0.21641496678E+03  0.25500000000E-02 0. -1.
         -1   -1    0    0    0  501 -0.00000000000E+00 -0.00000000000E+00 -0.64773034902E+01  0.64773054510E+01  0.50400000000E-02 0.  1.
         24    2    1    2    0    0  0.00000000000E+00  0.00000000000E+00  0.20993766328E+03  0.22289227224E+03  0.74880855759E+02 0.  0.
         66    2    3    3    0    0 -0.65941610934E+01 -0.82078608274E+01  0.21190929006E+03  0.21218011017E+03  0.19999995609E+01 0.  0.
        -13    1    3    3    0    0  0.65941610934E+01  0.82078608274E+01 -0.19716267818E+01  0.10712162064E+02  0.10566000000E+00 0.  1.
         13    1    4    4    0    0 -0.11130640378E+00  0.33597066683E-01  0.16519956927E+01  0.16594492106E+01  0.10566000000E+00 0. -1.
        -13    1    4    4    0    0 -0.16145170603E+01 -0.17471598699E+01  0.41426888758E+02  0.41495270925E+02  0.10566000000E+00 0.  1.
         14    1    4    4    0    0 -0.48683376293E+01 -0.64942980242E+01  0.16883040561E+03  0.16902539004E+03  0.00000000000E+00 0. -1.
<mgrwt>
<rscale>  0 0.74880856E+02</rscale>
<asrwt>0</asrwt>
<pdfrwt beam="1">  1        2 0.33294608E-01 0.74880856E+02</pdfrwt>
<pdfrwt beam="2">  1       -1 0.99650844E-03 0.74880856E+02</pdfrwt>
<totfact> 0.26975281E+05</totfact>
</mgrwt>
</event>
<event>
 8    1  0.1520917E-017  0.7569204E+02  0.7818608E-02  0.1341741E+00
          2   -1    0    0  501    0  0.00000000000E+00  0.00000000000E+00  0.68401882871E+02  0.68401882918E+02  0.25500000000E-02 0. -1.
         -1   -1    0    0    0  501 -0.00000000000E+00 -0.00000000000E+00 -0.20939790982E+02  0.20939791589E+02  0.50400000000E-02 0.  1.
         24    2    1    2    0    0  0.00000000000E+00 -0.17763568394E-14  0.47462091888E+02  0.89341674507E+02  0.75692038136E+02 0.  0.
         66    2    3    3    0    0  0.26571889379E+02  0.14427684679E+02  0.50561951761E+02  0.58946877491E+02  0.20000024388E+01 0.  0.
        -13    1    3    3    0    0 -0.26571889379E+02 -0.14427684679E+02 -0.30998598723E+01  0.30394797016E+02  0.10566000000E+00 0.  1.
         13    1    4    4    0    0  0.19995696952E+01  0.11992651334E+01  0.44410209736E+01  0.50170057952E+01  0.10566000000E+00 0.  1.
        -13    1    4    4    0    0  0.18116512441E+02  0.10479519225E+02  0.34072509857E+02  0.39987190927E+02  0.10566000000E+00 0. -1.
         14    1    4    4    0    0  0.64558072420E+01  0.27489003207E+01  0.12048420930E+02  0.13942680769E+02  0.00000000000E+00 0. -1.
<mgrwt>
<rscale>  0 0.75692038E+02</rscale>
<asrwt>0</asrwt>
<pdfrwt beam="1">  1        2 0.10523367E-01 0.75692038E+02</pdfrwt>
<pdfrwt beam="2">  1       -1 0.32215063E-02 0.75692038E+02</pdfrwt>
<totfact> 0.18643480E+05</totfact>
</mgrwt>
</event>
<event>
 8    1  0.2046693E-017  0.8020085E+02  0.7818608E-02  0.1328482E+00
         -1   -1    0    0    0  501 -0.00000000000E+00  0.00000000000E+00  0.18873819602E+01  0.18873886896E+01  0.50400000000E-02 0.  1.
          2   -1    0    0  501    0  0.00000000000E+00 -0.00000000000E+00 -0.85199571547E+03  0.85199571547E+03  0.25500000000E-02 0. -1.
         24    2    1    2    0    0  0.00000000000E+00  0.00000000000E+00 -0.85010833351E+03  0.85388310416E+03  0.80200853318E+02 0.  0.
         66    2    3    3    0    0  0.30965564811E+02  0.12822763227E+01 -0.69582397442E+03  0.69651670032E+03  0.20000005842E+01 0.  0.
        -13    1    3    3    0    0 -0.30965564811E+02 -0.12822763227E+01 -0.15428435908E+03  0.15736640384E+03  0.10566000000E+00 0.  1.
         13    1    4    4    0    0  0.16889064378E+02  0.82569373157E+00 -0.38801386152E+03  0.38838214449E+03  0.10566000000E+00 0. -1.
        -13    1    4    4    0    0  0.45464719987E+01 -0.42400982004E-01 -0.11124596191E+03  0.11133888544E+03  0.10566000000E+00 0.  1.
        -14    1    4    4    0    0  0.95300284341E+01  0.49898357313E+00 -0.19656415100E+03  0.19679567039E+03  0.00000000000E+00 0.  1.
<mgrwt>
<rscale>  0 0.80200853E+02</rscale>
<asrwt>0</asrwt>
<pdfrwt beam="1">  1        2 0.13107596E+00 0.80200853E+02</pdfrwt>
<pdfrwt beam="2">  1       -1 0.29036765E-03 0.80200853E+02</pdfrwt>
<totfact> 0.34481476E+05</totfact>
</mgrwt>
</event>
<event>
 8    1  0.1520917E-017  0.8025387E+02  0.7818608E-02  0.1328333E+00
          2   -1    0    0  501    0  0.00000000000E+00  0.00000000000E+00  0.17917506048E+04  0.17917506048E+04  0.25500000000E-02 0. -1.
         -1   -1    0    0    0  501 -0.00000000000E+00 -0.00000000000E+00 -0.89865089658E+00  0.89866502965E+00  0.50400000000E-02 0.  1.
         24    2    1    2    0    0 -0.17763568394E-14  0.00000000000E+00  0.17908519539E+04  0.17926492699E+04  0.80253871107E+02 0.  0.
         66    2    3    3    0    0  0.14140359322E+02  0.70403237773E+01  0.17193279843E+04  0.17194017080E+04  0.19999989594E+01 0.  0.
        -13    1    3    3    0    0 -0.14140359322E+02 -0.70403237773E+01  0.71523969599E+02  0.73247561816E+02  0.10566000000E+00 0.  1.
         13    1    4    4    0    0  0.66045391364E+01  0.24448669620E+01  0.76239901284E+03  0.76243154660E+03  0.10566000000E+00 0. -1.
        -13    1    4    4    0    0  0.55246353926E+00  0.63036050615E+00  0.99247255504E+02  0.99250851178E+02  0.10566000000E+00 0.  1.
         14    1    4    4    0    0  0.69833566468E+01  0.39650963091E+01  0.85768171598E+03  0.85771931026E+03  0.00000000000E+00 0. -1.
<mgrwt>
<rscale>  0 0.80253871E+02</rscale>
<asrwt>0</asrwt>
<pdfrwt beam="1">  1        2 0.27565256E+00 0.80253871E+02</pdfrwt>
<pdfrwt beam="2">  1       -1 0.13825577E-03 0.80253871E+02</pdfrwt>
<totfact> 0.30065105E+05</totfact>
</mgrwt>
</event>
<event>
 8    1  0.1520917E-017  0.7870102E+02  0.7818608E-02  0.1332779E+00
         -1   -1    0    0    0  501 -0.00000000000E+00  0.00000000000E+00  0.11761032124E+02  0.11761033204E+02  0.50400000000E-02 0.  1.
          2   -1    0    0  501    0  0.00000000000E+00 -0.00000000000E+00 -0.13166043495E+03  0.13166043498E+03  0.25500000000E-02 0. -1.
         24    2    1    2    0    0  0.00000000000E+00  0.35527136788E-14 -0.11989940283E+03  0.14342146818E+03  0.78701021192E+02 0.  0.
         66    2    3    3    0    0  0.19074070313E+02 -0.27743160258E+02 -0.97020974608E+02  0.10271598033E+03  0.20000003938E+01 0.  0.
        -13    1    3    3    0    0 -0.19074070313E+02  0.27743160258E+02 -0.22878428219E+02  0.40705487851E+02  0.10566000000E+00 0.  1.
         13    1    4    4    0    0  0.11759995534E+02 -0.17375607764E+02 -0.61818795892E+02  0.65282340106E+02  0.10566000000E+00 0. -1.
        -13    1    4    4    0    0  0.13653476637E+01 -0.14115206622E+01 -0.48578038481E+01  0.52408002332E+01  0.10566000000E+00 0.  1.
        -14    1    4    4    0    0  0.59487271150E+01 -0.89560318321E+01 -0.30344374868E+02  0.32192839989E+02  0.00000000000E+00 0.  1.
<mgrwt>
<rscale>  0 0.78701021E+02</rscale>
<asrwt>0</asrwt>
<pdfrwt beam="1">  1        2 0.20255451E-01 0.78701021E+02</pdfrwt>
<pdfrwt beam="2">  1       -1 0.18093897E-02 0.78701021E+02</pdfrwt>
<totfact> 0.20076702E+05</totfact>
</mgrwt>
</event>
<event>
 8    1  0.1520917E-017  0.8244709E+02  0.7818608E-02  0.1322247E+00
          2   -1    0    0  501    0  0.00000000000E+00  0.00000000000E+00  0.40105040137E+03  0.40105040137E+03  0.25500000000E-02 0. -1.
         -1   -1    0    0    0  501 -0.00000000000E+00 -0.00000000000E+00 -0.42373224676E+01  0.42373254650E+01  0.50400000000E-02 0.  1.
         24    2    1    2    0    0  0.35527136788E-14  0.17763568394E-14  0.39681307890E+03  0.40528772684E+03  0.82447085707E+02 0.  0.
         66    2    3    3    0    0 -0.25134012297E+02 -0.14929570399E+02  0.34122867497E+03  0.34248448034E+03  0.20000018760E+01 0.  0.
        -13    1    3    3    0    0  0.25134012297E+02  0.14929570399E+02  0.55584403933E+02  0.62803246500E+02  0.10566000000E+00 0.  1.
         13    1    4    4    0    0 -0.13139418519E+01 -0.73413469401E+00  0.13667554996E+02  0.13750586190E+02  0.10566000000E+00 0.  1.
        -13    1    4    4    0    0 -0.68509561462E+01 -0.38559929201E+01  0.88940269683E+02  0.89287104426E+02  0.10566000000E+00 0. -1.
         14    1    4    4    0    0 -0.16969114299E+02 -0.10339442785E+02  0.23862085029E+03  0.23944678972E+03  0.00000000000E+00 0. -1.
<mgrwt>
<rscale>  0 0.82447086E+02</rscale>
<asrwt>0</asrwt>
<pdfrwt beam="1">  1        2 0.61700076E-01 0.82447086E+02</pdfrwt>
<pdfrwt beam="2">  1       -1 0.65189585E-03 0.82447086E+02</pdfrwt>
<totfact> 0.26136110E+05</totfact>
</mgrwt>
</event>
<event>
 8    1  0.1520917E-017  0.7811177E+02  0.7818608E-02  0.1334497E+00
          2   -1    0    0  501    0  0.00000000000E+00  0.00000000000E+00  0.23399964147E+03  0.23399964148E+03  0.25500000000E-02 0. -1.
         -1   -1    0    0    0  501 -0.00000000000E+00 -0.00000000000E+00 -0.65186501966E+01  0.65186521449E+01  0.50400000000E-02 0.  1.
         24    2    1    2    0    0  0.00000000000E+00  0.00000000000E+00  0.22748099127E+03  0.24051829363E+03  0.78111767227E+02 0.  0.
         66    2    3    3    0    0 -0.33749228647E+02  0.19261275030E+02  0.10256435754E+03  0.10969710384E+03  0.20000008802E+01 0.  0.
        -13    1    3    3    0    0  0.33749228647E+02 -0.19261275030E+02  0.12491663373E+03  0.13082118978E+03  0.10566000000E+00 0.  1.
         13    1    4    4    0    0 -0.11462038244E+02  0.70262147562E+01  0.35526634568E+02  0.37985509635E+02  0.10566000000E+00 0. -1.
        -13    1    4    4    0    0 -0.44968133800E+01  0.30858100303E+01  0.14991045045E+02  0.15952622032E+02  0.10566000000E+00 0.  1.
        -14    1    4    4    0    0 -0.17790377024E+02  0.91492502434E+01  0.52046677927E+02  0.55758972174E+02  0.00000000000E+00 0.  1.
<mgrwt>
<rscale>  0 0.78111767E+02</rscale>
<asrwt>0</asrwt>
<pdfrwt beam="1">  1        2 0.35999934E-01 0.78111767E+02</pdfrwt>
<pdfrwt beam="2">  1       -1 0.10028697E-02 0.78111767E+02</pdfrwt>
<totfact> 0.24821843E+05</totfact>
</mgrwt>
</event>
<event>
 8    1  0.1520917E-017  0.7925305E+02  0.7818608E-02  0.1331185E+00
         -1   -1    0    0    0  501 -0.00000000000E+00  0.00000000000E+00  0.51091993392E+02  0.51091993640E+02  0.50400000000E-02 0.  1.
          2   -1    0    0  501    0  0.00000000000E+00 -0.00000000000E+00 -0.30734002812E+02  0.30734002918E+02  0.25500000000E-02 0. -1.
         24    2    1    2    0    0 -0.22204460493E-15  0.00000000000E+00  0.20357990579E+02  0.81825996558E+02  0.79253049988E+02 0.  0.
         66    2    3    3    0    0  0.12614186599E+01 -0.37276503919E+02 -0.35555452442E+01  0.37520271408E+02  0.19999857691E+01 0.  0.
        -13    1    3    3    0    0 -0.12614186599E+01  0.37276503919E+02  0.23913535824E+02  0.44305725150E+02  0.10566000000E+00 0.  1.
         13    1    4    4    0    0 -0.59055134134E-01 -0.11632015613E+02 -0.72470740400E+00  0.11655197965E+02  0.10566000000E+00 0. -1.
        -13    1    4    4    0    0  0.20523210055E+00 -0.37463377292E+01 -0.85581299474E+00  0.38497722678E+01  0.10566000000E+00 0.  1.
         14    1    4    4    0    0  0.11152416935E+01 -0.21898150577E+02 -0.19750248454E+01  0.22015301176E+02  0.00000000000E+00 0. -1.
<mgrwt>
<rscale>  0 0.79253050E+02</rscale>
<asrwt>0</asrwt>
<pdfrwt beam="1">  1        2 0.47283082E-02 0.79253050E+02</pdfrwt>
<pdfrwt beam="2">  1       -1 0.78603066E-02 0.79253050E+02</pdfrwt>
<totfact> 0.13879071E+05</totfact>
</mgrwt>
</event>
<event>
 8    1  0.1520917E-017  0.8116700E+02  0.7818608E-02  0.1325772E+00
         -1   -1    0    0    0  501 -0.00000000000E+00  0.00000000000E+00  0.21727642278E+01  0.21727700732E+01  0.50400000000E-02 0.  1.
          2   -1    0    0  501    0  0.00000000000E+00 -0.00000000000E+00 -0.75802906792E+03  0.75802906792E+03  0.25500000000E-02 0. -1.
         24    2    1    2    0    0  0.00000000000E+00 -0.88817841970E-15 -0.75585630369E+03  0.76020183800E+03  0.81167004772E+02 0.  0.
         66    2    3    3    0    0  0.36009613481E+02 -0.52612474214E+01 -0.54586740822E+03  0.54708280935E+03  0.19999845018E+01 0.  0.
        -13    1    3    3    0    0 -0.36009613481E+02  0.52612474214E+01 -0.20998889547E+03  0.21311902865E+03  0.10566000000E+00 0.  1.
         13    1    4    4    0    0  0.49293346111E+01 -0.56048376651E+00 -0.67266508912E+02  0.67449291079E+02  0.10566000000E+00 0. -1.
        -13    1    4    4    0    0  0.95659463645E+01 -0.10679849729E+01 -0.15251157732E+03  0.15281505260E+03  0.10566000000E+00 0.  1.
         14    1    4    4    0    0  0.21514332506E+02 -0.36327786820E+01 -0.32608932199E+03  0.32681846567E+03  0.00000000000E+00 0. -1.
<mgrwt>
<rscale>  0 0.81167005E+02</rscale>
<asrwt>0</asrwt>
<pdfrwt beam="1">  1        2 0.11661965E+00 0.81167005E+02</pdfrwt>
<pdfrwt beam="2">  1       -1 0.33427248E-03 0.81167005E+02</pdfrwt>
<totfact> 0.32767405E+05</totfact>
</mgrwt>
</event>
<event>
 8    1  0.1520917E-017  0.7662421E+02  0.7818608E-02  0.1338914E+00
          2   -1    0    0  501    0  0.00000000000E+00  0.00000000000E+00  0.78450226789E+01  0.78450230933E+01  0.25500000000E-02 0. -1.
         -1   -1    0    0    0  501 -0.00000000000E+00 -0.00000000000E+00 -0.18710175215E+03  0.18710175222E+03  0.50400000000E-02 0.  1.
         24    2    1    2    0    0  0.00000000000E+00 -0.17763568394E-14 -0.17925672947E+03  0.19494677531E+03  0.76624213821E+02 0.  0.
         66    2    3    3    0    0 -0.26684613324E+02  0.15369194366E+02 -0.31810580612E+02  0.44319225702E+02  0.20000010757E+01 0.  0.
        -13    1    3    3    0    0  0.26684613324E+02 -0.15369194366E+02 -0.14744614886E+03  0.15062754961E+03  0.10566000000E+00 0.  1.
         13    1    4    4    0    0 -0.59510165499E+01  0.32208153929E+01 -0.59803661973E+01  0.90312897009E+01  0.10566000000E+00 0. -1.
        -13    1    4    4    0    0 -0.13957293137E+02  0.82436809777E+01 -0.17926056043E+02  0.24168553061E+02  0.10566000000E+00 0.  1.
         14    1    4    4    0    0 -0.67763036368E+01  0.39046979952E+01 -0.79041583718E+01  0.11119382941E+02  0.00000000000E+00 0. -1.
<mgrwt>
<rscale>  0 0.76624214E+02</rscale>
<asrwt>0</asrwt>
<pdfrwt beam="1">  1        2 0.12069267E-02 0.76624214E+02</pdfrwt>
<pdfrwt beam="2">  1       -1 0.28784882E-01 0.76624214E+02</pdfrwt>
<totfact> 0.11334587E+05</totfact>
</mgrwt>
</event>
<event>
 8    1  0.1520917E-017  0.8206120E+02  0.7818608E-02  0.1323302E+00
          2   -1    0    0  501    0  0.00000000000E+00  0.00000000000E+00  0.62226407887E+02  0.62226407939E+02  0.25500000000E-02 0. -1.
         -1   -1    0    0    0  501 -0.00000000000E+00 -0.00000000000E+00 -0.27054591370E+02  0.27054591840E+02  0.50400000000E-02 0.  1.
         24    2    1    2    0    0  0.35527136788E-14 -0.44408920985E-15  0.35171816516E+02  0.89280999779E+02  0.82061198166E+02 0.  0.
         66    2    3    3    0    0 -0.24827418577E+02  0.23696082343E+01  0.53009876465E+02  0.58617938889E+02  0.20000000958E+01 0.  0.
        -13    1    3    3    0    0  0.24827418577E+02 -0.23696082343E+01 -0.17838059949E+02  0.30663060890E+02  0.10566000000E+00 0.  1.
         13    1    4    4    0    0 -0.17085343171E+02  0.18405081652E+01  0.35207172874E+02  0.39177194991E+02  0.10566000000E+00 0. -1.
        -13    1    4    4    0    0 -0.31145030575E+01 -0.18148254560E+00  0.67141840332E+01  0.74043565877E+01  0.10566000000E+00 0.  1.
         14    1    4    4    0    0 -0.46275723481E+01  0.71058261468E+00  0.11088519558E+02  0.12036387310E+02  0.00000000000E+00 0. -1.
<mgrwt>
<rscale>  0 0.82061198E+02</rscale>
<asrwt>0</asrwt>
<pdfrwt beam="1">  1        2 0.95732935E-02 0.82061198E+02</pdfrwt>
<pdfrwt beam="2">  1       -1 0.41622449E-02 0.82061198E+02</pdfrwt>
<totfact> 0.14648348E+05</totfact>
</mgrwt>
</event>
<event>
 8    1  0.1520917E-017  0.8007944E+02  0.7818608E-02  0.1328826E+00
          2   -1    0    0  501    0  0.00000000000E+00  0.00000000000E+00  0.67335344522E+02  0.67335344570E+02  0.25500000000E-02 0. -1.
         -1   -1    0    0    0  501 -0.00000000000E+00 -0.00000000000E+00 -0.23808882992E+02  0.23808883525E+02  0.50400000000E-02 0.  1.
         24    2    1    2    0    0  0.35527136788E-14  0.00000000000E+00  0.43526461530E+02  0.91144228095E+02  0.80079444689E+02 0.  0.
         66    2    3    3    0    0 -0.29916232910E+02  0.11155457609E+02  0.49228895432E+02  0.58710385547E+02  0.19999998800E+01 0.  0.
        -13    1    3    3    0    0  0.29916232910E+02 -0.11155457609E+02 -0.57024339024E+01  0.32433842548E+02  0.10566000000E+00 0.  1.
         13    1    4    4    0    0 -0.12870308397E+02  0.52660139790E+01  0.20494549902E+02  0.24767185573E+02  0.10566000000E+00 0. -1.
        -13    1    4    4    0    0 -0.23554107631E+01  0.11208272845E+01  0.37164444626E+01  0.45417328349E+01  0.10566000000E+00 0.  1.
         14    1    4    4    0    0 -0.14690513750E+02  0.47686163459E+01  0.25017901068E+02  0.29401467139E+02  0.00000000000E+00 0. -1.
<mgrwt>
<rscale>  0 0.80079445E+02</rscale>
<asrwt>0</asrwt>
<pdfrwt beam="1">  1        2 0.10359284E-01 0.80079445E+02</pdfrwt>
<pdfrwt beam="2">  1       -1 0.36629052E-02 0.80079445E+02</pdfrwt>
<totfact> 0.15952309E+05</totfact>
</mgrwt>
</event>
<event>
 8    1  0.1520917E-017  0.7244219E+02  0.7818608E-02  0.1351980E+00
          2   -1    0    0  501    0  0.00000000000E+00  0.00000000000E+00  0.91258594934E+03  0.91258594934E+03  0.25500000000E-02 0. -1.
         -1   -1    0    0    0  501 -0.00000000000E+00 -0.00000000000E+00 -0.14376330326E+01  0.14376418671E+01  0.50400000000E-02 0.  1.
         24    2    1    2    0    0  0.00000000000E+00  0.00000000000E+00  0.91114831631E+03  0.91402359121E+03  0.72442190607E+02 0.  0.
         66    2    3    3    0    0  0.14724172311E+02  0.21495080048E+02  0.77289389684E+03  0.77333551289E+03  0.20000002228E+01 0.  0.
        -13    1    3    3    0    0 -0.14724172311E+02 -0.21495080048E+02  0.13825441947E+03  0.14068807832E+03  0.10566000000E+00 0.  1.
         13    1    4    4    0    0  0.63724071491E+00  0.12481578300E+01  0.36873513656E+02  0.36900286545E+02  0.10566000000E+00 0. -1.
        -13    1    4    4    0    0  0.34140212901E+00  0.94150668346E+00  0.34226645644E+02  0.34241457714E+02  0.10566000000E+00 0.  1.
         14    1    4    4    0    0  0.13745529467E+02  0.19305415535E+02  0.70179373754E+03  0.70219376863E+03  0.00000000000E+00 0. -1.
<mgrwt>
<rscale>  0 0.72442191E+02</rscale>
<asrwt>0</asrwt>
<pdfrwt beam="1">  1        2 0.14039824E+00 0.72442191E+02</pdfrwt>
<pdfrwt beam="2">  1       -1 0.22117437E-03 0.72442191E+02</pdfrwt>
<totfact> 0.45225433E+05</totfact>
</mgrwt>
</event>
<event>
 8    1  0.1520917E-017  0.8191309E+02  0.7818608E-02  0.1323708E+00
          2   -1    0    0  501    0  0.00000000000E+00  0.00000000000E+00  0.15648283759E+02  0.15648283967E+02  0.25500000000E-02 0. -1.
         -1   -1    0    0    0  501 -0.00000000000E+00 -0.00000000000E+00 -0.10719631574E+03  0.10719631586E+03  0.50400000000E-02 0.  1.
         24    2    1    2    0    0  0.00000000000E+00 -0.35527136788E-14 -0.91548031985E+02  0.12284459983E+03  0.81913085321E+02 0.  0.
         66    2    3    3    0    0  0.22389177750E+02 -0.24736032053E+02 -0.10239591019E+02  0.34957056352E+02  0.20000006232E+01 0.  0.
        -13    1    3    3    0    0 -0.22389177750E+02  0.24736032053E+02 -0.81308440966E+02  0.87887543477E+02  0.10566000000E+00 0.  1.
         13    1    4    4    0    0  0.88207919251E+01 -0.10041472823E+02 -0.49301492951E+01  0.14246230475E+02  0.10566000000E+00 0. -1.
        -13    1    4    4    0    0  0.32755646800E+01 -0.31047262525E+01 -0.10302129749E+01  0.46304591441E+01  0.10566000000E+00 0.  1.
         14    1    4    4    0    0  0.10292821145E+02 -0.11589832978E+02 -0.42792287487E+01  0.16080366732E+02  0.00000000000E+00 0. -1.
<mgrwt>
<rscale>  0 0.81913085E+02</rscale>
<asrwt>0</asrwt>
<pdfrwt beam="1">  1        2 0.24074284E-02 0.81913085E+02</pdfrwt>
<pdfrwt beam="2">  1       -1 0.16491740E-01 0.81913085E+02</pdfrwt>
<totfact> 0.11006124E+05</totfact>
</mgrwt>
</event>
<event>
 8    1  0.1520917E-017  0.8126490E+02  0.7818608E-02  0.1325500E+00
          2   -1    0    0  501    0  0.00000000000E+00  0.00000000000E+00  0.21833307322E+03  0.21833307324E+03  0.25500000000E-02 0. -1.
         -1   -1    0    0    0  501 -0.00000000000E+00 -0.00000000000E+00 -0.75618224909E+01  0.75618241705E+01  0.50400000000E-02 0.  1.
         24    2    1    2    0    0  0.00000000000E+00  0.00000000000E+00  0.21077125073E+03  0.22589489741E+03  0.81264903495E+02 0.  0.
         66    2    3    3    0    0 -0.18730987281E+02  0.17917832069E+02  0.19233956966E+03  0.19408866183E+03  0.20000005809E+01 0.  0.
        -13    1    3    3    0    0  0.18730987281E+02 -0.17917832069E+02  0.18431681070E+02  0.31806235579E+02  0.10566000000E+00 0.  1.
         13    1    4    4    0    0 -0.12950307580E+02  0.11796491675E+02  0.13242518245E+03  0.13357884486E+03  0.10566000000E+00 0. -1.
        -13    1    4    4    0    0 -0.16099684372E+00  0.19943804765E+00  0.12703368957E+01  0.13002366641E+01  0.10566000000E+00 0.  1.
         14    1    4    4    0    0 -0.56196828575E+01  0.59219023471E+01  0.58644050316E+02  0.59209580308E+02  0.00000000000E+00 0. -1.
<mgrwt>
<rscale>  0 0.81264903E+02</rscale>
<asrwt>0</asrwt>
<pdfrwt beam="1">  1        2 0.33589702E-01 0.81264903E+02</pdfrwt>
<pdfrwt beam="2">  1       -1 0.11633575E-02 0.81264903E+02</pdfrwt>
<totfact> 0.21824410E+05</totfact>
</mgrwt>
</event>
<event>
 8    1  0.1520917E-017  0.8513110E+02  0.7818608E-02  0.1315090E+00
         -1   -1    0    0    0  501 -0.00000000000E+00  0.00000000000E+00  0.11463806576E+01  0.11463917366E+01  0.50400000000E-02 0.  1.
          2   -1    0    0  501    0  0.00000000000E+00 -0.00000000000E+00 -0.15804674193E+04  0.15804674193E+04  0.25500000000E-02 0. -1.
         24    2    1    2    0    0  0.17763568394E-14  0.00000000000E+00 -0.15793210386E+04  0.15816138110E+04  0.85131099898E+02 0.  0.
         66    2    3    3    0    0  0.15951135606E+02 -0.18737244073E+01 -0.15219754685E+04  0.15220615218E+04  0.19999927094E+01 0.  0.
        -13    1    3    3    0    0 -0.15951135606E+02  0.18737244073E+01 -0.57345570165E+02  0.59552289224E+02  0.10566000000E+00 0.  1.
         13    1    4    4    0    0  0.11679987530E+02 -0.11821244386E+01 -0.10584396279E+04  0.10585047362E+04  0.10566000000E+00 0. -1.
        -13    1    4    4    0    0  0.13519931212E+01 -0.32780828964E+00 -0.11326945182E+03  0.11327804387E+03  0.10566000000E+00 0.  1.
         14    1    4    4    0    0  0.29191549541E+01 -0.36379167900E+00 -0.35026638878E+03  0.35027874175E+03  0.00000000000E+00 0. -1.
<mgrwt>
<rscale>  0 0.85131100E+02</rscale>
<asrwt>0</asrwt>
<pdfrwt beam="1">  1        2 0.24314709E+00 0.85131100E+02</pdfrwt>
<pdfrwt beam="2">  1       -1 0.17636837E-03 0.85131100E+02</pdfrwt>
<totfact> 0.27666052E+05</totfact>
</mgrwt>
</event>
<event>
 8    1  0.1520917E-017  0.8054772E+02  0.7818608E-02  0.1327504E+00
         -1   -1    0    0    0  501 -0.00000000000E+00  0.00000000000E+00  0.51044139765E+02  0.51044140014E+02  0.50400000000E-02 0.  1.
          2   -1    0    0  501    0  0.00000000000E+00 -0.00000000000E+00 -0.31776099042E+02  0.31776099144E+02  0.25500000000E-02 0. -1.
         24    2    1    2    0    0  0.00000000000E+00  0.00000000000E+00  0.19268040723E+02  0.82820239158E+02  0.80547716422E+02 0.  0.
         66    2    3    3    0    0 -0.31325134959E+02  0.18864952652E+02  0.26931917590E+02  0.45458538294E+02  0.19999999990E+01 0.  0.
        -13    1    3    3    0    0  0.31325134959E+02 -0.18864952652E+02 -0.76638768670E+01  0.37361700864E+02  0.10566000000E+00 0.  1.
         13    1    4    4    0    0 -0.10250338200E+02  0.67054803375E+01  0.86211062986E+01  0.14978903085E+02  0.10566000000E+00 0. -1.
        -13    1    4    4    0    0 -0.18563540067E+02  0.11178866838E+02  0.16215896236E+02  0.27065449162E+02  0.10566000000E+00 0.  1.
        -14    1    4    4    0    0 -0.25112566913E+01  0.98060547689E+00  0.20949150559E+01  0.34141860468E+01  0.00000000000E+00 0.  1.
<mgrwt>
<rscale>  0 0.80547716E+02</rscale>
<asrwt>0</asrwt>
<pdfrwt beam="1">  1        2 0.48886307E-02 0.80547716E+02</pdfrwt>
<pdfrwt beam="2">  1       -1 0.78529445E-02 0.80547716E+02</pdfrwt>
<totfact> 0.13352008E+05</totfact>
</mgrwt>
</event>
<event>
 8    1  0.1520917E-017  0.7636653E+02  0.7818608E-02  0.1339691E+00
         -1   -1    0    0    0  501 -0.00000000000E+00  0.00000000000E+00  0.24090153417E+01  0.24090206139E+01  0.50400000000E-02 0.  1.
          2   -1    0    0  501    0  0.00000000000E+00 -0.00000000000E+00 -0.60521003926E+03  0.60521003927E+03  0.25500000000E-02 0. -1.
         24    2    1    2    0    0  0.00000000000E+00  0.00000000000E+00 -0.60280102392E+03  0.60761905988E+03  0.76366533845E+02 0.  0.
         66    2    3    3    0    0  0.30544288488E+02 -0.10857437436E+02 -0.46175405134E+03  0.46289484924E+03  0.20000048242E+01 0.  0.
        -13    1    3    3    0    0 -0.30544288488E+02  0.10857437436E+02 -0.14104697258E+03  0.14472421064E+03  0.10566000000E+00 0.  1.
         13    1    4    4    0    0  0.25426059810E+02 -0.84615028059E+01 -0.37574121142E+03  0.37669556763E+03  0.10566000000E+00 0. -1.
        -13    1    4    4    0    0  0.10314589821E+01 -0.63352916106E+00 -0.18998292312E+02  0.19037109592E+02  0.10566000000E+00 0.  1.
        -14    1    4    4    0    0  0.40867696960E+01 -0.17624054693E+01 -0.67014547604E+02  0.67162172018E+02  0.00000000000E+00 0.  1.
<mgrwt>
<rscale>  0 0.76366534E+02</rscale>
<asrwt>0</asrwt>
<pdfrwt beam="1">  1        2 0.93109116E-01 0.76366534E+02</pdfrwt>
<pdfrwt beam="2">  1       -1 0.37061863E-03 0.76366534E+02</pdfrwt>
<totfact> 0.36375470E+05</totfact>
</mgrwt>
</event>
<event>
 8    1  0.1520917E-017  0.8351004E+02  0.7818608E-02  0.1319376E+00
          2   -1    0    0  501    0  0.00000000000E+00  0.00000000000E+00  0.21725571785E+03  0.21725571786E+03  0.25500000000E-02 0. -1.
         -1   -1    0    0    0  501 -0.00000000000E+00 -0.00000000000E+00 -0.80250200537E+01  0.80250216364E+01  0.50400000000E-02 0.  1.
         24    2    1    2    0    0 -0.35527136788E-14 -0.17763568394E-14  0.20923069779E+03  0.22528073950E+03  0.83510039455E+02 0.  0.
         66    2    3    3    0    0 -0.25272053588E+02 -0.14193939270E+02  0.18566451078E+03  0.18792406755E+03  0.19999993279E+01 0.  0.
        -13    1    3    3    0    0  0.25272053588E+02  0.14193939270E+02  0.23566187012E+02  0.37356671945E+02  0.10566000000E+00 0.  1.
         13    1    4    4    0    0 -0.18209189597E+02 -0.10876733777E+02  0.13471940653E+03  0.13637891180E+03  0.10566000000E+00 0. -1.
        -13    1    4    4    0    0 -0.40997866048E+00 -0.80567868835E-01  0.22035512981E+01  0.22453008801E+01  0.10566000000E+00 0.  1.
         14    1    4    4    0    0 -0.66528853301E+01 -0.32366376236E+01  0.48741552953E+02  0.49299854874E+02  0.00000000000E+00 0. -1.
<mgrwt>
<rscale>  0 0.83510039E+02</rscale>
<asrwt>0</asrwt>
<pdfrwt beam="1">  1        2 0.33423959E-01 0.83510039E+02</pdfrwt>
<pdfrwt beam="2">  1       -1 0.12346185E-02 0.83510039E+02</pdfrwt>
<totfact> 0.20272348E+05</totfact>
</mgrwt>
</event>
<event>
 8    1  0.1520917E-017  0.8002424E+02  0.7818608E-02  0.1328983E+00
         -1   -1    0    0    0  501 -0.00000000000E+00  0.00000000000E+00  0.22088991652E+02  0.22088992227E+02  0.50400000000E-02 0.  1.
          2   -1    0    0  501    0  0.00000000000E+00 -0.00000000000E+00 -0.72478169508E+02  0.72478169553E+02  0.25500000000E-02 0. -1.
         24    2    1    2    0    0 -0.71054273576E-14 -0.17763568394E-14 -0.50389177856E+02  0.94567161780E+02  0.80024239091E+02 0.  0.
         66    2    3    3    0    0 -0.35334750036E+02 -0.11013931352E+02 -0.43097555600E+02  0.56844089753E+02  0.19999992908E+01 0.  0.
        -13    1    3    3    0    0  0.35334750036E+02  0.11013931352E+02 -0.72916222555E+01  0.37723072026E+02  0.10566000000E+00 0.  1.
         13    1    4    4    0    0 -0.20577227173E+02 -0.57893066477E+01 -0.24730115090E+02  0.32688348168E+02  0.10566000000E+00 0. -1.
        -13    1    4    4    0    0 -0.58369847766E+01 -0.25423018020E+01 -0.71259827569E+01  0.95563844639E+01  0.10566000000E+00 0.  1.
        -14    1    4    4    0    0 -0.89205380870E+01 -0.26823229023E+01 -0.11241457754E+02  0.14599357121E+02  0.00000000000E+00 0.  1.
<mgrwt>
<rscale>  0 0.80024239E+02</rscale>
<asrwt>0</asrwt>
<pdfrwt beam="1">  1        2 0.11150488E-01 0.80024239E+02</pdfrwt>
<pdfrwt beam="2">  1       -1 0.33983065E-02 0.80024239E+02</pdfrwt>
<totfact> 0.16271842E+05</totfact>
</mgrwt>
</event>
<event>
 8    1  0.1520917E-017  0.8056057E+02  0.7818608E-02  0.1327468E+00
          2   -1    0    0  501    0  0.00000000000E+00  0.00000000000E+00  0.42342313785E+03  0.42342313786E+03  0.25500000000E-02 0. -1.
         -1   -1    0    0    0  501 -0.00000000000E+00 -0.00000000000E+00 -0.38318661992E+01  0.38318695137E+01  0.50400000000E-02 0.  1.
         24    2    1    2    0    0  0.00000000000E+00  0.00000000000E+00  0.41959127165E+03  0.42725500737E+03  0.80560573970E+02 0.  0.
         66    2    3    3    0    0  0.94734029218E+01  0.11672253207E+02  0.40797482108E+03  0.40825658782E+03  0.19999997083E+01 0.  0.
        -13    1    3    3    0    0 -0.94734029218E+01 -0.11672253207E+02  0.11616450570E+02  0.18998419558E+02  0.10566000000E+00 0.  1.
         13    1    4    4    0    0  0.88662283929E+01  0.11201111478E+02  0.38389669686E+03  0.38416241348E+03  0.10566000000E+00 0. -1.
        -13    1    4    4    0    0  0.66526279226E-01  0.27507355948E+00  0.91035485264E+01  0.91085592175E+01  0.10566000000E+00 0. -1.
         14    1    4    4    0    0  0.54064824975E+00  0.19606816955E+00  0.14974575698E+02  0.14985615123E+02  0.00000000000E+00 0. -1.
<mgrwt>
<rscale>  0 0.80560574E+02</rscale>
<asrwt>0</asrwt>
<pdfrwt beam="1">  1        2 0.65142061E-01 0.80560574E+02</pdfrwt>
<pdfrwt beam="2">  1       -1 0.58951777E-03 0.80560574E+02</pdfrwt>
<totfact> 0.28295728E+05</totfact>
</mgrwt>
</event>
<event>
 8    1  0.1520917E-017  0.8057136E+02  0.7818608E-02  0.1327438E+00
          2   -1    0    0  501    0  0.00000000000E+00  0.00000000000E+00  0.51141171117E+03  0.51141171118E+03  0.25500000000E-02 0. -1.
         -1   -1    0    0    0  501 -0.00000000000E+00 -0.00000000000E+00 -0.31734408572E+01  0.31734448594E+01  0.50400000000E-02 0.  1.
         24    2    1    2    0    0  0.00000000000E+00  0.00000000000E+00  0.50823827032E+03  0.51458515604E+03  0.80571355964E+02 0.  0.
         66    2    3    3    0    0 -0.25343842594E+01 -0.24759436794E+02  0.45638969955E+03  0.45707221603E+03  0.19999993310E+01 0.  0.
        -13    1    3    3    0    0  0.25343842594E+01  0.24759436794E+02  0.51848570764E+02  0.57512940007E+02  0.10566000000E+00 0.  1.
         13    1    4    4    0    0 -0.17197519161E+01 -0.84128911274E+01  0.15682300833E+03  0.15705795551E+03  0.10566000000E+00 0. -1.
        -13    1    4    4    0    0 -0.78103976157E-01 -0.65812693147E+01  0.11648485473E+03  0.11667069791E+03  0.10566000000E+00 0.  1.
         14    1    4    4    0    0 -0.73652836712E+00 -0.97652763522E+01  0.18308183650E+03  0.18334356261E+03  0.00000000000E+00 0. -1.
<mgrwt>
<rscale>  0 0.80571356E+02</rscale>
<asrwt>0</asrwt>
<pdfrwt beam="1">  1        2 0.78678759E-01 0.80571356E+02</pdfrwt>
<pdfrwt beam="2">  1       -1 0.48822177E-03 0.80571356E+02</pdfrwt>
<totfact> 0.30105979E+05</totfact>
</mgrwt>
</event>
<event>
 8    1  0.1520917E-017  0.7843285E+02  0.7818608E-02  0.1333559E+00
         -1   -1    0    0    0  501 -0.00000000000E+00  0.00000000000E+00  0.32845650621E+02  0.32845651008E+02  0.50400000000E-02 0.  1.
          2   -1    0    0  501    0  0.00000000000E+00 -0.00000000000E+00 -0.46822885270E+02  0.46822885339E+02  0.25500000000E-02 0. -1.
         24    2    1    2    0    0  0.00000000000E+00  0.00000000000E+00 -0.13977234649E+02  0.79668536347E+02  0.78432854055E+02 0.  0.
         66    2    3    3    0    0  0.60956726615E+01 -0.34452099228E+02  0.10943446173E+02  0.36713258871E+02  0.19999991000E+01 0.  0.
        -13    1    3    3    0    0 -0.60956726615E+01  0.34452099228E+02 -0.24920680821E+02  0.42955277476E+02  0.10566000000E+00 0.  1.
         13    1    4    4    0    0  0.43778607680E+01 -0.21168222794E+02  0.67454320478E+01  0.22644454921E+02  0.10566000000E+00 0. -1.
        -13    1    4    4    0    0  0.70816540754E+00 -0.53137204799E+01  0.12045694295E+01  0.54953867133E+01  0.10566000000E+00 0.  1.
         14    1    4    4    0    0  0.10096464860E+01 -0.79701559543E+01  0.29934446954E+01  0.85734172362E+01  0.00000000000E+00 0. -1.
<mgrwt>
<rscale>  0 0.78432854E+02</rscale>
<asrwt>0</asrwt>
<pdfrwt beam="1">  1        2 0.72035208E-02 0.78432854E+02</pdfrwt>
<pdfrwt beam="2">  1       -1 0.50531771E-02 0.78432854E+02</pdfrwt>
<totfact> 0.15554383E+05</totfact>
</mgrwt>
</event>
<event>
 8    1  0.1520917E-017  0.7826833E+02  0.7818608E-02  0.1334039E+00
         -1   -1    0    0    0  501 -0.00000000000E+00  0.00000000000E+00  0.11254220818E+02  0.11254221947E+02  0.50400000000E-02 0.  1.
          2   -1    0    0  501    0  0.00000000000E+00 -0.00000000000E+00 -0.13608073178E+03  0.13608073180E+03  0.25500000000E-02 0. -1.
         24    2    1    2    0    0  0.00000000000E+00 -0.71054273576E-14 -0.12482651096E+03  0.14733495375E+03  0.78268325378E+02 0.  0.
         66    2    3    3    0    0  0.15720537190E+02 -0.34555669417E+02 -0.80137576003E+02  0.88697579574E+02  0.19999890668E+01 0.  0.
        -13    1    3    3    0    0 -0.15720537190E+02  0.34555669417E+02 -0.44688934954E+02  0.58637374172E+02  0.10566000000E+00 0.  1.
         13    1    4    4    0    0  0.69218799079E+01 -0.15630671324E+02 -0.34247482609E+02  0.38277036674E+02  0.10566000000E+00 0.  1.
        -13    1    4    4    0    0  0.62517195257E+01 -0.14322981351E+02 -0.34478539312E+02  0.37855153268E+02  0.10566000000E+00 0. -1.
        -14    1    4    4    0    0  0.25469377562E+01 -0.46020167422E+01 -0.11411554082E+02  0.12565389632E+02  0.00000000000E+00 0.  1.
<mgrwt>
<rscale>  0 0.78268325E+02</rscale>
<asrwt>0</asrwt>
<pdfrwt beam="1">  1        2 0.20935496E-01 0.78268325E+02</pdfrwt>
<pdfrwt beam="2">  1       -1 0.17314188E-02 0.78268325E+02</pdfrwt>
<totfact> 0.20582232E+05</totfact>
</mgrwt>
</event>
<event>
 8    1  0.1520917E-017  0.7864191E+02  0.7818608E-02  0.1332950E+00
          2   -1    0    0  501    0  0.00000000000E+00  0.00000000000E+00  0.10871016311E+02  0.10871016610E+02  0.25500000000E-02 0. -1.
         -1   -1    0    0    0  501 -0.00000000000E+00 -0.00000000000E+00 -0.14222565501E+03  0.14222565510E+03  0.50400000000E-02 0.  1.
         24    2    1    2    0    0  0.00000000000E+00  0.00000000000E+00 -0.13135463870E+03  0.15309667171E+03  0.78641908553E+02 0.  0.
         66    2    3    3    0    0  0.11772741945E+02  0.20182201850E+02 -0.42128291403E+01  0.23825756086E+02  0.19999998195E+01 0.  0.
        -13    1    3    3    0    0 -0.11772741945E+02 -0.20182201850E+02 -0.12714180956E+03  0.12927091563E+03  0.10566000000E+00 0.  1.
         13    1    4    4    0    0  0.17669348052E+01  0.26635541339E+01 -0.70059926980E+00  0.32739246483E+01  0.10566000000E+00 0. -1.
        -13    1    4    4    0    0  0.33617382032E+01  0.51137249777E+01 -0.17749322882E+01  0.63728341857E+01  0.10566000000E+00 0.  1.
        -14    1    4    4    0    0  0.66440689361E+01  0.12404922738E+02 -0.17372975823E+01  0.14178997252E+02  0.00000000000E+00 0.  1.
<mgrwt>
<rscale>  0 0.78641909E+02</rscale>
<asrwt>0</asrwt>
<pdfrwt beam="1">  1        2 0.16724642E-02 0.78641909E+02</pdfrwt>
<pdfrwt beam="2">  1       -1 0.21880869E-01 0.78641909E+02</pdfrwt>
<totfact> 0.11415232E+05</totfact>
</mgrwt>
</event>
<event>
 8    1  0.1520917E-017  0.7936349E+02  0.7818608E-02  0.1330868E+00
          2   -1    0    0  501    0  0.00000000000E+00  0.00000000000E+00  0.16117292212E+03  0.16117292214E+03  0.25500000000E-02 0. -1.
         -1   -1    0    0    0  501 -0.00000000000E+00 -0.00000000000E+00 -0.97698846422E+01  0.97698859422E+01  0.50400000000E-02 0.  1.
         24    2    1    2    0    0  0.35527136788E-14  0.00000000000E+00  0.15140303748E+03  0.17094280808E+03  0.79363492096E+02 0.  0.
         66    2    3    3    0    0 -0.20282889135E+02 -0.33840011867E+02  0.84390427804E+02  0.93178786748E+02  0.20000000060E+01 0.  0.
        -13    1    3    3    0    0  0.20282889135E+02  0.33840011867E+02  0.67012609675E+02  0.77764021336E+02  0.10566000000E+00 0.  1.
         13    1    4    4    0    0 -0.69865199674E+01 -0.11262792087E+02  0.29774528604E+02  0.32591343398E+02  0.10566000000E+00 0. -1.
        -13    1    4    4    0    0 -0.12557440154E+02 -0.20712302974E+02  0.50313037762E+02  0.55839965352E+02  0.10566000000E+00 0.  1.
        -14    1    4    4    0    0 -0.73892901413E+00 -0.18649168061E+01  0.43028614381E+01  0.47474779975E+01  0.00000000000E+00 0.  1.
<mgrwt>
<rscale>  0 0.79363492E+02</rscale>
<asrwt>0</asrwt>
<pdfrwt beam="1">  1        2 0.24795833E-01 0.79363492E+02</pdfrwt>
<pdfrwt beam="2">  1       -1 0.15030594E-02 0.79363492E+02</pdfrwt>
<totfact> 0.20942426E+05</totfact>
</mgrwt>
</event>
<event>
 8    1  0.1520917E-017  0.7972787E+02  0.7818608E-02  0.1329825E+00
         -1   -1    0    0    0  501 -0.00000000000E+00  0.00000000000E+00  0.27458438970E+01  0.27458485225E+01  0.50400000000E-02 0.  1.
          2   -1    0    0  501    0  0.00000000000E+00 -0.00000000000E+00 -0.57874089445E+03  0.57874089446E+03  0.25500000000E-02 0. -1.
         24    2    1    2    0    0  0.71054273576E-14  0.17763568394E-14 -0.57599505056E+03  0.58148674298E+03  0.79727874660E+02 0.  0.
         66    2    3    3    0    0  0.36230278316E+02  0.12976362149E+02 -0.36330710466E+03  0.36534514001E+03  0.19999977401E+01 0.  0.
        -13    1    3    3    0    0 -0.36230278316E+02 -0.12976362149E+02 -0.21268794590E+03  0.21614160297E+03  0.10566000000E+00 0.  1.
         13    1    4    4    0    0  0.20920411384E+01  0.72984452974E+00 -0.18664597348E+02  0.18795948163E+02  0.10566000000E+00 0.  1.
        -13    1    4    4    0    0  0.12508132111E+01  0.16937880352E+00 -0.11519541627E+02  0.11588970023E+02  0.10566000000E+00 0. -1.
         14    1    4    4    0    0  0.32887423966E+02  0.12077138816E+02 -0.33312296569E+03  0.33496022182E+03  0.00000000000E+00 0. -1.
<mgrwt>
<rscale>  0 0.79727875E+02</rscale>
<asrwt>0</asrwt>
<pdfrwt beam="1">  1        2 0.89036964E-01 0.79727875E+02</pdfrwt>
<pdfrwt beam="2">  1       -1 0.42243834E-03 0.79727875E+02</pdfrwt>
<totfact> 0.32120196E+05</totfact>
</mgrwt>
</event>
<event>
 8    1  0.1520917E-017  0.8118773E+02  0.7818608E-02  0.1325714E+00
          2   -1    0    0  501    0  0.00000000000E+00  0.00000000000E+00  0.12094953400E+04  0.12094953400E+04  0.25500000000E-02 0. -1.
         -1   -1    0    0    0  501 -0.00000000000E+00 -0.00000000000E+00 -0.13624328358E+01  0.13624421579E+01  0.50400000000E-02 0.  1.
         24    2    1    2    0    0  0.00000000000E+00  0.27755575616E-16  0.12081329072E+04  0.12108577822E+04  0.81187728420E+02 0.  0.
         66    2    3    3    0    0 -0.19373876947E+02 -0.22325921167E+00  0.11360298672E+04  0.11361968386E+04  0.19999985642E+01 0.  0.
        -13    1    3    3    0    0  0.19373876947E+02  0.22325921167E+00  0.72103039996E+02  0.74660943560E+02  0.10566000000E+00 0.  1.
         13    1    4    4    0    0 -0.11882102250E+02 -0.26127755032E-01  0.74960066130E+03  0.74969483633E+03  0.10566000000E+00 0. -1.
        -13    1    4    4    0    0 -0.25230780255E+01  0.12011326125E-01  0.13508135577E+03  0.13510495886E+03  0.10566000000E+00 0.  1.
         14    1    4    4    0    0 -0.49686966716E+01 -0.20914278276E+00  0.25134785014E+03  0.25139704345E+03  0.00000000000E+00 0. -1.
<mgrwt>
<rscale>  0 0.81187728E+02</rscale>
<asrwt>0</asrwt>
<pdfrwt beam="1">  1        2 0.18607568E+00 0.81187728E+02</pdfrwt>
<pdfrwt beam="2">  1       -1 0.20960636E-03 0.81187728E+02</pdfrwt>
<totfact> 0.33691430E+05</totfact>
</mgrwt>
</event>
<event>
 8    1  0.1520917E-017  0.7423806E+02  0.7818608E-02  0.1346247E+00
          2   -1    0    0  501    0  0.00000000000E+00  0.00000000000E+00  0.47418835187E+03  0.47418835187E+03  0.25500000000E-02 0. -1.
         -1   -1    0    0    0  501 -0.00000000000E+00 -0.00000000000E+00 -0.29056414371E+01  0.29056458081E+01  0.50400000000E-02 0.  1.
         24    2    1    2    0    0  0.00000000000E+00  0.00000000000E+00  0.47128271043E+03  0.47709399768E+03  0.74238059471E+02 0.  0.
         66    2    3    3    0    0  0.18545729139E+02  0.11468125115E+02  0.42864623644E+03  0.42920514678E+03  0.20000100294E+01 0.  0.
        -13    1    3    3    0    0 -0.18545729139E+02 -0.11468125115E+02  0.42636473988E+02  0.47888850906E+02  0.10566000000E+00 0.  1.
         13    1    4    4    0    0  0.36290929822E+01  0.18905176428E+01  0.89944044523E+02  0.90037140570E+02  0.10566000000E+00 0.  1.
        -13    1    4    4    0    0  0.38100247334E+01  0.30315581555E+01  0.97308135206E+02  0.97429928536E+02  0.10566000000E+00 0. -1.
         14    1    4    4    0    0  0.11106611423E+02  0.65460493168E+01  0.24139405671E+03  0.24173807767E+03  0.00000000000E+00 0. -1.
<mgrwt>
<rscale>  0 0.74238059E+02</rscale>
<asrwt>0</asrwt>
<pdfrwt beam="1">  1        2 0.72952078E-01 0.74238059E+02</pdfrwt>
<pdfrwt beam="2">  1       -1 0.44702195E-03 0.74238059E+02</pdfrwt>
<totfact> 0.36348397E+05</totfact>
</mgrwt>
</event>
<event>
 8    1  0.1520917E-017  0.7768188E+02  0.7818608E-02  0.1335762E+00
         -1   -1    0    0    0  501 -0.00000000000E+00  0.00000000000E+00  0.16578844378E+01  0.16578920987E+01  0.50400000000E-02 0.  1.
          2   -1    0    0  501    0  0.00000000000E+00 -0.00000000000E+00 -0.90996402779E+03  0.90996402779E+03  0.25500000000E-02 0. -1.
         24    2    1    2    0    0  0.00000000000E+00  0.00000000000E+00 -0.90830614335E+03  0.91162191989E+03  0.77681881908E+02 0.  0.
         66    2    3    3    0    0 -0.40402107812E+01  0.17765778256E+02 -0.85666294663E+03  0.85685900258E+03  0.20000008077E+01 0.  0.
        -13    1    3    3    0    0  0.40402107812E+01 -0.17765778256E+02 -0.51643196721E+02  0.54762917306E+02  0.10566000000E+00 0.  1.
         13    1    4    4    0    0 -0.19712878156E+01  0.12397749664E+02 -0.58536250021E+03  0.58549710331E+03  0.10566000000E+00 0. -1.
        -13    1    4    4    0    0 -0.15555840826E+01  0.44614846812E+01 -0.22719967223E+03  0.22724882159E+03  0.10566000000E+00 0.  1.
         14    1    4    4    0    0 -0.51333888296E+00  0.90654391034E+00 -0.44100774190E+02  0.44113077685E+02  0.00000000000E+00 0. -1.
<mgrwt>
<rscale>  0 0.77681882E+02</rscale>
<asrwt>0</asrwt>
<pdfrwt beam="1">  1        2 0.13999407E+00 0.77681882E+02</pdfrwt>
<pdfrwt beam="2">  1       -1 0.25506046E-03 0.77681882E+02</pdfrwt>
<totfact> 0.37759287E+05</totfact>
</mgrwt>
</event>
<event>
 8    1  0.1520917E-017  0.7970214E+02  0.7818608E-02  0.1329899E+00
          2   -1    0    0  501    0  0.00000000000E+00  0.00000000000E+00  0.94195250120E+02  0.94195250155E+02  0.25500000000E-02 0. -1.
         -1   -1    0    0    0  501 -0.00000000000E+00 -0.00000000000E+00 -0.16859742189E+02  0.16859742942E+02  0.50400000000E-02 0.  1.
         24    2    1    2    0    0  0.00000000000E+00  0.00000000000E+00  0.77335507932E+02  0.11105499310E+03  0.79702137391E+02 0.  0.
         66    2    3    3    0    0 -0.17852304106E+02  0.34606128180E+01  0.88062020889E+02  0.89942204384E+02  0.20000008158E+01 0.  0.
        -13    1    3    3    0    0  0.17852304106E+02 -0.34606128180E+01 -0.10726512958E+02  0.21112788713E+02  0.10566000000E+00 0.  1.
         13    1    4    4    0    0 -0.58392835552E+01  0.10555405186E+01  0.26786536611E+02  0.27436127750E+02  0.10566000000E+00 0. -1.
        -13    1    4    4    0    0 -0.20780698977E+01 -0.98162674972E-02  0.86664754269E+01  0.89127678764E+01  0.10566000000E+00 0.  1.
         14    1    4    4    0    0 -0.99349506535E+01  0.24148885670E+01  0.52609008851E+02  0.53593308758E+02  0.00000000000E+00 0. -1.
<mgrwt>
<rscale>  0 0.79702137E+02</rscale>
<asrwt>0</asrwt>
<pdfrwt beam="1">  1        2 0.14491577E-01 0.79702137E+02</pdfrwt>
<pdfrwt beam="2">  1       -1 0.25938065E-02 0.79702137E+02</pdfrwt>
<totfact> 0.17610219E+05</totfact>
</mgrwt>
</event>
<event>
 8    1  0.1520917E-017  0.8057569E+02  0.7818608E-02  0.1327426E+00
         -1   -1    0    0    0  501 -0.00000000000E+00  0.00000000000E+00  0.13846307223E+02  0.13846308141E+02  0.50400000000E-02 0.  1.
          2   -1    0    0  501    0  0.00000000000E+00 -0.00000000000E+00 -0.11722332811E+03  0.11722332814E+03  0.25500000000E-02 0. -1.
         24    2    1    2    0    0 -0.35527136788E-14  0.17763568394E-14 -0.10337702088E+03  0.13106963628E+03  0.80575685580E+02 0.  0.
         66    2    3    3    0    0 -0.31318089076E+02 -0.10347536356E+02 -0.89282177416E+02  0.95200847777E+02  0.20000003039E+01 0.  0.
        -13    1    3    3    0    0  0.31318089076E+02  0.10347536356E+02 -0.14094843469E+02  0.35868788500E+02  0.10566000000E+00 0.  1.
         13    1    4    4    0    0 -0.37162110990E+01 -0.16288543167E+01 -0.10804296686E+02  0.11541550252E+02  0.10566000000E+00 0. -1.
        -13    1    4    4    0    0 -0.15445427486E+02 -0.41121964958E+01 -0.43567670801E+02  0.46407159936E+02  0.10566000000E+00 0.  1.
        -14    1    4    4    0    0 -0.12156450491E+02 -0.46064855436E+01 -0.34910209929E+02  0.37252137588E+02  0.00000000000E+00 0.  1.
<mgrwt>
<rscale>  0 0.80575686E+02</rscale>
<asrwt>0</asrwt>
<pdfrwt beam="1">  1        2 0.18034358E-01 0.80575686E+02</pdfrwt>
<pdfrwt beam="2">  1       -1 0.21302013E-02 0.80575686E+02</pdfrwt>
<totfact> 0.18204890E+05</totfact>
</mgrwt>
</event>
<event>
 8    1  0.1520917E-017  0.8072004E+02  0.7818608E-02  0.1327020E+00
          2   -1    0    0  501    0  0.00000000000E+00  0.00000000000E+00  0.91272423433E+02  0.91272423469E+02  0.25500000000E-02 0. -1.
         -1   -1    0    0    0  501 -0.00000000000E+00 -0.00000000000E+00 -0.17846913716E+02  0.17846914428E+02  0.50400000000E-02 0.  1.
         24    2    1    2    0    0  0.00000000000E+00 -0.35527136788E-14  0.73425509717E+02  0.10911933790E+03  0.80720037326E+02 0.  0.
         66    2    3    3    0    0 -0.27581110549E+02  0.27277966346E+02  0.51674025663E+02  0.64645263094E+02  0.20000012843E+01 0.  0.
        -13    1    3    3    0    0  0.27581110549E+02 -0.27277966346E+02  0.21751484054E+02  0.44474074803E+02  0.10566000000E+00 0.  1.
         13    1    4    4    0    0 -0.12735134538E+01  0.10117686066E+01  0.24112482009E+01  0.29104628759E+01  0.10566000000E+00 0.  1.
        -13    1    4    4    0    0 -0.19454868242E+02  0.20262419435E+02  0.37669183843E+02  0.46989744787E+02  0.10566000000E+00 0. -1.
         14    1    4    4    0    0 -0.68527288522E+01  0.60037783043E+01  0.11593593619E+02  0.14745055431E+02  0.00000000000E+00 0. -1.
<mgrwt>
<rscale>  0 0.80720037E+02</rscale>
<asrwt>0</asrwt>
<pdfrwt beam="1">  1        2 0.14041911E-01 0.80720037E+02</pdfrwt>
<pdfrwt beam="2">  1       -1 0.27456791E-02 0.80720037E+02</pdfrwt>
<totfact> 0.16874849E+05</totfact>
</mgrwt>
</event>
<event>
 8    1  0.1520917E-017  0.8742148E+02  0.7818608E-02  0.1309219E+00
          2   -1    0    0  501    0  0.00000000000E+00  0.00000000000E+00  0.28432821312E+03  0.28432821314E+03  0.25500000000E-02 0. -1.
         -1   -1    0    0    0  501 -0.00000000000E+00 -0.00000000000E+00 -0.67197989819E+01  0.67198008720E+01  0.50400000000E-02 0.  1.
         24    2    1    2    0    0  0.35527136788E-14  0.00000000000E+00  0.27760841414E+03  0.29104801401E+03  0.87421478226E+02 0.  0.
         66    2    3    3    0    0  0.25493480344E+02  0.33481728875E+01  0.25646547717E+03  0.25775893548E+03  0.20000086902E+01 0.  0.
        -13    1    3    3    0    0 -0.25493480344E+02 -0.33481728875E+01  0.21142936969E+02  0.33289078531E+02  0.10566000000E+00 0.  1.
         13    1    4    4    0    0  0.75877784008E+01  0.11123730751E+01  0.76798886791E+02  0.77180903929E+02  0.10566000000E+00 0. -1.
        -13    1    4    4    0    0  0.45397901823E+01  0.11214013382E+01  0.51188311920E+02  0.51401572711E+02  0.10566000000E+00 0. -1.
        -14    1    4    4    0    0  0.13365911761E+02  0.11143984741E+01  0.12847827846E+03  0.12917645884E+03  0.00000000000E+00 0.  1.
<mgrwt>
<rscale>  0 0.87421478E+02</rscale>
<asrwt>0</asrwt>
<pdfrwt beam="1">  1        2 0.43742808E-01 0.87421478E+02</pdfrwt>
<pdfrwt beam="2">  1       -1 0.10338152E-02 0.87421478E+02</pdfrwt>
<totfact> 0.19790894E+05</totfact>
</mgrwt>
</event>
<event>
 8    1  0.1520917E-017  0.8665588E+02  0.7818608E-02  0.1311158E+00
         -1   -1    0    0    0  501 -0.00000000000E+00  0.00000000000E+00  0.24627305598E+02  0.24627306114E+02  0.50400000000E-02 0.  1.
          2   -1    0    0  501    0  0.00000000000E+00 -0.00000000000E+00 -0.76228823854E+02  0.76228823897E+02  0.25500000000E-02 0. -1.
         24    2    1    2    0    0  0.00000000000E+00  0.00000000000E+00 -0.51601518256E+02  0.10085613001E+03  0.86655884245E+02 0.  0.
         66    2    3    3    0    0 -0.16143508214E+02  0.33424950783E+02 -0.51773326174E+02  0.63736312200E+02  0.19999993646E+01 0.  0.
        -13    1    3    3    0    0  0.16143508214E+02 -0.33424950783E+02  0.17180791759E+00  0.37119817811E+02  0.10566000000E+00 0.  1.
         13    1    4    4    0    0 -0.84348601019E+01  0.16958290308E+02 -0.26875026230E+02  0.32878696355E+02  0.10566000000E+00 0. -1.
        -13    1    4    4    0    0 -0.16207791725E+01  0.48022117911E+01 -0.70829940557E+01  0.87102314574E+01  0.10566000000E+00 0.  1.
         14    1    4    4    0    0 -0.60878689394E+01  0.11664448684E+02 -0.17815305888E+02  0.22147384388E+02  0.00000000000E+00 0. -1.
<mgrwt>
<rscale>  0 0.86655884E+02</rscale>
<asrwt>0</asrwt>
<pdfrwt beam="1">  1        2 0.11727511E-01 0.86655884E+02</pdfrwt>
<pdfrwt beam="2">  1       -1 0.37888163E-02 0.86655884E+02</pdfrwt>
<totfact> 0.13276447E+05</totfact>
</mgrwt>
</event>
<event>
 8    1  0.1520917E-017  0.8041910E+02  0.7818608E-02  0.1327866E+00
          2   -1    0    0  501    0  0.00000000000E+00  0.00000000000E+00  0.50120293600E+03  0.50120293601E+03  0.25500000000E-02 0. -1.
         -1   -1    0    0    0  501 -0.00000000000E+00 -0.00000000000E+00 -0.32258530666E+01  0.32258570038E+01  0.50400000000E-02 0.  1.
         24    2    1    2    0    0  0.71054273576E-14  0.00000000000E+00  0.49797708294E+03  0.50442879301E+03  0.80419102774E+02 0.  0.
         66    2    3    3    0    0  0.39632672318E+02 -0.59989406846E+00  0.29060445483E+03  0.29330199074E+03  0.20000037224E+01 0.  0.
        -13    1    3    3    0    0 -0.39632672318E+02  0.59989406846E+00  0.20737262810E+03  0.21112680227E+03  0.10566000000E+00 0.  1.
         13    1    4    4    0    0  0.10398436096E+02 -0.16308891064E+00  0.75770318800E+02  0.76480758667E+02  0.10566000000E+00 0. -1.
        -13    1    4    4    0    0  0.76586227558E+01 -0.60660376482E+00  0.52367904558E+02  0.52928546763E+02  0.10566000000E+00 0.  1.
        -14    1    4    4    0    0  0.21575613466E+02  0.16979860700E+00  0.16246623147E+03  0.16389268531E+03  0.00000000000E+00 0.  1.
<mgrwt>
<rscale>  0 0.80419103E+02</rscale>
<asrwt>0</asrwt>
<pdfrwt beam="1">  1        2 0.77108143E-01 0.80419103E+02</pdfrwt>
<pdfrwt beam="2">  1       -1 0.49628540E-03 0.80419103E+02</pdfrwt>
<totfact> 0.30062369E+05</totfact>
</mgrwt>
</event>
<event>
 8    1  0.1520917E-017  0.7909974E+02  0.7818608E-02  0.1331626E+00
          2   -1    0    0  501    0  0.00000000000E+00  0.00000000000E+00  0.20395541529E+03  0.20395541531E+03  0.25500000000E-02 0. -1.
         -1   -1    0    0    0  501 -0.00000000000E+00 -0.00000000000E+00 -0.76692832576E+01  0.76692849137E+01  0.50400000000E-02 0.  1.
         24    2    1    2    0    0 -0.35527136788E-14  0.00000000000E+00  0.19628613204E+03  0.21162470022E+03  0.79099735239E+02 0.  0.
         66    2    3    3    0    0  0.16040976401E+02  0.21481842262E+01  0.19467875755E+03  0.19536055450E+03  0.19999986257E+01 0.  0.
        -13    1    3    3    0    0 -0.16040976401E+02 -0.21481842262E+01  0.16073744889E+01  0.16264145725E+02  0.10566000000E+00 0.  1.
         13    1    4    4    0    0  0.90379566488E+01  0.19928865805E+01  0.10548572872E+03  0.10589101182E+03  0.10566000000E+00 0. -1.
        -13    1    4    4    0    0  0.68692293120E+01  0.98194280782E-01  0.86417095189E+02  0.86689800198E+02  0.10566000000E+00 0.  1.
        -14    1    4    4    0    0  0.13379044042E+00  0.57103364979E-01  0.27759336374E+01  0.27797424764E+01  0.00000000000E+00 0.  1.
<mgrwt>
<rscale>  0 0.79099735E+02</rscale>
<asrwt>0</asrwt>
<pdfrwt beam="1">  1        2 0.31377753E-01 0.79099735E+02</pdfrwt>
<pdfrwt beam="2">  1       -1 0.11798900E-02 0.79099735E+02</pdfrwt>
<totfact> 0.22881955E+05</totfact>
</mgrwt>
</event>
<event>
 8    1  0.1520917E-017  0.8139655E+02  0.7818608E-02  0.1325134E+00
         -1   -1    0    0    0  501 -0.00000000000E+00  0.00000000000E+00  0.34997239700E+03  0.34997239703E+03  0.50400000000E-02 0.  1.
          2   -1    0    0  501    0  0.00000000000E+00 -0.00000000000E+00 -0.47327998482E+01  0.47328005352E+01  0.25500000000E-02 0. -1.
         24    2    1    2    0    0  0.17763568394E-14 -0.71054273576E-14  0.34523959715E+03  0.35470519757E+03  0.81396546257E+02 0.  0.
         66    2    3    3    0    0 -0.15088711111E+02  0.37112623638E+02  0.14211747129E+03  0.14766987397E+03  0.19999997101E+01 0.  0.
        -13    1    3    3    0    0  0.15088711111E+02 -0.37112623638E+02  0.20312212586E+03  0.20703532359E+03  0.10566000000E+00 0.  1.
         13    1    4    4    0    0 -0.40909922983E+01  0.83226297809E+01  0.32825166165E+02  0.34110190299E+02  0.10566000000E+00 0. -1.
        -13    1    4    4    0    0 -0.31276356979E+01  0.85759556070E+01  0.30673149758E+02  0.32002849869E+02  0.10566000000E+00 0.  1.
        -14    1    4    4    0    0 -0.78700831151E+01  0.20214038250E+02  0.78619155363E+02  0.81556833807E+02  0.00000000000E+00 0.  1.
<mgrwt>
<rscale>  0 0.81396546E+02</rscale>
<asrwt>0</asrwt>
<pdfrwt beam="1">  1        2 0.72812298E-03 0.81396546E+02</pdfrwt>
<pdfrwt beam="2">  1       -1 0.53841917E-01 0.81396546E+02</pdfrwt>
<totfact> 0.77359748E+04</totfact>
</mgrwt>
</event>
<event>
 8    1  0.1520917E-017  0.8045814E+02  0.7818608E-02  0.1327756E+00
         -1   -1    0    0    0  501 -0.00000000000E+00  0.00000000000E+00  0.34932878097E+02  0.34932878461E+02  0.50400000000E-02 0.  1.
          2   -1    0    0  501    0  0.00000000000E+00 -0.00000000000E+00 -0.46328221575E+02  0.46328221646E+02  0.25500000000E-02 0. -1.
         24    2    1    2    0    0  0.00000000000E+00  0.00000000000E+00 -0.11395343478E+02  0.81261100107E+02  0.80458141524E+02 0.  0.
         66    2    3    3    0    0  0.19229215139E+01 -0.35743843918E+02  0.12785950064E+02  0.38063112577E+02  0.20000036941E+01 0.  0.
        -13    1    3    3    0    0 -0.19229215139E+01  0.35743843918E+02 -0.24181293543E+02  0.43197987530E+02  0.10566000000E+00 0.  1.
         13    1    4    4    0    0  0.30722406313E+00 -0.84645769145E+01  0.22157835043E+01  0.87558157553E+01  0.10566000000E+00 0. -1.
        -13    1    4    4    0    0  0.80384874407E+00 -0.11877021923E+02  0.42886257609E+01  0.12653588326E+02  0.10566000000E+00 0.  1.
        -14    1    4    4    0    0  0.81184870666E+00 -0.15402245081E+02  0.62815407994E+01  0.16653708496E+02  0.00000000000E+00 0.  1.
<mgrwt>
<rscale>  0 0.80458142E+02</rscale>
<asrwt>0</asrwt>
<pdfrwt beam="1">  1        2 0.71274187E-02 0.80458142E+02</pdfrwt>
<pdfrwt beam="2">  1       -1 0.53742890E-02 0.80458142E+02</pdfrwt>
<totfact> 0.14470736E+05</totfact>
</mgrwt>
</event>
<event>
 8    1  0.1520917E-017  0.7778719E+02  0.7818608E-02  0.1335451E+00
         -1   -1    0    0    0  501 -0.00000000000E+00  0.00000000000E+00  0.56468021297E+01  0.56468043789E+01  0.50400000000E-02 0.  1.
          2   -1    0    0  501    0  0.00000000000E+00 -0.00000000000E+00 -0.26788813411E+03  0.26788813412E+03  0.25500000000E-02 0. -1.
         24    2    1    2    0    0  0.00000000000E+00 -0.88817841970E-15 -0.26224133198E+03  0.27353493850E+03  0.77787186490E+02 0.  0.
         66    2    3    3    0    0  0.33699097909E+02 -0.70143482246E+01 -0.19468626605E+03  0.19771588827E+03  0.20000014325E+01 0.  0.
        -13    1    3    3    0    0 -0.33699097909E+02  0.70143482246E+01 -0.67555065935E+02  0.75819050234E+02  0.10566000000E+00 0.  1.
         13    1    4    4    0    0  0.17879925350E+02 -0.37530365794E+01 -0.10145278945E+03  0.10308470627E+03  0.10566000000E+00 0. -1.
        -13    1    4    4    0    0  0.47996195617E+01 -0.58877688006E+00 -0.30515400864E+02  0.30896340561E+02  0.10566000000E+00 0.  1.
        -14    1    4    4    0    0  0.11019552997E+02 -0.26725347652E+01 -0.62718075731E+02  0.63734841443E+02  0.00000000000E+00 0.  1.
<mgrwt>
<rscale>  0 0.77787186E+02</rscale>
<asrwt>0</asrwt>
<pdfrwt beam="1">  1        2 0.41213549E-01 0.77787186E+02</pdfrwt>
<pdfrwt beam="2">  1       -1 0.86873917E-03 0.77787186E+02</pdfrwt>
<totfact> 0.26338010E+05</totfact>
</mgrwt>
</event>
<event>
 8    1  0.1520917E-017  0.7603920E+02  0.7818608E-02  0.1340683E+00
         -1   -1    0    0    0  501 -0.00000000000E+00  0.00000000000E+00  0.10808795375E+02  0.10808796550E+02  0.50400000000E-02 0.  1.
          2   -1    0    0  501    0  0.00000000000E+00 -0.00000000000E+00 -0.13373273578E+03  0.13373273580E+03  0.25500000000E-02 0. -1.
         24    2    1    2    0    0  0.00000000000E+00  0.00000000000E+00 -0.12292394040E+03  0.14454153235E+03  0.76039196804E+02 0.  0.
         66    2    3    3    0    0  0.23656816010E+02 -0.12432016910E+02 -0.11283821323E+03  0.11597699061E+03  0.19999997881E+01 0.  0.
        -13    1    3    3    0    0 -0.23656816010E+02  0.12432016910E+02 -0.10085727178E+02  0.28564541742E+02  0.10566000000E+00 0.  1.
         13    1    4    4    0    0  0.18116442196E+02 -0.95608052049E+01 -0.87635714165E+02  0.89998022396E+02  0.10566000000E+00 0. -1.
        -13    1    4    4    0    0  0.19638951006E+01 -0.10246687852E+01 -0.72918309134E+01  0.76216003694E+01  0.10566000000E+00 0.  1.
        -14    1    4    4    0    0  0.35764787130E+01 -0.18465429201E+01 -0.17910668147E+02  0.18357367846E+02  0.00000000000E+00 0.  1.
<mgrwt>
<rscale>  0 0.76039197E+02</rscale>
<asrwt>0</asrwt>
<pdfrwt beam="1">  1        2 0.20574266E-01 0.76039197E+02</pdfrwt>
<pdfrwt beam="2">  1       -1 0.16628918E-02 0.76039197E+02</pdfrwt>
<totfact> 0.22099860E+05</totfact>
</mgrwt>
</event>
<event>
 8    1  0.1520917E-017  0.7986594E+02  0.7818608E-02  0.1329432E+00
         -1   -1    0    0    0  501 -0.00000000000E+00  0.00000000000E+00  0.26087491929E+02  0.26087492415E+02  0.50400000000E-02 0.  1.
          2   -1    0    0  501    0  0.00000000000E+00 -0.00000000000E+00 -0.61126694866E+02  0.61126694919E+02  0.25500000000E-02 0. -1.
         24    2    1    2    0    0  0.00000000000E+00  0.00000000000E+00 -0.35039202938E+02  0.87214187335E+02  0.79865942240E+02 0.  0.
         66    2    3    3    0    0  0.23662339288E+02  0.31821746740E+02 -0.22427252075E+02  0.45601661159E+02  0.19999996669E+01 0.  0.
        -13    1    3    3    0    0 -0.23662339288E+02 -0.31821746740E+02 -0.12611950862E+02  0.41612526176E+02  0.10566000000E+00 0.  1.
         13    1    4    4    0    0  0.30688260736E+01  0.40475797334E+01 -0.30023671704E+01  0.59013530508E+01  0.10566000000E+00 0. -1.
        -13    1    4    4    0    0  0.12152910295E+02  0.17298518618E+02 -0.11068417247E+02  0.23863214356E+02  0.10566000000E+00 0.  1.
        -14    1    4    4    0    0  0.84406029191E+01  0.10475648389E+02 -0.83564676578E+01  0.15837093752E+02  0.00000000000E+00 0.  1.
<mgrwt>
<rscale>  0 0.79865942E+02</rscale>
<asrwt>0</asrwt>
<pdfrwt beam="1">  1        2 0.94041069E-02 0.79865942E+02</pdfrwt>
<pdfrwt beam="2">  1       -1 0.40134604E-02 0.79865942E+02</pdfrwt>
<totfact> 0.15704882E+05</totfact>
</mgrwt>
</event>
<event>
 8    1  0.1520917E-017  0.7970917E+02  0.7818608E-02  0.1329879E+00
         -1   -1    0    0    0  501 -0.00000000000E+00  0.00000000000E+00  0.30328052796E+02  0.30328053215E+02  0.50400000000E-02 0.  1.
          2   -1    0    0  501    0  0.00000000000E+00 -0.00000000000E+00 -0.52373548852E+02  0.52373548914E+02  0.25500000000E-02 0. -1.
         24    2    1    2    0    0  0.00000000000E+00  0.00000000000E+00 -0.22045496056E+02  0.82701602130E+02  0.79709165712E+02 0.  0.
         66    2    3    3    0    0 -0.26064438937E+02 -0.11994679573E+02 -0.39692043629E+02  0.49017197423E+02  0.20000001342E+01 0.  0.
        -13    1    3    3    0    0  0.26064438937E+02  0.11994679573E+02  0.17646547573E+02  0.33684404707E+02  0.10566000000E+00 0.  1.
         13    1    4    4    0    0 -0.83104305319E+01 -0.39597626137E+01 -0.11427329173E+02  0.14674399192E+02  0.10566000000E+00 0. -1.
        -13    1    4    4    0    0 -0.14517718621E+02 -0.61964466116E+01 -0.22909903025E+02  0.27821483160E+02  0.10566000000E+00 0.  1.
        -14    1    4    4    0    0 -0.32362897843E+01 -0.18384703477E+01 -0.53548114310E+01  0.65213150705E+01  0.00000000000E+00 0.  1.
<mgrwt>
<rscale>  0 0.79709166E+02</rscale>
<asrwt>0</asrwt>
<pdfrwt beam="1">  1        2 0.80574690E-02 0.79709166E+02</pdfrwt>
<pdfrwt beam="2">  1       -1 0.46658543E-02 0.79709166E+02</pdfrwt>
<totfact> 0.15246752E+05</totfact>
</mgrwt>
</event>
<event>
 8    1  0.1520917E-017  0.7906291E+02  0.7818608E-02  0.1331732E+00
          2   -1    0    0  501    0  0.00000000000E+00  0.00000000000E+00  0.26015035321E+03  0.26015035323E+03  0.25500000000E-02 0. -1.
         -1   -1    0    0    0  501 -0.00000000000E+00 -0.00000000000E+00 -0.60070481613E+01  0.60070502756E+01  0.50400000000E-02 0.  1.
         24    2    1    2    0    0  0.00000000000E+00  0.00000000000E+00  0.25414330505E+03  0.26615740350E+03  0.79062911254E+02 0.  0.
         66    2    3    3    0    0 -0.16916766007E+02 -0.35466944402E+02  0.14088910703E+03  0.14627994252E+03  0.19999967780E+01 0.  0.
        -13    1    3    3    0    0  0.16916766007E+02  0.35466944402E+02  0.11325419802E+03  0.11987746098E+03  0.10566000000E+00 0.  1.
         13    1    4    4    0    0 -0.53419790927E+00 -0.10613927415E+01  0.44658433994E+01  0.46224282862E+01  0.10566000000E+00 0. -1.
        -13    1    4    4    0    0 -0.12676951038E+02 -0.28295398653E+02  0.11084655891E+03  0.11510128348E+03  0.10566000000E+00 0.  1.
        -14    1    4    4    0    0 -0.37056170593E+01 -0.61101530070E+01  0.25576704721E+02  0.26556230755E+02  0.00000000000E+00 0.  1.
<mgrwt>
<rscale>  0 0.79062911E+02</rscale>
<asrwt>0</asrwt>
<pdfrwt beam="1">  1        2 0.40023134E-01 0.79062911E+02</pdfrwt>
<pdfrwt beam="2">  1       -1 0.92416136E-03 0.79062911E+02</pdfrwt>
<totfact> 0.24973074E+05</totfact>
</mgrwt>
</event>
<event>
 8    1  0.1520917E-017  0.7862966E+02  0.7818608E-02  0.1332986E+00
         -1   -1    0    0    0  501 -0.00000000000E+00  0.00000000000E+00  0.58589774171E+01  0.58589795849E+01  0.50400000000E-02 0.  1.
          2   -1    0    0  501    0  0.00000000000E+00 -0.00000000000E+00 -0.26380975781E+03  0.26380975782E+03  0.25500000000E-02 0. -1.
         24    2    1    2    0    0 -0.35527136788E-14  0.00000000000E+00 -0.25795078039E+03  0.26966873741E+03  0.78629656171E+02 0.  0.
         66    2    3    3    0    0 -0.24096854760E+02  0.28842307507E+02 -0.16832926079E+03  0.17248558531E+03  0.19999974684E+01 0.  0.
        -13    1    3    3    0    0  0.24096854760E+02 -0.28842307507E+02 -0.89621519606E+02  0.97183152100E+02  0.10566000000E+00 0.  1.
         13    1    4    4    0    0 -0.47866547452E+01  0.48038265562E+01 -0.32206090006E+02  0.32912493232E+02  0.10566000000E+00 0.  1.
        -13    1    4    4    0    0 -0.14928211531E+01  0.18866027707E+01 -0.11253531060E+02  0.11508297458E+02  0.10566000000E+00 0. -1.
        -14    1    4    4    0    0 -0.17817378862E+02  0.22151878180E+02 -0.12486963972E+03  0.12806479462E+03  0.00000000000E+00 0.  1.
<mgrwt>
<rscale>  0 0.78629656E+02</rscale>
<asrwt>0</asrwt>
<pdfrwt beam="1">  1        2 0.40586107E-01 0.78629656E+02</pdfrwt>
<pdfrwt beam="2">  1       -1 0.90138152E-03 0.78629656E+02</pdfrwt>
<totfact> 0.25463636E+05</totfact>
</mgrwt>
</event>
<event>
 8    1  0.1520917E-017  0.7975021E+02  0.7818608E-02  0.1329762E+00
         -1   -1    0    0    0  501 -0.00000000000E+00  0.00000000000E+00  0.27680497500E+01  0.27680543384E+01  0.50400000000E-02 0.  1.
          2   -1    0    0  501    0  0.00000000000E+00 -0.00000000000E+00 -0.57441976638E+03  0.57441976638E+03  0.25500000000E-02 0. -1.
         24    2    1    2    0    0  0.00000000000E+00  0.00000000000E+00 -0.57165171663E+03  0.57718782072E+03  0.79750205430E+02 0.  0.
         66    2    3    3    0    0  0.35453011546E+02  0.10959397354E+02 -0.39113371184E+03  0.39289515772E+03  0.20000018824E+01 0.  0.
        -13    1    3    3    0    0 -0.35453011546E+02 -0.10959397354E+02 -0.18051800479E+03  0.18429266300E+03  0.10566000000E+00 0.  1.
         13    1    4    4    0    0  0.74816362185E+01  0.30747978714E+01 -0.87340947349E+02  0.87714773614E+02  0.10566000000E+00 0. -1.
        -13    1    4    4    0    0  0.15170457072E+02  0.42796531519E+01 -0.16822898310E+03  0.16896585489E+03  0.10566000000E+00 0.  1.
         14    1    4    4    0    0  0.12800918256E+02  0.36049463309E+01 -0.13556378139E+03  0.13621452922E+03  0.00000000000E+00 0. -1.
<mgrwt>
<rscale>  0 0.79750205E+02</rscale>
<asrwt>0</asrwt>
<pdfrwt beam="1">  1        2 0.88372177E-01 0.79750205E+02</pdfrwt>
<pdfrwt beam="2">  1       -1 0.42585462E-03 0.79750205E+02</pdfrwt>
<totfact> 0.32027401E+05</totfact>
</mgrwt>
</event>
<event>
 8    1  0.1520917E-017  0.7828971E+02  0.7818608E-02  0.1333976E+00
          2   -1    0    0  501    0  0.00000000000E+00  0.00000000000E+00  0.44867047483E+02  0.44867047555E+02  0.25500000000E-02 0. -1.
         -1   -1    0    0    0  501 -0.00000000000E+00 -0.00000000000E+00 -0.34152448241E+02  0.34152448613E+02  0.50400000000E-02 0.  1.
         24    2    1    2    0    0  0.00000000000E+00  0.35527136788E-14  0.10714599242E+02  0.79019496168E+02  0.78289706461E+02 0.  0.
         66    2    3    3    0    0  0.24471096518E+02  0.30382054565E+02  0.24336136514E+01  0.39138552212E+02  0.19999973686E+01 0.  0.
        -13    1    3    3    0    0 -0.24471096518E+02 -0.30382054565E+02  0.82809855902E+01  0.39880943956E+02  0.10566000000E+00 0.  1.
         13    1    4    4    0    0  0.11602163709E+02  0.15704747790E+02  0.94670912679E+00  0.19548829327E+02  0.10566000000E+00 0. -1.
        -13    1    4    4    0    0  0.89400267892E+01  0.97100140768E+01  0.10832007427E+01  0.13243599973E+02  0.10566000000E+00 0.  1.
        -14    1    4    4    0    0  0.39289060200E+01  0.49672926988E+01  0.40370378188E+00  0.63461229119E+01  0.00000000000E+00 0.  1.
<mgrwt>
<rscale>  0 0.78289706E+02</rscale>
<asrwt>0</asrwt>
<pdfrwt beam="1">  1        2 0.69026227E-02 0.78289706E+02</pdfrwt>
<pdfrwt beam="2">  1       -1 0.52542229E-02 0.78289706E+02</pdfrwt>
<totfact> 0.15492939E+05</totfact>
</mgrwt>
</event>
<event>
 8    1  0.1520917E-017  0.8103638E+02  0.7818608E-02  0.1326136E+00
          2   -1    0    0  501    0  0.00000000000E+00  0.00000000000E+00  0.65915405254E+03  0.65915405254E+03  0.25500000000E-02 0. -1.
         -1   -1    0    0    0  501 -0.00000000000E+00 -0.00000000000E+00 -0.24906497781E+01  0.24906548774E+01  0.50400000000E-02 0.  1.
         24    2    1    2    0    0  0.44408920985E-15  0.71054273576E-14  0.65666340276E+03  0.66164470742E+03  0.81036376604E+02 0.  0.
         66    2    3    3    0    0  0.28467632079E+01  0.32751669321E+02  0.52156276297E+03  0.52260165675E+03  0.20000041695E+01 0.  0.
        -13    1    3    3    0    0 -0.28467632079E+01 -0.32751669321E+02  0.13510063979E+03  0.13904305067E+03  0.10566000000E+00 0.  1.
         13    1    4    4    0    0  0.20015833756E+01  0.22033961972E+02  0.35348072856E+03  0.35417246991E+03  0.10566000000E+00 0. -1.
        -13    1    4    4    0    0  0.13287719274E+00  0.53608505758E+01  0.76415634528E+02  0.76603633985E+02  0.10566000000E+00 0.  1.
         14    1    4    4    0    0  0.71230263958E+00  0.53568567729E+01  0.91666399885E+02  0.91825552857E+02  0.00000000000E+00 0. -1.
<mgrwt>
<rscale>  0 0.81036377E+02</rscale>
<asrwt>0</asrwt>
<pdfrwt beam="1">  1        2 0.10140822E+00 0.81036377E+02</pdfrwt>
<pdfrwt beam="2">  1       -1 0.38317766E-03 0.81036377E+02</pdfrwt>
<totfact> 0.31887286E+05</totfact>
</mgrwt>
</event>
<event>
 8    1  0.1520917E-017  0.8201884E+02  0.7818608E-02  0.1323418E+00
         -1   -1    0    0    0  501 -0.00000000000E+00  0.00000000000E+00  0.12839772935E+02  0.12839773924E+02  0.50400000000E-02 0.  1.
          2   -1    0    0  501    0  0.00000000000E+00 -0.00000000000E+00 -0.13098147886E+03  0.13098147888E+03  0.25500000000E-02 0. -1.
         24    2    1    2    0    0 -0.71054273576E-14  0.00000000000E+00 -0.11814170592E+03  0.14382125281E+03  0.82018839790E+02 0.  0.
         66    2    3    3    0    0 -0.36412209065E+02  0.30298725946E+01 -0.91663622659E+02  0.98697764973E+02  0.19999987019E+01 0.  0.
        -13    1    3    3    0    0  0.36412209065E+02 -0.30298725946E+01 -0.26478083264E+02  0.45123487834E+02  0.10566000000E+00 0.  1.
         13    1    4    4    0    0 -0.13721931929E+02  0.14259162002E+01 -0.35835326378E+02  0.38399302513E+02  0.10566000000E+00 0.  1.
        -13    1    4    4    0    0 -0.17292379399E+01  0.20533527064E+00 -0.34979555240E+01  0.39088723834E+01  0.10566000000E+00 0. -1.
         14    1    4    4    0    0 -0.20961039196E+02  0.13986211238E+01 -0.52330340757E+02  0.56389590076E+02  0.00000000000E+00 0. -1.
<mgrwt>
<rscale>  0 0.82018840E+02</rscale>
<asrwt>0</asrwt>
<pdfrwt beam="1">  1        2 0.20150996E-01 0.82018840E+02</pdfrwt>
<pdfrwt beam="2">  1       -1 0.19753499E-02 0.82018840E+02</pdfrwt>
<totfact> 0.17957840E+05</totfact>
</mgrwt>
</event>
<event>
 8    1  0.1520917E-017  0.7947494E+02  0.7818608E-02  0.1330548E+00
          2   -1    0    0  501    0  0.00000000000E+00  0.00000000000E+00  0.13827502919E+02  0.13827503154E+02  0.25500000000E-02 0. -1.
         -1   -1    0    0    0  501 -0.00000000000E+00 -0.00000000000E+00 -0.11419753113E+03  0.11419753124E+03  0.50400000000E-02 0.  1.
         24    2    1    2    0    0  0.00000000000E+00  0.00000000000E+00 -0.10037002821E+03  0.12802503439E+03  0.79474944912E+02 0.  0.
         66    2    3    3    0    0 -0.31109630154E+02  0.23276798931E+02 -0.63445922534E+02  0.74424482150E+02  0.20000000790E+01 0.  0.
        -13    1    3    3    0    0  0.31109630154E+02 -0.23276798931E+02 -0.36924105674E+02  0.53600552242E+02  0.10566000000E+00 0.  1.
         13    1    4    4    0    0 -0.11062963741E+02  0.73570936384E+01 -0.22182740182E+02  0.25857322358E+02  0.10566000000E+00 0. -1.
        -13    1    4    4    0    0 -0.18776980653E+02  0.14627619758E+02 -0.38449039868E+02  0.45220372544E+02  0.10566000000E+00 0.  1.
         14    1    4    4    0    0 -0.12696857603E+01  0.12920855352E+01 -0.28141424838E+01  0.33467872474E+01  0.00000000000E+00 0. -1.
<mgrwt>
<rscale>  0 0.79474945E+02</rscale>
<asrwt>0</asrwt>
<pdfrwt beam="1">  1        2 0.21273082E-02 0.79474945E+02</pdfrwt>
<pdfrwt beam="2">  1       -1 0.17568850E-01 0.79474945E+02</pdfrwt>
<totfact> 0.11704622E+05</totfact>
</mgrwt>
</event>
<event>
 8    1  0.1520917E-017  0.7948437E+02  0.7818608E-02  0.1330521E+00
          2   -1    0    0  501    0  0.00000000000E+00  0.00000000000E+00  0.17694921541E+02  0.17694921725E+02  0.25500000000E-02 0. -1.
         -1   -1    0    0    0  501 -0.00000000000E+00 -0.00000000000E+00 -0.89259583640E+02  0.89259583782E+02  0.50400000000E-02 0.  1.
         24    2    1    2    0    0  0.88817841970E-15  0.00000000000E+00 -0.71564662099E+02  0.10695450551E+03  0.79484371967E+02 0.  0.
         66    2    3    3    0    0  0.47220282802E+01 -0.33749594122E+02 -0.83564525052E+01  0.35144885131E+02  0.19999994806E+01 0.  0.
        -13    1    3    3    0    0 -0.47220282802E+01  0.33749594122E+02 -0.63208209594E+02  0.71809620376E+02  0.10566000000E+00 0.  1.
         13    1    4    4    0    0  0.10816662491E+01 -0.76034533423E+01 -0.20558817460E+01  0.79511205746E+01  0.10566000000E+00 0. -1.
        -13    1    4    4    0    0  0.13090660086E+00 -0.61004606416E+01 -0.15208212053E+01  0.62894210983E+01  0.10566000000E+00 0.  1.
        -14    1    4    4    0    0  0.35094554302E+01 -0.20045680138E+02 -0.47797495539E+01  0.20904343458E+02  0.00000000000E+00 0.  1.
<mgrwt>
<rscale>  0 0.79484372E+02</rscale>
<asrwt>0</asrwt>
<pdfrwt beam="1">  1        2 0.27222957E-02 0.79484372E+02</pdfrwt>
<pdfrwt beam="2">  1       -1 0.13732243E-01 0.79484372E+02</pdfrwt>
<totfact> 0.12336580E+05</totfact>
</mgrwt>
</event>
<event>
 8    1  0.1520917E-017  0.7450172E+02  0.7818608E-02  0.1345421E+00
         -1   -1    0    0    0  501 -0.00000000000E+00  0.00000000000E+00  0.22121777336E+01  0.22121834749E+01  0.50400000000E-02 0.  1.
          2   -1    0    0  501    0  0.00000000000E+00 -0.00000000000E+00 -0.62726641292E+03  0.62726641293E+03  0.25500000000E-02 0. -1.
         24    2    1    2    0    0  0.00000000000E+00 -0.44408920985E-15 -0.62505423519E+03  0.62947859640E+03  0.74501720796E+02 0.  0.
         66    2    3    3    0    0  0.28751612027E+02 -0.29754959191E+01 -0.51092293959E+03  0.51174384125E+03  0.20000237825E+01 0.  0.
        -13    1    3    3    0    0 -0.28751612027E+02  0.29754959191E+01 -0.11413129560E+03  0.11773475515E+03  0.10566000000E+00 0.  1.
         13    1    4    4    0    0  0.65693908499E+01  0.48379429556E-01 -0.12132088802E+03  0.12149867601E+03  0.10566000000E+00 0. -1.
        -13    1    4    4    0    0  0.11875939311E+02 -0.18833627313E+01 -0.21091227043E+03  0.21125477976E+03  0.10566000000E+00 0.  1.
         14    1    4    4    0    0  0.10306281866E+02 -0.11405126173E+01 -0.17868978113E+03  0.17899038549E+03  0.00000000000E+00 0. -1.
<mgrwt>
<rscale>  0 0.74501721E+02</rscale>
<asrwt>0</asrwt>
<pdfrwt beam="1">  1        2 0.96502383E-01 0.74501721E+02</pdfrwt>
<pdfrwt beam="2">  1       -1 0.34033598E-03 0.74501721E+02</pdfrwt>
<totfact> 0.39152707E+05</totfact>
</mgrwt>
</event>
<event>
 8    1  0.1520917E-017  0.8048597E+02  0.7818608E-02  0.1327678E+00
         -1   -1    0    0    0  501 -0.00000000000E+00  0.00000000000E+00  0.20908885979E+01  0.20908946723E+01  0.50400000000E-02 0.  1.
          2   -1    0    0  501    0  0.00000000000E+00 -0.00000000000E+00 -0.77454889986E+03  0.77454889986E+03  0.25500000000E-02 0. -1.
         24    2    1    2    0    0  0.17763568394E-14  0.00000000000E+00 -0.77245801126E+03  0.77663979453E+03  0.80485969552E+02 0.  0.
         66    2    3    3    0    0 -0.91715177933E+01 -0.40757350670E+01 -0.76226835139E+03  0.76233704349E+03  0.20000002618E+01 0.  0.
        -13    1    3    3    0    0  0.91715177933E+01  0.40757350670E+01 -0.10189659872E+02  0.14302751040E+02  0.10566000000E+00 0.  1.
         13    1    4    4    0    0 -0.15828182554E+01 -0.45492971433E+00 -0.10478786364E+03  0.10480085785E+03  0.10566000000E+00 0. -1.
        -13    1    4    4    0    0 -0.36844764718E+01 -0.11725494918E+01 -0.34577870842E+03  0.34580034211E+03  0.10566000000E+00 0.  1.
        -14    1    4    4    0    0 -0.39042230661E+01 -0.24482558610E+01 -0.31170177932E+03  0.31173584354E+03  0.00000000000E+00 0.  1.
<mgrwt>
<rscale>  0 0.80485970E+02</rscale>
<asrwt>0</asrwt>
<pdfrwt beam="1">  1        2 0.11916114E+00 0.80485970E+02</pdfrwt>
<pdfrwt beam="2">  1       -1 0.32167626E-03 0.80485970E+02</pdfrwt>
<totfact> 0.33632666E+05</totfact>
</mgrwt>
</event>
<event>
 8    1  0.1520917E-017  0.8024532E+02  0.7818608E-02  0.1328357E+00
         -1   -1    0    0    0  501 -0.00000000000E+00  0.00000000000E+00  0.24410342197E+01  0.24410394227E+01  0.50400000000E-02 0.  1.
          2   -1    0    0  501    0  0.00000000000E+00 -0.00000000000E+00 -0.65948532828E+03  0.65948532829E+03  0.25500000000E-02 0. -1.
         24    2    1    2    0    0  0.00000000000E+00  0.00000000000E+00 -0.65704429406E+03  0.66192636771E+03  0.80245323287E+02 0.  0.
         66    2    3    3    0    0  0.33045609808E+02 -0.30090971710E+01 -0.51441603192E+03  0.51548901141E+03  0.19999994788E+01 0.  0.
        -13    1    3    3    0    0 -0.33045609808E+02  0.30090971710E+01 -0.14262826214E+03  0.14643735629E+03  0.10566000000E+00 0.  1.
         13    1    4    4    0    0  0.42621822340E+01 -0.27230994441E+00 -0.68786784865E+02  0.68919324476E+02  0.10566000000E+00 0. -1.
        -13    1    4    4    0    0  0.17982739316E+02 -0.21084334939E+01 -0.26724769263E+03  0.26786034567E+03  0.10566000000E+00 0.  1.
        -14    1    4    4    0    0  0.10800688258E+02 -0.62835373267E+00 -0.17838155443E+03  0.17870934126E+03  0.00000000000E+00 0.  1.
<mgrwt>
<rscale>  0 0.80245323E+02</rscale>
<asrwt>0</asrwt>
<pdfrwt beam="1">  1        2 0.10145914E+00 0.80245323E+02</pdfrwt>
<pdfrwt beam="2">  1       -1 0.37554465E-03 0.80245323E+02</pdfrwt>
<totfact> 0.32715948E+05</totfact>
</mgrwt>
</event>
<event>
 8    1  0.1520917E-017  0.7958022E+02  0.7818608E-02  0.1330247E+00
          2   -1    0    0  501    0  0.00000000000E+00  0.00000000000E+00  0.46954562553E+03  0.46954562554E+03  0.25500000000E-02 0. -1.
         -1   -1    0    0    0  501 -0.00000000000E+00 -0.00000000000E+00 -0.33718808853E+01  0.33718846520E+01  0.50400000000E-02 0.  1.
         24    2    1    2    0    0  0.17763568394E-14  0.88817841970E-15  0.46617374465E+03  0.47291751019E+03  0.79580218945E+02 0.  0.
         66    2    3    3    0    0  0.15128228053E+02  0.70717033070E+01  0.44769471198E+03  0.44801052153E+03  0.19999992247E+01 0.  0.
        -13    1    3    3    0    0 -0.15128228053E+02 -0.70717033070E+01  0.18479032665E+02  0.24906988657E+02  0.10566000000E+00 0.  1.
         13    1    4    4    0    0  0.10363911041E+02  0.49940072141E+01  0.30088583175E+03  0.30110570515E+03  0.10566000000E+00 0. -1.
        -13    1    4    4    0    0  0.14945408726E+01  0.54627688848E+00  0.59381930231E+02  0.59403340587E+02  0.10566000000E+00 0.  1.
        -14    1    4    4    0    0  0.32697761400E+01  0.15314192044E+01  0.87426949996E+02  0.87501475795E+02  0.00000000000E+00 0.  1.
<mgrwt>
<rscale>  0 0.79580219E+02</rscale>
<asrwt>0</asrwt>
<pdfrwt beam="1">  1        2 0.72237793E-01 0.79580219E+02</pdfrwt>
<pdfrwt beam="2">  1       -1 0.51875116E-03 0.79580219E+02</pdfrwt>
<totfact> 0.30249463E+05</totfact>
</mgrwt>
</event>
<event>
 8    1  0.1520917E-017  0.8104596E+02  0.7818608E-02  0.1326109E+00
          2   -1    0    0  501    0  0.00000000000E+00  0.00000000000E+00  0.10611766212E+04  0.10611766212E+04  0.25500000000E-02 0. -1.
         -1   -1    0    0    0  501 -0.00000000000E+00 -0.00000000000E+00 -0.15474405472E+01  0.15474487548E+01  0.50400000000E-02 0.  1.
         24    2    1    2    0    0  0.17763568394E-14  0.00000000000E+00  0.10596291807E+04  0.10627240700E+04  0.81045964595E+02 0.  0.
         66    2    3    3    0    0 -0.15305884955E+02  0.98903737434E+01  0.10043738408E+04  0.10045411399E+04  0.20000012775E+01 0.  0.
        -13    1    3    3    0    0  0.15305884955E+02 -0.98903737434E+01  0.55255339844E+02  0.58182930077E+02  0.10566000000E+00 0.  1.
         13    1    4    4    0    0 -0.95684056818E+01  0.59301641420E+01  0.63713264191E+03  0.63723208942E+03  0.10566000000E+00 0. -1.
        -13    1    4    4    0    0 -0.23389330792E+01  0.19481365216E+01  0.18488726797E+03  0.18491235455E+03  0.10566000000E+00 0.  1.
         14    1    4    4    0    0 -0.33985461941E+01  0.20120730799E+01  0.18235393095E+03  0.18239669593E+03  0.00000000000E+00 0. -1.
<mgrwt>
<rscale>  0 0.81045965E+02</rscale>
<asrwt>0</asrwt>
<pdfrwt beam="1">  1        2 0.16325775E+00 0.81045965E+02</pdfrwt>
<pdfrwt beam="2">  1       -1 0.23806869E-03 0.81045965E+02</pdfrwt>
<totfact> 0.34102816E+05</totfact>
</mgrwt>
</event>
<event>
 8    1  0.1520917E-017  0.7988242E+02  0.7818608E-02  0.1329385E+00
          2   -1    0    0  501    0  0.00000000000E+00  0.00000000000E+00  0.14124739293E+02  0.14124739523E+02  0.25500000000E-02 0. -1.
         -1   -1    0    0    0  501 -0.00000000000E+00 -0.00000000000E+00 -0.11294369673E+03  0.11294369684E+03  0.50400000000E-02 0.  1.
         24    2    1    2    0    0  0.17763568394E-14 -0.35527136788E-14 -0.98818957434E+02  0.12706843636E+03  0.79882420915E+02 0.  0.
         66    2    3    3    0    0  0.89943746620E+01 -0.27792651236E+02 -0.61698471965E+01  0.29923189283E+02  0.20000010322E+01 0.  0.
        -13    1    3    3    0    0 -0.89943746620E+01  0.27792651236E+02 -0.92649110238E+02  0.97145247080E+02  0.10566000000E+00 0.  1.
         13    1    4    4    0    0  0.56643772416E+01 -0.16742911133E+02 -0.41787430095E+01  0.18162689776E+02  0.10566000000E+00 0. -1.
        -13    1    4    4    0    0  0.23342111145E+01 -0.59347717651E+01 -0.11912266949E+01  0.64884699664E+01  0.10566000000E+00 0.  1.
        -14    1    4    4    0    0  0.99578630586E+00 -0.51149683382E+01 -0.79987749206E+00  0.52720295400E+01  0.00000000000E+00 0.  1.
<mgrwt>
<rscale>  0 0.79882421E+02</rscale>
<asrwt>0</asrwt>
<pdfrwt beam="1">  1        2 0.21730369E-02 0.79882421E+02</pdfrwt>
<pdfrwt beam="2">  1       -1 0.17375953E-01 0.79882421E+02</pdfrwt>
<totfact> 0.11584202E+05</totfact>
</mgrwt>
</event>
<event>
 8    1  0.1520917E-017  0.7985083E+02  0.7818608E-02  0.1329475E+00
         -1   -1    0    0    0  501 -0.00000000000E+00  0.00000000000E+00  0.66410840264E+02  0.66410840455E+02  0.50400000000E-02 0.  1.
          2   -1    0    0  501    0  0.00000000000E+00 -0.00000000000E+00 -0.24002691811E+02  0.24002691946E+02  0.25500000000E-02 0. -1.
         24    2    1    2    0    0  0.44408920985E-15  0.00000000000E+00  0.42408148453E+02  0.90413532401E+02  0.79850834598E+02 0.  0.
         66    2    3    3    0    0  0.33151180802E+01  0.17506264897E+02 -0.19206412741E+02  0.26274428621E+02  0.19999976003E+01 0.  0.
        -13    1    3    3    0    0 -0.33151180802E+01 -0.17506264897E+02  0.61614561195E+02  0.64139103781E+02  0.10566000000E+00 0.  1.
         13    1    4    4    0    0  0.14209438757E+01  0.59413876972E+01 -0.69635804322E+01  0.92640048433E+01  0.10566000000E+00 0. -1.
        -13    1    4    4    0    0  0.17485972817E+01  0.66200071416E+01 -0.66858919353E+01  0.95704964351E+01  0.10566000000E+00 0.  1.
        -14    1    4    4    0    0  0.14557692281E+00  0.49448700585E+01 -0.55569403738E+01  0.74399273420E+01  0.00000000000E+00 0.  1.
<mgrwt>
<rscale>  0 0.79850835E+02</rscale>
<asrwt>0</asrwt>
<pdfrwt beam="1">  1        2 0.36927218E-02 0.79850835E+02</pdfrwt>
<pdfrwt beam="2">  1       -1 0.10217052E-01 0.79850835E+02</pdfrwt>
<totfact> 0.12944790E+05</totfact>
</mgrwt>
</event>
<event>
 8    1  0.1520917E-017  0.7973864E+02  0.7818608E-02  0.1329795E+00
          2   -1    0    0  501    0  0.00000000000E+00  0.00000000000E+00  0.12816667856E+04  0.12816667856E+04  0.25500000000E-02 0. -1.
         -1   -1    0    0    0  501 -0.00000000000E+00 -0.00000000000E+00 -0.12402256703E+01  0.12402359109E+01  0.50400000000E-02 0.  1.
         24    2    1    2    0    0 -0.35527136788E-14 -0.17763568394E-14  0.12804265599E+04  0.12829070215E+04  0.79738638533E+02 0.  0.
         66    2    3    3    0    0  0.22460045981E+02  0.93260612167E+01  0.11484048259E+04  0.11486640384E+04  0.19999951175E+01 0.  0.
        -13    1    3    3    0    0 -0.22460045981E+02 -0.93260612167E+01  0.13202173406E+03  0.13424298310E+03  0.10566000000E+00 0.  1.
         13    1    4    4    0    0  0.67772228613E+01  0.29400684893E+01  0.37059593086E+03  0.37066956968E+03  0.10566000000E+00 0. -1.
        -13    1    4    4    0    0  0.12035630761E+02  0.51530894980E+01  0.57510315952E+03  0.57525217600E+03  0.10566000000E+00 0.  1.
        -14    1    4    4    0    0  0.36471923588E+01  0.12329032294E+01  0.20270573548E+03  0.20274229272E+03  0.00000000000E+00 0.  1.
<mgrwt>
<rscale>  0 0.79738639E+02</rscale>
<asrwt>0</asrwt>
<pdfrwt beam="1">  1        2 0.19717836E+00 0.79738639E+02</pdfrwt>
<pdfrwt beam="2">  1       -1 0.19080584E-03 0.79738639E+02</pdfrwt>
<totfact> 0.35004689E+05</totfact>
</mgrwt>
</event>
<event>
 8    1  0.1520917E-017  0.8618927E+02  0.7818608E-02  0.1312351E+00
         -1   -1    0    0    0  501 -0.00000000000E+00  0.00000000000E+00  0.10020070337E+03  0.10020070350E+03  0.50400000000E-02 0.  1.
          2   -1    0    0  501    0  0.00000000000E+00 -0.00000000000E+00 -0.18534277851E+02  0.18534278027E+02  0.25500000000E-02 0. -1.
         24    2    1    2    0    0  0.00000000000E+00  0.00000000000E+00  0.81666425519E+02  0.11873498152E+03  0.86189273001E+02 0.  0.
         66    2    3    3    0    0 -0.23901136264E+02  0.92074402602E+01 -0.68487107293E+01  0.26588458096E+02  0.19999985934E+01 0.  0.
        -13    1    3    3    0    0  0.23901136264E+02 -0.92074402602E+01  0.88515136248E+02  0.92146523429E+02  0.10566000000E+00 0.  1.
         13    1    4    4    0    0 -0.10670878701E+02  0.42985122297E+01 -0.26838823774E+01  0.11813519725E+02  0.10566000000E+00 0. -1.
        -13    1    4    4    0    0 -0.58667671579E+01  0.21059811785E+01 -0.25310127903E+01  0.67283953057E+01  0.10566000000E+00 0.  1.
        -14    1    4    4    0    0 -0.73634904059E+01  0.28029468520E+01 -0.16338155615E+01  0.80465430653E+01  0.00000000000E+00 0.  1.
<mgrwt>
<rscale>  0 0.86189273E+02</rscale>
<asrwt>0</asrwt>
<pdfrwt beam="1">  1        2 0.28514273E-02 0.86189273E+02</pdfrwt>
<pdfrwt beam="2">  1       -1 0.15415493E-01 0.86189273E+02</pdfrwt>
<totfact> 0.98400372E+04</totfact>
</mgrwt>
</event>
<event>
 8    1  0.1520917E-017  0.7950469E+02  0.7818608E-02  0.1330463E+00
         -1   -1    0    0    0  501 -0.00000000000E+00  0.00000000000E+00  0.48107607723E+01  0.48107634124E+01  0.50400000000E-02 0.  1.
          2   -1    0    0  501    0  0.00000000000E+00 -0.00000000000E+00 -0.32848201786E+03  0.32848201787E+03  0.25500000000E-02 0. -1.
         24    2    1    2    0    0  0.00000000000E+00  0.55511151231E-16 -0.32367125709E+03  0.33329278128E+03  0.79504687850E+02 0.  0.
         66    2    3    3    0    0  0.33524122433E+02 -0.28993266292E+00 -0.25128912443E+03  0.25352351943E+03  0.19999991860E+01 0.  0.
        -13    1    3    3    0    0 -0.33524122433E+02  0.28993266292E+00 -0.72382132655E+02  0.79769261859E+02  0.10566000000E+00 0.  1.
         13    1    4    4    0    0  0.51167385165E+01 -0.50655760111E+00 -0.39533853440E+02  0.39866958066E+02  0.10566000000E+00 0. -1.
        -13    1    4    4    0    0  0.91642137729E+01 -0.47558250255E+00 -0.66120187170E+02  0.66754020915E+02  0.10566000000E+00 0.  1.
        -14    1    4    4    0    0  0.19243170143E+02  0.69220744074E+00 -0.14563508382E+03  0.14690254044E+03  0.00000000000E+00 0.  1.
<mgrwt>
<rscale>  0 0.79504688E+02</rscale>
<asrwt>0</asrwt>
<pdfrwt beam="1">  1        2 0.50535677E-01 0.79504688E+02</pdfrwt>
<pdfrwt beam="2">  1       -1 0.74011751E-03 0.79504688E+02</pdfrwt>
<totfact> 0.26775186E+05</totfact>
</mgrwt>
</event>
<event>
 8    1  0.1520917E-017  0.8053426E+02  0.7818608E-02  0.1327542E+00
         -1   -1    0    0    0  501 -0.00000000000E+00  0.00000000000E+00  0.14115103365E+03  0.14115103374E+03  0.50400000000E-02 0.  1.
          2   -1    0    0  501    0  0.00000000000E+00 -0.00000000000E+00 -0.11487283060E+02  0.11487283343E+02  0.25500000000E-02 0. -1.
         24    2    1    2    0    0 -0.44408920985E-15  0.00000000000E+00  0.12966375059E+03  0.15263831708E+03  0.80534263669E+02 0.  0.
         66    2    3    3    0    0 -0.27975737719E+01  0.36208880958E+02  0.32014972243E+02  0.48454803244E+02  0.20000075988E+01 0.  0.
        -13    1    3    3    0    0  0.27975737719E+01 -0.36208880958E+02  0.97648778344E+02  0.10418351384E+03  0.10566000000E+00 0.  1.
         13    1    4    4    0    0 -0.24061051143E+01  0.28130165748E+02  0.24885540203E+02  0.37635048054E+02  0.10566000000E+00 0. -1.
        -13    1    4    4    0    0 -0.34132885977E+00  0.71961945874E+01  0.59404618234E+01  0.93381996466E+01  0.10566000000E+00 0.  1.
        -14    1    4    4    0    0 -0.50139797833E-01  0.88252062272E+00  0.11889702171E+01  0.14815555427E+01  0.00000000000E+00 0.  1.
<mgrwt>
<rscale>  0 0.80534264E+02</rscale>
<asrwt>0</asrwt>
<pdfrwt beam="1">  1        2 0.17672744E-02 0.80534264E+02</pdfrwt>
<pdfrwt beam="2">  1       -1 0.21715543E-01 0.80534264E+02</pdfrwt>
<totfact> 0.10770733E+05</totfact>
</mgrwt>
</event>
<event>
 8    1  0.1520917E-017  0.8051060E+02  0.7818608E-02  0.1327609E+00
          2   -1    0    0  501    0  0.00000000000E+00  0.00000000000E+00  0.62190417786E+02  0.62190417839E+02  0.25500000000E-02 0. -1.
         -1   -1    0    0    0  501 -0.00000000000E+00 -0.00000000000E+00 -0.26056891834E+02  0.26056892322E+02  0.50400000000E-02 0.  1.
         24    2    1    2    0    0  0.00000000000E+00  0.00000000000E+00  0.36133525952E+02  0.88247310160E+02  0.80510595904E+02 0.  0.
         66    2    3    3    0    0  0.27041093254E+02  0.10620267613E+02  0.48581519120E+02  0.56640752194E+02  0.20000001458E+01 0.  0.
        -13    1    3    3    0    0 -0.27041093254E+02 -0.10620267613E+02 -0.12447993168E+02  0.31606557966E+02  0.10566000000E+00 0.  1.
         13    1    4    4    0    0  0.50437061515E+00  0.34848025402E+00  0.10617286725E+01  0.12305527272E+01  0.10566000000E+00 0. -1.
        -13    1    4    4    0    0  0.25007698751E+02  0.93826064125E+01  0.45036190689E+02  0.52361130008E+02  0.10566000000E+00 0.  1.
        -14    1    4    4    0    0  0.15290238878E+01  0.88918094619E+00  0.24835997580E+01  0.30490694584E+01  0.00000000000E+00 0.  1.
<mgrwt>
<rscale>  0 0.80510596E+02</rscale>
<asrwt>0</asrwt>
<pdfrwt beam="1">  1        2 0.95677564E-02 0.80510596E+02</pdfrwt>
<pdfrwt beam="2">  1       -1 0.40087527E-02 0.80510596E+02</pdfrwt>
<totfact> 0.15427309E+05</totfact>
</mgrwt>
</event>
<event>
 8    1  0.1520917E-017  0.7938827E+02  0.7818608E-02  0.1330796E+00
         -1   -1    0    0    0  501 -0.00000000000E+00  0.00000000000E+00  0.22954077426E+03  0.22954077432E+03  0.50400000000E-02 0.  1.
          2   -1    0    0  501    0  0.00000000000E+00 -0.00000000000E+00 -0.68642452832E+01  0.68642457569E+01  0.25500000000E-02 0. -1.
         24    2    1    2    0    0  0.88817841970E-15  0.00000000000E+00  0.22267652898E+03  0.23640502008E+03  0.79388267132E+02 0.  0.
         66    2    3    3    0    0  0.70766258345E+01 -0.36638594299E+02  0.71329034478E+02  0.80525128872E+02  0.19999987289E+01 0.  0.
        -13    1    3    3    0    0 -0.70766258345E+01  0.36638594299E+02  0.15134749450E+03  0.15587989120E+03  0.10566000000E+00 0.  1.
         13    1    4    4    0    0  0.29462571123E+01 -0.13566969097E+02  0.24764476375E+02  0.28390729748E+02  0.10566000000E+00 0. -1.
        -13    1    4    4    0    0  0.18944614541E+01 -0.12163815236E+02  0.24685530920E+02  0.27585031921E+02  0.10566000000E+00 0.  1.
         14    1    4    4    0    0  0.22359072681E+01 -0.10907809966E+02  0.21879027183E+02  0.24549367202E+02  0.00000000000E+00 0. -1.
<mgrwt>
<rscale>  0 0.79388267E+02</rscale>
<asrwt>0</asrwt>
<pdfrwt beam="1">  1        2 0.10560378E-02 0.79388267E+02</pdfrwt>
<pdfrwt beam="2">  1       -1 0.35313964E-01 0.79388267E+02</pdfrwt>
<totfact> 0.97237114E+04</totfact>
</mgrwt>
</event>
<event>
 8    1  0.1520917E-017  0.7916382E+02  0.7818608E-02  0.1331441E+00
         -1   -1    0    0    0  501 -0.00000000000E+00  0.00000000000E+00  0.18789767569E+03  0.18789767575E+03  0.50400000000E-02 0.  1.
          2   -1    0    0  501    0  0.00000000000E+00 -0.00000000000E+00 -0.83381958156E+01  0.83381962056E+01  0.25500000000E-02 0. -1.
         24    2    1    2    0    0  0.00000000000E+00  0.00000000000E+00  0.17955947987E+03  0.19623587196E+03  0.79163821486E+02 0.  0.
         66    2    3    3    0    0 -0.33786987226E+02 -0.40968920595E+01  0.39866052908E+02  0.52456145533E+02  0.19999998539E+01 0.  0.
        -13    1    3    3    0    0  0.33786987226E+02  0.40968920595E+01  0.13969342696E+03  0.14377972643E+03  0.10566000000E+00 0.  1.
         13    1    4    4    0    0 -0.73396977101E+01 -0.14073269844E+01  0.94726085806E+01  0.12066201104E+02  0.10566000000E+00 0.  1.
        -13    1    4    4    0    0 -0.14485458015E+02 -0.15692358032E+01  0.15965392881E+02  0.21614715561E+02  0.10566000000E+00 0. -1.
        -14    1    4    4    0    0 -0.11961831501E+02 -0.11203292719E+01  0.14428051446E+02  0.18775228868E+02  0.00000000000E+00 0.  1.
<mgrwt>
<rscale>  0 0.79163821E+02</rscale>
<asrwt>0</asrwt>
<pdfrwt beam="1">  1        2 0.12827995E-02 0.79163821E+02</pdfrwt>
<pdfrwt beam="2">  1       -1 0.28907333E-01 0.79163821E+02</pdfrwt>
<totfact> 0.10421133E+05</totfact>
</mgrwt>
</event>
<event>
 8    1  0.1520917E-017  0.7962662E+02  0.7818608E-02  0.1330114E+00
         -1   -1    0    0    0  501 -0.00000000000E+00  0.00000000000E+00  0.10411554380E+02  0.10411555600E+02  0.50400000000E-02 0.  1.
          2   -1    0    0  501    0  0.00000000000E+00 -0.00000000000E+00 -0.15224428856E+03  0.15224428858E+03  0.25500000000E-02 0. -1.
         24    2    1    2    0    0  0.00000000000E+00  0.00000000000E+00 -0.14183273418E+03  0.16265584418E+03  0.79626623443E+02 0.  0.
         66    2    3    3    0    0  0.31966791197E+02  0.23338039781E+02 -0.62649547980E+02  0.74131678095E+02  0.19999987038E+01 0.  0.
        -13    1    3    3    0    0 -0.31966791197E+02 -0.23338039781E+02 -0.79183186195E+02  0.88524166081E+02  0.10566000000E+00 0.  1.
         13    1    4    4    0    0  0.18637204069E+02  0.14316324541E+02 -0.37554868665E+02  0.44302165278E+02  0.10566000000E+00 0.  1.
        -13    1    4    4    0    0  0.42109541882E+01  0.31206480290E+01 -0.89192686241E+01  0.10345776729E+02  0.10566000000E+00 0. -1.
        -14    1    4    4    0    0  0.91186329399E+01  0.59010672101E+01 -0.16175410692E+02  0.19483736088E+02  0.00000000000E+00 0.  1.
<mgrwt>
<rscale>  0 0.79626623E+02</rscale>
<asrwt>0</asrwt>
<pdfrwt beam="1">  1        2 0.23422197E-01 0.79626623E+02</pdfrwt>
<pdfrwt beam="2">  1       -1 0.16017778E-02 0.79626623E+02</pdfrwt>
<totfact> 0.20377548E+05</totfact>
</mgrwt>
</event>
<event>
 8    1  0.1520917E-017  0.7784014E+02  0.7818608E-02  0.1335295E+00
         -1   -1    0    0    0  501 -0.00000000000E+00  0.00000000000E+00  0.43288707920E+02  0.43288708214E+02  0.50400000000E-02 0.  1.
          2   -1    0    0  501    0  0.00000000000E+00 -0.00000000000E+00 -0.34992306902E+02  0.34992306995E+02  0.25500000000E-02 0. -1.
         24    2    1    2    0    0  0.00000000000E+00  0.00000000000E+00  0.82964010187E+01  0.78281015208E+02  0.77840137925E+02 0.  0.
         66    2    3    3    0    0  0.25332955648E+02  0.67540471867E+01 -0.24741409357E+02  0.36104198428E+02  0.20000029721E+01 0.  0.
        -13    1    3    3    0    0 -0.25332955648E+02 -0.67540471867E+01  0.33037810375E+02  0.42176816780E+02  0.10566000000E+00 0.  1.
         13    1    4    4    0    0  0.67988013689E+01  0.17403333496E+01 -0.59659780499E+01  0.92117597856E+01  0.10566000000E+00 0. -1.
        -13    1    4    4    0    0  0.16923881044E+02  0.41769913015E+01 -0.17204192115E+02  0.24492047614E+02  0.10566000000E+00 0.  1.
        -14    1    4    4    0    0  0.16102732355E+01  0.83672253557E+00 -0.15712391914E+01  0.24003910288E+01  0.00000000000E+00 0.  1.
<mgrwt>
<rscale>  0 0.77840138E+02</rscale>
<asrwt>0</asrwt>
<pdfrwt beam="1">  1        2 0.53834319E-02 0.77840138E+02</pdfrwt>
<pdfrwt beam="2">  1       -1 0.66598013E-02 0.77840138E+02</pdfrwt>
<totfact> 0.14968309E+05</totfact>
</mgrwt>
</event>
<event>
 8    1  0.1520917E-017  0.8368468E+02  0.7818608E-02  0.1318909E+00
          2   -1    0    0  501    0  0.00000000000E+00  0.00000000000E+00  0.25528725888E+03  0.25528725890E+03  0.25500000000E-02 0. -1.
         -1   -1    0    0    0  501 -0.00000000000E+00 -0.00000000000E+00 -0.68580834029E+01  0.68580852549E+01  0.50400000000E-02 0.  1.
         24    2    1    2    0    0  0.00000000000E+00  0.00000000000E+00  0.24842917548E+03  0.26214534415E+03  0.83684683366E+02 0.  0.
         66    2    3    3    0    0 -0.20414628735E+02  0.34316706686E+02  0.16320742067E+03  0.16803290033E+03  0.20000021902E+01 0.  0.
        -13    1    3    3    0    0  0.20414628735E+02 -0.34316706686E+02  0.85221754813E+02  0.94112443819E+02  0.10566000000E+00 0.  1.
         13    1    4    4    0    0 -0.15528328809E+02  0.24872336538E+02  0.12172756246E+03  0.12520931574E+03  0.10566000000E+00 0. -1.
        -13    1    4    4    0    0 -0.12648170157E+01  0.28133624789E+01  0.12352640561E+02  0.12732386398E+02  0.10566000000E+00 0.  1.
         14    1    4    4    0    0 -0.36214829106E+01  0.66310076697E+01  0.29127217642E+02  0.30091198194E+02  0.00000000000E+00 0. -1.
<mgrwt>
<rscale>  0 0.83684683E+02</rscale>
<asrwt>0</asrwt>
<pdfrwt beam="1">  1        2 0.39274972E-01 0.83684683E+02</pdfrwt>
<pdfrwt beam="2">  1       -1 0.10550896E-02 0.83684683E+02</pdfrwt>
<totfact> 0.21358398E+05</totfact>
</mgrwt>
</event>
<event>
 8    1  0.1520917E-017  0.7984587E+02  0.7818608E-02  0.1329489E+00
         -1   -1    0    0    0  501 -0.00000000000E+00  0.00000000000E+00  0.15742853346E+01  0.15742934022E+01  0.50400000000E-02 0.  1.
          2   -1    0    0  501    0  0.00000000000E+00 -0.00000000000E+00 -0.10124192709E+04  0.10124192709E+04  0.25500000000E-02 0. -1.
         24    2    1    2    0    0  0.17763568394E-14  0.88817841970E-15 -0.10108449856E+04  0.10139935643E+04  0.79845874094E+02 0.  0.
         66    2    3    3    0    0  0.14764298482E+02  0.54363746305E+01 -0.97135737736E+03  0.97148684667E+03  0.20000023442E+01 0.  0.
        -13    1    3    3    0    0 -0.14764298482E+02 -0.54363746305E+01 -0.39487608188E+02  0.42506717625E+02  0.10566000000E+00 0.  1.
         13    1    4    4    0    0  0.59885891773E+00  0.10420098960E+00 -0.24358807669E+02  0.24366619891E+02  0.10566000000E+00 0.  1.
        -13    1    4    4    0    0  0.42402536637E+00  0.13543586560E-01 -0.32931123572E+02  0.32934025638E+02  0.10566000000E+00 0. -1.
         14    1    4    4    0    0  0.13741414197E+02  0.53186300544E+01 -0.91406744612E+03  0.91418620114E+03  0.00000000000E+00 0. -1.
<mgrwt>
<rscale>  0 0.79845874E+02</rscale>
<asrwt>0</asrwt>
<pdfrwt beam="1">  1        2 0.15575629E+00 0.79845874E+02</pdfrwt>
<pdfrwt beam="2">  1       -1 0.24219917E-03 0.79845874E+02</pdfrwt>
<totfact> 0.35424364E+05</totfact>
</mgrwt>
</event>
<event>
 8    1  0.1520917E-017  0.8400780E+02  0.7818608E-02  0.1318048E+00
         -1   -1    0    0    0  501 -0.00000000000E+00  0.00000000000E+00  0.15187606725E+02  0.15187607562E+02  0.50400000000E-02 0.  1.
          2   -1    0    0  501    0  0.00000000000E+00 -0.00000000000E+00 -0.11616889903E+03  0.11616889906E+03  0.25500000000E-02 0. -1.
         24    2    1    2    0    0  0.17763568394E-14  0.00000000000E+00 -0.10098129230E+03  0.13135650662E+03  0.84007799850E+02 0.  0.
         66    2    3    3    0    0 -0.12543947582E+02  0.34003743430E+02 -0.17397039863E+02  0.40252480317E+02  0.19999968674E+01 0.  0.
        -13    1    3    3    0    0  0.12543947582E+02 -0.34003743430E+02 -0.83584252440E+02  0.91104026301E+02  0.10566000000E+00 0.  1.
         13    1    4    4    0    0 -0.76102579045E+01  0.20427048299E+02 -0.10170046600E+02  0.24054549247E+02  0.10566000000E+00 0. -1.
        -13    1    4    4    0    0 -0.20571616577E+01  0.74229967412E+01 -0.38468329416E+01  0.86105796798E+01  0.10566000000E+00 0.  1.
        -14    1    4    4    0    0 -0.28765280202E+01  0.61536983903E+01 -0.33801603218E+01  0.75873513910E+01  0.00000000000E+00 0.  1.
<mgrwt>
<rscale>  0 0.84007800E+02</rscale>
<asrwt>0</asrwt>
<pdfrwt beam="1">  1        2 0.17872138E-01 0.84007800E+02</pdfrwt>
<pdfrwt beam="2">  1       -1 0.23365550E-02 0.84007800E+02</pdfrwt>
<totfact> 0.16237498E+05</totfact>
</mgrwt>
</event>
<event>
 8    1  0.1520917E-017  0.7889942E+02  0.7818608E-02  0.1332204E+00
         -1   -1    0    0    0  501 -0.00000000000E+00  0.00000000000E+00  0.85973769222E+00  0.85975246497E+00  0.50400000000E-02 0.  1.
          2   -1    0    0  501    0  0.00000000000E+00 -0.00000000000E+00 -0.18101641112E+04  0.18101641112E+04  0.25500000000E-02 0. -1.
         24    2    1    2    0    0  0.00000000000E+00  0.00000000000E+00 -0.18093043735E+04  0.18110238637E+04  0.78899421900E+02 0.  0.
         66    2    3    3    0    0  0.99018200738E+01  0.11905550487E+02 -0.17374332327E+04  0.17375033889E+04  0.19999949988E+01 0.  0.
        -13    1    3    3    0    0 -0.99018200738E+01 -0.11905550487E+02 -0.71871140817E+02  0.73520474832E+02  0.10566000000E+00 0.  1.
         13    1    4    4    0    0  0.38297916873E+01  0.49303086152E+01 -0.77284551582E+03  0.77287073805E+03  0.10566000000E+00 0. -1.
        -13    1    4    4    0    0  0.38255569677E+01  0.42701867847E+01 -0.64962666249E+03  0.64965196926E+03  0.10566000000E+00 0.  1.
        -14    1    4    4    0    0  0.22464714188E+01  0.27050550875E+01 -0.31496105441E+03  0.31498068156E+03  0.00000000000E+00 0.  1.
<mgrwt>
<rscale>  0 0.78899422E+02</rscale>
<asrwt>0</asrwt>
<pdfrwt beam="1">  1        2 0.27848374E+00 0.78899422E+02</pdfrwt>
<pdfrwt beam="2">  1       -1 0.13226992E-03 0.78899422E+02</pdfrwt>
<totfact> 0.31205614E+05</totfact>
</mgrwt>
</event>
<event>
 8    1  0.1520917E-017  0.8087272E+02  0.7818608E-02  0.1326593E+00
         -1   -1    0    0    0  501 -0.00000000000E+00  0.00000000000E+00  0.20134138498E+03  0.20134138504E+03  0.50400000000E-02 0.  1.
          2   -1    0    0  501    0  0.00000000000E+00 -0.00000000000E+00 -0.81210285615E+01  0.81210289618E+01  0.25500000000E-02 0. -1.
         24    2    1    2    0    0  0.00000000000E+00  0.00000000000E+00  0.19322035642E+03  0.20946241400E+03  0.80872719419E+02 0.  0.
         66    2    3    3    0    0  0.32593292500E+02  0.18901383884E+02  0.58823770136E+02  0.69884340522E+02  0.20000221058E+01 0.  0.
        -13    1    3    3    0    0 -0.32593292500E+02 -0.18901383884E+02  0.13439658628E+03  0.13957807348E+03  0.10566000000E+00 0.  1.
         13    1    4    4    0    0  0.19233640054E+02  0.11173196274E+02  0.33053630349E+02  0.39841270913E+02  0.10566000000E+00 0. -1.
        -13    1    4    4    0    0  0.21598278497E+01  0.11126889016E+01  0.38341193253E+01  0.45403268570E+01  0.10566000000E+00 0.  1.
         14    1    4    4    0    0  0.11199824597E+02  0.66154987082E+01  0.21936020462E+02  0.25502742752E+02  0.00000000000E+00 0. -1.
<mgrwt>
<rscale>  0 0.80872719E+02</rscale>
<asrwt>0</asrwt>
<pdfrwt beam="1">  1        2 0.12493891E-02 0.80872719E+02</pdfrwt>
<pdfrwt beam="2">  1       -1 0.30975597E-01 0.80872719E+02</pdfrwt>
<totfact> 0.96693617E+04</totfact>
</mgrwt>
</event>
<event>
 8    1  0.1520917E-017  0.8247877E+02  0.7818608E-02  0.1322161E+00
         -1   -1    0    0    0  501 -0.00000000000E+00  0.00000000000E+00  0.11818372824E+03  0.11818372834E+03  0.50400000000E-02 0.  1.
          2   -1    0    0  501    0  0.00000000000E+00 -0.00000000000E+00 -0.14390192946E+02  0.14390193172E+02  0.25500000000E-02 0. -1.
         24    2    1    2    0    0  0.00000000000E+00  0.00000000000E+00  0.10379353529E+03  0.13257392152E+03  0.82478765135E+02 0.  0.
         66    2    3    3    0    0  0.22688774585E+02 -0.24979497747E+02  0.13892391079E+02  0.36547973490E+02  0.20000091087E+01 0.  0.
        -13    1    3    3    0    0 -0.22688774585E+02  0.24979497747E+02  0.89901144211E+02  0.96025948026E+02  0.10566000000E+00 0.  1.
         13    1    4    4    0    0  0.16530880532E+02 -0.18463754566E+02  0.94186044574E+01  0.26512289939E+02  0.10566000000E+00 0. -1.
        -13    1    4    4    0    0  0.27466576076E+01 -0.25465587344E+01  0.17464612053E+01  0.41340513033E+01  0.10566000000E+00 0.  1.
         14    1    4    4    0    0  0.34112364461E+01 -0.39691844470E+01  0.27273254165E+01  0.59016322482E+01  0.00000000000E+00 0. -1.
<mgrwt>
<rscale>  0 0.82478765E+02</rscale>
<asrwt>0</asrwt>
<pdfrwt beam="1">  1        2 0.22138759E-02 0.82478765E+02</pdfrwt>
<pdfrwt beam="2">  1       -1 0.18182112E-01 0.82478765E+02</pdfrwt>
<totfact> 0.10582227E+05</totfact>
</mgrwt>
</event>
<event>
 8    1  0.1520917E-017  0.8055229E+02  0.7818608E-02  0.1327491E+00
          2   -1    0    0  501    0  0.00000000000E+00  0.00000000000E+00  0.84740435029E+02  0.84740435068E+02  0.25500000000E-02 0. -1.
         -1   -1    0    0    0  501 -0.00000000000E+00 -0.00000000000E+00 -0.19142782310E+02  0.19142782974E+02  0.50400000000E-02 0.  1.
         24    2    1    2    0    0 -0.35527136788E-14  0.35527136788E-14  0.65597652719E+02  0.10388321804E+03  0.80552287047E+02 0.  0.
         66    2    3    3    0    0 -0.19973763704E+02  0.19844010951E+02  0.69915434701E+02  0.75398302518E+02  0.20000014921E+01 0.  0.
        -13    1    3    3    0    0  0.19973763704E+02 -0.19844010951E+02 -0.43177819822E+01  0.28484915524E+02  0.10566000000E+00 0.  1.
         13    1    4    4    0    0 -0.88160788167E+01  0.86532066325E+01  0.31082265409E+02  0.33447266222E+02  0.10566000000E+00 0. -1.
        -13    1    4    4    0    0 -0.28432104565E+01  0.37915175117E+01  0.11666406936E+02  0.12592683017E+02  0.10566000000E+00 0.  1.
         14    1    4    4    0    0 -0.83144744311E+01  0.73992868066E+01  0.27166762356E+02  0.29358353279E+02  0.00000000000E+00 0. -1.
<mgrwt>
<rscale>  0 0.80552287E+02</rscale>
<asrwt>0</asrwt>
<pdfrwt beam="1">  1        2 0.13036990E-01 0.80552287E+02</pdfrwt>
<pdfrwt beam="2">  1       -1 0.29450436E-02 0.80552287E+02</pdfrwt>
<totfact> 0.16636180E+05</totfact>
</mgrwt>
</event>
<event>
 8    1  0.1520917E-017  0.8043610E+02  0.7818608E-02  0.1327818E+00
         -1   -1    0    0    0  501 -0.00000000000E+00  0.00000000000E+00  0.25668026591E+01  0.25668076072E+01  0.50400000000E-02 0.  1.
          2   -1    0    0  501    0  0.00000000000E+00 -0.00000000000E+00 -0.63015743875E+03  0.63015743876E+03  0.25500000000E-02 0. -1.
         24    2    1    2    0    0  0.71054273576E-14 -0.44408920985E-15 -0.62759063609E+03  0.63272424637E+03  0.80436095293E+02 0.  0.
         66    2    3    3    0    0  0.25034712378E+02 -0.37512556310E+01 -0.55956934643E+03  0.56014521528E+03  0.19999966888E+01 0.  0.
        -13    1    3    3    0    0 -0.25034712378E+02  0.37512556310E+01 -0.68021289660E+02  0.72579031088E+02  0.10566000000E+00 0.  1.
         13    1    4    4    0    0  0.44014536688E+01 -0.16988647911E+00 -0.91729197466E+02  0.91834952429E+02  0.10566000000E+00 0. -1.
        -13    1    4    4    0    0  0.88214780991E+00  0.73562054128E-01 -0.19198513011E+02  0.19219200347E+02  0.10566000000E+00 0.  1.
        -14    1    4    4    0    0  0.19751110899E+02 -0.36549312060E+01 -0.44864163596E+03  0.44909106250E+03  0.00000000000E+00 0.  1.
<mgrwt>
<rscale>  0 0.80436095E+02</rscale>
<asrwt>0</asrwt>
<pdfrwt beam="1">  1        2 0.96947175E-01 0.80436095E+02</pdfrwt>
<pdfrwt beam="2">  1       -1 0.39489360E-03 0.80436095E+02</pdfrwt>
<totfact> 0.32136483E+05</totfact>
</mgrwt>
</event>
<event>
 8    1  0.1520917E-017  0.7942756E+02  0.7818608E-02  0.1330684E+00
         -1   -1    0    0    0  501 -0.00000000000E+00  0.00000000000E+00  0.74226334606E+02  0.74226334777E+02  0.50400000000E-02 0.  1.
          2   -1    0    0  501    0  0.00000000000E+00 -0.00000000000E+00 -0.21248313772E+02  0.21248313925E+02  0.25500000000E-02 0. -1.
         24    2    1    2    0    0 -0.44408920985E-15  0.00000000000E+00  0.52978020834E+02  0.95474648703E+02  0.79427563562E+02 0.  0.
         66    2    3    3    0    0  0.35680802352E+01 -0.33123213378E+02  0.57687365219E+00  0.33379803095E+02  0.20000026095E+01 0.  0.
        -13    1    3    3    0    0 -0.35680802352E+01  0.33123213378E+02  0.52401147182E+02  0.62094845607E+02  0.10566000000E+00 0.  1.
         13    1    4    4    0    0  0.73040397314E+00 -0.59471339086E+01  0.44708997311E+00  0.60094047268E+01  0.10566000000E+00 0. -1.
        -13    1    4    4    0    0  0.15599798335E+01 -0.17342079548E+02 -0.63763703846E+00  0.17424092664E+02  0.10566000000E+00 0.  1.
        -14    1    4    4    0    0  0.12776964286E+01 -0.98339999210E+01  0.76742071754E+00  0.99463057045E+01  0.00000000000E+00 0.  1.
<mgrwt>
<rscale>  0 0.79427564E+02</rscale>
<asrwt>0</asrwt>
<pdfrwt beam="1">  1        2 0.32689713E-02 0.79427564E+02</pdfrwt>
<pdfrwt beam="2">  1       -1 0.11419436E-01 0.79427564E+02</pdfrwt>
<totfact> 0.12828619E+05</totfact>
</mgrwt>
</event>
<event>
 8    1  0.1520917E-017  0.8205581E+02  0.7818608E-02  0.1323317E+00
         -1   -1    0    0    0  501 -0.00000000000E+00  0.00000000000E+00  0.31590607989E+01  0.31590648193E+01  0.50400000000E-02 0.  1.
          2   -1    0    0  501    0  0.00000000000E+00 -0.00000000000E+00 -0.53284440175E+03  0.53284440175E+03  0.25500000000E-02 0. -1.
         24    2    1    2    0    0  0.00000000000E+00  0.00000000000E+00 -0.52968534095E+03  0.53600346657E+03  0.82055808828E+02 0.  0.
         66    2    3    3    0    0 -0.10429518493E+02 -0.29014795384E+02 -0.44156804960E+03  0.44264768793E+03  0.19999990128E+01 0.  0.
        -13    1    3    3    0    0  0.10429518493E+02  0.29014795384E+02 -0.88117291349E+02  0.93355778643E+02  0.10566000000E+00 0.  1.
         13    1    4    4    0    0 -0.43824099239E+01 -0.12727757078E+02 -0.18676368638E+03  0.18724819634E+03  0.10566000000E+00 0. -1.
        -13    1    4    4    0    0 -0.29970159580E+01 -0.77491589117E+01 -0.11225866074E+03  0.11256575697E+03  0.10566000000E+00 0.  1.
        -14    1    4    4    0    0 -0.30500926108E+01 -0.85378793946E+01 -0.14254570248E+03  0.14283373462E+03  0.00000000000E+00 0.  1.
<mgrwt>
<rscale>  0 0.82055809E+02</rscale>
<asrwt>0</asrwt>
<pdfrwt beam="1">  1        2 0.81975990E-01 0.82055809E+02</pdfrwt>
<pdfrwt beam="2">  1       -1 0.48601009E-03 0.82055809E+02</pdfrwt>
<totfact> 0.29073981E+05</totfact>
</mgrwt>
</event>
<event>
 8    1  0.1520917E-017  0.8026130E+02  0.7818608E-02  0.1328312E+00
         -1   -1    0    0    0  501 -0.00000000000E+00  0.00000000000E+00  0.78538716664E+02  0.78538716826E+02  0.50400000000E-02 0.  1.
          2   -1    0    0  501    0  0.00000000000E+00 -0.00000000000E+00 -0.20505417870E+02  0.20505418028E+02  0.25500000000E-02 0. -1.
         24    2    1    2    0    0  0.00000000000E+00 -0.35527136788E-14  0.58033298795E+02  0.99044134854E+02  0.80261303752E+02 0.  0.
         66    2    3    3    0    0 -0.35266192805E+02 -0.17162082317E+02  0.18693632059E+02  0.43493599597E+02  0.19999754960E+01 0.  0.
        -13    1    3    3    0    0  0.35266192805E+02  0.17162082317E+02  0.39339666736E+02  0.55550535257E+02  0.10566000000E+00 0.  1.
         13    1    4    4    0    0 -0.18127287778E+00 -0.12725025981E+00  0.88664120821E-02  0.24555067441E+00  0.10566000000E+00 0.  1.
        -13    1    4    4    0    0 -0.79117138974E+01 -0.37590327691E+01  0.43052033764E+01  0.97607112600E+01  0.10566000000E+00 0. -1.
         14    1    4    4    0    0 -0.27173206030E+02 -0.13275799288E+02  0.14379562270E+02  0.33487337663E+02  0.00000000000E+00 0. -1.
<mgrwt>
<rscale>  0 0.80261304E+02</rscale>
<asrwt>0</asrwt>
<pdfrwt beam="1">  1        2 0.31546797E-02 0.80261304E+02</pdfrwt>
<pdfrwt beam="2">  1       -1 0.12082880E-01 0.80261304E+02</pdfrwt>
<totfact> 0.12362267E+05</totfact>
</mgrwt>
</event>
<event>
 8    1  0.1520917E-017  0.7776904E+02  0.7818608E-02  0.1335504E+00
          2   -1    0    0  501    0  0.00000000000E+00  0.00000000000E+00  0.48655682783E+02  0.48655682850E+02  0.25500000000E-02 0. -1.
         -1   -1    0    0    0  501 -0.00000000000E+00 -0.00000000000E+00 -0.31075629520E+02  0.31075629929E+02  0.50400000000E-02 0.  1.
         24    2    1    2    0    0  0.00000000000E+00  0.00000000000E+00  0.17580053263E+02  0.79731312779E+02  0.77769042457E+02 0.  0.
         66    2    3    3    0    0  0.31781674832E+02  0.13169019683E+02  0.27321149105E+02  0.43976620125E+02  0.19999986798E+01 0.  0.
        -13    1    3    3    0    0 -0.31781674832E+02 -0.13169019683E+02 -0.97410958420E+01  0.35754692653E+02  0.10566000000E+00 0.  1.
         13    1    4    4    0    0  0.11965055337E+02  0.45451997111E+01  0.10540893186E+02  0.16581404731E+02  0.10566000000E+00 0. -1.
        -13    1    4    4    0    0  0.11177274128E+02  0.55197640260E+01  0.10034390007E+02  0.16003105907E+02  0.10566000000E+00 0.  1.
        -14    1    4    4    0    0  0.86393453664E+01  0.31040559455E+01  0.67458659115E+01  0.11392109487E+02  0.00000000000E+00 0.  1.
<mgrwt>
<rscale>  0 0.77769042E+02</rscale>
<asrwt>0</asrwt>
<pdfrwt beam="1">  1        2 0.74854897E-02 0.77769042E+02</pdfrwt>
<pdfrwt beam="2">  1       -1 0.47808661E-02 0.77769042E+02</pdfrwt>
<totfact> 0.16050397E+05</totfact>
</mgrwt>
</event>
<event>
 8    1  0.1520917E-017  0.7400883E+02  0.7818608E-02  0.1346968E+00
          2   -1    0    0  501    0  0.00000000000E+00  0.00000000000E+00  0.10687025215E+03  0.10687025218E+03  0.25500000000E-02 0. -1.
         -1   -1    0    0    0  501 -0.00000000000E+00 -0.00000000000E+00 -0.12812983190E+02  0.12812984181E+02  0.50400000000E-02 0.  1.
         24    2    1    2    0    0  0.00000000000E+00  0.00000000000E+00  0.94057268956E+02  0.11968323636E+03  0.74008832051E+02 0.  0.
         66    2    3    3    0    0 -0.67309951854E+01  0.34443855501E+02  0.65896685674E+02  0.74686402105E+02  0.19999996363E+01 0.  0.
        -13    1    3    3    0    0  0.67309951854E+01 -0.34443855501E+02  0.28160583282E+02  0.44996834252E+02  0.10566000000E+00 0.  1.
         13    1    4    4    0    0 -0.26486077040E+01  0.14047889720E+02  0.28815368833E+02  0.32166674888E+02  0.10566000000E+00 0. -1.
        -13    1    4    4    0    0 -0.39767459416E+01  0.19377962242E+02  0.35334803515E+02  0.40495424833E+02  0.10566000000E+00 0.  1.
        -14    1    4    4    0    0 -0.10564153980E+00  0.10180035387E+01  0.17465133270E+01  0.20243023838E+01  0.00000000000E+00 0.  1.
<mgrwt>
<rscale>  0 0.74008832E+02</rscale>
<asrwt>0</asrwt>
<pdfrwt beam="1">  1        2 0.16441577E-01 0.74008832E+02</pdfrwt>
<pdfrwt beam="2">  1       -1 0.19712282E-02 0.74008832E+02</pdfrwt>
<totfact> 0.22219911E+05</totfact>
</mgrwt>
</event>
<event>
 8    1  0.1520917E-017  0.8088950E+02  0.7818608E-02  0.1326546E+00
          2   -1    0    0  501    0  0.00000000000E+00  0.00000000000E+00  0.21387702368E+02  0.21387702520E+02  0.25500000000E-02 0. -1.
         -1   -1    0    0    0  501 -0.00000000000E+00 -0.00000000000E+00 -0.76482169347E+02  0.76482169513E+02  0.50400000000E-02 0.  1.
         24    2    1    2    0    0  0.00000000000E+00 -0.17763568394E-14 -0.55094466978E+02  0.97869872033E+02  0.80889502163E+02 0.  0.
         66    2    3    3    0    0  0.37611954872E+02 -0.14245226101E+02 -0.22696097938E+02  0.46224435676E+02  0.19999939944E+01 0.  0.
        -13    1    3    3    0    0 -0.37611954872E+02  0.14245226101E+02 -0.32398369040E+02  0.51645436357E+02  0.10566000000E+00 0.  1.
         13    1    4    4    0    0  0.25908378043E+02 -0.10466041115E+02 -0.15653638861E+02  0.32028575414E+02  0.10566000000E+00 0. -1.
        -13    1    4    4    0    0  0.11496046485E+02 -0.36618849527E+01 -0.70128714226E+01  0.13955644586E+02  0.10566000000E+00 0.  1.
        -14    1    4    4    0    0  0.20753034386E+00 -0.11730003292E+00 -0.29587654761E-01  0.24021567530E+00  0.00000000000E+00 0.  1.
<mgrwt>
<rscale>  0 0.80889502E+02</rscale>
<asrwt>0</asrwt>
<pdfrwt beam="1">  1        2 0.32904158E-02 0.80889502E+02</pdfrwt>
<pdfrwt beam="2">  1       -1 0.11766488E-01 0.80889502E+02</pdfrwt>
<totfact> 0.12192362E+05</totfact>
</mgrwt>
</event>
<event>
 8    1  0.1520917E-017  0.8035844E+02  0.7818608E-02  0.1328037E+00
         -1   -1    0    0    0  501 -0.00000000000E+00  0.00000000000E+00  0.59046675343E+01  0.59046696853E+01  0.50400000000E-02 0.  1.
          2   -1    0    0  501    0  0.00000000000E+00 -0.00000000000E+00 -0.27340564842E+03  0.27340564843E+03  0.25500000000E-02 0. -1.
         24    2    1    2    0    0  0.00000000000E+00 -0.35527136788E-14 -0.26750098089E+03  0.27931031812E+03  0.80358440950E+02 0.  0.
         66    2    3    3    0    0  0.44681737309E+01 -0.29060526921E+02 -0.22888771710E+03  0.23077709130E+03  0.20000064972E+01 0.  0.
        -13    1    3    3    0    0 -0.44681737309E+01  0.29060526921E+02 -0.38613263781E+02  0.48533226817E+02  0.10566000000E+00 0.  1.
         13    1    4    4    0    0  0.24930686451E+01 -0.11768871986E+02 -0.95535270949E+02  0.96289775670E+02  0.10566000000E+00 0. -1.
        -13    1    4    4    0    0  0.15768074710E+00 -0.52766310325E+01 -0.39294072539E+02  0.39647231922E+02  0.10566000000E+00 0.  1.
        -14    1    4    4    0    0  0.18174243387E+01 -0.12015023903E+02 -0.94058373616E+02  0.94840083709E+02  0.00000000000E+00 0.  1.
<mgrwt>
<rscale>  0 0.80358441E+02</rscale>
<asrwt>0</asrwt>
<pdfrwt beam="1">  1        2 0.42062398E-01 0.80358441E+02</pdfrwt>
<pdfrwt beam="2">  1       -1 0.90841077E-03 0.80358441E+02</pdfrwt>
<totfact> 0.24363776E+05</totfact>
</mgrwt>
</event>
<event>
 8    1  0.1520917E-017  0.8863937E+02  0.7818608E-02  0.1306181E+00
          2   -1    0    0  501    0  0.00000000000E+00  0.00000000000E+00  0.33333102218E+03  0.33333102219E+03  0.25500000000E-02 0. -1.
         -1   -1    0    0    0  501 -0.00000000000E+00 -0.00000000000E+00 -0.58927431893E+01  0.58927453446E+01  0.50400000000E-02 0.  1.
         24    2    1    2    0    0  0.00000000000E+00  0.17763568394E-14  0.32743827899E+03  0.33922376753E+03  0.88639369988E+02 0.  0.
         66    2    3    3    0    0  0.41776892350E+02  0.14011539230E+02  0.18117091326E+03  0.18646321828E+03  0.19999986373E+01 0.  0.
        -13    1    3    3    0    0 -0.41776892350E+02 -0.14011539230E+02  0.14626736573E+03  0.15276054925E+03  0.10566000000E+00 0.  1.
         13    1    4    4    0    0  0.11393580084E+02  0.42861456511E+01  0.50203201438E+02  0.51658080784E+02  0.10566000000E+00 0. -1.
        -13    1    4    4    0    0  0.14993834476E+02  0.51524525009E+01  0.67810027500E+02  0.69638881616E+02  0.10566000000E+00 0.  1.
        -14    1    4    4    0    0  0.15389477791E+02  0.45729410784E+01  0.63157684323E+02  0.65166255883E+02  0.00000000000E+00 0.  1.
<mgrwt>
<rscale>  0 0.88639370E+02</rscale>
<asrwt>0</asrwt>
<pdfrwt beam="1">  1        2 0.51281683E-01 0.88639370E+02</pdfrwt>
<pdfrwt beam="2">  1       -1 0.90657627E-03 0.88639370E+02</pdfrwt>
<totfact> 0.20219421E+05</totfact>
</mgrwt>
</event>
<event>
 8    1  0.1520917E-017  0.8606717E+02  0.7818608E-02  0.1312665E+00
          2   -1    0    0  501    0  0.00000000000E+00  0.00000000000E+00  0.23183308229E+03  0.23183308230E+03  0.25500000000E-02 0. -1.
         -1   -1    0    0    0  501 -0.00000000000E+00 -0.00000000000E+00 -0.79880292473E+01  0.79880308373E+01  0.50400000000E-02 0.  1.
         24    2    1    2    0    0 -0.71054273576E-14  0.17763568394E-14  0.22384505304E+03  0.23982111314E+03  0.86067174559E+02 0.  0.
         66    2    3    3    0    0  0.35554048259E+02 -0.11854385704E+02  0.17078051721E+03  0.17485594605E+03  0.20000005800E+01 0.  0.
        -13    1    3    3    0    0 -0.35554048259E+02  0.11854385704E+02  0.53064535829E+02  0.64965167088E+02  0.10566000000E+00 0.  1.
         13    1    4    4    0    0  0.24208781708E+02 -0.76790210318E+01  0.11747324480E+03  0.12018738238E+03  0.10566000000E+00 0. -1.
        -13    1    4    4    0    0  0.10741102716E+01 -0.57805430122E+00  0.45853975301E+01  0.47460398434E+01  0.10566000000E+00 0.  1.
        -14    1    4    4    0    0  0.10271156279E+02 -0.35973103710E+01  0.48721874887E+02  0.49922523832E+02  0.00000000000E+00 0.  1.
<mgrwt>
<rscale>  0 0.86067175E+02</rscale>
<asrwt>0</asrwt>
<pdfrwt beam="1">  1        2 0.35666626E-01 0.86067175E+02</pdfrwt>
<pdfrwt beam="2">  1       -1 0.12289278E-02 0.86067175E+02</pdfrwt>
<totfact> 0.19153827E+05</totfact>
</mgrwt>
</event>
<event>
 8    1  0.1520917E-017  0.7739582E+02  0.7818608E-02  0.1336608E+00
          2   -1    0    0  501    0  0.00000000000E+00  0.00000000000E+00  0.39398135118E+03  0.39398135119E+03  0.25500000000E-02 0. -1.
         -1   -1    0    0    0  501 -0.00000000000E+00 -0.00000000000E+00 -0.38010115103E+01  0.38010148517E+01  0.50400000000E-02 0.  1.
         24    2    1    2    0    0  0.00000000000E+00 -0.71054273576E-14  0.39018033967E+03  0.39778236604E+03  0.77395822029E+02 0.  0.
         66    2    3    3    0    0 -0.77978594735E+00 -0.38255644704E+02  0.16641043794E+03  0.17076456387E+03  0.20000001206E+01 0.  0.
        -13    1    3    3    0    0  0.77978594735E+00  0.38255644704E+02  0.22376990173E+03  0.22701780217E+03  0.10566000000E+00 0.  1.
         13    1    4    4    0    0 -0.41532948056E+00 -0.13077543153E+02  0.53893019751E+02  0.55458663664E+02  0.10566000000E+00 0. -1.
        -13    1    4    4    0    0  0.28544276376E+00 -0.16145339029E+02  0.71752074580E+02  0.73546752617E+02  0.10566000000E+00 0.  1.
         14    1    4    4    0    0 -0.64989923054E+00 -0.90327625222E+01  0.40765343609E+02  0.41759147589E+02  0.00000000000E+00 0. -1.
<mgrwt>
<rscale>  0 0.77395822E+02</rscale>
<asrwt>0</asrwt>
<pdfrwt beam="1">  1        2 0.60612477E-01 0.77395822E+02</pdfrwt>
<pdfrwt beam="2">  1       -1 0.58477164E-03 0.77395822E+02</pdfrwt>
<totfact> 0.30637747E+05</totfact>
</mgrwt>
</event>
<event>
 8    1  0.1520917E-017  0.8086043E+02  0.7818608E-02  0.1326627E+00
          2   -1    0    0  501    0  0.00000000000E+00  0.00000000000E+00  0.93761214388E+02  0.93761214423E+02  0.25500000000E-02 0. -1.
         -1   -1    0    0    0  501 -0.00000000000E+00 -0.00000000000E+00 -0.17433673680E+02  0.17433674409E+02  0.50400000000E-02 0.  1.
         24    2    1    2    0    0  0.00000000000E+00  0.00000000000E+00  0.76327540708E+02  0.11119488883E+03  0.80860434278E+02 0.  0.
         66    2    3    3    0    0 -0.16942580124E+02  0.36419526982E+02  0.44207069446E+02  0.59763684248E+02  0.19999997439E+01 0.  0.
        -13    1    3    3    0    0  0.16942580124E+02 -0.36419526982E+02  0.32120471262E+02  0.51431204584E+02  0.10566000000E+00 0.  1.
         13    1    4    4    0    0 -0.29500214209E+01  0.75409796713E+01  0.93241917142E+01  0.12349927771E+02  0.10566000000E+00 0. -1.
        -13    1    4    4    0    0 -0.27168781138E+01  0.55923478858E+01  0.74720154755E+01  0.97210061651E+01  0.10566000000E+00 0.  1.
        -14    1    4    4    0    0 -0.11275680589E+02  0.23286199425E+02  0.27410862257E+02  0.37692750312E+02  0.00000000000E+00 0.  1.
<mgrwt>
<rscale>  0 0.80860434E+02</rscale>
<asrwt>0</asrwt>
<pdfrwt beam="1">  1        2 0.14424802E-01 0.80860434E+02</pdfrwt>
<pdfrwt beam="2">  1       -1 0.26821037E-02 0.80860434E+02</pdfrwt>
<totfact> 0.16919804E+05</totfact>
</mgrwt>
</event>
<event>
 8    1  0.1520917E-017  0.7913615E+02  0.7818608E-02  0.1331521E+00
          2   -1    0    0  501    0  0.00000000000E+00  0.00000000000E+00  0.93642848885E+02  0.93642848920E+02  0.25500000000E-02 0. -1.
         -1   -1    0    0    0  501 -0.00000000000E+00 -0.00000000000E+00 -0.16719189942E+02  0.16719190702E+02  0.50400000000E-02 0.  1.
         24    2    1    2    0    0  0.00000000000E+00  0.00000000000E+00  0.76923658943E+02  0.11036203962E+03  0.79136151564E+02 0.  0.
         66    2    3    3    0    0 -0.13058352697E+02  0.98298619283E+01  0.88700678437E+02  0.90216168757E+02  0.19999973380E+01 0.  0.
        -13    1    3    3    0    0  0.13058352697E+02 -0.98298619283E+01 -0.11777019494E+02  0.20145870864E+02  0.10566000000E+00 0.  1.
         13    1    4    4    0    0 -0.16632142804E+01  0.17069795296E+01  0.15223640355E+02  0.15409427327E+02  0.10566000000E+00 0. -1.
        -13    1    4    4    0    0 -0.13495762020E+01  0.60871086528E+00  0.68491928522E+01  0.70081732003E+01  0.10566000000E+00 0.  1.
         14    1    4    4    0    0 -0.10045562214E+02  0.75141715335E+01  0.66627845230E+02  0.67798568230E+02  0.00000000000E+00 0. -1.
<mgrwt>
<rscale>  0 0.79136152E+02</rscale>
<asrwt>0</asrwt>
<pdfrwt beam="1">  1        2 0.14406592E-01 0.79136152E+02</pdfrwt>
<pdfrwt beam="2">  1       -1 0.25721832E-02 0.79136152E+02</pdfrwt>
<totfact> 0.17921133E+05</totfact>
</mgrwt>
</event>
<event>
 8    1  0.1520917E-017  0.8054931E+02  0.7818608E-02  0.1327500E+00
          2   -1    0    0  501    0  0.00000000000E+00  0.00000000000E+00  0.11532430352E+02  0.11532430634E+02  0.25500000000E-02 0. -1.
         -1   -1    0    0    0  501 -0.00000000000E+00 -0.00000000000E+00 -0.14065099159E+03  0.14065099168E+03  0.50400000000E-02 0.  1.
         24    2    1    2    0    0  0.17763568394E-14 -0.35527136788E-14 -0.12911856124E+03  0.15218342232E+03  0.80549308944E+02 0.  0.
         66    2    3    3    0    0  0.13645470791E+02 -0.21416382262E+02 -0.55994497683E+01  0.26080914947E+02  0.19999961139E+01 0.  0.
        -13    1    3    3    0    0 -0.13645470791E+02  0.21416382262E+02 -0.12351911147E+03  0.12610250737E+03  0.10566000000E+00 0.  1.
         13    1    4    4    0    0  0.39782693191E+01 -0.51111992059E+01 -0.19317569856E+01  0.67597213836E+01  0.10566000000E+00 0. -1.
        -13    1    4    4    0    0  0.85532758839E+01 -0.14697388158E+02 -0.31116635181E+01  0.17287722837E+02  0.10566000000E+00 0.  1.
        -14    1    4    4    0    0  0.11139255881E+01 -0.16077948980E+01 -0.55602926465E+00  0.20334707259E+01  0.00000000000E+00 0.  1.
<mgrwt>
<rscale>  0 0.80549309E+02</rscale>
<asrwt>0</asrwt>
<pdfrwt beam="1">  1        2 0.17742202E-02 0.80549309E+02</pdfrwt>
<pdfrwt beam="2">  1       -1 0.21638613E-01 0.80549309E+02</pdfrwt>
<totfact> 0.10775116E+05</totfact>
</mgrwt>
</event>
<event>
 8    1  0.1520917E-017  0.8023693E+02  0.7818608E-02  0.1328380E+00
         -1   -1    0    0    0  501 -0.00000000000E+00  0.00000000000E+00  0.10945711464E+02  0.10945712624E+02  0.50400000000E-02 0.  1.
          2   -1    0    0  501    0  0.00000000000E+00 -0.00000000000E+00 -0.14704307629E+03  0.14704307631E+03  0.25500000000E-02 0. -1.
         24    2    1    2    0    0  0.00000000000E+00 -0.17763568394E-14 -0.13609736482E+03  0.15798878894E+03  0.80236928636E+02 0.  0.
         66    2    3    3    0    0  0.35341484038E+02 -0.10282489905E+02 -0.36787867763E+02  0.52077800538E+02  0.20000004087E+01 0.  0.
        -13    1    3    3    0    0 -0.35341484038E+02  0.10282489905E+02 -0.99309497061E+02  0.10591098840E+03  0.10566000000E+00 0.  1.
         13    1    4    4    0    0  0.32320807997E+02 -0.96753487780E+01 -0.33668437729E+02  0.47663632538E+02  0.10566000000E+00 0. -1.
        -13    1    4    4    0    0  0.22843663505E+00 -0.97614304272E-01 -0.40541719746E+00  0.48707185119E+00  0.10566000000E+00 0. -1.
        -14    1    4    4    0    0  0.27922394064E+01 -0.50952682252E+00 -0.27140128366E+01  0.39270961489E+01  0.00000000000E+00 0.  1.
<mgrwt>
<rscale>  0 0.80236929E+02</rscale>
<asrwt>0</asrwt>
<pdfrwt beam="1">  1        2 0.22622010E-01 0.80236929E+02</pdfrwt>
<pdfrwt beam="2">  1       -1 0.16839558E-02 0.80236929E+02</pdfrwt>
<totfact> 0.19746653E+05</totfact>
</mgrwt>
</event>
<event>
 8    1  0.1520917E-017  0.8003479E+02  0.7818608E-02  0.1328953E+00
         -1   -1    0    0    0  501 -0.00000000000E+00  0.00000000000E+00  0.35229966405E+01  0.35230002456E+01  0.50400000000E-02 0.  1.
          2   -1    0    0  501    0  0.00000000000E+00 -0.00000000000E+00 -0.45455368770E+03  0.45455368771E+03  0.25500000000E-02 0. -1.
         24    2    1    2    0    0  0.00000000000E+00 -0.35527136788E-14 -0.45103069106E+03  0.45807668795E+03  0.80034790986E+02 0.  0.
         66    2    3    3    0    0  0.14070614394E+02 -0.21585151420E+02 -0.40071219131E+03  0.40154471883E+03  0.20000022297E+01 0.  0.
        -13    1    3    3    0    0 -0.14070614394E+02  0.21585151420E+02 -0.50318499754E+02  0.56531969122E+02  0.10566000000E+00 0.  1.
         13    1    4    4    0    0  0.64671561456E+01 -0.90839533841E+01 -0.16810171543E+03  0.16847118511E+03  0.10566000000E+00 0.  1.
        -13    1    4    4    0    0  0.72108585366E+01 -0.11382220350E+02 -0.21713954446E+03  0.21755722087E+03  0.10566000000E+00 0. -1.
         14    1    4    4    0    0  0.39259971184E+00 -0.11189776864E+01 -0.15470931422E+02  0.15516312857E+02  0.00000000000E+00 0. -1.
<mgrwt>
<rscale>  0 0.80034791E+02</rscale>
<asrwt>0</asrwt>
<pdfrwt beam="1">  1        2 0.69931290E-01 0.80034791E+02</pdfrwt>
<pdfrwt beam="2">  1       -1 0.54200012E-03 0.80034791E+02</pdfrwt>
<totfact> 0.29484401E+05</totfact>
</mgrwt>
</event>
<event>
 8    1  0.1520917E-017  0.8006422E+02  0.7818608E-02  0.1328869E+00
          2   -1    0    0  501    0  0.00000000000E+00  0.00000000000E+00  0.16107199671E+02  0.16107199873E+02  0.25500000000E-02 0. -1.
         -1   -1    0    0    0  501 -0.00000000000E+00 -0.00000000000E+00 -0.99494003633E+02  0.99494003760E+02  0.50400000000E-02 0.  1.
         24    2    1    2    0    0  0.00000000000E+00  0.00000000000E+00 -0.83386803962E+02  0.11560120363E+03  0.80064219264E+02 0.  0.
         66    2    3    3    0    0 -0.24568868377E+02  0.18464445612E+02 -0.47385943148E+01  0.31161182968E+02  0.20000007047E+01 0.  0.
        -13    1    3    3    0    0  0.24568868377E+02 -0.18464445612E+02 -0.78648209647E+02  0.84440020664E+02  0.10566000000E+00 0.  1.
         13    1    4    4    0    0 -0.28449954862E+01  0.27882903346E+01 -0.75662941430E+00  0.40561329383E+01  0.10566000000E+00 0. -1.
        -13    1    4    4    0    0 -0.12138245098E+02  0.81089151550E+01 -0.22355752550E+01  0.14768224667E+02  0.10566000000E+00 0.  1.
         14    1    4    4    0    0 -0.95856277932E+01  0.75672401220E+01 -0.17463896455E+01  0.12336825363E+02  0.00000000000E+00 0. -1.
<mgrwt>
<rscale>  0 0.80064219E+02</rscale>
<asrwt>0</asrwt>
<pdfrwt beam="1">  1        2 0.24780308E-02 0.80064219E+02</pdfrwt>
<pdfrwt beam="2">  1       -1 0.15306770E-01 0.80064219E+02</pdfrwt>
<totfact> 0.11842177E+05</totfact>
</mgrwt>
</event>
<event>
 8    1  0.1520917E-017  0.8061796E+02  0.7818608E-02  0.1327307E+00
          2   -1    0    0  501    0  0.00000000000E+00  0.00000000000E+00  0.22881764897E+03  0.22881764899E+03  0.25500000000E-02 0. -1.
         -1   -1    0    0    0  501 -0.00000000000E+00 -0.00000000000E+00 -0.71009101128E+01  0.71009119014E+01  0.50400000000E-02 0.  1.
         24    2    1    2    0    0  0.88817841970E-15  0.00000000000E+00  0.22171673886E+03  0.23591856089E+03  0.80617957559E+02 0.  0.
         66    2    3    3    0    0  0.59050258571E+01  0.22959881435E+02  0.20623754629E+03  0.20760527686E+03  0.19999983928E+01 0.  0.
        -13    1    3    3    0    0 -0.59050258571E+01 -0.22959881435E+02  0.15479192567E+02  0.28313284027E+02  0.10566000000E+00 0.  1.
         13    1    4    4    0    0  0.21190622012E+01  0.60156678617E+01  0.60186916236E+02  0.60524001309E+02  0.10566000000E+00 0. -1.
        -13    1    4    4    0    0  0.17802921717E+01  0.78279224040E+01  0.64150650633E+02  0.64651086225E+02  0.10566000000E+00 0.  1.
        -14    1    4    4    0    0  0.20056714842E+01  0.91162911688E+01  0.81899979424E+02  0.82430189326E+02  0.00000000000E+00 0.  1.
<mgrwt>
<rscale>  0 0.80617958E+02</rscale>
<asrwt>0</asrwt>
<pdfrwt beam="1">  1        2 0.35202713E-01 0.80617958E+02</pdfrwt>
<pdfrwt beam="2">  1       -1 0.10924479E-02 0.80617958E+02</pdfrwt>
<totfact> 0.22662619E+05</totfact>
</mgrwt>
</event>
<event>
 8    1  0.1520917E-017  0.7992078E+02  0.7818608E-02  0.1329276E+00
         -1   -1    0    0    0  501 -0.00000000000E+00  0.00000000000E+00  0.40307429741E+02  0.40307430056E+02  0.50400000000E-02 0.  1.
          2   -1    0    0  501    0  0.00000000000E+00 -0.00000000000E+00 -0.39616338489E+02  0.39616338571E+02  0.25500000000E-02 0. -1.
         24    2    1    2    0    0  0.00000000000E+00  0.35527136788E-14  0.69109125223E+00  0.79923768627E+02  0.79920780679E+02 0.  0.
         66    2    3    3    0    0 -0.53650525520E+01  0.19190593250E+02 -0.34264277057E+02  0.39687571045E+02  0.19999887662E+01 0.  0.
        -13    1    3    3    0    0  0.53650525520E+01 -0.19190593250E+02  0.34955368309E+02  0.40236197582E+02  0.10566000000E+00 0.  1.
         13    1    4    4    0    0 -0.30281689223E+01  0.10168519402E+02 -0.19488840695E+02  0.22189967767E+02  0.10566000000E+00 0. -1.
        -13    1    4    4    0    0 -0.43860341191E+00  0.13361892203E+01 -0.16623414966E+01  0.21799811633E+01  0.10566000000E+00 0.  1.
         14    1    4    4    0    0 -0.18982802178E+01  0.76858846273E+01 -0.13113094866E+02  0.15317622114E+02  0.00000000000E+00 0. -1.
<mgrwt>
<rscale>  0 0.79920781E+02</rscale>
<asrwt>0</asrwt>
<pdfrwt beam="1">  1        2 0.60948213E-02 0.79920781E+02</pdfrwt>
<pdfrwt beam="2">  1       -1 0.62011431E-02 0.79920781E+02</pdfrwt>
<totfact> 0.14266094E+05</totfact>
</mgrwt>
</event>
<event>
 8    1  0.1520917E-017  0.7826526E+02  0.7818608E-02  0.1334048E+00
          2   -1    0    0  501    0  0.00000000000E+00  0.00000000000E+00  0.13642916279E+04  0.13642916279E+04  0.25500000000E-02 0. -1.
         -1   -1    0    0    0  501 -0.00000000000E+00 -0.00000000000E+00 -0.11224543375E+01  0.11224656527E+01  0.50400000000E-02 0.  1.
         24    2    1    2    0    0  0.00000000000E+00  0.00000000000E+00  0.13631691735E+04  0.13654140935E+04  0.78265261308E+02 0.  0.
         66    2    3    3    0    0 -0.13080597603E+02 -0.47015812897E+01  0.13197382471E+04  0.13198129594E+04  0.19999984866E+01 0.  0.
        -13    1    3    3    0    0  0.13080597603E+02  0.47015812897E+01  0.43430926422E+02  0.45601134132E+02  0.10566000000E+00 0.  1.
         13    1    4    4    0    0 -0.74992631630E+00  0.14720264274E-01  0.65895249164E+02  0.65899602674E+02  0.10566000000E+00 0. -1.
        -13    1    4    4    0    0 -0.18431952682E+01 -0.45794459818E+00  0.22720804857E+03  0.22721601083E+03  0.10566000000E+00 0.  1.
         14    1    4    4    0    0 -0.10487476018E+02 -0.42583569557E+01  0.10266349494E+04  0.10266973459E+04  0.00000000000E+00 0. -1.
<mgrwt>
<rscale>  0 0.78265261E+02</rscale>
<asrwt>0</asrwt>
<pdfrwt beam="1">  1        2 0.20989182E+00 0.78265261E+02</pdfrwt>
<pdfrwt beam="2">  1       -1 0.17268550E-03 0.78265261E+02</pdfrwt>
<totfact> 0.36253100E+05</totfact>
</mgrwt>
</event>
<event>
 8    1  0.1520917E-017  0.7990566E+02  0.7818608E-02  0.1329319E+00
         -1   -1    0    0    0  501 -0.00000000000E+00  0.00000000000E+00  0.13100278631E+03  0.13100278641E+03  0.50400000000E-02 0.  1.
          2   -1    0    0  501    0  0.00000000000E+00 -0.00000000000E+00 -0.12184690524E+02  0.12184690791E+02  0.25500000000E-02 0. -1.
         24    2    1    2    0    0  0.71054273576E-14  0.00000000000E+00  0.11881809579E+03  0.14318747720E+03  0.79905655247E+02 0.  0.
         66    2    3    3    0    0  0.39065191178E+02  0.15988442979E+00  0.44657497177E+02  0.59366714408E+02  0.20000001834E+01 0.  0.
        -13    1    3    3    0    0 -0.39065191178E+02 -0.15988442979E+00  0.74160598610E+02  0.83820762792E+02  0.10566000000E+00 0.  1.
         13    1    4    4    0    0  0.16844956621E+02  0.91666778523E-01  0.20621994374E+02  0.26627782152E+02  0.10566000000E+00 0. -1.
        -13    1    4    4    0    0  0.15137025757E+02 -0.53698822611E-01  0.16762173722E+02  0.22585704865E+02  0.10566000000E+00 0.  1.
        -14    1    4    4    0    0  0.70832087997E+01  0.12191647388E+00  0.72733290819E+01  0.10153227391E+02  0.00000000000E+00 0.  1.
<mgrwt>
<rscale>  0 0.79905655E+02</rscale>
<asrwt>0</asrwt>
<pdfrwt beam="1">  1        2 0.18745678E-02 0.79905655E+02</pdfrwt>
<pdfrwt beam="2">  1       -1 0.20154275E-01 0.79905655E+02</pdfrwt>
<totfact> 0.11186509E+05</totfact>
</mgrwt>
</event>
<event>
 8    1  0.1520917E-017  0.7955671E+02  0.7818608E-02  0.1330314E+00
          2   -1    0    0  501    0  0.00000000000E+00  0.00000000000E+00  0.17056199226E+03  0.17056199228E+03  0.25500000000E-02 0. -1.
         -1   -1    0    0    0  501 -0.00000000000E+00 -0.00000000000E+00 -0.92770819670E+01  0.92770833360E+01  0.50400000000E-02 0.  1.
         24    2    1    2    0    0  0.00000000000E+00  0.00000000000E+00  0.16128491029E+03  0.17983907562E+03  0.79556714549E+02 0.  0.
         66    2    3    3    0    0  0.35359078159E+01  0.11838114358E+02  0.16610569447E+03  0.16657654495E+03  0.19999989257E+01 0.  0.
        -13    1    3    3    0    0 -0.35359078159E+01 -0.11838114358E+02 -0.48207841756E+01  0.13262530669E+02  0.10566000000E+00 0.  1.
         13    1    4    4    0    0  0.19002275163E+01  0.66560607021E+01  0.85286173955E+02  0.85566679499E+02  0.10566000000E+00 0. -1.
        -13    1    4    4    0    0  0.37837514228E+00  0.26183306162E+01  0.33652514168E+02  0.33756505992E+02  0.10566000000E+00 0.  1.
         14    1    4    4    0    0  0.12573051573E+01  0.25637230399E+01  0.47167006348E+02  0.47253359456E+02  0.00000000000E+00 0. -1.
<mgrwt>
<rscale>  0 0.79556715E+02</rscale>
<asrwt>0</asrwt>
<pdfrwt beam="1">  1        2 0.26240307E-01 0.79556715E+02</pdfrwt>
<pdfrwt beam="2">  1       -1 0.14272435E-02 0.79556715E+02</pdfrwt>
<totfact> 0.21201750E+05</totfact>
</mgrwt>
</event>
<event>
 8    1  0.1520917E-017  0.7947692E+02  0.7818608E-02  0.1330542E+00
          2   -1    0    0  501    0  0.00000000000E+00  0.00000000000E+00  0.51036397761E+01  0.51036404132E+01  0.25500000000E-02 0. -1.
         -1   -1    0    0    0  501 -0.00000000000E+00 -0.00000000000E+00 -0.30941544996E+03  0.30941545000E+03  0.50400000000E-02 0.  1.
         24    2    1    2    0    0  0.00000000000E+00  0.00000000000E+00 -0.30431181018E+03  0.31451909041E+03  0.79476917514E+02 0.  0.
         66    2    3    3    0    0  0.14080088432E+02  0.34697692819E+02 -0.20459721667E+03  0.20800528802E+03  0.19999993062E+01 0.  0.
        -13    1    3    3    0    0 -0.14080088432E+02 -0.34697692819E+02 -0.99714593516E+02  0.10651380240E+03  0.10566000000E+00 0.  1.
         13    1    4    4    0    0  0.18474264110E+01  0.49054046009E+01 -0.27058640145E+02  0.27561878550E+02  0.10566000000E+00 0. -1.
        -13    1    4    4    0    0  0.83287776857E+01  0.21943915597E+02 -0.13122535187E+03  0.13330794465E+03  0.10566000000E+00 0.  1.
        -14    1    4    4    0    0  0.39038843348E+01  0.78483726213E+01 -0.46313224649E+02  0.47135464812E+02  0.00000000000E+00 0.  1.
<mgrwt>
<rscale>  0 0.79476918E+02</rscale>
<asrwt>0</asrwt>
<pdfrwt beam="1">  1        2 0.78517564E-03 0.79476918E+02</pdfrwt>
<pdfrwt beam="2">  1       -1 0.47602363E-01 0.79476918E+02</pdfrwt>
<totfact> 0.86791352E+04</totfact>
</mgrwt>
</event>
<event>
 8    1  0.1520917E-017  0.7952602E+02  0.7818608E-02  0.1330402E+00
          2   -1    0    0  501    0  0.00000000000E+00  0.00000000000E+00  0.11678597976E+03  0.11678597979E+03  0.25500000000E-02 0. -1.
         -1   -1    0    0    0  501 -0.00000000000E+00 -0.00000000000E+00 -0.13538412310E+02  0.13538413248E+02  0.50400000000E-02 0.  1.
         24    2    1    2    0    0  0.00000000000E+00 -0.35527136788E-14  0.10324756745E+03  0.13032439304E+03  0.79526016095E+02 0.  0.
         66    2    3    3    0    0 -0.56855314777E+01  0.21450768437E+02  0.10567671315E+03  0.10800013162E+03  0.19999986414E+01 0.  0.
        -13    1    3    3    0    0  0.56855314777E+01 -0.21450768437E+02 -0.24291456974E+01  0.22324261412E+02  0.10566000000E+00 0.  1.
         13    1    4    4    0    0 -0.37076839953E+01  0.11930629920E+02  0.60000190977E+02  0.61287200395E+02  0.10566000000E+00 0. -1.
        -13    1    4    4    0    0 -0.19605397639E+01  0.74552457803E+01  0.36899544224E+02  0.37696311939E+02  0.10566000000E+00 0.  1.
        -14    1    4    4    0    0 -0.17307718563E-01  0.20648927360E+01  0.87769779465E+01  0.90166192911E+01  0.00000000000E+00 0.  1.
<mgrwt>
<rscale>  0 0.79526016E+02</rscale>
<asrwt>0</asrwt>
<pdfrwt beam="1">  1        2 0.17967073E-01 0.79526016E+02</pdfrwt>
<pdfrwt beam="2">  1       -1 0.20828328E-02 0.79526016E+02</pdfrwt>
<totfact> 0.18832335E+05</totfact>
</mgrwt>
</event>
<event>
 8    1  0.1520917E-017  0.8011063E+02  0.7818608E-02  0.1328738E+00
         -1   -1    0    0    0  501 -0.00000000000E+00  0.00000000000E+00  0.68675643050E+01  0.68675661544E+01  0.50400000000E-02 0.  1.
          2   -1    0    0  501    0  0.00000000000E+00 -0.00000000000E+00 -0.23362402400E+03  0.23362402402E+03  0.25500000000E-02 0. -1.
         24    2    1    2    0    0  0.17763568394E-14 -0.71054273576E-14 -0.22675645970E+03  0.24049159017E+03  0.80110629310E+02 0.  0.
         66    2    3    3    0    0  0.55667637331E+01 -0.30371674178E+02 -0.18992567314E+03  0.19242969827E+03  0.20000018469E+01 0.  0.
        -13    1    3    3    0    0 -0.55667637331E+01  0.30371674178E+02 -0.36830786563E+02  0.48061891907E+02  0.10566000000E+00 0.  1.
         13    1    4    4    0    0  0.51958181153E+00 -0.64682125366E+01 -0.42705417739E+02  0.43195735982E+02  0.10566000000E+00 0. -1.
        -13    1    4    4    0    0  0.29566451300E+01 -0.14762699766E+02 -0.90730081999E+02  0.91970854071E+02  0.10566000000E+00 0. -1.
         14    1    4    4    0    0  0.20905367916E+01 -0.91407618755E+01 -0.56490173397E+02  0.57263108213E+02  0.00000000000E+00 0. -1.
<mgrwt>
<rscale>  0 0.80110629E+02</rscale>
<asrwt>0</asrwt>
<pdfrwt beam="1">  1        2 0.35942151E-01 0.80110629E+02</pdfrwt>
<pdfrwt beam="2">  1       -1 0.10565487E-02 0.80110629E+02</pdfrwt>
<totfact> 0.23213415E+05</totfact>
</mgrwt>
</event>
<event>
 8    1  0.1520917E-017  0.8059839E+02  0.7818608E-02  0.1327362E+00
          2   -1    0    0  501    0  0.00000000000E+00  0.00000000000E+00  0.58940130190E+03  0.58940130190E+03  0.25500000000E-02 0. -1.
         -1   -1    0    0    0  501 -0.00000000000E+00 -0.00000000000E+00 -0.27553786196E+01  0.27553832290E+01  0.50400000000E-02 0.  1.
         24    2    1    2    0    0  0.00000000000E+00  0.00000000000E+00  0.58664592328E+03  0.59215668513E+03  0.80598389859E+02 0.  0.
         66    2    3    3    0    0 -0.17209943498E+02 -0.26929053350E+02  0.47356674280E+03  0.47464809697E+03  0.20000010829E+01 0.  0.
        -13    1    3    3    0    0  0.17209943498E+02  0.26929053350E+02  0.11307918048E+03  0.11750858816E+03  0.10566000000E+00 0.  1.
         13    1    4    4    0    0 -0.10880510797E+02 -0.15524314019E+02  0.28445976265E+03  0.28509078829E+03  0.10566000000E+00 0. -1.
        -13    1    4    4    0    0 -0.21355268205E+01 -0.43687665297E+01  0.72577055771E+02  0.72739856916E+02  0.10566000000E+00 0.  1.
         14    1    4    4    0    0 -0.41939058812E+01 -0.70359728010E+01  0.11652992438E+03  0.11681745176E+03  0.00000000000E+00 0. -1.
<mgrwt>
<rscale>  0 0.80598390E+02</rscale>
<asrwt>0</asrwt>
<pdfrwt beam="1">  1        2 0.90677293E-01 0.80598390E+02</pdfrwt>
<pdfrwt beam="2">  1       -1 0.42390397E-03 0.80598390E+02</pdfrwt>
<totfact> 0.31388109E+05</totfact>
</mgrwt>
</event>
<event>
 8    1  0.1520917E-017  0.8193423E+02  0.7818608E-02  0.1323650E+00
         -1   -1    0    0    0  501 -0.00000000000E+00  0.00000000000E+00  0.19521993528E+01  0.19522058587E+01  0.50400000000E-02 0.  1.
          2   -1    0    0  501    0  0.00000000000E+00 -0.00000000000E+00 -0.85969783233E+03  0.85969783233E+03  0.25500000000E-02 0. -1.
         24    2    1    2    0    0  0.17763568394E-14  0.00000000000E+00 -0.85774563297E+03  0.86165003819E+03  0.81934226216E+02 0.  0.
         66    2    3    3    0    0  0.15780090895E+02  0.20289574882E+02 -0.76427163937E+03  0.76470635989E+03  0.19999989788E+01 0.  0.
        -13    1    3    3    0    0 -0.15780090895E+02 -0.20289574882E+02 -0.93473993603E+02  0.96943678296E+02  0.10566000000E+00 0.  1.
         13    1    4    4    0    0  0.11826339978E+02  0.14914135778E+02 -0.56833116931E+03  0.56864982453E+03  0.10566000000E+00 0. -1.
        -13    1    4    4    0    0  0.30451643471E+01  0.37728422146E+01 -0.15231777488E+03  0.15239495750E+03  0.10566000000E+00 0.  1.
         14    1    4    4    0    0  0.90858657014E+00  0.16025968897E+01 -0.43622695180E+02  0.43661577858E+02  0.00000000000E+00 0. -1.
<mgrwt>
<rscale>  0 0.81934226E+02</rscale>
<asrwt>0</asrwt>
<pdfrwt beam="1">  1        2 0.13226090E+00 0.81934226E+02</pdfrwt>
<pdfrwt beam="2">  1       -1 0.30033955E-03 0.81934226E+02</pdfrwt>
<totfact> 0.32657124E+05</totfact>
</mgrwt>
</event>
<event>
 8    1  0.1520917E-017  0.8041589E+02  0.7818608E-02  0.1327875E+00
         -1   -1    0    0    0  501 -0.00000000000E+00  0.00000000000E+00  0.91914804307E+01  0.91914818125E+01  0.50400000000E-02 0.  1.
          2   -1    0    0  501    0  0.00000000000E+00 -0.00000000000E+00 -0.17588884334E+03  0.17588884336E+03  0.25500000000E-02 0. -1.
         24    2    1    2    0    0 -0.71054273576E-14 -0.35527136788E-14 -0.16669736291E+03  0.18508032517E+03  0.80415893730E+02 0.  0.
         66    2    3    3    0    0  0.36776861765E+02  0.13904278958E+02 -0.64308761580E+02  0.75402144201E+02  0.19999998792E+01 0.  0.
        -13    1    3    3    0    0 -0.36776861765E+02 -0.13904278958E+02 -0.10238860133E+03  0.10967818097E+03  0.10566000000E+00 0.  1.
         13    1    4    4    0    0  0.22400948133E+01  0.49178364531E+00 -0.37264299738E+01  0.43769076197E+01  0.10566000000E+00 0. -1.
        -13    1    4    4    0    0  0.24886189064E+02  0.98753134348E+01 -0.42720709152E+02  0.50417401520E+02  0.10566000000E+00 0.  1.
         14    1    4    4    0    0  0.96505778882E+01  0.35371818779E+01 -0.17861622455E+02  0.20607835062E+02  0.00000000000E+00 0. -1.
<mgrwt>
<rscale>  0 0.80415894E+02</rscale>
<asrwt>0</asrwt>
<pdfrwt beam="1">  1        2 0.27059820E-01 0.80415894E+02</pdfrwt>
<pdfrwt beam="2">  1       -1 0.14140742E-02 0.80415894E+02</pdfrwt>
<totfact> 0.20821136E+05</totfact>
</mgrwt>
</event>
<event>
 8    1  0.1520917E-017  0.8128220E+02  0.7818608E-02  0.1325452E+00
          2   -1    0    0  501    0  0.00000000000E+00  0.00000000000E+00  0.34014111244E+03  0.34014111245E+03  0.25500000000E-02 0. -1.
         -1   -1    0    0    0  501 -0.00000000000E+00 -0.00000000000E+00 -0.48559221161E+01  0.48559247316E+01  0.50400000000E-02 0.  1.
         24    2    1    2    0    0 -0.44408920985E-15  0.00000000000E+00  0.33528519033E+03  0.34499703719E+03  0.81282204777E+02 0.  0.
         66    2    3    3    0    0 -0.20181038776E+01 -0.98651276109E+01  0.33475576031E+03  0.33491314180E+03  0.20000005817E+01 0.  0.
        -13    1    3    3    0    0  0.20181038776E+01  0.98651276109E+01  0.52943002012E+00  0.10083895389E+02  0.10566000000E+00 0.  1.
         13    1    4    4    0    0  0.74486764198E-01 -0.30212631056E+01  0.11249150192E+03  0.11253214096E+03  0.10566000000E+00 0. -1.
        -13    1    4    4    0    0 -0.58214640185E+00 -0.31290337531E+01  0.92554192912E+02  0.92608960346E+02  0.10566000000E+00 0.  1.
        -14    1    4    4    0    0 -0.15104442400E+01 -0.37148307522E+01  0.12971006547E+03  0.12977204049E+03  0.00000000000E+00 0.  1.
<mgrwt>
<rscale>  0 0.81282205E+02</rscale>
<asrwt>0</asrwt>
<pdfrwt beam="1">  1        2 0.52329424E-01 0.81282205E+02</pdfrwt>
<pdfrwt beam="2">  1       -1 0.74706484E-03 0.81282205E+02</pdfrwt>
<totfact> 0.25587254E+05</totfact>
</mgrwt>
</event>
<event>
 8    1  0.1520917E-017  0.7828492E+02  0.7818608E-02  0.1333990E+00
          2   -1    0    0  501    0  0.00000000000E+00  0.00000000000E+00  0.16308391834E+04  0.16308391834E+04  0.25500000000E-02 0. -1.
         -1   -1    0    0    0  501 -0.00000000000E+00 -0.00000000000E+00 -0.93946792544E+00  0.93948144449E+00  0.50400000000E-02 0.  1.
         24    2    1    2    0    0  0.00000000000E+00  0.88817841970E-15  0.16298997155E+04  0.16317786649E+04  0.78284919009E+02 0.  0.
         66    2    3    3    0    0  0.13128204233E+02 -0.58364167501E+01  0.15738485859E+04  0.15739154313E+04  0.20000036783E+01 0.  0.
        -13    1    3    3    0    0 -0.13128204233E+02  0.58364167501E+01  0.56051129626E+02  0.57863233605E+02  0.10566000000E+00 0.  1.
         13    1    4    4    0    0  0.27115720547E+01 -0.12459448606E+01  0.31371721524E+03  0.31373142543E+03  0.10566000000E+00 0. -1.
        -13    1    4    4    0    0  0.17370467891E+01 -0.14806351013E+00  0.16582181624E+03  0.16583101387E+03  0.10566000000E+00 0.  1.
        -14    1    4    4    0    0  0.86795853896E+01 -0.44424083794E+01  0.10943095544E+04  0.10943529920E+04  0.00000000000E+00 0.  1.
<mgrwt>
<rscale>  0 0.78284919E+02</rscale>
<asrwt>0</asrwt>
<pdfrwt beam="1">  1        2 0.25089481E+00 0.78284919E+02</pdfrwt>
<pdfrwt beam="2">  1       -1 0.14453660E-03 0.78284919E+02</pdfrwt>
<totfact> 0.33906401E+05</totfact>
</mgrwt>
</event>
<event>
 8    1  0.1520917E-017  0.8048454E+02  0.7818608E-02  0.1327682E+00
         -1   -1    0    0    0  501 -0.00000000000E+00  0.00000000000E+00  0.69574922765E+01  0.69574941020E+01  0.50400000000E-02 0.  1.
          2   -1    0    0  501    0  0.00000000000E+00 -0.00000000000E+00 -0.23276203426E+03  0.23276203427E+03  0.25500000000E-02 0. -1.
         24    2    1    2    0    0 -0.53290705182E-14  0.44408920985E-15 -0.22580454198E+03  0.23971952837E+03  0.80484539536E+02 0.  0.
         66    2    3    3    0    0 -0.12686619980E+02  0.34783184771E+01 -0.22616819670E+03  0.22655926870E+03  0.20000023613E+01 0.  0.
        -13    1    3    3    0    0  0.12686619980E+02 -0.34783184771E+01  0.36365471634E+00  0.13160259676E+02  0.10566000000E+00 0.  1.
         13    1    4    4    0    0 -0.22976419916E+01  0.29564654671E+00 -0.39626761299E+02  0.39694558074E+02  0.10566000000E+00 0. -1.
        -13    1    4    4    0    0 -0.84445725019E+00  0.53185327947E+00 -0.24727557707E+02  0.24747914057E+02  0.10566000000E+00 0.  1.
        -14    1    4    4    0    0 -0.95445207384E+01  0.26508186509E+01 -0.16181387769E+03  0.16211679657E+03  0.00000000000E+00 0.  1.
<mgrwt>
<rscale>  0 0.80484540E+02</rscale>
<asrwt>0</asrwt>
<pdfrwt beam="1">  1        2 0.35809538E-01 0.80484540E+02</pdfrwt>
<pdfrwt beam="2">  1       -1 0.10703838E-02 0.80484540E+02</pdfrwt>
<totfact> 0.22900416E+05</totfact>
</mgrwt>
</event>
<event>
 8    1  0.1520917E-017  0.8005652E+02  0.7818608E-02  0.1328891E+00
          2   -1    0    0  501    0  0.00000000000E+00  0.00000000000E+00  0.12319947100E+04  0.12319947100E+04  0.25500000000E-02 0. -1.
         -1   -1    0    0    0  501 -0.00000000000E+00 -0.00000000000E+00 -0.13005375797E+01  0.13005473454E+01  0.50400000000E-02 0.  1.
         24    2    1    2    0    0  0.22204460493E-15  0.00000000000E+00  0.12306941724E+04  0.12332952573E+04  0.80056516086E+02 0.  0.
         66    2    3    3    0    0  0.18590578395E+01 -0.11871364503E+02  0.12035331145E+04  0.12035947586E+04  0.19999943366E+01 0.  0.
        -13    1    3    3    0    0 -0.18590578395E+01  0.11871364503E+02  0.27161057942E+02  0.29700498713E+02  0.10566000000E+00 0.  1.
         13    1    4    4    0    0  0.13429182233E+01 -0.71993891132E+01  0.74768652888E+03  0.74772240254E+03  0.10566000000E+00 0. -1.
        -13    1    4    4    0    0  0.71245605401E+00 -0.23852631501E+01  0.20119113432E+03  0.20120656243E+03  0.10566000000E+00 0.  1.
        -14    1    4    4    0    0 -0.19631643784E+00 -0.22867122400E+01  0.25465545127E+03  0.25466579365E+03  0.00000000000E+00 0.  1.
<mgrwt>
<rscale>  0 0.80056516E+02</rscale>
<asrwt>0</asrwt>
<pdfrwt beam="1">  1        2 0.18953896E+00 0.80056516E+02</pdfrwt>
<pdfrwt beam="2">  1       -1 0.20008208E-03 0.80056516E+02</pdfrwt>
<totfact> 0.34860574E+05</totfact>
</mgrwt>
</event>
<event>
 8    1  0.1520917E-017  0.7964398E+02  0.7818608E-02  0.1330065E+00
         -1   -1    0    0    0  501 -0.00000000000E+00  0.00000000000E+00  0.12832737426E+02  0.12832738416E+02  0.50400000000E-02 0.  1.
          2   -1    0    0  501    0  0.00000000000E+00 -0.00000000000E+00 -0.12357386426E+03  0.12357386428E+03  0.25500000000E-02 0. -1.
         24    2    1    2    0    0  0.00000000000E+00  0.00000000000E+00 -0.11074112683E+03  0.13640660270E+03  0.79643983377E+02 0.  0.
         66    2    3    3    0    0 -0.23460751124E+02 -0.42520041126E+01 -0.10997859850E+03  0.11255122603E+03  0.19999927673E+01 0.  0.
        -13    1    3    3    0    0  0.23460751124E+02  0.42520041126E+01 -0.76252832764E+00  0.23855376664E+02  0.10566000000E+00 0.  1.
         13    1    4    4    0    0 -0.10330160795E+02 -0.14932350518E+01 -0.45304407867E+02  0.46491316492E+02  0.10566000000E+00 0. -1.
        -13    1    4    4    0    0 -0.12727424760E+02 -0.28553845936E+01 -0.62802376051E+02  0.64142732744E+02  0.10566000000E+00 0.  1.
        -14    1    4    4    0    0 -0.40316556952E+00  0.96615532782E-01 -0.18718145843E+01  0.19171767982E+01  0.00000000000E+00 0.  1.
<mgrwt>
<rscale>  0 0.79643983E+02</rscale>
<asrwt>0</asrwt>
<pdfrwt beam="1">  1        2 0.19011363E-01 0.79643983E+02</pdfrwt>
<pdfrwt beam="2">  1       -1 0.19742675E-02 0.79643983E+02</pdfrwt>
<totfact> 0.19077678E+05</totfact>
</mgrwt>
</event>
<event>
 8    1  0.1520917E-017  0.8005032E+02  0.7818608E-02  0.1328909E+00
          2   -1    0    0  501    0  0.00000000000E+00  0.00000000000E+00  0.15696859498E+03  0.15696859500E+03  0.25500000000E-02 0. -1.
         -1   -1    0    0    0  501 -0.00000000000E+00 -0.00000000000E+00 -0.10205946838E+02  0.10205948083E+02  0.50400000000E-02 0.  1.
         24    2    1    2    0    0  0.17763568394E-14  0.00000000000E+00  0.14676264814E+03  0.16717454308E+03  0.80050315212E+02 0.  0.
         66    2    3    3    0    0  0.15909176461E+02  0.16600781720E+02  0.14178145193E+03  0.14364772160E+03  0.19999899405E+01 0.  0.
        -13    1    3    3    0    0 -0.15909176461E+02 -0.16600781720E+02  0.49811962100E+01  0.23526821483E+02  0.10566000000E+00 0.  1.
         13    1    4    4    0    0  0.27812747027E+01  0.33573044499E+01  0.24469968882E+02  0.24855533052E+02  0.10566000000E+00 0. -1.
        -13    1    4    4    0    0  0.29001887398E+01  0.35899780803E+01  0.26841001288E+02  0.27235079429E+02  0.10566000000E+00 0.  1.
         14    1    4    4    0    0  0.10227713018E+02  0.96534991902E+01  0.90470481757E+02  0.91557109115E+02  0.00000000000E+00 0. -1.
<mgrwt>
<rscale>  0 0.80050315E+02</rscale>
<asrwt>0</asrwt>
<pdfrwt beam="1">  1        2 0.24149015E-01 0.80050315E+02</pdfrwt>
<pdfrwt beam="2">  1       -1 0.15701457E-02 0.80050315E+02</pdfrwt>
<totfact> 0.20293350E+05</totfact>
</mgrwt>
</event>
<event>
 8    1  0.1520917E-017  0.7747905E+02  0.7818608E-02  0.1336362E+00
         -1   -1    0    0    0  501 -0.00000000000E+00  0.00000000000E+00  0.45973264718E+01  0.45973292345E+01  0.50400000000E-02 0.  1.
          2   -1    0    0  501    0  0.00000000000E+00 -0.00000000000E+00 -0.32643982949E+03  0.32643982950E+03  0.25500000000E-02 0. -1.
         24    2    1    2    0    0  0.00000000000E+00  0.44408920985E-15 -0.32184250302E+03  0.33103715874E+03  0.77479053389E+02 0.  0.
         66    2    3    3    0    0 -0.38529561138E+02 -0.13983779961E+01 -0.17599050223E+03  0.18017530193E+03  0.20000014007E+01 0.  0.
        -13    1    3    3    0    0  0.38529561138E+02  0.13983779961E+01 -0.14585200079E+03  0.15086185681E+03  0.10566000000E+00 0.  1.
         13    1    4    4    0    0 -0.14176663524E+02 -0.68546605095E+00 -0.62156353224E+02  0.63756341351E+02  0.10566000000E+00 0. -1.
        -13    1    4    4    0    0 -0.11370977097E+02 -0.26525298596E-02 -0.55645832069E+02  0.56795852999E+02  0.10566000000E+00 0.  1.
        -14    1    4    4    0    0 -0.12981920517E+02 -0.71025941526E+00 -0.58188316941E+02  0.59623107577E+02  0.00000000000E+00 0.  1.
<mgrwt>
<rscale>  0 0.77479053E+02</rscale>
<asrwt>0</asrwt>
<pdfrwt beam="1">  1        2 0.50221494E-01 0.77479053E+02</pdfrwt>
<pdfrwt beam="2">  1       -1 0.70728147E-03 0.77479053E+02</pdfrwt>
<totfact> 0.28579551E+05</totfact>
</mgrwt>
</event>
<event>
 8    1  0.1520917E-017  0.8093325E+02  0.7818608E-02  0.1326424E+00
         -1   -1    0    0    0  501 -0.00000000000E+00  0.00000000000E+00  0.13995612345E+01  0.13995703093E+01  0.50400000000E-02 0.  1.
          2   -1    0    0  501    0  0.00000000000E+00 -0.00000000000E+00 -0.11700399130E+04  0.11700399130E+04  0.25500000000E-02 0. -1.
         24    2    1    2    0    0  0.17763568394E-14 -0.17763568394E-14 -0.11686403517E+04  0.11714394833E+04  0.80933252053E+02 0.  0.
         66    2    3    3    0    0  0.10461087955E+02 -0.12579539762E+02 -0.11199969970E+04  0.11201182761E+04  0.20000001199E+01 0.  0.
        -13    1    3    3    0    0 -0.10461087955E+02  0.12579539762E+02 -0.48643354734E+02  0.51321207173E+02  0.10566000000E+00 0.  1.
         13    1    4    4    0    0  0.85814961062E-01 -0.20312875446E+00 -0.10539793564E+02  0.10542629553E+02  0.10566000000E+00 0. -1.
        -13    1    4    4    0    0  0.16468178056E+01 -0.22020903691E+01 -0.15704739935E+03  0.15707150606E+03  0.10566000000E+00 0.  1.
        -14    1    4    4    0    0  0.87284551884E+01 -0.10174320639E+02 -0.95240980409E+03  0.95250414049E+03  0.00000000000E+00 0.  1.
<mgrwt>
<rscale>  0 0.80933252E+02</rscale>
<asrwt>0</asrwt>
<pdfrwt beam="1">  1        2 0.18000536E+00 0.80933252E+02</pdfrwt>
<pdfrwt beam="2">  1       -1 0.21531875E-03 0.80933252E+02</pdfrwt>
<totfact> 0.34082651E+05</totfact>
</mgrwt>
</event>
<event>
 8    1  0.1520917E-017  0.7876575E+02  0.7818608E-02  0.1332591E+00
         -1   -1    0    0    0  501 -0.00000000000E+00  0.00000000000E+00  0.25451512238E+01  0.25451562140E+01  0.50400000000E-02 0.  1.
          2   -1    0    0  501    0  0.00000000000E+00 -0.00000000000E+00 -0.60939769530E+03  0.60939769531E+03  0.25500000000E-02 0. -1.
         24    2    1    2    0    0 -0.35527136788E-14  0.71054273576E-14 -0.60685254408E+03  0.61194285152E+03  0.78765749370E+02 0.  0.
         66    2    3    3    0    0 -0.28914754055E+02  0.20278929518E+02 -0.43856946321E+03  0.43999371819E+03  0.19999994060E+01 0.  0.
        -13    1    3    3    0    0  0.28914754055E+02 -0.20278929518E+02 -0.16828308086E+03  0.17194913333E+03  0.10566000000E+00 0.  1.
         13    1    4    4    0    0 -0.19335336456E+02  0.13882840524E+02 -0.29835575120E+03  0.29930378203E+03  0.10566000000E+00 0. -1.
        -13    1    4    4    0    0 -0.10511711267E+01  0.39313691414E+00 -0.12061808599E+02  0.12114367837E+02  0.10566000000E+00 0.  1.
        -14    1    4    4    0    0 -0.85282464721E+01  0.60029520799E+01 -0.12815190341E+03  0.12857556832E+03  0.00000000000E+00 0.  1.
<mgrwt>
<rscale>  0 0.78765749E+02</rscale>
<asrwt>0</asrwt>
<pdfrwt beam="1">  1        2 0.93753376E-01 0.78765749E+02</pdfrwt>
<pdfrwt beam="2">  1       -1 0.39156260E-03 0.78765749E+02</pdfrwt>
<totfact> 0.33634346E+05</totfact>
</mgrwt>
</event>
<event>
 8    1  0.1520917E-017  0.8038575E+02  0.7818608E-02  0.1327960E+00
         -1   -1    0    0    0  501 -0.00000000000E+00  0.00000000000E+00  0.18762435465E+03  0.18762435472E+03  0.50400000000E-02 0.  1.
          2   -1    0    0  501    0  0.00000000000E+00 -0.00000000000E+00 -0.86101154503E+01  0.86101158279E+01  0.25500000000E-02 0. -1.
         24    2    1    2    0    0  0.00000000000E+00 -0.44408920985E-15  0.17901423920E+03  0.19623447054E+03  0.80385754920E+02 0.  0.
         66    2    3    3    0    0 -0.39147112381E+02  0.39664861080E+01  0.69845866689E+02  0.80191486525E+02  0.19999994188E+01 0.  0.
        -13    1    3    3    0    0  0.39147112381E+02 -0.39664861080E+01  0.10916837251E+03  0.11604298402E+03  0.10566000000E+00 0.  1.
         13    1    4    4    0    0 -0.12950244220E+02  0.11348475464E+01  0.22615769255E+02  0.26086028585E+02  0.10566000000E+00 0. -1.
        -13    1    4    4    0    0 -0.22483107744E+02  0.19450371353E+01  0.39859686009E+02  0.45804792720E+02  0.10566000000E+00 0.  1.
        -14    1    4    4    0    0 -0.37137604163E+01  0.88660142630E+00  0.73704114254E+01  0.83006652202E+01  0.00000000000E+00 0.  1.
<mgrwt>
<rscale>  0 0.80385755E+02</rscale>
<asrwt>0</asrwt>
<pdfrwt beam="1">  1        2 0.13246333E-02 0.80385755E+02</pdfrwt>
<pdfrwt beam="2">  1       -1 0.28865283E-01 0.80385755E+02</pdfrwt>
<totfact> 0.10027476E+05</totfact>
</mgrwt>
</event>
<event>
 8    1  0.1520917E-017  0.7746174E+02  0.7818608E-02  0.1336413E+00
          2   -1    0    0  501    0  0.00000000000E+00  0.00000000000E+00  0.12929531843E+03  0.12929531845E+03  0.25500000000E-02 0. -1.
         -1   -1    0    0    0  501 -0.00000000000E+00 -0.00000000000E+00 -0.11601969863E+02  0.11601970957E+02  0.50400000000E-02 0.  1.
         24    2    1    2    0    0 -0.22204460493E-15 -0.17763568394E-14  0.11769334856E+03  0.14089728941E+03  0.77461744536E+02 0.  0.
         66    2    3    3    0    0 -0.11066231137E+01  0.15124095933E+02  0.12365883420E+03  0.12460124463E+03  0.19999990637E+01 0.  0.
        -13    1    3    3    0    0  0.11066231137E+01 -0.15124095933E+02 -0.59654856333E+01  0.16296044777E+02  0.10566000000E+00 0.  1.
         13    1    4    4    0    0 -0.60097633241E+00  0.82302114625E+01  0.70296443654E+02  0.70779225114E+02  0.10566000000E+00 0. -1.
        -13    1    4    4    0    0  0.28450236637E+00  0.15866196364E+01  0.10145067804E+02  0.10272870497E+02  0.10566000000E+00 0.  1.
        -14    1    4    4    0    0 -0.79014914765E+00  0.53072648341E+01  0.43217322739E+02  0.43549149020E+02  0.00000000000E+00 0.  1.
<mgrwt>
<rscale>  0 0.77461745E+02</rscale>
<asrwt>0</asrwt>
<pdfrwt beam="1">  1        2 0.19891589E-01 0.77461745E+02</pdfrwt>
<pdfrwt beam="2">  1       -1 0.17849184E-02 0.77461745E+02</pdfrwt>
<totfact> 0.20824336E+05</totfact>
</mgrwt>
</event>
<event>
 8    1  0.1520917E-017  0.7927798E+02  0.7818608E-02  0.1331113E+00
         -1   -1    0    0    0  501 -0.00000000000E+00  0.00000000000E+00  0.32075751240E+01  0.32075790836E+01  0.50400000000E-02 0.  1.
          2   -1    0    0  501    0  0.00000000000E+00 -0.00000000000E+00 -0.48985557540E+03  0.48985557540E+03  0.25500000000E-02 0. -1.
         24    2    1    2    0    0  0.00000000000E+00 -0.35527136788E-14 -0.48664800027E+03  0.49306315449E+03  0.79277980191E+02 0.  0.
         66    2    3    3    0    0  0.24809833216E+02  0.30610119015E+02 -0.26892291349E+03  0.27180147279E+03  0.19999996693E+01 0.  0.
        -13    1    3    3    0    0 -0.24809833216E+02 -0.30610119015E+02 -0.21772508679E+03  0.22126168170E+03  0.10566000000E+00 0.  1.
         13    1    4    4    0    0  0.15414836530E+02  0.19737710971E+02 -0.17584756376E+03  0.17762198981E+03  0.10566000000E+00 0. -1.
        -13    1    4    4    0    0  0.51094913252E+01  0.62621646655E+01 -0.51617531546E+02  0.52246553330E+02  0.10566000000E+00 0.  1.
         14    1    4    4    0    0  0.42855053608E+01  0.46102433785E+01 -0.41457818185E+02  0.41932929648E+02  0.00000000000E+00 0. -1.
<mgrwt>
<rscale>  0 0.79277980E+02</rscale>
<asrwt>0</asrwt>
<pdfrwt beam="1">  1        2 0.75362337E-01 0.79277980E+02</pdfrwt>
<pdfrwt beam="2">  1       -1 0.49347379E-03 0.79277980E+02</pdfrwt>
<totfact> 0.30975086E+05</totfact>
</mgrwt>
</event>
<event>
 8    1  0.1520917E-017  0.7920095E+02  0.7818608E-02  0.1331334E+00
         -1   -1    0    0    0  501 -0.00000000000E+00  0.00000000000E+00  0.13621567510E+01  0.13621660750E+01  0.50400000000E-02 0.  1.
          2   -1    0    0  501    0  0.00000000000E+00 -0.00000000000E+00 -0.11512568239E+04  0.11512568239E+04  0.25500000000E-02 0. -1.
         24    2    1    2    0    0  0.00000000000E+00  0.71054273576E-14 -0.11498946672E+04  0.11526189900E+04  0.79200950248E+02 0.  0.
         66    2    3    3    0    0  0.20382035599E+01  0.25528995710E+02 -0.10143990972E+04  0.10147243036E+04  0.19999977481E+01 0.  0.
        -13    1    3    3    0    0 -0.20382035599E+01 -0.25528995710E+02 -0.13549557000E+03  0.13789468644E+03  0.10566000000E+00 0.  1.
         13    1    4    4    0    0  0.79658058725E+00  0.31608995871E+01 -0.13446730426E+03  0.13450685078E+03  0.10566000000E+00 0. -1.
        -13    1    4    4    0    0  0.63120417298E+00  0.13863738798E+02 -0.52751346714E+03  0.52769600231E+03  0.10566000000E+00 0.  1.
         14    1    4    4    0    0  0.61041879966E+00  0.85043573242E+01 -0.35241832577E+03  0.35252145048E+03  0.00000000000E+00 0. -1.
<mgrwt>
<rscale>  0 0.79200950E+02</rscale>
<asrwt>0</asrwt>
<pdfrwt beam="1">  1        2 0.17711566E+00 0.79200950E+02</pdfrwt>
<pdfrwt beam="2">  1       -1 0.20956422E-03 0.79200950E+02</pdfrwt>
<totfact> 0.36097966E+05</totfact>
</mgrwt>
</event>
<event>
 8    1  0.1520917E-017  0.8035154E+02  0.7818608E-02  0.1328057E+00
          2   -1    0    0  501    0  0.00000000000E+00  0.00000000000E+00  0.12805236297E+04  0.12805236297E+04  0.25500000000E-02 0. -1.
         -1   -1    0    0    0  501 -0.00000000000E+00 -0.00000000000E+00 -0.12604892110E+01  0.12604992870E+01  0.50400000000E-02 0.  1.
         24    2    1    2    0    0 -0.35527136788E-14  0.17763568394E-14  0.12792631405E+04  0.12817841290E+04  0.80351544577E+02 0.  0.
         66    2    3    3    0    0 -0.19070804090E+02  0.14641698382E+02  0.11529868852E+04  0.11532392780E+04  0.19999994535E+01 0.  0.
        -13    1    3    3    0    0  0.19070804090E+02 -0.14641698382E+02  0.12627625534E+03  0.12854485103E+03  0.10566000000E+00 0.  1.
         13    1    4    4    0    0 -0.21340752139E+01  0.19318631183E+01  0.11847749706E+03  0.11851250924E+03  0.10566000000E+00 0. -1.
        -13    1    4    4    0    0 -0.12224192023E+02  0.91725753905E+01  0.77184223259E+03  0.77199352989E+03  0.10566000000E+00 0.  1.
        -14    1    4    4    0    0 -0.47125368535E+01  0.35372598737E+01  0.26266715553E+03  0.26273323887E+03  0.00000000000E+00 0.  1.
<mgrwt>
<rscale>  0 0.80351545E+02</rscale>
<asrwt>0</asrwt>
<pdfrwt beam="1">  1        2 0.19700310E+00 0.80351545E+02</pdfrwt>
<pdfrwt beam="2">  1       -1 0.19392272E-03 0.80351545E+02</pdfrwt>
<totfact> 0.34320906E+05</totfact>
</mgrwt>
</event>
<event>
 8    1  0.1520917E-017  0.8022710E+02  0.7818608E-02  0.1328408E+00
          2   -1    0    0  501    0  0.00000000000E+00  0.00000000000E+00  0.30221917733E+03  0.30221917734E+03  0.25500000000E-02 0. -1.
         -1   -1    0    0    0  501 -0.00000000000E+00 -0.00000000000E+00 -0.53242707299E+01  0.53242731153E+01  0.50400000000E-02 0.  1.
         24    2    1    2    0    0  0.00000000000E+00 -0.88817841970E-15  0.29689490660E+03  0.30754345045E+03  0.80227104854E+02 0.  0.
         66    2    3    3    0    0  0.32989870709E+02 -0.50825982028E+01  0.23364874673E+03  0.23602944990E+03  0.19999987281E+01 0.  0.
        -13    1    3    3    0    0 -0.32989870709E+02  0.50825982028E+01  0.63246159863E+02  0.71514000555E+02  0.10566000000E+00 0.  1.
         13    1    4    4    0    0  0.53722573695E+01 -0.21969122193E+00  0.39706241442E+02  0.40068768224E+02  0.10566000000E+00 0. -1.
        -13    1    4    4    0    0  0.14526303068E+01 -0.28816960860E+00  0.94672938878E+01  0.95830054850E+01  0.10566000000E+00 0.  1.
         14    1    4    4    0    0  0.26164983033E+02 -0.45747373723E+01  0.18447521140E+03  0.18637767619E+03  0.00000000000E+00 0. -1.
<mgrwt>
<rscale>  0 0.80227105E+02</rscale>
<asrwt>0</asrwt>
<pdfrwt beam="1">  1        2 0.46495264E-01 0.80227105E+02</pdfrwt>
<pdfrwt beam="2">  1       -1 0.81911866E-03 0.80227105E+02</pdfrwt>
<totfact> 0.25373309E+05</totfact>
</mgrwt>
</event>
<event>
 8    1  0.1520917E-017  0.8042513E+02  0.7818608E-02  0.1327849E+00
          2   -1    0    0  501    0  0.00000000000E+00  0.00000000000E+00  0.45853779420E+02  0.45853779491E+02  0.25500000000E-02 0. -1.
         -1   -1    0    0    0  501 -0.00000000000E+00 -0.00000000000E+00 -0.35265365151E+02  0.35265365511E+02  0.50400000000E-02 0.  1.
         24    2    1    2    0    0  0.00000000000E+00  0.00000000000E+00  0.10588414270E+02  0.81119145002E+02  0.80425127722E+02 0.  0.
         66    2    3    3    0    0  0.20704002288E+02  0.30922498987E+02  0.20600366382E+02  0.42582058923E+02  0.19999981858E+01 0.  0.
        -13    1    3    3    0    0 -0.20704002288E+02 -0.30922498987E+02 -0.10011952112E+02  0.38537086079E+02  0.10566000000E+00 0.  1.
         13    1    4    4    0    0  0.12783306567E+01  0.19736393546E+01  0.17958719346E+01  0.29606927586E+01  0.10566000000E+00 0.  1.
        -13    1    4    4    0    0  0.14455657139E+02  0.21086397895E+02  0.13429040207E+02  0.28878235480E+02  0.10566000000E+00 0. -1.
         14    1    4    4    0    0  0.49700144922E+01  0.78624617365E+01  0.53754542402E+01  0.10743130684E+02  0.00000000000E+00 0. -1.
<mgrwt>
<rscale>  0 0.80425128E+02</rscale>
<asrwt>0</asrwt>
<pdfrwt beam="1">  1        2 0.70544276E-02 0.80425128E+02</pdfrwt>
<pdfrwt beam="2">  1       -1 0.54254408E-02 0.80425128E+02</pdfrwt>
<totfact> 0.14455311E+05</totfact>
</mgrwt>
</event>
<event>
 8    1  0.1520917E-017  0.7753690E+02  0.7818608E-02  0.1336190E+00
         -1   -1    0    0    0  501 -0.00000000000E+00  0.00000000000E+00  0.12106799804E+03  0.12106799814E+03  0.50400000000E-02 0.  1.
          2   -1    0    0  501    0  0.00000000000E+00 -0.00000000000E+00 -0.12414449670E+02  0.12414449932E+02  0.25500000000E-02 0. -1.
         24    2    1    2    0    0  0.00000000000E+00  0.00000000000E+00  0.10865354837E+03  0.13348244808E+03  0.77536896836E+02 0.  0.
         66    2    3    3    0    0  0.37188354686E+01  0.19590759695E+02 -0.28211610847E+01  0.20238244627E+02  0.19999982623E+01 0.  0.
        -13    1    3    3    0    0 -0.37188354686E+01 -0.19590759695E+02  0.11147470945E+03  0.11324420345E+03  0.10566000000E+00 0.  1.
         13    1    4    4    0    0  0.22227415477E+00  0.25221863236E+01 -0.14807105047E+00  0.25384874871E+01  0.10566000000E+00 0. -1.
        -13    1    4    4    0    0  0.27573377648E+01  0.11234516613E+02 -0.23868557434E+01  0.11812092087E+02  0.10566000000E+00 0.  1.
        -14    1    4    4    0    0  0.73922354897E+00  0.58340567584E+01 -0.28623429084E+00  0.58876650537E+01  0.00000000000E+00 0.  1.
<mgrwt>
<rscale>  0 0.77536897E+02</rscale>
<asrwt>0</asrwt>
<pdfrwt beam="1">  1        2 0.19099154E-02 0.77536897E+02</pdfrwt>
<pdfrwt beam="2">  1       -1 0.18625845E-01 0.77536897E+02</pdfrwt>
<totfact> 0.12289107E+05</totfact>
</mgrwt>
</event>
<event>
 8    1  0.1520917E-017  0.7990327E+02  0.7818608E-02  0.1329326E+00
         -1   -1    0    0    0  501 -0.00000000000E+00  0.00000000000E+00  0.32079943100E+02  0.32079943496E+02  0.50400000000E-02 0.  1.
          2   -1    0    0  501    0  0.00000000000E+00 -0.00000000000E+00 -0.49754855531E+02  0.49754855597E+02  0.25500000000E-02 0. -1.
         24    2    1    2    0    0  0.35527136788E-14  0.35527136788E-14 -0.17674912431E+02  0.81834799093E+02  0.79903265347E+02 0.  0.
         66    2    3    3    0    0 -0.29392414919E+02 -0.26360968453E+02 -0.14929125671E+02  0.42257466925E+02  0.20000012762E+01 0.  0.
        -13    1    3    3    0    0  0.29392414919E+02  0.26360968453E+02 -0.27457867597E+01  0.39577332167E+02  0.10566000000E+00 0.  1.
         13    1    4    4    0    0 -0.10389750838E+02 -0.86272709842E+01 -0.54730154239E+01  0.14571952133E+02  0.10566000000E+00 0. -1.
        -13    1    4    4    0    0 -0.18616081586E+02 -0.17298981197E+02 -0.94195456466E+01  0.27102624381E+02  0.10566000000E+00 0.  1.
        -14    1    4    4    0    0 -0.38658249451E+00 -0.43471627126E+00 -0.36564600698E-01  0.58289041129E+00  0.00000000000E+00 0.  1.
<mgrwt>
<rscale>  0 0.79903265E+02</rscale>
<asrwt>0</asrwt>
<pdfrwt beam="1">  1        2 0.76545932E-02 0.79903265E+02</pdfrwt>
<pdfrwt beam="2">  1       -1 0.49353759E-02 0.79903265E+02</pdfrwt>
<totfact> 0.14976590E+05</totfact>
</mgrwt>
</event>
<event>
 8    1  0.1520917E-017  0.8100179E+02  0.7818608E-02  0.1326232E+00
         -1   -1    0    0    0  501 -0.00000000000E+00  0.00000000000E+00  0.38035931255E+01  0.38035964647E+01  0.50400000000E-02 0.  1.
          2   -1    0    0  501    0  0.00000000000E+00 -0.00000000000E+00 -0.43125583039E+03  0.43125583040E+03  0.25500000000E-02 0. -1.
         24    2    1    2    0    0  0.35527136788E-14  0.17763568394E-14 -0.42745223726E+03  0.43505942686E+03  0.81001788617E+02 0.  0.
         66    2    3    3    0    0 -0.19985840542E+02 -0.94704238711E+01 -0.39593124540E+03  0.39655349430E+03  0.20000012948E+01 0.  0.
        -13    1    3    3    0    0  0.19985840542E+02  0.94704238711E+01 -0.31520991862E+02  0.38505932563E+02  0.10566000000E+00 0.  1.
         13    1    4    4    0    0 -0.14937057608E+02 -0.68433209623E+01 -0.30482798606E+03  0.30527046857E+03  0.10566000000E+00 0. -1.
        -13    1    4    4    0    0 -0.42029555856E+01 -0.24291774191E+01 -0.76459748833E+02  0.76613772223E+02  0.10566000000E+00 0.  1.
         14    1    4    4    0    0 -0.84582734899E+00 -0.19792548964E+00 -0.14643510508E+02  0.14669253505E+02  0.00000000000E+00 0. -1.
<mgrwt>
<rscale>  0 0.81001789E+02</rscale>
<asrwt>0</asrwt>
<pdfrwt beam="1">  1        2 0.66347012E-01 0.81001789E+02</pdfrwt>
<pdfrwt beam="2">  1       -1 0.58516877E-03 0.81001789E+02</pdfrwt>
<totfact> 0.28070530E+05</totfact>
</mgrwt>
</event>
<event>
 8    1  0.1520917E-017  0.7980695E+02  0.7818608E-02  0.1329600E+00
         -1   -1    0    0    0  501 -0.00000000000E+00  0.00000000000E+00  0.36350291942E+02  0.36350292291E+02  0.50400000000E-02 0.  1.
          2   -1    0    0  501    0  0.00000000000E+00 -0.00000000000E+00 -0.43803975204E+02  0.43803975279E+02  0.25500000000E-02 0. -1.
         24    2    1    2    0    0 -0.71054273576E-14 -0.17763568394E-14 -0.74536832628E+01  0.80154267570E+02  0.79806949669E+02 0.  0.
         66    2    3    3    0    0 -0.33194637605E+02 -0.93719869512E+01 -0.23830377654E+02  0.41971478405E+02  0.19999988060E+01 0.  0.
        -13    1    3    3    0    0  0.33194637605E+02  0.93719869512E+01  0.16376694392E+02  0.38182789164E+02  0.10566000000E+00 0.  1.
         13    1    4    4    0    0 -0.11365583820E+02 -0.28928033381E+01 -0.80359663528E+01  0.14217338920E+02  0.10566000000E+00 0. -1.
        -13    1    4    4    0    0 -0.14990012326E+02 -0.47968396629E+01 -0.10145866054E+02  0.18725915260E+02  0.10566000000E+00 0.  1.
        -14    1    4    4    0    0 -0.68390414590E+01 -0.16823439502E+01 -0.56485452478E+01  0.90282242252E+01  0.00000000000E+00 0.  1.
<mgrwt>
<rscale>  0 0.79806950E+02</rscale>
<asrwt>0</asrwt>
<pdfrwt beam="1">  1        2 0.67390731E-02 0.79806950E+02</pdfrwt>
<pdfrwt beam="2">  1       -1 0.55923526E-02 0.79806950E+02</pdfrwt>
<totfact> 0.14623557E+05</totfact>
</mgrwt>
</event>
<event>
 8    1  0.1520917E-017  0.8007781E+02  0.7818608E-02  0.1328831E+00
         -1   -1    0    0    0  501 -0.00000000000E+00  0.00000000000E+00  0.87223921008E+01  0.87223935569E+01  0.50400000000E-02 0.  1.
          2   -1    0    0  501    0  0.00000000000E+00 -0.00000000000E+00 -0.18379289847E+03  0.18379289848E+03  0.25500000000E-02 0. -1.
         24    2    1    2    0    0 -0.71054273576E-14 -0.44408920985E-15 -0.17507050636E+03  0.19251529204E+03  0.80077808852E+02 0.  0.
         66    2    3    3    0    0 -0.39822068398E+02 -0.36596795313E+01 -0.90919641190E+02  0.99345717288E+02  0.20000009023E+01 0.  0.
        -13    1    3    3    0    0  0.39822068398E+02  0.36596795313E+01 -0.84150865175E+02  0.93169574752E+02  0.10566000000E+00 0.  1.
         13    1    4    4    0    0 -0.22047387291E+02 -0.15601337507E+01 -0.49620312325E+02  0.54320418472E+02  0.10566000000E+00 0. -1.
        -13    1    4    4    0    0 -0.74162807484E+01 -0.12657460557E+01 -0.18353301575E+02  0.19835780195E+02  0.10566000000E+00 0.  1.
        -14    1    4    4    0    0 -0.10358400359E+02 -0.83379972484E+00 -0.22946027290E+02  0.25189518621E+02  0.00000000000E+00 0.  1.
<mgrwt>
<rscale>  0 0.80077809E+02</rscale>
<asrwt>0</asrwt>
<pdfrwt beam="1">  1        2 0.28275828E-01 0.80077809E+02</pdfrwt>
<pdfrwt beam="2">  1       -1 0.13419067E-02 0.80077809E+02</pdfrwt>
<totfact> 0.21370989E+05</totfact>
</mgrwt>
</event>
<event>
 8    1  0.1520917E-017  0.7773553E+02  0.7818608E-02  0.1335603E+00
          2   -1    0    0  501    0  0.00000000000E+00  0.00000000000E+00  0.48120199299E+02  0.48120199367E+02  0.25500000000E-02 0. -1.
         -1   -1    0    0    0  501 -0.00000000000E+00 -0.00000000000E+00 -0.31394364439E+02  0.31394364843E+02  0.50400000000E-02 0.  1.
         24    2    1    2    0    0 -0.35527136788E-14  0.00000000000E+00  0.16725834860E+02  0.79514564210E+02  0.77735528362E+02 0.  0.
         66    2    3    3    0    0  0.22149373649E+02 -0.16488784714E+02  0.36310699605E+02  0.45661161641E+02  0.20000005733E+01 0.  0.
        -13    1    3    3    0    0 -0.22149373649E+02  0.16488784714E+02 -0.19584864745E+02  0.33853402568E+02  0.10566000000E+00 0.  1.
         13    1    4    4    0    0  0.14462688736E+02 -0.10511325193E+02  0.23367810349E+02  0.29423171945E+02  0.10566000000E+00 0. -1.
        -13    1    4    4    0    0  0.82985977909E+00 -0.91964812256E+00  0.21936289180E+01  0.25214265382E+01  0.10566000000E+00 0.  1.
        -14    1    4    4    0    0  0.68568251336E+01 -0.50578113982E+01  0.10749260338E+02  0.13716563158E+02  0.00000000000E+00 0.  1.
<mgrwt>
<rscale>  0 0.77735528E+02</rscale>
<asrwt>0</asrwt>
<pdfrwt beam="1">  1        2 0.74031076E-02 0.77735528E+02</pdfrwt>
<pdfrwt beam="2">  1       -1 0.48299023E-02 0.77735528E+02</pdfrwt>
<totfact> 0.16031544E+05</totfact>
</mgrwt>
</event>
<event>
 8    1  0.1520917E-017  0.7978713E+02  0.7818608E-02  0.1329657E+00
         -1   -1    0    0    0  501 -0.00000000000E+00  0.00000000000E+00  0.72722755574E+02  0.72722755749E+02  0.50400000000E-02 0.  1.
          2   -1    0    0  501    0  0.00000000000E+00 -0.00000000000E+00 -0.21884438563E+02  0.21884438712E+02  0.25500000000E-02 0. -1.
         24    2    1    2    0    0  0.00000000000E+00 -0.17763568394E-14  0.50838317011E+02  0.94607194460E+02  0.79787134095E+02 0.  0.
         66    2    3    3    0    0  0.32712649837E+02 -0.12592122121E+02  0.29117751250E+01  0.35230064351E+02  0.20000002302E+01 0.  0.
        -13    1    3    3    0    0 -0.32712649837E+02  0.12592122121E+02  0.47926541886E+02  0.59377130109E+02  0.10566000000E+00 0.  1.
         13    1    4    4    0    0  0.85493731426E+01 -0.27487344072E+01  0.10720223058E+01  0.90447619002E+01  0.10566000000E+00 0. -1.
        -13    1    4    4    0    0  0.77963624198E+01 -0.37414482526E+01  0.84855904678E+00  0.86898169428E+01  0.10566000000E+00 0.  1.
         14    1    4    4    0    0  0.16366914274E+02 -0.61019394615E+01  0.99119377241E+00  0.17495485508E+02  0.00000000000E+00 0. -1.
<mgrwt>
<rscale>  0 0.79787134E+02</rscale>
<asrwt>0</asrwt>
<pdfrwt beam="1">  1        2 0.33668368E-02 0.79787134E+02</pdfrwt>
<pdfrwt beam="2">  1       -1 0.11188116E-01 0.79787134E+02</pdfrwt>
<totfact> 0.12738820E+05</totfact>
</mgrwt>
</event>
<event>
 8    1  0.1520917E-017  0.8033623E+02  0.7818608E-02  0.1328100E+00
         -1   -1    0    0    0  501 -0.00000000000E+00  0.00000000000E+00  0.19740370277E+02  0.19740370921E+02  0.50400000000E-02 0.  1.
          2   -1    0    0  501    0  0.00000000000E+00 -0.00000000000E+00 -0.81734919421E+02  0.81734919461E+02  0.25500000000E-02 0. -1.
         24    2    1    2    0    0 -0.17763568394E-14  0.00000000000E+00 -0.61994549144E+02  0.10147529038E+03  0.80336233634E+02 0.  0.
         66    2    3    3    0    0  0.13213268285E+02 -0.46689914983E+01 -0.78532418547E+02  0.79798062035E+02  0.20000003325E+01 0.  0.
        -13    1    3    3    0    0 -0.13213268285E+02  0.46689914983E+01  0.16537869403E+02  0.21677228347E+02  0.10566000000E+00 0.  1.
         13    1    4    4    0    0  0.78972458484E+01 -0.26860090859E+01 -0.47578410247E+02  0.48304217440E+02  0.10566000000E+00 0. -1.
        -13    1    4    4    0    0  0.60418610521E+00  0.91076560779E-01 -0.23605048124E+01  0.24405906651E+01  0.10566000000E+00 0.  1.
        -14    1    4    4    0    0  0.47118363314E+01 -0.20740589731E+01 -0.28593503487E+02  0.29053253930E+02  0.00000000000E+00 0.  1.
<mgrwt>
<rscale>  0 0.80336234E+02</rscale>
<asrwt>0</asrwt>
<pdfrwt beam="1">  1        2 0.12574603E-01 0.80336234E+02</pdfrwt>
<pdfrwt beam="2">  1       -1 0.30369802E-02 0.80336234E+02</pdfrwt>
<totfact> 0.16599616E+05</totfact>
</mgrwt>
</event>
<event>
 8    1  0.1520917E-017  0.7616714E+02  0.7818608E-02  0.1340294E+00
          2   -1    0    0  501    0  0.00000000000E+00  0.00000000000E+00  0.82718642331E+03  0.82718642332E+03  0.25500000000E-02 0. -1.
         -1   -1    0    0    0  501 -0.00000000000E+00 -0.00000000000E+00 -0.17533596043E+01  0.17533668479E+01  0.50400000000E-02 0.  1.
         24    2    1    2    0    0 -0.17763568394E-14 -0.17763568394E-14  0.82543306371E+03  0.82893979016E+03  0.76167138944E+02 0.  0.
         66    2    3    3    0    0  0.80928965144E+01  0.15523723128E+02  0.78075999794E+03  0.78095880515E+03  0.20000011244E+01 0.  0.
        -13    1    3    3    0    0 -0.80928965144E+01 -0.15523723128E+02  0.44673065765E+02  0.47980985011E+02  0.10566000000E+00 0.  1.
         13    1    4    4    0    0  0.15079585618E+01  0.25482143875E+01  0.12224317320E+03  0.12227907382E+03  0.10566000000E+00 0. -1.
        -13    1    4    4    0    0  0.25969420915E+01  0.35810326827E+01  0.18454811248E+03  0.18460115082E+03  0.10566000000E+00 0.  1.
         14    1    4    4    0    0  0.39879958612E+01  0.93944760578E+01  0.47396871227E+03  0.47407858051E+03  0.00000000000E+00 0. -1.
<mgrwt>
<rscale>  0 0.76167139E+02</rscale>
<asrwt>0</asrwt>
<pdfrwt beam="1">  1        2 0.12725981E+00 0.76167139E+02</pdfrwt>
<pdfrwt beam="2">  1       -1 0.26974744E-03 0.76167139E+02</pdfrwt>
<totfact> 0.39242080E+05</totfact>
</mgrwt>
</event>
<event>
 8    1  0.1520917E-017  0.7835004E+02  0.7818608E-02  0.1333800E+00
         -1   -1    0    0    0  501 -0.00000000000E+00  0.00000000000E+00  0.20985408204E+01  0.20985468726E+01  0.50400000000E-02 0.  1.
          2   -1    0    0  501    0  0.00000000000E+00 -0.00000000000E+00 -0.73130810739E+03  0.73130810739E+03  0.25500000000E-02 0. -1.
         24    2    1    2    0    0 -0.35527136788E-14  0.35527136788E-14 -0.72920956657E+03  0.73340665427E+03  0.78350038587E+02 0.  0.
         66    2    3    3    0    0 -0.14058939791E+02  0.30643466397E+02 -0.55111644395E+03  0.55215035146E+03  0.19999995705E+01 0.  0.
        -13    1    3    3    0    0  0.14058939791E+02 -0.30643466397E+02 -0.17809312262E+03  0.18125630281E+03  0.10566000000E+00 0.  1.
         13    1    4    4    0    0 -0.14906401384E+01  0.28789171734E+01 -0.47955468546E+02  0.48065042386E+02  0.10566000000E+00 0. -1.
        -13    1    4    4    0    0 -0.23002763633E+01  0.49151422717E+01 -0.99149047151E+02  0.99297505557E+02  0.10566000000E+00 0.  1.
        -14    1    4    4    0    0 -0.10268023290E+02  0.22849406951E+02 -0.40401192826E+03  0.40478780351E+03  0.00000000000E+00 0.  1.
<mgrwt>
<rscale>  0 0.78350039E+02</rscale>
<asrwt>0</asrwt>
<pdfrwt beam="1">  1        2 0.11250874E+00 0.78350039E+02</pdfrwt>
<pdfrwt beam="2">  1       -1 0.32285348E-03 0.78350039E+02</pdfrwt>
<totfact> 0.35653775E+05</totfact>
</mgrwt>
</event>
<event>
 8    1  0.1520917E-017  0.7874010E+02  0.7818608E-02  0.1332665E+00
         -1   -1    0    0    0  501 -0.00000000000E+00  0.00000000000E+00  0.34653890046E+02  0.34653890413E+02  0.50400000000E-02 0.  1.
          2   -1    0    0  501    0  0.00000000000E+00 -0.00000000000E+00 -0.44728051349E+02  0.44728051422E+02  0.25500000000E-02 0. -1.
         24    2    1    2    0    0 -0.71054273576E-14  0.00000000000E+00 -0.10074161303E+02  0.79381941835E+02  0.78740103908E+02 0.  0.
         66    2    3    3    0    0 -0.30797854030E+02  0.24382763271E+02 -0.27930050509E+01  0.39431305320E+02  0.20000011106E+01 0.  0.
        -13    1    3    3    0    0  0.30797854030E+02 -0.24382763271E+02 -0.72811562519E+01  0.39950636515E+02  0.10566000000E+00 0.  1.
         13    1    4    4    0    0 -0.54133280435E+00  0.30969218480E+00  0.31137845531E-01  0.63331197321E+00  0.10566000000E+00 0. -1.
        -13    1    4    4    0    0 -0.50327130166E+01  0.40627393512E+01 -0.10364410855E+01  0.65512918956E+01  0.10566000000E+00 0.  1.
         14    1    4    4    0    0 -0.25223808209E+02  0.20010331735E+02 -0.17877018109E+01  0.32246701451E+02  0.00000000000E+00 0. -1.
<mgrwt>
<rscale>  0 0.78740104E+02</rscale>
<asrwt>0</asrwt>
<pdfrwt beam="1">  1        2 0.68812387E-02 0.78740104E+02</pdfrwt>
<pdfrwt beam="2">  1       -1 0.53313677E-02 0.78740104E+02</pdfrwt>
<totfact> 0.15241128E+05</totfact>
</mgrwt>
</event>
<event>
 8    1  0.1520917E-017  0.8099608E+02  0.7818608E-02  0.1326248E+00
         -1   -1    0    0    0  501 -0.00000000000E+00  0.00000000000E+00  0.22531126919E+03  0.22531126925E+03  0.50400000000E-02 0.  1.
          2   -1    0    0  501    0  0.00000000000E+00 -0.00000000000E+00 -0.72792247090E+01  0.72792251556E+01  0.25500000000E-02 0. -1.
         24    2    1    2    0    0  0.00000000000E+00  0.00000000000E+00  0.21803204448E+03  0.23259049440E+03  0.80996084261E+02 0.  0.
         66    2    3    3    0    0  0.39056847750E+02  0.64659862476E+01  0.84912813008E+02  0.93709295940E+02  0.19999995535E+01 0.  0.
        -13    1    3    3    0    0 -0.39056847750E+02 -0.64659862476E+01  0.13311923148E+03  0.13888119846E+03  0.10566000000E+00 0.  1.
         13    1    4    4    0    0  0.29633251562E+02  0.51491412259E+01  0.65023411268E+02  0.71642853310E+02  0.10566000000E+00 0. -1.
        -13    1    4    4    0    0  0.67824117990E+01  0.55678642837E+00  0.14405569314E+02  0.15932442130E+02  0.10566000000E+00 0.  1.
         14    1    4    4    0    0  0.26411843892E+01  0.76005859335E+00  0.54838324269E+01  0.61340004996E+01  0.00000000000E+00 0. -1.
<mgrwt>
<rscale>  0 0.80996084E+02</rscale>
<asrwt>0</asrwt>
<pdfrwt beam="1">  1        2 0.11198807E-02 0.80996084E+02</pdfrwt>
<pdfrwt beam="2">  1       -1 0.34663273E-01 0.80996084E+02</pdfrwt>
<totfact> 0.92954503E+04</totfact>
</mgrwt>
</event>
<event>
 8    1  0.1520917E-017  0.8653624E+02  0.7818608E-02  0.1311463E+00
          2   -1    0    0  501    0  0.00000000000E+00  0.00000000000E+00  0.26498623197E+04  0.26498623197E+04  0.25500000000E-02 0. -1.
         -1   -1    0    0    0  501 -0.00000000000E+00 -0.00000000000E+00 -0.70649199654E+00  0.70650997358E+00  0.50400000000E-02 0.  1.
         24    2    1    2    0    0  0.17763568394E-14 -0.88817841970E-15  0.26491558277E+04  0.26505688296E+04  0.86536243207E+02 0.  0.
         66    2    3    3    0    0  0.86254337301E+01 -0.62756015957E+01  0.26089311475E+04  0.26089537201E+04  0.19999999583E+01 0.  0.
        -13    1    3    3    0    0 -0.86254337301E+01  0.62756015957E+01  0.40224680156E+02  0.41615109517E+02  0.10566000000E+00 0.  1.
         13    1    4    4    0    0  0.47733156891E+01 -0.31312814130E+01  0.13483910725E+04  0.13484031612E+04  0.10566000000E+00 0. -1.
        -13    1    4    4    0    0  0.21462671942E+00 -0.18267796875E-01  0.24403206634E+02  0.24404386007E+02  0.10566000000E+00 0. -1.
        -14    1    4    4    0    0  0.36374913215E+01 -0.31260523858E+01  0.12361368684E+04  0.12361461729E+04  0.00000000000E+00 0.  1.
<mgrwt>
<rscale>  0 0.86536243E+02</rscale>
<asrwt>0</asrwt>
<pdfrwt beam="1">  1        2 0.40766172E+00 0.86536243E+02</pdfrwt>
<pdfrwt beam="2">  1       -1 0.10869497E-03 0.86536243E+02</pdfrwt>
<totfact> 0.15404780E+05</totfact>
</mgrwt>
</event>
<event>
 8    1  0.1655868E-017  0.7663885E+02  0.7818608E-02  0.1338870E+00
         -1   -1    0    0    0  501 -0.00000000000E+00  0.00000000000E+00  0.16417295053E+01  0.16417372416E+01  0.50400000000E-02 0.  1.
          2   -1    0    0  501    0  0.00000000000E+00 -0.00000000000E+00 -0.89440727500E+03  0.89440727501E+03  0.25500000000E-02 0. -1.
         24    2    1    2    0    0  0.00000000000E+00  0.00000000000E+00 -0.89276554550E+03  0.89604901225E+03  0.76638848656E+02 0.  0.
         66    2    3    3    0    0  0.12724899807E+02  0.11997380481E+02 -0.84498364934E+03  0.84516698224E+03  0.20000000375E+01 0.  0.
        -13    1    3    3    0    0 -0.12724899807E+02 -0.11997380481E+02 -0.47781896160E+02  0.50882030012E+02  0.10566000000E+00 0.  1.
         13    1    4    4    0    0  0.38598635784E+01  0.32008898371E+01 -0.24838984143E+03  0.24844047322E+03  0.10566000000E+00 0. -1.
        -13    1    4    4    0    0  0.49825094115E+01  0.48334352746E+01 -0.36717640222E+03  0.36724203056E+03  0.10566000000E+00 0.  1.
        -14    1    4    4    0    0  0.38825268169E+01  0.39630553692E+01 -0.22941740568E+03  0.22948447846E+03  0.00000000000E+00 0.  1.
<mgrwt>
<rscale>  0 0.76638849E+02</rscale>
<asrwt>0</asrwt>
<pdfrwt beam="1">  1        2 0.13760073E+00 0.76638849E+02</pdfrwt>
<pdfrwt beam="2">  1       -1 0.25257508E-03 0.76638849E+02</pdfrwt>
<totfact> 0.39030135E+05</totfact>
</mgrwt>
</event>
<event>
 8    1  0.1520917E-017  0.8037044E+02  0.7818608E-02  0.1328003E+00
         -1   -1    0    0    0  501 -0.00000000000E+00  0.00000000000E+00  0.51928498477E+02  0.51928498722E+02  0.50400000000E-02 0.  1.
          2   -1    0    0  501    0  0.00000000000E+00 -0.00000000000E+00 -0.31097606846E+02  0.31097606950E+02  0.25500000000E-02 0. -1.
         24    2    1    2    0    0 -0.35527136788E-14 -0.35527136788E-14  0.20830891632E+02  0.83026105672E+02  0.80370443428E+02 0.  0.
         66    2    3    3    0    0 -0.29242524535E+02  0.27033784763E+02  0.50643462657E+01  0.40194506629E+02  0.20000000599E+01 0.  0.
        -13    1    3    3    0    0  0.29242524535E+02 -0.27033784763E+02  0.15766545366E+02  0.42831599043E+02  0.10566000000E+00 0.  1.
         13    1    4    4    0    0 -0.39385432477E+01  0.35629130690E+01  0.41793099136E+00  0.53284428120E+01  0.10566000000E+00 0. -1.
        -13    1    4    4    0    0 -0.91261982836E-01  0.20304806830E+00  0.42179040574E-01  0.25000074923E+00  0.10566000000E+00 0.  1.
         14    1    4    4    0    0 -0.25212719304E+02  0.23267823625E+02  0.46042362338E+01  0.34616063067E+02  0.00000000000E+00 0. -1.
<mgrwt>
<rscale>  0 0.80370443E+02</rscale>
<asrwt>0</asrwt>
<pdfrwt beam="1">  1        2 0.47842473E-02 0.80370443E+02</pdfrwt>
<pdfrwt beam="2">  1       -1 0.79889997E-02 0.80370443E+02</pdfrwt>
<totfact> 0.13377039E+05</totfact>
</mgrwt>
</event>
<event>
 8    1  0.1520917E-017  0.7775779E+02  0.7818608E-02  0.1335538E+00
         -1   -1    0    0    0  501 -0.00000000000E+00  0.00000000000E+00  0.24843110410E+02  0.24843110921E+02  0.50400000000E-02 0.  1.
          2   -1    0    0  501    0  0.00000000000E+00 -0.00000000000E+00 -0.60844573208E+02  0.60844573261E+02  0.25500000000E-02 0. -1.
         24    2    1    2    0    0  0.00000000000E+00  0.00000000000E+00 -0.36001462798E+02  0.85687684182E+02  0.77757789944E+02 0.  0.
         66    2    3    3    0    0 -0.21584122643E+02 -0.17595907826E+02 -0.47869471303E+02  0.55416392297E+02  0.19999824726E+01 0.  0.
        -13    1    3    3    0    0  0.21584122643E+02  0.17595907826E+02  0.11868008505E+02  0.30271291885E+02  0.10566000000E+00 0.  1.
         13    1    4    4    0    0 -0.13536342252E+02 -0.11574773380E+02 -0.29498008136E+02  0.34457968432E+02  0.10566000000E+00 0. -1.
        -13    1    4    4    0    0 -0.70264263782E+00 -0.27878981056E+00 -0.14253503164E+01  0.16168543518E+01  0.10566000000E+00 0.  1.
         14    1    4    4    0    0 -0.73451377526E+01 -0.57423446351E+01 -0.16946112850E+02  0.19341569514E+02  0.00000000000E+00 0. -1.
<mgrwt>
<rscale>  0 0.77757790E+02</rscale>
<asrwt>0</asrwt>
<pdfrwt beam="1">  1        2 0.93607036E-02 0.77757790E+02</pdfrwt>
<pdfrwt beam="2">  1       -1 0.38220170E-02 0.77757790E+02</pdfrwt>
<totfact> 0.16869311E+05</totfact>
</mgrwt>
</event>
<event>
 8    1  0.1520917E-017  0.8000857E+02  0.7818608E-02  0.1329027E+00
          2   -1    0    0  501    0  0.00000000000E+00  0.00000000000E+00  0.57274162423E+03  0.57274162423E+03  0.25500000000E-02 0. -1.
         -1   -1    0    0    0  501 -0.00000000000E+00 -0.00000000000E+00 -0.27941768580E+01  0.27941814034E+01  0.50400000000E-02 0.  1.
         24    2    1    2    0    0  0.00000000000E+00  0.22204460493E-15  0.56994744737E+03  0.57553580564E+03  0.80008567083E+02 0.  0.
         66    2    3    3    0    0 -0.16749378755E+02  0.98014040103E+00  0.54618801346E+03  0.54644931001E+03  0.20000011110E+01 0.  0.
        -13    1    3    3    0    0  0.16749378755E+02 -0.98014040103E+00  0.23759433915E+02  0.29086495627E+02  0.10566000000E+00 0.  1.
         13    1    4    4    0    0 -0.79834333580E+01  0.10253611174E+01  0.25515038605E+03  0.25527733397E+03  0.10566000000E+00 0. -1.
        -13    1    4    4    0    0 -0.10045714443E+01  0.22026147625E+00  0.25859469251E+02  0.25880127374E+02  0.10566000000E+00 0. -1.
         14    1    4    4    0    0 -0.77613739523E+01 -0.26548219257E+00  0.26517815815E+03  0.26529184867E+03  0.00000000000E+00 0. -1.
<mgrwt>
<rscale>  0 0.80008567E+02</rscale>
<asrwt>0</asrwt>
<pdfrwt beam="1">  1        2 0.88114199E-01 0.80008567E+02</pdfrwt>
<pdfrwt beam="2">  1       -1 0.42987321E-03 0.80008567E+02</pdfrwt>
<totfact> 0.31731995E+05</totfact>
</mgrwt>
</event>
<event>
 8    1  0.1520917E-017  0.8084007E+02  0.7818608E-02  0.1326684E+00
         -1   -1    0    0    0  501 -0.00000000000E+00  0.00000000000E+00  0.21850653699E+03  0.21850653705E+03  0.50400000000E-02 0.  1.
          2   -1    0    0  501    0  0.00000000000E+00 -0.00000000000E+00 -0.74770274193E+01  0.74770278541E+01  0.25500000000E-02 0. -1.
         24    2    1    2    0    0  0.00000000000E+00 -0.55511151231E-16  0.21102950957E+03  0.22598356491E+03  0.80840074817E+02 0.  0.
         66    2    3    3    0    0  0.36788381680E+02 -0.50828388063E-01  0.58937444151E+02  0.69505466953E+02  0.20000007943E+01 0.  0.
        -13    1    3    3    0    0 -0.36788381680E+02  0.50828388063E-01  0.15209206542E+03  0.15647809795E+03  0.10566000000E+00 0.  1.
         13    1    4    4    0    0  0.21009650350E+02 -0.50781687141E-01  0.32538160984E+02  0.38731783729E+02  0.10566000000E+00 0. -1.
        -13    1    4    4    0    0  0.26682538797E+01 -0.31240468600E+00  0.40590351077E+01  0.48686862187E+01  0.10566000000E+00 0. -1.
        -14    1    4    4    0    0  0.13110477450E+02  0.31235798508E+00  0.22340248059E+02  0.25904997005E+02  0.00000000000E+00 0.  1.
<mgrwt>
<rscale>  0 0.80840075E+02</rscale>
<asrwt>0</asrwt>
<pdfrwt beam="1">  1        2 0.11503122E-02 0.80840075E+02</pdfrwt>
<pdfrwt beam="2">  1       -1 0.33616384E-01 0.80840075E+02</pdfrwt>
<totfact> 0.94347826E+04</totfact>
</mgrwt>
</event>
<event>
 8    1  0.1520917E-017  0.8418108E+02  0.7818608E-02  0.1317588E+00
         -1   -1    0    0    0  501 -0.00000000000E+00  0.00000000000E+00  0.25562106639E+01  0.25562156325E+01  0.50400000000E-02 0.  1.
          2   -1    0    0  501    0  0.00000000000E+00 -0.00000000000E+00 -0.69306175042E+03  0.69306175042E+03  0.25500000000E-02 0. -1.
         24    2    1    2    0    0 -0.11102230246E-15  0.00000000000E+00 -0.69050553975E+03  0.69561796605E+03  0.84181080223E+02 0.  0.
         66    2    3    3    0    0  0.89953538921E+00  0.25177653316E+02 -0.62382340347E+03  0.62433513605E+03  0.19999991384E+01 0.  0.
        -13    1    3    3    0    0 -0.89953538921E+00 -0.25177653316E+02 -0.66682136284E+02  0.71282830008E+02  0.10566000000E+00 0.  1.
         13    1    4    4    0    0  0.12002805440E+00  0.17789079930E+01 -0.54967296720E+02  0.54996307086E+02  0.10566000000E+00 0. -1.
        -13    1    4    4    0    0  0.63351869525E-01  0.14645701053E+01 -0.42537554058E+02  0.42562937496E+02  0.10566000000E+00 0.  1.
         14    1    4    4    0    0  0.71615546529E+00  0.21934175218E+02 -0.52631855269E+03  0.52677589146E+03  0.00000000000E+00 0. -1.
<mgrwt>
<rscale>  0 0.84181080E+02</rscale>
<asrwt>0</asrwt>
<pdfrwt beam="1">  1        2 0.10662473E+00 0.84181080E+02</pdfrwt>
<pdfrwt beam="2">  1       -1 0.39326412E-03 0.84181080E+02</pdfrwt>
<totfact> 0.29225282E+05</totfact>
</mgrwt>
</event>
<event>
 8    1  0.1520917E-017  0.7926033E+02  0.7818608E-02  0.1331164E+00
         -1   -1    0    0    0  501 -0.00000000000E+00  0.00000000000E+00  0.22904873190E+02  0.22904873744E+02  0.50400000000E-02 0.  1.
          2   -1    0    0  501    0  0.00000000000E+00 -0.00000000000E+00 -0.68568375649E+02  0.68568375696E+02  0.25500000000E-02 0. -1.
         24    2    1    2    0    0  0.00000000000E+00  0.00000000000E+00 -0.45663502459E+02  0.91473249440E+02  0.79260329966E+02 0.  0.
         66    2    3    3    0    0  0.86983033621E+01 -0.17429804732E+02 -0.62642754306E+02  0.65632105276E+02  0.20000003832E+01 0.  0.
        -13    1    3    3    0    0 -0.86983033621E+01  0.17429804732E+02  0.16979251847E+02  0.25841144164E+02  0.10566000000E+00 0.  1.
         13    1    4    4    0    0  0.57494890658E+01 -0.98559935726E+01 -0.36079251551E+02  0.37840729252E+02  0.10566000000E+00 0. -1.
        -13    1    4    4    0    0  0.14135089611E+01 -0.40342937160E+01 -0.15246854090E+02  0.15835127314E+02  0.10566000000E+00 0.  1.
         14    1    4    4    0    0  0.15353053352E+01 -0.35395174434E+01 -0.11316648665E+02  0.11956248710E+02  0.00000000000E+00 0. -1.
<mgrwt>
<rscale>  0 0.79260330E+02</rscale>
<asrwt>0</asrwt>
<pdfrwt beam="1">  1        2 0.10548981E-01 0.79260330E+02</pdfrwt>
<pdfrwt beam="2">  1       -1 0.35238267E-02 0.79260330E+02</pdfrwt>
<totfact> 0.16474633E+05</totfact>
</mgrwt>
</event>
<event>
 8    1  0.1520917E-017  0.8035045E+02  0.7818608E-02  0.1328060E+00
          2   -1    0    0  501    0  0.00000000000E+00  0.00000000000E+00  0.14182443952E+03  0.14182443954E+03  0.25500000000E-02 0. -1.
         -1   -1    0    0    0  501 -0.00000000000E+00 -0.00000000000E+00 -0.11380608846E+02  0.11380609962E+02  0.50400000000E-02 0.  1.
         24    2    1    2    0    0  0.00000000000E+00  0.00000000000E+00  0.13044383067E+03  0.15320504950E+03  0.80350446374E+02 0.  0.
         66    2    3    3    0    0  0.16082347219E+02  0.21098875319E+02  0.12272476180E+03  0.12557536221E+03  0.20000007447E+01 0.  0.
        -13    1    3    3    0    0 -0.16082347219E+02 -0.21098875319E+02  0.77190688748E+01  0.27629687297E+02  0.10566000000E+00 0.  1.
         13    1    4    4    0    0  0.10269530105E+02  0.13039802965E+02  0.75231450251E+02  0.77040781284E+02  0.10566000000E+00 0. -1.
        -13    1    4    4    0    0  0.38311648058E+01  0.44148146575E+01  0.28534647394E+02  0.29127404247E+02  0.10566000000E+00 0.  1.
        -14    1    4    4    0    0  0.19816523082E+01  0.36442576960E+01  0.18958664153E+02  0.19407176675E+02  0.00000000000E+00 0.  1.
<mgrwt>
<rscale>  0 0.80350446E+02</rscale>
<asrwt>0</asrwt>
<pdfrwt beam="1">  1        2 0.21819144E-01 0.80350446E+02</pdfrwt>
<pdfrwt beam="2">  1       -1 0.17508631E-02 0.80350446E+02</pdfrwt>
<totfact> 0.19447318E+05</totfact>
</mgrwt>
</event>
<event>
 8    1  0.1715029E-017  0.7843276E+02  0.7818608E-02  0.1333559E+00
         -1   -1    0    0    0  501 -0.00000000000E+00  0.00000000000E+00  0.16153570616E+01  0.16153649242E+01  0.50400000000E-02 0.  1.
          2   -1    0    0  501    0  0.00000000000E+00 -0.00000000000E+00 -0.95206238831E+03  0.95206238832E+03  0.25500000000E-02 0. -1.
         24    2    1    2    0    0  0.35527136788E-14  0.00000000000E+00 -0.95044703125E+03  0.95367775324E+03  0.78432759810E+02 0.  0.
         66    2    3    3    0    0 -0.28422108499E+02 -0.12990108146E+02 -0.76310590688E+03  0.76374811573E+03  0.20000001588E+01 0.  0.
        -13    1    3    3    0    0  0.28422108499E+02  0.12990108146E+02 -0.18734112437E+03  0.18992963751E+03  0.10566000000E+00 0.  1.
         13    1    4    4    0    0 -0.22162606228E+02 -0.99056019815E+01 -0.59093320949E+03  0.59143162860E+03  0.10566000000E+00 0. -1.
        -13    1    4    4    0    0 -0.53867137143E+01 -0.23247621583E+01 -0.14748772127E+03  0.14760440472E+03  0.10566000000E+00 0.  1.
        -14    1    4    4    0    0 -0.87278855629E+00 -0.75974400605E+00 -0.24684976113E+02  0.24712082399E+02  0.00000000000E+00 0.  1.
<mgrwt>
<rscale>  0 0.78432760E+02</rscale>
<asrwt>0</asrwt>
<pdfrwt beam="1">  1        2 0.14647069E+00 0.78432760E+02</pdfrwt>
<pdfrwt beam="2">  1       -1 0.24851784E-03 0.78432760E+02</pdfrwt>
<totfact> 0.36979382E+05</totfact>
</mgrwt>
</event>
<event>
 8    1  0.1520917E-017  0.8083729E+02  0.7818608E-02  0.1326692E+00
         -1   -1    0    0    0  501 -0.00000000000E+00  0.00000000000E+00  0.35952111441E+02  0.35952111794E+02  0.50400000000E-02 0.  1.
          2   -1    0    0  501    0  0.00000000000E+00 -0.00000000000E+00 -0.45440077500E+02  0.45440077572E+02  0.25500000000E-02 0. -1.
         24    2    1    2    0    0 -0.17763568394E-14  0.00000000000E+00 -0.94879660589E+01  0.81392189366E+02  0.80837287126E+02 0.  0.
         66    2    3    3    0    0  0.14772671894E+02 -0.32980002064E+02 -0.22919302115E+02  0.42839312388E+02  0.19999763555E+01 0.  0.
        -13    1    3    3    0    0 -0.14772671894E+02  0.32980002064E+02  0.13431336056E+02  0.38552876978E+02  0.10566000000E+00 0.  1.
         13    1    4    4    0    0  0.91925659264E+00 -0.20352592705E+01 -0.18652650521E+01  0.29116474257E+01  0.10566000000E+00 0.  1.
        -13    1    4    4    0    0  0.35575716938E+01 -0.91883879463E+01 -0.58998820158E+01  0.11484884033E+02  0.10566000000E+00 0.  1.
         14    1    4    4    0    0  0.10295843608E+02 -0.21756354847E+02 -0.15154155047E+02  0.28442780930E+02  0.00000000000E+00 0. -1.
<mgrwt>
<rscale>  0 0.80837287E+02</rscale>
<asrwt>0</asrwt>
<pdfrwt beam="1">  1        2 0.69907812E-02 0.80837287E+02</pdfrwt>
<pdfrwt beam="2">  1       -1 0.55310941E-02 0.80837287E+02</pdfrwt>
<totfact> 0.14225884E+05</totfact>
</mgrwt>
</event>
<event>
 8    1  0.1520917E-017  0.8464691E+02  0.7818608E-02  0.1316359E+00
          2   -1    0    0  501    0  0.00000000000E+00  0.00000000000E+00  0.17029701307E+03  0.17029701309E+03  0.25500000000E-02 0. -1.
         -1   -1    0    0    0  501 -0.00000000000E+00 -0.00000000000E+00 -0.10518531678E+02  0.10518532885E+02  0.50400000000E-02 0.  1.
         24    2    1    2    0    0 -0.88817841970E-15  0.00000000000E+00  0.15977848139E+03  0.18081554597E+03  0.84646905140E+02 0.  0.
         66    2    3    3    0    0 -0.69645779814E+01 -0.13771469019E+02  0.16406278931E+03  0.16479914301E+03  0.19999988613E+01 0.  0.
        -13    1    3    3    0    0  0.69645779814E+01  0.13771469019E+02 -0.42843079205E+01  0.16016402961E+02  0.10566000000E+00 0.  1.
         13    1    4    4    0    0 -0.70188114212E+00 -0.16334527619E+01  0.24382853808E+02  0.24447812355E+02  0.10566000000E+00 0. -1.
        -13    1    4    4    0    0 -0.11813639027E+01 -0.30867169383E+01  0.30255973215E+02  0.30436138411E+02  0.10566000000E+00 0.  1.
        -14    1    4    4    0    0 -0.50813329366E+01 -0.90512993191E+01  0.10942396229E+03  0.10991519225E+03  0.00000000000E+00 0.  1.
<mgrwt>
<rscale>  0 0.84646905E+02</rscale>
<asrwt>0</asrwt>
<pdfrwt beam="1">  1        2 0.26199541E-01 0.84646905E+02</pdfrwt>
<pdfrwt beam="2">  1       -1 0.16182357E-02 0.84646905E+02</pdfrwt>
<totfact> 0.17974809E+05</totfact>
</mgrwt>
</event>
<event>
 8    1  0.1520917E-017  0.8412784E+02  0.7818608E-02  0.1317729E+00
         -1   -1    0    0    0  501 -0.00000000000E+00  0.00000000000E+00  0.16459892052E+02  0.16459892824E+02  0.50400000000E-02 0.  1.
          2   -1    0    0  501    0  0.00000000000E+00 -0.00000000000E+00 -0.10749603683E+03  0.10749603686E+03  0.25500000000E-02 0. -1.
         24    2    1    2    0    0  0.35527136788E-14  0.71054273576E-14 -0.91036144781E+02  0.12395592969E+03  0.84127836345E+02 0.  0.
         66    2    3    3    0    0  0.16762245500E+02  0.38194390541E+02 -0.37805256280E+02  0.56329581289E+02  0.19999956963E+01 0.  0.
        -13    1    3    3    0    0 -0.16762245500E+02 -0.38194390541E+02 -0.53230888501E+02  0.67626348398E+02  0.10566000000E+00 0.  1.
         13    1    4    4    0    0  0.89227544357E+00  0.14917160878E+01 -0.15150162505E+01  0.23082050664E+01  0.10566000000E+00 0. -1.
        -13    1    4    4    0    0  0.30065953884E+01  0.85508071417E+01 -0.83346120245E+01  0.12313928709E+02  0.10566000000E+00 0.  1.
         14    1    4    4    0    0  0.12863374668E+02  0.28151867312E+02 -0.27955628005E+02  0.41707447514E+02  0.00000000000E+00 0. -1.
<mgrwt>
<rscale>  0 0.84127836E+02</rscale>
<asrwt>0</asrwt>
<pdfrwt beam="1">  1        2 0.16537851E-01 0.84127836E+02</pdfrwt>
<pdfrwt beam="2">  1       -1 0.25322912E-02 0.84127836E+02</pdfrwt>
<totfact> 0.15809404E+05</totfact>
</mgrwt>
</event>
<event>
 8    1  0.1520917E-017  0.8062219E+02  0.7818608E-02  0.1327295E+00
          2   -1    0    0  501    0  0.00000000000E+00  0.00000000000E+00  0.27337871254E+01  0.27337883147E+01  0.25500000000E-02 0. -1.
         -1   -1    0    0    0  501 -0.00000000000E+00 -0.00000000000E+00 -0.59440765222E+03  0.59440765224E+03  0.50400000000E-02 0.  1.
         24    2    1    2    0    0  0.00000000000E+00 -0.35527136788E-14 -0.59167386510E+03  0.59714144056E+03  0.80622189213E+02 0.  0.
         66    2    3    3    0    0  0.28185029305E+02 -0.21809749971E+02 -0.43516095288E+03  0.43662239519E+03  0.20000002226E+01 0.  0.
        -13    1    3    3    0    0 -0.28185029305E+02  0.21809749971E+02 -0.15651291222E+03  0.16051904537E+03  0.10566000000E+00 0.  1.
         13    1    4    4    0    0  0.18231375331E+02 -0.13461430260E+02 -0.26785727051E+03  0.26881428846E+03  0.10566000000E+00 0. -1.
        -13    1    4    4    0    0  0.55757703372E+00 -0.41591539285E+00 -0.85582647563E+01  0.85871379072E+01  0.10566000000E+00 0. -1.
         14    1    4    4    0    0  0.93960769405E+01 -0.79324043185E+01 -0.15874541762E+03  0.15922096883E+03  0.00000000000E+00 0. -1.
<mgrwt>
<rscale>  0 0.80622189E+02</rscale>
<asrwt>0</asrwt>
<pdfrwt beam="1">  1        2 0.42058320E-03 0.80622189E+02</pdfrwt>
<pdfrwt beam="2">  1       -1 0.91447228E-01 0.80622189E+02</pdfrwt>
<totfact> 0.58243925E+04</totfact>
</mgrwt>
</event>
<event>
 8    1  0.1593211E-017  0.8217493E+02  0.7818608E-02  0.1322990E+00
         -1   -1    0    0    0  501 -0.00000000000E+00  0.00000000000E+00  0.13360801589E+01  0.13360896649E+01  0.50400000000E-02 0.  1.
          2   -1    0    0  501    0  0.00000000000E+00 -0.00000000000E+00 -0.12635274017E+04  0.12635274018E+04  0.25500000000E-02 0. -1.
         24    2    1    2    0    0 -0.17763568394E-14 -0.88817841970E-15 -0.12621913216E+04  0.12648634914E+04  0.82174933044E+02 0.  0.
         66    2    3    3    0    0  0.14827720861E+02 -0.41664362794E+01 -0.12173794605E+04  0.12174785301E+04  0.19999995311E+01 0.  0.
        -13    1    3    3    0    0 -0.14827720861E+02  0.41664362794E+01 -0.44811861105E+02  0.47384961295E+02  0.10566000000E+00 0.  1.
         13    1    4    4    0    0  0.79021073812E+01 -0.22467034073E+01 -0.67974427805E+03  0.67979392884E+03  0.10566000000E+00 0. -1.
        -13    1    4    4    0    0  0.66469703361E+01 -0.16039221471E+01 -0.51605956996E+03  0.51610487857E+03  0.10566000000E+00 0.  1.
        -14    1    4    4    0    0  0.27864314404E+00 -0.31581072502E+00 -0.21575612480E+02  0.21579722711E+02  0.00000000000E+00 0.  1.
<mgrwt>
<rscale>  0 0.82174933E+02</rscale>
<asrwt>0</asrwt>
<pdfrwt beam="1">  1        2 0.19438788E+00 0.82174933E+02</pdfrwt>
<pdfrwt beam="2">  1       -1 0.20555254E-03 0.82174933E+02</pdfrwt>
<totfact> 0.32448806E+05</totfact>
</mgrwt>
</event>
<event>
 8    1  0.1520917E-017  0.7856720E+02  0.7818608E-02  0.1333167E+00
          2   -1    0    0  501    0  0.00000000000E+00  0.00000000000E+00  0.83092100264E+03  0.83092100265E+03  0.25500000000E-02 0. -1.
         -1   -1    0    0    0  501 -0.00000000000E+00 -0.00000000000E+00 -0.18572141873E+01  0.18572210260E+01  0.50400000000E-02 0.  1.
         24    2    1    2    0    0  0.35527136788E-14  0.00000000000E+00  0.82906378845E+03  0.83277822367E+03  0.78567197324E+02 0.  0.
         66    2    3    3    0    0 -0.30646615368E+02 -0.13586237090E+02  0.63135160556E+03  0.63224413854E+03  0.19999999018E+01 0.  0.
        -13    1    3    3    0    0  0.30646615368E+02  0.13586237090E+02  0.19771218289E+03  0.20053408513E+03  0.10566000000E+00 0.  1.
         13    1    4    4    0    0 -0.21737476417E+02 -0.93447511092E+01  0.44849220466E+03  0.44911592163E+03  0.10566000000E+00 0. -1.
        -13    1    4    4    0    0 -0.68073353877E+01 -0.36845047607E+01  0.14467014003E+03  0.14487710644E+03  0.10566000000E+00 0.  1.
         14    1    4    4    0    0 -0.21018035638E+01 -0.55698122040E+00  0.38189260862E+02  0.38251110461E+02  0.00000000000E+00 0. -1.
<mgrwt>
<rscale>  0 0.78567197E+02</rscale>
<asrwt>0</asrwt>
<pdfrwt beam="1">  1        2 0.12783398E+00 0.78567197E+02</pdfrwt>
<pdfrwt beam="2">  1       -1 0.28572584E-03 0.78567197E+02</pdfrwt>
<totfact> 0.36239234E+05</totfact>
</mgrwt>
</event>
<event>
 8    1  0.1520917E-017  0.7914037E+02  0.7818608E-02  0.1331509E+00
          2   -1    0    0  501    0  0.00000000000E+00  0.00000000000E+00  0.87512403624E+01  0.87512407339E+01  0.25500000000E-02 0. -1.
         -1   -1    0    0    0  501 -0.00000000000E+00 -0.00000000000E+00 -0.17892314153E+03  0.17892314160E+03  0.50400000000E-02 0.  1.
         24    2    1    2    0    0 -0.35527136788E-14  0.35527136788E-14 -0.17017190117E+03  0.18767438234E+03  0.79140367941E+02 0.  0.
         66    2    3    3    0    0  0.24223101944E+02 -0.30346008701E+02 -0.67369482995E+02  0.77783585368E+02  0.20000004530E+01 0.  0.
        -13    1    3    3    0    0 -0.24223101944E+02  0.30346008701E+02 -0.10280241817E+03  0.10989079697E+03  0.10566000000E+00 0.  1.
         13    1    4    4    0    0  0.15624984316E+02 -0.20894584120E+02 -0.45062004092E+02  0.52070328953E+02  0.10566000000E+00 0. -1.
        -13    1    4    4    0    0  0.13440097999E+01 -0.15453368247E+01 -0.32540544713E+01  0.38463570793E+01  0.10566000000E+00 0.  1.
         14    1    4    4    0    0  0.72541078282E+01 -0.79060877567E+01 -0.19053424432E+02  0.21866899336E+02  0.00000000000E+00 0. -1.
<mgrwt>
<rscale>  0 0.79140368E+02</rscale>
<asrwt>0</asrwt>
<pdfrwt beam="1">  1        2 0.13463448E-02 0.79140368E+02</pdfrwt>
<pdfrwt beam="2">  1       -1 0.27526635E-01 0.79140368E+02</pdfrwt>
<totfact> 0.10575931E+05</totfact>
</mgrwt>
</event>
<event>
 8    1  0.1520917E-017  0.7823983E+02  0.7818608E-02  0.1334122E+00
         -1   -1    0    0    0  501 -0.00000000000E+00  0.00000000000E+00  0.36619476481E+01  0.36619511164E+01  0.50400000000E-02 0.  1.
          2   -1    0    0  501    0  0.00000000000E+00 -0.00000000000E+00 -0.41791069169E+03  0.41791069170E+03  0.25500000000E-02 0. -1.
         24    2    1    2    0    0  0.00000000000E+00  0.00000000000E+00 -0.41424874404E+03  0.42157264281E+03  0.78239831474E+02 0.  0.
         66    2    3    3    0    0 -0.21767875112E+01  0.34421877965E+02 -0.30643150508E+03  0.30837294199E+03  0.19999889797E+01 0.  0.
        -13    1    3    3    0    0  0.21767875112E+01 -0.34421877965E+02 -0.10781723896E+03  0.11319970083E+03  0.10566000000E+00 0.  1.
         13    1    4    4    0    0 -0.15082668458E+01  0.11026142876E+02 -0.99013005806E+02  0.99636525323E+02  0.10566000000E+00 0. -1.
        -13    1    4    4    0    0 -0.53017879026E-01  0.13021113819E+01 -0.13027694712E+02  0.13093139368E+02  0.10566000000E+00 0. -1.
        -14    1    4    4    0    0 -0.61550278638E+00  0.22093623708E+02 -0.19439080456E+03  0.19564327730E+03  0.00000000000E+00 0.  1.
<mgrwt>
<rscale>  0 0.78239831E+02</rscale>
<asrwt>0</asrwt>
<pdfrwt beam="1">  1        2 0.64293915E-01 0.78239831E+02</pdfrwt>
<pdfrwt beam="2">  1       -1 0.56337716E-03 0.78239831E+02</pdfrwt>
<totfact> 0.30400490E+05</totfact>
</mgrwt>
</event>
<event>
 8    1  0.1520917E-017  0.7980600E+02  0.7818608E-02  0.1329603E+00
         -1   -1    0    0    0  501 -0.00000000000E+00  0.00000000000E+00  0.16781629720E+02  0.16781630477E+02  0.50400000000E-02 0.  1.
          2   -1    0    0  501    0  0.00000000000E+00 -0.00000000000E+00 -0.94880491461E+02  0.94880491495E+02  0.25500000000E-02 0. -1.
         24    2    1    2    0    0  0.00000000000E+00  0.00000000000E+00 -0.78098861740E+02  0.11166212197E+03  0.79805997758E+02 0.  0.
         66    2    3    3    0    0 -0.18582510781E+02  0.10914547898E+02 -0.86020295789E+02  0.88701343584E+02  0.20000008145E+01 0.  0.
        -13    1    3    3    0    0  0.18582510781E+02 -0.10914547898E+02  0.79214340491E+01  0.22960778388E+02  0.10566000000E+00 0.  1.
         13    1    4    4    0    0 -0.76906959701E+01  0.39980937571E+01 -0.33671560546E+02  0.34769479602E+02  0.10566000000E+00 0. -1.
        -13    1    4    4    0    0 -0.98581427546E+01  0.65987301372E+01 -0.48846830394E+02  0.50266790444E+02  0.10566000000E+00 0.  1.
        -14    1    4    4    0    0 -0.10336720560E+01  0.31772400418E+00 -0.35019048496E+01  0.36650735379E+01  0.00000000000E+00 0.  1.
<mgrwt>
<rscale>  0 0.79805998E+02</rscale>
<asrwt>0</asrwt>
<pdfrwt beam="1">  1        2 0.14596998E-01 0.79805998E+02</pdfrwt>
<pdfrwt beam="2">  1       -1 0.25817893E-02 0.79805998E+02</pdfrwt>
<totfact> 0.17583687E+05</totfact>
</mgrwt>
</event>
<event>
 8    1  0.1520917E-017  0.7981255E+02  0.7818608E-02  0.1329584E+00
          2   -1    0    0  501    0  0.00000000000E+00  0.00000000000E+00  0.19354444696E+04  0.19354444696E+04  0.25500000000E-02 0. -1.
         -1   -1    0    0    0  501 -0.00000000000E+00 -0.00000000000E+00 -0.82280636065E+00  0.82282179646E+00  0.50400000000E-02 0.  1.
         24    2    1    2    0    0 -0.17763568394E-14  0.00000000000E+00  0.19346216632E+04  0.19362672914E+04  0.79812554546E+02 0.  0.
         66    2    3    3    0    0  0.14391492366E+02 -0.87675078483E+01  0.18448212969E+04  0.18448993473E+04  0.19999998234E+01 0.  0.
        -13    1    3    3    0    0 -0.14391492366E+02  0.87675078483E+01  0.89800366349E+02  0.91367944088E+02  0.10566000000E+00 0.  1.
         13    1    4    4    0    0  0.31118471693E+01 -0.21638433198E+01  0.37164903426E+03  0.37166837590E+03  0.10566000000E+00 0. -1.
        -13    1    4    4    0    0  0.46323203051E+01 -0.34789070781E+01  0.68216668356E+03  0.68219129026E+03  0.10566000000E+00 0. -1.
         14    1    4    4    0    0  0.66473248917E+01 -0.31247574505E+01  0.79100557903E+03  0.79103968112E+03  0.00000000000E+00 0. -1.
<mgrwt>
<rscale>  0 0.79812555E+02</rscale>
<asrwt>0</asrwt>
<pdfrwt beam="1">  1        2 0.29775389E+00 0.79812555E+02</pdfrwt>
<pdfrwt beam="2">  1       -1 0.12658967E-03 0.79812555E+02</pdfrwt>
<totfact> 0.28757613E+05</totfact>
</mgrwt>
</event>
<event>
 8    1  0.1520917E-017  0.8063277E+02  0.7818608E-02  0.1327265E+00
         -1   -1    0    0    0  501 -0.00000000000E+00  0.00000000000E+00  0.21247166645E+01  0.21247226421E+01  0.50400000000E-02 0.  1.
          2   -1    0    0  501    0  0.00000000000E+00 -0.00000000000E+00 -0.76500016995E+03  0.76500016995E+03  0.25500000000E-02 0. -1.
         24    2    1    2    0    0  0.17763568394E-14  0.35527136788E-14 -0.76287545328E+03  0.76712489259E+03  0.80632770109E+02 0.  0.
         66    2    3    3    0    0 -0.11164921769E+02 -0.23600096717E+02 -0.67363660388E+03  0.67414530639E+03  0.20000006636E+01 0.  0.
        -13    1    3    3    0    0  0.11164921769E+02  0.23600096717E+02 -0.89238849405E+02  0.92979586202E+02  0.10566000000E+00 0.  1.
         13    1    4    4    0    0 -0.15882893191E+01 -0.39128018133E+01 -0.96245856871E+02  0.96338511562E+02  0.10566000000E+00 0. -1.
        -13    1    4    4    0    0 -0.36678558319E+01 -0.82244881192E+01 -0.24994704870E+03  0.25010924351E+03  0.10566000000E+00 0.  1.
         14    1    4    4    0    0 -0.59087766175E+01 -0.11462806785E+02 -0.32744369831E+03  0.32769755132E+03  0.00000000000E+00 0. -1.
<mgrwt>
<rscale>  0 0.80632770E+02</rscale>
<asrwt>0</asrwt>
<pdfrwt beam="1">  1        2 0.11769211E+00 0.80632770E+02</pdfrwt>
<pdfrwt beam="2">  1       -1 0.32688056E-03 0.80632770E+02</pdfrwt>
<totfact> 0.33394756E+05</totfact>
</mgrwt>
</event>
<event>
 8    1  0.1520917E-017  0.7929548E+02  0.7818608E-02  0.1331063E+00
         -1   -1    0    0    0  501 -0.00000000000E+00  0.00000000000E+00  0.66690960108E+02  0.66690960298E+02  0.50400000000E-02 0.  1.
          2   -1    0    0  501    0  0.00000000000E+00 -0.00000000000E+00 -0.23570557000E+02  0.23570557138E+02  0.25500000000E-02 0. -1.
         24    2    1    2    0    0 -0.35527136788E-14  0.00000000000E+00  0.43120403108E+02  0.90261517436E+02  0.79295475064E+02 0.  0.
         66    2    3    3    0    0  0.28779139597E+02 -0.11483155808E+02 -0.65361244582E+01  0.31730468947E+02  0.19999983600E+01 0.  0.
        -13    1    3    3    0    0 -0.28779139597E+02  0.11483155808E+02  0.49656527566E+02  0.58531048489E+02  0.10566000000E+00 0.  1.
         13    1    4    4    0    0  0.19897674803E+02 -0.87251698400E+01 -0.44140112956E+01  0.22170717423E+02  0.10566000000E+00 0. -1.
        -13    1    4    4    0    0  0.30794467710E+01 -0.97564570328E+00 -0.44365269518E+00  0.32623409851E+01  0.10566000000E+00 0.  1.
        -14    1    4    4    0    0  0.58020180232E+01 -0.17823402643E+01 -0.16784604673E+01  0.62974105393E+01  0.00000000000E+00 0.  1.
<mgrwt>
<rscale>  0 0.79295475E+02</rscale>
<asrwt>0</asrwt>
<pdfrwt beam="1">  1        2 0.36262395E-02 0.79295475E+02</pdfrwt>
<pdfrwt beam="2">  1       -1 0.10260148E-01 0.79295475E+02</pdfrwt>
<totfact> 0.13156509E+05</totfact>
</mgrwt>
</event>
<event>
 8    1  0.1520917E-017  0.7987228E+02  0.7818608E-02  0.1329414E+00
          2   -1    0    0  501    0  0.00000000000E+00  0.00000000000E+00  0.16991602666E+02  0.16991602857E+02  0.25500000000E-02 0. -1.
         -1   -1    0    0    0  501 -0.00000000000E+00 -0.00000000000E+00 -0.93863741491E+02  0.93863741627E+02  0.50400000000E-02 0.  1.
         24    2    1    2    0    0  0.00000000000E+00  0.00000000000E+00 -0.76872138826E+02  0.11085534448E+03  0.79872283509E+02 0.  0.
         66    2    3    3    0    0  0.38463122232E+02 -0.87348827306E+01 -0.29997221174E+02  0.49593782171E+02  0.20000009227E+01 0.  0.
        -13    1    3    3    0    0 -0.38463122232E+02  0.87348827306E+01 -0.46874917651E+02  0.61261562313E+02  0.10566000000E+00 0.  1.
         13    1    4    4    0    0  0.19665871232E+02 -0.41526335876E+01 -0.15667545089E+02  0.25484779579E+02  0.10566000000E+00 0. -1.
        -13    1    4    4    0    0  0.83871086637E+01 -0.14145033805E+01 -0.61923194742E+01  0.10521425572E+02  0.10566000000E+00 0.  1.
         14    1    4    4    0    0  0.10410142336E+02 -0.31677457625E+01 -0.81373566109E+01  0.13587577020E+02  0.00000000000E+00 0. -1.
<mgrwt>
<rscale>  0 0.79872284E+02</rscale>
<asrwt>0</asrwt>
<pdfrwt beam="1">  1        2 0.26140928E-02 0.79872284E+02</pdfrwt>
<pdfrwt beam="2">  1       -1 0.14440575E-01 0.79872284E+02</pdfrwt>
<totfact> 0.12061207E+05</totfact>
</mgrwt>
</event>
<event>
 8    1  0.1520917E-017  0.7971721E+02  0.7818608E-02  0.1329856E+00
          2   -1    0    0  501    0  0.00000000000E+00  0.00000000000E+00  0.16043618670E+02  0.16043618873E+02  0.25500000000E-02 0. -1.
         -1   -1    0    0    0  501 -0.00000000000E+00 -0.00000000000E+00 -0.99024304202E+02  0.99024304331E+02  0.50400000000E-02 0.  1.
         24    2    1    2    0    0 -0.71054273576E-14  0.44408920985E-15 -0.82980685532E+02  0.11506792320E+03  0.79717205037E+02 0.  0.
         66    2    3    3    0    0 -0.36780829341E+02  0.37783979317E+01 -0.20126131509E+02  0.42144594814E+02  0.20000011568E+01 0.  0.
        -13    1    3    3    0    0  0.36780829341E+02 -0.37783979317E+01 -0.62854554023E+02  0.72923328389E+02  0.10566000000E+00 0.  1.
         13    1    4    4    0    0 -0.21041843624E+01  0.72114325490E-01 -0.11235964776E+01  0.23888125475E+01  0.10566000000E+00 0. -1.
        -13    1    4    4    0    0 -0.24382871705E+02  0.21029393750E+01 -0.14060943504E+02  0.28225309261E+02  0.10566000000E+00 0.  1.
        -14    1    4    4    0    0 -0.10293773273E+02  0.16033442312E+01 -0.49415915280E+01  0.11530473006E+02  0.00000000000E+00 0.  1.
<mgrwt>
<rscale>  0 0.79717205E+02</rscale>
<asrwt>0</asrwt>
<pdfrwt beam="1">  1        2 0.24682491E-02 0.79717205E+02</pdfrwt>
<pdfrwt beam="2">  1       -1 0.15234508E-01 0.79717205E+02</pdfrwt>
<totfact> 0.11983156E+05</totfact>
</mgrwt>
</event>
<event>
 8    1  0.1520917E-017  0.7927698E+02  0.7818608E-02  0.1331116E+00
         -1   -1    0    0    0  501 -0.00000000000E+00  0.00000000000E+00  0.82781608407E+01  0.82781623750E+01  0.50400000000E-02 0.  1.
          2   -1    0    0  501    0  0.00000000000E+00 -0.00000000000E+00 -0.18980180274E+03  0.18980180276E+03  0.25500000000E-02 0. -1.
         24    2    1    2    0    0 -0.35527136788E-14 -0.17763568394E-14 -0.18152364190E+03  0.19807996513E+03  0.79276982904E+02 0.  0.
         66    2    3    3    0    0  0.26557892130E+02  0.13687661876E+02 -0.15580805672E+03  0.15865946023E+03  0.20000144332E+01 0.  0.
        -13    1    3    3    0    0 -0.26557892130E+02 -0.13687661876E+02 -0.25715585178E+02  0.39420504907E+02  0.10566000000E+00 0.  1.
         13    1    4    4    0    0  0.94633092820E+01  0.50458130077E+01 -0.58353637068E+02  0.59331042250E+02  0.10566000000E+00 0. -1.
        -13    1    4    4    0    0  0.86959778801E+01  0.42594672126E+01 -0.52713015292E+02  0.53595113932E+02  0.10566000000E+00 0.  1.
         14    1    4    4    0    0  0.83986049679E+01  0.43823816554E+01 -0.44741404364E+02  0.45733304045E+02  0.00000000000E+00 0. -1.
<mgrwt>
<rscale>  0 0.79276983E+02</rscale>
<asrwt>0</asrwt>
<pdfrwt beam="1">  1        2 0.29200274E-01 0.79276983E+02</pdfrwt>
<pdfrwt beam="2">  1       -1 0.12735635E-02 0.79276983E+02</pdfrwt>
<totfact> 0.22188769E+05</totfact>
</mgrwt>
</event>
<event>
 8    1  0.1520917E-017  0.7905471E+02  0.7818608E-02  0.1331756E+00
         -1   -1    0    0    0  501 -0.00000000000E+00  0.00000000000E+00  0.83730611500E+01  0.83730626669E+01  0.50400000000E-02 0.  1.
          2   -1    0    0  501    0  0.00000000000E+00 -0.00000000000E+00 -0.18659983155E+03  0.18659983157E+03  0.25500000000E-02 0. -1.
         24    2    1    2    0    0  0.00000000000E+00  0.00000000000E+00 -0.17822677040E+03  0.19497289424E+03  0.79054713958E+02 0.  0.
         66    2    3    3    0    0 -0.71116150616E+01 -0.20151873679E+02 -0.17110699836E+03  0.17244789924E+03  0.19999956732E+01 0.  0.
        -13    1    3    3    0    0  0.71116150616E+01  0.20151873679E+02 -0.71197720386E+01  0.22524994994E+02  0.10566000000E+00 0.  1.
         13    1    4    4    0    0 -0.37448935998E+01 -0.11341587142E+02 -0.96806056396E+02  0.97540143254E+02  0.10566000000E+00 0. -1.
        -13    1    4    4    0    0 -0.22637883348E+01 -0.41725470238E+01 -0.37085703986E+02  0.37388440600E+02  0.10566000000E+00 0.  1.
        -14    1    4    4    0    0 -0.11029331270E+01 -0.46377395126E+01 -0.37215237983E+02  0.37519315391E+02  0.00000000000E+00 0.  1.
<mgrwt>
<rscale>  0 0.79054714E+02</rscale>
<asrwt>0</asrwt>
<pdfrwt beam="1">  1        2 0.28707663E-01 0.79054714E+02</pdfrwt>
<pdfrwt beam="2">  1       -1 0.12881635E-02 0.79054714E+02</pdfrwt>
<totfact> 0.22223882E+05</totfact>
</mgrwt>
</event>
<event>
 8    1  0.1520917E-017  0.7860472E+02  0.7818608E-02  0.1333058E+00
          2   -1    0    0  501    0  0.00000000000E+00  0.00000000000E+00  0.30672594673E+02  0.30672594779E+02  0.25500000000E-02 0. -1.
         -1   -1    0    0    0  501 -0.00000000000E+00 -0.00000000000E+00 -0.50360112097E+02  0.50360112349E+02  0.50400000000E-02 0.  1.
         24    2    1    2    0    0 -0.17763568394E-14  0.17763568394E-14 -0.19687517424E+02  0.81032707128E+02  0.78604715394E+02 0.  0.
         66    2    3    3    0    0 -0.11214724219E+02  0.10907489595E+02  0.27289457551E+02  0.31519166450E+02  0.19999979161E+01 0.  0.
        -13    1    3    3    0    0  0.11214724219E+02 -0.10907489595E+02 -0.46976974975E+02  0.49513540678E+02  0.10566000000E+00 0.  1.
         13    1    4    4    0    0 -0.19689481666E+01  0.24311723915E+01  0.65334029549E+01  0.72445755077E+01  0.10566000000E+00 0. -1.
        -13    1    4    4    0    0 -0.68488264798E+01  0.58054250470E+01  0.14201080445E+02  0.16801524751E+02  0.10566000000E+00 0.  1.
         14    1    4    4    0    0 -0.23969495728E+01  0.26708921569E+01  0.65549741513E+01  0.74730661908E+01  0.00000000000E+00 0. -1.
<mgrwt>
<rscale>  0 0.78604715E+02</rscale>
<asrwt>0</asrwt>
<pdfrwt beam="1">  1        2 0.47188607E-02 0.78604715E+02</pdfrwt>
<pdfrwt beam="2">  1       -1 0.77477096E-02 0.78604715E+02</pdfrwt>
<totfact> 0.14195625E+05</totfact>
</mgrwt>
</event>
<event>
 8    1  0.1520917E-017  0.7959684E+02  0.7818608E-02  0.1330199E+00
         -1   -1    0    0    0  501 -0.00000000000E+00  0.00000000000E+00  0.16200107196E+02  0.16200107980E+02  0.50400000000E-02 0.  1.
          2   -1    0    0  501    0  0.00000000000E+00 -0.00000000000E+00 -0.97771838323E+02  0.97771838356E+02  0.25500000000E-02 0. -1.
         24    2    1    2    0    0  0.35527136788E-14  0.00000000000E+00 -0.81571731127E+02  0.11397194634E+03  0.79596841851E+02 0.  0.
         66    2    3    3    0    0 -0.30085314654E+02  0.10162259261E+02 -0.75101999960E+02  0.81564134678E+02  0.19999991361E+01 0.  0.
        -13    1    3    3    0    0  0.30085314654E+02 -0.10162259261E+02 -0.64697311667E+01  0.32407811659E+02  0.10566000000E+00 0.  1.
         13    1    4    4    0    0 -0.37934419030E+01  0.11533742256E+01 -0.10287868846E+02  0.11025964040E+02  0.10566000000E+00 0. -1.
        -13    1    4    4    0    0 -0.77496038330E+00  0.69371238390E-01 -0.21966958093E+01  0.23328121396E+01  0.10566000000E+00 0.  1.
         14    1    4    4    0    0 -0.25516912368E+02  0.89395137973E+01 -0.62617435305E+02  0.68205358498E+02  0.00000000000E+00 0. -1.
<mgrwt>
<rscale>  0 0.79596842E+02</rscale>
<asrwt>0</asrwt>
<pdfrwt beam="1">  1        2 0.15041821E-01 0.79596842E+02</pdfrwt>
<pdfrwt beam="2">  1       -1 0.24923243E-02 0.79596842E+02</pdfrwt>
<totfact> 0.17854966E+05</totfact>
</mgrwt>
</event>
<event>
 8    1  0.1520917E-017  0.7941786E+02  0.7818608E-02  0.1330712E+00
          2   -1    0    0  501    0  0.00000000000E+00  0.00000000000E+00  0.11649138866E+03  0.11649138869E+03  0.25500000000E-02 0. -1.
         -1   -1    0    0    0  501 -0.00000000000E+00 -0.00000000000E+00 -0.13535756962E+02  0.13535757900E+02  0.50400000000E-02 0.  1.
         24    2    1    2    0    0  0.35527136788E-14 -0.35527136788E-14  0.10295563170E+03  0.13002714659E+03  0.79417861667E+02 0.  0.
         66    2    3    3    0    0  0.27192166755E+02 -0.28443434537E+02  0.43105769724E+02  0.58399916826E+02  0.20000001657E+01 0.  0.
        -13    1    3    3    0    0 -0.27192166755E+02  0.28443434537E+02  0.59849861979E+02  0.71627229767E+02  0.10566000000E+00 0.  1.
         13    1    4    4    0    0  0.11186616673E+02 -0.11821638080E+02  0.17830415322E+02  0.24141797656E+02  0.10566000000E+00 0. -1.
        -13    1    4    4    0    0  0.14080501965E+02 -0.15278243825E+02  0.22651371118E+02  0.30737290829E+02  0.10566000000E+00 0.  1.
        -14    1    4    4    0    0  0.19250481169E+01 -0.13435526331E+01  0.26239832832E+01  0.35208283402E+01  0.00000000000E+00 0.  1.
<mgrwt>
<rscale>  0 0.79417862E+02</rscale>
<asrwt>0</asrwt>
<pdfrwt beam="1">  1        2 0.17921752E-01 0.79417862E+02</pdfrwt>
<pdfrwt beam="2">  1       -1 0.20824243E-02 0.79417862E+02</pdfrwt>
<totfact> 0.18886693E+05</totfact>
</mgrwt>
</event>
<event>
 8    1  0.1520917E-017  0.8022758E+02  0.7818608E-02  0.1328407E+00
          2   -1    0    0  501    0  0.00000000000E+00  0.00000000000E+00  0.88842043749E+02  0.88842043786E+02  0.25500000000E-02 0. -1.
         -1   -1    0    0    0  501 -0.00000000000E+00 -0.00000000000E+00 -0.18112100138E+02  0.18112100839E+02  0.50400000000E-02 0.  1.
         24    2    1    2    0    0  0.00000000000E+00  0.00000000000E+00  0.70729943612E+02  0.10695414462E+03  0.80227577111E+02 0.  0.
         66    2    3    3    0    0  0.36526780374E+02  0.14721090239E+02  0.45380496549E+02  0.60119095647E+02  0.20000030076E+01 0.  0.
        -13    1    3    3    0    0 -0.36526780374E+02 -0.14721090239E+02  0.25349447062E+02  0.46835048977E+02  0.10566000000E+00 0.  1.
         13    1    4    4    0    0  0.10482207780E+02  0.48226534995E+01  0.13588897493E+02  0.17827057127E+02  0.10566000000E+00 0. -1.
        -13    1    4    4    0    0  0.11089759426E+02  0.38109536604E+01  0.12629719305E+02  0.17234474338E+02  0.10566000000E+00 0.  1.
        -14    1    4    4    0    0  0.14954813168E+02  0.60874830789E+01  0.19161879752E+02  0.25057564182E+02  0.00000000000E+00 0.  1.
<mgrwt>
<rscale>  0 0.80227577E+02</rscale>
<asrwt>0</asrwt>
<pdfrwt beam="1">  1        2 0.13668007E-01 0.80227577E+02</pdfrwt>
<pdfrwt beam="2">  1       -1 0.27864771E-02 0.80227577E+02</pdfrwt>
<totfact> 0.17030459E+05</totfact>
</mgrwt>
</event>
<event>
 8    1  0.1520917E-017  0.8000694E+02  0.7818608E-02  0.1329032E+00
          2   -1    0    0  501    0  0.00000000000E+00  0.00000000000E+00  0.52842644481E+03  0.52842644481E+03  0.25500000000E-02 0. -1.
         -1   -1    0    0    0  501 -0.00000000000E+00 -0.00000000000E+00 -0.30283804235E+01  0.30283846174E+01  0.50400000000E-02 0.  1.
         24    2    1    2    0    0 -0.17763568394E-14  0.35527136788E-14  0.52539806438E+03  0.53145482943E+03  0.80006935119E+02 0.  0.
         66    2    3    3    0    0 -0.15883487050E+02  0.22122037628E+02  0.45727714414E+03  0.45809175528E+03  0.19999987172E+01 0.  0.
        -13    1    3    3    0    0  0.15883487050E+02 -0.22122037628E+02  0.68120920245E+02  0.73363074150E+02  0.10566000000E+00 0.  1.
         13    1    4    4    0    0 -0.10993437476E+02  0.16061527148E+02  0.32205840446E+03  0.32264602178E+03  0.10566000000E+00 0. -1.
        -13    1    4    4    0    0 -0.34727175877E+01  0.47045551046E+01  0.96010467088E+02  0.96188427373E+02  0.10566000000E+00 0.  1.
        -14    1    4    4    0    0 -0.14173319861E+01  0.13559553752E+01  0.39208272591E+02  0.39257306129E+02  0.00000000000E+00 0.  1.
<mgrwt>
<rscale>  0 0.80006935E+02</rscale>
<asrwt>0</asrwt>
<pdfrwt beam="1">  1        2 0.81296289E-01 0.80006935E+02</pdfrwt>
<pdfrwt beam="2">  1       -1 0.46590550E-03 0.80006935E+02</pdfrwt>
<totfact> 0.30976637E+05</totfact>
</mgrwt>
</event>
<event>
 8    1  0.1520917E-017  0.7877335E+02  0.7818608E-02  0.1332569E+00
          2   -1    0    0  501    0  0.00000000000E+00  0.00000000000E+00  0.11650961156E+02  0.11650961435E+02  0.25500000000E-02 0. -1.
         -1   -1    0    0    0  501 -0.00000000000E+00 -0.00000000000E+00 -0.13314869779E+03  0.13314869789E+03  0.50400000000E-02 0.  1.
         24    2    1    2    0    0  0.35527136788E-14  0.00000000000E+00 -0.12149773664E+03  0.14479965932E+03  0.78773354201E+02 0.  0.
         66    2    3    3    0    0 -0.28727337336E+02 -0.14848863135E+02 -0.19539014827E+02  0.37835456133E+02  0.19999983993E+01 0.  0.
        -13    1    3    3    0    0  0.28727337336E+02  0.14848863135E+02 -0.10195872181E+03  0.10696420319E+03  0.10566000000E+00 0.  1.
         13    1    4    4    0    0 -0.18693074942E+02 -0.94528614137E+01 -0.13502984024E+02  0.24922467400E+02  0.10566000000E+00 0. -1.
        -13    1    4    4    0    0 -0.36423785890E+01 -0.23052270018E+01 -0.24386771201E+01  0.49537161250E+01  0.10566000000E+00 0.  1.
         14    1    4    4    0    0 -0.63918838048E+01 -0.30907747192E+01 -0.35973536835E+01  0.79592726090E+01  0.00000000000E+00 0. -1.
<mgrwt>
<rscale>  0 0.78773354E+02</rscale>
<asrwt>0</asrwt>
<pdfrwt beam="1">  1        2 0.17924557E-02 0.78773354E+02</pdfrwt>
<pdfrwt beam="2">  1       -1 0.20484414E-01 0.78773354E+02</pdfrwt>
<totfact> 0.11550831E+05</totfact>
</mgrwt>
</event>
<event>
 8    1  0.1520917E-017  0.8085615E+02  0.7818608E-02  0.1326639E+00
          2   -1    0    0  501    0  0.00000000000E+00  0.00000000000E+00  0.50687856871E+02  0.50687856935E+02  0.25500000000E-02 0. -1.
         -1   -1    0    0    0  501 -0.00000000000E+00 -0.00000000000E+00 -0.32244986136E+02  0.32244986530E+02  0.50400000000E-02 0.  1.
         24    2    1    2    0    0  0.00000000000E+00  0.00000000000E+00  0.18442870735E+02  0.82932843465E+02  0.80856150318E+02 0.  0.
         66    2    3    3    0    0 -0.38621081199E+01 -0.17197866192E+02  0.46516583005E+02  0.49784284442E+02  0.20000005598E+01 0.  0.
        -13    1    3    3    0    0  0.38621081199E+01  0.17197866192E+02 -0.28073712270E+02  0.33148559023E+02  0.10566000000E+00 0.  1.
         13    1    4    4    0    0 -0.20182286497E+01 -0.11100424992E+02  0.27735009324E+02  0.29942187430E+02  0.10566000000E+00 0. -1.
        -13    1    4    4    0    0 -0.90102681902E+00 -0.21010354061E+01  0.63335639009E+01  0.67343444245E+01  0.10566000000E+00 0.  1.
         14    1    4    4    0    0 -0.94285265123E+00 -0.39964057940E+01  0.12448009780E+02  0.13107752587E+02  0.00000000000E+00 0. -1.
<mgrwt>
<rscale>  0 0.80856150E+02</rscale>
<asrwt>0</asrwt>
<pdfrwt beam="1">  1        2 0.77981318E-02 0.80856150E+02</pdfrwt>
<pdfrwt beam="2">  1       -1 0.49607672E-02 0.80856150E+02</pdfrwt>
<totfact> 0.14556775E+05</totfact>
</mgrwt>
</event>
<event>
 8    1  0.1630493E-017  0.7975990E+02  0.7818608E-02  0.1329734E+00
          2   -1    0    0  501    0  0.00000000000E+00  0.00000000000E+00  0.14278880498E+03  0.14278880500E+03  0.25500000000E-02 0. -1.
         -1   -1    0    0    0  501 -0.00000000000E+00 -0.00000000000E+00 -0.11138200973E+02  0.11138202113E+02  0.50400000000E-02 0.  1.
         24    2    1    2    0    0  0.35527136788E-14  0.00000000000E+00  0.13165060400E+03  0.15392700711E+03  0.79759902106E+02 0.  0.
         66    2    3    3    0    0 -0.16791431500E+02 -0.18170284351E+02  0.12616702513E+03  0.12858549559E+03  0.20000095859E+01 0.  0.
        -13    1    3    3    0    0  0.16791431500E+02  0.18170284351E+02  0.54835788685E+01  0.25341511527E+02  0.10566000000E+00 0.  1.
         13    1    4    4    0    0 -0.11612669729E+02 -0.11857218914E+02  0.83889898931E+02  0.85515928605E+02  0.10566000000E+00 0.  1.
        -13    1    4    4    0    0 -0.46817156584E+01 -0.53661284538E+01  0.35344923583E+02  0.36055354432E+02  0.10566000000E+00 0. -1.
        -14    1    4    4    0    0 -0.49704611276E+00 -0.94693698331E+00  0.69322026213E+01  0.70142125482E+01  0.00000000000E+00 0.  1.
<mgrwt>
<rscale>  0 0.79759902E+02</rscale>
<asrwt>0</asrwt>
<pdfrwt beam="1">  1        2 0.21967510E-01 0.79759902E+02</pdfrwt>
<pdfrwt beam="2">  1       -1 0.17135694E-02 0.79759902E+02</pdfrwt>
<totfact> 0.19874860E+05</totfact>
</mgrwt>
</event>
<event>
 8    1  0.1520917E-017  0.7805363E+02  0.7818608E-02  0.1334667E+00
          2   -1    0    0  501    0  0.00000000000E+00  0.00000000000E+00  0.49386338898E+02  0.49386338964E+02  0.25500000000E-02 0. -1.
         -1   -1    0    0    0  501 -0.00000000000E+00 -0.00000000000E+00 -0.30840354941E+02  0.30840355353E+02  0.50400000000E-02 0.  1.
         24    2    1    2    0    0  0.00000000000E+00  0.00000000000E+00  0.18545983958E+02  0.80226694317E+02  0.78053628744E+02 0.  0.
         66    2    3    3    0    0 -0.63267150098E+01 -0.35067713421E+02  0.25573351850E+02  0.43906356889E+02  0.20000007527E+01 0.  0.
        -13    1    3    3    0    0  0.63267150098E+01  0.35067713421E+02 -0.70273678925E+01  0.36320337428E+02  0.10566000000E+00 0.  1.
         13    1    4    4    0    0 -0.31523967042E+01 -0.17320431871E+02  0.13503492521E+02  0.22187619058E+02  0.10566000000E+00 0. -1.
        -13    1    4    4    0    0 -0.22023986531E+01 -0.12779111818E+02  0.81517493067E+01  0.15317259529E+02  0.10566000000E+00 0.  1.
        -14    1    4    4    0    0 -0.97191965242E+00 -0.49681697322E+01  0.39181100228E+01  0.64014783018E+01  0.00000000000E+00 0.  1.
<mgrwt>
<rscale>  0 0.78053629E+02</rscale>
<asrwt>0</asrwt>
<pdfrwt beam="1">  1        2 0.75978983E-02 0.78053629E+02</pdfrwt>
<pdfrwt beam="2">  1       -1 0.47446700E-02 0.78053629E+02</pdfrwt>
<totfact> 0.15941765E+05</totfact>
</mgrwt>
</event>
<event>
 8    1  0.1520917E-017  0.8473369E+02  0.7818608E-02  0.1316130E+00
         -1   -1    0    0    0  501 -0.00000000000E+00  0.00000000000E+00  0.47657415680E+03  0.47657415683E+03  0.50400000000E-02 0.  1.
          2   -1    0    0  501    0  0.00000000000E+00 -0.00000000000E+00 -0.37663593477E+01  0.37663602109E+01  0.25500000000E-02 0. -1.
         24    2    1    2    0    0  0.00000000000E+00  0.00000000000E+00  0.47280779746E+03  0.48034051704E+03  0.84733694457E+02 0.  0.
         66    2    3    3    0    0  0.40480868372E+02  0.38063094415E+01  0.30355120976E+03  0.30626871479E+03  0.20000045264E+01 0.  0.
        -13    1    3    3    0    0 -0.40480868372E+02 -0.38063094415E+01  0.16925658770E+03  0.17407180225E+03  0.10566000000E+00 0.  1.
         13    1    4    4    0    0  0.63276078064E+01  0.10614816492E+01  0.47309905843E+02  0.47743101269E+02  0.10566000000E+00 0. -1.
        -13    1    4    4    0    0  0.67296191079E+01  0.74881476791E+00  0.54517019847E+02  0.54936009265E+02  0.10566000000E+00 0.  1.
        -14    1    4    4    0    0  0.27423641457E+02  0.19960130244E+01  0.20172428407E+03  0.20358960426E+03  0.00000000000E+00 0.  1.
<mgrwt>
<rscale>  0 0.84733694E+02</rscale>
<asrwt>0</asrwt>
<pdfrwt beam="1">  1        2 0.57943999E-03 0.84733694E+02</pdfrwt>
<pdfrwt beam="2">  1       -1 0.73319098E-01 0.84733694E+02</pdfrwt>
<totfact> 0.59288060E+04</totfact>
</mgrwt>
</event>
<event>
 8    1  0.1520917E-017  0.7870537E+02  0.7818608E-02  0.1332766E+00
          2   -1    0    0  501    0  0.00000000000E+00  0.00000000000E+00  0.69125951311E+03  0.69125951312E+03  0.25500000000E-02 0. -1.
         -1   -1    0    0    0  501 -0.00000000000E+00 -0.00000000000E+00 -0.22403045207E+01  0.22403101899E+01  0.50400000000E-02 0.  1.
         24    2    1    2    0    0  0.17763568394E-14  0.00000000000E+00  0.68901920859E+03  0.69349982331E+03  0.78705369057E+02 0.  0.
         66    2    3    3    0    0  0.15034479379E+02  0.19331215389E+02  0.61587135694E+03  0.61636130619E+03  0.20000007100E+01 0.  0.
        -13    1    3    3    0    0 -0.15034479379E+02 -0.19331215389E+02  0.73147851649E+02  0.77138517120E+02  0.10566000000E+00 0.  1.
         13    1    4    4    0    0  0.63301885880E+01  0.74242735606E+01  0.23983277132E+03  0.24003116567E+03  0.10566000000E+00 0. -1.
        -13    1    4    4    0    0  0.77969867542E+00  0.15606407702E+01  0.37243951663E+02  0.37284938369E+02  0.10566000000E+00 0.  1.
        -14    1    4    4    0    0  0.79245921159E+01  0.10346301059E+02  0.33879463395E+03  0.33904520215E+03  0.00000000000E+00 0.  1.
<mgrwt>
<rscale>  0 0.78705369E+02</rscale>
<asrwt>0</asrwt>
<pdfrwt beam="1">  1        2 0.10634770E+00 0.78705369E+02</pdfrwt>
<pdfrwt beam="2">  1       -1 0.34466239E-03 0.78705369E+02</pdfrwt>
<totfact> 0.34798662E+05</totfact>
</mgrwt>
</event>
<event>
 8    1  0.1520917E-017  0.8020331E+02  0.7818608E-02  0.1328475E+00
          2   -1    0    0  501    0  0.00000000000E+00  0.00000000000E+00  0.41322674581E+02  0.41322674660E+02  0.25500000000E-02 0. -1.
         -1   -1    0    0    0  501 -0.00000000000E+00 -0.00000000000E+00 -0.38916711118E+02  0.38916711445E+02  0.50400000000E-02 0.  1.
         24    2    1    2    0    0  0.00000000000E+00  0.00000000000E+00  0.24059634628E+01  0.80239386105E+02  0.80203306804E+02 0.  0.
         66    2    3    3    0    0 -0.88161368327E+01 -0.39075876355E+02  0.24246292395E+01  0.40181179780E+02  0.19999999993E+01 0.  0.
        -13    1    3    3    0    0  0.88161368327E+01  0.39075876355E+02 -0.18665776722E-01  0.40058206325E+02  0.10566000000E+00 0.  1.
         13    1    4    4    0    0 -0.24264003401E+01 -0.11040117649E+02  0.60025106700E+00  0.11320030110E+02  0.10566000000E+00 0. -1.
        -13    1    4    4    0    0 -0.47609406259E+00 -0.46367143891E+01  0.51951271698E+00  0.46911452100E+01  0.10566000000E+00 0.  1.
        -14    1    4    4    0    0 -0.59136424300E+01 -0.23399044316E+02  0.13048654555E+01  0.24170004459E+02  0.00000000000E+00 0.  1.
<mgrwt>
<rscale>  0 0.80203307E+02</rscale>
<asrwt>0</asrwt>
<pdfrwt beam="1">  1        2 0.63573345E-02 0.80203307E+02</pdfrwt>
<pdfrwt beam="2">  1       -1 0.59871864E-02 0.80203307E+02</pdfrwt>
<totfact> 0.14250973E+05</totfact>
</mgrwt>
</event>
<event>
 8    1  0.1520917E-017  0.8049843E+02  0.7818608E-02  0.1327643E+00
          2   -1    0    0  501    0  0.00000000000E+00  0.00000000000E+00  0.26096960442E+03  0.26096960443E+03  0.25500000000E-02 0. -1.
         -1   -1    0    0    0  501 -0.00000000000E+00 -0.00000000000E+00 -0.62076156409E+01  0.62076176869E+01  0.50400000000E-02 0.  1.
         24    2    1    2    0    0  0.00000000000E+00 -0.35527136788E-14  0.25476198878E+03  0.26717722212E+03  0.80498429132E+02 0.  0.
         66    2    3    3    0    0  0.10336710342E+02  0.20017910380E+02  0.23806003891E+03  0.23913206906E+03  0.20000024189E+01 0.  0.
        -13    1    3    3    0    0 -0.10336710342E+02 -0.20017910380E+02  0.16701949866E+02  0.28045153058E+02  0.10566000000E+00 0.  1.
         13    1    4    4    0    0  0.35383857899E+00  0.29700648241E+00  0.69002551166E+01  0.69165091846E+01  0.10566000000E+00 0.  1.
        -13    1    4    4    0    0  0.69437876237E+01  0.13606129773E+02  0.15587216575E+03  0.15661892023E+03  0.10566000000E+00 0. -1.
         14    1    4    4    0    0  0.30390841390E+01  0.61147741249E+01  0.75287618041E+02  0.75596639643E+02  0.00000000000E+00 0. -1.
<mgrwt>
<rscale>  0 0.80498429E+02</rscale>
<asrwt>0</asrwt>
<pdfrwt beam="1">  1        2 0.40149167E-01 0.80498429E+02</pdfrwt>
<pdfrwt beam="2">  1       -1 0.95501802E-03 0.80498429E+02</pdfrwt>
<totfact> 0.23847399E+05</totfact>
</mgrwt>
</event>
<event>
 8    1  0.1520917E-017  0.8166888E+02  0.7818608E-02  0.1324381E+00
          2   -1    0    0  501    0  0.00000000000E+00  0.00000000000E+00  0.17035532869E+03  0.17035532871E+03  0.25500000000E-02 0. -1.
         -1   -1    0    0    0  501 -0.00000000000E+00 -0.00000000000E+00 -0.97880789000E+01  0.97880801976E+01  0.50400000000E-02 0.  1.
         24    2    1    2    0    0  0.00000000000E+00  0.00000000000E+00  0.16056724979E+03  0.18014340891E+03  0.81668880656E+02 0.  0.
         66    2    3    3    0    0 -0.26828474423E+02 -0.24127638884E+01  0.14795439996E+03  0.15039977742E+03  0.20000277026E+01 0.  0.
        -13    1    3    3    0    0  0.26828474423E+02  0.24127638884E+01  0.12612849838E+02  0.29743631496E+02  0.10566000000E+00 0.  1.
         13    1    4    4    0    0 -0.11728413580E+02 -0.42623588879E+00  0.65879755578E+02  0.66917043578E+02  0.10566000000E+00 0. -1.
        -13    1    4    4    0    0 -0.75089285848E+01 -0.10846742807E+01  0.38014562833E+02  0.38764399624E+02  0.10566000000E+00 0.  1.
        -14    1    4    4    0    0 -0.75911322581E+01 -0.90185371893E+00  0.44060081545E+02  0.44718334214E+02  0.00000000000E+00 0.  1.
<mgrwt>
<rscale>  0 0.81668881E+02</rscale>
<asrwt>0</asrwt>
<pdfrwt beam="1">  1        2 0.26208514E-01 0.81668881E+02</pdfrwt>
<pdfrwt beam="2">  1       -1 0.15058583E-02 0.81668881E+02</pdfrwt>
<totfact> 0.19772088E+05</totfact>
</mgrwt>
</event>
<event>
 8    1  0.1520917E-017  0.8207288E+02  0.7818608E-02  0.1323270E+00
         -1   -1    0    0    0  501 -0.00000000000E+00  0.00000000000E+00  0.92005689194E+01  0.92005702998E+01  0.50400000000E-02 0.  1.
          2   -1    0    0  501    0  0.00000000000E+00 -0.00000000000E+00 -0.18303101185E+03  0.18303101187E+03  0.25500000000E-02 0. -1.
         24    2    1    2    0    0  0.00000000000E+00  0.17763568394E-14 -0.17383044293E+03  0.19223158217E+03  0.82072884032E+02 0.  0.
         66    2    3    3    0    0  0.40158103948E+02  0.54192075215E+01 -0.10176962620E+03  0.10955865072E+03  0.20000017675E+01 0.  0.
        -13    1    3    3    0    0 -0.40158103948E+02 -0.54192075215E+01 -0.72060816730E+02  0.82672931451E+02  0.10566000000E+00 0.  1.
         13    1    4    4    0    0  0.18740610001E+01  0.33547634939E+00 -0.40744387729E+01  0.44985402480E+01  0.10566000000E+00 0. -1.
        -13    1    4    4    0    0  0.32237863850E+02  0.47071414700E+01 -0.82994072358E+02  0.89159768153E+02  0.10566000000E+00 0.  1.
         14    1    4    4    0    0  0.60461790971E+01  0.37658970220E+00 -0.14701115071E+02  0.15900342317E+02  0.00000000000E+00 0. -1.
<mgrwt>
<rscale>  0 0.82072884E+02</rscale>
<asrwt>0</asrwt>
<pdfrwt beam="1">  1        2 0.28158615E-01 0.82072884E+02</pdfrwt>
<pdfrwt beam="2">  1       -1 0.14154724E-02 0.82072884E+02</pdfrwt>
<totfact> 0.19995060E+05</totfact>
</mgrwt>
</event>
<event>
 8    1  0.1520917E-017  0.8250262E+02  0.7818608E-02  0.1322096E+00
          2   -1    0    0  501    0  0.00000000000E+00  0.00000000000E+00  0.74304870115E+02  0.74304870159E+02  0.25500000000E-02 0. -1.
         -1   -1    0    0    0  501 -0.00000000000E+00 -0.00000000000E+00 -0.22901199851E+02  0.22901200406E+02  0.50400000000E-02 0.  1.
         24    2    1    2    0    0  0.00000000000E+00  0.00000000000E+00  0.51403670264E+02  0.97206070565E+02  0.82502623220E+02 0.  0.
         66    2    3    3    0    0  0.37212993619E+02 -0.17302875057E+02  0.30350954473E+02  0.51082059621E+02  0.19999995943E+01 0.  0.
        -13    1    3    3    0    0 -0.37212993619E+02  0.17302875057E+02  0.21052715791E+02  0.46124010944E+02  0.10566000000E+00 0.  1.
         13    1    4    4    0    0  0.12059684280E+02 -0.58899539542E+01  0.89485904835E+01  0.16131211306E+02  0.10566000000E+00 0.  1.
        -13    1    4    4    0    0  0.24424086277E+02 -0.11115214624E+02  0.20936411390E+02  0.34035694095E+02  0.10566000000E+00 0. -1.
         14    1    4    4    0    0  0.72922306225E+00 -0.29770647861E+00  0.46595259942E+00  0.91515422024E+00  0.00000000000E+00 0. -1.
<mgrwt>
<rscale>  0 0.82502623E+02</rscale>
<asrwt>0</asrwt>
<pdfrwt beam="1">  1        2 0.11431518E-01 0.82502623E+02</pdfrwt>
<pdfrwt beam="2">  1       -1 0.35232616E-02 0.82502623E+02</pdfrwt>
<totfact> 0.15075210E+05</totfact>
</mgrwt>
</event>
<event>
 8    1  0.1520917E-017  0.8063585E+02  0.7818608E-02  0.1327257E+00
         -1   -1    0    0    0  501 -0.00000000000E+00  0.00000000000E+00  0.26231167400E+01  0.26231215819E+01  0.50400000000E-02 0.  1.
          2   -1    0    0  501    0  0.00000000000E+00 -0.00000000000E+00 -0.61969540469E+03  0.61969540470E+03  0.25500000000E-02 0. -1.
         24    2    1    2    0    0 -0.35527136788E-14  0.88817841970E-15 -0.61707228795E+03  0.62231852628E+03  0.80635845578E+02 0.  0.
         66    2    3    3    0    0 -0.24520972457E+02  0.57551161787E+01 -0.55144866927E+03  0.55202720430E+03  0.19999991315E+01 0.  0.
        -13    1    3    3    0    0  0.24520972457E+02 -0.57551161787E+01 -0.65623618684E+02  0.70291321980E+02  0.10566000000E+00 0.  1.
         13    1    4    4    0    0 -0.10634243946E+02  0.33702103559E+01 -0.24709573094E+03  0.24734744162E+03  0.10566000000E+00 0. -1.
        -13    1    4    4    0    0 -0.62022910731E+01  0.12177124187E+01 -0.14334678458E+03  0.14348610752E+03  0.10566000000E+00 0.  1.
        -14    1    4    4    0    0 -0.76844374385E+01  0.11671934040E+01 -0.16100615375E+03  0.16119365516E+03  0.00000000000E+00 0.  1.
<mgrwt>
<rscale>  0 0.80635846E+02</rscale>
<asrwt>0</asrwt>
<pdfrwt beam="1">  1        2 0.95337638E-01 0.80635846E+02</pdfrwt>
<pdfrwt beam="2">  1       -1 0.40355729E-03 0.80635846E+02</pdfrwt>
<totfact> 0.31787415E+05</totfact>
</mgrwt>
</event>
<event>
 8    1  0.1520917E-017  0.7941596E+02  0.7818608E-02  0.1330717E+00
         -1   -1    0    0    0  501 -0.00000000000E+00  0.00000000000E+00  0.49190695977E+02  0.49190696235E+02  0.50400000000E-02 0.  1.
          2   -1    0    0  501    0  0.00000000000E+00 -0.00000000000E+00 -0.32053291677E+02  0.32053291779E+02  0.25500000000E-02 0. -1.
         24    2    1    2    0    0  0.35527136788E-14 -0.17763568394E-14  0.17137404300E+02  0.81243988014E+02  0.79415961634E+02 0.  0.
         66    2    3    3    0    0  0.27902493097E+02 -0.13189939513E+02 -0.16943885364E+02  0.35264980907E+02  0.20000004531E+01 0.  0.
        -13    1    3    3    0    0 -0.27902493097E+02  0.13189939513E+02  0.34081289663E+02  0.45979007107E+02  0.10566000000E+00 0.  1.
         13    1    4    4    0    0  0.19448927425E+02 -0.87799549312E+01 -0.10979178780E+02  0.23997956524E+02  0.10566000000E+00 0. -1.
        -13    1    4    4    0    0  0.32752228551E+01 -0.17897999836E+01 -0.27051677218E+01  0.46108096003E+01  0.10566000000E+00 0.  1.
        -14    1    4    4    0    0  0.51783428164E+01 -0.26201845979E+01 -0.32595388618E+01  0.66562147834E+01  0.00000000000E+00 0.  1.
<mgrwt>
<rscale>  0 0.79415962E+02</rscale>
<asrwt>0</asrwt>
<pdfrwt beam="1">  1        2 0.49312757E-02 0.79415962E+02</pdfrwt>
<pdfrwt beam="2">  1       -1 0.75677994E-02 0.79415962E+02</pdfrwt>
<totfact> 0.13914403E+05</totfact>
</mgrwt>
</event>
<event>
 8    1  0.1520917E-017  0.8008300E+02  0.7818608E-02  0.1328816E+00
         -1   -1    0    0    0  501 -0.00000000000E+00  0.00000000000E+00  0.13461309210E+01  0.13461403560E+01  0.50400000000E-02 0.  1.
          2   -1    0    0  501    0  0.00000000000E+00 -0.00000000000E+00 -0.11910550171E+04  0.11910550171E+04  0.25500000000E-02 0. -1.
         24    2    1    2    0    0  0.00000000000E+00 -0.44408920985E-15 -0.11897088861E+04  0.11924011574E+04  0.80082997293E+02 0.  0.
         66    2    3    3    0    0 -0.23778902619E+02  0.24012116428E+01 -0.10731110137E+04  0.10733789870E+04  0.20000017961E+01 0.  0.
        -13    1    3    3    0    0  0.23778902619E+02 -0.24012116428E+01 -0.11659787245E+03  0.11902217042E+03  0.10566000000E+00 0.  1.
         13    1    4    4    0    0 -0.10381333577E+02  0.10936671565E+01 -0.43863062420E+03  0.43875483342E+03  0.10566000000E+00 0. -1.
        -13    1    4    4    0    0 -0.89521907526E+01  0.95844292078E+00 -0.39941560862E+03  0.39951708337E+03  0.10566000000E+00 0.  1.
        -14    1    4    4    0    0 -0.44453782891E+01  0.34910156552E+00 -0.23506478088E+03  0.23510707023E+03  0.00000000000E+00 0.  1.
<mgrwt>
<rscale>  0 0.80082997E+02</rscale>
<asrwt>0</asrwt>
<pdfrwt beam="1">  1        2 0.18323839E+00 0.80082997E+02</pdfrwt>
<pdfrwt beam="2">  1       -1 0.20709874E-03 0.80082997E+02</pdfrwt>
<totfact> 0.34971777E+05</totfact>
</mgrwt>
</event>
<event>
 8    1  0.1520917E-017  0.7875093E+02  0.7818608E-02  0.1332634E+00
         -1   -1    0    0    0  501 -0.00000000000E+00  0.00000000000E+00  0.42085749445E+01  0.42085779624E+01  0.50400000000E-02 0.  1.
          2   -1    0    0  501    0  0.00000000000E+00 -0.00000000000E+00 -0.36839704845E+03  0.36839704846E+03  0.25500000000E-02 0. -1.
         24    2    1    2    0    0 -0.35527136788E-14 -0.11102230246E-15 -0.36418847351E+03  0.37260562643E+03  0.78750927655E+02 0.  0.
         66    2    3    3    0    0 -0.17490644630E+02 -0.59839227024E+00 -0.34896651008E+03  0.34941079818E+03  0.20000001487E+01 0.  0.
        -13    1    3    3    0    0  0.17490644630E+02  0.59839227024E+00 -0.15221963428E+02  0.23194828249E+02  0.10566000000E+00 0.  1.
         13    1    4    4    0    0 -0.85177873072E+01 -0.75102739320E+00 -0.16611023660E+03  0.16633020955E+03  0.10566000000E+00 0. -1.
        -13    1    4    4    0    0 -0.10504656257E+01  0.35485844370E+00 -0.26993679765E+02  0.27016648827E+02  0.10566000000E+00 0.  1.
         14    1    4    4    0    0 -0.79223916969E+01 -0.20222332074E+00 -0.15586259372E+03  0.15606393980E+03  0.00000000000E+00 0. -1.
<mgrwt>
<rscale>  0 0.78750928E+02</rscale>
<asrwt>0</asrwt>
<pdfrwt beam="1">  1        2 0.56676444E-01 0.78750928E+02</pdfrwt>
<pdfrwt beam="2">  1       -1 0.64747359E-03 0.78750928E+02</pdfrwt>
<totfact> 0.28596939E+05</totfact>
</mgrwt>
</event>
<event>
 8    1  0.1520917E-017  0.7642536E+02  0.7818608E-02  0.1339513E+00
         -1   -1    0    0    0  501 -0.00000000000E+00  0.00000000000E+00  0.11317717470E+01  0.11317829690E+01  0.50400000000E-02 0.  1.
          2   -1    0    0  501    0  0.00000000000E+00 -0.00000000000E+00 -0.12901909885E+04  0.12901909885E+04  0.25500000000E-02 0. -1.
         24    2    1    2    0    0  0.00000000000E+00  0.00000000000E+00 -0.12890592167E+04  0.12913227714E+04  0.76425361137E+02 0.  0.
         66    2    3    3    0    0 -0.14016464520E+02 -0.38280480915E+01 -0.12416559857E+04  0.12417426070E+04  0.19999994055E+01 0.  0.
        -13    1    3    3    0    0  0.14016464520E+02  0.38280480915E+01 -0.47403230966E+02  0.49580164379E+02  0.10566000000E+00 0.  1.
         13    1    4    4    0    0 -0.86680349928E+01 -0.23896124233E+01 -0.84558168900E+03  0.84562949867E+03  0.10566000000E+00 0. -1.
        -13    1    4    4    0    0 -0.51074567426E+01 -0.13528354073E+01 -0.38087678098E+03  0.38091344126E+03  0.10566000000E+00 0. -1.
         14    1    4    4    0    0 -0.24097278471E+00 -0.85600260857E-01 -0.15197515754E+02  0.15199667114E+02  0.00000000000E+00 0. -1.
<mgrwt>
<rscale>  0 0.76425361E+02</rscale>
<asrwt>0</asrwt>
<pdfrwt beam="1">  1        2 0.19848974E+00 0.76425361E+02</pdfrwt>
<pdfrwt beam="2">  1       -1 0.17412063E-03 0.76425361E+02</pdfrwt>
<totfact> 0.39025167E+05</totfact>
</mgrwt>
</event>
<event>
 8    1  0.1520917E-017  0.8045371E+02  0.7818608E-02  0.1327769E+00
          2   -1    0    0  501    0  0.00000000000E+00  0.00000000000E+00  0.58414632279E+03  0.58414632279E+03  0.25500000000E-02 0. -1.
         -1   -1    0    0    0  501 -0.00000000000E+00 -0.00000000000E+00 -0.27701934856E+01  0.27701980704E+01  0.50400000000E-02 0.  1.
         24    2    1    2    0    0 -0.17763568394E-14  0.17763568394E-14  0.58137612930E+03  0.58691652086E+03  0.80453705573E+02 0.  0.
         66    2    3    3    0    0 -0.90689531373E+01 -0.10184801744E+02  0.56675436512E+03  0.56692194037E+03  0.19999959707E+01 0.  0.
        -13    1    3    3    0    0  0.90689531373E+01  0.10184801744E+02  0.14621764179E+02  0.19994580498E+02  0.10566000000E+00 0.  1.
         13    1    4    4    0    0 -0.24568252413E+01 -0.18826444621E+01  0.12787488342E+03  0.12791238139E+03  0.10566000000E+00 0. -1.
        -13    1    4    4    0    0 -0.12155857157E+01 -0.23754316742E+01  0.11056395292E+03  0.11059619873E+03  0.10566000000E+00 0.  1.
        -14    1    4    4    0    0 -0.53965421803E+01 -0.59267256074E+01  0.32831552879E+03  0.32841336025E+03  0.00000000000E+00 0.  1.
<mgrwt>
<rscale>  0 0.80453706E+02</rscale>
<asrwt>0</asrwt>
<pdfrwt beam="1">  1        2 0.89868709E-01 0.80453706E+02</pdfrwt>
<pdfrwt beam="2">  1       -1 0.42618376E-03 0.80453706E+02</pdfrwt>
<totfact> 0.31455078E+05</totfact>
</mgrwt>
</event>
<event>
 8    1  0.1520917E-017  0.7852246E+02  0.7818608E-02  0.1333298E+00
         -1   -1    0    0    0  501 -0.00000000000E+00  0.00000000000E+00  0.74189177447E+02  0.74189177618E+02  0.50400000000E-02 0.  1.
          2   -1    0    0  501    0  0.00000000000E+00 -0.00000000000E+00 -0.20777209291E+02  0.20777209447E+02  0.25500000000E-02 0. -1.
         24    2    1    2    0    0  0.00000000000E+00  0.00000000000E+00  0.53411968156E+02  0.94966387065E+02  0.78522457487E+02 0.  0.
         66    2    3    3    0    0 -0.16222040970E+02 -0.16957939413E+02 -0.11305407158E+02  0.26125438829E+02  0.20000001605E+01 0.  0.
        -13    1    3    3    0    0  0.16222040970E+02  0.16957939413E+02  0.64717375314E+02  0.68840948236E+02  0.10566000000E+00 0.  1.
         13    1    4    4    0    0 -0.13903709065E+02 -0.14745039520E+02 -0.98476660804E+01  0.22532576583E+02  0.10566000000E+00 0. -1.
        -13    1    4    4    0    0 -0.98352472508E+00 -0.14089390216E+01 -0.85484111556E+00  0.19220685263E+01  0.10566000000E+00 0.  1.
         14    1    4    4    0    0 -0.13348071794E+01 -0.80396087220E+00 -0.60289996226E+00  0.16707937200E+01  0.00000000000E+00 0. -1.
<mgrwt>
<rscale>  0 0.78522457E+02</rscale>
<asrwt>0</asrwt>
<pdfrwt beam="1">  1        2 0.31964938E-02 0.78522457E+02</pdfrwt>
<pdfrwt beam="2">  1       -1 0.11413720E-01 0.78522457E+02</pdfrwt>
<totfact> 0.13196584E+05</totfact>
</mgrwt>
</event>
<event>
 8    1  0.1520917E-017  0.7426669E+02  0.7818608E-02  0.1346157E+00
         -1   -1    0    0    0  501 -0.00000000000E+00  0.00000000000E+00  0.13500140671E+01  0.13500234749E+01  0.50400000000E-02 0.  1.
          2   -1    0    0  501    0  0.00000000000E+00 -0.00000000000E+00 -0.10213823311E+04  0.10213823311E+04  0.25500000000E-02 0. -1.
         24    2    1    2    0    0  0.35527136788E-14  0.00000000000E+00 -0.10200323170E+04  0.10227323545E+04  0.74266690442E+02 0.  0.
         66    2    3    3    0    0 -0.26260099954E+02 -0.80333373577E+01 -0.85404254137E+03  0.85448627246E+03  0.19999992856E+01 0.  0.
        -13    1    3    3    0    0  0.26260099954E+02  0.80333373577E+01 -0.16598977564E+03  0.16824608209E+03  0.10566000000E+00 0.  1.
         13    1    4    4    0    0 -0.66005340322E+01 -0.22504448427E+01 -0.22091488974E+03  0.22102495611E+03  0.10566000000E+00 0. -1.
        -13    1    4    4    0    0 -0.16700313411E+02 -0.54372640494E+01 -0.54944655885E+03  0.54972720190E+03  0.10566000000E+00 0.  1.
        -14    1    4    4    0    0 -0.29592525108E+01 -0.34562846566E+00 -0.83681092778E+02  0.83734114452E+02  0.00000000000E+00 0.  1.
<mgrwt>
<rscale>  0 0.74266690E+02</rscale>
<asrwt>0</asrwt>
<pdfrwt beam="1">  1        2 0.15713513E+00 0.74266690E+02</pdfrwt>
<pdfrwt beam="2">  1       -1 0.20769601E-03 0.74266690E+02</pdfrwt>
<totfact> 0.42733298E+05</totfact>
</mgrwt>
</event>
<event>
 8    1  0.1520917E-017  0.8527040E+02  0.7818608E-02  0.1314727E+00
         -1   -1    0    0    0  501 -0.00000000000E+00  0.00000000000E+00  0.77721168500E+01  0.77721184842E+01  0.50400000000E-02 0.  1.
          2   -1    0    0  501    0  0.00000000000E+00 -0.00000000000E+00 -0.23388221398E+03  0.23388221400E+03  0.25500000000E-02 0. -1.
         24    2    1    2    0    0  0.17763568394E-14  0.35527136788E-14 -0.22611009713E+03  0.24165433248E+03  0.85270395692E+02 0.  0.
         66    2    3    3    0    0 -0.14944720976E+02 -0.25164889405E+02 -0.20088523467E+03  0.20301599409E+03  0.20000003197E+01 0.  0.
        -13    1    3    3    0    0  0.14944720976E+02  0.25164889405E+02 -0.25224862461E+02  0.38638338397E+02  0.10566000000E+00 0.  1.
         13    1    4    4    0    0 -0.25814672534E+01 -0.57124501062E+01 -0.41290310885E+02  0.41763584574E+02  0.10566000000E+00 0. -1.
        -13    1    4    4    0    0 -0.25109804216E+01 -0.39530582702E+01 -0.30492745045E+02  0.30850451485E+02  0.10566000000E+00 0.  1.
         14    1    4    4    0    0 -0.98522733008E+01 -0.15499381029E+02 -0.12910217874E+03  0.13040195803E+03  0.00000000000E+00 0. -1.
<mgrwt>
<rscale>  0 0.85270396E+02</rscale>
<asrwt>0</asrwt>
<pdfrwt beam="1">  1        2 0.35981874E-01 0.85270396E+02</pdfrwt>
<pdfrwt beam="2">  1       -1 0.11957106E-02 0.85270396E+02</pdfrwt>
<totfact> 0.19693870E+05</totfact>
</mgrwt>
</event>
<event>
 8    1  0.1520917E-017  0.7766952E+02  0.7818608E-02  0.1335798E+00
          2   -1    0    0  501    0  0.00000000000E+00  0.00000000000E+00  0.53015474731E+02  0.53015474792E+02  0.25500000000E-02 0. -1.
         -1   -1    0    0    0  501 -0.00000000000E+00 -0.00000000000E+00 -0.28447138518E+02  0.28447138965E+02  0.50400000000E-02 0.  1.
         24    2    1    2    0    0  0.88817841970E-15  0.00000000000E+00  0.24568336212E+02  0.81462613757E+02  0.77669519735E+02 0.  0.
         66    2    3    3    0    0  0.47106190744E+01 -0.29077912640E+02  0.38793184671E+02  0.48750652438E+02  0.20000001593E+01 0.  0.
        -13    1    3    3    0    0 -0.47106190744E+01  0.29077912640E+02 -0.14224848459E+02  0.32711961318E+02  0.10566000000E+00 0.  1.
         13    1    4    4    0    0  0.35389172266E+01 -0.22323321361E+02  0.30676820193E+02  0.38104239566E+02  0.10566000000E+00 0. -1.
        -13    1    4    4    0    0  0.28855330426E-01 -0.87695574953E+00  0.79867862631E+00  0.11911908329E+01  0.10566000000E+00 0.  1.
        -14    1    4    4    0    0  0.11428465174E+01 -0.58776355300E+01  0.73176858522E+01  0.94552220396E+01  0.00000000000E+00 0.  1.
<mgrwt>
<rscale>  0 0.77669520E+02</rscale>
<asrwt>0</asrwt>
<pdfrwt beam="1">  1        2 0.81562268E-02 0.77669520E+02</pdfrwt>
<pdfrwt beam="2">  1       -1 0.43764829E-02 0.77669520E+02</pdfrwt>
<totfact> 0.16407565E+05</totfact>
</mgrwt>
</event>
<event>
 8    1  0.1520917E-017  0.8190409E+02  0.7818608E-02  0.1323733E+00
          2   -1    0    0  501    0  0.00000000000E+00  0.00000000000E+00  0.29809432066E+03  0.29809432067E+03  0.25500000000E-02 0. -1.
         -1   -1    0    0    0  501 -0.00000000000E+00 -0.00000000000E+00 -0.56259703819E+01  0.56259726394E+01  0.50400000000E-02 0.  1.
         24    2    1    2    0    0 -0.35527136788E-14  0.00000000000E+00  0.29246835028E+03  0.30372029331E+03  0.81904094245E+02 0.  0.
         66    2    3    3    0    0  0.25137065735E+02 -0.14843716580E+02  0.25269388854E+03  0.25438240760E+03  0.19999988745E+01 0.  0.
        -13    1    3    3    0    0 -0.25137065735E+02  0.14843716580E+02  0.39774461737E+02  0.49337885709E+02  0.10566000000E+00 0.  1.
         13    1    4    4    0    0  0.45576997904E+01 -0.32530190874E+01  0.43388322069E+02  0.43748284727E+02  0.10566000000E+00 0. -1.
        -13    1    4    4    0    0  0.78039519466E+01 -0.44166686770E+01  0.80194523199E+02  0.80694369960E+02  0.10566000000E+00 0.  1.
         14    1    4    4    0    0  0.12775413998E+02 -0.71740288158E+01  0.12911104328E+03  0.12993975292E+03  0.00000000000E+00 0. -1.
<mgrwt>
<rscale>  0 0.81904094E+02</rscale>
<asrwt>0</asrwt>
<pdfrwt beam="1">  1        2 0.45860677E-01 0.81904094E+02</pdfrwt>
<pdfrwt beam="2">  1       -1 0.86553385E-03 0.81904094E+02</pdfrwt>
<totfact> 0.23912630E+05</totfact>
</mgrwt>
</event>
<event>
 8    1  0.1520917E-017  0.7861953E+02  0.7818608E-02  0.1333015E+00
         -1   -1    0    0    0  501 -0.00000000000E+00  0.00000000000E+00  0.16794025147E+02  0.16794025904E+02  0.50400000000E-02 0.  1.
          2   -1    0    0  501    0  0.00000000000E+00 -0.00000000000E+00 -0.92012347392E+02  0.92012347427E+02  0.25500000000E-02 0. -1.
         24    2    1    2    0    0  0.35527136788E-14  0.00000000000E+00 -0.75218322244E+02  0.10880637333E+03  0.78619532408E+02 0.  0.
         66    2    3    3    0    0 -0.24966672835E+02 -0.12652301588E+02 -0.75782521505E+02  0.80810927759E+02  0.19999979521E+01 0.  0.
        -13    1    3    3    0    0  0.24966672835E+02  0.12652301588E+02  0.56419926007E+00  0.27995445572E+02  0.10566000000E+00 0.  1.
         13    1    4    4    0    0 -0.69203616955E+01 -0.38053002592E+01 -0.21666416752E+02  0.23061146870E+02  0.10566000000E+00 0. -1.
        -13    1    4    4    0    0 -0.40077361874E+01 -0.19473519064E+01 -0.13974286544E+02  0.14667855236E+02  0.10566000000E+00 0.  1.
        -14    1    4    4    0    0 -0.14038574952E+02 -0.68996494225E+01 -0.40141818209E+02  0.43081925653E+02  0.00000000000E+00 0.  1.
<mgrwt>
<rscale>  0 0.78619532E+02</rscale>
<asrwt>0</asrwt>
<pdfrwt beam="1">  1        2 0.14155745E-01 0.78619532E+02</pdfrwt>
<pdfrwt beam="2">  1       -1 0.25836963E-02 0.78619532E+02</pdfrwt>
<totfact> 0.18151778E+05</totfact>
</mgrwt>
</event>
<event>
 8    1  0.2172936E-017  0.7704133E+02  0.7818608E-02  0.1337664E+00
          2   -1    0    0  501    0  0.00000000000E+00  0.00000000000E+00  0.45155165145E+02  0.45155165217E+02  0.25500000000E-02 0. -1.
         -1   -1    0    0    0  501 -0.00000000000E+00 -0.00000000000E+00 -0.32860952857E+02  0.32860953244E+02  0.50400000000E-02 0.  1.
         24    2    1    2    0    0  0.71054273576E-14  0.00000000000E+00  0.12294212287E+02  0.78016118460E+02  0.77041333607E+02 0.  0.
         66    2    3    3    0    0 -0.34104521702E+02 -0.13053093576E+02  0.18484633018E+02  0.40977839272E+02  0.20000002871E+01 0.  0.
        -13    1    3    3    0    0  0.34104521702E+02  0.13053093576E+02 -0.61904207306E+01  0.37038279189E+02  0.10566000000E+00 0.  1.
         13    1    4    4    0    0 -0.19959917772E+02 -0.74912878798E+01  0.10898518303E+02  0.23943821266E+02  0.10566000000E+00 0. -1.
        -13    1    4    4    0    0 -0.85677560826E+01 -0.39236683831E+01  0.43235207511E+01  0.10368491385E+02  0.10566000000E+00 0.  1.
        -14    1    4    4    0    0 -0.55768478470E+01 -0.16381373126E+01  0.32625939636E+01  0.66655266209E+01  0.00000000000E+00 0.  1.
<mgrwt>
<rscale>  0 0.77041334E+02</rscale>
<asrwt>0</asrwt>
<pdfrwt beam="1">  1        2 0.69469485E-02 0.77041334E+02</pdfrwt>
<pdfrwt beam="2">  1       -1 0.50555313E-02 0.77041334E+02</pdfrwt>
<totfact> 0.16211780E+05</totfact>
</mgrwt>
</event>
<event>
 8    1  0.1520917E-017  0.7985536E+02  0.7818608E-02  0.1329462E+00
          2   -1    0    0  501    0  0.00000000000E+00  0.00000000000E+00  0.60148119684E+03  0.60148119684E+03  0.25500000000E-02 0. -1.
         -1   -1    0    0    0  501 -0.00000000000E+00 -0.00000000000E+00 -0.26504871051E+01  0.26504918970E+01  0.50400000000E-02 0.  1.
         24    2    1    2    0    0  0.00000000000E+00  0.00000000000E+00  0.59883070973E+03  0.60413168874E+03  0.79855359376E+02 0.  0.
         66    2    3    3    0    0  0.70550538181E+01 -0.80243740690E+01  0.59045470948E+03  0.59055476317E+03  0.19999984767E+01 0.  0.
        -13    1    3    3    0    0 -0.70550538181E+01  0.80243740690E+01  0.83760002476E+01  0.13576925564E+02  0.10566000000E+00 0.  1.
         13    1    4    4    0    0  0.61665858882E+01 -0.65215063765E+01  0.48992976409E+03  0.49001198122E+03  0.10566000000E+00 0. -1.
        -13    1    4    4    0    0  0.95421133099E+00 -0.11545824198E+01  0.72155067418E+02  0.72170690020E+02  0.10566000000E+00 0.  1.
         14    1    4    4    0    0 -0.65743401107E-01 -0.34828527265E+00  0.28369877973E+02  0.28372091939E+02  0.00000000000E+00 0. -1.
<mgrwt>
<rscale>  0 0.79855359E+02</rscale>
<asrwt>0</asrwt>
<pdfrwt beam="1">  1        2 0.92535512E-01 0.79855359E+02</pdfrwt>
<pdfrwt beam="2">  1       -1 0.40776787E-03 0.79855359E+02</pdfrwt>
<totfact> 0.32337474E+05</totfact>
</mgrwt>
</event>
<event>
 8    1  0.1520917E-017  0.7902095E+02  0.7818608E-02  0.1331853E+00
          2   -1    0    0  501    0  0.00000000000E+00  0.00000000000E+00  0.64652367750E+03  0.64652367750E+03  0.25500000000E-02 0. -1.
         -1   -1    0    0    0  501 -0.00000000000E+00 -0.00000000000E+00 -0.24145687173E+01  0.24145739774E+01  0.50400000000E-02 0.  1.
         24    2    1    2    0    0 -0.17763568394E-14  0.00000000000E+00  0.64410910878E+03  0.64893825148E+03  0.79020947983E+02 0.  0.
         66    2    3    3    0    0 -0.13473338131E+02  0.39113804285E+01  0.62536200842E+03  0.62552255860E+03  0.20000001903E+01 0.  0.
        -13    1    3    3    0    0  0.13473338131E+02 -0.39113804285E+01  0.18747100359E+02  0.23415692882E+02  0.10566000000E+00 0.  1.
         13    1    4    4    0    0 -0.51513413912E+01  0.20168247505E+01  0.24499736898E+03  0.24505984141E+03  0.10566000000E+00 0. -1.
        -13    1    4    4    0    0 -0.36761830613E+00 -0.17170018489E+00  0.17476117738E+02  0.17481146398E+02  0.10566000000E+00 0.  1.
         14    1    4    4    0    0 -0.79543784336E+01  0.20662558629E+01  0.36288852170E+03  0.36298157079E+03  0.00000000000E+00 0. -1.
<mgrwt>
<rscale>  0 0.79020948E+02</rscale>
<asrwt>0</asrwt>
<pdfrwt beam="1">  1        2 0.99465259E-01 0.79020948E+02</pdfrwt>
<pdfrwt beam="2">  1       -1 0.37147222E-03 0.79020948E+02</pdfrwt>
<totfact> 0.33879571E+05</totfact>
</mgrwt>
</event>
<event>
 8    1  0.1520917E-017  0.7967628E+02  0.7818608E-02  0.1329973E+00
         -1   -1    0    0    0  501 -0.00000000000E+00  0.00000000000E+00  0.32056209904E+02  0.32056210301E+02  0.50400000000E-02 0.  1.
          2   -1    0    0  501    0  0.00000000000E+00 -0.00000000000E+00 -0.49509203821E+02  0.49509203887E+02  0.25500000000E-02 0. -1.
         24    2    1    2    0    0  0.71054273576E-14  0.00000000000E+00 -0.17452993917E+02  0.81565414187E+02  0.79676281257E+02 0.  0.
         66    2    3    3    0    0  0.31996816144E+02  0.22682207124E+02 -0.15734765372E+02  0.42306756075E+02  0.20000012304E+01 0.  0.
        -13    1    3    3    0    0 -0.31996816144E+02 -0.22682207124E+02 -0.17182285447E+01  0.39258658112E+02  0.10566000000E+00 0.  1.
         13    1    4    4    0    0  0.10972510187E+02  0.76771609951E+01 -0.51769121021E+01  0.14357798010E+02  0.10566000000E+00 0. -1.
        -13    1    4    4    0    0  0.25884660560E+01  0.21235991903E+01 -0.87026098071E+00  0.34609750439E+01  0.10566000000E+00 0.  1.
        -14    1    4    4    0    0  0.18435839901E+02  0.12881446938E+02 -0.96875922894E+01  0.24487983021E+02  0.00000000000E+00 0.  1.
<mgrwt>
<rscale>  0 0.79676281E+02</rscale>
<asrwt>0</asrwt>
<pdfrwt beam="1">  1        2 0.76168006E-02 0.79676281E+02</pdfrwt>
<pdfrwt beam="2">  1       -1 0.49317247E-02 0.79676281E+02</pdfrwt>
<totfact> 0.15077545E+05</totfact>
</mgrwt>
</event>
<event>
 8    1  0.1520917E-017  0.8061084E+02  0.7818608E-02  0.1327327E+00
         -1   -1    0    0    0  501 -0.00000000000E+00  0.00000000000E+00  0.10027597366E+03  0.10027597379E+03  0.50400000000E-02 0.  1.
          2   -1    0    0  501    0  0.00000000000E+00 -0.00000000000E+00 -0.16200559212E+02  0.16200559413E+02  0.25500000000E-02 0. -1.
         24    2    1    2    0    0  0.00000000000E+00  0.00000000000E+00  0.84075414447E+02  0.11647653320E+03  0.80610839666E+02 0.  0.
         66    2    3    3    0    0 -0.24221771603E+02  0.24050704498E+02  0.11161344787E+02  0.35968127893E+02  0.20000000620E+01 0.  0.
        -13    1    3    3    0    0  0.24221771603E+02 -0.24050704498E+02  0.72914069659E+02  0.80508405305E+02  0.10566000000E+00 0.  1.
         13    1    4    4    0    0 -0.32768036850E+01  0.35455071593E+01  0.20570335469E+01  0.52488679213E+01  0.10566000000E+00 0. -1.
        -13    1    4    4    0    0 -0.11205240114E+02  0.10368281830E+02  0.42524319670E+01  0.15847807918E+02  0.10566000000E+00 0.  1.
        -14    1    4    4    0    0 -0.97397278041E+01  0.10136915509E+02  0.48518792732E+01  0.14871452054E+02  0.00000000000E+00 0.  1.
<mgrwt>
<rscale>  0 0.80610840E+02</rscale>
<asrwt>0</asrwt>
<pdfrwt beam="1">  1        2 0.24923937E-02 0.80610840E+02</pdfrwt>
<pdfrwt beam="2">  1       -1 0.15427073E-01 0.80610840E+02</pdfrwt>
<totfact> 0.11623497E+05</totfact>
</mgrwt>
</event>
<event>
 8    1  0.1520917E-017  0.8016689E+02  0.7818608E-02  0.1328578E+00
          2   -1    0    0  501    0  0.00000000000E+00  0.00000000000E+00  0.95894405269E+03  0.95894405269E+03  0.25500000000E-02 0. -1.
         -1   -1    0    0    0  501 -0.00000000000E+00 -0.00000000000E+00 -0.16754667763E+01  0.16754743568E+01  0.50400000000E-02 0.  1.
         24    2    1    2    0    0  0.00000000000E+00  0.00000000000E+00  0.95726858591E+03  0.96061952705E+03  0.80166889505E+02 0.  0.
         66    2    3    3    0    0 -0.10471679300E+02 -0.25869999637E+01  0.94121214785E+03  0.94127607845E+03  0.19999944429E+01 0.  0.
        -13    1    3    3    0    0  0.10471679300E+02  0.25869999637E+01  0.16056438065E+02  0.19343448595E+02  0.10566000000E+00 0.  1.
         13    1    4    4    0    0 -0.20261105374E+01 -0.16587781121E+00  0.20106612148E+03  0.20107642579E+03  0.10566000000E+00 0. -1.
        -13    1    4    4    0    0 -0.11153014100E+01 -0.63060114482E+00  0.14722388761E+03  0.14722950044E+03  0.10566000000E+00 0.  1.
        -14    1    4    4    0    0 -0.73302673527E+01 -0.17905210077E+01  0.59292213876E+03  0.59297015222E+03  0.00000000000E+00 0.  1.
<mgrwt>
<rscale>  0 0.80166890E+02</rscale>
<asrwt>0</asrwt>
<pdfrwt beam="1">  1        2 0.14752954E+00 0.80166890E+02</pdfrwt>
<pdfrwt beam="2">  1       -1 0.25776525E-03 0.80166890E+02</pdfrwt>
<totfact> 0.34958368E+05</totfact>
</mgrwt>
</event>
<event>
 8    1  0.1520917E-017  0.8089608E+02  0.7818608E-02  0.1326528E+00
          2   -1    0    0  501    0  0.00000000000E+00  0.00000000000E+00  0.10815058805E+03  0.10815058808E+03  0.25500000000E-02 0. -1.
         -1   -1    0    0    0  501 -0.00000000000E+00 -0.00000000000E+00 -0.15127460786E+02  0.15127461626E+02  0.50400000000E-02 0.  1.
         24    2    1    2    0    0  0.00000000000E+00  0.00000000000E+00  0.93023127267E+02  0.12327804971E+03  0.80896077367E+02 0.  0.
         66    2    3    3    0    0 -0.25363747729E+02 -0.47554305771E+01  0.93955325995E+02  0.97455308232E+02  0.20000002266E+01 0.  0.
        -13    1    3    3    0    0  0.25363747729E+02  0.47554305771E+01 -0.93219872824E+00  0.25822741476E+02  0.10566000000E+00 0.  1.
         13    1    4    4    0    0 -0.15747373587E+02 -0.29419212992E+01  0.57370749747E+02  0.59565499799E+02  0.10566000000E+00 0. -1.
        -13    1    4    4    0    0 -0.36940108711E+01 -0.69049273958E+00  0.11890979481E+02  0.12471128802E+02  0.10566000000E+00 0.  1.
        -14    1    4    4    0    0 -0.59223632715E+01 -0.11230165383E+01  0.24693596767E+02  0.25418679631E+02  0.00000000000E+00 0.  1.
<mgrwt>
<rscale>  0 0.80896077E+02</rscale>
<asrwt>0</asrwt>
<pdfrwt beam="1">  1        2 0.16638552E-01 0.80896077E+02</pdfrwt>
<pdfrwt beam="2">  1       -1 0.23273017E-02 0.80896077E+02</pdfrwt>
<totfact> 0.17592599E+05</totfact>
</mgrwt>
</event>
<event>
 8    1  0.1520917E-017  0.7774166E+02  0.7818608E-02  0.1335585E+00
          2   -1    0    0  501    0  0.00000000000E+00  0.00000000000E+00  0.19772193092E+02  0.19772193257E+02  0.25500000000E-02 0. -1.
         -1   -1    0    0    0  501 -0.00000000000E+00 -0.00000000000E+00 -0.76417482487E+02  0.76417482653E+02  0.50400000000E-02 0.  1.
         24    2    1    2    0    0  0.00000000000E+00  0.00000000000E+00 -0.56645289395E+02  0.96189675910E+02  0.77741655122E+02 0.  0.
         66    2    3    3    0    0  0.30121976251E+02 -0.80049231817E+00  0.19904644460E+01  0.30264437695E+02  0.19999997595E+01 0.  0.
        -13    1    3    3    0    0 -0.30121976251E+02  0.80049231817E+00 -0.58635753841E+02  0.65925238215E+02  0.10566000000E+00 0.  1.
         13    1    4    4    0    0  0.23818883787E+02 -0.13356379893E+01  0.17504390081E+01  0.23920667935E+02  0.10566000000E+00 0. -1.
        -13    1    4    4    0    0  0.86289628929E+00 -0.10102985196E-01  0.92767201111E-01  0.87433509913E+00  0.10566000000E+00 0. -1.
         14    1    4    4    0    0  0.54401961749E+01  0.54524865637E+00  0.14725823683E+00  0.54694346606E+01  0.00000000000E+00 0. -1.
<mgrwt>
<rscale>  0 0.77741655E+02</rscale>
<asrwt>0</asrwt>
<pdfrwt beam="1">  1        2 0.30418759E-02 0.77741655E+02</pdfrwt>
<pdfrwt beam="2">  1       -1 0.11756536E-01 0.77741655E+02</pdfrwt>
<totfact> 0.13446467E+05</totfact>
</mgrwt>
</event>
<event>
 8    1  0.1520917E-017  0.7948780E+02  0.7818608E-02  0.1330511E+00
         -1   -1    0    0    0  501 -0.00000000000E+00  0.00000000000E+00  0.10263966426E+01  0.10264090167E+01  0.50400000000E-02 0.  1.
          2   -1    0    0  501    0  0.00000000000E+00 -0.00000000000E+00 -0.15389451849E+04  0.15389451849E+04  0.25500000000E-02 0. -1.
         24    2    1    2    0    0  0.00000000000E+00  0.00000000000E+00 -0.15379187882E+04  0.15399715939E+04  0.79487802849E+02 0.  0.
         66    2    3    3    0    0  0.18958011425E+02  0.38714783188E+01 -0.14414571079E+04  0.14415883561E+04  0.19999981675E+01 0.  0.
        -13    1    3    3    0    0 -0.18958011425E+02 -0.38714783188E+01 -0.96461680279E+02  0.98383237738E+02  0.10566000000E+00 0.  1.
         13    1    4    4    0    0  0.11767175390E+01  0.33343923283E+00 -0.77318450307E+02  0.77328195167E+02  0.10566000000E+00 0. -1.
        -13    1    4    4    0    0  0.12182961498E+02  0.30515062428E+01 -0.90656285929E+03  0.90664985813E+03  0.10566000000E+00 0.  1.
         14    1    4    4    0    0  0.55983323887E+01  0.48653284313E+00 -0.45757579834E+03  0.45761030285E+03  0.00000000000E+00 0. -1.
<mgrwt>
<rscale>  0 0.79487803E+02</rscale>
<asrwt>0</asrwt>
<pdfrwt beam="1">  1        2 0.23675895E+00 0.79487803E+02</pdfrwt>
<pdfrwt beam="2">  1       -1 0.15790936E-03 0.79487803E+02</pdfrwt>
<totfact> 0.33470679E+05</totfact>
</mgrwt>
</event>
<event>
 8    1  0.1520917E-017  0.7893279E+02  0.7818608E-02  0.1332108E+00
         -1   -1    0    0    0  501 -0.00000000000E+00  0.00000000000E+00  0.10823293510E+02  0.10823294684E+02  0.50400000000E-02 0.  1.
          2   -1    0    0  501    0  0.00000000000E+00 -0.00000000000E+00 -0.14391147661E+03  0.14391147663E+03  0.25500000000E-02 0. -1.
         24    2    1    2    0    0  0.00000000000E+00  0.00000000000E+00 -0.13308818310E+03  0.15473477132E+03  0.78932787697E+02 0.  0.
         66    2    3    3    0    0  0.25602397347E+02 -0.29149815783E+02 -0.52670134188E+02  0.65447211909E+02  0.20000003092E+01 0.  0.
        -13    1    3    3    0    0 -0.25602397347E+02  0.29149815783E+02 -0.80418048913E+02  0.89287559408E+02  0.10566000000E+00 0.  1.
         13    1    4    4    0    0  0.20549113786E+02 -0.22529091033E+02 -0.40951919359E+02  0.51057779852E+02  0.10566000000E+00 0. -1.
        -13    1    4    4    0    0  0.43231018370E+01 -0.53093440072E+01 -0.97430195387E+01  0.11908649674E+02  0.10566000000E+00 0.  1.
         14    1    4    4    0    0  0.73018172339E+00 -0.13113807424E+01 -0.19751952903E+01  0.24807823837E+01  0.00000000000E+00 0. -1.
<mgrwt>
<rscale>  0 0.78932788E+02</rscale>
<asrwt>0</asrwt>
<pdfrwt beam="1">  1        2 0.22140226E-01 0.78932788E+02</pdfrwt>
<pdfrwt beam="2">  1       -1 0.16651223E-02 0.78932788E+02</pdfrwt>
<totfact> 0.20483157E+05</totfact>
</mgrwt>
</event>
<event>
 8    1  0.1520917E-017  0.8214928E+02  0.7818608E-02  0.1323060E+00
          2   -1    0    0  501    0  0.00000000000E+00  0.00000000000E+00  0.57326718144E+03  0.57326718145E+03  0.25500000000E-02 0. -1.
         -1   -1    0    0    0  501 -0.00000000000E+00 -0.00000000000E+00 -0.29429988431E+01  0.29430031587E+01  0.50400000000E-02 0.  1.
         24    2    1    2    0    0  0.00000000000E+00  0.00000000000E+00  0.57032418260E+03  0.57621018461E+03  0.82149276242E+02 0.  0.
         66    2    3    3    0    0 -0.33249160642E+02  0.55293064762E+01  0.44968437500E+03  0.45095023788E+03  0.20000017981E+01 0.  0.
        -13    1    3    3    0    0  0.33249160642E+02 -0.55293064762E+01  0.12063980760E+03  0.12525994673E+03  0.10566000000E+00 0.  1.
         13    1    4    4    0    0 -0.16292897029E+02  0.23511868142E+01  0.21456636942E+03  0.21519694381E+03  0.10566000000E+00 0. -1.
        -13    1    4    4    0    0 -0.56776827447E+00  0.35398188494E-01  0.10782420101E+02  0.10797933187E+02  0.10566000000E+00 0.  1.
        -14    1    4    4    0    0 -0.16388495339E+02  0.31427214734E+01  0.22433558548E+03  0.22495536088E+03  0.00000000000E+00 0.  1.
<mgrwt>
<rscale>  0 0.82149276E+02</rscale>
<asrwt>0</asrwt>
<pdfrwt beam="1">  1        2 0.88194896E-01 0.82149276E+02</pdfrwt>
<pdfrwt beam="2">  1       -1 0.45276967E-03 0.82149276E+02</pdfrwt>
<totfact> 0.29629460E+05</totfact>
</mgrwt>
</event>
<event>
 8    1  0.1759759E-017  0.7080451E+02  0.7818608E-02  0.1357378E+00
         -1   -1    0    0    0  501 -0.00000000000E+00  0.00000000000E+00  0.10600822837E+02  0.10600824036E+02  0.50400000000E-02 0.  1.
          2   -1    0    0  501    0  0.00000000000E+00 -0.00000000000E+00 -0.11822851628E+03  0.11822851631E+03  0.25500000000E-02 0. -1.
         24    2    1    2    0    0  0.00000000000E+00  0.44408920985E-15 -0.10762769344E+03  0.12882934034E+03  0.70804509302E+02 0.  0.
         66    2    3    3    0    0  0.18224337409E+02 -0.32111579252E+01 -0.10871042135E+03  0.11029231056E+03  0.20000124330E+01 0.  0.
        -13    1    3    3    0    0 -0.18224337409E+02  0.32111579252E+01  0.10827279108E+01  0.18537029778E+02  0.10566000000E+00 0.  1.
         13    1    4    4    0    0  0.13898857297E+02 -0.23211536571E+01 -0.85373244114E+02  0.86528422862E+02  0.10566000000E+00 0. -1.
        -13    1    4    4    0    0  0.13389071217E+01 -0.42663608152E+00 -0.91960236738E+01  0.93033706833E+01  0.10566000000E+00 0.  1.
        -14    1    4    4    0    0  0.29865729901E+01 -0.46336818662E+00 -0.14141153565E+02  0.14460517019E+02  0.00000000000E+00 0.  1.
<mgrwt>
<rscale>  0 0.70804509E+02</rscale>
<asrwt>0</asrwt>
<pdfrwt beam="1">  1        2 0.18189002E-01 0.70804509E+02</pdfrwt>
<pdfrwt beam="2">  1       -1 0.16308960E-02 0.70804509E+02</pdfrwt>
<totfact> 0.25700473E+05</totfact>
</mgrwt>
</event>
<event>
 8    1  0.1520917E-017  0.8131736E+02  0.7818608E-02  0.1325354E+00
         -1   -1    0    0    0  501 -0.00000000000E+00  0.00000000000E+00  0.58689435538E+02  0.58689435754E+02  0.50400000000E-02 0.  1.
          2   -1    0    0  501    0  0.00000000000E+00 -0.00000000000E+00 -0.28167387703E+02  0.28167387819E+02  0.25500000000E-02 0. -1.
         24    2    1    2    0    0  0.00000000000E+00  0.00000000000E+00  0.30522047835E+02  0.86856823573E+02  0.81317356063E+02 0.  0.
         66    2    3    3    0    0  0.21436476065E+02 -0.42176730570E+01 -0.21324617350E+02  0.30594943700E+02  0.20000006959E+01 0.  0.
        -13    1    3    3    0    0 -0.21436476065E+02  0.42176730570E+01  0.51846665184E+02  0.56261879873E+02  0.10566000000E+00 0.  1.
         13    1    4    4    0    0  0.16252331856E+02 -0.31947618880E+01 -0.16023657440E+02  0.23045901069E+02  0.10566000000E+00 0. -1.
        -13    1    4    4    0    0  0.17977244195E+01  0.74377159085E-01 -0.20302066703E+01  0.27148201064E+01  0.10566000000E+00 0.  1.
         14    1    4    4    0    0  0.33864197886E+01 -0.10972883281E+01 -0.32707532392E+01  0.48342225240E+01  0.00000000000E+00 0. -1.
<mgrwt>
<rscale>  0 0.81317356E+02</rscale>
<asrwt>0</asrwt>
<pdfrwt beam="1">  1        2 0.43334443E-02 0.81317356E+02</pdfrwt>
<pdfrwt beam="2">  1       -1 0.90291440E-02 0.81317356E+02</pdfrwt>
<totfact> 0.12691654E+05</totfact>
</mgrwt>
</event>
<event>
 8    1  0.1520917E-017  0.7823625E+02  0.7818608E-02  0.1334133E+00
         -1   -1    0    0    0  501 -0.00000000000E+00  0.00000000000E+00  0.11234081527E+02  0.11234082658E+02  0.50400000000E-02 0.  1.
          2   -1    0    0  501    0  0.00000000000E+00 -0.00000000000E+00 -0.13621295426E+03  0.13621295428E+03  0.25500000000E-02 0. -1.
         24    2    1    2    0    0  0.00000000000E+00  0.00000000000E+00 -0.12497887273E+03  0.14744703694E+03  0.78236245266E+02 0.  0.
         66    2    3    3    0    0  0.13488611666E+02 -0.14915505285E+02 -0.12570934722E+03  0.12732342644E+03  0.19999994268E+01 0.  0.
        -13    1    3    3    0    0 -0.13488611666E+02  0.14915505285E+02  0.73047449451E+00  0.20123610501E+02  0.10566000000E+00 0.  1.
         13    1    4    4    0    0  0.95082239120E+01 -0.97003090762E+01 -0.83030779257E+02  0.84134557622E+02  0.10566000000E+00 0. -1.
        -13    1    4    4    0    0  0.24464504580E+01 -0.37684378243E+01 -0.27575495146E+02  0.27939315311E+02  0.10566000000E+00 0.  1.
        -14    1    4    4    0    0  0.15339372960E+01 -0.14467583846E+01 -0.15103072820E+02  0.15249553504E+02  0.00000000000E+00 0.  1.
<mgrwt>
<rscale>  0 0.78236245E+02</rscale>
<asrwt>0</asrwt>
<pdfrwt beam="1">  1        2 0.20955838E-01 0.78236245E+02</pdfrwt>
<pdfrwt beam="2">  1       -1 0.17283204E-02 0.78236245E+02</pdfrwt>
<totfact> 0.20610859E+05</totfact>
</mgrwt>
</event>
<event>
 8    1  0.1520917E-017  0.7985966E+02  0.7818608E-02  0.1329450E+00
         -1   -1    0    0    0  501 -0.00000000000E+00  0.00000000000E+00  0.23300892423E+03  0.23300892428E+03  0.50400000000E-02 0.  1.
          2   -1    0    0  501    0  0.00000000000E+00 -0.00000000000E+00 -0.68426183394E+01  0.68426188145E+01  0.25500000000E-02 0. -1.
         24    2    1    2    0    0  0.00000000000E+00  0.00000000000E+00  0.22616630589E+03  0.23985154309E+03  0.79859656940E+02 0.  0.
         66    2    3    3    0    0  0.23073182067E+01  0.33766222584E+02  0.49661362104E+02  0.60130960388E+02  0.20000015599E+01 0.  0.
        -13    1    3    3    0    0 -0.23073182067E+01 -0.33766222584E+02  0.17650494378E+03  0.17972058271E+03  0.10566000000E+00 0.  1.
         13    1    4    4    0    0  0.15814047651E+01  0.13353810656E+02  0.19723171380E+02  0.23871316541E+02  0.10566000000E+00 0. -1.
        -13    1    4    4    0    0 -0.24723130199E+00  0.20197238740E+01  0.30584659877E+01  0.36750219152E+01  0.10566000000E+00 0.  1.
         14    1    4    4    0    0  0.97314474354E+00  0.18392688054E+02  0.26879724736E+02  0.32584621932E+02  0.00000000000E+00 0. -1.
<mgrwt>
<rscale>  0 0.79859657E+02</rscale>
<asrwt>0</asrwt>
<pdfrwt beam="1">  1        2 0.10527107E-02 0.79859657E+02</pdfrwt>
<pdfrwt beam="2">  1       -1 0.35847521E-01 0.79859657E+02</pdfrwt>
<totfact> 0.95301378E+04</totfact>
</mgrwt>
</event>
<event>
 8    1  0.1520917E-017  0.7444712E+02  0.7818608E-02  0.1345592E+00
         -1   -1    0    0    0  501 -0.00000000000E+00  0.00000000000E+00  0.13733299726E+01  0.13733392208E+01  0.50400000000E-02 0.  1.
          2   -1    0    0  501    0  0.00000000000E+00 -0.00000000000E+00 -0.10089263418E+04  0.10089263418E+04  0.25500000000E-02 0. -1.
         24    2    1    2    0    0  0.00000000000E+00 -0.88817841970E-15 -0.10075530119E+04  0.10102996811E+04  0.74447121065E+02 0.  0.
         66    2    3    3    0    0  0.95062328809E+01 -0.67555936772E+01 -0.98347156917E+03  0.98354274634E+03  0.19999992470E+01 0.  0.
        -13    1    3    3    0    0 -0.95062328809E+01  0.67555936772E+01 -0.24081442690E+02  0.26756934719E+02  0.10566000000E+00 0.  1.
         13    1    4    4    0    0  0.33333077626E+01 -0.26625076551E+01 -0.36034275179E+03  0.36036801997E+03  0.10566000000E+00 0. -1.
        -13    1    4    4    0    0  0.78087883101E+00 -0.71729582633E+00 -0.13951879728E+03  0.13952286638E+03  0.10566000000E+00 0.  1.
         14    1    4    4    0    0  0.53920462873E+01 -0.33757901957E+01 -0.48361002010E+03  0.48365185998E+03  0.00000000000E+00 0. -1.
<mgrwt>
<rscale>  0 0.74447121E+02</rscale>
<asrwt>0</asrwt>
<pdfrwt beam="1">  1        2 0.15521884E+00 0.74447121E+02</pdfrwt>
<pdfrwt beam="2">  1       -1 0.21128305E-03 0.74447121E+02</pdfrwt>
<totfact> 0.42450837E+05</totfact>
</mgrwt>
</event>
<event>
 8    1  0.1520917E-017  0.8014228E+02  0.7818608E-02  0.1328648E+00
         -1   -1    0    0    0  501 -0.00000000000E+00  0.00000000000E+00  0.17154557445E+01  0.17154631483E+01  0.50400000000E-02 0.  1.
          2   -1    0    0  501    0  0.00000000000E+00 -0.00000000000E+00 -0.93601530179E+03  0.93601530179E+03  0.25500000000E-02 0. -1.
         24    2    1    2    0    0  0.00000000000E+00 -0.35527136788E-14 -0.93429984605E+03  0.93773076494E+03  0.80142280961E+02 0.  0.
         66    2    3    3    0    0 -0.65331199290E+01 -0.30684689976E+02 -0.75866119865E+03  0.75931221916E+03  0.19999945216E+01 0.  0.
        -13    1    3    3    0    0  0.65331199290E+01  0.30684689976E+02 -0.17563864740E+03  0.17841854578E+03  0.10566000000E+00 0.  1.
         13    1    4    4    0    0 -0.17000561416E+01 -0.99835660851E+01 -0.24427919174E+03  0.24448905182E+03  0.10566000000E+00 0.  1.
        -13    1    4    4    0    0 -0.44722580016E+01 -0.19506124630E+02 -0.47502877823E+03  0.47545014597E+03  0.10566000000E+00 0. -1.
        -14    1    4    4    0    0 -0.36080578584E+00 -0.11949992604E+01 -0.39353228675E+02  0.39373021362E+02  0.00000000000E+00 0.  1.
<mgrwt>
<rscale>  0 0.80142281E+02</rscale>
<asrwt>0</asrwt>
<pdfrwt beam="1">  1        2 0.14400195E+00 0.80142281E+02</pdfrwt>
<pdfrwt beam="2">  1       -1 0.26391759E-03 0.80142281E+02</pdfrwt>
<totfact> 0.34919961E+05</totfact>
</mgrwt>
</event>
<event>
 8    1  0.1520917E-017  0.7966775E+02  0.7818608E-02  0.1329997E+00
         -1   -1    0    0    0  501 -0.00000000000E+00  0.00000000000E+00  0.53458183269E+02  0.53458183506E+02  0.50400000000E-02 0.  1.
          2   -1    0    0  501    0  0.00000000000E+00 -0.00000000000E+00 -0.29681846727E+02  0.29681846837E+02  0.25500000000E-02 0. -1.
         24    2    1    2    0    0 -0.88817841970E-15  0.35527136788E-14  0.23776336541E+02  0.83140030343E+02  0.79667750477E+02 0.  0.
         66    2    3    3    0    0  0.77309276236E+01 -0.26502628530E+02 -0.18034977303E+02  0.33036600417E+02  0.19999999702E+01 0.  0.
        -13    1    3    3    0    0 -0.77309276236E+01  0.26502628530E+02  0.41811313845E+02  0.50103429926E+02  0.10566000000E+00 0.  1.
         13    1    4    4    0    0  0.57502640261E+01 -0.19467351505E+02 -0.13683206632E+02  0.24480290414E+02  0.10566000000E+00 0. -1.
        -13    1    4    4    0    0  0.12306851188E+01 -0.27721702807E+01 -0.19239009675E+01  0.35933372921E+01  0.10566000000E+00 0.  1.
        -14    1    4    4    0    0  0.74997847872E+00 -0.42631067445E+01 -0.24278697038E+01  0.49629727112E+01  0.00000000000E+00 0.  1.
<mgrwt>
<rscale>  0 0.79667750E+02</rscale>
<asrwt>0</asrwt>
<pdfrwt beam="1">  1        2 0.45664380E-02 0.79667750E+02</pdfrwt>
<pdfrwt beam="2">  1       -1 0.82243359E-02 0.79667750E+02</pdfrwt>
<totfact> 0.13584516E+05</totfact>
</mgrwt>
</event>
<event>
 8    1  0.1520917E-017  0.8339083E+02  0.7818608E-02  0.1319695E+00
         -1   -1    0    0    0  501 -0.00000000000E+00  0.00000000000E+00  0.33325727278E+01  0.33325765389E+01  0.50400000000E-02 0.  1.
          2   -1    0    0  501    0  0.00000000000E+00 -0.00000000000E+00 -0.52167099238E+03  0.52167099238E+03  0.25500000000E-02 0. -1.
         24    2    1    2    0    0  0.71054273576E-14 -0.88817841970E-15 -0.51833841965E+03  0.52500356892E+03  0.83390827412E+02 0.  0.
         66    2    3    3    0    0  0.31798357888E+02 -0.70942247182E+01 -0.42288964990E+03  0.42414752102E+03  0.20000005418E+01 0.  0.
        -13    1    3    3    0    0 -0.31798357888E+02  0.70942247182E+01 -0.95448769748E+02  0.10085604791E+03  0.10566000000E+00 0.  1.
         13    1    4    4    0    0  0.14917711771E+02 -0.31083736813E+01 -0.20113247263E+03  0.20170890615E+03  0.10566000000E+00 0. -1.
        -13    1    4    4    0    0  0.94520331468E+01 -0.16707812926E+01 -0.12746997460E+03  0.12783089623E+03  0.10566000000E+00 0.  1.
         14    1    4    4    0    0  0.74286129698E+01 -0.23150697443E+01 -0.94287202667E+02  0.94607718636E+02  0.00000000000E+00 0. -1.
<mgrwt>
<rscale>  0 0.83390827E+02</rscale>
<asrwt>0</asrwt>
<pdfrwt beam="1">  1        2 0.80257011E-01 0.83390827E+02</pdfrwt>
<pdfrwt beam="2">  1       -1 0.51270420E-03 0.83390827E+02</pdfrwt>
<totfact> 0.27691156E+05</totfact>
</mgrwt>
</event>
<event>
 8    1  0.1520917E-017  0.7903357E+02  0.7818608E-02  0.1331817E+00
          2   -1    0    0  501    0  0.00000000000E+00  0.00000000000E+00  0.44040674329E+01  0.44040681712E+01  0.25500000000E-02 0. -1.
         -1   -1    0    0    0  501 -0.00000000000E+00 -0.00000000000E+00 -0.35457586695E+03  0.35457586699E+03  0.50400000000E-02 0.  1.
         24    2    1    2    0    0 -0.35527136788E-14  0.00000000000E+00 -0.35017179952E+03  0.35897993516E+03  0.79033566719E+02 0.  0.
         66    2    3    3    0    0 -0.30208093625E+02 -0.19913207127E+02 -0.24708764097E+03  0.24973058895E+03  0.20000000718E+01 0.  0.
        -13    1    3    3    0    0  0.30208093625E+02  0.19913207127E+02 -0.10308415855E+03  0.10924934620E+03  0.10566000000E+00 0.  1.
         13    1    4    4    0    0 -0.69141391079E+01 -0.50909470477E+01 -0.57905498042E+02  0.58538713079E+02  0.10566000000E+00 0. -1.
        -13    1    4    4    0    0 -0.17410414989E+02 -0.11696012148E+02 -0.14590662484E+03  0.14740649099E+03  0.10566000000E+00 0.  1.
        -14    1    4    4    0    0 -0.58835395287E+01 -0.31262479313E+01 -0.43275518090E+02  0.43785384884E+02  0.00000000000E+00 0.  1.
<mgrwt>
<rscale>  0 0.79033567E+02</rscale>
<asrwt>0</asrwt>
<pdfrwt beam="1">  1        2 0.67754917E-03 0.79033567E+02</pdfrwt>
<pdfrwt beam="2">  1       -1 0.54550111E-01 0.79033567E+02</pdfrwt>
<totfact> 0.82943096E+04</totfact>
</mgrwt>
</event>
<event>
 8    1  0.1520917E-017  0.8133755E+02  0.7818608E-02  0.1325298E+00
         -1   -1    0    0    0  501 -0.00000000000E+00  0.00000000000E+00  0.26270080187E+02  0.26270080671E+02  0.50400000000E-02 0.  1.
          2   -1    0    0  501    0  0.00000000000E+00 -0.00000000000E+00 -0.62959430766E+02  0.62959430818E+02  0.25500000000E-02 0. -1.
         24    2    1    2    0    0  0.00000000000E+00  0.35527136788E-14 -0.36689350579E+02  0.89229511488E+02  0.81337551442E+02 0.  0.
         66    2    3    3    0    0 -0.31391577153E+02  0.22488921005E+02 -0.32265144000E+02  0.50360919386E+02  0.19999999767E+01 0.  0.
        -13    1    3    3    0    0  0.31391577153E+02 -0.22488921005E+02 -0.44242065787E+01  0.38868592102E+02  0.10566000000E+00 0.  1.
         13    1    4    4    0    0 -0.15741919992E+01  0.12131031663E+01 -0.18979947692E+01  0.27501359825E+01  0.10566000000E+00 0. -1.
        -13    1    4    4    0    0 -0.33104903830E+01  0.22796593432E+01 -0.26846897500E+01  0.48347612544E+01  0.10566000000E+00 0.  1.
        -14    1    4    4    0    0 -0.26506894771E+02  0.18996158496E+02 -0.27682459481E+02  0.42776022149E+02  0.00000000000E+00 0.  1.
<mgrwt>
<rscale>  0 0.81337551E+02</rscale>
<asrwt>0</asrwt>
<pdfrwt beam="1">  1        2 0.96860663E-02 0.81337551E+02</pdfrwt>
<pdfrwt beam="2">  1       -1 0.40415508E-02 0.81337551E+02</pdfrwt>
<totfact> 0.15047734E+05</totfact>
</mgrwt>
</event>
<event>
 8    1  0.1520917E-017  0.7883320E+02  0.7818608E-02  0.1332396E+00
         -1   -1    0    0    0  501 -0.00000000000E+00  0.00000000000E+00  0.11411118291E+02  0.11411119404E+02  0.50400000000E-02 0.  1.
          2   -1    0    0  501    0  0.00000000000E+00 -0.00000000000E+00 -0.13615389968E+03  0.13615389971E+03  0.25500000000E-02 0. -1.
         24    2    1    2    0    0  0.00000000000E+00  0.35527136788E-14 -0.12474278139E+03  0.14756501911E+03  0.78833199579E+02 0.  0.
         66    2    3    3    0    0 -0.32359394749E+02 -0.22392276019E+02 -0.59105597138E+02  0.71035315240E+02  0.19999860769E+01 0.  0.
        -13    1    3    3    0    0  0.32359394749E+02  0.22392276019E+02 -0.65637184256E+02  0.76529703873E+02  0.10566000000E+00 0.  1.
         13    1    4    4    0    0 -0.10904376892E+02 -0.71896648249E+01 -0.19878253075E+02  0.23785559170E+02  0.10566000000E+00 0. -1.
        -13    1    4    4    0    0 -0.83726148002E+01 -0.61894859182E+01 -0.16816774656E+02  0.19779420830E+02  0.10566000000E+00 0.  1.
         14    1    4    4    0    0 -0.13082403057E+02 -0.90131252759E+01 -0.22410569408E+02  0.27470335239E+02  0.00000000000E+00 0. -1.
<mgrwt>
<rscale>  0 0.78833200E+02</rscale>
<asrwt>0</asrwt>
<pdfrwt beam="1">  1        2 0.20946753E-01 0.78833200E+02</pdfrwt>
<pdfrwt beam="2">  1       -1 0.17555569E-02 0.78833200E+02</pdfrwt>
<totfact> 0.20196581E+05</totfact>
</mgrwt>
</event>
<event>
 8    1  0.1520917E-017  0.7618190E+02  0.7818608E-02  0.1340250E+00
          2   -1    0    0  501    0  0.00000000000E+00  0.00000000000E+00  0.34837240929E+03  0.34837240930E+03  0.25500000000E-02 0. -1.
         -1   -1    0    0    0  501 -0.00000000000E+00 -0.00000000000E+00 -0.41648535799E+01  0.41648566294E+01  0.50400000000E-02 0.  1.
         24    2    1    2    0    0  0.00000000000E+00  0.00000000000E+00  0.34420755571E+03  0.35253726593E+03  0.76181903761E+02 0.  0.
         66    2    3    3    0    0  0.44967240366E+01 -0.22966484641E+02  0.31114451003E+03  0.31202978394E+03  0.19999991510E+01 0.  0.
        -13    1    3    3    0    0 -0.44967240366E+01  0.22966484641E+02  0.33063045680E+02  0.40507481994E+02  0.10566000000E+00 0.  1.
         13    1    4    4    0    0  0.46971109611E+00 -0.34486258979E+01  0.47978676626E+02  0.48104866947E+02  0.10566000000E+00 0. -1.
        -13    1    4    4    0    0  0.41346548844E+01 -0.18440214968E+02  0.25141955189E+03  0.25212881456E+03  0.10566000000E+00 0.  1.
        -14    1    4    4    0    0 -0.10764194397E+00 -0.10776437753E+01  0.11746281520E+02  0.11796102426E+02  0.00000000000E+00 0.  1.
<mgrwt>
<rscale>  0 0.76181904E+02</rscale>
<asrwt>0</asrwt>
<pdfrwt beam="1">  1        2 0.53595774E-01 0.76181904E+02</pdfrwt>
<pdfrwt beam="2">  1       -1 0.64074672E-03 0.76181904E+02</pdfrwt>
<totfact> 0.30567966E+05</totfact>
</mgrwt>
</event>
<event>
 8    1  0.1520917E-017  0.7762115E+02  0.7818608E-02  0.1335941E+00
         -1   -1    0    0    0  501 -0.00000000000E+00  0.00000000000E+00  0.41083754612E+01  0.41083785527E+01  0.50400000000E-02 0.  1.
          2   -1    0    0  501    0  0.00000000000E+00 -0.00000000000E+00 -0.36663153218E+03  0.36663153219E+03  0.25500000000E-02 0. -1.
         24    2    1    2    0    0  0.00000000000E+00 -0.71054273576E-14 -0.36252315672E+03  0.37073991074E+03  0.77621145697E+02 0.  0.
         66    2    3    3    0    0 -0.42669710604E+01  0.37555743862E+02 -0.22291449730E+03  0.22610509513E+03  0.19999992541E+01 0.  0.
        -13    1    3    3    0    0  0.42669710604E+01 -0.37555743862E+02 -0.13960865942E+03  0.14463481562E+03  0.10566000000E+00 0.  1.
         13    1    4    4    0    0 -0.27838805896E+01  0.22874291126E+02 -0.13733536311E+03  0.13925514823E+03  0.10566000000E+00 0. -1.
        -13    1    4    4    0    0  0.37003422695E-01  0.42232775273E+01 -0.25910851593E+02  0.26253015762E+02  0.10566000000E+00 0.  1.
        -14    1    4    4    0    0 -0.15200938935E+01  0.10458175208E+02 -0.59668282599E+02  0.60596931131E+02  0.00000000000E+00 0.  1.
<mgrwt>
<rscale>  0 0.77621146E+02</rscale>
<asrwt>0</asrwt>
<pdfrwt beam="1">  1        2 0.56404825E-01 0.77621146E+02</pdfrwt>
<pdfrwt beam="2">  1       -1 0.63205830E-03 0.77621146E+02</pdfrwt>
<totfact> 0.29645207E+05</totfact>
</mgrwt>
</event>
<event>
 8    1  0.1520917E-017  0.7993588E+02  0.7818608E-02  0.1329233E+00
          2   -1    0    0  501    0  0.00000000000E+00  0.00000000000E+00  0.24674309427E+03  0.24674309428E+03  0.25500000000E-02 0. -1.
         -1   -1    0    0    0  501 -0.00000000000E+00 -0.00000000000E+00 -0.64740859024E+01  0.64740878642E+01  0.50400000000E-02 0.  1.
         24    2    1    2    0    0  0.00000000000E+00  0.00000000000E+00  0.24026900836E+03  0.25321718214E+03  0.79935880258E+02 0.  0.
         66    2    3    3    0    0  0.12965485133E+02  0.35421645225E+02  0.16183076001E+03  0.16618059947E+03  0.19999996275E+01 0.  0.
        -13    1    3    3    0    0 -0.12965485133E+02 -0.35421645225E+02  0.78438248349E+02  0.87036582672E+02  0.10566000000E+00 0.  1.
         13    1    4    4    0    0  0.49727559670E+01  0.14192208057E+02  0.64289371792E+02  0.66024855630E+02  0.10566000000E+00 0. -1.
        -13    1    4    4    0    0  0.22746208766E+01  0.72732707843E+01  0.30325344336E+02  0.31268387249E+02  0.10566000000E+00 0.  1.
         14    1    4    4    0    0  0.57181082894E+01  0.13956166383E+02  0.67216043887E+02  0.68887356593E+02  0.00000000000E+00 0. -1.
<mgrwt>
<rscale>  0 0.79935880E+02</rscale>
<asrwt>0</asrwt>
<pdfrwt beam="1">  1        2 0.37960480E-01 0.79935880E+02</pdfrwt>
<pdfrwt beam="2">  1       -1 0.99601327E-03 0.79935880E+02</pdfrwt>
<totfact> 0.23806725E+05</totfact>
</mgrwt>
</event>
<event>
 8    1  0.1520917E-017  0.7791808E+02  0.7818608E-02  0.1335066E+00
          2   -1    0    0  501    0  0.00000000000E+00  0.00000000000E+00  0.55411859043E+02  0.55411859101E+02  0.25500000000E-02 0. -1.
         -1   -1    0    0    0  501 -0.00000000000E+00 -0.00000000000E+00 -0.27391373103E+02  0.27391373567E+02  0.50400000000E-02 0.  1.
         24    2    1    2    0    0 -0.17763568394E-14  0.35527136788E-14  0.28020485940E+02  0.82803232668E+02  0.77918083318E+02 0.  0.
         66    2    3    3    0    0 -0.14501291465E+02  0.26465456782E+02  0.40160345922E+02  0.50274857036E+02  0.20000021357E+01 0.  0.
        -13    1    3    3    0    0  0.14501291465E+02 -0.26465456782E+02 -0.12139859983E+02  0.32528375632E+02  0.10566000000E+00 0.  1.
         13    1    4    4    0    0 -0.10952001182E+02  0.20665254625E+02  0.30924456351E+02  0.38772828672E+02  0.10566000000E+00 0. -1.
        -13    1    4    4    0    0 -0.10128079524E+01  0.21036748364E+01  0.37312277546E+01  0.44027778002E+01  0.10566000000E+00 0.  1.
        -14    1    4    4    0    0 -0.25364823308E+01  0.36965273209E+01  0.55046618166E+01  0.70992505635E+01  0.00000000000E+00 0.  1.
<mgrwt>
<rscale>  0 0.77918083E+02</rscale>
<asrwt>0</asrwt>
<pdfrwt beam="1">  1        2 0.85249014E-02 0.77918083E+02</pdfrwt>
<pdfrwt beam="2">  1       -1 0.42140575E-02 0.77918083E+02</pdfrwt>
<totfact> 0.16424874E+05</totfact>
</mgrwt>
</event>
<event>
 8    1  0.1520917E-017  0.7896689E+02  0.7818608E-02  0.1332009E+00
          2   -1    0    0  501    0  0.00000000000E+00  0.00000000000E+00  0.36577422005E+02  0.36577422094E+02  0.25500000000E-02 0. -1.
         -1   -1    0    0    0  501 -0.00000000000E+00 -0.00000000000E+00 -0.42620348716E+02  0.42620349014E+02  0.50400000000E-02 0.  1.
         24    2    1    2    0    0  0.00000000000E+00 -0.17763568394E-14 -0.60429267115E+01  0.79197771108E+02  0.78966891703E+02 0.  0.
         66    2    3    3    0    0  0.24554567504E+02 -0.11830132350E+02  0.25591738069E+02  0.37440831606E+02  0.19999993135E+01 0.  0.
        -13    1    3    3    0    0 -0.24554567504E+02  0.11830132350E+02 -0.31634664781E+02  0.41756939502E+02  0.10566000000E+00 0.  1.
         13    1    4    4    0    0  0.54365861400E+01 -0.22151972772E+01  0.57991028725E+01  0.82525345196E+01  0.10566000000E+00 0. -1.
        -13    1    4    4    0    0  0.78906780747E+01 -0.38450156133E+01  0.91165245608E+01  0.12655794311E+02  0.10566000000E+00 0.  1.
         14    1    4    4    0    0  0.11227303289E+02 -0.57699194595E+01  0.10676110636E+02  0.16532502776E+02  0.00000000000E+00 0. -1.
<mgrwt>
<rscale>  0 0.78966892E+02</rscale>
<asrwt>0</asrwt>
<pdfrwt beam="1">  1        2 0.56272957E-02 0.78966892E+02</pdfrwt>
<pdfrwt beam="2">  1       -1 0.65569768E-02 0.78966892E+02</pdfrwt>
<totfact> 0.14511448E+05</totfact>
</mgrwt>
</event>
<event>
 8    1  0.1520917E-017  0.7966898E+02  0.7818608E-02  0.1329993E+00
         -1   -1    0    0    0  501 -0.00000000000E+00  0.00000000000E+00  0.14512300276E+02  0.14512301151E+02  0.50400000000E-02 0.  1.
          2   -1    0    0  501    0  0.00000000000E+00 -0.00000000000E+00 -0.10934080457E+03  0.10934080460E+03  0.25500000000E-02 0. -1.
         24    2    1    2    0    0 -0.17763568394E-14  0.00000000000E+00 -0.94828504292E+02  0.12385310575E+03  0.79668981275E+02 0.  0.
         66    2    3    3    0    0  0.96280437614E+01  0.17557166081E+02 -0.10093274556E+03  0.10291925200E+03  0.19999992984E+01 0.  0.
        -13    1    3    3    0    0 -0.96280437614E+01 -0.17557166081E+02  0.61042412701E+01  0.20933853753E+02  0.10566000000E+00 0.  1.
         13    1    4    4    0    0  0.57487725312E+01  0.11542128601E+02 -0.61804203457E+02  0.63135092043E+02  0.10566000000E+00 0. -1.
        -13    1    4    4    0    0  0.24470130028E+01  0.36240909449E+01 -0.22046299616E+02  0.22476040545E+02  0.10566000000E+00 0.  1.
         14    1    4    4    0    0  0.14322582274E+01  0.23909465345E+01 -0.17082242490E+02  0.17308119408E+02  0.00000000000E+00 0. -1.
<mgrwt>
<rscale>  0 0.79668981E+02</rscale>
<asrwt>0</asrwt>
<pdfrwt beam="1">  1        2 0.16821662E-01 0.79668981E+02</pdfrwt>
<pdfrwt beam="2">  1       -1 0.22326617E-02 0.79668981E+02</pdfrwt>
<totfact> 0.18384674E+05</totfact>
</mgrwt>
</event>
<event>
 8    1  0.1520917E-017  0.7877978E+02  0.7818608E-02  0.1332550E+00
         -1   -1    0    0    0  501 -0.00000000000E+00  0.00000000000E+00  0.29011040607E+02  0.29011041045E+02  0.50400000000E-02 0.  1.
          2   -1    0    0  501    0  0.00000000000E+00 -0.00000000000E+00 -0.53481823325E+02  0.53481823386E+02  0.25500000000E-02 0. -1.
         24    2    1    2    0    0  0.00000000000E+00  0.00000000000E+00 -0.24470782718E+02  0.82492864431E+02  0.78779778340E+02 0.  0.
         66    2    3    3    0    0  0.10990415937E+01  0.39182004247E+02 -0.16036285242E+02  0.42398110897E+02  0.20000035081E+01 0.  0.
        -13    1    3    3    0    0 -0.10990415937E+01 -0.39182004247E+02 -0.84344974758E+01  0.40094753534E+02  0.10566000000E+00 0.  1.
         13    1    4    4    0    0  0.17279774262E+00  0.65892610274E+01 -0.30758445504E+01  0.72746273912E+01  0.10566000000E+00 0. -1.
        -13    1    4    4    0    0 -0.32236962620E+00  0.23826686445E+01 -0.84776880480E+00  0.25516481003E+01  0.10566000000E+00 0.  1.
         14    1    4    4    0    0  0.12486134773E+01  0.30210074575E+02 -0.12112671887E+02  0.32571835406E+02  0.00000000000E+00 0. -1.
<mgrwt>
<rscale>  0 0.78779778E+02</rscale>
<asrwt>0</asrwt>
<pdfrwt beam="1">  1        2 0.82279728E-02 0.78779778E+02</pdfrwt>
<pdfrwt beam="2">  1       -1 0.44632371E-02 0.78779778E+02</pdfrwt>
<totfact> 0.15815663E+05</totfact>
</mgrwt>
</event>
<event>
 8    1  0.1520917E-017  0.7948118E+02  0.7818608E-02  0.1330530E+00
          2   -1    0    0  501    0  0.00000000000E+00  0.00000000000E+00  0.16504146358E+03  0.16504146360E+03  0.25500000000E-02 0. -1.
         -1   -1    0    0    0  501 -0.00000000000E+00 -0.00000000000E+00 -0.95691984867E+01  0.95691998139E+01  0.50400000000E-02 0.  1.
         24    2    1    2    0    0 -0.35527136788E-14 -0.35527136788E-14  0.15547226509E+03  0.17461066341E+03  0.79481183713E+02 0.  0.
         66    2    3    3    0    0  0.28919360668E+02  0.26743242537E+02  0.88939497196E+02  0.97292161029E+02  0.19999983635E+01 0.  0.
        -13    1    3    3    0    0 -0.28919360668E+02 -0.26743242537E+02  0.66532767896E+02  0.77318502383E+02  0.10566000000E+00 0.  1.
         13    1    4    4    0    0  0.80012227050E+01  0.76189406179E+01  0.24161627751E+02  0.26568086881E+02  0.10566000000E+00 0. -1.
        -13    1    4    4    0    0  0.73051552837E+01  0.69054270513E+01  0.21207819519E+02  0.23469831471E+02  0.10566000000E+00 0.  1.
         14    1    4    4    0    0  0.13612982679E+02  0.12218874868E+02  0.43570049926E+02  0.47254242678E+02  0.00000000000E+00 0. -1.
<mgrwt>
<rscale>  0 0.79481184E+02</rscale>
<asrwt>0</asrwt>
<pdfrwt beam="1">  1        2 0.25390995E-01 0.79481184E+02</pdfrwt>
<pdfrwt beam="2">  1       -1 0.14721845E-02 0.79481184E+02</pdfrwt>
<totfact> 0.21024127E+05</totfact>
</mgrwt>
</event>
<event>
 8    1  0.1520917E-017  0.7832702E+02  0.7818608E-02  0.1333867E+00
          2   -1    0    0  501    0  0.00000000000E+00  0.00000000000E+00  0.11727392221E+02  0.11727392499E+02  0.25500000000E-02 0. -1.
         -1   -1    0    0    0  501 -0.00000000000E+00 -0.00000000000E+00 -0.13078613698E+03  0.13078613708E+03  0.50400000000E-02 0.  1.
         24    2    1    2    0    0  0.00000000000E+00  0.00000000000E+00 -0.11905874476E+03  0.14251352958E+03  0.78327015830E+02 0.  0.
         66    2    3    3    0    0  0.23853159813E+02 -0.27464843713E+02 -0.33296782879E+02  0.49355512515E+02  0.19999980578E+01 0.  0.
        -13    1    3    3    0    0 -0.23853159813E+02  0.27464843713E+02 -0.85761961883E+02  0.93158017064E+02  0.10566000000E+00 0.  1.
         13    1    4    4    0    0  0.41153773273E+01 -0.43785815519E+01 -0.63609585403E+01  0.87510721938E+01  0.10566000000E+00 0.  1.
        -13    1    4    4    0    0  0.11528256165E+02 -0.13769525273E+02 -0.16371402507E+02  0.24300915631E+02  0.10566000000E+00 0. -1.
         14    1    4    4    0    0  0.82095263212E+01 -0.93167368890E+01 -0.10564421831E+02  0.16303524690E+02  0.00000000000E+00 0. -1.
<mgrwt>
<rscale>  0 0.78327016E+02</rscale>
<asrwt>0</asrwt>
<pdfrwt beam="1">  1        2 0.18042143E-02 0.78327016E+02</pdfrwt>
<pdfrwt beam="2">  1       -1 0.20120943E-01 0.78327016E+02</pdfrwt>
<totfact> 0.11767218E+05</totfact>
</mgrwt>
</event>
<event>
 8    1  0.1520917E-017  0.8020139E+02  0.7818608E-02  0.1328481E+00
          2   -1    0    0  501    0  0.00000000000E+00  0.00000000000E+00  0.88288539319E+02  0.88288539356E+02  0.25500000000E-02 0. -1.
         -1   -1    0    0    0  501 -0.00000000000E+00 -0.00000000000E+00 -0.18213754559E+02  0.18213755256E+02  0.50400000000E-02 0.  1.
         24    2    1    2    0    0  0.00000000000E+00  0.00000000000E+00  0.70074784760E+02  0.10650229461E+03  0.80201392122E+02 0.  0.
         66    2    3    3    0    0 -0.95972626195E+01 -0.36788375701E+02  0.51886158074E+02  0.64355772320E+02  0.19999986645E+01 0.  0.
        -13    1    3    3    0    0  0.95972626195E+01  0.36788375701E+02  0.18188626686E+02  0.42146522292E+02  0.10566000000E+00 0.  1.
         13    1    4    4    0    0 -0.20561861381E+01 -0.87025457747E+01  0.13335548291E+02  0.16056469620E+02  0.10566000000E+00 0.  1.
        -13    1    4    4    0    0 -0.25850883837E+01 -0.87748222795E+01  0.11473572089E+02  0.14674270289E+02  0.10566000000E+00 0. -1.
         14    1    4    4    0    0 -0.49559880978E+01 -0.19311007647E+02  0.27077037694E+02  0.33625032411E+02  0.00000000000E+00 0. -1.
<mgrwt>
<rscale>  0 0.80201392E+02</rscale>
<asrwt>0</asrwt>
<pdfrwt beam="1">  1        2 0.13582853E-01 0.80201392E+02</pdfrwt>
<pdfrwt beam="2">  1       -1 0.28021161E-02 0.80201392E+02</pdfrwt>
<totfact> 0.17016939E+05</totfact>
</mgrwt>
</event>
<event>
 8    1  0.1520917E-017  0.7941807E+02  0.7818608E-02  0.1330711E+00
          2   -1    0    0  501    0  0.00000000000E+00  0.00000000000E+00  0.94581120340E+03  0.94581120340E+03  0.25500000000E-02 0. -1.
         -1   -1    0    0    0  501 -0.00000000000E+00 -0.00000000000E+00 -0.16671443341E+01  0.16671519524E+01  0.50400000000E-02 0.  1.
         24    2    1    2    0    0  0.35527136788E-14  0.35527136788E-14  0.94414405906E+03  0.94747835535E+03  0.79418068462E+02 0.  0.
         66    2    3    3    0    0  0.21056745814E+02  0.22120952279E+02  0.77467488699E+03  0.77527924235E+03  0.20000004727E+01 0.  0.
        -13    1    3    3    0    0 -0.21056745814E+02 -0.22120952279E+02  0.16946917207E+03  0.17219911301E+03  0.10566000000E+00 0.  1.
         13    1    4    4    0    0  0.15679860122E+01  0.14347944712E+01  0.53045349201E+02  0.53088016079E+02  0.10566000000E+00 0. -1.
        -13    1    4    4    0    0  0.16870358790E+02  0.17413836351E+02  0.60082164147E+03  0.60131065742E+03  0.10566000000E+00 0.  1.
        -14    1    4    4    0    0  0.26184010117E+01  0.32723214571E+01  0.12080789632E+03  0.12088056885E+03  0.00000000000E+00 0.  1.
<mgrwt>
<rscale>  0 0.79418068E+02</rscale>
<asrwt>0</asrwt>
<pdfrwt beam="1">  1        2 0.14550911E+00 0.79418068E+02</pdfrwt>
<pdfrwt beam="2">  1       -1 0.25648487E-03 0.79418068E+02</pdfrwt>
<totfact> 0.35783362E+05</totfact>
</mgrwt>
</event>
<event>
 8    1  0.1520917E-017  0.7871156E+02  0.7818608E-02  0.1332748E+00
         -1   -1    0    0    0  501 -0.00000000000E+00  0.00000000000E+00  0.52381810306E+01  0.52381834552E+01  0.50400000000E-02 0.  1.
          2   -1    0    0  501    0  0.00000000000E+00 -0.00000000000E+00 -0.29568985038E+03  0.29568985039E+03  0.25500000000E-02 0. -1.
         24    2    1    2    0    0  0.00000000000E+00 -0.17763568394E-14 -0.29045166935E+03  0.30092803385E+03  0.78711557771E+02 0.  0.
         66    2    3    3    0    0 -0.41090476420E+01 -0.12399253015E+02 -0.28715069802E+03  0.28745460356E+03  0.19999978315E+01 0.  0.
        -13    1    3    3    0    0  0.41090476420E+01  0.12399253015E+02 -0.33009713374E+01  0.13473430286E+02  0.10566000000E+00 0.  1.
         13    1    4    4    0    0 -0.21146496351E+01 -0.40031742623E+01 -0.96573835265E+02  0.96679956398E+02  0.10566000000E+00 0. -1.
        -13    1    4    4    0    0 -0.35596431682E+00 -0.32290987847E+01 -0.76733881395E+02  0.76802692059E+02  0.10566000000E+00 0.  1.
         14    1    4    4    0    0 -0.16384336900E+01 -0.51669799684E+01 -0.11384298136E+03  0.11397195511E+03  0.00000000000E+00 0. -1.
<mgrwt>
<rscale>  0 0.78711558E+02</rscale>
<asrwt>0</asrwt>
<pdfrwt beam="1">  1        2 0.45490733E-01 0.78711558E+02</pdfrwt>
<pdfrwt beam="2">  1       -1 0.80587443E-03 0.78711558E+02</pdfrwt>
<totfact> 0.26463459E+05</totfact>
</mgrwt>
</event>
<event>
 8    1  0.1520917E-017  0.8861492E+02  0.7818608E-02  0.1306241E+00
         -1   -1    0    0    0  501 -0.00000000000E+00  0.00000000000E+00  0.22231514514E+02  0.22231515085E+02  0.50400000000E-02 0.  1.
          2   -1    0    0  501    0  0.00000000000E+00 -0.00000000000E+00 -0.88304869725E+02  0.88304869762E+02  0.25500000000E-02 0. -1.
         24    2    1    2    0    0 -0.71054273576E-14  0.17763568394E-14 -0.66073355211E+02  0.11053638485E+03  0.88614920337E+02 0.  0.
         66    2    3    3    0    0 -0.35837657509E+02  0.98404935605E+01 -0.63093621175E+02  0.73252836354E+02  0.19999979202E+01 0.  0.
        -13    1    3    3    0    0  0.35837657509E+02 -0.98404935605E+01 -0.29797340360E+01  0.37283548493E+02  0.10566000000E+00 0.  1.
         13    1    4    4    0    0 -0.13246023577E+02  0.40337799067E+01 -0.22057356068E+02  0.26043552786E+02  0.10566000000E+00 0. -1.
        -13    1    4    4    0    0 -0.22347739562E+02  0.57847175979E+01 -0.40732053583E+02  0.46818754515E+02  0.10566000000E+00 0.  1.
        -14    1    4    4    0    0 -0.24389437079E+00  0.21996055991E-01 -0.30421152316E+00  0.39052905322E+00  0.00000000000E+00 0.  1.
<mgrwt>
<rscale>  0 0.88614920E+02</rscale>
<asrwt>0</asrwt>
<pdfrwt beam="1">  1        2 0.13585364E-01 0.88614920E+02</pdfrwt>
<pdfrwt beam="2">  1       -1 0.34202331E-02 0.88614920E+02</pdfrwt>
<totfact> 0.12992162E+05</totfact>
</mgrwt>
</event>
<event>
 8    1  0.1520917E-017  0.8020958E+02  0.7818608E-02  0.1328458E+00
         -1   -1    0    0    0  501 -0.00000000000E+00  0.00000000000E+00  0.18534259925E+02  0.18534260610E+02  0.50400000000E-02 0.  1.
          2   -1    0    0  501    0  0.00000000000E+00 -0.00000000000E+00 -0.86779521306E+02  0.86779521343E+02  0.25500000000E-02 0. -1.
         24    2    1    2    0    0 -0.11102230246E-15  0.00000000000E+00 -0.68245261381E+02  0.10531378195E+03  0.80209581524E+02 0.  0.
         66    2    3    3    0    0  0.27946129114E+00 -0.23762204757E+02 -0.76520160290E+02  0.80150205309E+02  0.20000016771E+01 0.  0.
        -13    1    3    3    0    0 -0.27946129114E+00  0.23762204757E+02  0.82748989091E+01  0.25163576644E+02  0.10566000000E+00 0.  1.
         13    1    4    4    0    0  0.14140862315E+00 -0.10264505433E+02 -0.32068995599E+02  0.33672120678E+02  0.10566000000E+00 0. -1.
        -13    1    4    4    0    0 -0.54962438026E+00 -0.76983763566E+01 -0.24135917751E+02  0.25340102115E+02  0.10566000000E+00 0.  1.
        -14    1    4    4    0    0  0.68767704826E+00 -0.57993229672E+01 -0.20315246940E+02  0.21137982516E+02  0.00000000000E+00 0.  1.
<mgrwt>
<rscale>  0 0.80209582E+02</rscale>
<asrwt>0</asrwt>
<pdfrwt beam="1">  1        2 0.13350695E-01 0.80209582E+02</pdfrwt>
<pdfrwt beam="2">  1       -1 0.28514247E-02 0.80209582E+02</pdfrwt>
<totfact> 0.16934347E+05</totfact>
</mgrwt>
</event>
<event>
 8    1  0.1520917E-017  0.7118283E+02  0.7818608E-02  0.1356116E+00
          2   -1    0    0  501    0  0.00000000000E+00  0.00000000000E+00  0.54105579682E+02  0.54105579742E+02  0.25500000000E-02 0. -1.
         -1   -1    0    0    0  501 -0.00000000000E+00 -0.00000000000E+00 -0.23412535310E+02  0.23412535852E+02  0.50400000000E-02 0.  1.
         24    2    1    2    0    0  0.00000000000E+00  0.00000000000E+00  0.30693044372E+02  0.77518115594E+02  0.71182829899E+02 0.  0.
         66    2    3    3    0    0 -0.32264185259E+02 -0.86966256077E+01  0.28612906638E+02  0.44037567743E+02  0.19999997640E+01 0.  0.
        -13    1    3    3    0    0  0.32264185259E+02  0.86966256077E+01  0.20801377340E+01  0.33480547851E+02  0.10566000000E+00 0.  1.
         13    1    4    4    0    0 -0.11801515530E+02 -0.31684207498E+01  0.10023945453E+02  0.15805230316E+02  0.10566000000E+00 0. -1.
        -13    1    4    4    0    0 -0.13347335143E+01 -0.33899008675E+00  0.77448721632E+00  0.15834842332E+01  0.10566000000E+00 0.  1.
         14    1    4    4    0    0 -0.19127936214E+02 -0.51892147711E+01  0.17814473969E+02  0.26648853194E+02  0.00000000000E+00 0. -1.
<mgrwt>
<rscale>  0 0.71182830E+02</rscale>
<asrwt>0</asrwt>
<pdfrwt beam="1">  1        2 0.83239353E-02 0.71182830E+02</pdfrwt>
<pdfrwt beam="2">  1       -1 0.36019286E-02 0.71182830E+02</pdfrwt>
<totfact> 0.20855646E+05</totfact>
</mgrwt>
</event>
<event>
 8    1  0.1520917E-017  0.8045316E+02  0.7818608E-02  0.1327770E+00
         -1   -1    0    0    0  501 -0.00000000000E+00  0.00000000000E+00  0.92911246272E+01  0.92911259941E+01  0.50400000000E-02 0.  1.
          2   -1    0    0  501    0  0.00000000000E+00 -0.00000000000E+00 -0.17416379297E+03  0.17416379299E+03  0.25500000000E-02 0. -1.
         24    2    1    2    0    0 -0.17763568394E-14  0.35527136788E-14 -0.16487266834E+03  0.18345491898E+03  0.80453157381E+02 0.  0.
         66    2    3    3    0    0  0.12702618116E+02  0.25690114506E+02 -0.14677433942E+03  0.14955950389E+03  0.20000004613E+01 0.  0.
        -13    1    3    3    0    0 -0.12702618116E+02 -0.25690114506E+02 -0.18098328923E+02  0.33895415091E+02  0.10566000000E+00 0.  1.
         13    1    4    4    0    0  0.24429785899E+01  0.38650696358E+01 -0.21612788595E+02  0.22091416943E+02  0.10566000000E+00 0. -1.
        -13    1    4    4    0    0  0.25923812941E+01  0.46225565836E+01 -0.28516172944E+02  0.29004685027E+02  0.10566000000E+00 0.  1.
         14    1    4    4    0    0  0.76672582318E+01  0.17202488287E+02 -0.96645377882E+02  0.98463401922E+02  0.00000000000E+00 0. -1.
<mgrwt>
<rscale>  0 0.80453157E+02</rscale>
<asrwt>0</asrwt>
<pdfrwt beam="1">  1        2 0.26794427E-01 0.80453157E+02</pdfrwt>
<pdfrwt beam="2">  1       -1 0.14294040E-02 0.80453157E+02</pdfrwt>
<totfact> 0.20726809E+05</totfact>
</mgrwt>
</event>
<event>
 8    1  0.1520917E-017  0.7716162E+02  0.7818608E-02  0.1337305E+00
          2   -1    0    0  501    0  0.00000000000E+00  0.00000000000E+00  0.23138925282E+02  0.23138925423E+02  0.25500000000E-02 0. -1.
         -1   -1    0    0    0  501 -0.00000000000E+00 -0.00000000000E+00 -0.64327916253E+02  0.64327916451E+02  0.50400000000E-02 0.  1.
         24    2    1    2    0    0  0.00000000000E+00  0.00000000000E+00 -0.41188990971E+02  0.87466841873E+02  0.77161619022E+02 0.  0.
         66    2    3    3    0    0 -0.18521240326E+02  0.32860173629E+02 -0.11564935172E+02  0.39504114676E+02  0.19999991564E+01 0.  0.
        -13    1    3    3    0    0  0.18521240326E+02 -0.32860173629E+02 -0.29624055800E+02  0.47962727197E+02  0.10566000000E+00 0.  1.
         13    1    4    4    0    0 -0.46159164035E+01  0.75388365593E+01 -0.31273360648E+01  0.93772136485E+01  0.10566000000E+00 0. -1.
        -13    1    4    4    0    0 -0.51102396041E+01  0.10693962114E+02 -0.35541941259E+01  0.12374119541E+02  0.10566000000E+00 0.  1.
        -14    1    4    4    0    0 -0.87950843188E+01  0.14627374956E+02 -0.48834049810E+01  0.17752781486E+02  0.00000000000E+00 0.  1.
<mgrwt>
<rscale>  0 0.77161619E+02</rscale>
<asrwt>0</asrwt>
<pdfrwt beam="1">  1        2 0.35598347E-02 0.77161619E+02</pdfrwt>
<pdfrwt beam="2">  1       -1 0.98966025E-02 0.77161619E+02</pdfrwt>
<totfact> 0.14161975E+05</totfact>
</mgrwt>
</event>
<event>
 8    1  0.1520917E-017  0.7931706E+02  0.7818608E-02  0.1331001E+00
         -1   -1    0    0    0  501 -0.00000000000E+00  0.00000000000E+00  0.88817428043E+01  0.88817442343E+01  0.50400000000E-02 0.  1.
          2   -1    0    0  501    0  0.00000000000E+00 -0.00000000000E+00 -0.17708222427E+03  0.17708222428E+03  0.25500000000E-02 0. -1.
         24    2    1    2    0    0  0.00000000000E+00  0.00000000000E+00 -0.16820048146E+03  0.18596396852E+03  0.79317057581E+02 0.  0.
         66    2    3    3    0    0  0.15531772775E+02 -0.35950176341E+01 -0.16922714479E+03  0.16998819564E+03  0.20000014835E+01 0.  0.
        -13    1    3    3    0    0 -0.15531772775E+02  0.35950176341E+01  0.10266633317E+01  0.15975772875E+02  0.10566000000E+00 0.  1.
         13    1    4    4    0    0  0.12549135243E+02 -0.33081646271E+01 -0.14134254393E+03  0.14193713622E+03  0.10566000000E+00 0. -1.
        -13    1    4    4    0    0  0.17719499098E+00 -0.11794499827E+00 -0.18522235488E+01  0.18674060078E+01  0.10566000000E+00 0. -1.
         14    1    4    4    0    0  0.28054425405E+01 -0.16890800881E+00 -0.26032377310E+02  0.26183653416E+02  0.00000000000E+00 0. -1.
<mgrwt>
<rscale>  0 0.79317058E+02</rscale>
<asrwt>0</asrwt>
<pdfrwt beam="1">  1        2 0.27243417E-01 0.79317058E+02</pdfrwt>
<pdfrwt beam="2">  1       -1 0.13664222E-02 0.79317058E+02</pdfrwt>
<totfact> 0.21641878E+05</totfact>
</mgrwt>
</event>
<event>
 8    1  0.1520917E-017  0.8163147E+02  0.7818608E-02  0.1324484E+00
         -1   -1    0    0    0  501 -0.00000000000E+00  0.00000000000E+00  0.27432076821E+02  0.27432077284E+02  0.50400000000E-02 0.  1.
          2   -1    0    0  501    0  0.00000000000E+00 -0.00000000000E+00 -0.60729057247E+02  0.60729057300E+02  0.25500000000E-02 0. -1.
         24    2    1    2    0    0  0.00000000000E+00  0.00000000000E+00 -0.33296980426E+02  0.88161134584E+02  0.81631469089E+02 0.  0.
         66    2    3    3    0    0  0.14201807144E+01  0.22003777545E+02 -0.53721709782E+02  0.58105122326E+02  0.19999997797E+01 0.  0.
        -13    1    3    3    0    0 -0.14201807144E+01 -0.22003777545E+02  0.20424729356E+02  0.30056012258E+02  0.10566000000E+00 0.  1.
         13    1    4    4    0    0  0.11722802821E+01  0.11349564193E+02 -0.26302140384E+02  0.28670552859E+02  0.10566000000E+00 0. -1.
        -13    1    4    4    0    0  0.61791656959E+00  0.77071252907E+01 -0.19939196020E+02  0.21386077319E+02  0.10566000000E+00 0.  1.
        -14    1    4    4    0    0 -0.37001613733E+00  0.29470880618E+01 -0.74803733776E+01  0.80484921478E+01  0.00000000000E+00 0.  1.
<mgrwt>
<rscale>  0 0.81631469E+02</rscale>
<asrwt>0</asrwt>
<pdfrwt beam="1">  1        2 0.93429319E-02 0.81631469E+02</pdfrwt>
<pdfrwt beam="2">  1       -1 0.42203196E-02 0.81631469E+02</pdfrwt>
<totfact> 0.14774739E+05</totfact>
</mgrwt>
</event>
<event>
 8    1  0.1520917E-017  0.7991658E+02  0.7818608E-02  0.1329288E+00
         -1   -1    0    0    0  501 -0.00000000000E+00  0.00000000000E+00  0.35929233686E+01  0.35929269035E+01  0.50400000000E-02 0.  1.
          2   -1    0    0  501    0  0.00000000000E+00 -0.00000000000E+00 -0.44439137145E+03  0.44439137146E+03  0.25500000000E-02 0. -1.
         24    2    1    2    0    0  0.00000000000E+00 -0.44408920985E-15 -0.44079844809E+03  0.44798429837E+03  0.79916579925E+02 0.  0.
         66    2    3    3    0    0 -0.19701516452E+02 -0.28200713351E+01 -0.41460549986E+03  0.41508772934E+03  0.19999953194E+01 0.  0.
        -13    1    3    3    0    0  0.19701516452E+02  0.28200713351E+01 -0.26192948223E+02  0.32896569023E+02  0.10566000000E+00 0.  1.
         13    1    4    4    0    0 -0.90780597350E+01 -0.20168954729E+01 -0.18563500493E+03  0.18586781662E+03  0.10566000000E+00 0. -1.
        -13    1    4    4    0    0 -0.79053459464E+01 -0.85965804198E+00 -0.17637395886E+03  0.17655315923E+03  0.10566000000E+00 0.  1.
         14    1    4    4    0    0 -0.27181107702E+01  0.56482179828E-01 -0.52596536080E+02  0.52666753498E+02  0.00000000000E+00 0. -1.
<mgrwt>
<rscale>  0 0.79916580E+02</rscale>
<asrwt>0</asrwt>
<pdfrwt beam="1">  1        2 0.68367860E-01 0.79916580E+02</pdfrwt>
<pdfrwt beam="2">  1       -1 0.55275807E-03 0.79916580E+02</pdfrwt>
<totfact> 0.29374445E+05</totfact>
</mgrwt>
</event>
<event>
 8    1  0.1520917E-017  0.7987840E+02  0.7818608E-02  0.1329397E+00
         -1   -1    0    0    0  501 -0.00000000000E+00  0.00000000000E+00  0.40661488569E+02  0.40661488882E+02  0.50400000000E-02 0.  1.
          2   -1    0    0  501    0  0.00000000000E+00 -0.00000000000E+00 -0.39229742720E+02  0.39229742803E+02  0.25500000000E-02 0. -1.
         24    2    1    2    0    0  0.00000000000E+00  0.00000000000E+00  0.14317458490E+01  0.79891231685E+02  0.79878401361E+02 0.  0.
         66    2    3    3    0    0 -0.82578390414E+01  0.35508942052E+02 -0.15536148863E+02  0.39679324415E+02  0.19999983202E+01 0.  0.
        -13    1    3    3    0    0  0.82578390414E+01 -0.35508942052E+02  0.16967894712E+02  0.40211907270E+02  0.10566000000E+00 0.  1.
         13    1    4    4    0    0 -0.21136420163E+01  0.83888730593E+01 -0.40286608090E+01  0.95436861709E+01  0.10566000000E+00 0. -1.
        -13    1    4    4    0    0 -0.34545557090E+01  0.18567668171E+02 -0.77759248755E+01  0.20424701421E+02  0.10566000000E+00 0.  1.
        -14    1    4    4    0    0 -0.26896413161E+01  0.85524008216E+01 -0.37315631783E+01  0.97109368229E+01  0.00000000000E+00 0.  1.
<mgrwt>
<rscale>  0 0.79878401E+02</rscale>
<asrwt>0</asrwt>
<pdfrwt beam="1">  1        2 0.60353450E-02 0.79878401E+02</pdfrwt>
<pdfrwt beam="2">  1       -1 0.62556137E-02 0.79878401E+02</pdfrwt>
<totfact> 0.14258368E+05</totfact>
</mgrwt>
</event>
<event>
 8    1  0.1520917E-017  0.8028322E+02  0.7818608E-02  0.1328250E+00
          2   -1    0    0  501    0  0.00000000000E+00  0.00000000000E+00  0.46011518571E+03  0.46011518572E+03  0.25500000000E-02 0. -1.
         -1   -1    0    0    0  501 -0.00000000000E+00 -0.00000000000E+00 -0.35020535598E+01  0.35020571865E+01  0.50400000000E-02 0.  1.
         24    2    1    2    0    0  0.00000000000E+00  0.00000000000E+00  0.45661313215E+03  0.46361724291E+03  0.80283220324E+02 0.  0.
         66    2    3    3    0    0 -0.20556141977E+02 -0.17878939220E+02  0.39849820229E+03  0.39943338452E+03  0.19999996554E+01 0.  0.
        -13    1    3    3    0    0  0.20556141977E+02  0.17878939220E+02  0.58114929863E+02  0.64183858388E+02  0.10566000000E+00 0.  1.
         13    1    4    4    0    0 -0.40475279052E+01 -0.38332216734E+01  0.89875617851E+02  0.90048397647E+02  0.10566000000E+00 0. -1.
        -13    1    4    4    0    0 -0.18406161168E+01 -0.12054862641E+01  0.28668963340E+02  0.28753463927E+02  0.10566000000E+00 0.  1.
         14    1    4    4    0    0 -0.14667997955E+02 -0.12840231282E+02  0.27995362110E+03  0.28063152295E+03  0.00000000000E+00 0. -1.
<mgrwt>
<rscale>  0 0.80283220E+02</rscale>
<asrwt>0</asrwt>
<pdfrwt beam="1">  1        2 0.70786955E-01 0.80283220E+02</pdfrwt>
<pdfrwt beam="2">  1       -1 0.53877773E-03 0.80283220E+02</pdfrwt>
<totfact> 0.29365771E+05</totfact>
</mgrwt>
</event>
<event>
 8    1  0.1520917E-017  0.7775847E+02  0.7818608E-02  0.1335536E+00
         -1   -1    0    0    0  501 -0.00000000000E+00  0.00000000000E+00  0.10278550360E+03  0.10278550373E+03  0.50400000000E-02 0.  1.
          2   -1    0    0  501    0  0.00000000000E+00 -0.00000000000E+00 -0.14706303233E+02  0.14706303454E+02  0.25500000000E-02 0. -1.
         24    2    1    2    0    0  0.35527136788E-14  0.00000000000E+00  0.88079200370E+02  0.11749180718E+03  0.77758467171E+02 0.  0.
         66    2    3    3    0    0 -0.20749374257E+02 -0.19018818363E+02  0.35997182380E+01  0.28446616129E+02  0.20000034564E+01 0.  0.
        -13    1    3    3    0    0  0.20749374257E+02  0.19018818363E+02  0.84479482132E+02  0.89045191051E+02  0.10566000000E+00 0.  1.
         13    1    4    4    0    0 -0.41586462943E+01 -0.45544679453E+01  0.84515939595E+00  0.62259919455E+01  0.10566000000E+00 0. -1.
        -13    1    4    4    0    0 -0.10513164052E+02 -0.95210998505E+01  0.23378497563E+01  0.14375488383E+02  0.10566000000E+00 0.  1.
        -14    1    4    4    0    0 -0.60775639114E+01 -0.49432505673E+01  0.41670908577E+00  0.78451358006E+01  0.00000000000E+00 0.  1.
<mgrwt>
<rscale>  0 0.77758467E+02</rscale>
<asrwt>0</asrwt>
<pdfrwt beam="1">  1        2 0.22625082E-02 0.77758467E+02</pdfrwt>
<pdfrwt beam="2">  1       -1 0.15813154E-01 0.77758467E+02</pdfrwt>
<totfact> 0.12649104E+05</totfact>
</mgrwt>
</event>
<event>
 8    1  0.1520917E-017  0.8043003E+02  0.7818608E-02  0.1327835E+00
          2   -1    0    0  501    0  0.00000000000E+00  0.00000000000E+00  0.39637758303E+02  0.39637758385E+02  0.25500000000E-02 0. -1.
         -1   -1    0    0    0  501 -0.00000000000E+00 -0.00000000000E+00 -0.40800681240E+02  0.40800681552E+02  0.50400000000E-02 0.  1.
         24    2    1    2    0    0  0.00000000000E+00  0.00000000000E+00 -0.11629229379E+01  0.80438439936E+02  0.80430033132E+02 0.  0.
         66    2    3    3    0    0 -0.94433947547E+01 -0.37264620463E+02  0.11141732104E+02  0.40074528549E+02  0.20000003555E+01 0.  0.
        -13    1    3    3    0    0  0.94433947547E+01  0.37264620463E+02 -0.12304655042E+02  0.40363911387E+02  0.10566000000E+00 0.  1.
         13    1    4    4    0    0 -0.46811377107E+01 -0.18444237963E+02  0.60545032197E+01  0.19969254808E+02  0.10566000000E+00 0.  1.
        -13    1    4    4    0    0 -0.23645083603E+01 -0.71847374406E+01  0.22295915464E+01  0.78862915477E+01  0.10566000000E+00 0. -1.
        -14    1    4    4    0    0 -0.23977486837E+01 -0.11635645059E+02  0.28576373383E+01  0.12218982193E+02  0.00000000000E+00 0.  1.
<mgrwt>
<rscale>  0 0.80430033E+02</rscale>
<asrwt>0</asrwt>
<pdfrwt beam="1">  1        2 0.60981167E-02 0.80430033E+02</pdfrwt>
<pdfrwt beam="2">  1       -1 0.62770279E-02 0.80430033E+02</pdfrwt>
<totfact> 0.14019134E+05</totfact>
</mgrwt>
</event>
<event>
 8    1  0.1520917E-017  0.7684066E+02  0.7818608E-02  0.1338264E+00
          2   -1    0    0  501    0  0.00000000000E+00  0.00000000000E+00  0.69115782975E+02  0.69115783022E+02  0.25500000000E-02 0. -1.
         -1   -1    0    0    0  501 -0.00000000000E+00 -0.00000000000E+00 -0.21357228397E+02  0.21357228992E+02  0.50400000000E-02 0.  1.
         24    2    1    2    0    0  0.00000000000E+00  0.00000000000E+00  0.47758554577E+02  0.90473012014E+02  0.76840655694E+02 0.  0.
         66    2    3    3    0    0  0.22955201867E+02 -0.92306171531E+01  0.58463415761E+02  0.63514695991E+02  0.20000096432E+01 0.  0.
        -13    1    3    3    0    0 -0.22955201867E+02  0.92306171531E+01 -0.10704861184E+02  0.26958316023E+02  0.10566000000E+00 0.  1.
         13    1    4    4    0    0  0.11221398032E+02 -0.42103450652E+01  0.26322688437E+02  0.28923033554E+02  0.10566000000E+00 0. -1.
        -13    1    4    4    0    0  0.38011885200E+01 -0.13622549984E+01  0.10934213985E+02  0.11656456252E+02  0.10566000000E+00 0.  1.
         14    1    4    4    0    0  0.79326153153E+01 -0.36580170895E+01  0.21206513339E+02  0.22935206185E+02  0.00000000000E+00 0. -1.
<mgrwt>
<rscale>  0 0.76840656E+02</rscale>
<asrwt>0</asrwt>
<pdfrwt beam="1">  1        2 0.10633197E-01 0.76840656E+02</pdfrwt>
<pdfrwt beam="2">  1       -1 0.32857275E-02 0.76840656E+02</pdfrwt>
<totfact> 0.17947195E+05</totfact>
</mgrwt>
</event>
<event>
 8    1  0.1520917E-017  0.8004544E+02  0.7818608E-02  0.1328923E+00
         -1   -1    0    0    0  501 -0.00000000000E+00  0.00000000000E+00  0.14376366259E+01  0.14376454604E+01  0.50400000000E-02 0.  1.
          2   -1    0    0  501    0  0.00000000000E+00 -0.00000000000E+00 -0.11141990474E+04  0.11141990474E+04  0.25500000000E-02 0. -1.
         24    2    1    2    0    0  0.00000000000E+00  0.88817841970E-15 -0.11127614107E+04  0.11156366928E+04  0.80045444311E+02 0.  0.
         66    2    3    3    0    0  0.16720014548E+02  0.78552574195E+01 -0.10511758465E+04  0.10513400612E+04  0.20000004360E+01 0.  0.
        -13    1    3    3    0    0 -0.16720014548E+02 -0.78552574195E+01 -0.61585564197E+02  0.64296631616E+02  0.10566000000E+00 0.  1.
         13    1    4    4    0    0  0.59377417290E+01  0.21460733903E+01 -0.39234113190E+03  0.39239194354E+03  0.10566000000E+00 0. -1.
        -13    1    4    4    0    0  0.10810683938E+01  0.75244228039E+00 -0.79534123087E+02  0.79545099017E+02  0.10566000000E+00 0.  1.
        -14    1    4    4    0    0  0.97012044255E+01  0.49567417488E+01 -0.57930059156E+03  0.57940301866E+03  0.00000000000E+00 0.  1.
<mgrwt>
<rscale>  0 0.80045444E+02</rscale>
<asrwt>0</asrwt>
<pdfrwt beam="1">  1        2 0.17141455E+00 0.80045444E+02</pdfrwt>
<pdfrwt beam="2">  1       -1 0.22117644E-03 0.80045444E+02</pdfrwt>
<totfact> 0.35183262E+05</totfact>
</mgrwt>
</event>
<event>
 8    1  0.1520917E-017  0.7910619E+02  0.7818608E-02  0.1331607E+00
          2   -1    0    0  501    0  0.00000000000E+00  0.00000000000E+00  0.16814200492E+03  0.16814200494E+03  0.25500000000E-02 0. -1.
         -1   -1    0    0    0  501 -0.00000000000E+00 -0.00000000000E+00 -0.93043213808E+01  0.93043227459E+01  0.50400000000E-02 0.  1.
         24    2    1    2    0    0  0.00000000000E+00 -0.44408920985E-15  0.15883768354E+03  0.17744632769E+03  0.79106191268E+02 0.  0.
         66    2    3    3    0    0 -0.39130412616E+02 -0.23840221119E+01  0.90812235250E+02  0.98932981483E+02  0.20000002634E+01 0.  0.
        -13    1    3    3    0    0  0.39130412616E+02  0.23840221119E+01  0.68025448289E+02  0.78513346202E+02  0.10566000000E+00 0.  1.
         13    1    4    4    0    0 -0.24220197034E+02 -0.17220697192E+01  0.57943365659E+02  0.62825379079E+02  0.10566000000E+00 0. -1.
        -13    1    4    4    0    0 -0.52769475513E+01 -0.26104327895E-01  0.12378146716E+02  0.13456468223E+02  0.10566000000E+00 0. -1.
         14    1    4    4    0    0 -0.96332680307E+01 -0.63584806488E+00  0.20490722875E+02  0.22651134180E+02  0.00000000000E+00 0. -1.
<mgrwt>
<rscale>  0 0.79106191E+02</rscale>
<asrwt>0</asrwt>
<pdfrwt beam="1">  1        2 0.25867999E-01 0.79106191E+02</pdfrwt>
<pdfrwt beam="2">  1       -1 0.14314342E-02 0.79106191E+02</pdfrwt>
<totfact> 0.21420484E+05</totfact>
</mgrwt>
</event>
<event>
 8    1  0.1520917E-017  0.7828805E+02  0.7818608E-02  0.1333981E+00
         -1   -1    0    0    0  501 -0.00000000000E+00  0.00000000000E+00  0.24204388720E+02  0.24204389245E+02  0.50400000000E-02 0.  1.
          2   -1    0    0  501    0  0.00000000000E+00 -0.00000000000E+00 -0.63304827586E+02  0.63304827637E+02  0.25500000000E-02 0. -1.
         24    2    1    2    0    0  0.00000000000E+00 -0.35527136788E-14 -0.39100438866E+02  0.87509216882E+02  0.78288049661E+02 0.  0.
         66    2    3    3    0    0 -0.11415114959E+02  0.31234285559E+02 -0.42589433182E+02  0.54071667790E+02  0.19999987099E+01 0.  0.
        -13    1    3    3    0    0  0.11415114959E+02 -0.31234285559E+02  0.34889943164E+01  0.33437549092E+02  0.10566000000E+00 0.  1.
         13    1    4    4    0    0 -0.66081559934E+01  0.17315915865E+02 -0.22942708067E+02  0.29493858435E+02  0.10566000000E+00 0. -1.
        -13    1    4    4    0    0 -0.23185241964E+01  0.83832318089E+01 -0.11579101871E+02  0.14482433987E+02  0.10566000000E+00 0.  1.
         14    1    4    4    0    0 -0.24884347696E+01  0.55351378848E+01 -0.80676232445E+01  0.10095375368E+02  0.00000000000E+00 0. -1.
<mgrwt>
<rscale>  0 0.78288050E+02</rscale>
<asrwt>0</asrwt>
<pdfrwt beam="1">  1        2 0.97392042E-02 0.78288050E+02</pdfrwt>
<pdfrwt beam="2">  1       -1 0.37237522E-02 0.78288050E+02</pdfrwt>
<totfact> 0.16714277E+05</totfact>
</mgrwt>
</event>
<event>
 8    1  0.1520917E-017  0.7930947E+02  0.7818608E-02  0.1331023E+00
          2   -1    0    0  501    0  0.00000000000E+00  0.00000000000E+00  0.19969048849E+03  0.19969048851E+03  0.25500000000E-02 0. -1.
         -1   -1    0    0    0  501 -0.00000000000E+00 -0.00000000000E+00 -0.78746758241E+01  0.78746774370E+01  0.50400000000E-02 0.  1.
         24    2    1    2    0    0  0.00000000000E+00  0.35527136788E-14  0.19181581267E+03  0.20756516595E+03  0.79309470585E+02 0.  0.
         66    2    3    3    0    0 -0.78575663116E+01  0.26202463495E+02  0.17101231151E+03  0.17319792477E+03  0.20000037485E+01 0.  0.
        -13    1    3    3    0    0  0.78575663116E+01 -0.26202463495E+02  0.20803501158E+02  0.34367241176E+02  0.10566000000E+00 0.  1.
         13    1    4    4    0    0 -0.18888564759E+01  0.47029009895E+01  0.30882054034E+02  0.31295326838E+02  0.10566000000E+00 0. -1.
        -13    1    4    4    0    0 -0.19415965335E+01  0.57192134753E+01  0.41304536273E+02  0.41743922679E+02  0.10566000000E+00 0.  1.
         14    1    4    4    0    0 -0.40271133022E+01  0.15780349031E+02  0.98825721204E+02  0.10015867525E+03  0.00000000000E+00 0. -1.
<mgrwt>
<rscale>  0 0.79309471E+02</rscale>
<asrwt>0</asrwt>
<pdfrwt beam="1">  1        2 0.30721612E-01 0.79309471E+02</pdfrwt>
<pdfrwt beam="2">  1       -1 0.12114888E-02 0.79309471E+02</pdfrwt>
<totfact> 0.22556610E+05</totfact>
</mgrwt>
</event>
<event>
 8    1  0.1520917E-017  0.8053533E+02  0.7818608E-02  0.1327539E+00
          2   -1    0    0  501    0  0.00000000000E+00  0.00000000000E+00  0.98054933484E+03  0.98054933484E+03  0.25500000000E-02 0. -1.
         -1   -1    0    0    0  501 -0.00000000000E+00 -0.00000000000E+00 -0.16536454931E+01  0.16536531736E+01  0.50400000000E-02 0.  1.
         24    2    1    2    0    0  0.00000000000E+00 -0.35527136788E-14  0.97889568935E+03  0.98220298802E+03  0.80535327946E+02 0.  0.
         66    2    3    3    0    0 -0.19165427062E+02 -0.25507146405E+02  0.78887287627E+03  0.78952032464E+03  0.19999983745E+01 0.  0.
        -13    1    3    3    0    0  0.19165427062E+02  0.25507146405E+02  0.19002281307E+03  0.19268266337E+03  0.10566000000E+00 0.  1.
         13    1    4    4    0    0 -0.11731152495E+02 -0.16489284544E+02  0.50098555014E+03  0.50139410553E+03  0.10566000000E+00 0. -1.
        -13    1    4    4    0    0 -0.60396658299E+01 -0.66956936063E+01  0.21817949750E+03  0.21836578067E+03  0.10566000000E+00 0.  1.
         14    1    4    4    0    0 -0.13946087370E+01 -0.23221682548E+01  0.69707828633E+02  0.69760438442E+02  0.00000000000E+00 0. -1.
<mgrwt>
<rscale>  0 0.80535328E+02</rscale>
<asrwt>0</asrwt>
<pdfrwt beam="1">  1        2 0.15085392E+00 0.80535328E+02</pdfrwt>
<pdfrwt beam="2">  1       -1 0.25440730E-03 0.80535328E+02</pdfrwt>
<totfact> 0.34593069E+05</totfact>
</mgrwt>
</event>
<event>
 8    1  0.1520917E-017  0.8010257E+02  0.7818608E-02  0.1328761E+00
         -1   -1    0    0    0  501 -0.00000000000E+00  0.00000000000E+00  0.10542919173E+02  0.10542920378E+02  0.50400000000E-02 0.  1.
          2   -1    0    0  501    0  0.00000000000E+00 -0.00000000000E+00 -0.15215003497E+03  0.15215003499E+03  0.25500000000E-02 0. -1.
         24    2    1    2    0    0  0.35527136788E-14  0.35527136788E-14 -0.14160711580E+03  0.16269295537E+03  0.80102574757E+02 0.  0.
         66    2    3    3    0    0  0.17395826294E+02  0.16757066112E+02 -0.13567258082E+03  0.13782040209E+03  0.20000025144E+01 0.  0.
        -13    1    3    3    0    0 -0.17395826294E+02 -0.16757066112E+02 -0.59345349813E+01  0.24872553279E+02  0.10566000000E+00 0.  1.
         13    1    4    4    0    0  0.72744161232E+01  0.63972443007E+01 -0.56995176449E+02  0.57812655769E+02  0.10566000000E+00 0. -1.
        -13    1    4    4    0    0  0.96032086757E+01  0.97207176119E+01 -0.72587349989E+02  0.73862361932E+02  0.10566000000E+00 0.  1.
         14    1    4    4    0    0  0.51820149520E+00  0.63910419965E+00 -0.60900543804E+01  0.61453843919E+01  0.00000000000E+00 0. -1.
<mgrwt>
<rscale>  0 0.80102575E+02</rscale>
<asrwt>0</asrwt>
<pdfrwt beam="1">  1        2 0.23407696E-01 0.80102575E+02</pdfrwt>
<pdfrwt beam="2">  1       -1 0.16219878E-02 0.80102575E+02</pdfrwt>
<totfact> 0.20053979E+05</totfact>
</mgrwt>
</event>
<event>
 8    1  0.1520917E-017  0.8007896E+02  0.7818608E-02  0.1328828E+00
          2   -1    0    0  501    0  0.00000000000E+00  0.00000000000E+00  0.15166325018E+03  0.15166325021E+03  0.25500000000E-02 0. -1.
         -1   -1    0    0    0  501 -0.00000000000E+00 -0.00000000000E+00 -0.10570521950E+02  0.10570523152E+02  0.50400000000E-02 0.  1.
         24    2    1    2    0    0  0.00000000000E+00  0.00000000000E+00  0.14109272823E+03  0.16223377336E+03  0.80078956395E+02 0.  0.
         66    2    3    3    0    0  0.14983917139E+02 -0.33058036424E+02  0.36460614726E+02  0.51485220833E+02  0.19999982654E+01 0.  0.
        -13    1    3    3    0    0 -0.14983917139E+02  0.33058036424E+02  0.10463211351E+03  0.11074855252E+03  0.10566000000E+00 0.  1.
         13    1    4    4    0    0  0.86968335941E+00 -0.16454531547E+01  0.18086061916E+01  0.25973227797E+01  0.10566000000E+00 0.  1.
        -13    1    4    4    0    0  0.64470769937E+01 -0.12596958492E+02  0.13482853697E+02  0.19546014245E+02  0.10566000000E+00 0.  1.
         14    1    4    4    0    0  0.76671567861E+01 -0.18815624777E+02  0.21169154837E+02  0.29341883809E+02  0.00000000000E+00 0. -1.
<mgrwt>
<rscale>  0 0.80078956E+02</rscale>
<asrwt>0</asrwt>
<pdfrwt beam="1">  1        2 0.23332808E-01 0.80078956E+02</pdfrwt>
<pdfrwt beam="2">  1       -1 0.16262342E-02 0.80078956E+02</pdfrwt>
<totfact> 0.20048884E+05</totfact>
</mgrwt>
</event>
<event>
 8    1  0.1520917E-017  0.7388088E+02  0.7818608E-02  0.1347372E+00
         -1   -1    0    0    0  501 -0.00000000000E+00  0.00000000000E+00  0.27309541999E+01  0.27309588506E+01  0.50400000000E-02 0.  1.
          2   -1    0    0  501    0  0.00000000000E+00 -0.00000000000E+00 -0.49967700750E+03  0.49967700751E+03  0.25500000000E-02 0. -1.
         24    2    1    2    0    0  0.88817841970E-15 -0.17763568394E-14 -0.49694605330E+03  0.50240796636E+03  0.73880882294E+02 0.  0.
         66    2    3    3    0    0  0.77660432498E+01 -0.66645052037E+01 -0.48983462916E+03  0.48994560002E+03  0.19999993740E+01 0.  0.
        -13    1    3    3    0    0 -0.77660432498E+01  0.66645052037E+01 -0.71114241392E+01  0.12462366336E+02  0.10566000000E+00 0.  1.
         13    1    4    4    0    0  0.43180623614E+01 -0.33626618967E+01 -0.29940361129E+03  0.29945364712E+03  0.10566000000E+00 0. -1.
        -13    1    4    4    0    0  0.10062576260E+01 -0.75741452100E+00 -0.59720374977E+02  0.59733747434E+02  0.10566000000E+00 0.  1.
        -14    1    4    4    0    0  0.24417232624E+01 -0.25444287860E+01 -0.13071064290E+03  0.13075820547E+03  0.00000000000E+00 0.  1.
<mgrwt>
<rscale>  0 0.73880882E+02</rscale>
<asrwt>0</asrwt>
<pdfrwt beam="1">  1        2 0.76873313E-01 0.73880882E+02</pdfrwt>
<pdfrwt beam="2">  1       -1 0.42014756E-03 0.73880882E+02</pdfrwt>
<totfact> 0.37428933E+05</totfact>
</mgrwt>
</event>
<event>
 8    1  0.1520917E-017  0.7868940E+02  0.7818608E-02  0.1332812E+00
         -1   -1    0    0    0  501 -0.00000000000E+00  0.00000000000E+00  0.28817240026E+02  0.28817240467E+02  0.50400000000E-02 0.  1.
          2   -1    0    0  501    0  0.00000000000E+00 -0.00000000000E+00 -0.53718037049E+02  0.53718037109E+02  0.25500000000E-02 0. -1.
         24    2    1    2    0    0  0.00000000000E+00 -0.44408920985E-15 -0.24900797022E+02  0.82535277577E+02  0.78689404320E+02 0.  0.
         66    2    3    3    0    0 -0.11247297600E+02  0.22613665199E+01 -0.51904803542E+02  0.53195151230E+02  0.20000004528E+01 0.  0.
        -13    1    3    3    0    0  0.11247297600E+02 -0.22613665199E+01  0.27004006520E+02  0.29340126346E+02  0.10566000000E+00 0.  1.
         13    1    4    4    0    0 -0.42278594609E+01  0.45520980575E-01 -0.17733732551E+02  0.18231108085E+02  0.10566000000E+00 0.  1.
        -13    1    4    4    0    0 -0.59425583783E+01  0.20329550474E+01 -0.27883264283E+02  0.28582066010E+02  0.10566000000E+00 0. -1.
        -14    1    4    4    0    0 -0.10768797608E+01  0.18289049190E+00 -0.62878067090E+01  0.63819771358E+01  0.00000000000E+00 0.  1.
<mgrwt>
<rscale>  0 0.78689404E+02</rscale>
<asrwt>0</asrwt>
<pdfrwt beam="1">  1        2 0.82643134E-02 0.78689404E+02</pdfrwt>
<pdfrwt beam="2">  1       -1 0.44334216E-02 0.78689404E+02</pdfrwt>
<totfact> 0.15880676E+05</totfact>
</mgrwt>
</event>
<event>
 8    1  0.1520917E-017  0.7739038E+02  0.7818608E-02  0.1336625E+00
         -1   -1    0    0    0  501 -0.00000000000E+00  0.00000000000E+00  0.61128244948E+01  0.61128265725E+01  0.50400000000E-02 0.  1.
          2   -1    0    0  501    0  0.00000000000E+00 -0.00000000000E+00 -0.24494692573E+03  0.24494692574E+03  0.25500000000E-02 0. -1.
         24    2    1    2    0    0  0.14210854715E-13  0.35527136788E-14 -0.23883410123E+03  0.25105975231E+03  0.77390382607E+02 0.  0.
         66    2    3    3    0    0  0.33507939522E+02  0.12873429215E+02 -0.16614870117E+03  0.16999381781E+03  0.20000005307E+01 0.  0.
        -13    1    3    3    0    0 -0.33507939522E+02 -0.12873429215E+02 -0.72685400063E+02  0.81065934505E+02  0.10566000000E+00 0.  1.
         13    1    4    4    0    0  0.11212596539E+02  0.49217270628E+01 -0.57336064142E+02  0.58629183294E+02  0.10566000000E+00 0.  1.
        -13    1    4    4    0    0  0.12731545934E+02  0.39149062770E+01 -0.62050092291E+02  0.63463720900E+02  0.10566000000E+00 0. -1.
         14    1    4    4    0    0  0.95637970494E+01  0.40367958748E+01 -0.46762544736E+02  0.47900913615E+02  0.00000000000E+00 0. -1.
<mgrwt>
<rscale>  0 0.77390383E+02</rscale>
<asrwt>0</asrwt>
<pdfrwt beam="1">  1        2 0.37684135E-01 0.77390383E+02</pdfrwt>
<pdfrwt beam="2">  1       -1 0.94043489E-03 0.77390383E+02</pdfrwt>
<totfact> 0.25850096E+05</totfact>
</mgrwt>
</event>
<event>
 8    1  0.1520917E-017  0.7936549E+02  0.7818608E-02  0.1330862E+00
          2   -1    0    0  501    0  0.00000000000E+00  0.00000000000E+00  0.52476229546E+02  0.52476229608E+02  0.25500000000E-02 0. -1.
         -1   -1    0    0    0  501 -0.00000000000E+00 -0.00000000000E+00 -0.30008254671E+02  0.30008255094E+02  0.50400000000E-02 0.  1.
         24    2    1    2    0    0  0.35527136788E-14  0.00000000000E+00  0.22467974875E+02  0.82484484703E+02  0.79365485708E+02 0.  0.
         66    2    3    3    0    0  0.23095545594E+02  0.27250923930E+02  0.29142952343E+02  0.46144650229E+02  0.19999980482E+01 0.  0.
        -13    1    3    3    0    0 -0.23095545594E+02 -0.27250923930E+02 -0.66749774679E+01  0.36339834473E+02  0.10566000000E+00 0.  1.
         13    1    4    4    0    0  0.87002916631E+01  0.10934117838E+02  0.12455793627E+02  0.18719187131E+02  0.10566000000E+00 0. -1.
        -13    1    4    4    0    0  0.39909950005E+01  0.44551545393E+01  0.43487801406E+01  0.73959107492E+01  0.10566000000E+00 0.  1.
         14    1    4    4    0    0  0.10404258930E+02  0.11861651552E+02  0.12338378575E+02  0.20029552349E+02  0.00000000000E+00 0. -1.
<mgrwt>
<rscale>  0 0.79365486E+02</rscale>
<asrwt>0</asrwt>
<pdfrwt beam="1">  1        2 0.80732659E-02 0.79365486E+02</pdfrwt>
<pdfrwt beam="2">  1       -1 0.46166547E-02 0.79365486E+02</pdfrwt>
<totfact> 0.15434473E+05</totfact>
</mgrwt>
</event>
<event>
 8    1  0.1520917E-017  0.8297374E+02  0.7818608E-02  0.1320818E+00
         -1   -1    0    0    0  501 -0.00000000000E+00  0.00000000000E+00  0.46866674732E+02  0.46866675003E+02  0.50400000000E-02 0.  1.
          2   -1    0    0  501    0  0.00000000000E+00 -0.00000000000E+00 -0.36724607116E+02  0.36724607204E+02  0.25500000000E-02 0. -1.
         24    2    1    2    0    0 -0.35527136788E-14 -0.17763568394E-14  0.10142067616E+02  0.83591282208E+02  0.82973736360E+02 0.  0.
         66    2    3    3    0    0  0.13985231727E+02  0.13512191124E+02 -0.31818094495E+02  0.37343770017E+02  0.20000015832E+01 0.  0.
        -13    1    3    3    0    0 -0.13985231727E+02 -0.13512191124E+02  0.41960162111E+02  0.46247512191E+02  0.10566000000E+00 0.  1.
         13    1    4    4    0    0  0.55889253785E+01  0.46331062439E+01 -0.13181445123E+02  0.15048701602E+02  0.10566000000E+00 0. -1.
        -13    1    4    4    0    0  0.80778276005E+01  0.85937170047E+01 -0.18166326539E+02  0.21659405685E+02  0.10566000000E+00 0.  1.
         14    1    4    4    0    0  0.31847874772E+00  0.28536787574E+00 -0.47032283366E+00  0.63566272906E+00  0.00000000000E+00 0. -1.
<mgrwt>
<rscale>  0 0.82973736E+02</rscale>
<asrwt>0</asrwt>
<pdfrwt beam="1">  1        2 0.56499396E-02 0.82973736E+02</pdfrwt>
<pdfrwt beam="2">  1       -1 0.72102577E-02 0.82973736E+02</pdfrwt>
<totfact> 0.12655869E+05</totfact>
</mgrwt>
</event>
<event>
 8    1  0.1520917E-017  0.7784865E+02  0.7818608E-02  0.1335270E+00
          2   -1    0    0  501    0  0.00000000000E+00  0.00000000000E+00  0.59048880946E+03  0.59048880947E+03  0.25500000000E-02 0. -1.
         -1   -1    0    0    0  501 -0.00000000000E+00 -0.00000000000E+00 -0.25658428078E+01  0.25658477578E+01  0.50400000000E-02 0.  1.
         24    2    1    2    0    0 -0.88817841970E-15  0.00000000000E+00  0.58792296666E+03  0.59305465723E+03  0.77848646341E+02 0.  0.
         66    2    3    3    0    0  0.43889615328E+01 -0.23532294183E+02  0.52772808383E+03  0.52827451417E+03  0.19999997291E+01 0.  0.
        -13    1    3    3    0    0 -0.43889615328E+01  0.23532294183E+02  0.60194882823E+02  0.64780143060E+02  0.10566000000E+00 0.  1.
         13    1    4    4    0    0  0.21078416050E+01 -0.14133179261E+02  0.31909521366E+03  0.31941502203E+03  0.10566000000E+00 0. -1.
        -13    1    4    4    0    0  0.91420176052E+00 -0.41766693790E+01  0.81672453003E+02  0.81784357156E+02  0.10566000000E+00 0.  1.
        -14    1    4    4    0    0  0.13669181673E+01 -0.52224455426E+01  0.12696041717E+03  0.12707513498E+03  0.00000000000E+00 0.  1.
<mgrwt>
<rscale>  0 0.77848646E+02</rscale>
<asrwt>0</asrwt>
<pdfrwt beam="1">  1        2 0.90844471E-01 0.77848646E+02</pdfrwt>
<pdfrwt beam="2">  1       -1 0.39474526E-03 0.77848646E+02</pdfrwt>
<totfact> 0.34370513E+05</totfact>
</mgrwt>
</event>
<event>
 8    1  0.1520917E-017  0.7807448E+02  0.7818608E-02  0.1334606E+00
         -1   -1    0    0    0  501 -0.00000000000E+00  0.00000000000E+00  0.82679538156E+01  0.82679553518E+01  0.50400000000E-02 0.  1.
          2   -1    0    0  501    0  0.00000000000E+00 -0.00000000000E+00 -0.18431477672E+03  0.18431477673E+03  0.25500000000E-02 0. -1.
         24    2    1    2    0    0  0.71054273576E-14  0.00000000000E+00 -0.17604682290E+03  0.19258273209E+03  0.78074482670E+02 0.  0.
         66    2    3    3    0    0  0.37211155059E+02  0.11377176478E+02 -0.94966056456E+02  0.10264824450E+03  0.20000038300E+01 0.  0.
        -13    1    3    3    0    0 -0.37211155059E+02 -0.11377176478E+02 -0.81080766445E+02  0.89934487583E+02  0.10566000000E+00 0.  1.
         13    1    4    4    0    0  0.10738348680E+02  0.25104651727E+01 -0.27548812585E+02  0.29674278536E+02  0.10566000000E+00 0. -1.
        -13    1    4    4    0    0  0.62324381669E+01  0.24428104938E+01 -0.16014368202E+02  0.17357469907E+02  0.10566000000E+00 0.  1.
         14    1    4    4    0    0  0.20240368213E+02  0.64239008115E+01 -0.51402875669E+02  0.55616496061E+02  0.00000000000E+00 0. -1.
<mgrwt>
<rscale>  0 0.78074483E+02</rscale>
<asrwt>0</asrwt>
<pdfrwt beam="1">  1        2 0.28356116E-01 0.78074483E+02</pdfrwt>
<pdfrwt beam="2">  1       -1 0.12719932E-02 0.78074483E+02</pdfrwt>
<totfact> 0.22871011E+05</totfact>
</mgrwt>
</event>
<event>
 8    1  0.1520917E-017  0.7865362E+02  0.7818608E-02  0.1332916E+00
          2   -1    0    0  501    0  0.00000000000E+00  0.00000000000E+00  0.25365446510E+03  0.25365446511E+03  0.25500000000E-02 0. -1.
         -1   -1    0    0    0  501 -0.00000000000E+00 -0.00000000000E+00 -0.60972622673E+01  0.60972643503E+01  0.50400000000E-02 0.  1.
         24    2    1    2    0    0  0.35527136788E-14  0.35527136788E-14  0.24755720283E+03  0.25975172946E+03  0.78653622197E+02 0.  0.
         66    2    3    3    0    0 -0.28218708181E+02 -0.24610946210E+02  0.16329486984E+03  0.16754464682E+03  0.19999990341E+01 0.  0.
        -13    1    3    3    0    0  0.28218708181E+02  0.24610946210E+02  0.84262332990E+02  0.92207082644E+02  0.10566000000E+00 0.  1.
         13    1    4    4    0    0 -0.13060104207E+02 -0.10987169892E+02  0.73905150818E+02  0.75850291401E+02  0.10566000000E+00 0. -1.
        -13    1    4    4    0    0 -0.63107450068E+00 -0.26927277565E+00  0.28423016821E+01  0.29258512848E+01  0.10566000000E+00 0. -1.
        -14    1    4    4    0    0 -0.14527529473E+02 -0.13354503542E+02  0.86547417343E+02  0.88768504134E+02  0.00000000000E+00 0.  1.
<mgrwt>
<rscale>  0 0.78653622E+02</rscale>
<asrwt>0</asrwt>
<pdfrwt beam="1">  1        2 0.39023763E-01 0.78653622E+02</pdfrwt>
<pdfrwt beam="2">  1       -1 0.93804053E-03 0.78653622E+02</pdfrwt>
<totfact> 0.25086427E+05</totfact>
</mgrwt>
</event>
<event>
 8    1  0.1520917E-017  0.8093366E+02  0.7818608E-02  0.1326423E+00
          2   -1    0    0  501    0  0.00000000000E+00  0.00000000000E+00  0.41615929252E+03  0.41615929253E+03  0.25500000000E-02 0. -1.
         -1   -1    0    0    0  501 -0.00000000000E+00 -0.00000000000E+00 -0.39349443632E+01  0.39349475909E+01  0.50400000000E-02 0.  1.
         24    2    1    2    0    0  0.35527136788E-14  0.55511151231E-16  0.41222434816E+03  0.42009424012E+03  0.80933660288E+02 0.  0.
         66    2    3    3    0    0  0.25398539135E+02  0.14382580479E+00  0.36959344954E+03  0.37047054460E+03  0.19999994188E+01 0.  0.
        -13    1    3    3    0    0 -0.25398539135E+02 -0.14382580479E+00  0.42630898623E+02  0.49623695525E+02  0.10566000000E+00 0.  1.
         13    1    4    4    0    0  0.20503363489E+02 -0.11240532532E-01  0.30137187455E+03  0.30206854516E+03  0.10566000000E+00 0. -1.
        -13    1    4    4    0    0  0.26764754124E+01  0.30351576261E+00  0.41924741564E+02  0.42011317067E+02  0.10566000000E+00 0.  1.
        -14    1    4    4    0    0  0.22187002338E+01 -0.14844942529E+00  0.26296833421E+02  0.26390682370E+02  0.00000000000E+00 0.  1.
<mgrwt>
<rscale>  0 0.80933660E+02</rscale>
<asrwt>0</asrwt>
<pdfrwt beam="1">  1        2 0.64024493E-01 0.80933660E+02</pdfrwt>
<pdfrwt beam="2">  1       -1 0.60537643E-03 0.80933660E+02</pdfrwt>
<totfact> 0.27789861E+05</totfact>
</mgrwt>
</event>
<event>
 8    1  0.1520917E-017  0.7793585E+02  0.7818608E-02  0.1335013E+00
         -1   -1    0    0    0  501 -0.00000000000E+00  0.00000000000E+00  0.14500678827E+02  0.14500679703E+02  0.50400000000E-02 0.  1.
          2   -1    0    0  501    0  0.00000000000E+00 -0.00000000000E+00 -0.10471917819E+03  0.10471917822E+03  0.25500000000E-02 0. -1.
         24    2    1    2    0    0  0.00000000000E+00  0.00000000000E+00 -0.90218499361E+02  0.11921985792E+03  0.77935851160E+02 0.  0.
         66    2    3    3    0    0  0.14657697081E+02  0.48608620577E+01 -0.99825337121E+02  0.10103253928E+03  0.19999995493E+01 0.  0.
        -13    1    3    3    0    0 -0.14657697081E+02 -0.48608620577E+01  0.96068377594E+01  0.18187318644E+02  0.10566000000E+00 0.  1.
         13    1    4    4    0    0  0.31416798423E+01  0.12995270473E+01 -0.25586655298E+02  0.25811761198E+02  0.10566000000E+00 0. -1.
        -13    1    4    4    0    0  0.97473937606E+00  0.43120251617E+00 -0.87526815244E+01  0.88179731437E+01  0.10566000000E+00 0.  1.
        -14    1    4    4    0    0  0.10541277863E+02  0.31301324942E+01 -0.65486000299E+02  0.66402804937E+02  0.00000000000E+00 0.  1.
<mgrwt>
<rscale>  0 0.77935851E+02</rscale>
<asrwt>0</asrwt>
<pdfrwt beam="1">  1        2 0.16110642E-01 0.77935851E+02</pdfrwt>
<pdfrwt beam="2">  1       -1 0.22308738E-02 0.77935851E+02</pdfrwt>
<totfact> 0.19257111E+05</totfact>
</mgrwt>
</event>
<event>
 8    1  0.1520917E-017  0.8042703E+02  0.7818608E-02  0.1327844E+00
         -1   -1    0    0    0  501 -0.00000000000E+00  0.00000000000E+00  0.19540822423E+02  0.19540823073E+02  0.50400000000E-02 0.  1.
          2   -1    0    0  501    0  0.00000000000E+00 -0.00000000000E+00 -0.82756323974E+02  0.82756324014E+02  0.25500000000E-02 0. -1.
         24    2    1    2    0    0 -0.71054273576E-14  0.17763568394E-14 -0.63215501551E+02  0.10229714709E+03  0.80427026961E+02 0.  0.
         66    2    3    3    0    0  0.32091253148E+02  0.15881120657E+02 -0.54839896890E+02  0.65524597007E+02  0.20000000319E+01 0.  0.
        -13    1    3    3    0    0 -0.32091253148E+02 -0.15881120657E+02 -0.83756046608E+01  0.36772550080E+02  0.10566000000E+00 0.  1.
         13    1    4    4    0    0  0.12793500228E+02  0.70965696694E+01 -0.23182734646E+02  0.27413232186E+02  0.10566000000E+00 0. -1.
        -13    1    4    4    0    0  0.68985117886E+01  0.31383656831E+01 -0.12042062098E+02  0.14228887085E+02  0.10566000000E+00 0.  1.
         14    1    4    4    0    0  0.12399241131E+02  0.56461853042E+01 -0.19615100146E+02  0.23882477737E+02  0.00000000000E+00 0. -1.
<mgrwt>
<rscale>  0 0.80427027E+02</rscale>
<asrwt>0</asrwt>
<pdfrwt beam="1">  1        2 0.12731742E-01 0.80427027E+02</pdfrwt>
<pdfrwt beam="2">  1       -1 0.30062805E-02 0.80427027E+02</pdfrwt>
<totfact> 0.16602677E+05</totfact>
</mgrwt>
</event>
<event>
 8    1  0.1520917E-017  0.8125959E+02  0.7818608E-02  0.1325514E+00
         -1   -1    0    0    0  501 -0.00000000000E+00  0.00000000000E+00  0.23911156738E+01  0.23911209854E+01  0.50400000000E-02 0.  1.
          2   -1    0    0  501    0  0.00000000000E+00 -0.00000000000E+00 -0.69037998580E+03  0.69037998580E+03  0.25500000000E-02 0. -1.
         24    2    1    2    0    0  0.00000000000E+00  0.00000000000E+00 -0.68798887012E+03  0.69277110679E+03  0.81259590115E+02 0.  0.
         66    2    3    3    0    0 -0.18665050378E+02 -0.33061175311E+02 -0.46696509725E+03  0.46851022130E+03  0.19999995152E+01 0.  0.
        -13    1    3    3    0    0  0.18665050378E+02  0.33061175311E+02 -0.22102377288E+03  0.22426088549E+03  0.10566000000E+00 0.  1.
         13    1    4    4    0    0 -0.66116824925E+01 -0.10979393757E+02 -0.15344565855E+03  0.15398000755E+03  0.10566000000E+00 0. -1.
        -13    1    4    4    0    0 -0.88934461300E+01 -0.15971473135E+02 -0.23505303849E+03  0.23576285416E+03  0.10566000000E+00 0.  1.
         14    1    4    4    0    0 -0.31599217552E+01 -0.61103084187E+01 -0.78466400214E+02  0.78767359591E+02  0.00000000000E+00 0. -1.
<mgrwt>
<rscale>  0 0.81259590E+02</rscale>
<asrwt>0</asrwt>
<pdfrwt beam="1">  1        2 0.10621215E+00 0.81259590E+02</pdfrwt>
<pdfrwt beam="2">  1       -1 0.36786491E-03 0.81259590E+02</pdfrwt>
<totfact> 0.32016637E+05</totfact>
</mgrwt>
</event>
<event>
 8    1  0.1520917E-017  0.7932437E+02  0.7818608E-02  0.1330980E+00
         -1   -1    0    0    0  501 -0.00000000000E+00  0.00000000000E+00  0.28110226324E+03  0.28110226329E+03  0.50400000000E-02 0.  1.
          2   -1    0    0  501    0  0.00000000000E+00 -0.00000000000E+00 -0.55961440696E+01  0.55961446506E+01  0.25500000000E-02 0. -1.
         24    2    1    2    0    0  0.71054273576E-14  0.00000000000E+00  0.27550611917E+03  0.28669840794E+03  0.79324368340E+02 0.  0.
         66    2    3    3    0    0 -0.37796320738E+02 -0.68827899340E+00  0.94764251561E+02  0.10204557297E+03  0.19999999866E+01 0.  0.
        -13    1    3    3    0    0  0.37796320738E+02  0.68827899340E+00  0.18074186761E+03  0.18465283497E+03  0.10566000000E+00 0.  1.
         13    1    4    4    0    0 -0.26184993632E+02 -0.22559405809E+00  0.65681106096E+02  0.70708723976E+02  0.10566000000E+00 0. -1.
        -13    1    4    4    0    0 -0.57076427296E+01 -0.26902506609E+00  0.12893957045E+02  0.14103717678E+02  0.10566000000E+00 0.  1.
        -14    1    4    4    0    0 -0.59036843764E+01 -0.19365986921E+00  0.16189188419E+02  0.17233131318E+02  0.00000000000E+00 0.  1.
<mgrwt>
<rscale>  0 0.79324368E+02</rscale>
<asrwt>0</asrwt>
<pdfrwt beam="1">  1        2 0.86094546E-03 0.79324368E+02</pdfrwt>
<pdfrwt beam="2">  1       -1 0.43246493E-01 0.79324368E+02</pdfrwt>
<totfact> 0.90632494E+04</totfact>
</mgrwt>
</event>
<event>
 8    1  0.1520917E-017  0.7989480E+02  0.7818608E-02  0.1329350E+00
          2   -1    0    0  501    0  0.00000000000E+00  0.00000000000E+00  0.73775889548E+03  0.73775889548E+03  0.25500000000E-02 0. -1.
         -1   -1    0    0    0  501 -0.00000000000E+00 -0.00000000000E+00 -0.21630272343E+01  0.21630331061E+01  0.50400000000E-02 0.  1.
         24    2    1    2    0    0  0.00000000000E+00  0.00000000000E+00  0.73559586824E+03  0.73992192859E+03  0.79894799761E+02 0.  0.
         66    2    3    3    0    0 -0.11309523662E+02  0.49152342346E+00  0.72258101709E+03  0.72267245221E+03  0.20000010418E+01 0.  0.
        -13    1    3    3    0    0  0.11309523662E+02 -0.49152342346E+00  0.13014851155E+02  0.17249476380E+02  0.10566000000E+00 0.  1.
         13    1    4    4    0    0 -0.14227881215E+01 -0.48124252090E-01  0.10541451900E+03  0.10542418424E+03  0.10566000000E+00 0. -1.
        -13    1    4    4    0    0 -0.74618530775E+01  0.79304906036E+00  0.50084961608E+03  0.50090583672E+03  0.10566000000E+00 0.  1.
        -14    1    4    4    0    0 -0.24248824633E+01 -0.25340138481E+00  0.11631688201E+03  0.11634243125E+03  0.00000000000E+00 0.  1.
<mgrwt>
<rscale>  0 0.79894800E+02</rscale>
<asrwt>0</asrwt>
<pdfrwt beam="1">  1        2 0.11350147E+00 0.79894800E+02</pdfrwt>
<pdfrwt beam="2">  1       -1 0.33277357E-03 0.79894800E+02</pdfrwt>
<totfact> 0.33954332E+05</totfact>
</mgrwt>
</event>
<event>
 8    1  0.1520917E-017  0.8034425E+02  0.7818608E-02  0.1328077E+00
          2   -1    0    0  501    0  0.00000000000E+00  0.00000000000E+00  0.56293324239E+03  0.56293324240E+03  0.25500000000E-02 0. -1.
         -1   -1    0    0    0  501 -0.00000000000E+00 -0.00000000000E+00 -0.28667670327E+01  0.28667714630E+01  0.50400000000E-02 0.  1.
         24    2    1    2    0    0 -0.17763568394E-14  0.00000000000E+00  0.56006647536E+03  0.56580001386E+03  0.80344252212E+02 0.  0.
         66    2    3    3    0    0  0.13459334164E+02  0.12213355161E+02  0.53230068708E+03  0.53261462727E+03  0.19999990235E+01 0.  0.
        -13    1    3    3    0    0 -0.13459334164E+02 -0.12213355161E+02  0.27765788286E+02  0.33185386597E+02  0.10566000000E+00 0.  1.
         13    1    4    4    0    0  0.82882005606E+01  0.67285896071E+01  0.30070970811E+03  0.30089916567E+03  0.10566000000E+00 0. -1.
        -13    1    4    4    0    0  0.34771768784E+01  0.42803123131E+01  0.16873675479E+03  0.16882688001E+03  0.10566000000E+00 0.  1.
        -14    1    4    4    0    0  0.16939567248E+01  0.12044532408E+01  0.62854224176E+02  0.62888581585E+02  0.00000000000E+00 0.  1.
<mgrwt>
<rscale>  0 0.80344252E+02</rscale>
<asrwt>0</asrwt>
<pdfrwt beam="1">  1        2 0.86605076E-01 0.80344252E+02</pdfrwt>
<pdfrwt beam="2">  1       -1 0.44104162E-03 0.80344252E+02</pdfrwt>
<totfact> 0.31229601E+05</totfact>
</mgrwt>
</event>
<event>
 8    1  0.1520917E-017  0.7810056E+02  0.7818608E-02  0.1334530E+00
          2   -1    0    0  501    0  0.00000000000E+00  0.00000000000E+00  0.30648899730E+03  0.30648899731E+03  0.25500000000E-02 0. -1.
         -1   -1    0    0    0  501 -0.00000000000E+00 -0.00000000000E+00 -0.49754603529E+01  0.49754629056E+01  0.50400000000E-02 0.  1.
         24    2    1    2    0    0 -0.44408920985E-15  0.35527136788E-14  0.30151353695E+03  0.31146446022E+03  0.78100557076E+02 0.  0.
         66    2    3    3    0    0 -0.29412184222E+01  0.19254418891E+02  0.28571414809E+03  0.28638428348E+03  0.19999989638E+01 0.  0.
        -13    1    3    3    0    0  0.29412184222E+01 -0.19254418891E+02  0.15799388860E+02  0.25080176734E+02  0.10566000000E+00 0.  1.
         13    1    4    4    0    0  0.95580584631E-01  0.16892370858E+00  0.30682024992E+01  0.30761504319E+01  0.10566000000E+00 0.  1.
        -13    1    4    4    0    0 -0.29966863329E+01  0.17970484251E+02  0.26934302794E+03  0.26995850847E+03  0.10566000000E+00 0. -1.
        -14    1    4    4    0    0 -0.40112673932E-01  0.11150109311E+01  0.13302917649E+02  0.13349624578E+02  0.00000000000E+00 0.  1.
<mgrwt>
<rscale>  0 0.78100557E+02</rscale>
<asrwt>0</asrwt>
<pdfrwt beam="1">  1        2 0.47152147E-01 0.78100557E+02</pdfrwt>
<pdfrwt beam="2">  1       -1 0.76545574E-03 0.78100557E+02</pdfrwt>
<totfact> 0.27360853E+05</totfact>
</mgrwt>
</event>
<event>
 8    1  0.1520917E-017  0.7965854E+02  0.7818608E-02  0.1330023E+00
          2   -1    0    0  501    0  0.00000000000E+00  0.00000000000E+00  0.10607537828E+02  0.10607538134E+02  0.25500000000E-02 0. -1.
         -1   -1    0    0    0  501 -0.00000000000E+00 -0.00000000000E+00 -0.14955128066E+03  0.14955128074E+03  0.50400000000E-02 0.  1.
         24    2    1    2    0    0 -0.35527136788E-14  0.00000000000E+00 -0.13894374283E+03  0.16015881887E+03  0.79658543750E+02 0.  0.
         66    2    3    3    0    0 -0.26513311041E+02 -0.38756601387E+01 -0.10335523824E+02  0.28788877247E+02  0.19999991371E+01 0.  0.
        -13    1    3    3    0    0  0.26513311041E+02  0.38756601387E+01 -0.12860821900E+03  0.13136994163E+03  0.10566000000E+00 0.  1.
         13    1    4    4    0    0 -0.15709415035E+02 -0.22157594567E+01 -0.70774864028E+01  0.17372313850E+02  0.10566000000E+00 0. -1.
        -13    1    4    4    0    0 -0.17712219757E+01 -0.40237734879E+00 -0.44982794671E+00  0.18742049075E+01  0.10566000000E+00 0.  1.
         14    1    4    4    0    0 -0.90326740310E+01 -0.12575233332E+01 -0.28082094745E+01  0.95423584892E+01  0.00000000000E+00 0. -1.
<mgrwt>
<rscale>  0 0.79658544E+02</rscale>
<asrwt>0</asrwt>
<pdfrwt beam="1">  1        2 0.16319290E-02 0.79658544E+02</pdfrwt>
<pdfrwt beam="2">  1       -1 0.23007888E-01 0.79658544E+02</pdfrwt>
<totfact> 0.10912821E+05</totfact>
</mgrwt>
</event>
<event>
 8    1  0.1520917E-017  0.7685724E+02  0.7818608E-02  0.1338214E+00
          2   -1    0    0  501    0  0.00000000000E+00  0.00000000000E+00  0.54821184555E+03  0.54821184555E+03  0.25500000000E-02 0. -1.
         -1   -1    0    0    0  501 -0.00000000000E+00 -0.00000000000E+00 -0.26937716998E+01  0.26937764146E+01  0.50400000000E-02 0.  1.
         24    2    1    2    0    0  0.00000000000E+00  0.00000000000E+00  0.54551807385E+03  0.55090562197E+03  0.76857240527E+02 0.  0.
         66    2    3    3    0    0 -0.96810629857E+01  0.32886553290E+02  0.39699268157E+03  0.39847514049E+03  0.20000004427E+01 0.  0.
        -13    1    3    3    0    0  0.96810629857E+01 -0.32886553290E+02  0.14852539228E+03  0.15243048148E+03  0.10566000000E+00 0.  1.
         13    1    4    4    0    0 -0.44988255912E+01  0.14589559320E+02  0.18269865595E+03  0.18333549771E+03  0.10566000000E+00 0. -1.
        -13    1    4    4    0    0 -0.63173693757E+00  0.20879598123E+01  0.20669148420E+02  0.20784213436E+02  0.10566000000E+00 0.  1.
         14    1    4    4    0    0 -0.45505004569E+01  0.16209034158E+02  0.19362487720E+03  0.19435542934E+03  0.00000000000E+00 0. -1.
<mgrwt>
<rscale>  0 0.76857241E+02</rscale>
<asrwt>0</asrwt>
<pdfrwt beam="1">  1        2 0.84340308E-01 0.76857241E+02</pdfrwt>
<pdfrwt beam="2">  1       -1 0.41442666E-03 0.76857241E+02</pdfrwt>
<totfact> 0.34771758E+05</totfact>
</mgrwt>
</event>
<event>
 8    1  0.1520917E-017  0.7920486E+02  0.7818608E-02  0.1331323E+00
         -1   -1    0    0    0  501 -0.00000000000E+00  0.00000000000E+00  0.11231523557E+02  0.11231524688E+02  0.50400000000E-02 0.  1.
          2   -1    0    0  501    0  0.00000000000E+00 -0.00000000000E+00 -0.13963844713E+03  0.13963844715E+03  0.25500000000E-02 0. -1.
         24    2    1    2    0    0  0.17763568394E-14  0.00000000000E+00 -0.12840692357E+03  0.15086997184E+03  0.79204863372E+02 0.  0.
         66    2    3    3    0    0  0.15221226080E+02  0.36232443920E+02 -0.73152578132E+02  0.83064886707E+02  0.20000001562E+01 0.  0.
        -13    1    3    3    0    0 -0.15221226080E+02 -0.36232443920E+02 -0.55254345441E+02  0.67805085133E+02  0.10566000000E+00 0.  1.
         13    1    4    4    0    0  0.53456922620E+01  0.13888264753E+02 -0.27415962660E+02  0.31194654930E+02  0.10566000000E+00 0. -1.
        -13    1    4    4    0    0  0.42878608245E+01  0.96322383801E+01 -0.18315790075E+02  0.21133979672E+02  0.10566000000E+00 0.  1.
         14    1    4    4    0    0  0.55876729935E+01  0.12711940787E+02 -0.27420825397E+02  0.30736252105E+02  0.00000000000E+00 0. -1.
<mgrwt>
<rscale>  0 0.79204863E+02</rscale>
<asrwt>0</asrwt>
<pdfrwt beam="1">  1        2 0.21482837E-01 0.79204863E+02</pdfrwt>
<pdfrwt beam="2">  1       -1 0.17279269E-02 0.79204863E+02</pdfrwt>
<totfact> 0.20104533E+05</totfact>
</mgrwt>
</event>
<event>
 8    1  0.1520917E-017  0.8039508E+02  0.7818608E-02  0.1327934E+00
         -1   -1    0    0    0  501 -0.00000000000E+00  0.00000000000E+00  0.20786706731E+02  0.20786707342E+02  0.50400000000E-02 0.  1.
          2   -1    0    0  501    0  0.00000000000E+00 -0.00000000000E+00 -0.77734404243E+02  0.77734404285E+02  0.25500000000E-02 0. -1.
         24    2    1    2    0    0  0.00000000000E+00  0.00000000000E+00 -0.56947697512E+02  0.98521111626E+02  0.80395081841E+02 0.  0.
         66    2    3    3    0    0 -0.37406474116E+02  0.13303216663E+02 -0.36007555513E+02  0.53635472605E+02  0.19999970428E+01 0.  0.
        -13    1    3    3    0    0  0.37406474116E+02 -0.13303216663E+02 -0.20940141999E+02  0.44885639021E+02  0.10566000000E+00 0.  1.
         13    1    4    4    0    0 -0.92553826733E+00  0.56016326036E+00 -0.87441420627E+00  0.13950513260E+01  0.10566000000E+00 0. -1.
        -13    1    4    4    0    0 -0.32363946024E+01  0.14765950635E+01 -0.31253666714E+01  0.47364188867E+01  0.10566000000E+00 0.  1.
         14    1    4    4    0    0 -0.33244541246E+02  0.11266458339E+02 -0.32007774635E+02  0.47504002392E+02  0.00000000000E+00 0. -1.
<mgrwt>
<rscale>  0 0.80395082E+02</rscale>
<asrwt>0</asrwt>
<pdfrwt beam="1">  1        2 0.11959139E-01 0.80395082E+02</pdfrwt>
<pdfrwt beam="2">  1       -1 0.31979550E-02 0.80395082E+02</pdfrwt>
<totfact> 0.16354655E+05</totfact>
</mgrwt>
</event>
<event>
 8    1  0.1520917E-017  0.8003177E+02  0.7818608E-02  0.1328961E+00
          2   -1    0    0  501    0  0.00000000000E+00  0.00000000000E+00  0.67042113708E+03  0.67042113708E+03  0.25500000000E-02 0. -1.
         -1   -1    0    0    0  501 -0.00000000000E+00 -0.00000000000E+00 -0.23884527356E+01  0.23884580532E+01  0.50400000000E-02 0.  1.
         24    2    1    2    0    0  0.35527136788E-14  0.71054273576E-14  0.66803268434E+03  0.67280959513E+03  0.80031768426E+02 0.  0.
         66    2    3    3    0    0 -0.24984296825E+02 -0.23065277817E+02  0.51117540462E+03  0.51230900481E+03  0.19999984450E+01 0.  0.
        -13    1    3    3    0    0  0.24984296825E+02  0.23065277817E+02  0.15685727972E+03  0.16050059032E+03  0.10566000000E+00 0.  1.
         13    1    4    4    0    0 -0.99687922128E+01 -0.90790736677E+01  0.19499566933E+03  0.19546132257E+03  0.10566000000E+00 0. -1.
        -13    1    4    4    0    0 -0.57748954928E+01 -0.46804610282E+01  0.10877904475E+03  0.10903278348E+03  0.10566000000E+00 0.  1.
         14    1    4    4    0    0 -0.92406091197E+01 -0.93057431208E+01  0.20740069054E+03  0.20781489876E+03  0.00000000000E+00 0. -1.
<mgrwt>
<rscale>  0 0.80031768E+02</rscale>
<asrwt>0</asrwt>
<pdfrwt beam="1">  1        2 0.10314174E+00 0.80031768E+02</pdfrwt>
<pdfrwt beam="2">  1       -1 0.36745458E-03 0.80031768E+02</pdfrwt>
<totfact> 0.33077568E+05</totfact>
</mgrwt>
</event>
<event>
 8    1  0.1520917E-017  0.7980287E+02  0.7818608E-02  0.1329612E+00
         -1   -1    0    0    0  501 -0.00000000000E+00  0.00000000000E+00  0.19149511328E+02  0.19149511991E+02  0.50400000000E-02 0.  1.
          2   -1    0    0  501    0  0.00000000000E+00 -0.00000000000E+00 -0.83141777427E+02  0.83141777466E+02  0.25500000000E-02 0. -1.
         24    2    1    2    0    0  0.00000000000E+00  0.00000000000E+00 -0.63992266099E+02  0.10229128946E+03  0.79802868234E+02 0.  0.
         66    2    3    3    0    0  0.28634469996E+02  0.74660709615E+01 -0.66277515519E+02  0.72611184731E+02  0.19999992853E+01 0.  0.
        -13    1    3    3    0    0 -0.28634469996E+02 -0.74660709615E+01  0.22852494205E+01  0.29680104726E+02  0.10566000000E+00 0.  1.
         13    1    4    4    0    0  0.11932656628E+02  0.34534586941E+01 -0.29413735298E+02  0.31929510792E+02  0.10566000000E+00 0. -1.
        -13    1    4    4    0    0  0.12550520958E+02  0.26069227584E+01 -0.27881865004E+02  0.30687475991E+02  0.10566000000E+00 0.  1.
        -14    1    4    4    0    0  0.41512924095E+01  0.14056895089E+01 -0.89819152170E+01  0.99941979484E+01  0.00000000000E+00 0.  1.
<mgrwt>
<rscale>  0 0.79802868E+02</rscale>
<asrwt>0</asrwt>
<pdfrwt beam="1">  1        2 0.12791042E-01 0.79802868E+02</pdfrwt>
<pdfrwt beam="2">  1       -1 0.29460788E-02 0.79802868E+02</pdfrwt>
<totfact> 0.16975302E+05</totfact>
</mgrwt>
</event>
<event>
 8    1  0.1520917E-017  0.7976721E+02  0.7818608E-02  0.1329713E+00
          2   -1    0    0  501    0  0.00000000000E+00  0.00000000000E+00  0.34060174980E+02  0.34060175076E+02  0.25500000000E-02 0. -1.
         -1   -1    0    0    0  501 -0.00000000000E+00 -0.00000000000E+00 -0.46702698809E+02  0.46702699080E+02  0.50400000000E-02 0.  1.
         24    2    1    2    0    0  0.00000000000E+00  0.00000000000E+00 -0.12642523828E+02  0.80762874156E+02  0.79767214024E+02 0.  0.
         66    2    3    3    0    0  0.99675927010E+01 -0.47664327615E+01  0.32449340602E+02  0.34337028042E+02  0.20000009254E+01 0.  0.
        -13    1    3    3    0    0 -0.99675927010E+01  0.47664327615E+01 -0.45091864431E+02  0.46425846114E+02  0.10566000000E+00 0.  1.
         13    1    4    4    0    0  0.43217324213E+01 -0.23116679466E+01  0.16903700671E+02  0.17600211369E+02  0.10566000000E+00 0. -1.
        -13    1    4    4    0    0  0.18381410450E+01 -0.46617067141E+00  0.44285464560E+01  0.48186372912E+01  0.10566000000E+00 0.  1.
         14    1    4    4    0    0  0.38077192348E+01 -0.19885941435E+01  0.11117093475E+02  0.11918179382E+02  0.00000000000E+00 0. -1.
<mgrwt>
<rscale>  0 0.79767214E+02</rscale>
<asrwt>0</asrwt>
<pdfrwt beam="1">  1        2 0.52400269E-02 0.79767214E+02</pdfrwt>
<pdfrwt beam="2">  1       -1 0.71850307E-02 0.79767214E+02</pdfrwt>
<totfact> 0.13910985E+05</totfact>
</mgrwt>
</event>
<event>
 8    1  0.1520917E-017  0.7978705E+02  0.7818608E-02  0.1329657E+00
         -1   -1    0    0    0  501 -0.00000000000E+00  0.00000000000E+00  0.96236552483E+02  0.96236552615E+02  0.50400000000E-02 0.  1.
          2   -1    0    0  501    0  0.00000000000E+00 -0.00000000000E+00 -0.16537306790E+02  0.16537306987E+02  0.25500000000E-02 0. -1.
         24    2    1    2    0    0  0.00000000000E+00  0.00000000000E+00  0.79699245692E+02  0.11277385960E+03  0.79787051866E+02 0.  0.
         66    2    3    3    0    0 -0.33383900632E+02 -0.10542417584E+02  0.12913106420E+02  0.37368110797E+02  0.19999993043E+01 0.  0.
        -13    1    3    3    0    0  0.33383900632E+02  0.10542417584E+02  0.66786139272E+02  0.75405748804E+02  0.10566000000E+00 0.  1.
         13    1    4    4    0    0 -0.76993426473E+01 -0.29015561694E+01  0.31511781760E+01  0.88113559307E+01  0.10566000000E+00 0. -1.
        -13    1    4    4    0    0 -0.13188312498E+02 -0.34464770653E+01  0.55589212591E+01  0.14721499934E+02  0.10566000000E+00 0.  1.
         14    1    4    4    0    0 -0.12496245487E+02 -0.41943843495E+01  0.42030069854E+01  0.13835254933E+02  0.00000000000E+00 0. -1.
<mgrwt>
<rscale>  0 0.79787052E+02</rscale>
<asrwt>0</asrwt>
<pdfrwt beam="1">  1        2 0.25442011E-02 0.79787052E+02</pdfrwt>
<pdfrwt beam="2">  1       -1 0.14805624E-01 0.79787052E+02</pdfrwt>
<totfact> 0.12029791E+05</totfact>
</mgrwt>
</event>
<event>
 8    1  0.1537861E-017  0.8311680E+02  0.7818608E-02  0.1320432E+00
          2   -1    0    0  501    0  0.00000000000E+00  0.00000000000E+00  0.14775553969E+02  0.14775554189E+02  0.25500000000E-02 0. -1.
         -1   -1    0    0    0  501 -0.00000000000E+00 -0.00000000000E+00 -0.11688905107E+03  0.11688905118E+03  0.50400000000E-02 0.  1.
         24    2    1    2    0    0  0.00000000000E+00 -0.17763568394E-14 -0.10211349710E+03  0.13166460537E+03  0.83116797439E+02 0.  0.
         66    2    3    3    0    0 -0.11383409969E+02 -0.14855071062E+02  0.76500431856E+01  0.20316946663E+02  0.20000005458E+01 0.  0.
        -13    1    3    3    0    0  0.11383409969E+02  0.14855071062E+02 -0.10976354029E+03  0.11134765870E+03  0.10566000000E+00 0.  1.
         13    1    4    4    0    0 -0.48502547568E+01 -0.61040653063E+01  0.34472834488E+01  0.85252279549E+01  0.10566000000E+00 0. -1.
        -13    1    4    4    0    0 -0.53634489946E+01 -0.79717427274E+01  0.37596380462E+01  0.10318008989E+02  0.10566000000E+00 0.  1.
        -14    1    4    4    0    0 -0.11697062175E+01 -0.77926302845E+00  0.44312169061E+00  0.14737097188E+01  0.00000000000E+00 0.  1.
<mgrwt>
<rscale>  0 0.83116797E+02</rscale>
<asrwt>0</asrwt>
<pdfrwt beam="1">  1        2 0.22731622E-02 0.83116797E+02</pdfrwt>
<pdfrwt beam="2">  1       -1 0.17982930E-01 0.83116797E+02</pdfrwt>
<totfact> 0.10405994E+05</totfact>
</mgrwt>
</event>
<event>
 8    1  0.1520917E-017  0.8519132E+02  0.7818608E-02  0.1314933E+00
          2   -1    0    0  501    0  0.00000000000E+00  0.00000000000E+00  0.80063946775E+01  0.80063950835E+01  0.25500000000E-02 0. -1.
         -1   -1    0    0    0  501 -0.00000000000E+00 -0.00000000000E+00 -0.22661763157E+03  0.22661763163E+03  0.50400000000E-02 0.  1.
         24    2    1    2    0    0  0.35527136788E-14  0.00000000000E+00 -0.21861123689E+03  0.23462402671E+03  0.85191320061E+02 0.  0.
         66    2    3    3    0    0 -0.22975256868E+02 -0.21592576085E+02 -0.30583328681E+02  0.43970919731E+02  0.20000046540E+01 0.  0.
        -13    1    3    3    0    0  0.22975256868E+02  0.21592576085E+02 -0.18802790821E+03  0.19065310698E+03  0.10566000000E+00 0.  1.
         13    1    4    4    0    0 -0.82736513554E+01 -0.79321564325E+01 -0.10720877429E+02  0.15694610199E+02  0.10566000000E+00 0. -1.
        -13    1    4    4    0    0 -0.87856037116E+01 -0.75433419497E+01 -0.10615159769E+02  0.15709284558E+02  0.10566000000E+00 0.  1.
        -14    1    4    4    0    0 -0.59160018013E+01 -0.61170777030E+01 -0.92472914820E+01  0.12567024974E+02  0.00000000000E+00 0.  1.
<mgrwt>
<rscale>  0 0.85191320E+02</rscale>
<asrwt>0</asrwt>
<pdfrwt beam="1">  1        2 0.12317532E-02 0.85191320E+02</pdfrwt>
<pdfrwt beam="2">  1       -1 0.34864246E-01 0.85191320E+02</pdfrwt>
<totfact> 0.81544463E+04</totfact>
</mgrwt>
</event>
<event>
 8    1  0.1520917E-017  0.8400200E+02  0.7818608E-02  0.1318063E+00
         -1   -1    0    0    0  501 -0.00000000000E+00  0.00000000000E+00  0.11672064539E+02  0.11672065628E+02  0.50400000000E-02 0.  1.
          2   -1    0    0  501    0  0.00000000000E+00 -0.00000000000E+00 -0.15113725694E+03  0.15113725697E+03  0.25500000000E-02 0. -1.
         24    2    1    2    0    0  0.00000000000E+00 -0.71054273576E-14 -0.13946519241E+03  0.16280932259E+03  0.84001997779E+02 0.  0.
         66    2    3    3    0    0  0.22012119923E+02  0.34409442688E+02 -0.51027319225E+02  0.65393657804E+02  0.20000010327E+01 0.  0.
        -13    1    3    3    0    0 -0.22012119923E+02 -0.34409442688E+02 -0.88437873180E+02  0.97415664789E+02  0.10566000000E+00 0.  1.
         13    1    4    4    0    0  0.81078773302E+01  0.12500965617E+02 -0.18162461603E+02  0.23492509267E+02  0.10566000000E+00 0. -1.
        -13    1    4    4    0    0  0.44844668038E+01  0.64405006370E+01 -0.10926786202E+02  0.13453486972E+02  0.10566000000E+00 0.  1.
        -14    1    4    4    0    0  0.94197757893E+01  0.15467976434E+02 -0.21938071420E+02  0.28447661565E+02  0.00000000000E+00 0.  1.
<mgrwt>
<rscale>  0 0.84001998E+02</rscale>
<asrwt>0</asrwt>
<pdfrwt beam="1">  1        2 0.23251884E-01 0.84001998E+02</pdfrwt>
<pdfrwt beam="2">  1       -1 0.17957024E-02 0.84001998E+02</pdfrwt>
<totfact> 0.17633810E+05</totfact>
</mgrwt>
</event>
<event>
 8    1  0.1520917E-017  0.7996007E+02  0.7818608E-02  0.1329165E+00
          2   -1    0    0  501    0  0.00000000000E+00  0.00000000000E+00  0.35823010733E+02  0.35823010824E+02  0.25500000000E-02 0. -1.
         -1   -1    0    0    0  501 -0.00000000000E+00 -0.00000000000E+00 -0.44619453281E+02  0.44619453566E+02  0.50400000000E-02 0.  1.
         24    2    1    2    0    0  0.00000000000E+00  0.35527136788E-14 -0.87964425476E+01  0.80442464390E+02  0.79960069257E+02 0.  0.
         66    2    3    3    0    0  0.20185557076E+02 -0.30622982123E+02  0.11543132417E+02  0.38502826547E+02  0.19999993774E+01 0.  0.
        -13    1    3    3    0    0 -0.20185557076E+02  0.30622982123E+02 -0.20339574965E+02  0.41939637843E+02  0.10566000000E+00 0.  1.
         13    1    4    4    0    0  0.70744384302E+00 -0.15756894872E+01  0.30311653453E+00  0.17567919115E+01  0.10566000000E+00 0.  1.
        -13    1    4    4    0    0  0.89388806311E+01 -0.14109943199E+02  0.53090294647E+01  0.17526866289E+02  0.10566000000E+00 0. -1.
        -14    1    4    4    0    0  0.10539232602E+02 -0.14937349436E+02  0.59309864181E+01  0.19219168346E+02  0.00000000000E+00 0.  1.
<mgrwt>
<rscale>  0 0.79960069E+02</rscale>
<asrwt>0</asrwt>
<pdfrwt beam="1">  1        2 0.55112324E-02 0.79960069E+02</pdfrwt>
<pdfrwt beam="2">  1       -1 0.68645313E-02 0.79960069E+02</pdfrwt>
<totfact> 0.13958341E+05</totfact>
</mgrwt>
</event>
<event>
 8    1  0.1520917E-017  0.8222364E+02  0.7818608E-02  0.1322857E+00
          2   -1    0    0  501    0  0.00000000000E+00  0.00000000000E+00  0.14488398497E+02  0.14488398721E+02  0.25500000000E-02 0. -1.
         -1   -1    0    0    0  501 -0.00000000000E+00 -0.00000000000E+00 -0.11665758607E+03  0.11665758617E+03  0.50400000000E-02 0.  1.
         24    2    1    2    0    0  0.00000000000E+00  0.00000000000E+00 -0.10216918757E+03  0.13114598490E+03  0.82223636904E+02 0.  0.
         66    2    3    3    0    0  0.11590382839E+02  0.38313912669E+02 -0.36333394688E+02  0.54096288812E+02  0.20000038274E+01 0.  0.
        -13    1    3    3    0    0 -0.11590382839E+02 -0.38313912669E+02 -0.65835792880E+02  0.77049696083E+02  0.10566000000E+00 0.  1.
         13    1    4    4    0    0  0.50007171232E+01  0.18642588368E+02 -0.17807478735E+02  0.26261582887E+02  0.10566000000E+00 0.  1.
        -13    1    4    4    0    0  0.59530049353E+01  0.18543131110E+02 -0.17252450394E+02  0.26018151121E+02  0.10566000000E+00 0. -1.
        -14    1    4    4    0    0  0.63666078005E+00  0.11281931913E+01 -0.12734655587E+01  0.18165548037E+01  0.00000000000E+00 0.  1.
<mgrwt>
<rscale>  0 0.82223637E+02</rscale>
<asrwt>0</asrwt>
<pdfrwt beam="1">  1        2 0.22289845E-02 0.82223637E+02</pdfrwt>
<pdfrwt beam="2">  1       -1 0.17947320E-01 0.82223637E+02</pdfrwt>
<totfact> 0.10696660E+05</totfact>
</mgrwt>
</event>
<event>
 8    1  0.1520917E-017  0.8154925E+02  0.7818608E-02  0.1324712E+00
         -1   -1    0    0    0  501 -0.00000000000E+00  0.00000000000E+00  0.96453043257E+01  0.96453056425E+01  0.50400000000E-02 0.  1.
          2   -1    0    0  501    0  0.00000000000E+00 -0.00000000000E+00 -0.17237091189E+03  0.17237091191E+03  0.25500000000E-02 0. -1.
         24    2    1    2    0    0  0.00000000000E+00  0.35527136788E-14 -0.16272560757E+03  0.18201621755E+03  0.81549249504E+02 0.  0.
         66    2    3    3    0    0 -0.32700033284E+02 -0.22171868450E+02 -0.10369577989E+03  0.11098512825E+03  0.19999998826E+01 0.  0.
        -13    1    3    3    0    0  0.32700033284E+02  0.22171868450E+02 -0.59029827679E+02  0.71031089300E+02  0.10566000000E+00 0.  1.
         13    1    4    4    0    0 -0.15132917380E+02 -0.10922932098E+02 -0.46864476443E+02  0.50444087367E+02  0.10566000000E+00 0. -1.
        -13    1    4    4    0    0 -0.67539023671E+01 -0.44863490557E+01 -0.22677878970E+02  0.24084017183E+02  0.10566000000E+00 0.  1.
         14    1    4    4    0    0 -0.10813213537E+02 -0.67625872968E+01 -0.34153424475E+02  0.36457023704E+02  0.00000000000E+00 0. -1.
<mgrwt>
<rscale>  0 0.81549250E+02</rscale>
<asrwt>0</asrwt>
<pdfrwt beam="1">  1        2 0.26518600E-01 0.81549250E+02</pdfrwt>
<pdfrwt beam="2">  1       -1 0.14838932E-02 0.81549250E+02</pdfrwt>
<totfact> 0.19927526E+05</totfact>
</mgrwt>
</event>
<event>
 8    1  0.1520917E-017  0.7766001E+02  0.7818608E-02  0.1335826E+00
         -1   -1    0    0    0  501 -0.00000000000E+00  0.00000000000E+00  0.37444861565E+02  0.37444861905E+02  0.50400000000E-02 0.  1.
          2   -1    0    0  501    0  0.00000000000E+00 -0.00000000000E+00 -0.40266390727E+02  0.40266390807E+02  0.25500000000E-02 0. -1.
         24    2    1    2    0    0  0.00000000000E+00  0.00000000000E+00 -0.28215291613E+01  0.77711252712E+02  0.77660013979E+02 0.  0.
         66    2    3    3    0    0 -0.35596013131E+02  0.80915175403E+01 -0.14581525215E+02  0.39359492933E+02  0.19999998683E+01 0.  0.
        -13    1    3    3    0    0  0.35596013131E+02 -0.80915175403E+01  0.11759996053E+02  0.38351759779E+02  0.10566000000E+00 0.  1.
         13    1    4    4    0    0 -0.82579331467E+01  0.16975225534E+01 -0.36369601441E+01  0.91822484066E+01  0.10566000000E+00 0. -1.
        -13    1    4    4    0    0 -0.58920567119E+01  0.10028483593E+01 -0.29221670116E+01  0.66537403923E+01  0.10566000000E+00 0.  1.
        -14    1    4    4    0    0 -0.21446023272E+02  0.53911466276E+01 -0.80223980588E+01  0.23523504134E+02  0.00000000000E+00 0.  1.
<mgrwt>
<rscale>  0 0.77660014E+02</rscale>
<asrwt>0</asrwt>
<pdfrwt beam="1">  1        2 0.61948293E-02 0.77660014E+02</pdfrwt>
<pdfrwt beam="2">  1       -1 0.57607480E-02 0.77660014E+02</pdfrwt>
<totfact> 0.15492296E+05</totfact>
</mgrwt>
</event>
<event>
 8    1  0.1520917E-017  0.7957119E+02  0.7818608E-02  0.1330273E+00
          2   -1    0    0  501    0  0.00000000000E+00  0.00000000000E+00  0.34169955284E+03  0.34169955284E+03  0.25500000000E-02 0. -1.
         -1   -1    0    0    0  501 -0.00000000000E+00 -0.00000000000E+00 -0.46324120529E+01  0.46324147946E+01  0.50400000000E-02 0.  1.
         24    2    1    2    0    0  0.71054273576E-14 -0.17763568394E-14  0.33706714078E+03  0.34633196764E+03  0.79571190853E+02 0.  0.
         66    2    3    3    0    0 -0.38379512553E+02  0.10167094813E+02  0.17790537130E+03  0.18229283563E+03  0.19999961953E+01 0.  0.
        -13    1    3    3    0    0  0.38379512553E+02 -0.10167094813E+02  0.15916176948E+03  0.16403913201E+03  0.10566000000E+00 0.  1.
         13    1    4    4    0    0 -0.11119310503E+02  0.31698463418E+01  0.49523558611E+02  0.50855491477E+02  0.10566000000E+00 0. -1.
        -13    1    4    4    0    0 -0.97890922699E+01  0.26097044608E+01  0.49204105845E+02  0.50236362138E+02  0.10566000000E+00 0.  1.
        -14    1    4    4    0    0 -0.17471109780E+02  0.43875440099E+01  0.79177706844E+02  0.81200982017E+02  0.00000000000E+00 0.  1.
<mgrwt>
<rscale>  0 0.79571191E+02</rscale>
<asrwt>0</asrwt>
<pdfrwt beam="1">  1        2 0.52569178E-01 0.79571191E+02</pdfrwt>
<pdfrwt beam="2">  1       -1 0.71267878E-03 0.79571191E+02</pdfrwt>
<totfact> 0.27097639E+05</totfact>
</mgrwt>
</event>
<event>
 8    1  0.1520917E-017  0.8415518E+02  0.7818608E-02  0.1317657E+00
          2   -1    0    0  501    0  0.00000000000E+00  0.00000000000E+00  0.10556058993E+02  0.10556059301E+02  0.25500000000E-02 0. -1.
         -1   -1    0    0    0  501 -0.00000000000E+00 -0.00000000000E+00 -0.16772579277E+03  0.16772579285E+03  0.50400000000E-02 0.  1.
         24    2    1    2    0    0 -0.35527136788E-14  0.71054273576E-14 -0.15716973378E+03  0.17828185215E+03  0.84155175654E+02 0.  0.
         66    2    3    3    0    0  0.23966314922E+02  0.33305168176E+02 -0.59109124608E+02  0.71982686050E+02  0.20000002261E+01 0.  0.
        -13    1    3    3    0    0 -0.23966314922E+02 -0.33305168176E+02 -0.98060609173E+02  0.10629916610E+03  0.10566000000E+00 0.  1.
         13    1    4    4    0    0  0.11395293834E+00  0.24235726436E+00 -0.31294653076E+00  0.42523156334E+00  0.10566000000E+00 0.  1.
        -13    1    4    4    0    0  0.31844723793E+01  0.38010995945E+01 -0.73298583587E+01  0.88502661009E+01  0.10566000000E+00 0.  1.
         14    1    4    4    0    0  0.20667889605E+02  0.29261711317E+02 -0.51466319718E+02  0.62707188386E+02  0.00000000000E+00 0. -1.
<mgrwt>
<rscale>  0 0.84155176E+02</rscale>
<asrwt>0</asrwt>
<pdfrwt beam="1">  1        2 0.16240092E-02 0.84155176E+02</pdfrwt>
<pdfrwt beam="2">  1       -1 0.25803966E-01 0.84155176E+02</pdfrwt>
<totfact> 0.92125380E+04</totfact>
</mgrwt>
</event>
<event>
 8    1  0.1520917E-017  0.7923310E+02  0.7818608E-02  0.1331242E+00
          2   -1    0    0  501    0  0.00000000000E+00  0.00000000000E+00  0.67445617290E+03  0.67445617290E+03  0.25500000000E-02 0. -1.
         -1   -1    0    0    0  501 -0.00000000000E+00 -0.00000000000E+00 -0.23270146198E+01  0.23270200778E+01  0.50400000000E-02 0.  1.
         24    2    1    2    0    0  0.88817841970E-15  0.35527136788E-14  0.67212915828E+03  0.67678319298E+03  0.79233104782E+02 0.  0.
         66    2    3    3    0    0 -0.41031141889E+01 -0.17949742503E+02  0.63565578763E+03  0.63592555315E+03  0.20000003206E+01 0.  0.
        -13    1    3    3    0    0  0.41031141889E+01  0.17949742503E+02  0.36473370649E+02  0.40857639830E+02  0.10566000000E+00 0.  1.
         13    1    4    4    0    0 -0.16770947243E+01 -0.44771294166E+01  0.17078008015E+03  0.17084702009E+03  0.10566000000E+00 0. -1.
        -13    1    4    4    0    0 -0.97447032433E+00 -0.42970250250E+01  0.16591868697E+03  0.16597721490E+03  0.10566000000E+00 0.  1.
         14    1    4    4    0    0 -0.14515491402E+01 -0.91755880610E+01  0.29895702051E+03  0.29910131816E+03  0.00000000000E+00 0. -1.
<mgrwt>
<rscale>  0 0.79233105E+02</rscale>
<asrwt>0</asrwt>
<pdfrwt beam="1">  1        2 0.10376264E+00 0.79233105E+02</pdfrwt>
<pdfrwt beam="2">  1       -1 0.35800215E-03 0.79233105E+02</pdfrwt>
<totfact> 0.34000666E+05</totfact>
</mgrwt>
</event>
<event>
 8    1  0.1520917E-017  0.8171641E+02  0.7818608E-02  0.1324250E+00
         -1   -1    0    0    0  501 -0.00000000000E+00  0.00000000000E+00  0.54276812641E+01  0.54276836041E+01  0.50400000000E-02 0.  1.
          2   -1    0    0  501    0  0.00000000000E+00 -0.00000000000E+00 -0.30757011452E+03  0.30757011453E+03  0.25500000000E-02 0. -1.
         24    2    1    2    0    0  0.00000000000E+00 -0.35527136788E-14 -0.30214243326E+03  0.31299779814E+03  0.81716410001E+02 0.  0.
         66    2    3    3    0    0 -0.32726432213E+02  0.16418258856E+02 -0.81917922778E+02  0.89750346261E+02  0.19999980646E+01 0.  0.
        -13    1    3    3    0    0  0.32726432213E+02 -0.16418258856E+02 -0.22022451048E+03  0.22324745188E+03  0.10566000000E+00 0.  1.
         13    1    4    4    0    0 -0.41146634611E+01  0.26031034958E+01 -0.11847255522E+02  0.12809185401E+02  0.10566000000E+00 0.  1.
        -13    1    4    4    0    0 -0.50103878470E+01  0.24323865967E+01 -0.12938681875E+02  0.14086913915E+02  0.10566000000E+00 0. -1.
        -14    1    4    4    0    0 -0.23601380905E+02  0.11382768764E+02 -0.57131985381E+02  0.62854246945E+02  0.00000000000E+00 0.  1.
<mgrwt>
<rscale>  0 0.81716410E+02</rscale>
<asrwt>0</asrwt>
<pdfrwt beam="1">  1        2 0.47318466E-01 0.81716410E+02</pdfrwt>
<pdfrwt beam="2">  1       -1 0.83502831E-03 0.81716410E+02</pdfrwt>
<totfact> 0.24331811E+05</totfact>
</mgrwt>
</event>
<event>
 8    1  0.1520917E-017  0.8060186E+02  0.7818608E-02  0.1327352E+00
          2   -1    0    0  501    0  0.00000000000E+00  0.00000000000E+00  0.22083877265E+03  0.22083877266E+03  0.25500000000E-02 0. -1.
         -1   -1    0    0    0  501 -0.00000000000E+00 -0.00000000000E+00 -0.73545268570E+01  0.73545285839E+01  0.50400000000E-02 0.  1.
         24    2    1    2    0    0  0.35527136788E-14  0.00000000000E+00  0.21348424579E+03  0.22819330125E+03  0.80601858123E+02 0.  0.
         66    2    3    3    0    0  0.31237180288E+02  0.24842511902E+02  0.12211876607E+03  0.12849087460E+03  0.19999999571E+01 0.  0.
        -13    1    3    3    0    0 -0.31237180288E+02 -0.24842511902E+02  0.91365479720E+02  0.99702426642E+02  0.10566000000E+00 0.  1.
         13    1    4    4    0    0  0.18684930818E+02  0.14445896313E+02  0.70701980987E+02  0.74542550530E+02  0.10566000000E+00 0. -1.
        -13    1    4    4    0    0  0.70210639133E+01  0.55262570637E+01  0.29699811858E+02  0.31014913253E+02  0.10566000000E+00 0.  1.
        -14    1    4    4    0    0  0.55311855572E+01  0.48703585250E+01  0.21716973227E+02  0.22933410822E+02  0.00000000000E+00 0.  1.
<mgrwt>
<rscale>  0 0.80601858E+02</rscale>
<asrwt>0</asrwt>
<pdfrwt beam="1">  1        2 0.33975186E-01 0.80601858E+02</pdfrwt>
<pdfrwt beam="2">  1       -1 0.11314661E-02 0.80601858E+02</pdfrwt>
<totfact> 0.22391222E+05</totfact>
</mgrwt>
</event>
<event>
 8    1  0.1520917E-017  0.7960625E+02  0.7818608E-02  0.1330173E+00
         -1   -1    0    0    0  501 -0.00000000000E+00  0.00000000000E+00  0.19082019497E+02  0.19082020163E+02  0.50400000000E-02 0.  1.
          2   -1    0    0  501    0  0.00000000000E+00 -0.00000000000E+00 -0.83025205647E+02  0.83025205686E+02  0.25500000000E-02 0. -1.
         24    2    1    2    0    0  0.00000000000E+00  0.00000000000E+00 -0.63943186149E+02  0.10210722585E+03  0.79606246712E+02 0.  0.
         66    2    3    3    0    0 -0.22403140533E+01 -0.12346939985E+02 -0.80407726043E+02  0.81405579247E+02  0.19999977491E+01 0.  0.
        -13    1    3    3    0    0  0.22403140533E+01  0.12346939985E+02  0.16464539894E+02  0.20701646602E+02  0.10566000000E+00 0.  1.
         13    1    4    4    0    0 -0.85843371402E+00 -0.84471863507E+01 -0.52551181787E+02  0.53232788175E+02  0.10566000000E+00 0. -1.
        -13    1    4    4    0    0 -0.48983839809E+00 -0.18542620707E+01 -0.15219662488E+02  0.15340388514E+02  0.10566000000E+00 0.  1.
         14    1    4    4    0    0 -0.89204194122E+00 -0.20454915641E+01 -0.12636881769E+02  0.12832402558E+02  0.00000000000E+00 0. -1.
<mgrwt>
<rscale>  0 0.79606247E+02</rscale>
<asrwt>0</asrwt>
<pdfrwt beam="1">  1        2 0.12773108E-01 0.79606247E+02</pdfrwt>
<pdfrwt beam="2">  1       -1 0.29356954E-02 0.79606247E+02</pdfrwt>
<totfact> 0.17082152E+05</totfact>
</mgrwt>
</event>
<event>
 8    1  0.1520917E-017  0.7817536E+02  0.7818608E-02  0.1334311E+00
          2   -1    0    0  501    0  0.00000000000E+00  0.00000000000E+00  0.57741627571E+01  0.57741633202E+01  0.25500000000E-02 0. -1.
         -1   -1    0    0    0  501 -0.00000000000E+00 -0.00000000000E+00 -0.26460055808E+03  0.26460055813E+03  0.50400000000E-02 0.  1.
         24    2    1    2    0    0  0.00000000000E+00  0.00000000000E+00 -0.25882639532E+03  0.27037472145E+03  0.78175361095E+02 0.  0.
         66    2    3    3    0    0  0.27064926285E+02 -0.24786168871E+02 -0.83228110160E+02  0.90982321057E+02  0.20000054778E+01 0.  0.
        -13    1    3    3    0    0 -0.27064926285E+02  0.24786168871E+02 -0.17559828516E+03  0.17939240039E+03  0.10566000000E+00 0.  1.
         13    1    4    4    0    0  0.98921825336E+01 -0.96553891925E+01 -0.29724608605E+02  0.32781783608E+02  0.10566000000E+00 0. -1.
        -13    1    4    4    0    0  0.55285090480E+00 -0.67318575145E+00 -0.20876145857E+01  0.22645356859E+01  0.10566000000E+00 0. -1.
         14    1    4    4    0    0  0.16619892847E+02 -0.14457593927E+02 -0.51415886970E+02  0.55936001763E+02  0.00000000000E+00 0. -1.
<mgrwt>
<rscale>  0 0.78175361E+02</rscale>
<asrwt>0</asrwt>
<pdfrwt beam="1">  1        2 0.88833298E-03 0.78175361E+02</pdfrwt>
<pdfrwt beam="2">  1       -1 0.40707769E-01 0.78175361E+02</pdfrwt>
<totfact> 0.96246308E+04</totfact>
</mgrwt>
</event>
<event>
 8    1  0.1520917E-017  0.7909838E+02  0.7818608E-02  0.1331630E+00
          2   -1    0    0  501    0  0.00000000000E+00  0.00000000000E+00  0.87148892344E+03  0.87148892344E+03  0.25500000000E-02 0. -1.
         -1   -1    0    0    0  501 -0.00000000000E+00 -0.00000000000E+00 -0.17947852732E+01  0.17947923497E+01  0.50400000000E-02 0.  1.
         24    2    1    2    0    0  0.00000000000E+00  0.00000000000E+00  0.86969413817E+03  0.87328371579E+03  0.79098383727E+02 0.  0.
         66    2    3    3    0    0  0.25775098816E+02  0.10363158253E+02  0.74551343856E+03  0.74603353667E+03  0.19999987917E+01 0.  0.
        -13    1    3    3    0    0 -0.25775098816E+02 -0.10363158253E+02  0.12418069960E+03  0.12725017912E+03  0.10566000000E+00 0.  1.
         13    1    4    4    0    0  0.12714109570E+02  0.52663631213E+01  0.38663354671E+03  0.38687839662E+03  0.10566000000E+00 0. -1.
        -13    1    4    4    0    0  0.49374624827E+01  0.22652317360E+01  0.12922436341E+03  0.12933853669E+03  0.10566000000E+00 0.  1.
         14    1    4    4    0    0  0.81235267634E+01  0.28315633961E+01  0.22965552844E+03  0.22981660337E+03  0.00000000000E+00 0. -1.
<mgrwt>
<rscale>  0 0.79098384E+02</rscale>
<asrwt>0</asrwt>
<pdfrwt beam="1">  1        2 0.13407549E+00 0.79098384E+02</pdfrwt>
<pdfrwt beam="2">  1       -1 0.27612080E-03 0.79098384E+02</pdfrwt>
<totfact> 0.35851908E+05</totfact>
</mgrwt>
</event>
<event>
 8    1  0.1520917E-017  0.7722063E+02  0.7818608E-02  0.1337129E+00
         -1   -1    0    0    0  501 -0.00000000000E+00  0.00000000000E+00  0.10446571826E+02  0.10446573042E+02  0.50400000000E-02 0.  1.
          2   -1    0    0  501    0  0.00000000000E+00 -0.00000000000E+00 -0.14270291384E+03  0.14270291386E+03  0.25500000000E-02 0. -1.
         24    2    1    2    0    0  0.71054273576E-14  0.88817841970E-15 -0.13225634201E+03  0.15314948690E+03  0.77220627660E+02 0.  0.
         66    2    3    3    0    0  0.33552011968E+02  0.68308683045E+01 -0.10144750987E+03  0.10708872734E+03  0.19999993471E+01 0.  0.
        -13    1    3    3    0    0 -0.33552011968E+02 -0.68308683045E+01 -0.30808832146E+02  0.46060759558E+02  0.10566000000E+00 0.  1.
         13    1    4    4    0    0  0.30933347972E+01  0.10223786891E+01 -0.91427535425E+01  0.97064455248E+01  0.10566000000E+00 0. -1.
        -13    1    4    4    0    0  0.46627129728E+00 -0.13725607489E-01 -0.16252566847E+01  0.16941725537E+01  0.10566000000E+00 0.  1.
         14    1    4    4    0    0  0.29992405873E+02  0.58222152229E+01 -0.90679499639E+02  0.95688109266E+02  0.00000000000E+00 0. -1.
<mgrwt>
<rscale>  0 0.77220628E+02</rscale>
<asrwt>0</asrwt>
<pdfrwt beam="1">  1        2 0.21954293E-01 0.77220628E+02</pdfrwt>
<pdfrwt beam="2">  1       -1 0.16071651E-02 0.77220628E+02</pdfrwt>
<totfact> 0.21650429E+05</totfact>
</mgrwt>
</event>
<event>
 8    1  0.1520917E-017  0.8150758E+02  0.7818608E-02  0.1324827E+00
          2   -1    0    0  501    0  0.00000000000E+00  0.00000000000E+00  0.82553489876E+02  0.82553489915E+02  0.25500000000E-02 0. -1.
         -1   -1    0    0    0  501 -0.00000000000E+00 -0.00000000000E+00 -0.20118728613E+02  0.20118729244E+02  0.50400000000E-02 0.  1.
         24    2    1    2    0    0  0.00000000000E+00 -0.17763568394E-14  0.62434761263E+02  0.10267221916E+03  0.81507577397E+02 0.  0.
         66    2    3    3    0    0  0.20014799546E+01 -0.10088970165E+02  0.80878311218E+02  0.81554242457E+02  0.19999990691E+01 0.  0.
        -13    1    3    3    0    0 -0.20014799546E+01  0.10088970165E+02 -0.18443549956E+02  0.21117976702E+02  0.10566000000E+00 0.  1.
         13    1    4    4    0    0  0.11878129020E+01 -0.61154038612E+01  0.45649439309E+02  0.46072676688E+02  0.10566000000E+00 0. -1.
        -13    1    4    4    0    0  0.54009850594E+00 -0.50521448479E+00  0.59569272534E+01  0.60035901268E+01  0.10566000000E+00 0.  1.
        -14    1    4    4    0    0  0.27356854671E+00 -0.34683518188E+01  0.29271944656E+02  0.29477975643E+02  0.00000000000E+00 0.  1.
<mgrwt>
<rscale>  0 0.81507577E+02</rscale>
<asrwt>0</asrwt>
<pdfrwt beam="1">  1        2 0.12700537E-01 0.81507577E+02</pdfrwt>
<pdfrwt beam="2">  1       -1 0.30951891E-02 0.81507577E+02</pdfrwt>
<totfact> 0.16005388E+05</totfact>
</mgrwt>
</event>
<event>
 8    1  0.1520917E-017  0.7485344E+02  0.7818608E-02  0.1344325E+00
          2   -1    0    0  501    0  0.00000000000E+00  0.00000000000E+00  0.49372205221E+02  0.49372205287E+02  0.25500000000E-02 0. -1.
         -1   -1    0    0    0  501 -0.00000000000E+00 -0.00000000000E+00 -0.28371418281E+02  0.28371418729E+02  0.50400000000E-02 0.  1.
         24    2    1    2    0    0 -0.88817841970E-15  0.17763568394E-14  0.21000786940E+02  0.77743624016E+02  0.74853443628E+02 0.  0.
         66    2    3    3    0    0  0.46614000038E+01 -0.12610736688E+02  0.46755180743E+02  0.48690925449E+02  0.19999912353E+01 0.  0.
        -13    1    3    3    0    0 -0.46614000038E+01  0.12610736688E+02 -0.25754393803E+02  0.29052698567E+02  0.10566000000E+00 0.  1.
         13    1    4    4    0    0  0.68783103677E+00 -0.91558189172E+00  0.57668074388E+01  0.58803600067E+01  0.10566000000E+00 0. -1.
        -13    1    4    4    0    0  0.26385053872E+01 -0.73338549841E+01  0.25561025865E+02  0.26723105113E+02  0.10566000000E+00 0.  1.
         14    1    4    4    0    0  0.13350635798E+01 -0.43612998124E+01  0.15427347440E+02  0.16087460329E+02  0.00000000000E+00 0. -1.
<mgrwt>
<rscale>  0 0.74853444E+02</rscale>
<asrwt>0</asrwt>
<pdfrwt beam="1">  1        2 0.75957238E-02 0.74853444E+02</pdfrwt>
<pdfrwt beam="2">  1       -1 0.43648337E-02 0.74853444E+02</pdfrwt>
<totfact> 0.17864683E+05</totfact>
</mgrwt>
</event>
<event>
 8    1  0.1520917E-017  0.8107989E+02  0.7818608E-02  0.1326015E+00
          2   -1    0    0  501    0  0.00000000000E+00  0.00000000000E+00  0.18245217863E+03  0.18245217865E+03  0.25500000000E-02 0. -1.
         -1   -1    0    0    0  501 -0.00000000000E+00 -0.00000000000E+00 -0.90077675454E+01  0.90077689554E+01  0.50400000000E-02 0.  1.
         24    2    1    2    0    0  0.00000000000E+00  0.00000000000E+00  0.17344441109E+03  0.19145994761E+03  0.81079885298E+02 0.  0.
         66    2    3    3    0    0  0.20869951198E+02  0.33288356163E+02  0.63420793662E+02  0.74631538927E+02  0.20000037163E+01 0.  0.
        -13    1    3    3    0    0 -0.20869951198E+02 -0.33288356163E+02  0.11002361743E+03  0.11682840868E+03  0.10566000000E+00 0.  1.
         13    1    4    4    0    0  0.94864683476E+01  0.15864303760E+02  0.29774108857E+02  0.35045369705E+02  0.10566000000E+00 0.  1.
        -13    1    4    4    0    0  0.34844629194E+00  0.10295268646E+01  0.18662595029E+01  0.21622740231E+01  0.10566000000E+00 0. -1.
         14    1    4    4    0    0  0.11035036559E+02  0.16394525538E+02  0.31780425302E+02  0.37423895198E+02  0.00000000000E+00 0. -1.
<mgrwt>
<rscale>  0 0.81079885E+02</rscale>
<asrwt>0</asrwt>
<pdfrwt beam="1">  1        2 0.28069568E-01 0.81079885E+02</pdfrwt>
<pdfrwt beam="2">  1       -1 0.13858104E-02 0.81079885E+02</pdfrwt>
<totfact> 0.20627891E+05</totfact>
</mgrwt>
</event>
<event>
 8    1  0.1520917E-017  0.8154536E+02  0.7818608E-02  0.1324722E+00
         -1   -1    0    0    0  501 -0.00000000000E+00  0.00000000000E+00  0.58404038859E+01  0.58404060605E+01  0.50400000000E-02 0.  1.
          2   -1    0    0  501    0  0.00000000000E+00 -0.00000000000E+00 -0.28463974340E+03  0.28463974341E+03  0.25500000000E-02 0. -1.
         24    2    1    2    0    0  0.00000000000E+00  0.17763568394E-14 -0.27879933952E+03  0.29048014947E+03  0.81545358689E+02 0.  0.
         66    2    3    3    0    0  0.31439169827E+02  0.10208228785E+02 -0.22436343851E+03  0.22679413989E+03  0.20000034763E+01 0.  0.
        -13    1    3    3    0    0 -0.31439169827E+02 -0.10208228785E+02 -0.54435901003E+02  0.63686009582E+02  0.10566000000E+00 0.  1.
         13    1    4    4    0    0  0.78606920724E+01  0.25603447092E+01 -0.51676306218E+02  0.52333523035E+02  0.10566000000E+00 0. -1.
        -13    1    4    4    0    0  0.89968383666E+01  0.33008006789E+01 -0.64018540996E+02  0.64731932932E+02  0.10566000000E+00 0.  1.
        -14    1    4    4    0    0  0.14581639388E+02  0.43470833968E+01 -0.10866859130E+03  0.10972868392E+03  0.00000000000E+00 0.  1.
<mgrwt>
<rscale>  0 0.81545359E+02</rscale>
<asrwt>0</asrwt>
<pdfrwt beam="1">  1        2 0.43790719E-01 0.81545359E+02</pdfrwt>
<pdfrwt beam="2">  1       -1 0.89852407E-03 0.81545359E+02</pdfrwt>
<totfact> 0.23787875E+05</totfact>
</mgrwt>
</event>
<event>
 8    1  0.1520917E-017  0.7959175E+02  0.7818608E-02  0.1330214E+00
         -1   -1    0    0    0  501 -0.00000000000E+00  0.00000000000E+00  0.23464276507E+02  0.23464277048E+02  0.50400000000E-02 0.  1.
          2   -1    0    0  501    0  0.00000000000E+00 -0.00000000000E+00 -0.67494586502E+02  0.67494586550E+02  0.25500000000E-02 0. -1.
         24    2    1    2    0    0  0.88817841970E-15  0.00000000000E+00 -0.44030309995E+02  0.90958863598E+02  0.79591750004E+02 0.  0.
         66    2    3    3    0    0 -0.73859158980E+01 -0.21753788034E+02 -0.59129740332E+02  0.63467355672E+02  0.19999992139E+01 0.  0.
        -13    1    3    3    0    0  0.73859158980E+01  0.21753788034E+02  0.15099430337E+02  0.27491507925E+02  0.10566000000E+00 0.  1.
         13    1    4    4    0    0 -0.57801384392E+01 -0.16048667716E+02 -0.43182965639E+02  0.46430048689E+02  0.10566000000E+00 0. -1.
        -13    1    4    4    0    0 -0.80428708695E+00 -0.41861469208E+01 -0.10786213553E+02  0.11598459838E+02  0.10566000000E+00 0.  1.
        -14    1    4    4    0    0 -0.80149037187E+00 -0.15189733971E+01 -0.51605611397E+01  0.54388471457E+01  0.00000000000E+00 0.  1.
<mgrwt>
<rscale>  0 0.79591750E+02</rscale>
<asrwt>0</asrwt>
<pdfrwt beam="1">  1        2 0.10383782E-01 0.79591750E+02</pdfrwt>
<pdfrwt beam="2">  1       -1 0.36098888E-02 0.79591750E+02</pdfrwt>
<totfact> 0.16227755E+05</totfact>
</mgrwt>
</event>
<event>
 8    1  0.1520917E-017  0.8566365E+02  0.7818608E-02  0.1313706E+00
         -1   -1    0    0    0  501 -0.00000000000E+00  0.00000000000E+00  0.13131898649E+02  0.13131899616E+02  0.50400000000E-02 0.  1.
          2   -1    0    0  501    0  0.00000000000E+00 -0.00000000000E+00 -0.13970295343E+03  0.13970295345E+03  0.25500000000E-02 0. -1.
         24    2    1    2    0    0  0.00000000000E+00  0.00000000000E+00 -0.12657105478E+03  0.15283485307E+03  0.85663646923E+02 0.  0.
         66    2    3    3    0    0 -0.27910553291E+01  0.33596707174E+02 -0.11038949838E+03  0.11543989814E+03  0.20000016122E+01 0.  0.
        -13    1    3    3    0    0  0.27910553291E+01 -0.33596707174E+02 -0.16181556400E+02  0.37394954932E+02  0.10566000000E+00 0.  1.
         13    1    4    4    0    0 -0.13538618499E+01  0.21281253973E+02 -0.70401898461E+02  0.73560608912E+02  0.10566000000E+00 0. -1.
        -13    1    4    4    0    0 -0.15824270182E+01  0.10409396485E+02 -0.34191224456E+02  0.35775838275E+02  0.10566000000E+00 0.  1.
        -14    1    4    4    0    0  0.14523353900E+00  0.19060567155E+01 -0.57963754629E+01  0.61034509493E+01  0.00000000000E+00 0.  1.
<mgrwt>
<rscale>  0 0.85663647E+02</rscale>
<asrwt>0</asrwt>
<pdfrwt beam="1">  1        2 0.21492761E-01 0.85663647E+02</pdfrwt>
<pdfrwt beam="2">  1       -1 0.20202923E-02 0.85663647E+02</pdfrwt>
<totfact> 0.16315210E+05</totfact>
</mgrwt>
</event>
<event>
 8    1  0.1520917E-017  0.8103557E+02  0.7818608E-02  0.1326138E+00
         -1   -1    0    0    0  501 -0.00000000000E+00  0.00000000000E+00  0.23611026232E+01  0.23611080024E+01  0.50400000000E-02 0.  1.
          2   -1    0    0  501    0  0.00000000000E+00 -0.00000000000E+00 -0.69530602900E+03  0.69530602901E+03  0.25500000000E-02 0. -1.
         24    2    1    2    0    0  0.35527136788E-14  0.71054273576E-14 -0.69294492638E+03  0.69766713701E+03  0.81035566687E+02 0.  0.
         66    2    3    3    0    0 -0.12035645216E+02 -0.32076282409E+02 -0.53252246060E+03  0.53362713171E+03  0.20000002815E+01 0.  0.
        -13    1    3    3    0    0  0.12035645216E+02  0.32076282409E+02 -0.16042246578E+03  0.16404000530E+03  0.10566000000E+00 0.  1.
         13    1    4    4    0    0 -0.78741497499E+01 -0.21742656280E+02 -0.37043315282E+03  0.37115424988E+03  0.10566000000E+00 0. -1.
        -13    1    4    4    0    0 -0.24863513128E+01 -0.63354256417E+01 -0.10322155074E+03  0.10344573100E+03  0.10566000000E+00 0.  1.
        -14    1    4    4    0    0 -0.16751441535E+01 -0.39982004880E+01 -0.58867757043E+02  0.59027150824E+02  0.00000000000E+00 0.  1.
<mgrwt>
<rscale>  0 0.81035567E+02</rscale>
<asrwt>0</asrwt>
<pdfrwt beam="1">  1        2 0.10696999E+00 0.81035567E+02</pdfrwt>
<pdfrwt beam="2">  1       -1 0.36324753E-03 0.81035567E+02</pdfrwt>
<totfact> 0.32300994E+05</totfact>
</mgrwt>
</event>
<event>
 8    1  0.1520917E-017  0.7981655E+02  0.7818608E-02  0.1329573E+00
          2   -1    0    0  501    0  0.00000000000E+00  0.00000000000E+00  0.37519188782E+02  0.37519188868E+02  0.25500000000E-02 0. -1.
         -1   -1    0    0    0  501 -0.00000000000E+00 -0.00000000000E+00 -0.42449489351E+02  0.42449489650E+02  0.50400000000E-02 0.  1.
         24    2    1    2    0    0  0.00000000000E+00  0.00000000000E+00 -0.49303005692E+01  0.79968678518E+02  0.79816550165E+02 0.  0.
         66    2    3    3    0    0  0.38930126485E+02  0.86023031331E+01 -0.14105986173E+01  0.39944263055E+02  0.19999987850E+01 0.  0.
        -13    1    3    3    0    0 -0.38930126485E+02 -0.86023031331E+01 -0.35197019519E+01  0.40024415464E+02  0.10566000000E+00 0.  1.
         13    1    4    4    0    0  0.29390914467E+02  0.65923044308E+01 -0.13942890201E+01  0.30153599069E+02  0.10566000000E+00 0. -1.
        -13    1    4    4    0    0  0.83276864491E+01  0.19449648770E+01 -0.24532704842E+00  0.85559686397E+01  0.10566000000E+00 0.  1.
        -14    1    4    4    0    0  0.12115255692E+01  0.65033825333E-01  0.22901745123E+00  0.12346953455E+01  0.00000000000E+00 0.  1.
<mgrwt>
<rscale>  0 0.79816550E+02</rscale>
<asrwt>0</asrwt>
<pdfrwt beam="1">  1        2 0.57721829E-02 0.79816550E+02</pdfrwt>
<pdfrwt beam="2">  1       -1 0.65306907E-02 0.79816550E+02</pdfrwt>
<totfact> 0.14159829E+05</totfact>
</mgrwt>
</event>
<event>
 8    1  0.1520917E-017  0.7700603E+02  0.7818608E-02  0.1337769E+00
          2   -1    0    0  501    0  0.00000000000E+00  0.00000000000E+00  0.29458347327E+03  0.29458347328E+03  0.25500000000E-02 0. -1.
         -1   -1    0    0    0  501 -0.00000000000E+00 -0.00000000000E+00 -0.50324673637E+01  0.50324698875E+01  0.50400000000E-02 0.  1.
         24    2    1    2    0    0  0.00000000000E+00  0.44408920985E-15  0.28955100590E+03  0.29961594316E+03  0.77006028201E+02 0.  0.
         66    2    3    3    0    0 -0.28449641710E+02 -0.34625000175E+01  0.24476193758E+03  0.24644223890E+03  0.20000018238E+01 0.  0.
        -13    1    3    3    0    0  0.28449641710E+02  0.34625000175E+01  0.44789068322E+02  0.53173704262E+02  0.10566000000E+00 0.  1.
         13    1    4    4    0    0 -0.16584562517E+02 -0.13623335710E+01  0.14048506293E+03  0.14146719669E+03  0.10566000000E+00 0. -1.
        -13    1    4    4    0    0 -0.63170158569E+01 -0.15492470132E+01  0.54435529505E+02  0.54822831851E+02  0.10566000000E+00 0.  1.
         14    1    4    4    0    0 -0.55480633363E+01 -0.55091943326E+00  0.49841345141E+02  0.50152210365E+02  0.00000000000E+00 0. -1.
<mgrwt>
<rscale>  0 0.77006028E+02</rscale>
<asrwt>0</asrwt>
<pdfrwt beam="1">  1        2 0.45320534E-01 0.77006028E+02</pdfrwt>
<pdfrwt beam="2">  1       -1 0.77422595E-03 0.77006028E+02</pdfrwt>
<totfact> 0.27985930E+05</totfact>
</mgrwt>
</event>
<event>
 8    1  0.1520917E-017  0.7922079E+02  0.7818608E-02  0.1331277E+00
          2   -1    0    0  501    0  0.00000000000E+00  0.00000000000E+00  0.13881270858E+03  0.13881270860E+03  0.25500000000E-02 0. -1.
         -1   -1    0    0    0  501 -0.00000000000E+00 -0.00000000000E+00 -0.11302879748E+02  0.11302880871E+02  0.50400000000E-02 0.  1.
         24    2    1    2    0    0 -0.17763568394E-14 -0.17763568394E-14  0.12750982883E+03  0.15011558947E+03  0.79220791175E+02 0.  0.
         66    2    3    3    0    0 -0.81731965919E+01 -0.90609866721E+01  0.13515239791E+03  0.13571688647E+03  0.19999976986E+01 0.  0.
        -13    1    3    3    0    0  0.81731965919E+01  0.90609866721E+01 -0.76425690782E+01  0.14398703002E+02  0.10566000000E+00 0.  1.
         13    1    4    4    0    0 -0.45189262021E+01 -0.61132449549E+01  0.77766183044E+02  0.78136949308E+02  0.10566000000E+00 0. -1.
        -13    1    4    4    0    0 -0.11000722322E+01 -0.11546442296E+01  0.19702350385E+02  0.19767072038E+02  0.10566000000E+00 0. -1.
        -14    1    4    4    0    0 -0.25541981577E+01 -0.17930974876E+01  0.37683864477E+02  0.37812865122E+02  0.00000000000E+00 0.  1.
<mgrwt>
<rscale>  0 0.79220791E+02</rscale>
<asrwt>0</asrwt>
<pdfrwt beam="1">  1        2 0.21355802E-01 0.79220791E+02</pdfrwt>
<pdfrwt beam="2">  1       -1 0.17389046E-02 0.79220791E+02</pdfrwt>
<totfact> 0.20056368E+05</totfact>
</mgrwt>
</event>
<event>
 8    1  0.1520917E-017  0.7468899E+02  0.7818608E-02  0.1344837E+00
         -1   -1    0    0    0  501 -0.00000000000E+00  0.00000000000E+00  0.39466763550E+02  0.39466763872E+02  0.50400000000E-02 0.  1.
          2   -1    0    0  501    0  0.00000000000E+00 -0.00000000000E+00 -0.35336351888E+02  0.35336351980E+02  0.25500000000E-02 0. -1.
         24    2    1    2    0    0  0.17763568394E-14  0.00000000000E+00  0.41304116622E+01  0.74803115852E+02  0.74688994107E+02 0.  0.
         66    2    3    3    0    0  0.95433199862E+01  0.32660243045E+01 -0.33916820748E+02  0.35441396769E+02  0.20000010387E+01 0.  0.
        -13    1    3    3    0    0 -0.95433199862E+01 -0.32660243045E+01  0.38047232410E+02  0.39361719084E+02  0.10566000000E+00 0.  1.
         13    1    4    4    0    0  0.26553419723E+01  0.11112187387E+01 -0.12238963051E+02  0.12573345962E+02  0.10566000000E+00 0. -1.
        -13    1    4    4    0    0  0.69038250769E+01  0.20926366559E+01 -0.21424072443E+02  0.22606281714E+02  0.10566000000E+00 0.  1.
         14    1    4    4    0    0 -0.15847063025E-01  0.62168909993E-01 -0.25378525360E+00  0.26176909237E+00  0.00000000000E+00 0. -1.
<mgrwt>
<rscale>  0 0.74688994E+02</rscale>
<asrwt>0</asrwt>
<pdfrwt beam="1">  1        2 0.54363619E-02 0.74688994E+02</pdfrwt>
<pdfrwt beam="2">  1       -1 0.60718098E-02 0.74688994E+02</pdfrwt>
<totfact> 0.16807480E+05</totfact>
</mgrwt>
</event>
<event>
 8    1  0.1520917E-017  0.8010645E+02  0.7818608E-02  0.1328750E+00
          2   -1    0    0  501    0  0.00000000000E+00  0.00000000000E+00  0.42084205416E+03  0.42084205417E+03  0.25500000000E-02 0. -1.
         -1   -1    0    0    0  501 -0.00000000000E+00 -0.00000000000E+00 -0.38120244726E+01  0.38120278044E+01  0.50400000000E-02 0.  1.
         24    2    1    2    0    0  0.00000000000E+00  0.00000000000E+00  0.41703002969E+03  0.42465408198E+03  0.80106452141E+02 0.  0.
         66    2    3    3    0    0  0.93390923955E+01  0.75088598908E+01  0.41110684977E+03  0.41128632794E+03  0.19999989713E+01 0.  0.
        -13    1    3    3    0    0 -0.93390923955E+01 -0.75088598908E+01  0.59231799200E+01  0.13367754038E+02  0.10566000000E+00 0.  1.
         13    1    4    4    0    0  0.64304024700E+01  0.49100160358E+01  0.26694234033E+03  0.26706494071E+03  0.10566000000E+00 0. -1.
        -13    1    4    4    0    0  0.21032897337E+01  0.24400966710E+01  0.11163595204E+03  0.11168247334E+03  0.10566000000E+00 0.  1.
        -14    1    4    4    0    0  0.80540019179E+00  0.15874718401E+00  0.32528557402E+02  0.32538913885E+02  0.00000000000E+00 0.  1.
<mgrwt>
<rscale>  0 0.80106452E+02</rscale>
<asrwt>0</asrwt>
<pdfrwt beam="1">  1        2 0.64744920E-01 0.80106452E+02</pdfrwt>
<pdfrwt beam="2">  1       -1 0.58646567E-03 0.80106452E+02</pdfrwt>
<totfact> 0.28656249E+05</totfact>
</mgrwt>
</event>
<event>
 8    1  0.1520917E-017  0.8255801E+02  0.7818608E-02  0.1321945E+00
          2   -1    0    0  501    0  0.00000000000E+00  0.00000000000E+00  0.42439655526E+03  0.42439655527E+03  0.25500000000E-02 0. -1.
         -1   -1    0    0    0  501 -0.00000000000E+00 -0.00000000000E+00 -0.40150083625E+01  0.40150115258E+01  0.50400000000E-02 0.  1.
         24    2    1    2    0    0  0.35527136788E-14 -0.88817841970E-15  0.42038154690E+03  0.42841156679E+03  0.82558013484E+02 0.  0.
         66    2    3    3    0    0 -0.24574260533E+02  0.45697533834E+01  0.38062567823E+03  0.38145076203E+03  0.19999991060E+01 0.  0.
        -13    1    3    3    0    0  0.24574260533E+02 -0.45697533834E+01  0.39755868668E+02  0.46960804766E+02  0.10566000000E+00 0.  1.
         13    1    4    4    0    0 -0.18314405464E+02  0.35150104313E+01  0.28196819875E+03  0.28258423349E+03  0.10566000000E+00 0. -1.
        -13    1    4    4    0    0 -0.62438025054E+00  0.17794021113E+00  0.66497194126E+01  0.66821737270E+01  0.10566000000E+00 0. -1.
         14    1    4    4    0    0 -0.56354748188E+01  0.87680274103E+00  0.92007760063E+02  0.92184354808E+02  0.00000000000E+00 0. -1.
<mgrwt>
<rscale>  0 0.82558013E+02</rscale>
<asrwt>0</asrwt>
<pdfrwt beam="1">  1        2 0.65291747E-01 0.82558013E+02</pdfrwt>
<pdfrwt beam="2">  1       -1 0.61769414E-03 0.82558013E+02</pdfrwt>
<totfact> 0.26560965E+05</totfact>
</mgrwt>
</event>
<event>
 8    1  0.1520917E-017  0.8177187E+02  0.7818608E-02  0.1324097E+00
          2   -1    0    0  501    0  0.00000000000E+00  0.00000000000E+00  0.25257778829E+03  0.25257778830E+03  0.25500000000E-02 0. -1.
         -1   -1    0    0    0  501 -0.00000000000E+00 -0.00000000000E+00 -0.66183941174E+01  0.66183960364E+01  0.50400000000E-02 0.  1.
         24    2    1    2    0    0  0.17763568394E-14  0.00000000000E+00  0.24595939417E+03  0.25919618434E+03  0.81771867988E+02 0.  0.
         66    2    3    3    0    0  0.94077373985E+01  0.33606477021E+02  0.19042446174E+03  0.19360624071E+03  0.19999981274E+01 0.  0.
        -13    1    3    3    0    0 -0.94077373985E+01 -0.33606477021E+02  0.55534932427E+02  0.65589943623E+02  0.10566000000E+00 0.  1.
         13    1    4    4    0    0  0.71944395535E+01  0.23259619871E+02  0.13496916417E+03  0.13714757131E+03  0.10566000000E+00 0. -1.
        -13    1    4    4    0    0  0.74144573839E-01  0.65488054246E+00  0.31336478489E+01  0.32039473808E+01  0.10566000000E+00 0.  1.
         14    1    4    4    0    0  0.21391532711E+01  0.96919766079E+01  0.52321649726E+02  0.53254722020E+02  0.00000000000E+00 0. -1.
<mgrwt>
<rscale>  0 0.81771868E+02</rscale>
<asrwt>0</asrwt>
<pdfrwt beam="1">  1        2 0.38858118E-01 0.81771868E+02</pdfrwt>
<pdfrwt beam="2">  1       -1 0.10182147E-02 0.81771868E+02</pdfrwt>
<totfact> 0.22614319E+05</totfact>
</mgrwt>
</event>
<event>
 8    1  0.1520917E-017  0.7977602E+02  0.7818608E-02  0.1329688E+00
          2   -1    0    0  501    0  0.00000000000E+00  0.00000000000E+00  0.40033523069E+02  0.40033523150E+02  0.25500000000E-02 0. -1.
         -1   -1    0    0    0  501 -0.00000000000E+00 -0.00000000000E+00 -0.39743027567E+02  0.39743027887E+02  0.50400000000E-02 0.  1.
         24    2    1    2    0    0  0.00000000000E+00 -0.71054273576E-14  0.29049550140E+00  0.79776551036E+02  0.79776022135E+02 0.  0.
         66    2    3    3    0    0  0.77833548094E+01 -0.37729011275E+02  0.10391848417E+02  0.39950587160E+02  0.19999992547E+01 0.  0.
        -13    1    3    3    0    0 -0.77833548094E+01  0.37729011275E+02 -0.10101352916E+02  0.39825963876E+02  0.10566000000E+00 0.  1.
         13    1    4    4    0    0  0.22995017079E+01 -0.14276197150E+02  0.36680142264E+01  0.14918545692E+02  0.10566000000E+00 0. -1.
        -13    1    4    4    0    0  0.11807504118E+01 -0.35347279104E+01  0.83471716471E+00  0.38205221785E+01  0.10566000000E+00 0.  1.
        -14    1    4    4    0    0  0.43031026897E+01 -0.19918086215E+02  0.58891170264E+01  0.21211519289E+02  0.00000000000E+00 0.  1.
<mgrwt>
<rscale>  0 0.79776022E+02</rscale>
<asrwt>0</asrwt>
<pdfrwt beam="1">  1        2 0.61590035E-02 0.79776022E+02</pdfrwt>
<pdfrwt beam="2">  1       -1 0.61143120E-02 0.79776022E+02</pdfrwt>
<totfact> 0.14368614E+05</totfact>
</mgrwt>
</event>
<event>
 8    1  0.1520917E-017  0.7904816E+02  0.7818608E-02  0.1331775E+00
          2   -1    0    0  501    0  0.00000000000E+00  0.00000000000E+00  0.60295781670E+02  0.60295781724E+02  0.25500000000E-02 0. -1.
         -1   -1    0    0    0  501 -0.00000000000E+00 -0.00000000000E+00 -0.25908163430E+02  0.25908163920E+02  0.50400000000E-02 0.  1.
         24    2    1    2    0    0  0.00000000000E+00  0.00000000000E+00  0.34387618240E+02  0.86203945644E+02  0.79048162258E+02 0.  0.
         66    2    3    3    0    0  0.34609097925E+02 -0.62862036876E+01  0.36799114171E+02  0.50945861568E+02  0.19999978027E+01 0.  0.
        -13    1    3    3    0    0 -0.34609097925E+02  0.62862036876E+01 -0.24114959305E+01  0.35258084075E+02  0.10566000000E+00 0.  1.
         13    1    4    4    0    0  0.27515992235E+02 -0.46322108257E+01  0.29976842735E+02  0.40953747939E+02  0.10566000000E+00 0. -1.
        -13    1    4    4    0    0  0.21627957406E+01 -0.30880510809E+00  0.21726330015E+01  0.30829440808E+01  0.10566000000E+00 0.  1.
         14    1    4    4    0    0  0.49303099492E+01 -0.13451877537E+01  0.46496384338E+01  0.69091695487E+01  0.00000000000E+00 0. -1.
<mgrwt>
<rscale>  0 0.79048162E+02</rscale>
<asrwt>0</asrwt>
<pdfrwt beam="1">  1        2 0.92762741E-02 0.79048162E+02</pdfrwt>
<pdfrwt beam="2">  1       -1 0.39858713E-02 0.79048162E+02</pdfrwt>
<totfact> 0.16099223E+05</totfact>
</mgrwt>
</event>
<event>
 8    1  0.1520917E-017  0.7906761E+02  0.7818608E-02  0.1331718E+00
         -1   -1    0    0    0  501 -0.00000000000E+00  0.00000000000E+00  0.46423967117E+01  0.46423994475E+01  0.50400000000E-02 0.  1.
          2   -1    0    0  501    0  0.00000000000E+00 -0.00000000000E+00 -0.33666259074E+03  0.33666259075E+03  0.25500000000E-02 0. -1.
         24    2    1    2    0    0  0.35527136788E-14  0.00000000000E+00 -0.33202019403E+03  0.34130499020E+03  0.79067610883E+02 0.  0.
         66    2    3    3    0    0  0.25285771384E+02  0.20645258696E+02 -0.26218582287E+03  0.26421771822E+03  0.19999921185E+01 0.  0.
        -13    1    3    3    0    0 -0.25285771384E+02 -0.20645258696E+02 -0.69834371159E+02  0.77087271974E+02  0.10566000000E+00 0.  1.
         13    1    4    4    0    0  0.19777556568E+01  0.20710400720E+01 -0.24791263674E+02  0.24956334727E+02  0.10566000000E+00 0. -1.
        -13    1    4    4    0    0  0.16203558838E+02  0.13262083048E+02 -0.17069472486E+03  0.17197423768E+03  0.10566000000E+00 0.  1.
        -14    1    4    4    0    0  0.71044568898E+01  0.53121355758E+01 -0.66699834331E+02  0.67287145814E+02  0.00000000000E+00 0.  1.
<mgrwt>
<rscale>  0 0.79067611E+02</rscale>
<asrwt>0</asrwt>
<pdfrwt beam="1">  1        2 0.51794226E-01 0.79067611E+02</pdfrwt>
<pdfrwt beam="2">  1       -1 0.71421535E-03 0.79067611E+02</pdfrwt>
<totfact> 0.27405112E+05</totfact>
</mgrwt>
</event>
<event>
 8    1  0.1520917E-017  0.8025367E+02  0.7818608E-02  0.1328333E+00
         -1   -1    0    0    0  501 -0.00000000000E+00  0.00000000000E+00  0.21044111007E+01  0.21044171361E+01  0.50400000000E-02 0.  1.
          2   -1    0    0  501    0  0.00000000000E+00 -0.00000000000E+00 -0.76513602270E+03  0.76513602270E+03  0.25500000000E-02 0. -1.
         24    2    1    2    0    0  0.00000000000E+00  0.00000000000E+00 -0.76303161159E+03  0.76724043984E+03  0.80253674224E+02 0.  0.
         66    2    3    3    0    0 -0.16185426023E+02 -0.64083860277E+01 -0.72712814369E+03  0.72733924188E+03  0.19999998384E+01 0.  0.
        -13    1    3    3    0    0  0.16185426023E+02  0.64083860277E+01 -0.35903467903E+02  0.39901197959E+02  0.10566000000E+00 0.  1.
         13    1    4    4    0    0 -0.11025904349E+02 -0.39426355395E+01 -0.48010623243E+03  0.48024901929E+03  0.10566000000E+00 0. -1.
        -13    1    4    4    0    0 -0.35857357369E+01 -0.18776515139E+01 -0.15443350722E+03  0.15448657674E+03  0.10566000000E+00 0.  1.
         14    1    4    4    0    0 -0.15737859361E+01 -0.58809897431E+00 -0.92588404041E+02  0.92603645853E+02  0.00000000000E+00 0. -1.
<mgrwt>
<rscale>  0 0.80253674E+02</rscale>
<asrwt>0</asrwt>
<pdfrwt beam="1">  1        2 0.11771301E+00 0.80253674E+02</pdfrwt>
<pdfrwt beam="2">  1       -1 0.32375663E-03 0.80253674E+02</pdfrwt>
<totfact> 0.33807566E+05</totfact>
</mgrwt>
</event>
<event>
 8    1  0.1520917E-017  0.7902882E+02  0.7818608E-02  0.1331830E+00
          2   -1    0    0  501    0  0.00000000000E+00  0.00000000000E+00  0.28251972789E+03  0.28251972791E+03  0.25500000000E-02 0. -1.
         -1   -1    0    0    0  501 -0.00000000000E+00 -0.00000000000E+00 -0.55266516521E+01  0.55266539502E+01  0.50400000000E-02 0.  1.
         24    2    1    2    0    0  0.71054273576E-14  0.00000000000E+00  0.27699307624E+03  0.28804638186E+03  0.79028816353E+02 0.  0.
         66    2    3    3    0    0  0.30491201624E+02 -0.22171111415E+02  0.18141938055E+03  0.18530586390E+03  0.19999995367E+01 0.  0.
        -13    1    3    3    0    0 -0.30491201624E+02  0.22171111415E+02  0.95573695690E+02  0.10274051795E+03  0.10566000000E+00 0.  1.
         13    1    4    4    0    0  0.13768513727E+02 -0.10470460877E+02  0.79678749176E+02  0.81534757960E+02  0.10566000000E+00 0. -1.
        -13    1    4    4    0    0  0.55911781021E+01 -0.34507736968E+01  0.32238063918E+02  0.32900958054E+02  0.10566000000E+00 0.  1.
        -14    1    4    4    0    0  0.11131509795E+02 -0.82498768412E+01  0.69502567458E+02  0.70870147886E+02  0.00000000000E+00 0.  1.
<mgrwt>
<rscale>  0 0.79028816E+02</rscale>
<asrwt>0</asrwt>
<pdfrwt beam="1">  1        2 0.43464580E-01 0.79028816E+02</pdfrwt>
<pdfrwt beam="2">  1       -1 0.85025415E-03 0.79028816E+02</pdfrwt>
<totfact> 0.25757980E+05</totfact>
</mgrwt>
</event>
<event>
 8    1  0.1520917E-017  0.7881466E+02  0.7818608E-02  0.1332449E+00
         -1   -1    0    0    0  501 -0.00000000000E+00  0.00000000000E+00  0.68292462324E+01  0.68292480922E+01  0.50400000000E-02 0.  1.
          2   -1    0    0  501    0  0.00000000000E+00 -0.00000000000E+00 -0.22739516470E+03  0.22739516472E+03  0.25500000000E-02 0. -1.
         24    2    1    2    0    0 -0.35527136788E-14  0.35527136788E-14 -0.22056591847E+03  0.23422441281E+03  0.78814663389E+02 0.  0.
         66    2    3    3    0    0 -0.28371705508E+02  0.21268236215E+02 -0.16127908972E+03  0.16514307833E+03  0.19999991805E+01 0.  0.
        -13    1    3    3    0    0  0.28371705508E+02 -0.21268236215E+02 -0.59286828753E+02  0.69081334474E+02  0.10566000000E+00 0.  1.
         13    1    4    4    0    0 -0.18916611090E+02  0.14282065527E+02 -0.10999613276E+03  0.11252100230E+03  0.10566000000E+00 0. -1.
        -13    1    4    4    0    0 -0.86653343367E+01  0.63931080692E+01 -0.45635652887E+02  0.46889058728E+02  0.10566000000E+00 0.  1.
        -14    1    4    4    0    0 -0.78976008159E+00  0.59306261833E+00 -0.56473040666E+01  0.57330173100E+01  0.00000000000E+00 0.  1.
<mgrwt>
<rscale>  0 0.78814663E+02</rscale>
<asrwt>0</asrwt>
<pdfrwt beam="1">  1        2 0.34983866E-01 0.78814663E+02</pdfrwt>
<pdfrwt beam="2">  1       -1 0.10506536E-02 0.78814663E+02</pdfrwt>
<totfact> 0.23999785E+05</totfact>
</mgrwt>
</event>
<event>
 8    1  0.1520917E-017  0.7951313E+02  0.7818608E-02  0.1330439E+00
         -1   -1    0    0    0  501 -0.00000000000E+00  0.00000000000E+00  0.16332404754E+02  0.16332405532E+02  0.50400000000E-02 0.  1.
          2   -1    0    0  501    0  0.00000000000E+00 -0.00000000000E+00 -0.96775978454E+02  0.96775978488E+02  0.25500000000E-02 0. -1.
         24    2    1    2    0    0  0.35527136788E-14  0.00000000000E+00 -0.80443573700E+02  0.11310838402E+03  0.79513130903E+02 0.  0.
         66    2    3    3    0    0 -0.25146350274E+02  0.22321664019E+02 -0.70355526940E+02  0.78003178307E+02  0.20000095744E+01 0.  0.
        -13    1    3    3    0    0  0.25146350274E+02 -0.22321664019E+02 -0.10088046760E+02  0.35105205713E+02  0.10566000000E+00 0.  1.
         13    1    4    4    0    0 -0.34288759507E+00  0.16007526011E+00 -0.65458392413E+00  0.76343967744E+00  0.10566000000E+00 0. -1.
        -13    1    4    4    0    0 -0.82375582559E+01  0.67121349929E+01 -0.21669076087E+02  0.24134418258E+02  0.10566000000E+00 0.  1.
         14    1    4    4    0    0 -0.16565904423E+02  0.15449453766E+02 -0.48031866929E+02  0.53105320371E+02  0.00000000000E+00 0. -1.
<mgrwt>
<rscale>  0 0.79513131E+02</rscale>
<asrwt>0</asrwt>
<pdfrwt beam="1">  1        2 0.14888612E-01 0.79513131E+02</pdfrwt>
<pdfrwt beam="2">  1       -1 0.25126778E-02 0.79513131E+02</pdfrwt>
<totfact> 0.17854735E+05</totfact>
</mgrwt>
</event>
<event>
 8    1  0.1520917E-017  0.7965265E+02  0.7818608E-02  0.1330040E+00
         -1   -1    0    0    0  501 -0.00000000000E+00  0.00000000000E+00  0.33127984235E+01  0.33128022574E+01  0.50400000000E-02 0.  1.
          2   -1    0    0  501    0  0.00000000000E+00 -0.00000000000E+00 -0.47879009445E+03  0.47879009446E+03  0.25500000000E-02 0. -1.
         24    2    1    2    0    0  0.00000000000E+00  0.00000000000E+00 -0.47547729603E+03  0.48210289672E+03  0.79652645804E+02 0.  0.
         66    2    3    3    0    0  0.11634620130E+02  0.10790602515E+02 -0.45881337029E+03  0.45909204986E+03  0.19999989647E+01 0.  0.
        -13    1    3    3    0    0 -0.11634620130E+02 -0.10790602515E+02 -0.16663925740E+02  0.23010846862E+02  0.10566000000E+00 0.  1.
         13    1    4    4    0    0  0.94926681461E+00  0.87940722488E+00 -0.36627985672E+02  0.36650988568E+02  0.10566000000E+00 0. -1.
        -13    1    4    4    0    0  0.51052401065E+01  0.48389680899E+01 -0.17702312244E+03  0.17716285201E+03  0.10566000000E+00 0.  1.
        -14    1    4    4    0    0  0.55801132088E+01  0.50722271997E+01 -0.24516226218E+03  0.24527820928E+03  0.00000000000E+00 0.  1.
<mgrwt>
<rscale>  0 0.79652646E+02</rscale>
<asrwt>0</asrwt>
<pdfrwt beam="1">  1        2 0.73659960E-01 0.79652646E+02</pdfrwt>
<pdfrwt beam="2">  1       -1 0.50966197E-03 0.79652646E+02</pdfrwt>
<totfact> 0.30371204E+05</totfact>
</mgrwt>
</event>
<event>
 8    1  0.1520917E-017  0.7964964E+02  0.7818608E-02  0.1330049E+00
          2   -1    0    0  501    0  0.00000000000E+00  0.00000000000E+00  0.31278717559E+03  0.31278717560E+03  0.25500000000E-02 0. -1.
         -1   -1    0    0    0  501 -0.00000000000E+00 -0.00000000000E+00 -0.50705907159E+01  0.50705932207E+01  0.50400000000E-02 0.  1.
         24    2    1    2    0    0  0.17763568394E-14  0.00000000000E+00  0.30771658488E+03  0.31785776882E+03  0.79649636492E+02 0.  0.
         66    2    3    3    0    0 -0.11134618841E+02  0.17756924415E+02  0.28897538870E+03  0.28974137326E+03  0.20000002119E+01 0.  0.
        -13    1    3    3    0    0  0.11134618841E+02 -0.17756924415E+02  0.18741196171E+02  0.28116395562E+02  0.10566000000E+00 0.  1.
         13    1    4    4    0    0 -0.29265141974E+01  0.54892355628E+01  0.87057280566E+02  0.87279307146E+02  0.10566000000E+00 0. -1.
        -13    1    4    4    0    0 -0.54433875181E+01  0.88828245222E+01  0.13504217332E+03  0.13544347447E+03  0.10566000000E+00 0.  1.
         14    1    4    4    0    0 -0.27647171253E+01  0.33848643300E+01  0.66875934821E+02  0.67018591641E+02  0.00000000000E+00 0. -1.
<mgrwt>
<rscale>  0 0.79649636E+02</rscale>
<asrwt>0</asrwt>
<pdfrwt beam="1">  1        2 0.48121090E-01 0.79649636E+02</pdfrwt>
<pdfrwt beam="2">  1       -1 0.78009130E-03 0.79649636E+02</pdfrwt>
<totfact> 0.26181655E+05</totfact>
</mgrwt>
</event>
<event>
 8    1  0.1520917E-017  0.8002226E+02  0.7818608E-02  0.1328988E+00
         -1   -1    0    0    0  501 -0.00000000000E+00  0.00000000000E+00  0.35481881421E+01  0.35481917216E+01  0.50400000000E-02 0.  1.
          2   -1    0    0  501    0  0.00000000000E+00 -0.00000000000E+00 -0.45118514112E+03  0.45118514113E+03  0.25500000000E-02 0. -1.
         24    2    1    2    0    0  0.00000000000E+00  0.22204460493E-15 -0.44763695298E+03  0.45473333285E+03  0.80022261481E+02 0.  0.
         66    2    3    3    0    0  0.23938193955E+02  0.14642902083E+01 -0.40577437405E+03  0.40648742158E+03  0.19999977431E+01 0.  0.
        -13    1    3    3    0    0 -0.23938193955E+02 -0.14642902083E+01 -0.41862578925E+02  0.48245911267E+02  0.10566000000E+00 0.  1.
         13    1    4    4    0    0  0.18442433499E+02  0.84218050065E+00 -0.30938798489E+03  0.30993833093E+03  0.10566000000E+00 0. -1.
        -13    1    4    4    0    0  0.82951181337E+00 -0.61237106614E-01 -0.10562144939E+02  0.10595372083E+02  0.10566000000E+00 0. -1.
        -14    1    4    4    0    0  0.46662486427E+01  0.68334681429E+00 -0.85824244221E+02  0.85953718567E+02  0.00000000000E+00 0.  1.
<mgrwt>
<rscale>  0 0.80022261E+02</rscale>
<asrwt>0</asrwt>
<pdfrwt beam="1">  1        2 0.69413053E-01 0.80022261E+02</pdfrwt>
<pdfrwt beam="2">  1       -1 0.54587573E-03 0.80022261E+02</pdfrwt>
<totfact> 0.29423094E+05</totfact>
</mgrwt>
</event>
<event>
 8    1  0.1520917E-017  0.8125356E+02  0.7818608E-02  0.1325531E+00
          2   -1    0    0  501    0  0.00000000000E+00  0.00000000000E+00  0.14225502501E+03  0.14225502503E+03  0.25500000000E-02 0. -1.
         -1   -1    0    0    0  501 -0.00000000000E+00 -0.00000000000E+00 -0.11602649707E+02  0.11602650802E+02  0.50400000000E-02 0.  1.
         24    2    1    2    0    0  0.00000000000E+00  0.00000000000E+00  0.13065237530E+03  0.15385767583E+03  0.81253561405E+02 0.  0.
         66    2    3    3    0    0  0.25161872463E+02 -0.72176682325E+01  0.12413638733E+03  0.12688206048E+03  0.20000129677E+01 0.  0.
        -13    1    3    3    0    0 -0.25161872463E+02  0.72176682325E+01  0.65159879753E+01  0.26975615357E+02  0.10566000000E+00 0.  1.
         13    1    4    4    0    0  0.14877911480E+02 -0.39060142936E+01  0.74066904485E+02  0.75647383971E+02  0.10566000000E+00 0. -1.
        -13    1    4    4    0    0  0.12998882037E+01 -0.62901003646E+00  0.53219012721E+01  0.55153567567E+01  0.10566000000E+00 0.  1.
        -14    1    4    4    0    0  0.89840727797E+01 -0.26826439025E+01  0.44747581569E+02  0.45719319749E+02  0.00000000000E+00 0.  1.
<mgrwt>
<rscale>  0 0.81253561E+02</rscale>
<asrwt>0</asrwt>
<pdfrwt beam="1">  1        2 0.21885388E-01 0.81253561E+02</pdfrwt>
<pdfrwt beam="2">  1       -1 0.17850231E-02 0.81253561E+02</pdfrwt>
<totfact> 0.18895950E+05</totfact>
</mgrwt>
</event>
<event>
 8    1  0.1520917E-017  0.8025270E+02  0.7818608E-02  0.1328336E+00
          2   -1    0    0  501    0  0.00000000000E+00  0.00000000000E+00  0.28059224359E+02  0.28059224475E+02  0.25500000000E-02 0. -1.
         -1   -1    0    0    0  501 -0.00000000000E+00 -0.00000000000E+00 -0.57383048348E+02  0.57383048569E+02  0.50400000000E-02 0.  1.
         24    2    1    2    0    0  0.35527136788E-14  0.00000000000E+00 -0.29323823989E+02  0.85442273044E+02  0.80252696961E+02 0.  0.
         66    2    3    3    0    0 -0.23011104444E+02 -0.15845056157E+02  0.15956272452E+02  0.32236305050E+02  0.20000000954E+01 0.  0.
        -13    1    3    3    0    0  0.23011104444E+02  0.15845056157E+02 -0.45280096442E+02  0.53205967994E+02  0.10566000000E+00 0.  1.
         13    1    4    4    0    0 -0.12706614354E+02 -0.83464113772E+01  0.87212221863E+01  0.17526879690E+02  0.10566000000E+00 0. -1.
        -13    1    4    4    0    0 -0.12163410177E+01 -0.14152684509E+01  0.97248021852E+00  0.21069769981E+01  0.10566000000E+00 0.  1.
        -14    1    4    4    0    0 -0.90881490726E+01 -0.60833763288E+01  0.62625700473E+01  0.12602448362E+02  0.00000000000E+00 0.  1.
<mgrwt>
<rscale>  0 0.80252697E+02</rscale>
<asrwt>0</asrwt>
<pdfrwt beam="1">  1        2 0.43168038E-02 0.80252697E+02</pdfrwt>
<pdfrwt beam="2">  1       -1 0.88281613E-02 0.80252697E+02</pdfrwt>
<totfact> 0.13161748E+05</totfact>
</mgrwt>
</event>
<event>
 8    1  0.1520917E-017  0.7738898E+02  0.7818608E-02  0.1336629E+00
          2   -1    0    0  501    0  0.00000000000E+00  0.00000000000E+00  0.68902421892E+03  0.68902421892E+03  0.25500000000E-02 0. -1.
         -1   -1    0    0    0  501 -0.00000000000E+00 -0.00000000000E+00 -0.21730170551E+01  0.21730228999E+01  0.50400000000E-02 0.  1.
         24    2    1    2    0    0  0.00000000000E+00  0.00000000000E+00  0.68685120187E+03  0.69119724182E+03  0.77388975977E+02 0.  0.
         66    2    3    3    0    0 -0.22127682366E+01  0.15164000379E+02  0.66074226461E+03  0.66092297850E+03  0.20000068938E+01 0.  0.
        -13    1    3    3    0    0  0.22127682366E+01 -0.15164000379E+02  0.26108937260E+02  0.30274263321E+02  0.10566000000E+00 0.  1.
         13    1    4    4    0    0 -0.20903808761E+00  0.17505050842E+01  0.10112344492E+03  0.10113886612E+03  0.10566000000E+00 0. -1.
        -13    1    4    4    0    0 -0.50045600621E+00  0.67958377423E+01  0.27663908394E+03  0.27672301638E+03  0.10566000000E+00 0.  1.
         14    1    4    4    0    0 -0.15032741428E+01  0.66176575528E+01  0.28297973575E+03  0.28306109600E+03  0.00000000000E+00 0. -1.
<mgrwt>
<rscale>  0 0.77388976E+02</rscale>
<asrwt>0</asrwt>
<pdfrwt beam="1">  1        2 0.10600365E+00 0.77388976E+02</pdfrwt>
<pdfrwt beam="2">  1       -1 0.33431102E-03 0.77388976E+02</pdfrwt>
<totfact> 0.36327053E+05</totfact>
</mgrwt>
</event>
<event>
 8    1  0.1520917E-017  0.7996599E+02  0.7818608E-02  0.1329148E+00
          2   -1    0    0  501    0  0.00000000000E+00  0.00000000000E+00  0.71556058406E+03  0.71556058406E+03  0.25500000000E-02 0. -1.
         -1   -1    0    0    0  501 -0.00000000000E+00 -0.00000000000E+00 -0.22341056893E+01  0.22341113743E+01  0.50400000000E-02 0.  1.
         24    2    1    2    0    0  0.00000000000E+00  0.17763568394E-14  0.71332647837E+03  0.71779469543E+03  0.79965993118E+02 0.  0.
         66    2    3    3    0    0  0.16249574346E+02 -0.12537341174E+02  0.66462860734E+03  0.66494843353E+03  0.19999942808E+01 0.  0.
        -13    1    3    3    0    0 -0.16249574346E+02  0.12537341174E+02  0.48697871029E+02  0.52846261901E+02  0.10566000000E+00 0.  1.
         13    1    4    4    0    0  0.54553089974E+01 -0.42043813096E+01  0.19940213170E+03  0.19952107284E+03  0.10566000000E+00 0. -1.
        -13    1    4    4    0    0  0.58302945684E+01 -0.47859036969E+01  0.27199612282E+03  0.27210071519E+03  0.10566000000E+00 0.  1.
        -14    1    4    4    0    0  0.49639707803E+01 -0.35470561671E+01  0.19323035282E+03  0.19332664551E+03  0.00000000000E+00 0.  1.
<mgrwt>
<rscale>  0 0.79965993E+02</rscale>
<asrwt>0</asrwt>
<pdfrwt beam="1">  1        2 0.11008636E+00 0.79965993E+02</pdfrwt>
<pdfrwt beam="2">  1       -1 0.34370864E-03 0.79965993E+02</pdfrwt>
<totfact> 0.33654558E+05</totfact>
</mgrwt>
</event>
<event>
 8    1  0.1520917E-017  0.8105613E+02  0.7818608E-02  0.1326081E+00
          2   -1    0    0  501    0  0.00000000000E+00  0.00000000000E+00  0.42509838310E+03  0.42509838311E+03  0.25500000000E-02 0. -1.
         -1   -1    0    0    0  501 -0.00000000000E+00 -0.00000000000E+00 -0.38638665949E+01  0.38638698819E+01  0.50400000000E-02 0.  1.
         24    2    1    2    0    0 -0.35527136788E-14  0.00000000000E+00  0.42123451651E+03  0.42896225299E+03  0.81056132369E+02 0.  0.
         66    2    3    3    0    0  0.20630282954E+02 -0.15934126164E+02  0.37480339053E+03  0.37571410209E+03  0.20000002571E+01 0.  0.
        -13    1    3    3    0    0 -0.20630282954E+02  0.15934126164E+02  0.46431125971E+02  0.53248150901E+02  0.10566000000E+00 0.  1.
         13    1    4    4    0    0  0.67841134834E+01 -0.56533811822E+01  0.12376501937E+03  0.12407971671E+03  0.10566000000E+00 0. -1.
        -13    1    4    4    0    0  0.72020378106E+01 -0.50887568524E+01  0.13858109899E+03  0.13886143077E+03  0.10566000000E+00 0.  1.
        -14    1    4    4    0    0  0.66441316603E+01 -0.51919881297E+01  0.11245727218E+03  0.11277295461E+03  0.00000000000E+00 0.  1.
<mgrwt>
<rscale>  0 0.81056132E+02</rscale>
<asrwt>0</asrwt>
<pdfrwt beam="1">  1        2 0.65399695E-01 0.81056132E+02</pdfrwt>
<pdfrwt beam="2">  1       -1 0.59444178E-03 0.81056132E+02</pdfrwt>
<totfact> 0.27883690E+05</totfact>
</mgrwt>
</event>
<event>
 8    1  0.1520917E-017  0.8111519E+02  0.7818608E-02  0.1325916E+00
         -1   -1    0    0    0  501 -0.00000000000E+00  0.00000000000E+00  0.60373934503E+01  0.60373955540E+01  0.50400000000E-02 0.  1.
          2   -1    0    0  501    0  0.00000000000E+00 -0.00000000000E+00 -0.27245500393E+03  0.27245500395E+03  0.25500000000E-02 0. -1.
         24    2    1    2    0    0  0.00000000000E+00  0.00000000000E+00 -0.26641761048E+03  0.27849239950E+03  0.81115186022E+02 0.  0.
         66    2    3    3    0    0 -0.73473235999E+00  0.34250485610E+02 -0.20766442324E+03  0.21048075512E+03  0.19999998397E+01 0.  0.
        -13    1    3    3    0    0  0.73473235999E+00 -0.34250485610E+02 -0.58753187241E+02  0.68011644379E+02  0.10566000000E+00 0.  1.
         13    1    4    4    0    0  0.16631275606E+00  0.19850394590E+02 -0.12227005283E+03  0.12387107334E+03  0.10566000000E+00 0. -1.
        -13    1    4    4    0    0 -0.20991506631E+00  0.52185140891E+01 -0.33488223053E+02  0.33893202872E+02  0.10566000000E+00 0.  1.
        -14    1    4    4    0    0 -0.69113004974E+00  0.91815769303E+01 -0.51906147356E+02  0.52716478914E+02  0.00000000000E+00 0.  1.
<mgrwt>
<rscale>  0 0.81115186E+02</rscale>
<asrwt>0</asrwt>
<pdfrwt beam="1">  1        2 0.41916145E-01 0.81115186E+02</pdfrwt>
<pdfrwt beam="2">  1       -1 0.92883014E-03 0.81115186E+02</pdfrwt>
<totfact> 0.23741045E+05</totfact>
</mgrwt>
</event>
<event>
 8    1  0.1520917E-017  0.8073923E+02  0.7818608E-02  0.1326967E+00
          2   -1    0    0  501    0  0.00000000000E+00  0.00000000000E+00  0.41537717590E+03  0.41537717591E+03  0.25500000000E-02 0. -1.
         -1   -1    0    0    0  501 -0.00000000000E+00 -0.00000000000E+00 -0.39234345902E+01  0.39234378273E+01  0.50400000000E-02 0.  1.
         24    2    1    2    0    0  0.00000000000E+00  0.17763568394E-14  0.41145374131E+03  0.41930061374E+03  0.80739231114E+02 0.  0.
         66    2    3    3    0    0  0.34193942268E+02  0.15528211745E+02  0.28241603798E+03  0.28490905488E+03  0.19999985945E+01 0.  0.
        -13    1    3    3    0    0 -0.34193942268E+02 -0.15528211745E+02  0.12903770333E+03  0.13439155886E+03  0.10566000000E+00 0.  1.
         13    1    4    4    0    0  0.12061769150E+02  0.46388342615E+01  0.96917376560E+02  0.97775222329E+02  0.10566000000E+00 0. -1.
        -13    1    4    4    0    0  0.68544511741E+01  0.29151723680E+01  0.56908407401E+02  0.57393899744E+02  0.10566000000E+00 0.  1.
        -14    1    4    4    0    0  0.15277721944E+02  0.79742051153E+01  0.12859025402E+03  0.12973993281E+03  0.00000000000E+00 0.  1.
<mgrwt>
<rscale>  0 0.80739231E+02</rscale>
<asrwt>0</asrwt>
<pdfrwt beam="1">  1        2 0.63904126E-01 0.80739231E+02</pdfrwt>
<pdfrwt beam="2">  1       -1 0.60360609E-03 0.80739231E+02</pdfrwt>
<totfact> 0.27946922E+05</totfact>
</mgrwt>
</event>
<event>
 8    1  0.1520917E-017  0.7738532E+02  0.7818608E-02  0.1336640E+00
          2   -1    0    0  501    0  0.00000000000E+00  0.00000000000E+00  0.11948715179E+04  0.11948715179E+04  0.25500000000E-02 0. -1.
         -1   -1    0    0    0  501 -0.00000000000E+00 -0.00000000000E+00 -0.12529513452E+01  0.12529614819E+01  0.50400000000E-02 0.  1.
         24    2    1    2    0    0 -0.35527136788E-14  0.00000000000E+00  0.11936185665E+04  0.11961244793E+04  0.77385320045E+02 0.  0.
         66    2    3    3    0    0 -0.16760763069E+02  0.12251259930E+02  0.11014140906E+04  0.11016115538E+04  0.19999966471E+01 0.  0.
        -13    1    3    3    0    0  0.16760763069E+02 -0.12251259930E+02  0.92204475882E+02  0.94512925493E+02  0.10566000000E+00 0.  1.
         13    1    4    4    0    0 -0.10400505146E+02  0.85244571735E+01  0.71740401823E+03  0.71753005053E+03  0.10566000000E+00 0. -1.
        -13    1    4    4    0    0 -0.19701182031E+01  0.83053590556E+00  0.10363904701E+03  0.10366115177E+03  0.10566000000E+00 0.  1.
         14    1    4    4    0    0 -0.43901397193E+01  0.28962668510E+01  0.28037102538E+03  0.28042035155E+03  0.00000000000E+00 0. -1.
<mgrwt>
<rscale>  0 0.77385320E+02</rscale>
<asrwt>0</asrwt>
<pdfrwt beam="1">  1        2 0.18382732E+00 0.77385320E+02</pdfrwt>
<pdfrwt beam="2">  1       -1 0.19276154E-03 0.77385320E+02</pdfrwt>
<totfact> 0.38207059E+05</totfact>
</mgrwt>
</event>
<event>
 8    1  0.1520917E-017  0.8088049E+02  0.7818608E-02  0.1326571E+00
         -1   -1    0    0    0  501 -0.00000000000E+00  0.00000000000E+00  0.95837021116E+01  0.95837034369E+01  0.50400000000E-02 0.  1.
          2   -1    0    0  501    0  0.00000000000E+00 -0.00000000000E+00 -0.17064526784E+03  0.17064526786E+03  0.25500000000E-02 0. -1.
         24    2    1    2    0    0  0.88817841970E-15  0.00000000000E+00 -0.16106156573E+03  0.18022897129E+03  0.80880492947E+02 0.  0.
         66    2    3    3    0    0  0.72241391596E+01  0.86164355500E+01 -0.16708348807E+03  0.16747335053E+03  0.20000008472E+01 0.  0.
        -13    1    3    3    0    0 -0.72241391596E+01 -0.86164355500E+01  0.60219223484E+01  0.12755620761E+02  0.10566000000E+00 0.  1.
         13    1    4    4    0    0  0.49711331223E+01  0.69912907186E+01 -0.12078916875E+03  0.12109345466E+03  0.10566000000E+00 0. -1.
        -13    1    4    4    0    0  0.59183961250E+00  0.40187052576E+00 -0.15223043976E+02  0.15240210168E+02  0.10566000000E+00 0.  1.
         14    1    4    4    0    0  0.16611664248E+01  0.12232743057E+01 -0.31071275347E+02  0.31139685702E+02  0.00000000000E+00 0. -1.
<mgrwt>
<rscale>  0 0.80880493E+02</rscale>
<asrwt>0</asrwt>
<pdfrwt beam="1">  1        2 0.26253116E-01 0.80880493E+02</pdfrwt>
<pdfrwt beam="2">  1       -1 0.14744159E-02 0.80880493E+02</pdfrwt>
<totfact> 0.20298711E+05</totfact>
</mgrwt>
</event>
<event>
 8    1  0.1520917E-017  0.7995895E+02  0.7818608E-02  0.1329168E+00
         -1   -1    0    0    0  501 -0.00000000000E+00  0.00000000000E+00  0.23479169586E+01  0.23479223680E+01  0.50400000000E-02 0.  1.
          2   -1    0    0  501    0  0.00000000000E+00 -0.00000000000E+00 -0.68075521388E+03  0.68075521388E+03  0.25500000000E-02 0. -1.
         24    2    1    2    0    0  0.88817841970E-15  0.00000000000E+00 -0.67840729692E+03  0.68310313625E+03  0.79958953483E+02 0.  0.
         66    2    3    3    0    0 -0.57617902056E+01  0.34023200325E+02 -0.51146578110E+03  0.51263244301E+03  0.20000001761E+01 0.  0.
        -13    1    3    3    0    0  0.57617902056E+01 -0.34023200325E+02 -0.16694151582E+03  0.17047069324E+03  0.10566000000E+00 0.  1.
         13    1    4    4    0    0 -0.37113616266E+00  0.12694307033E+01 -0.24206118065E+02  0.24242452685E+02  0.10566000000E+00 0.  1.
        -13    1    4    4    0    0 -0.50415442826E+01  0.28703320792E+02 -0.42718992729E+03  0.42818283821E+03  0.10566000000E+00 0. -1.
        -14    1    4    4    0    0 -0.34910976040E+00  0.40504488300E+01 -0.60069735743E+02  0.60207152113E+02  0.00000000000E+00 0.  1.
<mgrwt>
<rscale>  0 0.79958953E+02</rscale>
<asrwt>0</asrwt>
<pdfrwt beam="1">  1        2 0.10473141E+00 0.79958953E+02</pdfrwt>
<pdfrwt beam="2">  1       -1 0.36121896E-03 0.79958953E+02</pdfrwt>
<totfact> 0.33278655E+05</totfact>
</mgrwt>
</event>
<event>
 8    1  0.1520917E-017  0.7903771E+02  0.7818608E-02  0.1331805E+00
         -1   -1    0    0    0  501 -0.00000000000E+00  0.00000000000E+00  0.10715366486E+03  0.10715366498E+03  0.50400000000E-02 0.  1.
          2   -1    0    0  501    0  0.00000000000E+00 -0.00000000000E+00 -0.14574767282E+02  0.14574767505E+02  0.25500000000E-02 0. -1.
         24    2    1    2    0    0  0.00000000000E+00  0.00000000000E+00  0.92578897576E+02  0.12172843248E+03  0.79037706179E+02 0.  0.
         66    2    3    3    0    0 -0.85758501066E+01  0.21444314986E+02 -0.30212521922E+01  0.23378019925E+02  0.20000001370E+01 0.  0.
        -13    1    3    3    0    0  0.85758501066E+01 -0.21444314986E+02  0.95600149769E+02  0.98350412557E+02  0.10566000000E+00 0.  1.
         13    1    4    4    0    0 -0.32339891380E+01  0.92079789442E+01 -0.76045586030E+00  0.97895362062E+01  0.10566000000E+00 0. -1.
        -13    1    4    4    0    0 -0.21641347167E+01  0.45955637021E+01 -0.13907908408E+01  0.52676510904E+01  0.10566000000E+00 0.  1.
        -14    1    4    4    0    0 -0.31777262519E+01  0.76407723397E+01 -0.87000549106E+00  0.83208326286E+01  0.00000000000E+00 0.  1.
<mgrwt>
<rscale>  0 0.79037706E+02</rscale>
<asrwt>0</asrwt>
<pdfrwt beam="1">  1        2 0.22422720E-02 0.79037706E+02</pdfrwt>
<pdfrwt beam="2">  1       -1 0.16485179E-01 0.79037706E+02</pdfrwt>
<totfact> 0.12035440E+05</totfact>
</mgrwt>
</event>
<event>
 8    1  0.1520917E-017  0.8115101E+02  0.7818608E-02  0.1325816E+00
         -1   -1    0    0    0  501 -0.00000000000E+00  0.00000000000E+00  0.32923300650E+02  0.32923301035E+02  0.50400000000E-02 0.  1.
          2   -1    0    0  501    0  0.00000000000E+00 -0.00000000000E+00 -0.50006271125E+02  0.50006271190E+02  0.25500000000E-02 0. -1.
         24    2    1    2    0    0  0.00000000000E+00 -0.71054273576E-14 -0.17082970475E+02  0.82929572225E+02  0.81151007814E+02 0.  0.
         66    2    3    3    0    0 -0.11220169137E+01 -0.36296847295E+02 -0.26987839349E+02  0.45288668451E+02  0.19999929613E+01 0.  0.
        -13    1    3    3    0    0  0.11220169137E+01  0.36296847295E+02  0.99048688739E+01  0.37640903774E+02  0.10566000000E+00 0.  1.
         13    1    4    4    0    0 -0.10231873504E+01 -0.35803042548E+02 -0.26389120816E+02  0.44489342876E+02  0.10566000000E+00 0. -1.
        -13    1    4    4    0    0 -0.47253008611E-01 -0.40135297570E+00 -0.42511894518E+00  0.59599262670E+00  0.10566000000E+00 0. -1.
         14    1    4    4    0    0 -0.51576554718E-01 -0.92451770527E-01 -0.17359958781E+00  0.20333294804E+00  0.00000000000E+00 0. -1.
<mgrwt>
<rscale>  0 0.81151008E+02</rscale>
<asrwt>0</asrwt>
<pdfrwt beam="1">  1        2 0.76932725E-02 0.81151008E+02</pdfrwt>
<pdfrwt beam="2">  1       -1 0.50651232E-02 0.81151008E+02</pdfrwt>
<totfact> 0.14369380E+05</totfact>
</mgrwt>
</event>
<event>
 8    1  0.1520917E-017  0.8051778E+02  0.7818608E-02  0.1327588E+00
         -1   -1    0    0    0  501 -0.00000000000E+00  0.00000000000E+00  0.19192269477E+01  0.19192335653E+01  0.50400000000E-02 0.  1.
          2   -1    0    0  501    0  0.00000000000E+00 -0.00000000000E+00 -0.84449396956E+03  0.84449396956E+03  0.25500000000E-02 0. -1.
         24    2    1    2    0    0  0.00000000000E+00 -0.35527136788E-14 -0.84257474261E+03  0.84641320312E+03  0.80517784017E+02 0.  0.
         66    2    3    3    0    0 -0.81460889682E+01  0.24496708128E+02 -0.74594850061E+03  0.74639775791E+03  0.19999945659E+01 0.  0.
        -13    1    3    3    0    0  0.81460889682E+01 -0.24496708128E+02 -0.96626242001E+02  0.10001544522E+03  0.10566000000E+00 0.  1.
         13    1    4    4    0    0 -0.36558146295E+01  0.85956018379E+01 -0.27990062681E+03  0.28005646110E+03  0.10566000000E+00 0. -1.
        -13    1    4    4    0    0 -0.38884014070E+01  0.13872652815E+02 -0.39897773778E+03  0.39923779451E+03  0.10566000000E+00 0.  1.
         14    1    4    4    0    0 -0.60187293164E+00  0.20284534752E+01 -0.67070136022E+02  0.67103502298E+02  0.00000000000E+00 0. -1.
<mgrwt>
<rscale>  0 0.80517784E+02</rscale>
<asrwt>0</asrwt>
<pdfrwt beam="1">  1        2 0.12992185E+00 0.80517784E+02</pdfrwt>
<pdfrwt beam="2">  1       -1 0.29526687E-03 0.80517784E+02</pdfrwt>
<totfact> 0.34086775E+05</totfact>
</mgrwt>
</event>
<event>
 8    1  0.1520917E-017  0.8105033E+02  0.7818608E-02  0.1326097E+00
         -1   -1    0    0    0  501 -0.00000000000E+00  0.00000000000E+00  0.16660985615E+02  0.16660986377E+02  0.50400000000E-02 0.  1.
          2   -1    0    0  501    0  0.00000000000E+00 -0.00000000000E+00 -0.98570933175E+02  0.98570933208E+02  0.25500000000E-02 0. -1.
         24    2    1    2    0    0  0.00000000000E+00  0.00000000000E+00 -0.81909947560E+02  0.11523191958E+03  0.81050328697E+02 0.  0.
         66    2    3    3    0    0  0.19210092685E+02  0.34714955668E+02 -0.52541263659E+02  0.65869114092E+02  0.19999990964E+01 0.  0.
        -13    1    3    3    0    0 -0.19210092685E+02 -0.34714955668E+02 -0.29368683901E+02  0.49362805493E+02  0.10566000000E+00 0.  1.
         13    1    4    4    0    0  0.94138764208E+01  0.17468390442E+02 -0.25849692594E+02  0.32588088394E+02  0.10566000000E+00 0. -1.
        -13    1    4    4    0    0  0.44598980992E+01  0.66245290590E+01 -0.11113179793E+02  0.13685357338E+02  0.10566000000E+00 0.  1.
        -14    1    4    4    0    0  0.53363181646E+01  0.10622036167E+02 -0.15578391271E+02  0.19595668360E+02  0.00000000000E+00 0.  1.
<mgrwt>
<rscale>  0 0.81050329E+02</rscale>
<asrwt>0</asrwt>
<pdfrwt beam="1">  1        2 0.15164759E-01 0.81050329E+02</pdfrwt>
<pdfrwt beam="2">  1       -1 0.25632287E-02 0.81050329E+02</pdfrwt>
<totfact> 0.17047845E+05</totfact>
</mgrwt>
</event>
<event>
 8    1  0.1520917E-017  0.8094629E+02  0.7818608E-02  0.1326387E+00
          2   -1    0    0  501    0  0.00000000000E+00  0.00000000000E+00  0.41000255043E+03  0.41000255044E+03  0.25500000000E-02 0. -1.
         -1   -1    0    0    0  501 -0.00000000000E+00 -0.00000000000E+00 -0.39952793252E+01  0.39952825041E+01  0.50400000000E-02 0.  1.
         24    2    1    2    0    0  0.00000000000E+00  0.00000000000E+00  0.40600727111E+03  0.41399783295E+03  0.80946287690E+02 0.  0.
         66    2    3    3    0    0  0.25867123680E+02 -0.18647593787E+02  0.33039748921E+03  0.33193876200E+03  0.20000002448E+01 0.  0.
        -13    1    3    3    0    0 -0.25867123680E+02  0.18647593787E+02  0.75609781899E+02  0.82059070946E+02  0.10566000000E+00 0.  1.
         13    1    4    4    0    0  0.47341879493E+01 -0.41781471110E+01  0.68720042138E+02  0.69009599363E+02  0.10566000000E+00 0. -1.
        -13    1    4    4    0    0  0.97840551012E+01 -0.68974233859E+01  0.11847315651E+03  0.11907645511E+03  0.10566000000E+00 0.  1.
         14    1    4    4    0    0  0.11348880630E+02 -0.75720232905E+01  0.14320429056E+03  0.14385270753E+03  0.00000000000E+00 0. -1.
<mgrwt>
<rscale>  0 0.80946288E+02</rscale>
<asrwt>0</asrwt>
<pdfrwt beam="1">  1        2 0.63077286E-01 0.80946288E+02</pdfrwt>
<pdfrwt beam="2">  1       -1 0.61465890E-03 0.80946288E+02</pdfrwt>
<totfact> 0.27635397E+05</totfact>
</mgrwt>
</event>
<event>
 8    1  0.1520917E-017  0.8134830E+02  0.7818608E-02  0.1325268E+00
         -1   -1    0    0    0  501 -0.00000000000E+00  0.00000000000E+00  0.38704124400E+01  0.38704157216E+01  0.50400000000E-02 0.  1.
          2   -1    0    0  501    0  0.00000000000E+00 -0.00000000000E+00 -0.42744429808E+03  0.42744429809E+03  0.25500000000E-02 0. -1.
         24    2    1    2    0    0  0.00000000000E+00  0.00000000000E+00 -0.42357388564E+03  0.43131471381E+03  0.81348299012E+02 0.  0.
         66    2    3    3    0    0  0.38950977232E+02 -0.11455631269E+02 -0.20134850497E+03  0.20541088230E+03  0.19999990516E+01 0.  0.
        -13    1    3    3    0    0 -0.38950977232E+02  0.11455631269E+02 -0.22222538067E+03  0.22590383151E+03  0.10566000000E+00 0.  1.
         13    1    4    4    0    0  0.15158910978E+02 -0.39421105551E+01 -0.77362609188E+02  0.78932358904E+02  0.10566000000E+00 0. -1.
        -13    1    4    4    0    0  0.58712480654E+01 -0.24373867504E+01 -0.30783995643E+02  0.31433707382E+02  0.10566000000E+00 0.  1.
         14    1    4    4    0    0  0.17920818188E+02 -0.50761339632E+01 -0.93201900140E+02  0.95044816009E+02  0.00000000000E+00 0. -1.
<mgrwt>
<rscale>  0 0.81348299E+02</rscale>
<asrwt>0</asrwt>
<pdfrwt beam="1">  1        2 0.65760624E-01 0.81348299E+02</pdfrwt>
<pdfrwt beam="2">  1       -1 0.59544866E-03 0.81348299E+02</pdfrwt>
<totfact> 0.27674856E+05</totfact>
</mgrwt>
</event>
<event>
 8    1  0.1520917E-017  0.7971416E+02  0.7818608E-02  0.1329865E+00
          2   -1    0    0  501    0  0.00000000000E+00  0.00000000000E+00  0.29495624986E+03  0.29495624987E+03  0.25500000000E-02 0. -1.
         -1   -1    0    0    0  501 -0.00000000000E+00 -0.00000000000E+00 -0.53858373312E+01  0.53858396894E+01  0.50400000000E-02 0.  1.
         24    2    1    2    0    0  0.00000000000E+00  0.00000000000E+00  0.28957041252E+03  0.30034208956E+03  0.79714157772E+02 0.  0.
         66    2    3    3    0    0 -0.28247030827E+02 -0.23608340070E+02  0.20218205662E+03  0.20551601517E+03  0.20000004069E+01 0.  0.
        -13    1    3    3    0    0  0.28247030827E+02  0.23608340070E+02  0.87388355905E+02  0.94826074385E+02  0.10566000000E+00 0.  1.
         13    1    4    4    0    0 -0.99937331144E+01 -0.88756025214E+01  0.72869044028E+02  0.74084814661E+02  0.10566000000E+00 0. -1.
        -13    1    4    4    0    0 -0.16688625149E+02 -0.13824243804E+02  0.12073269603E+03  0.12266219866E+03  0.10566000000E+00 0.  1.
        -14    1    4    4    0    0 -0.15646725635E+01 -0.90849374389E+00  0.85803165651E+01  0.87690018515E+01  0.00000000000E+00 0.  1.
<mgrwt>
<rscale>  0 0.79714158E+02</rscale>
<asrwt>0</asrwt>
<pdfrwt beam="1">  1        2 0.45377886E-01 0.79714158E+02</pdfrwt>
<pdfrwt beam="2">  1       -1 0.82859052E-03 0.79714158E+02</pdfrwt>
<totfact> 0.25577348E+05</totfact>
</mgrwt>
</event>
<event>
 8    1  0.1520917E-017  0.7769018E+02  0.7818608E-02  0.1335737E+00
          2   -1    0    0  501    0  0.00000000000E+00  0.00000000000E+00  0.17015737105E+03  0.17015737106E+03  0.25500000000E-02 0. -1.
         -1   -1    0    0    0  501 -0.00000000000E+00 -0.00000000000E+00 -0.88679128198E+01  0.88679142521E+01  0.50400000000E-02 0.  1.
         24    2    1    2    0    0 -0.17763568394E-14  0.00000000000E+00  0.16128945823E+03  0.17902528532E+03  0.77690176007E+02 0.  0.
         66    2    3    3    0    0  0.12935829344E+02  0.21218598600E+02  0.14941908197E+03  0.15148474059E+03  0.19999919805E+01 0.  0.
        -13    1    3    3    0    0 -0.12935829344E+02 -0.21218598600E+02  0.11870376259E+02  0.27540544728E+02  0.10566000000E+00 0.  1.
         13    1    4    4    0    0  0.11412221386E+01  0.21103471500E+01  0.16561428543E+02  0.16734635714E+02  0.10566000000E+00 0. -1.
        -13    1    4    4    0    0  0.64548007506E+01  0.99352243951E+01  0.74157737632E+02  0.75098297925E+02  0.10566000000E+00 0.  1.
         14    1    4    4    0    0  0.53398064547E+01  0.91730270551E+01  0.58699915792E+02  0.59651806949E+02  0.00000000000E+00 0. -1.
<mgrwt>
<rscale>  0 0.77690176E+02</rscale>
<asrwt>0</asrwt>
<pdfrwt beam="1">  1        2 0.26178055E-01 0.77690176E+02</pdfrwt>
<pdfrwt beam="2">  1       -1 0.13642945E-02 0.77690176E+02</pdfrwt>
<totfact> 0.22556248E+05</totfact>
</mgrwt>
</event>
<event>
 8    1  0.1520917E-017  0.7859758E+02  0.7818608E-02  0.1333079E+00
          2   -1    0    0  501    0  0.00000000000E+00  0.00000000000E+00  0.16055965789E+03  0.16055965791E+03  0.25500000000E-02 0. -1.
         -1   -1    0    0    0  501 -0.00000000000E+00 -0.00000000000E+00 -0.96188227868E+01  0.96188241073E+01  0.50400000000E-02 0.  1.
         24    2    1    2    0    0  0.00000000000E+00  0.00000000000E+00  0.15094083510E+03  0.17017848201E+03  0.78597582915E+02 0.  0.
         66    2    3    3    0    0 -0.23550026513E+01 -0.36239864715E+02  0.10788969132E+03  0.11385543188E+03  0.20000106648E+01 0.  0.
        -13    1    3    3    0    0  0.23550026513E+01  0.36239864715E+02  0.43051143782E+02  0.56323050139E+02  0.10566000000E+00 0.  1.
         13    1    4    4    0    0  0.10263307747E+00 -0.61622409826E+01  0.17339675353E+02  0.18402696891E+02  0.10566000000E+00 0.  1.
        -13    1    4    4    0    0 -0.12212499365E+01 -0.16307987570E+02  0.50749917784E+02  0.53319857737E+02  0.10566000000E+00 0. -1.
         14    1    4    4    0    0 -0.12363857923E+01 -0.13769636163E+02  0.39800098182E+02  0.42132877248E+02  0.00000000000E+00 0. -1.
<mgrwt>
<rscale>  0 0.78597583E+02</rscale>
<asrwt>0</asrwt>
<pdfrwt beam="1">  1        2 0.24701485E-01 0.78597583E+02</pdfrwt>
<pdfrwt beam="2">  1       -1 0.14798190E-02 0.78597583E+02</pdfrwt>
<totfact> 0.21459921E+05</totfact>
</mgrwt>
</event>
<event>
 8    1  0.1520917E-017  0.7443978E+02  0.7818608E-02  0.1345615E+00
         -1   -1    0    0    0  501 -0.00000000000E+00  0.00000000000E+00  0.84913467105E+01  0.84913482063E+01  0.50400000000E-02 0.  1.
          2   -1    0    0  501    0  0.00000000000E+00 -0.00000000000E+00 -0.16314491255E+03  0.16314491257E+03  0.25500000000E-02 0. -1.
         24    2    1    2    0    0  0.44408920985E-15 -0.71054273576E-14 -0.15465356584E+03  0.17163626078E+03  0.74439778254E+02 0.  0.
         66    2    3    3    0    0  0.26383571713E+01 -0.36488047781E+02 -0.92845593738E+02  0.99813039331E+02  0.19999961237E+01 0.  0.
        -13    1    3    3    0    0 -0.26383571713E+01  0.36488047781E+02 -0.61807972103E+02  0.71823221447E+02  0.10566000000E+00 0.  1.
         13    1    4    4    0    0  0.19364948364E+01 -0.31987011508E+02 -0.80699653839E+02  0.86829512329E+02  0.10566000000E+00 0. -1.
        -13    1    4    4    0    0  0.35330411806E+00 -0.29457673452E+01 -0.72345229955E+01  0.78199652211E+01  0.10566000000E+00 0. -1.
         14    1    4    4    0    0  0.34855821678E+00 -0.15552689283E+01 -0.49114169037E+01  0.51635617815E+01  0.00000000000E+00 0. -1.
<mgrwt>
<rscale>  0 0.74439778E+02</rscale>
<asrwt>0</asrwt>
<pdfrwt beam="1">  1        2 0.25099215E-01 0.74439778E+02</pdfrwt>
<pdfrwt beam="2">  1       -1 0.13063613E-02 0.74439778E+02</pdfrwt>
<totfact> 0.24894460E+05</totfact>
</mgrwt>
</event>
<event>
 8    1  0.1520917E-017  0.7949649E+02  0.7818608E-02  0.1330486E+00
         -1   -1    0    0    0  501 -0.00000000000E+00  0.00000000000E+00  0.16898136654E+01  0.16898211815E+01  0.50400000000E-02 0.  1.
          2   -1    0    0  501    0  0.00000000000E+00 -0.00000000000E+00 -0.93496664112E+03  0.93496664113E+03  0.25500000000E-02 0. -1.
         24    2    1    2    0    0  0.00000000000E+00  0.00000000000E+00 -0.93327682746E+03  0.93665646231E+03  0.79496488690E+02 0.  0.
         66    2    3    3    0    0  0.29333980250E+01  0.23781946223E+02 -0.84021860972E+03  0.84056260797E+03  0.19999992984E+01 0.  0.
        -13    1    3    3    0    0 -0.29333980250E+01 -0.23781946223E+02 -0.93058217735E+02  0.96093854342E+02  0.10566000000E+00 0.  1.
         13    1    4    4    0    0  0.19619877200E+01  0.15116219633E+02 -0.55233188809E+03  0.55254219319E+03  0.10566000000E+00 0. -1.
        -13    1    4    4    0    0  0.79678403707E+00  0.84300841988E+01 -0.27499640381E+03  0.27512676071E+03  0.10566000000E+00 0.  1.
        -14    1    4    4    0    0  0.17462626796E+00  0.23564239205E+00 -0.12890317823E+02  0.12893654069E+02  0.00000000000E+00 0.  1.
<mgrwt>
<rscale>  0 0.79496489E+02</rscale>
<asrwt>0</asrwt>
<pdfrwt beam="1">  1        2 0.14384061E+00 0.79496489E+02</pdfrwt>
<pdfrwt beam="2">  1       -1 0.25997266E-03 0.79496489E+02</pdfrwt>
<totfact> 0.35657650E+05</totfact>
</mgrwt>
</event>
<event>
 8    1  0.1520917E-017  0.7845405E+02  0.7818608E-02  0.1333497E+00
          2   -1    0    0  501    0  0.00000000000E+00  0.00000000000E+00  0.15680127441E+03  0.15680127443E+03  0.25500000000E-02 0. -1.
         -1   -1    0    0    0  501 -0.00000000000E+00 -0.00000000000E+00 -0.98134368772E+01  0.98134381714E+01  0.50400000000E-02 0.  1.
         24    2    1    2    0    0  0.00000000000E+00  0.00000000000E+00  0.14698783753E+03  0.16661471260E+03  0.78454050710E+02 0.  0.
         66    2    3    3    0    0  0.36213738748E+02 -0.13394029444E+02  0.87932761014E+02  0.96057302463E+02  0.19999994846E+01 0.  0.
        -13    1    3    3    0    0 -0.36213738748E+02  0.13394029444E+02  0.59055076517E+02  0.70557410138E+02  0.10566000000E+00 0.  1.
         13    1    4    4    0    0  0.22540895176E+02 -0.77214385291E+01  0.52950109853E+02  0.58064084130E+02  0.10566000000E+00 0. -1.
        -13    1    4    4    0    0  0.10348857790E+02 -0.42932918465E+01  0.27277769784E+02  0.29489304855E+02  0.10566000000E+00 0.  1.
         14    1    4    4    0    0  0.33239857829E+01 -0.13792990685E+01  0.77048813771E+01  0.85039134779E+01  0.00000000000E+00 0. -1.
<mgrwt>
<rscale>  0 0.78454051E+02</rscale>
<asrwt>0</asrwt>
<pdfrwt beam="1">  1        2 0.24123270E-01 0.78454051E+02</pdfrwt>
<pdfrwt beam="2">  1       -1 0.15097598E-02 0.78454051E+02</pdfrwt>
<totfact> 0.21397831E+05</totfact>
</mgrwt>
</event>
<event>
 8    1  0.1520917E-017  0.7930521E+02  0.7818608E-02  0.1331035E+00
          2   -1    0    0  501    0  0.00000000000E+00  0.00000000000E+00  0.14340510770E+03  0.14340510773E+03  0.25500000000E-02 0. -1.
         -1   -1    0    0    0  501 -0.00000000000E+00 -0.00000000000E+00 -0.10964246523E+02  0.10964247681E+02  0.50400000000E-02 0.  1.
         24    2    1    2    0    0 -0.71054273576E-14 -0.22204460493E-15  0.13244086118E+03  0.15436935541E+03  0.79305209027E+02 0.  0.
         66    2    3    3    0    0  0.35590787896E+02  0.10742364833E+01  0.10011546281E+03  0.10627776871E+03  0.20000153567E+01 0.  0.
        -13    1    3    3    0    0 -0.35590787896E+02 -0.10742364833E+01  0.32325398368E+02  0.48091586695E+02  0.10566000000E+00 0.  1.
         13    1    4    4    0    0  0.70709928977E+01 -0.19267132558E+00  0.21016225575E+02  0.22174962554E+02  0.10566000000E+00 0. -1.
        -13    1    4    4    0    0  0.17780184108E+02  0.84003161203E+00  0.47507873175E+02  0.50733123082E+02  0.10566000000E+00 0.  1.
        -14    1    4    4    0    0  0.10739610891E+02  0.42687619685E+00  0.31591364062E+02  0.33369683078E+02  0.00000000000E+00 0.  1.
<mgrwt>
<rscale>  0 0.79305209E+02</rscale>
<asrwt>0</asrwt>
<pdfrwt beam="1">  1        2 0.22062324E-01 0.79305209E+02</pdfrwt>
<pdfrwt beam="2">  1       -1 0.16868072E-02 0.79305209E+02</pdfrwt>
<totfact> 0.20206366E+05</totfact>
</mgrwt>
</event>
<event>
 8    1  0.1520917E-017  0.8334540E+02  0.7818608E-02  0.1319817E+00
         -1   -1    0    0    0  501 -0.00000000000E+00  0.00000000000E+00  0.47921997131E+01  0.47922023634E+01  0.50400000000E-02 0.  1.
          2   -1    0    0  501    0  0.00000000000E+00 -0.00000000000E+00 -0.36238334643E+03  0.36238334644E+03  0.25500000000E-02 0. -1.
         24    2    1    2    0    0  0.00000000000E+00  0.00000000000E+00 -0.35759114671E+03  0.36717554880E+03  0.83345398361E+02 0.  0.
         66    2    3    3    0    0  0.31331929496E+02 -0.23626975009E+01 -0.29933256698E+03  0.30098381652E+03  0.20000017699E+01 0.  0.
        -13    1    3    3    0    0 -0.31331929496E+02  0.23626975009E+01 -0.58258579734E+02  0.66191732279E+02  0.10566000000E+00 0.  1.
         13    1    4    4    0    0  0.97341513090E+01 -0.15653737658E+01 -0.92800922805E+02  0.93323236840E+02  0.10566000000E+00 0. -1.
        -13    1    4    4    0    0  0.85388913499E+01 -0.42795018769E+00 -0.78693337931E+02  0.79156480503E+02  0.10566000000E+00 0.  1.
        -14    1    4    4    0    0  0.13058886837E+02 -0.36937354742E+00 -0.12783830624E+03  0.12850409918E+03  0.00000000000E+00 0.  1.
<mgrwt>
<rscale>  0 0.83345398E+02</rscale>
<asrwt>0</asrwt>
<pdfrwt beam="1">  1        2 0.55751263E-01 0.83345398E+02</pdfrwt>
<pdfrwt beam="2">  1       -1 0.73726199E-03 0.83345398E+02</pdfrwt>
<totfact> 0.24507751E+05</totfact>
</mgrwt>
</event>
<event>
 8    1  0.1520917E-017  0.7939043E+02  0.7818608E-02  0.1330790E+00
         -1   -1    0    0    0  501 -0.00000000000E+00  0.00000000000E+00  0.31346320743E+02  0.31346321149E+02  0.50400000000E-02 0.  1.
          2   -1    0    0  501    0  0.00000000000E+00 -0.00000000000E+00 -0.50267778686E+02  0.50267778751E+02  0.25500000000E-02 0. -1.
         24    2    1    2    0    0  0.00000000000E+00  0.00000000000E+00 -0.18921457943E+02  0.81614099899E+02  0.79390425945E+02 0.  0.
         66    2    3    3    0    0  0.26859364604E+02  0.12342707265E+02 -0.36664064926E+02  0.47138323531E+02  0.19999997159E+01 0.  0.
        -13    1    3    3    0    0 -0.26859364604E+02 -0.12342707265E+02  0.17742606983E+02  0.34475776368E+02  0.10566000000E+00 0.  1.
         13    1    4    4    0    0  0.11118498442E+02  0.58962068498E+01 -0.15084533013E+02  0.19645370016E+02  0.10566000000E+00 0. -1.
        -13    1    4    4    0    0  0.25318732651E+01  0.73551742011E+00 -0.30962148282E+01  0.40680558506E+01  0.10566000000E+00 0. -1.
        -14    1    4    4    0    0  0.13208992898E+02  0.57109829948E+01 -0.18483317085E+02  0.23424897665E+02  0.00000000000E+00 0.  1.
<mgrwt>
<rscale>  0 0.79390426E+02</rscale>
<asrwt>0</asrwt>
<pdfrwt beam="1">  1        2 0.77335044E-02 0.79390426E+02</pdfrwt>
<pdfrwt beam="2">  1       -1 0.48225109E-02 0.79390426E+02</pdfrwt>
<totfact> 0.15276916E+05</totfact>
</mgrwt>
</event>
<event>
 8    1  0.1520917E-017  0.7629666E+02  0.7818608E-02  0.1339902E+00
         -1   -1    0    0    0  501 -0.00000000000E+00  0.00000000000E+00  0.10207932306E+02  0.10207933550E+02  0.50400000000E-02 0.  1.
          2   -1    0    0  501    0  0.00000000000E+00 -0.00000000000E+00 -0.14256509349E+03  0.14256509351E+03  0.25500000000E-02 0. -1.
         24    2    1    2    0    0  0.88817841970E-15  0.35527136788E-14 -0.13235716118E+03  0.15277302706E+03  0.76296655766E+02 0.  0.
         66    2    3    3    0    0  0.38401420736E+01  0.28602308641E+02 -0.11610031901E+03  0.11965000135E+03  0.19999995249E+01 0.  0.
        -13    1    3    3    0    0 -0.38401420736E+01 -0.28602308641E+02 -0.16256842171E+02  0.33123025710E+02  0.10566000000E+00 0.  1.
         13    1    4    4    0    0  0.25137796497E+01  0.12197925437E+02 -0.51713352031E+02  0.53192014583E+02  0.10566000000E+00 0. -1.
        -13    1    4    4    0    0  0.10431494325E+01  0.14240171128E+02 -0.55949551936E+02  0.57742827782E+02  0.10566000000E+00 0.  1.
         14    1    4    4    0    0  0.28321299146E+00  0.21642120761E+01 -0.84374150437E+01  0.87151589847E+01  0.00000000000E+00 0. -1.
<mgrwt>
<rscale>  0 0.76296656E+02</rscale>
<asrwt>0</asrwt>
<pdfrwt beam="1">  1        2 0.21933090E-01 0.76296656E+02</pdfrwt>
<pdfrwt beam="2">  1       -1 0.15704513E-02 0.76296656E+02</pdfrwt>
<totfact> 0.22343856E+05</totfact>
</mgrwt>
</event>
<event>
 8    1  0.1520917E-017  0.7856176E+02  0.7818608E-02  0.1333183E+00
         -1   -1    0    0    0  501 -0.00000000000E+00  0.00000000000E+00  0.14934809828E+02  0.14934810679E+02  0.50400000000E-02 0.  1.
          2   -1    0    0  501    0  0.00000000000E+00 -0.00000000000E+00 -0.10331484191E+03  0.10331484194E+03  0.25500000000E-02 0. -1.
         24    2    1    2    0    0  0.35527136788E-14  0.00000000000E+00 -0.88380032081E+02  0.11824965262E+03  0.78561760889E+02 0.  0.
         66    2    3    3    0    0 -0.27742336912E+02  0.65927393835E+01 -0.84827257878E+02  0.89514050338E+02  0.20000147253E+01 0.  0.
        -13    1    3    3    0    0  0.27742336912E+02 -0.65927393835E+01 -0.35527742033E+01  0.28735602282E+02  0.10566000000E+00 0.  1.
         13    1    4    4    0    0 -0.11141066775E+02  0.24974977260E+01 -0.34432813642E+02  0.36276585880E+02  0.10566000000E+00 0. -1.
        -13    1    4    4    0    0 -0.50770203042E+01  0.68047447452E+00 -0.16311842311E+02  0.17097559600E+02  0.10566000000E+00 0.  1.
         14    1    4    4    0    0 -0.11524249833E+02  0.34147671830E+01 -0.34082601925E+02  0.36139904857E+02  0.00000000000E+00 0. -1.
<mgrwt>
<rscale>  0 0.78561761E+02</rscale>
<asrwt>0</asrwt>
<pdfrwt beam="1">  1        2 0.15894591E-01 0.78561761E+02</pdfrwt>
<pdfrwt beam="2">  1       -1 0.22976632E-02 0.78561761E+02</pdfrwt>
<totfact> 0.18778530E+05</totfact>
</mgrwt>
</event>
<event>
 8    1  0.1520917E-017  0.8077599E+02  0.7818608E-02  0.1326864E+00
         -1   -1    0    0    0  501 -0.00000000000E+00  0.00000000000E+00  0.99000350960E+01  0.99000363789E+01  0.50400000000E-02 0.  1.
          2   -1    0    0  501    0  0.00000000000E+00 -0.00000000000E+00 -0.16476610222E+03  0.16476610224E+03  0.25500000000E-02 0. -1.
         24    2    1    2    0    0  0.17763568394E-14  0.35527136788E-14 -0.15486606712E+03  0.17466613862E+03  0.80775994165E+02 0.  0.
         66    2    3    3    0    0  0.83578140106E+01  0.29581630289E+02 -0.20916802448E+02  0.37234910083E+02  0.19999996583E+01 0.  0.
        -13    1    3    3    0    0 -0.83578140106E+01 -0.29581630289E+02 -0.13394926467E+03  0.13743122853E+03  0.10566000000E+00 0.  1.
         13    1    4    4    0    0  0.42273254582E+01  0.15941489695E+02 -0.10678227254E+02  0.19647826230E+02  0.10566000000E+00 0. -1.
        -13    1    4    4    0    0  0.20948749886E+01  0.87470359482E+01 -0.62196004646E+01  0.10935891965E+02  0.10566000000E+00 0.  1.
        -14    1    4    4    0    0  0.20356135638E+01  0.48931046454E+01 -0.40189747298E+01  0.66511918880E+01  0.00000000000E+00 0.  1.
<mgrwt>
<rscale>  0 0.80775994E+02</rscale>
<asrwt>0</asrwt>
<pdfrwt beam="1">  1        2 0.25348629E-01 0.80775994E+02</pdfrwt>
<pdfrwt beam="2">  1       -1 0.15230826E-02 0.80775994E+02</pdfrwt>
<totfact> 0.20132058E+05</totfact>
</mgrwt>
</event>
<event>
 8    1  0.1520917E-017  0.8011643E+02  0.7818608E-02  0.1328721E+00
          2   -1    0    0  501    0  0.00000000000E+00  0.00000000000E+00  0.12028866095E+03  0.12028866097E+03  0.25500000000E-02 0. -1.
         -1   -1    0    0    0  501 -0.00000000000E+00 -0.00000000000E+00 -0.13340081844E+02  0.13340082796E+02  0.50400000000E-02 0.  1.
         24    2    1    2    0    0  0.00000000000E+00  0.00000000000E+00  0.10694857910E+03  0.13362874377E+03  0.80116431455E+02 0.  0.
         66    2    3    3    0    0 -0.92505035083E+01  0.36377755470E+02  0.76723716982E+02  0.85436769723E+02  0.19999912468E+01 0.  0.
        -13    1    3    3    0    0  0.92505035083E+01 -0.36377755470E+02  0.30224862120E+02  0.48191974045E+02  0.10566000000E+00 0.  1.
         13    1    4    4    0    0 -0.74081682301E+01  0.26859634266E+02  0.57517761914E+02  0.63911071099E+02  0.10566000000E+00 0. -1.
        -13    1    4    4    0    0 -0.55037120358E+00  0.35550699015E+01  0.78037726184E+01  0.85936873100E+01  0.10566000000E+00 0.  1.
        -14    1    4    4    0    0 -0.12919640746E+01  0.59630513025E+01  0.11402182450E+02  0.12932011314E+02  0.00000000000E+00 0.  1.
<mgrwt>
<rscale>  0 0.80116431E+02</rscale>
<asrwt>0</asrwt>
<pdfrwt beam="1">  1        2 0.18505948E-01 0.80116431E+02</pdfrwt>
<pdfrwt beam="2">  1       -1 0.20523204E-02 0.80116431E+02</pdfrwt>
<totfact> 0.18627601E+05</totfact>
</mgrwt>
</event>
<event>
 8    1  0.1520917E-017  0.8039964E+02  0.7818608E-02  0.1327921E+00
         -1   -1    0    0    0  501 -0.00000000000E+00  0.00000000000E+00  0.13941445814E+02  0.13941446725E+02  0.50400000000E-02 0.  1.
          2   -1    0    0  501    0  0.00000000000E+00 -0.00000000000E+00 -0.11591520243E+03  0.11591520245E+03  0.25500000000E-02 0. -1.
         24    2    1    2    0    0  0.00000000000E+00  0.00000000000E+00 -0.10197375661E+03  0.12985664918E+03  0.80399641159E+02 0.  0.
         66    2    3    3    0    0  0.18454674991E+02  0.35662241949E+02 -0.53093065448E+02  0.66597628775E+02  0.20000074863E+01 0.  0.
        -13    1    3    3    0    0 -0.18454674991E+02 -0.35662241949E+02 -0.48880691164E+02  0.63259020405E+02  0.10566000000E+00 0.  1.
         13    1    4    4    0    0  0.29133944045E+01  0.50421001471E+01 -0.87063624033E+01  0.10474853277E+02  0.10566000000E+00 0.  1.
        -13    1    4    4    0    0  0.62725804798E+01  0.12879493523E+02 -0.18150711203E+02  0.23123280487E+02  0.10566000000E+00 0. -1.
        -14    1    4    4    0    0  0.92687001066E+01  0.17740648279E+02 -0.26235991842E+02  0.32999495010E+02  0.00000000000E+00 0.  1.
<mgrwt>
<rscale>  0 0.80399641E+02</rscale>
<asrwt>0</asrwt>
<pdfrwt beam="1">  1        2 0.17833107E-01 0.80399641E+02</pdfrwt>
<pdfrwt beam="2">  1       -1 0.21448380E-02 0.80399641E+02</pdfrwt>
<totfact> 0.18250726E+05</totfact>
</mgrwt>
</event>
<event>
 8    1  0.1520917E-017  0.8003306E+02  0.7818608E-02  0.1328958E+00
          2   -1    0    0  501    0  0.00000000000E+00  0.00000000000E+00  0.21580323740E+03  0.21580323741E+03  0.25500000000E-02 0. -1.
         -1   -1    0    0    0  501 -0.00000000000E+00 -0.00000000000E+00 -0.74202887061E+01  0.74202904177E+01  0.50400000000E-02 0.  1.
         24    2    1    2    0    0  0.00000000000E+00  0.00000000000E+00  0.20838294869E+03  0.22322352783E+03  0.80033056118E+02 0.  0.
         66    2    3    3    0    0  0.34325899711E+02 -0.31804585301E+01  0.16079652122E+03  0.16446246971E+03  0.20000001827E+01 0.  0.
        -13    1    3    3    0    0 -0.34325899711E+02  0.31804585301E+01  0.47586427473E+02  0.58761058118E+02  0.10566000000E+00 0.  1.
         13    1    4    4    0    0  0.30097227164E+02 -0.28309147501E+01  0.14023726391E+03  0.14345856027E+03  0.10566000000E+00 0. -1.
        -13    1    4    4    0    0  0.40872709205E+01 -0.28695185713E+00  0.19003217005E+02  0.19440204359E+02  0.10566000000E+00 0.  1.
         14    1    4    4    0    0  0.14140162602E+00 -0.62591922902E-01  0.15560403017E+01  0.15637050838E+01  0.00000000000E+00 0. -1.
<mgrwt>
<rscale>  0 0.80033056E+02</rscale>
<asrwt>0</asrwt>
<pdfrwt beam="1">  1        2 0.33200497E-01 0.80033056E+02</pdfrwt>
<pdfrwt beam="2">  1       -1 0.11415831E-02 0.80033056E+02</pdfrwt>
<totfact> 0.22628306E+05</totfact>
</mgrwt>
</event>
<event>
 8    1  0.1631228E-017  0.8014983E+02  0.7818608E-02  0.1328627E+00
         -1   -1    0    0    0  501 -0.00000000000E+00  0.00000000000E+00  0.10882066363E+03  0.10882066375E+03  0.50400000000E-02 0.  1.
          2   -1    0    0  501    0  0.00000000000E+00 -0.00000000000E+00 -0.14758215601E+02  0.14758215822E+02  0.25500000000E-02 0. -1.
         24    2    1    2    0    0 -0.14210854715E-13 -0.88817841970E-15  0.94062448032E+02  0.12357887957E+03  0.80149830607E+02 0.  0.
         66    2    3    3    0    0  0.33658571847E+02  0.56953025989E+01  0.14767705678E+02  0.37248101401E+02  0.19999991267E+01 0.  0.
        -13    1    3    3    0    0 -0.33658571847E+02 -0.56953025989E+01  0.79294742354E+02  0.86330778171E+02  0.10566000000E+00 0.  1.
         13    1    4    4    0    0  0.17968564036E+02  0.35485446973E+01  0.76111145620E+01  0.19834356352E+02  0.10566000000E+00 0.  1.
        -13    1    4    4    0    0  0.13077845124E+02  0.20376670432E+01  0.56079294649E+01  0.14375053287E+02  0.10566000000E+00 0. -1.
        -14    1    4    4    0    0  0.26121626868E+01  0.10909085840E+00  0.15486616507E+01  0.30386917623E+01  0.00000000000E+00 0.  1.
<mgrwt>
<rscale>  0 0.80149831E+02</rscale>
<asrwt>0</asrwt>
<pdfrwt beam="1">  1        2 0.22704947E-02 0.80149831E+02</pdfrwt>
<pdfrwt beam="2">  1       -1 0.16741641E-01 0.80149831E+02</pdfrwt>
<totfact> 0.11582947E+05</totfact>
</mgrwt>
</event>
<event>
 8    1  0.1520917E-017  0.8596404E+02  0.7818608E-02  0.1312931E+00
         -1   -1    0    0    0  501 -0.00000000000E+00  0.00000000000E+00  0.39705370909E+01  0.39705402897E+01  0.50400000000E-02 0.  1.
          2   -1    0    0  501    0  0.00000000000E+00 -0.00000000000E+00 -0.46529051316E+03  0.46529051317E+03  0.25500000000E-02 0. -1.
         24    2    1    2    0    0  0.00000000000E+00  0.00000000000E+00 -0.46131997607E+03  0.46926105346E+03  0.85964038824E+02 0.  0.
         66    2    3    3    0    0 -0.14668724261E+02 -0.24402118345E+01 -0.45079016349E+03  0.45103979603E+03  0.19999997014E+01 0.  0.
        -13    1    3    3    0    0  0.14668724261E+02  0.24402118345E+01 -0.10529812581E+02  0.18221257428E+02  0.10566000000E+00 0.  1.
         13    1    4    4    0    0 -0.58985581754E+01 -0.39540866095E+00 -0.16727660759E+03  0.16738107404E+03  0.10566000000E+00 0. -1.
        -13    1    4    4    0    0 -0.33624554443E+00  0.86388626018E-01 -0.14564220337E+02  0.14568740581E+02  0.10566000000E+00 0.  1.
         14    1    4    4    0    0 -0.84339205408E+01 -0.21311917996E+01 -0.26894933556E+03  0.26908998141E+03  0.00000000000E+00 0. -1.
<mgrwt>
<rscale>  0 0.85964039E+02</rscale>
<asrwt>0</asrwt>
<pdfrwt beam="1">  1        2 0.71583113E-01 0.85964039E+02</pdfrwt>
<pdfrwt beam="2">  1       -1 0.61085248E-03 0.85964039E+02</pdfrwt>
<totfact> 0.24645036E+05</totfact>
</mgrwt>
</event>
<event>
 8    1  0.1520917E-017  0.7980857E+02  0.7818608E-02  0.1329596E+00
          2   -1    0    0  501    0  0.00000000000E+00  0.00000000000E+00  0.57493549646E+03  0.57493549646E+03  0.25500000000E-02 0. -1.
         -1   -1    0    0    0  501 -0.00000000000E+00 -0.00000000000E+00 -0.27696163833E+01  0.27696209690E+01  0.50400000000E-02 0.  1.
         24    2    1    2    0    0  0.00000000000E+00 -0.71054273576E-14  0.57216588007E+03  0.57770511743E+03  0.79808573388E+02 0.  0.
         66    2    3    3    0    0 -0.63367961965E+01 -0.32887724575E+02  0.44295634456E+03  0.44422525886E+03  0.20000014216E+01 0.  0.
        -13    1    3    3    0    0  0.63367961965E+01  0.32887724575E+02  0.12920953551E+03  0.13347985858E+03  0.10566000000E+00 0.  1.
         13    1    4    4    0    0 -0.47810472907E+01 -0.22079862628E+02  0.30318196520E+03  0.30402252208E+03  0.10566000000E+00 0. -1.
        -13    1    4    4    0    0 -0.15766550892E+01 -0.86956352397E+01  0.11351050504E+03  0.11385405496E+03  0.10566000000E+00 0.  1.
         14    1    4    4    0    0  0.20906183450E-01 -0.21122267077E+01  0.26263874325E+02  0.26348681813E+02  0.00000000000E+00 0. -1.
<mgrwt>
<rscale>  0 0.79808573E+02</rscale>
<asrwt>0</asrwt>
<pdfrwt beam="1">  1        2 0.88451690E-01 0.79808573E+02</pdfrwt>
<pdfrwt beam="2">  1       -1 0.42609482E-03 0.79808573E+02</pdfrwt>
<totfact> 0.31974811E+05</totfact>
</mgrwt>
</event>
<event>
 8    1  0.1520917E-017  0.8209567E+02  0.7818608E-02  0.1323207E+00
         -1   -1    0    0    0  501 -0.00000000000E+00  0.00000000000E+00  0.27449552021E+02  0.27449552484E+02  0.50400000000E-02 0.  1.
          2   -1    0    0  501    0  0.00000000000E+00 -0.00000000000E+00 -0.61382593897E+02  0.61382593950E+02  0.25500000000E-02 0. -1.
         24    2    1    2    0    0  0.00000000000E+00  0.71054273576E-14 -0.33933041876E+02  0.88832146434E+02  0.82095669247E+02 0.  0.
         66    2    3    3    0    0  0.13894101562E+02  0.35024363669E+02 -0.34530160088E+02  0.51147669221E+02  0.20000006081E+01 0.  0.
        -13    1    3    3    0    0 -0.13894101562E+02 -0.35024363669E+02  0.59711821136E+00  0.37684477213E+02  0.10566000000E+00 0.  1.
         13    1    4    4    0    0  0.30528308142E+01  0.93279125693E+01 -0.84393627967E+01  0.12944641259E+02  0.10566000000E+00 0. -1.
        -13    1    4    4    0    0  0.43964815741E+01  0.10335836569E+02 -0.11136386567E+02  0.15817358744E+02  0.10566000000E+00 0.  1.
         14    1    4    4    0    0  0.64447891738E+01  0.15360614530E+02 -0.14954410724E+02  0.22385669218E+02  0.00000000000E+00 0. -1.
<mgrwt>
<rscale>  0 0.82095669E+02</rscale>
<asrwt>0</asrwt>
<pdfrwt beam="1">  1        2 0.94434759E-02 0.82095669E+02</pdfrwt>
<pdfrwt beam="2">  1       -1 0.42230081E-02 0.82095669E+02</pdfrwt>
<totfact> 0.14584554E+05</totfact>
</mgrwt>
</event>
<event>
 8    1  0.1520917E-017  0.8278311E+02  0.7818608E-02  0.1321334E+00
         -1   -1    0    0    0  501 -0.00000000000E+00  0.00000000000E+00  0.56197548972E+01  0.56197571573E+01  0.50400000000E-02 0.  1.
          2   -1    0    0  501    0  0.00000000000E+00 -0.00000000000E+00 -0.30486389138E+03  0.30486389139E+03  0.25500000000E-02 0. -1.
         24    2    1    2    0    0  0.17763568394E-14  0.35527136788E-14 -0.29924413648E+03  0.31048364854E+03  0.82783106949E+02 0.  0.
         66    2    3    3    0    0 -0.13505127575E+02 -0.16579701781E+02 -0.28252272300E+03  0.28333789723E+03  0.20000022478E+01 0.  0.
        -13    1    3    3    0    0  0.13505127575E+02  0.16579701781E+02 -0.16721413474E+02  0.27145751317E+02  0.10566000000E+00 0.  1.
         13    1    4    4    0    0 -0.39786370714E+01 -0.61938847063E+01 -0.94295039627E+02  0.94582024841E+02  0.10566000000E+00 0. -1.
        -13    1    4    4    0    0 -0.63877644332E+01 -0.72803918917E+01 -0.13246892284E+03  0.13282256707E+03  0.10566000000E+00 0.  1.
        -14    1    4    4    0    0 -0.31387260707E+01 -0.31054251828E+01 -0.55758760534E+02  0.55933305312E+02  0.00000000000E+00 0.  1.
<mgrwt>
<rscale>  0 0.82783107E+02</rscale>
<asrwt>0</asrwt>
<pdfrwt beam="1">  1        2 0.46902124E-01 0.82783107E+02</pdfrwt>
<pdfrwt beam="2">  1       -1 0.86457809E-03 0.82783107E+02</pdfrwt>
<totfact> 0.23441136E+05</totfact>
</mgrwt>
</event>
<event>
 8    1  0.1520917E-017  0.7900552E+02  0.7818608E-02  0.1331898E+00
         -1   -1    0    0    0  501 -0.00000000000E+00  0.00000000000E+00  0.10039489170E+02  0.10039490435E+02  0.50400000000E-02 0.  1.
          2   -1    0    0  501    0  0.00000000000E+00 -0.00000000000E+00 -0.15543299717E+03  0.15543299719E+03  0.25500000000E-02 0. -1.
         24    2    1    2    0    0  0.00000000000E+00  0.13877787808E-16 -0.14539350800E+03  0.16547248763E+03  0.79005518746E+02 0.  0.
         66    2    3    3    0    0 -0.38758809585E+02  0.57979820973E-01 -0.88446550814E+02  0.96586960996E+02  0.20000003860E+01 0.  0.
        -13    1    3    3    0    0  0.38758809585E+02 -0.57979820973E-01 -0.56946957186E+02  0.68885526629E+02  0.10566000000E+00 0.  1.
         13    1    4    4    0    0 -0.48175351231E+01 -0.25932210330E+00 -0.12291615021E+02  0.13204955754E+02  0.10566000000E+00 0. -1.
        -13    1    4    4    0    0 -0.47326819142E+00 -0.86291525506E-02 -0.10126757045E+01  0.11228238336E+01  0.10566000000E+00 0. -1.
         14    1    4    4    0    0 -0.33468006271E+02  0.32593107683E+00 -0.75142260088E+02  0.82259181409E+02  0.00000000000E+00 0. -1.
<mgrwt>
<rscale>  0 0.79005519E+02</rscale>
<asrwt>0</asrwt>
<pdfrwt beam="1">  1        2 0.23912767E-01 0.79005519E+02</pdfrwt>
<pdfrwt beam="2">  1       -1 0.15445370E-02 0.79005519E+02</pdfrwt>
<totfact> 0.20945020E+05</totfact>
</mgrwt>
</event>
<event>
 8    1  0.1520917E-017  0.8009898E+02  0.7818608E-02  0.1328771E+00
         -1   -1    0    0    0  501 -0.00000000000E+00  0.00000000000E+00  0.33740392817E+02  0.33740393194E+02  0.50400000000E-02 0.  1.
          2   -1    0    0  501    0  0.00000000000E+00 -0.00000000000E+00 -0.47538325415E+02  0.47538325483E+02  0.25500000000E-02 0. -1.
         24    2    1    2    0    0  0.00000000000E+00  0.00000000000E+00 -0.13797932597E+02  0.81278718677E+02  0.80098983550E+02 0.  0.
         66    2    3    3    0    0 -0.10699731375E+02 -0.10658206355E+02 -0.44515001000E+02  0.47049621852E+02  0.19999970451E+01 0.  0.
        -13    1    3    3    0    0  0.10699731375E+02  0.10658206355E+02  0.30717068402E+02  0.34229096825E+02  0.10566000000E+00 0.  1.
         13    1    4    4    0    0 -0.37478297669E+01 -0.39539016426E+01 -0.15597206844E+02  0.16521609835E+02  0.10566000000E+00 0. -1.
        -13    1    4    4    0    0 -0.69927978978E+01 -0.65194199247E+01 -0.27900321122E+02  0.29493069378E+02  0.10566000000E+00 0.  1.
        -14    1    4    4    0    0  0.40896290191E-01 -0.18488478806E+00 -0.10174730334E+01  0.10349426385E+01  0.00000000000E+00 0.  1.
<mgrwt>
<rscale>  0 0.80098984E+02</rscale>
<asrwt>0</asrwt>
<pdfrwt beam="1">  1        2 0.73135886E-02 0.80098984E+02</pdfrwt>
<pdfrwt beam="2">  1       -1 0.51908297E-02 0.80098984E+02</pdfrwt>
<totfact> 0.14730798E+05</totfact>
</mgrwt>
</event>
<event>
 8    1  0.1520917E-017  0.8071695E+02  0.7818608E-02  0.1327029E+00
          2   -1    0    0  501    0  0.00000000000E+00  0.00000000000E+00  0.15460704152E+03  0.15460704154E+03  0.25500000000E-02 0. -1.
         -1   -1    0    0    0  501 -0.00000000000E+00 -0.00000000000E+00 -0.10535138172E+02  0.10535139378E+02  0.50400000000E-02 0.  1.
         24    2    1    2    0    0  0.00000000000E+00  0.00000000000E+00  0.14407190335E+03  0.16514218092E+03  0.80716953513E+02 0.  0.
         66    2    3    3    0    0 -0.18534582146E+02  0.11336286021E+02  0.14160474060E+03  0.14327576439E+03  0.19999956361E+01 0.  0.
        -13    1    3    3    0    0  0.18534582146E+02 -0.11336286021E+02  0.24671627472E+01  0.21866416537E+02  0.10566000000E+00 0.  1.
         13    1    4    4    0    0 -0.57675010362E+01  0.38019949075E+01  0.41687084549E+02  0.42255690927E+02  0.10566000000E+00 0. -1.
        -13    1    4    4    0    0 -0.93555371475E+01  0.48953125656E+01  0.69153062561E+02  0.69954609470E+02  0.10566000000E+00 0.  1.
        -14    1    4    4    0    0 -0.34115439626E+01  0.26389785481E+01  0.30764593493E+02  0.31065463988E+02  0.00000000000E+00 0.  1.
<mgrwt>
<rscale>  0 0.80716954E+02</rscale>
<asrwt>0</asrwt>
<pdfrwt beam="1">  1        2 0.23785696E-01 0.80716954E+02</pdfrwt>
<pdfrwt beam="2">  1       -1 0.16207908E-02 0.80716954E+02</pdfrwt>
<totfact> 0.19753901E+05</totfact>
</mgrwt>
</event>
<event>
 8    1  0.1520917E-017  0.7811100E+02  0.7818608E-02  0.1334499E+00
          2   -1    0    0  501    0  0.00000000000E+00  0.00000000000E+00  0.59519341305E+01  0.59519346767E+01  0.25500000000E-02 0. -1.
         -1   -1    0    0    0  501 -0.00000000000E+00 -0.00000000000E+00 -0.25627500097E+03  0.25627500102E+03  0.50400000000E-02 0.  1.
         24    2    1    2    0    0  0.00000000000E+00  0.00000000000E+00 -0.25032306684E+03  0.26222693569E+03  0.78110998026E+02 0.  0.
         66    2    3    3    0    0 -0.36471227079E+02 -0.93191299483E+01 -0.90625994063E+02  0.98153285145E+02  0.19999993082E+01 0.  0.
        -13    1    3    3    0    0  0.36471227079E+02  0.93191299483E+01 -0.15969707277E+03  0.16407365055E+03  0.10566000000E+00 0.  1.
         13    1    4    4    0    0 -0.75103767057E+01 -0.24443050574E+01 -0.18429395234E+02  0.20050789466E+02  0.10566000000E+00 0. -1.
        -13    1    4    4    0    0 -0.73146563982E+01 -0.11799544655E+01 -0.17723960422E+02  0.19210581142E+02  0.10566000000E+00 0.  1.
         14    1    4    4    0    0 -0.21646193975E+02 -0.56948704254E+01 -0.54472638407E+02  0.58891914536E+02  0.00000000000E+00 0. -1.
<mgrwt>
<rscale>  0 0.78110998E+02</rscale>
<asrwt>0</asrwt>
<pdfrwt beam="1">  1        2 0.91568241E-03 0.78110998E+02</pdfrwt>
<pdfrwt beam="2">  1       -1 0.39426915E-01 0.78110998E+02</pdfrwt>
<totfact> 0.97575886E+04</totfact>
</mgrwt>
</event>
<event>
 8    1  0.1520917E-017  0.8010898E+02  0.7818608E-02  0.1328742E+00
          2   -1    0    0  501    0  0.00000000000E+00  0.00000000000E+00  0.28621220591E+03  0.28621220592E+03  0.25500000000E-02 0. -1.
         -1   -1    0    0    0  501 -0.00000000000E+00 -0.00000000000E+00 -0.56054969705E+01  0.56054992362E+01  0.50400000000E-02 0.  1.
         24    2    1    2    0    0  0.00000000000E+00  0.00000000000E+00  0.28060670894E+03  0.29181770516E+03  0.80108975412E+02 0.  0.
         66    2    3    3    0    0 -0.33930848988E+02 -0.10379534830E+02  0.72894276994E+02  0.81096318475E+02  0.19999988754E+01 0.  0.
        -13    1    3    3    0    0  0.33930848988E+02  0.10379534830E+02  0.20771243195E+03  0.21072138668E+03  0.10566000000E+00 0.  1.
         13    1    4    4    0    0 -0.73032689861E+01 -0.17013567802E+01  0.15035350246E+02  0.16801942561E+02  0.10566000000E+00 0. -1.
        -13    1    4    4    0    0 -0.21123281436E+02 -0.73291644965E+01  0.45403024338E+02  0.50609835545E+02  0.10566000000E+00 0.  1.
        -14    1    4    4    0    0 -0.55042985664E+01 -0.13490135531E+01  0.12455902409E+02  0.13684540369E+02  0.00000000000E+00 0.  1.
<mgrwt>
<rscale>  0 0.80108975E+02</rscale>
<asrwt>0</asrwt>
<pdfrwt beam="1">  1        2 0.44032656E-01 0.80108975E+02</pdfrwt>
<pdfrwt beam="2">  1       -1 0.86238415E-03 0.80108975E+02</pdfrwt>
<totfact> 0.24974311E+05</totfact>
</mgrwt>
</event>
<event>
 8    1  0.1520917E-017  0.8678619E+02  0.7818608E-02  0.1310826E+00
         -1   -1    0    0    0  501 -0.00000000000E+00  0.00000000000E+00  0.19775405006E+01  0.19775469231E+01  0.50400000000E-02 0.  1.
          2   -1    0    0  501    0  0.00000000000E+00 -0.00000000000E+00 -0.95217155253E+03  0.95217155253E+03  0.25500000000E-02 0. -1.
         24    2    1    2    0    0 -0.35527136788E-14 -0.35527136788E-14 -0.95019401203E+03  0.95414909945E+03  0.86786194162E+02 0.  0.
         66    2    3    3    0    0  0.14191240691E+02  0.31327933587E+02 -0.76583930862E+03  0.76661377327E+03  0.20000005887E+01 0.  0.
        -13    1    3    3    0    0 -0.14191240691E+02 -0.31327933587E+02 -0.18435470341E+03  0.18753532618E+03  0.10566000000E+00 0.  1.
         13    1    4    4    0    0  0.41699655336E+01  0.78763132046E+01 -0.19116071494E+03  0.19136837519E+03  0.10566000000E+00 0. -1.
        -13    1    4    4    0    0  0.14400531486E+01  0.44549160402E+01 -0.10823274051E+03  0.10833400811E+03  0.10566000000E+00 0.  1.
        -14    1    4    4    0    0  0.85812220089E+01  0.18996704342E+02 -0.46644585316E+03  0.46691138997E+03  0.00000000000E+00 0.  1.
<mgrwt>
<rscale>  0 0.86786194E+02</rscale>
<asrwt>0</asrwt>
<pdfrwt beam="1">  1        2 0.14648757E+00 0.86786194E+02</pdfrwt>
<pdfrwt beam="2">  1       -1 0.30423826E-03 0.86786194E+02</pdfrwt>
<totfact> 0.28411335E+05</totfact>
</mgrwt>
</event>
<event>
 8    1  0.1520917E-017  0.8472092E+02  0.7818608E-02  0.1316164E+00
          2   -1    0    0  501    0  0.00000000000E+00  0.00000000000E+00  0.58850390057E+01  0.58850395581E+01  0.25500000000E-02 0. -1.
         -1   -1    0    0    0  501 -0.00000000000E+00 -0.00000000000E+00 -0.30491022524E+03  0.30491022528E+03  0.50400000000E-02 0.  1.
         24    2    1    2    0    0  0.00000000000E+00  0.00000000000E+00 -0.29902518623E+03  0.31079526484E+03  0.84720922117E+02 0.  0.
         66    2    3    3    0    0  0.38561919048E+02 -0.41222669060E+01 -0.87297836442E+02  0.95545418152E+02  0.19999993216E+01 0.  0.
        -13    1    3    3    0    0 -0.38561919048E+02  0.41222669060E+01 -0.21172734979E+03  0.21524984669E+03  0.10566000000E+00 0.  1.
         13    1    4    4    0    0  0.33921630603E+02 -0.34237150866E+01 -0.77802273741E+02  0.84944710319E+02  0.10566000000E+00 0. -1.
        -13    1    4    4    0    0  0.38565666826E+00 -0.97881455054E-01 -0.96341503673E+00  0.10476852646E+01  0.10566000000E+00 0. -1.
         14    1    4    4    0    0  0.42546317758E+01 -0.60067036435E+00 -0.85321476642E+01  0.95530225687E+01  0.00000000000E+00 0. -1.
<mgrwt>
<rscale>  0 0.84720922E+02</rscale>
<asrwt>0</asrwt>
<pdfrwt beam="1">  1        2 0.90539090E-03 0.84720922E+02</pdfrwt>
<pdfrwt beam="2">  1       -1 0.46909253E-01 0.84720922E+02</pdfrwt>
<totfact> 0.74105275E+04</totfact>
</mgrwt>
</event>
<event>
 8    1  0.1520917E-017  0.8029803E+02  0.7818608E-02  0.1328208E+00
         -1   -1    0    0    0  501 -0.00000000000E+00  0.00000000000E+00  0.65307033701E+01  0.65307053149E+01  0.50400000000E-02 0.  1.
          2   -1    0    0  501    0  0.00000000000E+00 -0.00000000000E+00 -0.24682534985E+03  0.24682534987E+03  0.25500000000E-02 0. -1.
         24    2    1    2    0    0  0.44408920985E-15  0.00000000000E+00 -0.24029464648E+03  0.25335605518E+03  0.80298029668E+02 0.  0.
         66    2    3    3    0    0 -0.23871686225E+01  0.21596181548E+02 -0.22665259467E+03  0.22770044423E+03  0.20000001535E+01 0.  0.
        -13    1    3    3    0    0  0.23871686225E+01 -0.21596181548E+02 -0.13642051810E+02  0.25655610948E+02  0.10566000000E+00 0.  1.
         13    1    4    4    0    0 -0.12526333979E+01  0.15569270620E+02 -0.16359318923E+03  0.16433719605E+03  0.10566000000E+00 0. -1.
        -13    1    4    4    0    0  0.90604785948E-01  0.14125889316E+01 -0.13498086785E+02  0.13572513681E+02  0.10566000000E+00 0.  1.
        -14    1    4    4    0    0 -0.12251400105E+01  0.46143219962E+01 -0.49561318657E+02  0.49790734505E+02  0.00000000000E+00 0.  1.
<mgrwt>
<rscale>  0 0.80298030E+02</rscale>
<asrwt>0</asrwt>
<pdfrwt beam="1">  1        2 0.37973124E-01 0.80298030E+02</pdfrwt>
<pdfrwt beam="2">  1       -1 0.10047239E-02 0.80298030E+02</pdfrwt>
<totfact> 0.23528193E+05</totfact>
</mgrwt>
</event>
<event>
 8    1  0.1520917E-017  0.7906083E+02  0.7818608E-02  0.1331738E+00
         -1   -1    0    0    0  501 -0.00000000000E+00  0.00000000000E+00  0.19703290943E+02  0.19703291587E+02  0.50400000000E-02 0.  1.
          2   -1    0    0  501    0  0.00000000000E+00 -0.00000000000E+00 -0.79309282476E+02  0.79309282517E+02  0.25500000000E-02 0. -1.
         24    2    1    2    0    0  0.35527136788E-14  0.00000000000E+00 -0.59605991533E+02  0.99012574105E+02  0.79060834831E+02 0.  0.
         66    2    3    3    0    0 -0.28318253712E+02 -0.27530111343E+02 -0.30954987197E+02  0.50219933908E+02  0.20000013761E+01 0.  0.
        -13    1    3    3    0    0  0.28318253712E+02  0.27530111343E+02 -0.28651004337E+02  0.48792640197E+02  0.10566000000E+00 0.  1.
         13    1    4    4    0    0 -0.55741278825E+01 -0.48948846241E+01 -0.59839427161E+01  0.95315020642E+01  0.10566000000E+00 0. -1.
        -13    1    4    4    0    0 -0.11676225004E+02 -0.12568240399E+02 -0.13789911864E+02  0.22010627667E+02  0.10566000000E+00 0.  1.
        -14    1    4    4    0    0 -0.11067900826E+02 -0.10066986320E+02 -0.11181132617E+02  0.18677804176E+02  0.00000000000E+00 0.  1.
<mgrwt>
<rscale>  0 0.79060835E+02</rscale>
<asrwt>0</asrwt>
<pdfrwt beam="1">  1        2 0.12201428E-01 0.79060835E+02</pdfrwt>
<pdfrwt beam="2">  1       -1 0.30312756E-02 0.79060835E+02</pdfrwt>
<totfact> 0.17197168E+05</totfact>
</mgrwt>
</event>
<event>
 8    1  0.1520917E-017  0.8150156E+02  0.7818608E-02  0.1324843E+00
          2   -1    0    0  501    0  0.00000000000E+00  0.00000000000E+00  0.17081269655E+04  0.17081269655E+04  0.25500000000E-02 0. -1.
         -1   -1    0    0    0  501 -0.00000000000E+00 -0.00000000000E+00 -0.97218469078E+00  0.97219775487E+00  0.50400000000E-02 0.  1.
         24    2    1    2    0    0  0.00000000000E+00  0.00000000000E+00  0.17071547808E+04  0.17090991632E+04  0.81501559525E+02 0.  0.
         66    2    3    3    0    0  0.14655286276E+02  0.25427629081E+01  0.16491260499E+04  0.16491943401E+04  0.19999981285E+01 0.  0.
        -13    1    3    3    0    0 -0.14655286276E+02 -0.25427629081E+01  0.58028730887E+02  0.59904823106E+02  0.10566000000E+00 0.  1.
         13    1    4    4    0    0  0.45663168969E+01  0.50216675606E+00  0.56093108129E+03  0.56094990199E+03  0.10566000000E+00 0. -1.
        -13    1    4    4    0    0  0.20169472656E+01  0.35578443782E+00  0.27566404868E+03  0.27567167711E+03  0.10566000000E+00 0.  1.
        -14    1    4    4    0    0  0.80720221132E+01  0.16848117143E+01  0.81253091991E+03  0.81257276101E+03  0.00000000000E+00 0.  1.
<mgrwt>
<rscale>  0 0.81501560E+02</rscale>
<asrwt>0</asrwt>
<pdfrwt beam="1">  1        2 0.26278796E+00 0.81501560E+02</pdfrwt>
<pdfrwt beam="2">  1       -1 0.14956834E-03 0.81501560E+02</pdfrwt>
<totfact> 0.29769934E+05</totfact>
</mgrwt>
</event>
<event>
 8    1  0.1520917E-017  0.8318130E+02  0.7818608E-02  0.1320258E+00
          2   -1    0    0  501    0  0.00000000000E+00  0.00000000000E+00  0.53998465714E+02  0.53998465774E+02  0.25500000000E-02 0. -1.
         -1   -1    0    0    0  501 -0.00000000000E+00 -0.00000000000E+00 -0.32033916374E+02  0.32033916771E+02  0.50400000000E-02 0.  1.
         24    2    1    2    0    0  0.71054273576E-14  0.88817841970E-15  0.21964549339E+02  0.86032382544E+02  0.83181304502E+02 0.  0.
         66    2    3    3    0    0  0.40932831228E+02  0.64585809136E+01  0.76264299685E+01  0.42182607507E+02  0.20000005710E+01 0.  0.
        -13    1    3    3    0    0 -0.40932831228E+02 -0.64585809136E+01  0.14338119371E+02  0.43849775038E+02  0.10566000000E+00 0.  1.
         13    1    4    4    0    0  0.28074477275E+01  0.71351489148E+00  0.81725598699E+00  0.30116337139E+01  0.10566000000E+00 0. -1.
        -13    1    4    4    0    0  0.21509873872E+02  0.34511366055E+01  0.44106834409E+01  0.22227242526E+02  0.10566000000E+00 0.  1.
        -14    1    4    4    0    0  0.16615509628E+02  0.22939294166E+01  0.23984905406E+01  0.16943731267E+02  0.00000000000E+00 0.  1.
<mgrwt>
<rscale>  0 0.83181305E+02</rscale>
<asrwt>0</asrwt>
<pdfrwt beam="1">  1        2 0.83074562E-02 0.83181305E+02</pdfrwt>
<pdfrwt beam="2">  1       -1 0.49282949E-02 0.83181305E+02</pdfrwt>
<totfact> 0.13658792E+05</totfact>
</mgrwt>
</event>
<event>
 8    1  0.1520917E-017  0.7946915E+02  0.7818608E-02  0.1330565E+00
         -1   -1    0    0    0  501 -0.00000000000E+00  0.00000000000E+00  0.77094584113E+01  0.77094600587E+01  0.50400000000E-02 0.  1.
          2   -1    0    0  501    0  0.00000000000E+00 -0.00000000000E+00 -0.20479212822E+03  0.20479212823E+03  0.25500000000E-02 0. -1.
         24    2    1    2    0    0  0.00000000000E+00 -0.35527136788E-14 -0.19708266981E+03  0.21250158829E+03  0.79469153064E+02 0.  0.
         66    2    3    3    0    0  0.19036978064E+02  0.16953060891E+02 -0.18001921995E+03  0.18182610472E+03  0.19999997693E+01 0.  0.
        -13    1    3    3    0    0 -0.19036978064E+02 -0.16953060891E+02 -0.17063449859E+02  0.30675483574E+02  0.10566000000E+00 0.  1.
         13    1    4    4    0    0  0.13297410788E+02  0.10979136448E+02 -0.12014792286E+03  0.12137914607E+03  0.10566000000E+00 0. -1.
        -13    1    4    4    0    0  0.46857317764E+01  0.47169025770E+01 -0.45750877307E+02  0.46231582177E+02  0.10566000000E+00 0.  1.
         14    1    4    4    0    0  0.10538354991E+01  0.12570218665E+01 -0.14120419785E+02  0.14215376468E+02  0.00000000000E+00 0. -1.
<mgrwt>
<rscale>  0 0.79469153E+02</rscale>
<asrwt>0</asrwt>
<pdfrwt beam="1">  1        2 0.31506477E-01 0.79469153E+02</pdfrwt>
<pdfrwt beam="2">  1       -1 0.11860708E-02 0.79469153E+02</pdfrwt>
<totfact> 0.22634963E+05</totfact>
</mgrwt>
</event>
<event>
 8    1  0.1520917E-017  0.7970299E+02  0.7818608E-02  0.1329896E+00
         -1   -1    0    0    0  501 -0.00000000000E+00  0.00000000000E+00  0.19117915680E+01  0.19117982114E+01  0.50400000000E-02 0.  1.
          2   -1    0    0  501    0  0.00000000000E+00 -0.00000000000E+00 -0.83070713442E+03  0.83070713443E+03  0.25500000000E-02 0. -1.
         24    2    1    2    0    0  0.55511151231E-16  0.35527136788E-14 -0.82879534286E+03  0.83261893264E+03  0.79702990218E+02 0.  0.
         66    2    3    3    0    0 -0.67556058493E-01 -0.28684567367E+02 -0.70327838493E+03  0.70386596429E+03  0.20000002775E+01 0.  0.
        -13    1    3    3    0    0  0.67556058493E-01  0.28684567367E+02 -0.12551695793E+03  0.12875296835E+03  0.10566000000E+00 0.  1.
         13    1    4    4    0    0  0.43822470012E+00 -0.17223788051E+02 -0.40304012695E+03  0.40340823741E+03  0.10566000000E+00 0. -1.
        -13    1    4    4    0    0 -0.38549113141E+00 -0.76903419475E+01 -0.20697403095E+03  0.20711723881E+03  0.10566000000E+00 0.  1.
        -14    1    4    4    0    0 -0.12028962720E+00 -0.37704373689E+01 -0.93264227032E+02  0.93340488061E+02  0.00000000000E+00 0.  1.
<mgrwt>
<rscale>  0 0.79702990E+02</rscale>
<asrwt>0</asrwt>
<pdfrwt beam="1">  1        2 0.12780081E+00 0.79702990E+02</pdfrwt>
<pdfrwt beam="2">  1       -1 0.29412296E-03 0.79702990E+02</pdfrwt>
<totfact> 0.34913218E+05</totfact>
</mgrwt>
</event>
<event>
 8    1  0.1520917E-017  0.8054960E+02  0.7818608E-02  0.1327499E+00
          2   -1    0    0  501    0  0.00000000000E+00  0.00000000000E+00  0.10944051566E+03  0.10944051569E+03  0.25500000000E-02 0. -1.
         -1   -1    0    0    0  501 -0.00000000000E+00 -0.00000000000E+00 -0.14821378488E+02  0.14821379345E+02  0.50400000000E-02 0.  1.
         24    2    1    2    0    0  0.55511151231E-16  0.00000000000E+00  0.94619137175E+02  0.12426189504E+03  0.80549596141E+02 0.  0.
         66    2    3    3    0    0 -0.28665350721E+00  0.22555693431E+02  0.98763528581E+02  0.10132658121E+03  0.20000011829E+01 0.  0.
        -13    1    3    3    0    0  0.28665350721E+00 -0.22555693431E+02 -0.41443914056E+01  0.22935313831E+02  0.10566000000E+00 0.  1.
         13    1    4    4    0    0 -0.78229167129E+00  0.16805921559E+02  0.71838558382E+02  0.73782386883E+02  0.10566000000E+00 0. -1.
        -13    1    4    4    0    0  0.54558574856E+00  0.52037343606E+01  0.23504864504E+02  0.24080413918E+02  0.10566000000E+00 0.  1.
        -14    1    4    4    0    0 -0.49947584474E-01  0.54603751177E+00  0.34201056952E+01  0.34637804047E+01  0.00000000000E+00 0.  1.
<mgrwt>
<rscale>  0 0.80549596E+02</rscale>
<asrwt>0</asrwt>
<pdfrwt beam="1">  1        2 0.16837002E-01 0.80549596E+02</pdfrwt>
<pdfrwt beam="2">  1       -1 0.22802122E-02 0.80549596E+02</pdfrwt>
<totfact> 0.17856989E+05</totfact>
</mgrwt>
</event>
<event>
 8    1  0.1520917E-017  0.7896590E+02  0.7818608E-02  0.1332012E+00
          2   -1    0    0  501    0  0.00000000000E+00  0.00000000000E+00  0.35132675980E+03  0.35132675981E+03  0.25500000000E-02 0. -1.
         -1   -1    0    0    0  501 -0.00000000000E+00 -0.00000000000E+00 -0.44371874557E+01  0.44371903180E+01  0.50400000000E-02 0.  1.
         24    2    1    2    0    0  0.27755575616E-16  0.00000000000E+00  0.34688957234E+03  0.35576395013E+03  0.78965896493E+02 0.  0.
         66    2    3    3    0    0  0.23393209695E+00  0.23108907944E+02  0.31764193356E+03  0.31848779301E+03  0.19999982317E+01 0.  0.
        -13    1    3    3    0    0 -0.23393209695E+00 -0.23108907944E+02  0.29247638784E+02  0.37276157113E+02  0.10566000000E+00 0.  1.
         13    1    4    4    0    0  0.37580367300E+00  0.86812503765E+01  0.10891419436E+03  0.10926032323E+03  0.10566000000E+00 0. -1.
        -13    1    4    4    0    0 -0.42407463248E+00  0.51347003359E+01  0.75959064098E+02  0.76133669092E+02  0.10566000000E+00 0.  1.
         14    1    4    4    0    0  0.28220305643E+00  0.92929572318E+01  0.13276867511E+03  0.13309380069E+03  0.00000000000E+00 0. -1.
<mgrwt>
<rscale>  0 0.78965896E+02</rscale>
<asrwt>0</asrwt>
<pdfrwt beam="1">  1        2 0.54050265E-01 0.78965896E+02</pdfrwt>
<pdfrwt beam="2">  1       -1 0.68264452E-03 0.78965896E+02</pdfrwt>
<totfact> 0.27919829E+05</totfact>
</mgrwt>
</event>
<event>
 8    1  0.1520917E-017  0.7683755E+02  0.7818608E-02  0.1338273E+00
          2   -1    0    0  501    0  0.00000000000E+00  0.00000000000E+00  0.21402398170E+04  0.21402398170E+04  0.25500000000E-02 0. -1.
         -1   -1    0    0    0  501 -0.00000000000E+00 -0.00000000000E+00 -0.68963418262E+00  0.68965259909E+00  0.50400000000E-02 0.  1.
         24    2    1    2    0    0 -0.35527136788E-14  0.00000000000E+00  0.21395501828E+04  0.21409294696E+04  0.76837549483E+02 0.  0.
         66    2    3    3    0    0  0.15316118158E+02 -0.30954717998E+01  0.20476264708E+04  0.20476870682E+04  0.19999984177E+01 0.  0.
        -13    1    3    3    0    0 -0.15316118158E+02  0.30954717998E+01  0.91923712039E+02  0.93242401407E+02  0.10566000000E+00 0.  1.
         13    1    4    4    0    0  0.56581493452E+00 -0.12585473698E+00  0.94530618406E+02  0.94532454566E+02  0.10566000000E+00 0. -1.
        -13    1    4    4    0    0  0.11439449553E+02 -0.20747562532E+01  0.15930708077E+04  0.15931132336E+04  0.10566000000E+00 0.  1.
        -14    1    4    4    0    0  0.33108536703E+01 -0.89486080967E+00  0.36002504473E+03  0.36004138007E+03  0.00000000000E+00 0.  1.
<mgrwt>
<rscale>  0 0.76837549E+02</rscale>
<asrwt>0</asrwt>
<pdfrwt beam="1">  1        2 0.32926758E+00 0.76837549E+02</pdfrwt>
<pdfrwt beam="2">  1       -1 0.10609901E-03 0.76837549E+02</pdfrwt>
<totfact> 0.28785889E+05</totfact>
</mgrwt>
</event>
<event>
 8    1  0.1520917E-017  0.7979756E+02  0.7818608E-02  0.1329627E+00
          2   -1    0    0  501    0  0.00000000000E+00  0.00000000000E+00  0.63026708137E+03  0.63026708138E+03  0.25500000000E-02 0. -1.
         -1   -1    0    0    0  501 -0.00000000000E+00 -0.00000000000E+00 -0.25257721939E+01  0.25257772224E+01  0.50400000000E-02 0.  1.
         24    2    1    2    0    0  0.35527136788E-14  0.00000000000E+00  0.62774130918E+03  0.63279285860E+03  0.79797560401E+02 0.  0.
         66    2    3    3    0    0 -0.27190845295E+02 -0.12718416001E+02  0.52219066354E+03  0.52305658323E+03  0.19999995302E+01 0.  0.
        -13    1    3    3    0    0  0.27190845295E+02  0.12718416001E+02  0.10555064564E+03  0.10973627537E+03  0.10566000000E+00 0.  1.
         13    1    4    4    0    0 -0.79487114592E+01 -0.40200764001E+01  0.16253266449E+03  0.16277659911E+03  0.10566000000E+00 0. -1.
        -13    1    4    4    0    0 -0.52563985440E+01 -0.17247614849E+01  0.94195316241E+02  0.94357688048E+02  0.10566000000E+00 0.  1.
        -14    1    4    4    0    0 -0.13985735292E+02 -0.69735781159E+01  0.26546268281E+03  0.26592229607E+03  0.00000000000E+00 0.  1.
<mgrwt>
<rscale>  0 0.79797560E+02</rscale>
<asrwt>0</asrwt>
<pdfrwt beam="1">  1        2 0.96964200E-01 0.79797560E+02</pdfrwt>
<pdfrwt beam="2">  1       -1 0.38858059E-03 0.79797560E+02</pdfrwt>
<totfact> 0.32811315E+05</totfact>
</mgrwt>
</event>
<event>
 8    1  0.1520917E-017  0.7959931E+02  0.7818608E-02  0.1330192E+00
          2   -1    0    0  501    0  0.00000000000E+00  0.00000000000E+00  0.29145851877E+03  0.29145851878E+03  0.25500000000E-02 0. -1.
         -1   -1    0    0    0  501 -0.00000000000E+00 -0.00000000000E+00 -0.54347780975E+01  0.54347804344E+01  0.50400000000E-02 0.  1.
         24    2    1    2    0    0 -0.44408920985E-15  0.00000000000E+00  0.28602374067E+03  0.29689329921E+03  0.79599314637E+02 0.  0.
         66    2    3    3    0    0 -0.20288214800E+01  0.27565944285E+02  0.24977882365E+03  0.25131147636E+03  0.20000009906E+01 0.  0.
        -13    1    3    3    0    0  0.20288214800E+01 -0.27565944285E+02  0.36244917014E+02  0.45581822850E+02  0.10566000000E+00 0.  1.
         13    1    4    4    0    0 -0.89046452934E+00  0.74905343998E+01  0.71780476966E+02  0.72175820537E+02  0.10566000000E+00 0. -1.
        -13    1    4    4    0    0 -0.56242330493E+00  0.17441506818E+02  0.15570517572E+03  0.15668004145E+03  0.10566000000E+00 0.  1.
        -14    1    4    4    0    0 -0.57593364570E+00  0.26339030674E+01  0.22293170969E+02  0.22455614371E+02  0.00000000000E+00 0.  1.
<mgrwt>
<rscale>  0 0.79599315E+02</rscale>
<asrwt>0</asrwt>
<pdfrwt beam="1">  1        2 0.44839784E-01 0.79599315E+02</pdfrwt>
<pdfrwt beam="2">  1       -1 0.83611967E-03 0.79599315E+02</pdfrwt>
<totfact> 0.25563538E+05</totfact>
</mgrwt>
</event>
<event>
 8    1  0.1520917E-017  0.8002755E+02  0.7818608E-02  0.1328973E+00
         -1   -1    0    0    0  501 -0.00000000000E+00  0.00000000000E+00  0.13888980833E+01  0.13889072277E+01  0.50400000000E-02 0.  1.
          2   -1    0    0  501    0  0.00000000000E+00 -0.00000000000E+00 -0.11527820664E+04  0.11527820664E+04  0.25500000000E-02 0. -1.
         24    2    1    2    0    0  0.00000000000E+00  0.00000000000E+00 -0.11513931683E+04  0.11541709736E+04  0.80027547286E+02 0.  0.
         66    2    3    3    0    0  0.10843879604E+02 -0.21571379647E+02 -0.10357997029E+04  0.10360829786E+04  0.19999996949E+01 0.  0.
        -13    1    3    3    0    0 -0.10843879604E+02  0.21571379647E+02 -0.11559346540E+03  0.11808799495E+03  0.10566000000E+00 0.  1.
         13    1    4    4    0    0  0.13391609726E+00 -0.39577581837E+00 -0.13291841775E+02  0.13298826784E+02  0.10566000000E+00 0.  1.
        -13    1    4    4    0    0  0.80047699235E+01 -0.15218019906E+02 -0.76429195518E+03  0.76448536179E+03  0.10566000000E+00 0. -1.
         14    1    4    4    0    0  0.27051935827E+01 -0.59575839228E+01 -0.25821590591E+03  0.25829879006E+03  0.00000000000E+00 0. -1.
<mgrwt>
<rscale>  0 0.80027547E+02</rscale>
<asrwt>0</asrwt>
<pdfrwt beam="1">  1        2 0.17735032E+00 0.80027547E+02</pdfrwt>
<pdfrwt beam="2">  1       -1 0.21367825E-03 0.80027547E+02</pdfrwt>
<totfact> 0.35135121E+05</totfact>
</mgrwt>
</event>
<event>
 8    1  0.1520917E-017  0.7751608E+02  0.7818608E-02  0.1336252E+00
         -1   -1    0    0    0  501 -0.00000000000E+00  0.00000000000E+00  0.16302774133E+02  0.16302774912E+02  0.50400000000E-02 0.  1.
          2   -1    0    0  501    0  0.00000000000E+00 -0.00000000000E+00 -0.92142945348E+02  0.92142945384E+02  0.25500000000E-02 0. -1.
         24    2    1    2    0    0  0.35527136788E-14 -0.17763568394E-14 -0.75840171216E+02  0.10844572030E+03  0.77516080141E+02 0.  0.
         66    2    3    3    0    0  0.28823846564E+02 -0.13373675153E+02 -0.68929807623E+02  0.75927516058E+02  0.19999995132E+01 0.  0.
        -13    1    3    3    0    0 -0.28823846564E+02  0.13373675153E+02 -0.69103635925E+01  0.32518204237E+02  0.10566000000E+00 0.  1.
         13    1    4    4    0    0  0.10886352011E+02 -0.48552658243E+01 -0.26821875090E+02  0.29351497640E+02  0.10566000000E+00 0. -1.
        -13    1    4    4    0    0  0.39368731161E+01 -0.20533627732E+01 -0.81857592681E+01  0.93130600471E+01  0.10566000000E+00 0.  1.
        -14    1    4    4    0    0  0.14000621437E+02 -0.64650465550E+01 -0.33922173265E+02  0.37262958371E+02  0.00000000000E+00 0.  1.
<mgrwt>
<rscale>  0 0.77516080E+02</rscale>
<asrwt>0</asrwt>
<pdfrwt beam="1">  1        2 0.14175837E-01 0.77516080E+02</pdfrwt>
<pdfrwt beam="2">  1       -1 0.25081192E-02 0.77516080E+02</pdfrwt>
<totfact> 0.18858941E+05</totfact>
</mgrwt>
</event>
<event>
 8    1  0.1520917E-017  0.7912229E+02  0.7818608E-02  0.1331561E+00
         -1   -1    0    0    0  501 -0.00000000000E+00  0.00000000000E+00  0.39430421916E+02  0.39430422238E+02  0.50400000000E-02 0.  1.
          2   -1    0    0  501    0  0.00000000000E+00 -0.00000000000E+00 -0.39692297859E+02  0.39692297941E+02  0.25500000000E-02 0. -1.
         24    2    1    2    0    0  0.00000000000E+00  0.00000000000E+00 -0.26187594299E+00  0.79122720179E+02  0.79122286807E+02 0.  0.
         66    2    3    3    0    0  0.42398155622E+01 -0.31694466733E+02 -0.23381178041E+02  0.39663519085E+02  0.20000005311E+01 0.  0.
        -13    1    3    3    0    0 -0.42398155622E+01  0.31694466733E+02  0.23119302098E+02  0.39459201094E+02  0.10566000000E+00 0.  1.
         13    1    4    4    0    0  0.24893127583E+01 -0.18853398277E+02 -0.14429215647E+02  0.23871755964E+02  0.10566000000E+00 0. -1.
        -13    1    4    4    0    0  0.12728808979E+00 -0.42384872960E+01 -0.25912497178E+01  0.49705850714E+01  0.10566000000E+00 0.  1.
        -14    1    4    4    0    0  0.16232147142E+01 -0.86025811602E+01 -0.63607126764E+01  0.10821178049E+02  0.00000000000E+00 0.  1.
<mgrwt>
<rscale>  0 0.79122287E+02</rscale>
<asrwt>0</asrwt>
<pdfrwt beam="1">  1        2 0.61065074E-02 0.79122287E+02</pdfrwt>
<pdfrwt beam="2">  1       -1 0.60662188E-02 0.79122287E+02</pdfrwt>
<totfact> 0.14673178E+05</totfact>
</mgrwt>
</event>
<event>
 8    1  0.1520917E-017  0.7996990E+02  0.7818608E-02  0.1329137E+00
          2   -1    0    0  501    0  0.00000000000E+00  0.00000000000E+00  0.22967598574E+03  0.22967598576E+03  0.25500000000E-02 0. -1.
         -1   -1    0    0    0  501 -0.00000000000E+00 -0.00000000000E+00 -0.69610932885E+01  0.69610951130E+01  0.50400000000E-02 0.  1.
         24    2    1    2    0    0 -0.88817841970E-15 -0.35527136788E-14  0.22271489245E+03  0.23663708087E+03  0.79969898848E+02 0.  0.
         66    2    3    3    0    0  0.70427590535E+01 -0.30945119935E+02  0.18327767308E+03  0.18601587643E+03  0.19999829115E+01 0.  0.
        -13    1    3    3    0    0 -0.70427590535E+01  0.30945119935E+02  0.39437219371E+02  0.50621204437E+02  0.10566000000E+00 0.  1.
         13    1    4    4    0    0  0.58605444322E+01 -0.24010284679E+02  0.14214357303E+03  0.14427628450E+03  0.10566000000E+00 0. -1.
        -13    1    4    4    0    0  0.79127275976E+00 -0.54971977143E+01  0.30512648498E+02  0.31014160922E+02  0.10566000000E+00 0.  1.
        -14    1    4    4    0    0  0.39094186160E+00 -0.14376375414E+01  0.10621451559E+02  0.10725431015E+02  0.00000000000E+00 0.  1.
<mgrwt>
<rscale>  0 0.79969899E+02</rscale>
<asrwt>0</asrwt>
<pdfrwt beam="1">  1        2 0.35334765E-01 0.79969899E+02</pdfrwt>
<pdfrwt beam="2">  1       -1 0.10709376E-02 0.79969899E+02</pdfrwt>
<totfact> 0.23180286E+05</totfact>
</mgrwt>
</event>
<event>
 8    1  0.1520917E-017  0.7891022E+02  0.7818608E-02  0.1332173E+00
         -1   -1    0    0    0  501 -0.00000000000E+00  0.00000000000E+00  0.65782968768E+01  0.65782988075E+01  0.50400000000E-02 0.  1.
          2   -1    0    0  501    0  0.00000000000E+00 -0.00000000000E+00 -0.23664262467E+03  0.23664262468E+03  0.25500000000E-02 0. -1.
         24    2    1    2    0    0  0.00000000000E+00  0.00000000000E+00 -0.23006432779E+03  0.24322092349E+03  0.78910219243E+02 0.  0.
         66    2    3    3    0    0  0.39353028169E+02 -0.22966877505E+01 -0.11240975011E+03  0.11913810270E+03  0.19999988395E+01 0.  0.
        -13    1    3    3    0    0 -0.39353028169E+02  0.22966877505E+01 -0.11765457769E+03  0.12408282079E+03  0.10566000000E+00 0.  1.
         13    1    4    4    0    0  0.17336919553E+02 -0.41137101622E+00 -0.51177320346E+02  0.54035796354E+02  0.10566000000E+00 0.  1.
        -13    1    4    4    0    0  0.30774269580E+01 -0.10619798121E-01 -0.86919892294E+01  0.92213074052E+01  0.10566000000E+00 0. -1.
         14    1    4    4    0    0  0.18938681658E+02 -0.18746969361E+01 -0.52540440531E+02  0.55880998942E+02  0.00000000000E+00 0. -1.
<mgrwt>
<rscale>  0 0.78910219E+02</rscale>
<asrwt>0</asrwt>
<pdfrwt beam="1">  1        2 0.36406551E-01 0.78910219E+02</pdfrwt>
<pdfrwt beam="2">  1       -1 0.10120460E-02 0.78910219E+02</pdfrwt>
<totfact> 0.24264209E+05</totfact>
</mgrwt>
</event>
<event>
 8    1  0.1520917E-017  0.7911794E+02  0.7818608E-02  0.1331573E+00
          2   -1    0    0  501    0  0.00000000000E+00  0.00000000000E+00  0.66274929207E+03  0.66274929208E+03  0.25500000000E-02 0. -1.
         -1   -1    0    0    0  501 -0.00000000000E+00 -0.00000000000E+00 -0.23612402343E+01  0.23612456131E+01  0.50400000000E-02 0.  1.
         24    2    1    2    0    0  0.17763568394E-14 -0.71054273576E-14  0.66038805184E+03  0.66511053769E+03  0.79117939409E+02 0.  0.
         66    2    3    3    0    0  0.12706566803E+02 -0.31689987401E+02  0.49794529929E+03  0.49911845607E+03  0.19999906691E+01 0.  0.
        -13    1    3    3    0    0 -0.12706566803E+02  0.31689987401E+02  0.16244275255E+03  0.16599208162E+03  0.10566000000E+00 0.  1.
         13    1    4    4    0    0  0.56226091353E+01 -0.13644902450E+02  0.22607250662E+03  0.22655371661E+03  0.10566000000E+00 0. -1.
        -13    1    4    4    0    0  0.51861456526E+01 -0.12046887669E+02  0.18196937916E+03  0.18244146931E+03  0.10566000000E+00 0.  1.
        -14    1    4    4    0    0  0.18978120151E+01 -0.59981972832E+01  0.89903413509E+02  0.90123270145E+02  0.00000000000E+00 0.  1.
<mgrwt>
<rscale>  0 0.79117939E+02</rscale>
<asrwt>0</asrwt>
<pdfrwt beam="1">  1        2 0.10196143E+00 0.79117939E+02</pdfrwt>
<pdfrwt beam="2">  1       -1 0.36326816E-03 0.79117939E+02</pdfrwt>
<totfact> 0.33983309E+05</totfact>
</mgrwt>
</event>
<event>
 8    1  0.1520917E-017  0.8065557E+02  0.7818608E-02  0.1327201E+00
         -1   -1    0    0    0  501 -0.00000000000E+00  0.00000000000E+00  0.32908826427E+01  0.32908865021E+01  0.50400000000E-02 0.  1.
          2   -1    0    0  501    0  0.00000000000E+00 -0.00000000000E+00 -0.49419246320E+03  0.49419246321E+03  0.25500000000E-02 0. -1.
         24    2    1    2    0    0 -0.35527136788E-14 -0.35527136788E-14 -0.49090158056E+03  0.49748334971E+03  0.80655572924E+02 0.  0.
         66    2    3    3    0    0 -0.21145086999E+02 -0.24412461909E+02 -0.39430534644E+03  0.39563087497E+03  0.19999994870E+01 0.  0.
        -13    1    3    3    0    0  0.21145086999E+02  0.24412461909E+02 -0.96596234117E+02  0.10185247474E+03  0.10566000000E+00 0.  1.
         13    1    4    4    0    0 -0.20513901136E+01 -0.22431857799E+01 -0.36381615586E+02  0.36508535995E+02  0.10566000000E+00 0. -1.
        -13    1    4    4    0    0 -0.11416713381E+02 -0.14364824229E+02 -0.23048469269E+03  0.23121395772E+03  0.10566000000E+00 0.  1.
        -14    1    4    4    0    0 -0.76769835049E+01 -0.78044518994E+01 -0.12743903817E+03  0.12790838125E+03  0.00000000000E+00 0.  1.
<mgrwt>
<rscale>  0 0.80655573E+02</rscale>
<asrwt>0</asrwt>
<pdfrwt beam="1">  1        2 0.76029551E-01 0.80655573E+02</pdfrwt>
<pdfrwt beam="2">  1       -1 0.50629033E-03 0.80655573E+02</pdfrwt>
<totfact> 0.29699010E+05</totfact>
</mgrwt>
</event>
<event>
 8    1  0.1520917E-017  0.7974421E+02  0.7818608E-02  0.1329779E+00
          2   -1    0    0  501    0  0.00000000000E+00  0.00000000000E+00  0.18629873872E+03  0.18629873874E+03  0.25500000000E-02 0. -1.
         -1   -1    0    0    0  501 -0.00000000000E+00 -0.00000000000E+00 -0.85335233671E+01  0.85335248554E+01  0.50400000000E-02 0.  1.
         24    2    1    2    0    0  0.35527136788E-14  0.00000000000E+00  0.17776521535E+03  0.19483226359E+03  0.79744210745E+02 0.  0.
         66    2    3    3    0    0  0.24983228935E+02 -0.92377821499E+01  0.16134503035E+03  0.16354117881E+03  0.20000007418E+01 0.  0.
        -13    1    3    3    0    0 -0.24983228935E+02  0.92377821499E+01  0.16420185007E+02  0.31291084781E+02  0.10566000000E+00 0.  1.
         13    1    4    4    0    0  0.23081301220E+01 -0.84933681260E+00  0.12465354684E+02  0.12706103617E+02  0.10566000000E+00 0. -1.
        -13    1    4    4    0    0  0.40078628282E+01 -0.19261540602E+01  0.28753093032E+02  0.29095095065E+02  0.10566000000E+00 0.  1.
         14    1    4    4    0    0  0.18667235985E+02 -0.64622912770E+01  0.12012658263E+03  0.12173998013E+03  0.00000000000E+00 0. -1.
<mgrwt>
<rscale>  0 0.79744211E+02</rscale>
<asrwt>0</asrwt>
<pdfrwt beam="1">  1        2 0.28661344E-01 0.79744211E+02</pdfrwt>
<pdfrwt beam="2">  1       -1 0.13128499E-02 0.79744211E+02</pdfrwt>
<totfact> 0.21708212E+05</totfact>
</mgrwt>
</event>
<event>
 8    1  0.1520917E-017  0.8010226E+02  0.7818608E-02  0.1328761E+00
         -1   -1    0    0    0  501 -0.00000000000E+00  0.00000000000E+00  0.60018033162E+01  0.60018054324E+01  0.50400000000E-02 0.  1.
          2   -1    0    0  501    0  0.00000000000E+00 -0.00000000000E+00 -0.26726844167E+03  0.26726844168E+03  0.25500000000E-02 0. -1.
         24    2    1    2    0    0  0.71054273576E-14 -0.27755575616E-16 -0.26126663835E+03  0.27327024711E+03  0.80102257405E+02 0.  0.
         66    2    3    3    0    0  0.33261013697E+02 -0.19378276130E+00 -0.20667389085E+03  0.20934285214E+03  0.19999999478E+01 0.  0.
        -13    1    3    3    0    0 -0.33261013697E+02  0.19378276130E+00 -0.54592747500E+02  0.63927394969E+02  0.10566000000E+00 0.  1.
         13    1    4    4    0    0  0.16683771847E+01  0.67864524183E-01 -0.90385268321E+01  0.91920737244E+01  0.10566000000E+00 0. -1.
        -13    1    4    4    0    0  0.16424020911E+02 -0.91164355587E+00 -0.10262386990E+03  0.10393387029E+03  0.10566000000E+00 0.  1.
        -14    1    4    4    0    0  0.15168615601E+02  0.64999627038E+00 -0.95011494122E+02  0.96216908128E+02  0.00000000000E+00 0.  1.
<mgrwt>
<rscale>  0 0.80102257E+02</rscale>
<asrwt>0</asrwt>
<pdfrwt beam="1">  1        2 0.41118213E-01 0.80102257E+02</pdfrwt>
<pdfrwt beam="2">  1       -1 0.92335473E-03 0.80102257E+02</pdfrwt>
<totfact> 0.24367846E+05</totfact>
</mgrwt>
</event>
<event>
 8    1  0.1520917E-017  0.7893657E+02  0.7818608E-02  0.1332097E+00
         -1   -1    0    0    0  501 -0.00000000000E+00  0.00000000000E+00  0.10008430020E+01  0.10008556920E+01  0.50400000000E-02 0.  1.
          2   -1    0    0  501    0  0.00000000000E+00 -0.00000000000E+00 -0.15564234104E+04  0.15564234104E+04  0.25500000000E-02 0. -1.
         24    2    1    2    0    0  0.00000000000E+00 -0.17763568394E-14 -0.15554225674E+04  0.15574242661E+04  0.78936565973E+02 0.  0.
         66    2    3    3    0    0 -0.43445710477E+01 -0.11788634356E+02 -0.15158852353E+04  0.15159386181E+04  0.19999991098E+01 0.  0.
        -13    1    3    3    0    0  0.43445710477E+01  0.11788634356E+02 -0.39537332129E+02  0.41485648043E+02  0.10566000000E+00 0.  1.
         13    1    4    4    0    0 -0.29478578584E+01 -0.66099279745E+01 -0.92911795793E+03  0.92914615208E+03  0.10566000000E+00 0. -1.
        -13    1    4    4    0    0 -0.38740750978E+00 -0.25022350465E+01 -0.23948280516E+03  0.23949621374E+03  0.10566000000E+00 0.  1.
        -14    1    4    4    0    0 -0.10093056794E+01 -0.26764713353E+01 -0.34728447220E+03  0.34729625225E+03  0.00000000000E+00 0.  1.
<mgrwt>
<rscale>  0 0.78936566E+02</rscale>
<asrwt>0</asrwt>
<pdfrwt beam="1">  1        2 0.23944782E+00 0.78936566E+02</pdfrwt>
<pdfrwt beam="2">  1       -1 0.15397807E-03 0.78936566E+02</pdfrwt>
<totfact> 0.33918811E+05</totfact>
</mgrwt>
</event>
<event>
 8    1  0.1520917E-017  0.8082097E+02  0.7818608E-02  0.1326738E+00
         -1   -1    0    0    0  501 -0.00000000000E+00  0.00000000000E+00  0.22745663079E+01  0.22745718917E+01  0.50400000000E-02 0.  1.
          2   -1    0    0  501    0  0.00000000000E+00 -0.00000000000E+00 -0.71794138259E+03  0.71794138259E+03  0.25500000000E-02 0. -1.
         24    2    1    2    0    0  0.00000000000E+00  0.00000000000E+00 -0.71566681628E+03  0.72021595448E+03  0.80820969860E+02 0.  0.
         66    2    3    3    0    0  0.33750195636E+02 -0.15323896615E+02 -0.50093926923E+03  0.50231270040E+03  0.20000041465E+01 0.  0.
        -13    1    3    3    0    0 -0.33750195636E+02  0.15323896615E+02 -0.21472754705E+03  0.21790325408E+03  0.10566000000E+00 0.  1.
         13    1    4    4    0    0  0.79303259583E+01 -0.32856754216E+01 -0.12464240392E+03  0.12493768747E+03  0.10566000000E+00 0. -1.
        -13    1    4    4    0    0  0.20958374302E+02 -0.93953288335E+01 -0.30071080122E+03  0.30158667542E+03  0.10566000000E+00 0.  1.
        -14    1    4    4    0    0  0.48614953765E+01 -0.26428923598E+01 -0.75586064092E+02  0.75788337508E+02  0.00000000000E+00 0.  1.
<mgrwt>
<rscale>  0 0.80820970E+02</rscale>
<asrwt>0</asrwt>
<pdfrwt beam="1">  1        2 0.11045234E+00 0.80820970E+02</pdfrwt>
<pdfrwt beam="2">  1       -1 0.34993428E-03 0.80820970E+02</pdfrwt>
<totfact> 0.32760479E+05</totfact>
</mgrwt>
</event>
<event>
 8    1  0.1520917E-017  0.8353254E+02  0.7818608E-02  0.1319315E+00
         -1   -1    0    0    0  501 -0.00000000000E+00  0.00000000000E+00  0.44887120335E+03  0.44887120338E+03  0.50400000000E-02 0.  1.
          2   -1    0    0  501    0  0.00000000000E+00 -0.00000000000E+00 -0.38862397330E+01  0.38862405696E+01  0.25500000000E-02 0. -1.
         24    2    1    2    0    0  0.00000000000E+00  0.00000000000E+00  0.44498496362E+03  0.45275744395E+03  0.83532539798E+02 0.  0.
         66    2    3    3    0    0  0.21163681621E+02 -0.35635824455E+02  0.19573510838E+03  0.20008509701E+03  0.19999977681E+01 0.  0.
        -13    1    3    3    0    0 -0.21163681621E+02  0.35635824455E+02  0.24924985524E+03  0.25267234693E+03  0.10566000000E+00 0.  1.
         13    1    4    4    0    0  0.16097839542E+02 -0.28012470949E+02  0.15413715009E+03  0.15748686030E+03  0.10566000000E+00 0. -1.
        -13    1    4    4    0    0  0.28464009255E+01 -0.42057206801E+01  0.21585899983E+02  0.22175489324E+02  0.10566000000E+00 0.  1.
         14    1    4    4    0    0  0.22194411535E+01 -0.34176328262E+01  0.20012058306E+02  0.20422747387E+02  0.00000000000E+00 0. -1.
<mgrwt>
<rscale>  0 0.83532540E+02</rscale>
<asrwt>0</asrwt>
<pdfrwt beam="1">  1        2 0.59788298E-03 0.83532540E+02</pdfrwt>
<pdfrwt beam="2">  1       -1 0.69057123E-01 0.83532540E+02</pdfrwt>
<totfact> 0.63707640E+04</totfact>
</mgrwt>
</event>
<event>
 8    1  0.1636717E-017  0.7961486E+02  0.7818608E-02  0.1330148E+00
         -1   -1    0    0    0  501 -0.00000000000E+00  0.00000000000E+00  0.17553261153E+01  0.17553333508E+01  0.50400000000E-02 0.  1.
          2   -1    0    0  501    0  0.00000000000E+00 -0.00000000000E+00 -0.90275431619E+03  0.90275431619E+03  0.25500000000E-02 0. -1.
         24    2    1    2    0    0  0.00000000000E+00  0.00000000000E+00 -0.90099899008E+03  0.90450964955E+03  0.79614860443E+02 0.  0.
         66    2    3    3    0    0  0.11214758229E+02 -0.23301697499E+02 -0.79423434632E+03  0.79465774820E+03  0.19999986141E+01 0.  0.
        -13    1    3    3    0    0 -0.11214758229E+02  0.23301697499E+02 -0.10676464375E+03  0.10985190134E+03  0.10566000000E+00 0.  1.
         13    1    4    4    0    0  0.55465884368E+01 -0.12232231324E+02 -0.41406430313E+03  0.41428209039E+03  0.10566000000E+00 0. -1.
        -13    1    4    4    0    0  0.45039979545E+01 -0.88919417235E+01 -0.31928641988E+03  0.31944198489E+03  0.10566000000E+00 0.  1.
        -14    1    4    4    0    0  0.11641718379E+01 -0.21775244513E+01 -0.60883623314E+02  0.60933672929E+02  0.00000000000E+00 0.  1.
<mgrwt>
<rscale>  0 0.79614860E+02</rscale>
<asrwt>0</asrwt>
<pdfrwt beam="1">  1        2 0.13888491E+00 0.79614860E+02</pdfrwt>
<pdfrwt beam="2">  1       -1 0.27005145E-03 0.79614860E+02</pdfrwt>
<totfact> 0.35398914E+05</totfact>
</mgrwt>
</event>
<event>
 8    1  0.1520917E-017  0.7576583E+02  0.7818608E-02  0.1341516E+00
         -1   -1    0    0    0  501 -0.00000000000E+00  0.00000000000E+00  0.10224825147E+02  0.10224826389E+02  0.50400000000E-02 0.  1.
          2   -1    0    0  501    0  0.00000000000E+00 -0.00000000000E+00 -0.14035594357E+03  0.14035594359E+03  0.25500000000E-02 0. -1.
         24    2    1    2    0    0  0.00000000000E+00  0.00000000000E+00 -0.13013111842E+03  0.15058076998E+03  0.75765825453E+02 0.  0.
         66    2    3    3    0    0 -0.27341791547E+01 -0.13331100097E+02 -0.13531913753E+03  0.13601640691E+03  0.19999998633E+01 0.  0.
        -13    1    3    3    0    0  0.27341791547E+01  0.13331100097E+02  0.51880191121E+01  0.14564363075E+02  0.10566000000E+00 0.  1.
         13    1    4    4    0    0 -0.19688892262E+01 -0.63951944784E+01 -0.65374390963E+02  0.65716034535E+02  0.10566000000E+00 0. -1.
        -13    1    4    4    0    0 -0.42953828315E+00 -0.20094691649E+01 -0.16441304091E+02  0.16569553818E+02  0.10566000000E+00 0.  1.
         14    1    4    4    0    0 -0.33575164535E+00 -0.49264364533E+01 -0.53503442480E+02  0.53730818554E+02  0.00000000000E+00 0. -1.
<mgrwt>
<rscale>  0 0.75765825E+02</rscale>
<asrwt>0</asrwt>
<pdfrwt beam="1">  1        2 0.21593221E-01 0.75765825E+02</pdfrwt>
<pdfrwt beam="2">  1       -1 0.15730502E-02 0.75765825E+02</pdfrwt>
<totfact> 0.22648582E+05</totfact>
</mgrwt>
</event>
<event>
 8    1  0.1520917E-017  0.8182259E+02  0.7818608E-02  0.1323957E+00
         -1   -1    0    0    0  501 -0.00000000000E+00  0.00000000000E+00  0.10173557315E+03  0.10173557327E+03  0.50400000000E-02 0.  1.
          2   -1    0    0  501    0  0.00000000000E+00 -0.00000000000E+00 -0.16451808796E+02  0.16451808993E+02  0.25500000000E-02 0. -1.
         24    2    1    2    0    0  0.00000000000E+00  0.71054273576E-14  0.85283764351E+02  0.11818738226E+03  0.81822593853E+02 0.  0.
         66    2    3    3    0    0 -0.61348984921E+01  0.39707015167E+02  0.31719541566E+02  0.51229028346E+02  0.19999987822E+01 0.  0.
        -13    1    3    3    0    0  0.61348984921E+01 -0.39707015167E+02  0.53564222785E+02  0.66958353919E+02  0.10566000000E+00 0.  1.
         13    1    4    4    0    0 -0.24502754312E+01  0.13352929542E+02  0.11033895695E+02  0.17494644760E+02  0.10566000000E+00 0. -1.
        -13    1    4    4    0    0 -0.26332613792E+01  0.14517612241E+02  0.11916190530E+02  0.18965808484E+02  0.10566000000E+00 0.  1.
        -14    1    4    4    0    0 -0.10513616817E+01  0.11836473383E+02  0.87694553410E+01  0.14768575101E+02  0.00000000000E+00 0.  1.
<mgrwt>
<rscale>  0 0.81822594E+02</rscale>
<asrwt>0</asrwt>
<pdfrwt beam="1">  1        2 0.25310476E-02 0.81822594E+02</pdfrwt>
<pdfrwt beam="2">  1       -1 0.15651626E-01 0.81822594E+02</pdfrwt>
<totfact> 0.11164040E+05</totfact>
</mgrwt>
</event>
<event>
 8    1  0.1520917E-017  0.8027323E+02  0.7818608E-02  0.1328278E+00
          2   -1    0    0  501    0  0.00000000000E+00  0.00000000000E+00  0.11599961639E+04  0.11599961639E+04  0.25500000000E-02 0. -1.
         -1   -1    0    0    0  501 -0.00000000000E+00 -0.00000000000E+00 -0.13887481717E+01  0.13887573172E+01  0.50400000000E-02 0.  1.
         24    2    1    2    0    0  0.00000000000E+00  0.00000000000E+00  0.11586074157E+04  0.11613849212E+04  0.80273230012E+02 0.  0.
         66    2    3    3    0    0 -0.10328473283E+02 -0.73912968776E+01  0.11301338511E+04  0.11302069855E+04  0.20000032757E+01 0.  0.
        -13    1    3    3    0    0  0.10328473283E+02  0.73912968776E+01  0.28473564635E+02  0.31177935739E+02  0.10566000000E+00 0.  1.
         13    1    4    4    0    0 -0.71548420235E+01 -0.54449276757E+01  0.84073561923E+03  0.84078370085E+03  0.10566000000E+00 0. -1.
        -13    1    4    4    0    0 -0.30424287773E+01 -0.17312770150E+01  0.27909964304E+03  0.27912161436E+03  0.10566000000E+00 0.  1.
        -14    1    4    4    0    0 -0.13120248205E+00 -0.21509218697E+00  0.10298588817E+02  0.10301670271E+02  0.00000000000E+00 0.  1.
<mgrwt>
<rscale>  0 0.80273230E+02</rscale>
<asrwt>0</asrwt>
<pdfrwt beam="1">  1        2 0.17846108E+00 0.80273230E+02</pdfrwt>
<pdfrwt beam="2">  1       -1 0.21365412E-03 0.80273230E+02</pdfrwt>
<totfact> 0.34840191E+05</totfact>
</mgrwt>
</event>
<event>
 8    1  0.1520917E-017  0.8943822E+02  0.7818608E-02  0.1304218E+00
         -1   -1    0    0    0  501 -0.00000000000E+00  0.00000000000E+00  0.22708733179E+01  0.22708789108E+01  0.50400000000E-02 0.  1.
          2   -1    0    0  501    0  0.00000000000E+00 -0.00000000000E+00 -0.88062866661E+03  0.88062866661E+03  0.25500000000E-02 0. -1.
         24    2    1    2    0    0  0.00000000000E+00  0.00000000000E+00 -0.87835779329E+03  0.88289954552E+03  0.89438215827E+02 0.  0.
         66    2    3    3    0    0 -0.13083134273E+02  0.19441883517E+02 -0.81512121136E+03  0.81546044933E+03  0.19999936672E+01 0.  0.
        -13    1    3    3    0    0  0.13083134273E+02 -0.19441883517E+02 -0.63236581931E+02  0.67439096194E+02  0.10566000000E+00 0.  1.
         13    1    4    4    0    0 -0.31850480478E+01  0.35542290881E+01 -0.16551605067E+03  0.16558487633E+03  0.10566000000E+00 0.  1.
        -13    1    4    4    0    0 -0.97443902877E+01  0.15507637196E+02 -0.63023649430E+03  0.63050256928E+03  0.10566000000E+00 0. -1.
        -14    1    4    4    0    0 -0.15369593783E+00  0.38001723254E+00 -0.19368666380E+02  0.19373003714E+02  0.00000000000E+00 0.  1.
<mgrwt>
<rscale>  0 0.89438216E+02</rscale>
<asrwt>0</asrwt>
<pdfrwt beam="1">  1        2 0.13548106E+00 0.89438216E+02</pdfrwt>
<pdfrwt beam="2">  1       -1 0.34936626E-03 0.89438216E+02</pdfrwt>
<totfact> 0.26051379E+05</totfact>
</mgrwt>
</event>
<event>
 8    1  0.1520917E-017  0.8100648E+02  0.7818608E-02  0.1326219E+00
         -1   -1    0    0    0  501 -0.00000000000E+00  0.00000000000E+00  0.35722447527E+01  0.35722483081E+01  0.50400000000E-02 0.  1.
          2   -1    0    0  501    0  0.00000000000E+00 -0.00000000000E+00 -0.45923825625E+03  0.45923825625E+03  0.25500000000E-02 0. -1.
         24    2    1    2    0    0  0.17763568394E-14  0.17763568394E-14 -0.45566601149E+03  0.46281050456E+03  0.81006475679E+02 0.  0.
         66    2    3    3    0    0 -0.14001090930E+02 -0.11889863995E+02 -0.43405352766E+03  0.43444661847E+03  0.20000017166E+01 0.  0.
        -13    1    3    3    0    0  0.14001090930E+02  0.11889863995E+02 -0.21612483829E+02  0.28363886094E+02  0.10566000000E+00 0.  1.
         13    1    4    4    0    0 -0.47659282175E+01 -0.51149328112E+01 -0.16833772341E+03  0.16848286826E+03  0.10566000000E+00 0. -1.
        -13    1    4    4    0    0 -0.52238478813E+01 -0.35114530761E+01 -0.15266071320E+03  0.15279045588E+03  0.10566000000E+00 0.  1.
         14    1    4    4    0    0 -0.40113148313E+01 -0.32634781075E+01 -0.11305509105E+03  0.11317329432E+03  0.00000000000E+00 0. -1.
<mgrwt>
<rscale>  0 0.81006476E+02</rscale>
<asrwt>0</asrwt>
<pdfrwt beam="1">  1        2 0.70651993E-01 0.81006476E+02</pdfrwt>
<pdfrwt beam="2">  1       -1 0.54957676E-03 0.81006476E+02</pdfrwt>
<totfact> 0.28668055E+05</totfact>
</mgrwt>
</event>
<event>
 8    1  0.1520917E-017  0.7887382E+02  0.7818608E-02  0.1332278E+00
          2   -1    0    0  501    0  0.00000000000E+00  0.00000000000E+00  0.17718012729E+03  0.17718012731E+03  0.25500000000E-02 0. -1.
         -1   -1    0    0    0  501 -0.00000000000E+00 -0.00000000000E+00 -0.87779016739E+01  0.87779031208E+01  0.50400000000E-02 0.  1.
         24    2    1    2    0    0  0.00000000000E+00  0.88817841970E-15  0.16840222562E+03  0.18595803043E+03  0.78873820046E+02 0.  0.
         66    2    3    3    0    0 -0.17741918532E+02 -0.63267416011E+01  0.16587463727E+03  0.16695268383E+03  0.20000039568E+01 0.  0.
        -13    1    3    3    0    0  0.17741918532E+02  0.63267416011E+01  0.25275883451E+01  0.19005346599E+02  0.10566000000E+00 0.  1.
         13    1    4    4    0    0 -0.60362480753E+01 -0.15393600941E+01  0.51733114802E+02  0.52106930935E+02  0.10566000000E+00 0. -1.
        -13    1    4    4    0    0 -0.34159159455E+01 -0.19068906947E+01  0.33203072955E+02  0.33432916887E+02  0.10566000000E+00 0.  1.
         14    1    4    4    0    0 -0.82897545110E+01 -0.28804908122E+01  0.80938449514E+02  0.81412836008E+02  0.00000000000E+00 0. -1.
<mgrwt>
<rscale>  0 0.78873820E+02</rscale>
<asrwt>0</asrwt>
<pdfrwt beam="1">  1        2 0.27258481E-01 0.78873820E+02</pdfrwt>
<pdfrwt beam="2">  1       -1 0.13504466E-02 0.78873820E+02</pdfrwt>
<totfact> 0.21968694E+05</totfact>
</mgrwt>
</event>
<event>
 8    1  0.1520917E-017  0.8463882E+02  0.7818608E-02  0.1316380E+00
         -1   -1    0    0    0  501 -0.00000000000E+00  0.00000000000E+00  0.35507280233E+01  0.35507316003E+01  0.50400000000E-02 0.  1.
          2   -1    0    0  501    0  0.00000000000E+00 -0.00000000000E+00 -0.50438430643E+03  0.50438430644E+03  0.25500000000E-02 0. -1.
         24    2    1    2    0    0 -0.35527136788E-14  0.00000000000E+00 -0.50083357841E+03  0.50793503804E+03  0.84638818551E+02 0.  0.
         66    2    3    3    0    0 -0.18301902327E+02 -0.33946918774E+02 -0.35477257223E+03  0.35686822629E+03  0.20000007615E+01 0.  0.
        -13    1    3    3    0    0  0.18301902327E+02  0.33946918774E+02 -0.14606100618E+03  0.15106681175E+03  0.10566000000E+00 0.  1.
         13    1    4    4    0    0 -0.71461387498E+01 -0.14940986459E+02 -0.15681286413E+03  0.15768508457E+03  0.10566000000E+00 0. -1.
        -13    1    4    4    0    0 -0.76946041529E+01 -0.12809577547E+02 -0.13539869130E+03  0.13622080964E+03  0.10566000000E+00 0.  1.
        -14    1    4    4    0    0 -0.34611594242E+01 -0.61963547685E+01 -0.62561016800E+02  0.62962332072E+02  0.00000000000E+00 0.  1.
<mgrwt>
<rscale>  0 0.84638819E+02</rscale>
<asrwt>0</asrwt>
<pdfrwt beam="1">  1        2 0.77597529E-01 0.84638819E+02</pdfrwt>
<pdfrwt beam="2">  1       -1 0.54626653E-03 0.84638819E+02</pdfrwt>
<totfact> 0.26353677E+05</totfact>
</mgrwt>
</event>
<event>
 8    1  0.1520917E-017  0.7950692E+02  0.7818608E-02  0.1330457E+00
          2   -1    0    0  501    0  0.00000000000E+00  0.00000000000E+00  0.92395198259E+01  0.92395201778E+01  0.25500000000E-02 0. -1.
         -1   -1    0    0    0  501 -0.00000000000E+00 -0.00000000000E+00 -0.17104107545E+03  0.17104107553E+03  0.50400000000E-02 0.  1.
         24    2    1    2    0    0  0.00000000000E+00  0.00000000000E+00 -0.16180155563E+03  0.18028059570E+03  0.79506916582E+02 0.  0.
         66    2    3    3    0    0  0.71851779176E+01  0.25096875933E+02 -0.13046383331E+02  0.29252146688E+02  0.20000011431E+01 0.  0.
        -13    1    3    3    0    0 -0.71851779176E+01 -0.25096875933E+02 -0.14875517229E+03  0.15102844901E+03  0.10566000000E+00 0.  1.
         13    1    4    4    0    0  0.50416509767E+01  0.17992025081E+02 -0.91471235788E+01  0.20804140090E+02  0.10566000000E+00 0. -1.
        -13    1    4    4    0    0  0.12079520437E+01  0.48626926874E+01 -0.30881735927E+01  0.58866721062E+01  0.10566000000E+00 0.  1.
         14    1    4    4    0    0  0.93557489722E+00  0.22421581644E+01 -0.81108615903E+00  0.25613344920E+01  0.00000000000E+00 0. -1.
<mgrwt>
<rscale>  0 0.79506917E+02</rscale>
<asrwt>0</asrwt>
<pdfrwt beam="1">  1        2 0.14214647E-02 0.79506917E+02</pdfrwt>
<pdfrwt beam="2">  1       -1 0.26314009E-01 0.79506917E+02</pdfrwt>
<totfact> 0.10584182E+05</totfact>
</mgrwt>
</event>
<event>
 8    1  0.1520917E-017  0.8654621E+02  0.7818608E-02  0.1311438E+00
          2   -1    0    0  501    0  0.00000000000E+00  0.00000000000E+00  0.23982314529E+03  0.23982314530E+03  0.25500000000E-02 0. -1.
         -1   -1    0    0    0  501 -0.00000000000E+00 -0.00000000000E+00 -0.78080930131E+01  0.78080946397E+01  0.50400000000E-02 0.  1.
         24    2    1    2    0    0  0.00000000000E+00 -0.35527136788E-14  0.23201505227E+03  0.24763123994E+03  0.86546210273E+02 0.  0.
         66    2    3    3    0    0  0.34472316728E+02  0.20530820550E+02  0.69870681578E+02  0.80596323455E+02  0.19999993016E+01 0.  0.
        -13    1    3    3    0    0 -0.34472316728E+02 -0.20530820550E+02  0.16214437069E+03  0.16703491648E+03  0.10566000000E+00 0.  1.
         13    1    4    4    0    0  0.22137300502E+01  0.15713549991E+01  0.48792587506E+01  0.55846295543E+01  0.10566000000E+00 0.  1.
        -13    1    4    4    0    0  0.25633302176E+01  0.15790405721E+01  0.44021290024E+01  0.53342229727E+01  0.10566000000E+00 0. -1.
         14    1    4    4    0    0  0.29695256460E+02  0.17380424978E+02  0.60589293825E+02  0.69677470928E+02  0.00000000000E+00 0. -1.
<mgrwt>
<rscale>  0 0.86546210E+02</rscale>
<asrwt>0</asrwt>
<pdfrwt beam="1">  1        2 0.36895868E-01 0.86546210E+02</pdfrwt>
<pdfrwt beam="2">  1       -1 0.12012452E-02 0.86546210E+02</pdfrwt>
<totfact> 0.19105211E+05</totfact>
</mgrwt>
</event>
<event>
 8    1  0.1520917E-017  0.7846878E+02  0.7818608E-02  0.1333454E+00
          2   -1    0    0  501    0  0.00000000000E+00  0.00000000000E+00  0.12937700186E+04  0.12937700186E+04  0.25500000000E-02 0. -1.
         -1   -1    0    0    0  501 -0.00000000000E+00 -0.00000000000E+00 -0.11898022981E+01  0.11898129728E+01  0.50400000000E-02 0.  1.
         24    2    1    2    0    0  0.00000000000E+00 -0.17763568394E-14  0.12925802163E+04  0.12949598315E+04  0.78468782444E+02 0.  0.
         66    2    3    3    0    0  0.57842547205E+01 -0.10956633541E+02  0.12606125531E+04  0.12606750234E+04  0.20000003910E+01 0.  0.
        -13    1    3    3    0    0 -0.57842547205E+01  0.10956633541E+02  0.31967663129E+02  0.34284808169E+02  0.10566000000E+00 0.  1.
         13    1    4    4    0    0  0.28722048345E+01 -0.49365010570E+01  0.50242117326E+03  0.50245364474E+03  0.10566000000E+00 0. -1.
        -13    1    4    4    0    0  0.80272755892E+00 -0.23517226608E+01  0.31346603127E+03  0.31347589843E+03  0.10566000000E+00 0.  1.
         14    1    4    4    0    0  0.21093223272E+01 -0.36684098237E+01  0.44472534861E+03  0.44474548021E+03  0.00000000000E+00 0. -1.
<mgrwt>
<rscale>  0 0.78468782E+02</rscale>
<asrwt>0</asrwt>
<pdfrwt beam="1">  1        2 0.19904211E+00 0.78468782E+02</pdfrwt>
<pdfrwt beam="2">  1       -1 0.18304681E-03 0.78468782E+02</pdfrwt>
<totfact> 0.36430233E+05</totfact>
</mgrwt>
</event>
<event>
 8    1  0.1520917E-017  0.7913137E+02  0.7818608E-02  0.1331535E+00
          2   -1    0    0  501    0  0.00000000000E+00  0.00000000000E+00  0.13067516610E+04  0.13067516610E+04  0.25500000000E-02 0. -1.
         -1   -1    0    0    0  501 -0.00000000000E+00 -0.00000000000E+00 -0.11979600931E+01  0.11979706951E+01  0.50400000000E-02 0.  1.
         24    2    1    2    0    0  0.00000000000E+00  0.13877787808E-16  0.13055537009E+04  0.13079496317E+04  0.79131366133E+02 0.  0.
         66    2    3    3    0    0  0.25396852221E+02  0.77619938226E-01  0.11541098361E+04  0.11543909736E+04  0.19999994411E+01 0.  0.
        -13    1    3    3    0    0 -0.25396852221E+02 -0.77619938226E-01  0.15144386474E+03  0.15355865804E+03  0.10566000000E+00 0.  1.
         13    1    4    4    0    0  0.16400253828E+02 -0.27497726050E+00  0.78158558343E+03  0.78175768581E+03  0.10566000000E+00 0. -1.
        -13    1    4    4    0    0  0.31565318859E+01  0.29065217794E+00  0.12762376549E+03  0.12766316953E+03  0.10566000000E+00 0.  1.
         14    1    4    4    0    0  0.58400665068E+01  0.61945020783E-01  0.24490048721E+03  0.24497011828E+03  0.00000000000E+00 0. -1.
<mgrwt>
<rscale>  0 0.79131366E+02</rscale>
<asrwt>0</asrwt>
<pdfrwt beam="1">  1        2 0.20103961E+00 0.79131366E+02</pdfrwt>
<pdfrwt beam="2">  1       -1 0.18430155E-03 0.79131366E+02</pdfrwt>
<totfact> 0.35575632E+05</totfact>
</mgrwt>
</event>
<event>
 8    1  0.1520917E-017  0.8253412E+02  0.7818608E-02  0.1322010E+00
         -1   -1    0    0    0  501 -0.00000000000E+00  0.00000000000E+00  0.84047200426E+01  0.84047215538E+01  0.50400000000E-02 0.  1.
          2   -1    0    0  501    0  0.00000000000E+00 -0.00000000000E+00 -0.20262068553E+03  0.20262068555E+03  0.25500000000E-02 0. -1.
         24    2    1    2    0    0  0.00000000000E+00  0.17763568394E-14 -0.19421596549E+03  0.21102540710E+03  0.82534121378E+02 0.  0.
         66    2    3    3    0    0  0.13469342825E+02 -0.87531024794E+01 -0.19428808111E+03  0.19496127427E+03  0.20000006133E+01 0.  0.
        -13    1    3    3    0    0 -0.13469342825E+02  0.87531024794E+01  0.72115619328E-01  0.16064132838E+02  0.10566000000E+00 0.  1.
         13    1    4    4    0    0  0.58725049768E+01 -0.47787338280E+01 -0.92828442292E+02  0.93136746100E+02  0.10566000000E+00 0. -1.
        -13    1    4    4    0    0  0.34321156406E+01 -0.13529980345E+01 -0.42776767522E+02  0.42935684752E+02  0.10566000000E+00 0.  1.
        -14    1    4    4    0    0  0.41647222073E+01 -0.26213706168E+01 -0.58682871297E+02  0.58888843414E+02  0.00000000000E+00 0.  1.
<mgrwt>
<rscale>  0 0.82534121E+02</rscale>
<asrwt>0</asrwt>
<pdfrwt beam="1">  1        2 0.31172409E-01 0.82534121E+02</pdfrwt>
<pdfrwt beam="2">  1       -1 0.12930341E-02 0.82534121E+02</pdfrwt>
<totfact> 0.20405932E+05</totfact>
</mgrwt>
</event>
<event>
 8    1  0.1520917E-017  0.7202645E+02  0.7818608E-02  0.1353335E+00
         -1   -1    0    0    0  501 -0.00000000000E+00  0.00000000000E+00  0.85360149638E+02  0.85360149787E+02  0.50400000000E-02 0.  1.
          2   -1    0    0  501    0  0.00000000000E+00 -0.00000000000E+00 -0.15193884301E+02  0.15193884515E+02  0.25500000000E-02 0. -1.
         24    2    1    2    0    0  0.00000000000E+00  0.00000000000E+00  0.70166265338E+02  0.10055403430E+03  0.72026446691E+02 0.  0.
         66    2    3    3    0    0 -0.51264359399E+01  0.17202615137E+02 -0.84315798331E+01  0.19932432094E+02  0.19999994228E+01 0.  0.
        -13    1    3    3    0    0  0.51264359399E+01 -0.17202615137E+02  0.78597845171E+02  0.80621602208E+02  0.10566000000E+00 0.  1.
         13    1    4    4    0    0 -0.35552258213E+00  0.29939036894E+01 -0.11757554924E+01  0.32378110849E+01  0.10566000000E+00 0. -1.
        -13    1    4    4    0    0 -0.18167383811E+01  0.45618376379E+01 -0.18477457908E+01  0.52474974533E+01  0.10566000000E+00 0.  1.
         14    1    4    4    0    0 -0.29541749767E+01  0.96468738100E+01 -0.54080785499E+01  0.11447123556E+02  0.00000000000E+00 0. -1.
<mgrwt>
<rscale>  0 0.72026447E+02</rscale>
<asrwt>0</asrwt>
<pdfrwt beam="1">  1        2 0.23375207E-02 0.72026447E+02</pdfrwt>
<pdfrwt beam="2">  1       -1 0.13132330E-01 0.72026447E+02</pdfrwt>
<totfact> 0.15887014E+05</totfact>
</mgrwt>
</event>
<event>
 8    1  0.1520917E-017  0.7558382E+02  0.7818608E-02  0.1342073E+00
          2   -1    0    0  501    0  0.00000000000E+00  0.00000000000E+00  0.35514596031E+03  0.35514596032E+03  0.25500000000E-02 0. -1.
         -1   -1    0    0    0  501 -0.00000000000E+00 -0.00000000000E+00 -0.40215238244E+01  0.40215269826E+01  0.50400000000E-02 0.  1.
         24    2    1    2    0    0  0.00000000000E+00  0.00000000000E+00  0.35112443649E+03  0.35916748730E+03  0.75583821267E+02 0.  0.
         66    2    3    3    0    0 -0.37366360914E+01  0.11219970670E+02  0.34611701889E+03  0.34632476227E+03  0.20000019675E+01 0.  0.
        -13    1    3    3    0    0  0.37366360914E+01 -0.11219970670E+02  0.50074175958E+01  0.12842725028E+02  0.10566000000E+00 0.  1.
         13    1    4    4    0    0 -0.24442806684E+01  0.70094382382E+01  0.21160327780E+03  0.21173347650E+03  0.10566000000E+00 0. -1.
        -13    1    4    4    0    0 -0.62883990076E+00  0.67390057547E+00  0.20911461891E+02  0.20932032488E+02  0.10566000000E+00 0.  1.
         14    1    4    4    0    0 -0.66351552220E+00  0.35366318566E+01  0.11360227920E+03  0.11365925328E+03  0.00000000000E+00 0. -1.
<mgrwt>
<rscale>  0 0.75583821E+02</rscale>
<asrwt>0</asrwt>
<pdfrwt beam="1">  1        2 0.54637844E-01 0.75583821E+02</pdfrwt>
<pdfrwt beam="2">  1       -1 0.61869617E-03 0.75583821E+02</pdfrwt>
<totfact> 0.31415483E+05</totfact>
</mgrwt>
</event>
<event>
 8    1  0.1520917E-017  0.8555567E+02  0.7818608E-02  0.1313986E+00
          2   -1    0    0  501    0  0.00000000000E+00  0.00000000000E+00  0.17325425024E+02  0.17325425211E+02  0.25500000000E-02 0. -1.
         -1   -1    0    0    0  501 -0.00000000000E+00 -0.00000000000E+00 -0.10562182742E+03  0.10562182754E+03  0.50400000000E-02 0.  1.
         24    2    1    2    0    0 -0.71054273576E-14  0.88817841970E-15 -0.88296402395E+02  0.12294725275E+03  0.85555667743E+02 0.  0.
         66    2    3    3    0    0 -0.34319061506E+02  0.70337068543E+01 -0.89524550315E+01  0.36213498294E+02  0.19999982127E+01 0.  0.
        -13    1    3    3    0    0  0.34319061506E+02 -0.70337068543E+01 -0.79343947363E+02  0.86733754456E+02  0.10566000000E+00 0.  1.
         13    1    4    4    0    0 -0.16141697534E+02  0.39193333137E+01 -0.40103985370E+01  0.17088301067E+02  0.10566000000E+00 0. -1.
        -13    1    4    4    0    0 -0.10757904146E+02  0.18523259439E+01 -0.34843387555E+01  0.11459292893E+02  0.10566000000E+00 0.  1.
        -14    1    4    4    0    0 -0.74194598266E+01  0.12620475967E+01 -0.14577177390E+01  0.76659043342E+01  0.00000000000E+00 0.  1.
<mgrwt>
<rscale>  0 0.85555668E+02</rscale>
<asrwt>0</asrwt>
<pdfrwt beam="1">  1        2 0.26654501E-02 0.85555668E+02</pdfrwt>
<pdfrwt beam="2">  1       -1 0.16249512E-01 0.85555668E+02</pdfrwt>
<totfact> 0.99052264E+04</totfact>
</mgrwt>
</event>
<event>
 8    1  0.1520917E-017  0.7047192E+02  0.7818608E-02  0.1358496E+00
         -1   -1    0    0    0  501 -0.00000000000E+00  0.00000000000E+00  0.52179258452E+02  0.52179258695E+02  0.50400000000E-02 0.  1.
          2   -1    0    0  501    0  0.00000000000E+00 -0.00000000000E+00 -0.23794377316E+02  0.23794377452E+02  0.25500000000E-02 0. -1.
         24    2    1    2    0    0  0.00000000000E+00  0.11102230246E-15  0.28384881136E+02  0.75973636148E+02  0.70471922865E+02 0.  0.
         66    2    3    3    0    0 -0.30668956328E+02 -0.80109705883E+00 -0.44171889118E+01  0.31060235005E+02  0.20000004874E+01 0.  0.
        -13    1    3    3    0    0  0.30668956328E+02  0.80109705883E+00  0.32802070048E+02  0.44913401143E+02  0.10566000000E+00 0.  1.
         13    1    4    4    0    0 -0.15145573176E+02 -0.64500309203E-01 -0.28532019497E+01  0.15412477819E+02  0.10566000000E+00 0. -1.
        -13    1    4    4    0    0 -0.57902250131E+01 -0.48549971090E+00 -0.98288966963E+00  0.58940352739E+01  0.10566000000E+00 0.  1.
         14    1    4    4    0    0 -0.97331581385E+01 -0.25109703873E+00 -0.58109729247E+00  0.97537219120E+01  0.00000000000E+00 0. -1.
<mgrwt>
<rscale>  0 0.70471923E+02</rscale>
<asrwt>0</asrwt>
<pdfrwt beam="1">  1        2 0.36606735E-02 0.70471923E+02</pdfrwt>
<pdfrwt beam="2">  1       -1 0.80275782E-02 0.70471923E+02</pdfrwt>
<totfact> 0.18342928E+05</totfact>
</mgrwt>
</event>
<event>
 8    1  0.1520917E-017  0.8052334E+02  0.7818608E-02  0.1327573E+00
          2   -1    0    0  501    0  0.00000000000E+00  0.00000000000E+00  0.13688047658E+03  0.13688047660E+03  0.25500000000E-02 0. -1.
         -1   -1    0    0    0  501 -0.00000000000E+00 -0.00000000000E+00 -0.11842462522E+02  0.11842463594E+02  0.50400000000E-02 0.  1.
         24    2    1    2    0    0  0.00000000000E+00  0.00000000000E+00  0.12503801406E+03  0.14872294020E+03  0.80523338117E+02 0.  0.
         66    2    3    3    0    0 -0.37843267633E+02  0.13659951202E+02  0.61563043932E+02  0.73571159324E+02  0.19999835034E+01 0.  0.
        -13    1    3    3    0    0  0.37843267633E+02 -0.13659951202E+02  0.63474970126E+02  0.75151780874E+02  0.10566000000E+00 0.  1.
         13    1    4    4    0    0 -0.88445035510E+01  0.33994823008E+01  0.14019559996E+02  0.16921611906E+02  0.10566000000E+00 0. -1.
        -13    1    4    4    0    0 -0.12599774759E+02  0.52744927265E+01  0.21448539777E+02  0.25428834422E+02  0.10566000000E+00 0.  1.
        -14    1    4    4    0    0 -0.16398989323E+02  0.49859761751E+01  0.26094944160E+02  0.31220712995E+02  0.00000000000E+00 0.  1.
<mgrwt>
<rscale>  0 0.80523338E+02</rscale>
<asrwt>0</asrwt>
<pdfrwt beam="1">  1        2 0.21058534E-01 0.80523338E+02</pdfrwt>
<pdfrwt beam="2">  1       -1 0.18219175E-02 0.80523338E+02</pdfrwt>
<totfact> 0.19121316E+05</totfact>
</mgrwt>
</event>
<event>
 8    1  0.1520917E-017  0.8021741E+02  0.7818608E-02  0.1328436E+00
          2   -1    0    0  501    0  0.00000000000E+00  0.00000000000E+00  0.16839266240E+02  0.16839266433E+02  0.25500000000E-02 0. -1.
         -1   -1    0    0    0  501 -0.00000000000E+00 -0.00000000000E+00 -0.95533145546E+02  0.95533145679E+02  0.50400000000E-02 0.  1.
         24    2    1    2    0    0  0.00000000000E+00  0.35527136788E-14 -0.78693879306E+02  0.11237241211E+03  0.80217406863E+02 0.  0.
         66    2    3    3    0    0 -0.24620988337E+02 -0.31527454439E+02 -0.42950950502E+02  0.58727826425E+02  0.19999993727E+01 0.  0.
        -13    1    3    3    0    0  0.24620988337E+02  0.31527454439E+02 -0.35742928804E+02  0.53644585687E+02  0.10566000000E+00 0.  1.
         13    1    4    4    0    0 -0.12873301550E+02 -0.16928414332E+02 -0.22324722838E+02  0.30833383181E+02  0.10566000000E+00 0. -1.
        -13    1    4    4    0    0 -0.17551697883E+01 -0.23496765142E+01 -0.38882320123E+01  0.48714590139E+01  0.10566000000E+00 0.  1.
        -14    1    4    4    0    0 -0.99925169984E+01 -0.12249363593E+02 -0.16737995652E+02  0.23022984230E+02  0.00000000000E+00 0.  1.
<mgrwt>
<rscale>  0 0.80217407E+02</rscale>
<asrwt>0</asrwt>
<pdfrwt beam="1">  1        2 0.25906564E-02 0.80217407E+02</pdfrwt>
<pdfrwt beam="2">  1       -1 0.14697407E-01 0.80217407E+02</pdfrwt>
<totfact> 0.11888292E+05</totfact>
</mgrwt>
</event>
<event>
 8    1  0.1520917E-017  0.7971690E+02  0.7818608E-02  0.1329857E+00
          2   -1    0    0  501    0  0.00000000000E+00  0.00000000000E+00  0.25786668281E+02  0.25786668407E+02  0.25500000000E-02 0. -1.
         -1   -1    0    0    0  501 -0.00000000000E+00 -0.00000000000E+00 -0.61609197019E+02  0.61609197225E+02  0.50400000000E-02 0.  1.
         24    2    1    2    0    0  0.00000000000E+00  0.00000000000E+00 -0.35822528739E+02  0.87395865632E+02  0.79716897609E+02 0.  0.
         66    2    3    3    0    0 -0.18083899868E+02  0.35465483197E+02 -0.16426086847E+02  0.43111996617E+02  0.19999976070E+01 0.  0.
        -13    1    3    3    0    0  0.18083899868E+02 -0.35465483197E+02 -0.19396441892E+02  0.44283869015E+02  0.10566000000E+00 0.  1.
         13    1    4    4    0    0 -0.67235630634E+01  0.12612453665E+02 -0.50893968661E+01  0.15172126160E+02  0.10566000000E+00 0. -1.
        -13    1    4    4    0    0 -0.56542918329E+01  0.11954278071E+02 -0.62631406630E+01  0.14632630499E+02  0.10566000000E+00 0.  1.
        -14    1    4    4    0    0 -0.57060449713E+01  0.10898751461E+02 -0.50735493175E+01  0.13307239958E+02  0.00000000000E+00 0.  1.
<mgrwt>
<rscale>  0 0.79716898E+02</rscale>
<asrwt>0</asrwt>
<pdfrwt beam="1">  1        2 0.39671798E-02 0.79716898E+02</pdfrwt>
<pdfrwt beam="2">  1       -1 0.94783380E-02 0.79716898E+02</pdfrwt>
<totfact> 0.13191424E+05</totfact>
</mgrwt>
</event>
<event>
 8    1  0.1520917E-017  0.7812191E+02  0.7818608E-02  0.1334467E+00
         -1   -1    0    0    0  501 -0.00000000000E+00  0.00000000000E+00  0.71956566063E+01  0.71956583714E+01  0.50400000000E-02 0.  1.
          2   -1    0    0  501    0  0.00000000000E+00 -0.00000000000E+00 -0.21203874833E+03  0.21203874834E+03  0.25500000000E-02 0. -1.
         24    2    1    2    0    0 -0.17763568394E-14  0.35527136788E-14 -0.20484309172E+03  0.21923440671E+03  0.78121910252E+02 0.  0.
         66    2    3    3    0    0  0.94066890598E+01 -0.29709932908E+02 -0.16845694546E+03  0.17132690505E+03  0.20000014219E+01 0.  0.
        -13    1    3    3    0    0 -0.94066890598E+01  0.29709932908E+02 -0.36386146259E+02  0.47907501668E+02  0.10566000000E+00 0.  1.
         13    1    4    4    0    0  0.45946590131E+01 -0.15978396095E+02 -0.92015922654E+02  0.93505942160E+02  0.10566000000E+00 0. -1.
        -13    1    4    4    0    0  0.47058714629E+01 -0.13023844239E+02 -0.71546426875E+02  0.72874330924E+02  0.10566000000E+00 0.  1.
         14    1    4    4    0    0  0.10615858375E+00 -0.70769257366E+00 -0.48945959335E+01  0.49466319629E+01  0.00000000000E+00 0. -1.
<mgrwt>
<rscale>  0 0.78121910E+02</rscale>
<asrwt>0</asrwt>
<pdfrwt beam="1">  1        2 0.32621341E-01 0.78121910E+02</pdfrwt>
<pdfrwt beam="2">  1       -1 0.11070244E-02 0.78121910E+02</pdfrwt>
<totfact> 0.23966377E+05</totfact>
</mgrwt>
</event>
<event>
 8    1  0.1520917E-017  0.8509630E+02  0.7818608E-02  0.1315181E+00
          2   -1    0    0  501    0  0.00000000000E+00  0.00000000000E+00  0.67118127713E+03  0.67118127714E+03  0.25500000000E-02 0. -1.
         -1   -1    0    0    0  501 -0.00000000000E+00 -0.00000000000E+00 -0.26972496990E+01  0.26972544077E+01  0.50400000000E-02 0.  1.
         24    2    1    2    0    0  0.00000000000E+00  0.00000000000E+00  0.66848402743E+03  0.67387853155E+03  0.85096300411E+02 0.  0.
         66    2    3    3    0    0 -0.39061664456E+02  0.95860737003E+01  0.44376401657E+03  0.44558748729E+03  0.19999977122E+01 0.  0.
        -13    1    3    3    0    0  0.39061664456E+02 -0.95860737003E+01  0.22472001086E+03  0.22829104425E+03  0.10566000000E+00 0.  1.
         13    1    4    4    0    0 -0.11534555353E+00  0.69935429856E-01  0.22451035243E+01  0.22516326147E+01  0.10566000000E+00 0.  1.
        -13    1    4    4    0    0 -0.96345491030E+01  0.21097539262E+01  0.10902695215E+03  0.10947220221E+03  0.10566000000E+00 0. -1.
         14    1    4    4    0    0 -0.29311769800E+02  0.74063843442E+01  0.33249196090E+03  0.33386365247E+03  0.00000000000E+00 0. -1.
<mgrwt>
<rscale>  0 0.85096300E+02</rscale>
<asrwt>0</asrwt>
<pdfrwt beam="1">  1        2 0.10325864E+00 0.85096300E+02</pdfrwt>
<pdfrwt beam="2">  1       -1 0.41496194E-03 0.85096300E+02</pdfrwt>
<totfact> 0.28193618E+05</totfact>
</mgrwt>
</event>
<event>
 8    1  0.1683716E-017  0.7929466E+02  0.7818608E-02  0.1331065E+00
         -1   -1    0    0    0  501 -0.00000000000E+00  0.00000000000E+00  0.48928800818E+01  0.48928826776E+01  0.50400000000E-02 0.  1.
          2   -1    0    0  501    0  0.00000000000E+00 -0.00000000000E+00 -0.32126485515E+03  0.32126485516E+03  0.25500000000E-02 0. -1.
         24    2    1    2    0    0  0.35527136788E-14  0.00000000000E+00 -0.31637197507E+03  0.32615773784E+03  0.79294661503E+02 0.  0.
         66    2    3    3    0    0 -0.23699949836E+02  0.52079605866E+01 -0.28712297035E+03  0.28815344970E+03  0.19999993230E+01 0.  0.
        -13    1    3    3    0    0  0.23699949836E+02 -0.52079605866E+01 -0.29249004723E+02  0.38004288140E+02  0.10566000000E+00 0.  1.
         13    1    4    4    0    0 -0.14168758710E+02  0.29638286103E+01 -0.17127956545E+03  0.17189019375E+03  0.10566000000E+00 0. -1.
        -13    1    4    4    0    0 -0.36485601389E+01  0.24386259074E+00 -0.42743144146E+02  0.42899405538E+02  0.10566000000E+00 0.  1.
        -14    1    4    4    0    0 -0.58826309866E+01  0.20002693855E+01 -0.73100260757E+02  0.73363850414E+02  0.00000000000E+00 0.  1.
<mgrwt>
<rscale>  0 0.79294662E+02</rscale>
<asrwt>0</asrwt>
<pdfrwt beam="1">  1        2 0.49425346E-01 0.79294662E+02</pdfrwt>
<pdfrwt beam="2">  1       -1 0.75275124E-03 0.79294662E+02</pdfrwt>
<totfact> 0.26746418E+05</totfact>
</mgrwt>
</event>
<event>
 8    1  0.1520917E-017  0.7962142E+02  0.7818608E-02  0.1330129E+00
          2   -1    0    0  501    0  0.00000000000E+00  0.00000000000E+00  0.30764978003E+03  0.30764978004E+03  0.25500000000E-02 0. -1.
         -1   -1    0    0    0  501 -0.00000000000E+00 -0.00000000000E+00 -0.51516113246E+01  0.51516137900E+01  0.50400000000E-02 0.  1.
         24    2    1    2    0    0  0.00000000000E+00  0.00000000000E+00  0.30249816871E+03  0.31280139383E+03  0.79621416166E+02 0.  0.
         66    2    3    3    0    0 -0.34391290759E+02  0.10568287446E+02  0.21806562310E+03  0.22102277159E+03  0.20000005349E+01 0.  0.
        -13    1    3    3    0    0  0.34391290759E+02 -0.10568287446E+02  0.84432545605E+02  0.91778622244E+02  0.10566000000E+00 0.  1.
         13    1    4    4    0    0 -0.24276122926E+02  0.74987543358E+01  0.15111790318E+03  0.15323900707E+03  0.10566000000E+00 0. -1.
        -13    1    4    4    0    0 -0.96082541431E+01  0.30175989612E+01  0.64684859970E+02  0.65464240044E+02  0.10566000000E+00 0.  1.
        -14    1    4    4    0    0 -0.50691369002E+00  0.51934148839E-01  0.22628599495E+01  0.23195244763E+01  0.00000000000E+00 0.  1.
<mgrwt>
<rscale>  0 0.79621416E+02</rscale>
<asrwt>0</asrwt>
<pdfrwt beam="1">  1        2 0.47330732E-01 0.79621416E+02</pdfrwt>
<pdfrwt beam="2">  1       -1 0.79255584E-03 0.79621416E+02</pdfrwt>
<totfact> 0.26049623E+05</totfact>
</mgrwt>
</event>
<event>
 8    1  0.1520917E-017  0.7933094E+02  0.7818608E-02  0.1330961E+00
          2   -1    0    0  501    0  0.00000000000E+00  0.00000000000E+00  0.83267251028E+03  0.83267251028E+03  0.25500000000E-02 0. -1.
         -1   -1    0    0    0  501 -0.00000000000E+00 -0.00000000000E+00 -0.18895143933E+01  0.18895211150E+01  0.50400000000E-02 0.  1.
         24    2    1    2    0    0  0.17763568394E-14  0.00000000000E+00  0.83078299588E+03  0.83456203140E+03  0.79330939728E+02 0.  0.
         66    2    3    3    0    0 -0.13588872766E+02 -0.58679147123E+01  0.80250715354E+03  0.80264613707E+03  0.19999976271E+01 0.  0.
        -13    1    3    3    0    0  0.13588872766E+02  0.58679147123E+01  0.28275842348E+02  0.31915894326E+02  0.10566000000E+00 0.  1.
         13    1    4    4    0    0 -0.10426380924E+02 -0.41873669455E+01  0.60465708257E+03  0.60476147540E+03  0.10566000000E+00 0. -1.
        -13    1    4    4    0    0 -0.31186805507E+01 -0.17790399924E+01  0.19226263529E+03  0.19229618625E+03  0.10566000000E+00 0.  1.
         14    1    4    4    0    0 -0.43811292026E-01  0.98492225556E-01  0.55874356699E+01  0.55884754194E+01  0.00000000000E+00 0. -1.
<mgrwt>
<rscale>  0 0.79330940E+02</rscale>
<asrwt>0</asrwt>
<pdfrwt beam="1">  1        2 0.12810349E+00 0.79330940E+02</pdfrwt>
<pdfrwt beam="2">  1       -1 0.29069498E-03 0.79330940E+02</pdfrwt>
<totfact> 0.35352630E+05</totfact>
</mgrwt>
</event>
<event>
 8    1  0.1520917E-017  0.7963294E+02  0.7818608E-02  0.1330096E+00
         -1   -1    0    0    0  501 -0.00000000000E+00  0.00000000000E+00  0.14614955623E+01  0.14615042526E+01  0.50400000000E-02 0.  1.
          2   -1    0    0  501    0  0.00000000000E+00 -0.00000000000E+00 -0.10847426868E+04  0.10847426868E+04  0.25500000000E-02 0. -1.
         24    2    1    2    0    0 -0.17763568394E-14  0.17763568394E-14 -0.10832811912E+04  0.10862041911E+04  0.79632941534E+02 0.  0.
         66    2    3    3    0    0  0.12220987656E+02 -0.14639903183E+02 -0.10183457715E+04  0.10185262833E+04  0.20000080430E+01 0.  0.
        -13    1    3    3    0    0 -0.12220987656E+02  0.14639903183E+02 -0.64935419729E+02  0.67677907798E+02  0.10566000000E+00 0.  1.
         13    1    4    4    0    0  0.17381042812E+01 -0.19877485591E+01 -0.16814413412E+03  0.16816489869E+03  0.10566000000E+00 0. -1.
        -13    1    4    4    0    0  0.85566859497E+01 -0.99918610877E+01 -0.70340733311E+03  0.70353034164E+03  0.10566000000E+00 0.  1.
        -14    1    4    4    0    0  0.19261974256E+01 -0.26602935363E+01 -0.14679430428E+03  0.14683104293E+03  0.00000000000E+00 0.  1.
<mgrwt>
<rscale>  0 0.79632942E+02</rscale>
<asrwt>0</asrwt>
<pdfrwt beam="1">  1        2 0.16688285E+00 0.79632942E+02</pdfrwt>
<pdfrwt beam="2">  1       -1 0.22484701E-03 0.79632942E+02</pdfrwt>
<totfact> 0.35688067E+05</totfact>
</mgrwt>
</event>
<event>
 8    1  0.1520917E-017  0.7992061E+02  0.7818608E-02  0.1329277E+00
         -1   -1    0    0    0  501 -0.00000000000E+00  0.00000000000E+00  0.21337715759E+02  0.21337716355E+02  0.50400000000E-02 0.  1.
          2   -1    0    0  501    0  0.00000000000E+00 -0.00000000000E+00 -0.74835841775E+02  0.74835841819E+02  0.25500000000E-02 0. -1.
         24    2    1    2    0    0  0.00000000000E+00  0.00000000000E+00 -0.53498126016E+02  0.96173558173E+02  0.79920609385E+02 0.  0.
         66    2    3    3    0    0  0.17031029826E+02  0.41809594195E+01 -0.69940950277E+02  0.72133715571E+02  0.19999994728E+01 0.  0.
        -13    1    3    3    0    0 -0.17031029826E+02 -0.41809594195E+01  0.16442824261E+02  0.24039842602E+02  0.10566000000E+00 0.  1.
         13    1    4    4    0    0  0.66202659840E+01  0.69009054212E+00 -0.26044403762E+02  0.26881708986E+02  0.10566000000E+00 0. -1.
        -13    1    4    4    0    0  0.28422682032E+01  0.10612024772E+01 -0.12913854191E+02  0.13265874768E+02  0.10566000000E+00 0.  1.
         14    1    4    4    0    0  0.75684956393E+01  0.24296664002E+01 -0.30982692324E+02  0.31986131818E+02  0.00000000000E+00 0. -1.
<mgrwt>
<rscale>  0 0.79920609E+02</rscale>
<asrwt>0</asrwt>
<pdfrwt beam="1">  1        2 0.11513206E-01 0.79920609E+02</pdfrwt>
<pdfrwt beam="2">  1       -1 0.32827256E-02 0.79920609E+02</pdfrwt>
<totfact> 0.16459541E+05</totfact>
</mgrwt>
</event>
<event>
 8    1  0.1520917E-017  0.8818229E+02  0.7818608E-02  0.1307314E+00
          2   -1    0    0  501    0  0.00000000000E+00  0.00000000000E+00  0.38579906062E+03  0.38579906063E+03  0.25500000000E-02 0. -1.
         -1   -1    0    0    0  501 -0.00000000000E+00 -0.00000000000E+00 -0.50389667927E+01  0.50389693133E+01  0.50400000000E-02 0.  1.
         24    2    1    2    0    0  0.17763568394E-14  0.00000000000E+00  0.38076009383E+03  0.39083802995E+03  0.88182291859E+02 0.  0.
         66    2    3    3    0    0 -0.98080807927E+01  0.40782075507E+02  0.25037714903E+03  0.25387416760E+03  0.20000207489E+01 0.  0.
        -13    1    3    3    0    0  0.98080807927E+01 -0.40782075507E+02  0.13038294480E+03  0.13696386235E+03  0.10566000000E+00 0.  1.
         13    1    4    4    0    0 -0.74621158614E+01  0.33218634019E+02  0.20225621691E+03  0.20510180220E+03  0.10566000000E+00 0. -1.
        -13    1    4    4    0    0 -0.15114500458E+01  0.40880463744E+01  0.25171176879E+02  0.25545956899E+02  0.10566000000E+00 0.  1.
        -14    1    4    4    0    0 -0.83451488541E+00  0.34753951134E+01  0.22949755241E+02  0.23226408502E+02  0.00000000000E+00 0.  1.
<mgrwt>
<rscale>  0 0.88182292E+02</rscale>
<asrwt>0</asrwt>
<pdfrwt beam="1">  1        2 0.59353710E-01 0.88182292E+02</pdfrwt>
<pdfrwt beam="2">  1       -1 0.77522575E-03 0.88182292E+02</pdfrwt>
<totfact> 0.21602757E+05</totfact>
</mgrwt>
</event>
<event>
 8    1  0.1520917E-017  0.8131351E+02  0.7818608E-02  0.1325365E+00
         -1   -1    0    0    0  501 -0.00000000000E+00  0.00000000000E+00  0.50702846666E+02  0.50702846917E+02  0.50400000000E-02 0.  1.
          2   -1    0    0  501    0  0.00000000000E+00 -0.00000000000E+00 -0.32601165034E+02  0.32601165134E+02  0.25500000000E-02 0. -1.
         24    2    1    2    0    0 -0.35527136788E-14  0.00000000000E+00  0.18101681632E+02  0.83304012051E+02  0.81313513919E+02 0.  0.
         66    2    3    3    0    0 -0.23844597733E+02  0.32417686948E+02  0.33068234195E+01  0.40427791815E+02  0.20000004536E+01 0.  0.
        -13    1    3    3    0    0  0.23844597733E+02 -0.32417686948E+02  0.14794858212E+02  0.42876220236E+02  0.10566000000E+00 0.  1.
         13    1    4    4    0    0 -0.84222957039E+01  0.12804374336E+02  0.17078457984E+01  0.15421250545E+02  0.10566000000E+00 0. -1.
        -13    1    4    4    0    0 -0.13989124276E+02  0.17941735067E+02  0.15563529246E+01  0.22804272707E+02  0.10566000000E+00 0.  1.
         14    1    4    4    0    0 -0.14331777536E+01  0.16715775447E+01  0.42624696455E-01  0.22022685635E+01  0.00000000000E+00 0. -1.
<mgrwt>
<rscale>  0 0.81313514E+02</rscale>
<asrwt>0</asrwt>
<pdfrwt beam="1">  1        2 0.50155639E-02 0.81313514E+02</pdfrwt>
<pdfrwt beam="2">  1       -1 0.78004380E-02 0.81313514E+02</pdfrwt>
<totfact> 0.13070013E+05</totfact>
</mgrwt>
</event>
<event>
 8    1  0.1520917E-017  0.8113457E+02  0.7818608E-02  0.1325862E+00
         -1   -1    0    0    0  501 -0.00000000000E+00  0.00000000000E+00  0.91086518440E+01  0.91086532384E+01  0.50400000000E-02 0.  1.
          2   -1    0    0  501    0  0.00000000000E+00 -0.00000000000E+00 -0.18067485361E+03  0.18067485363E+03  0.25500000000E-02 0. -1.
         24    2    1    2    0    0 -0.35527136788E-14 -0.35527136788E-14 -0.17156620177E+03  0.18978350687E+03  0.81134566556E+02 0.  0.
         66    2    3    3    0    0  0.15468181085E+02  0.15873698058E+02 -0.16524332377E+03  0.16673510419E+03  0.20000002018E+01 0.  0.
        -13    1    3    3    0    0 -0.15468181085E+02 -0.15873698058E+02 -0.63228780000E+01  0.23048402686E+02  0.10566000000E+00 0.  1.
         13    1    4    4    0    0  0.56892853702E+01  0.56553050850E+01 -0.56841293957E+02  0.57404654048E+02  0.10566000000E+00 0. -1.
        -13    1    4    4    0    0  0.40249483059E+01  0.32541495120E+01 -0.37837475030E+02  0.38189990555E+02  0.10566000000E+00 0.  1.
        -14    1    4    4    0    0  0.57539474091E+01  0.69642434609E+01 -0.70564554784E+02  0.71140459582E+02  0.00000000000E+00 0.  1.
<mgrwt>
<rscale>  0 0.81134567E+02</rscale>
<asrwt>0</asrwt>
<pdfrwt beam="1">  1        2 0.27796129E-01 0.81134567E+02</pdfrwt>
<pdfrwt beam="2">  1       -1 0.14013313E-02 0.81134567E+02</pdfrwt>
<totfact> 0.20522477E+05</totfact>
</mgrwt>
</event>
<event>
 8    1  0.1520917E-017  0.8041810E+02  0.7818608E-02  0.1327869E+00
         -1   -1    0    0    0  501 -0.00000000000E+00  0.00000000000E+00  0.48584867680E+01  0.48584893821E+01  0.50400000000E-02 0.  1.
          2   -1    0    0  501    0  0.00000000000E+00 -0.00000000000E+00 -0.33277179191E+03  0.33277179192E+03  0.25500000000E-02 0. -1.
         24    2    1    2    0    0  0.00000000000E+00  0.00000000000E+00 -0.32791330514E+03  0.33763028130E+03  0.80418102208E+02 0.  0.
         66    2    3    3    0    0 -0.27953922386E+02  0.10008935150E+02 -0.27773871087E+03  0.27932846629E+03  0.20000007343E+01 0.  0.
        -13    1    3    3    0    0  0.27953922386E+02 -0.10008935150E+02 -0.50174594272E+02  0.58301815015E+02  0.10566000000E+00 0.  1.
         13    1    4    4    0    0 -0.64104538914E+01  0.27919469007E+01 -0.66000200413E+02  0.66369620348E+02  0.10566000000E+00 0. -1.
        -13    1    4    4    0    0 -0.44404118617E+01  0.21028866021E+01 -0.45658239284E+02  0.45921948653E+02  0.10566000000E+00 0.  1.
         14    1    4    4    0    0 -0.17103056633E+02  0.51141016472E+01 -0.16608027117E+03  0.16703689729E+03  0.00000000000E+00 0. -1.
<mgrwt>
<rscale>  0 0.80418102E+02</rscale>
<asrwt>0</asrwt>
<pdfrwt beam="1">  1        2 0.51195643E-01 0.80418102E+02</pdfrwt>
<pdfrwt beam="2">  1       -1 0.74745996E-03 0.80418102E+02</pdfrwt>
<totfact> 0.26107750E+05</totfact>
</mgrwt>
</event>
<event>
 8    1  0.1520917E-017  0.8304776E+02  0.7818608E-02  0.1320618E+00
         -1   -1    0    0    0  501 -0.00000000000E+00  0.00000000000E+00  0.26961939032E+01  0.26961986139E+01  0.50400000000E-02 0.  1.
          2   -1    0    0  501    0  0.00000000000E+00 -0.00000000000E+00 -0.63950558042E+03  0.63950558042E+03  0.25500000000E-02 0. -1.
         24    2    1    2    0    0 -0.35527136788E-14  0.00000000000E+00 -0.63680938651E+03  0.64220177904E+03  0.83047758819E+02 0.  0.
         66    2    3    3    0    0 -0.31373374812E+02  0.81769704634E+01 -0.51891121788E+03  0.51992692134E+03  0.20000000890E+01 0.  0.
        -13    1    3    3    0    0  0.31373374812E+02 -0.81769704634E+01 -0.11789816863E+03  0.12227485769E+03  0.10566000000E+00 0.  1.
         13    1    4    4    0    0 -0.30079310955E+01  0.82676335142E+00 -0.55380736932E+02  0.55468625134E+02  0.10566000000E+00 0. -1.
        -13    1    4    4    0    0 -0.19147315049E+02  0.42755451166E+01 -0.31449041898E+03  0.31510178475E+03  0.10566000000E+00 0.  1.
        -14    1    4    4    0    0 -0.92181286678E+01  0.30746619954E+01 -0.14904006197E+03  0.14935651146E+03  0.00000000000E+00 0.  1.
<mgrwt>
<rscale>  0 0.83047759E+02</rscale>
<asrwt>0</asrwt>
<pdfrwt beam="1">  1        2 0.98385353E-01 0.83047759E+02</pdfrwt>
<pdfrwt beam="2">  1       -1 0.41479994E-03 0.83047759E+02</pdfrwt>
<totfact> 0.29682685E+05</totfact>
</mgrwt>
</event>
<event>
 8    1  0.1520917E-017  0.7910264E+02  0.7818608E-02  0.1331617E+00
          2   -1    0    0  501    0  0.00000000000E+00  0.00000000000E+00  0.63482627662E+03  0.63482627663E+03  0.25500000000E-02 0. -1.
         -1   -1    0    0    0  501 -0.00000000000E+00 -0.00000000000E+00 -0.24641469387E+01  0.24641520930E+01  0.50400000000E-02 0.  1.
         24    2    1    2    0    0  0.00000000000E+00 -0.35527136788E-14  0.63236212968E+03  0.63729042872E+03  0.79102638898E+02 0.  0.
         66    2    3    3    0    0 -0.87831245701E+01  0.21413263949E+02  0.57452158706E+03  0.57499106528E+03  0.20000007053E+01 0.  0.
        -13    1    3    3    0    0  0.87831245701E+01 -0.21413263949E+02  0.57840542626E+02  0.62299363443E+02  0.10566000000E+00 0.  1.
         13    1    4    4    0    0 -0.59412830192E+01  0.14606903168E+02  0.37329758291E+03  0.37363050870E+03  0.10566000000E+00 0. -1.
        -13    1    4    4    0    0 -0.22813737330E+01  0.60310887377E+01  0.17834297364E+03  0.17845953633E+03  0.10566000000E+00 0.  1.
         14    1    4    4    0    0 -0.56046781785E+00  0.77527204342E+00  0.22881030512E+02  0.22901020244E+02  0.00000000000E+00 0. -1.
<mgrwt>
<rscale>  0 0.79102639E+02</rscale>
<asrwt>0</asrwt>
<pdfrwt beam="1">  1        2 0.97665663E-01 0.79102639E+02</pdfrwt>
<pdfrwt beam="2">  1       -1 0.37909961E-03 0.79102639E+02</pdfrwt>
<totfact> 0.33629502E+05</totfact>
</mgrwt>
</event>
<event>
 8    1  0.1520917E-017  0.7966529E+02  0.7818608E-02  0.1330004E+00
         -1   -1    0    0    0  501 -0.00000000000E+00  0.00000000000E+00  0.11858876916E+02  0.11858877987E+02  0.50400000000E-02 0.  1.
          2   -1    0    0  501    0  0.00000000000E+00 -0.00000000000E+00 -0.13379340169E+03  0.13379340172E+03  0.25500000000E-02 0. -1.
         24    2    1    2    0    0  0.00000000000E+00  0.00000000000E+00 -0.12193452478E+03  0.14565227971E+03  0.79665288867E+02 0.  0.
         66    2    3    3    0    0 -0.33093309279E+02 -0.21714406769E+02 -0.53259092209E+02  0.66386847246E+02  0.20000009815E+01 0.  0.
        -13    1    3    3    0    0  0.33093309279E+02  0.21714406769E+02 -0.68675432570E+02  0.79265432460E+02  0.10566000000E+00 0.  1.
         13    1    4    4    0    0 -0.93513819217E+01 -0.59649044500E+01 -0.15154263222E+02  0.18780076858E+02  0.10566000000E+00 0. -1.
        -13    1    4    4    0    0 -0.16796184469E+00 -0.26411298612E+00 -0.37464582966E+00  0.49949012402E+00  0.10566000000E+00 0.  1.
        -14    1    4    4    0    0 -0.23573965513E+02 -0.15485389333E+02 -0.37730183157E+02  0.47107280264E+02  0.00000000000E+00 0.  1.
<mgrwt>
<rscale>  0 0.79665289E+02</rscale>
<asrwt>0</asrwt>
<pdfrwt beam="1">  1        2 0.20583599E-01 0.79665289E+02</pdfrwt>
<pdfrwt beam="2">  1       -1 0.18244428E-02 0.79665289E+02</pdfrwt>
<totfact> 0.19534347E+05</totfact>
</mgrwt>
</event>
<event>
 8    1  0.1520917E-017  0.8093644E+02  0.7818608E-02  0.1326415E+00
          2   -1    0    0  501    0  0.00000000000E+00  0.00000000000E+00  0.15191418941E+04  0.15191418941E+04  0.25500000000E-02 0. -1.
         -1   -1    0    0    0  501 -0.00000000000E+00 -0.00000000000E+00 -0.10780217577E+01  0.10780335392E+01  0.50400000000E-02 0.  1.
         24    2    1    2    0    0  0.00000000000E+00  0.00000000000E+00  0.15180638723E+04  0.15202199276E+04  0.80936443503E+02 0.  0.
         66    2    3    3    0    0 -0.16238502078E+02  0.25575602767E+00  0.14552010447E+04  0.14552930409E+04  0.19999961329E+01 0.  0.
        -13    1    3    3    0    0  0.16238502078E+02 -0.25575602767E+00  0.62862827622E+02  0.64926886738E+02  0.10566000000E+00 0.  1.
         13    1    4    4    0    0 -0.91361423507E+01  0.50024535823E+00  0.83486538196E+03  0.83491552657E+03  0.10566000000E+00 0. -1.
        -13    1    4    4    0    0 -0.57454989162E+01  0.44830309397E-01  0.53074740981E+03  0.53077851968E+03  0.10566000000E+00 0.  1.
        -14    1    4    4    0    0 -0.13568608110E+01 -0.28931963996E+00  0.89588252897E+02  0.89598994605E+02  0.00000000000E+00 0.  1.
<mgrwt>
<rscale>  0 0.80936444E+02</rscale>
<asrwt>0</asrwt>
<pdfrwt beam="1">  1        2 0.23371342E+00 0.80936444E+02</pdfrwt>
<pdfrwt beam="2">  1       -1 0.16585092E-03 0.80936444E+02</pdfrwt>
<totfact> 0.32102804E+05</totfact>
</mgrwt>
</event>
<event>
 8    1  0.1520917E-017  0.7750247E+02  0.7818608E-02  0.1336292E+00
          2   -1    0    0  501    0  0.00000000000E+00  0.00000000000E+00  0.17481787101E+03  0.17481787103E+03  0.25500000000E-02 0. -1.
         -1   -1    0    0    0  501 -0.00000000000E+00 -0.00000000000E+00 -0.85898431971E+01  0.85898446757E+01  0.50400000000E-02 0.  1.
         24    2    1    2    0    0  0.00000000000E+00  0.00000000000E+00  0.16622802782E+03  0.18340771571E+03  0.77502470602E+02 0.  0.
         66    2    3    3    0    0  0.58408517220E+01  0.35211677955E+02  0.11871958906E+03  0.12398515492E+03  0.20000003663E+01 0.  0.
        -13    1    3    3    0    0 -0.58408517220E+01 -0.35211677955E+02  0.47508438761E+02  0.59422560789E+02  0.10566000000E+00 0.  1.
         13    1    4    4    0    0  0.22126188317E+01  0.11100216549E+02  0.40082068581E+02  0.41649656364E+02  0.10566000000E+00 0. -1.
        -13    1    4    4    0    0  0.34864881407E+01  0.23807708112E+02  0.77647780227E+02  0.81290537600E+02  0.10566000000E+00 0.  1.
        -14    1    4    4    0    0  0.14174474965E+00  0.30375329392E+00  0.98974024819E+00  0.10449609545E+01  0.00000000000E+00 0.  1.
<mgrwt>
<rscale>  0 0.77502471E+02</rscale>
<asrwt>0</asrwt>
<pdfrwt beam="1">  1        2 0.26895054E-01 0.77502471E+02</pdfrwt>
<pdfrwt beam="2">  1       -1 0.13215146E-02 0.77502471E+02</pdfrwt>
<totfact> 0.22905850E+05</totfact>
</mgrwt>
</event>
<event>
 8    1  0.1520917E-017  0.8042667E+02  0.7818608E-02  0.1327845E+00
          2   -1    0    0  501    0  0.00000000000E+00  0.00000000000E+00  0.16520245845E+04  0.16520245845E+04  0.25500000000E-02 0. -1.
         -1   -1    0    0    0  501 -0.00000000000E+00 -0.00000000000E+00 -0.97886045931E+00  0.97887343431E+00  0.50400000000E-02 0.  1.
         24    2    1    2    0    0  0.00000000000E+00 -0.17763568394E-14  0.16510457241E+04  0.16530034580E+04  0.80426668938E+02 0.  0.
         66    2    3    3    0    0 -0.85058215496E+01  0.89900269023E+01  0.16118791398E+04  0.16119278926E+04  0.19999985133E+01 0.  0.
        -13    1    3    3    0    0  0.85058215496E+01 -0.89900269023E+01  0.39166584321E+02  0.41075565429E+02  0.10566000000E+00 0.  1.
         13    1    4    4    0    0 -0.15520581019E+01  0.11461064143E+01  0.22643386972E+03  0.22644211394E+03  0.10566000000E+00 0. -1.
        -13    1    4    4    0    0 -0.49613799563E+00  0.67601833641E+00  0.17597703118E+03  0.17597906074E+03  0.10566000000E+00 0.  1.
         14    1    4    4    0    0 -0.64576254521E+01  0.71679021516E+01  0.12094682389E+04  0.12095067179E+04  0.00000000000E+00 0. -1.
<mgrwt>
<rscale>  0 0.80426669E+02</rscale>
<asrwt>0</asrwt>
<pdfrwt beam="1">  1        2 0.25415611E+00 0.80426669E+02</pdfrwt>
<pdfrwt beam="2">  1       -1 0.15059582E-03 0.80426669E+02</pdfrwt>
<totfact> 0.31398666E+05</totfact>
</mgrwt>
</event>
