<LesHouchesEvents version="3.0">
<header>
<!--
#*********************************************************************
#                                                                    *
#                        MadGraph5_aMC@NLO                           *
#                                                                    *
#                           Going Beyond                             *
#                                                                    *
#                   http://madgraph.hep.uiuc.edu                     *
#                   http://madgraph.phys.ucl.ac.be                   *
#                   http://amcatnlo.cern.ch                          *
#                                                                    *
#                     The MadGraph5_aMC@NLO team                     *
#                                                                    *
#....................................................................*
#                                                                    *
# This file contains all the information necessary to reproduce      *
# the events generated:                                              *
#                                                                    *
# 1. software version                                                *
# 2. proc_card          : code generation info including model       *
# 3. param_card         : model primary parameters in the LH format  *
# 4. run_card           : running parameters (collider and cuts)     *
# 5. pythia_card        : present only if pythia has been run        *
# 6. pgs_card           : present only if pgs has been run           *
# 7. delphes_cards      : present only if delphes has been run       *
#                                                                    *
#                                                                    *
#*********************************************************************
-->
<MGVersion>
#2.6.5
</MGVersion>
<MG5ProcCard>
<![CDATA[
#************************************************************
#*                     MadGraph5_aMC@NLO                    *
#*                                                          *
#*                *                       *                 *
#*                  *        * *        *                   *
#*                    * * * * 5 * * * *                     *
#*                  *        * *        *                   *
#*                *                       *                 *
#*                                                          *
#*                                                          *
#*         VERSION 2.6.5                 2018-02-03         *
#*                                                          *
#*    The MadGraph5_aMC@NLO Development Team - Find us at   *
#*    https://server06.fynu.ucl.ac.be/projects/madgraph     *
#*                                                          *
#************************************************************
#*                                                          *
#*               Command File for MadGraph5_aMC@NLO         *
#*                                                          *
#*     run as ./bin/mg5_aMC  filename                       *
#*                                                          *
#************************************************************
set default_unset_couplings 99
set group_subprocesses Auto
set ignore_six_quark_processes False
set loop_optimized_output True
set loop_color_flows False
set gauge unitary
set complex_mass_scheme False
set max_npoint_for_channel 0
import model sm
define p = g u c d s u~ c~ d~ s~
define j = g u c d s u~ c~ d~ s~
define l+ = e+ mu+
define l- = e- mu-
define vl = ve vm vt
define vl~ = ve~ vm~ vt~
import model /home/jsiadoca/MG5_aMC_v2_6_5/models/SM_RHN_UFO
define mu = mu+ mu-
define vmu = vm vm~
define w = w+ w-
generate p p > mu nr, nr > mu mu vmu
output RHN_Mu
]]>
</MG5ProcCard>
<MGProcCard>
#*********************************************************************
#                        MadGraph/MadEvent                           *
#                   http://madgraph.hep.uiuc.edu                     *
#                                                                    *
#                          proc_card.dat                             *
#*********************************************************************
#                                                                    *
#            This Files is generated by MADGRAPH 5                   *
#                                                                    *
# WARNING: This Files is generated for MADEVENT (compatibility issue)*
#          This files is NOT a valid MG4 proc_card.dat               *
#          Running this in MG4 will NEVER reproduce the result of MG5*
#                                                                    *
#*********************************************************************
#*********************************************************************
# Process(es) requested : mg2 input                                  *
#*********************************************************************
# Begin PROCESS # This is TAG. Do not modify this line
p p > mu nr , nr > mu mu vmu           #Process
# Be carefull the coupling are here in MG5 convention
          
end_coup           # End the couplings input

done               # this tells MG there are no more procs
# End PROCESS  # This is TAG. Do not modify this line
#*********************************************************************
# Model information                                                  *
#*********************************************************************
# Begin MODEL  # This is TAG. Do not modify this line
SM_RHN_UFO
# End   MODEL  # This is TAG. Do not modify this line
#*********************************************************************
# Start multiparticle definitions                                    *
#*********************************************************************
# Begin MULTIPARTICLES # This is TAG. Do not modify this line

# End  MULTIPARTICLES # This is TAG. Do not modify this line
</MGProcCard>
<MGRunCard>
<![CDATA[
#*********************************************************************
#                       MadGraph5_aMC@NLO                            *
#                                                                    *
#                     run_card.dat MadEvent                          *
#                                                                    *
#  This file is used to set the parameters of the run.               *
#                                                                    *
#  Some notation/conventions:                                        *
#                                                                    *
#   Lines starting with a '# ' are info or comments                  *
#                                                                    *
#   mind the format:   value    = variable     ! comment             *
#                                                                    *
#   To display more options, you can type the command:               *
#      update full_run_card                                          *
#*********************************************************************
#
#*******************                                                 
# Running parameters
#*******************                                                 
#                                                                    
#*********************************************************************
# Tag name for the run (one word)                                    *
#*********************************************************************
  tag_1     = run_tag ! name of the run 
#*********************************************************************
# Number of events and rnd seed                                      *
# Warning: Do not generate more than 1M events in a single run       *
# If you want to run Pythia, avoid more than 50k events in a run.    *
#*********************************************************************
  1000 = nevents ! Number of unweighted events requested 
 21 = iseed   ! rnd seed (0=assigned automatically=default))
#*********************************************************************
# Collider type and energy                                           *
# lpp: 0=No PDF, 1=proton, -1=antiproton, 2=photon from proton,      *
#                                         3=photon from electron     *
#*********************************************************************
     1        = lpp1    ! beam 1 type 
     1        = lpp2    ! beam 2 type
     6500.0     = ebeam1  ! beam 1 total energy in GeV
     6500.0     = ebeam2  ! beam 2 total energy in GeV
# To see polarised beam options: type "update beam_pol"
#*********************************************************************
# PDF CHOICE: this automatically fixes also alpha_s and its evol.    *
#*********************************************************************
     nn23lo1    = pdlabel     ! PDF set                                     
     230000    = lhaid     ! if pdlabel=lhapdf, this is the lhapdf number
# To see heavy ion options: type "update ion_pdf"
#*********************************************************************
# Renormalization and factorization scales                           *
#*********************************************************************
 False = fixed_ren_scale  ! if .true. use fixed ren scale
 False        = fixed_fac_scale  ! if .true. use fixed fac scale
 91.188  = scale            ! fixed ren scale
 91.188  = dsqrt_q2fact1    ! fixed fact scale for pdf1
 91.188  = dsqrt_q2fact2    ! fixed fact scale for pdf2
 -1 = dynamical_scale_choice ! Choose one of the preselected dynamical choices
 1.0  = scalefact        ! scale factor for event-by-event scales
#*********************************************************************
# Type and output format
#*********************************************************************
  False     = gridpack  !True = setting up the grid pack
  -1.0 = time_of_flight ! threshold (in mm) below which the invariant livetime is not written (-1 means not written)
  3.0 = lhe_version       ! Change the way clustering information pass to shower.        
  True = clusinfo         ! include clustering tag in output
  average =  event_norm       ! average/sum. Normalization of the weight in the LHEF

#*********************************************************************
# Matching parameter (MLM only)
#*********************************************************************
 0 = ickkw            ! 0 no matching, 1 MLM
 1.0 = alpsfact         ! scale factor for QCD emission vx
 False = chcluster        ! cluster only according to channel diag
 4 = asrwgtflavor     ! highest quark flavor for a_s reweight
 False  = auto_ptj_mjj  ! Automatic setting of ptj and mjj if xqcut >0
                                   ! (turn off for VBF and single top processes) 
 0.0   = xqcut   ! minimum kt jet measure between partons
#*********************************************************************
#
#*********************************************************************
# handling of the helicities:
#  0: sum over all helicities
#  1: importance sampling over helicities
#*********************************************************************
   0  = nhel          ! using helicities importance sampling or not.
#*********************************************************************
# Generation bias, check the wiki page below for more information:   *
#  'cp3.irmp.ucl.ac.be/projects/madgraph/wiki/LOEventGenerationBias' *
#*********************************************************************
 None = bias_module  ! Bias type of bias, [None, ptj_bias, -custom_folder-]
 {} = bias_parameters ! Specifies the parameters of the module.
#
#*******************************                                                 
# Parton level cuts definition *
#*******************************                                     
#                                                                    
#
#*********************************************************************
# BW cutoff (M+/-bwcutoff*Gamma) ! Define on/off-shell for "$" and decay  
#*********************************************************************
  15.0  = bwcutoff      ! (M+/-bwcutoff*Gamma)
#*********************************************************************
# Apply pt/E/eta/dr/mij/kt_durham cuts on decay products or not
# (note that etmiss/ptll/ptheavy/ht/sorted cuts always apply)
#*********************************************************************
   False  = cut_decays    ! Cut decay products 
#*********************************************************************
# Standard Cuts                                                      *
#*********************************************************************
# Minimum and maximum pt's (for max, -1 means no cut)                *
#*********************************************************************
 20.0  = ptj       ! minimum pt for the jets 
 0.0  = ptb       ! minimum pt for the b 
 10.0  = pta       ! minimum pt for the photons 
 10.0  = ptl       ! minimum pt for the charged leptons 
 0.0  = misset    ! minimum missing Et (sum of neutrino's momenta)
 -1.0  = ptjmax    ! maximum pt for the jets
 -1.0  = ptbmax    ! maximum pt for the b
 -1.0  = ptamax    ! maximum pt for the photons
 -1.0  = ptlmax    ! maximum pt for the charged leptons
 -1.0  = missetmax ! maximum missing Et (sum of neutrino's momenta)
 {} = pt_min_pdg ! pt cut for other particles (use pdg code). Applied on particle and anti-particle
 {}	= pt_max_pdg ! pt cut for other particles (syntax e.g. {6: 100, 25: 50}) 
#*********************************************************************
# Minimum and maximum E's (in the center of mass frame)              *
#*********************************************************************
  0.0  = ej     ! minimum E for the jets 
  0.0  = eb     ! minimum E for the b 
  0.0  = ea     ! minimum E for the photons 
  0.0  = el     ! minimum E for the charged leptons 
  -1.0   = ejmax ! maximum E for the jets
 -1.0   = ebmax ! maximum E for the b
 -1.0   = eamax ! maximum E for the photons
 -1.0   = elmax ! maximum E for the charged leptons
 {} = e_min_pdg ! E cut for other particles (use pdg code). Applied on particle and anti-particle
 {} = e_max_pdg ! E cut for other particles (syntax e.g. {6: 100, 25: 50}) 
#*********************************************************************
# Maximum and minimum absolute rapidity (for max, -1 means no cut)   *
#*********************************************************************
  5.0 = etaj    ! max rap for the jets 
  -1.0  = etab    ! max rap for the b
 2.5  = etaa    ! max rap for the photons 
 2.5  = etal    ! max rap for the charged leptons 
 0.0  = etajmin ! min rap for the jets
 0.0  = etabmin ! min rap for the b
 0.0  = etaamin ! min rap for the photons
 0.0  = etalmin ! main rap for the charged leptons
 {} = eta_min_pdg ! rap cut for other particles (use pdg code). Applied on particle and anti-particle
 {} = eta_max_pdg ! rap cut for other particles (syntax e.g. {6: 2.5, 23: 5})
#*********************************************************************
# Minimum and maximum DeltaR distance                                *
#*********************************************************************
 0.4 = drjj    ! min distance between jets 
 0.0   = drbb    ! min distance between b's 
 0.4 = drll    ! min distance between leptons 
 0.4 = draa    ! min distance between gammas 
 0.0   = drbj    ! min distance between b and jet 
 0.4 = draj    ! min distance between gamma and jet 
 0.4 = drjl    ! min distance between jet and lepton 
 0.0   = drab    ! min distance between gamma and b 
 0.0   = drbl    ! min distance between b and lepton 
 0.4 = dral    ! min distance between gamma and lepton 
 -1.0  = drjjmax ! max distance between jets
 -1.0  = drbbmax ! max distance between b's
 -1.0  = drllmax ! max distance between leptons
 -1.0  = draamax ! max distance between gammas
 -1.0  = drbjmax ! max distance between b and jet
 -1.0  = drajmax ! max distance between gamma and jet
 -1.0  = drjlmax ! max distance between jet and lepton
 -1.0  = drabmax ! max distance between gamma and b
 -1.0  = drblmax ! max distance between b and lepton
 -1.0  = dralmax ! maxdistance between gamma and lepton
#*********************************************************************
# Minimum and maximum invariant mass for pairs                       *
# WARNING: for four lepton final state mmll cut require to have      *
#          different lepton masses for each flavor!                  *           
#*********************************************************************
 0.0   = mmjj    ! min invariant mass of a jet pair 
 0.0   = mmbb    ! min invariant mass of a b pair 
 0.0   = mmaa    ! min invariant mass of gamma gamma pair
 0.0   = mmll    ! min invariant mass of l+l- (same flavour) lepton pair
 -1.0  = mmjjmax ! max invariant mass of a jet pair
 -1.0  = mmbbmax ! max invariant mass of a b pair
 -1.0  = mmaamax ! max invariant mass of gamma gamma pair
 -1.0  = mmllmax ! max invariant mass of l+l- (same flavour) lepton pair
 {} = mxx_min_pdg ! min invariant mass of a pair of particles X/X~ (e.g. {6:250})
 {'default': False} = mxx_only_part_antipart ! if True the invariant mass is applied only 
                       ! to pairs of particle/antiparticle and not to pairs of the same pdg codes.  
#*********************************************************************
# Minimum and maximum invariant mass for all letpons                 *
#*********************************************************************
 0.0   = mmnl    ! min invariant mass for all letpons (l+- and vl) 
 -1.0  = mmnlmax ! max invariant mass for all letpons (l+- and vl) 
#*********************************************************************
# Minimum and maximum pt for 4-momenta sum of leptons                *
#*********************************************************************
 0.0   = ptllmin  ! Minimum pt for 4-momenta sum of leptons(l and vl)
 -1.0  = ptllmax  ! Maximum pt for 4-momenta sum of leptons(l and vl)
#*********************************************************************
# Inclusive cuts                                                     *
#*********************************************************************
 0.0  = ptheavy   ! minimum pt for at least one heavy final state
 0.0  = xptj ! minimum pt for at least one jet  
 0.0  = xptb ! minimum pt for at least one b 
 0.0  = xpta ! minimum pt for at least one photon 
 0.0  = xptl ! minimum pt for at least one charged lepton 
#*********************************************************************
# Control the pt's of the jets sorted by pt                          *
#*********************************************************************
 0.0   = ptj1min ! minimum pt for the leading jet in pt
 0.0   = ptj2min ! minimum pt for the second jet in pt
 0.0   = ptj3min ! minimum pt for the third jet in pt
 0.0   = ptj4min ! minimum pt for the fourth jet in pt
 -1.0  = ptj1max ! maximum pt for the leading jet in pt 
 -1.0  = ptj2max ! maximum pt for the second jet in pt
 -1.0  = ptj3max ! maximum pt for the third jet in pt
 -1.0  = ptj4max ! maximum pt for the fourth jet in pt
 0   = cutuse  ! reject event if fails any (0) / all (1) jet pt cuts
#*********************************************************************
# Control the pt's of leptons sorted by pt                           *
#*********************************************************************
 0.0   = ptl1min ! minimum pt for the leading lepton in pt
 0.0   = ptl2min ! minimum pt for the second lepton in pt
 0.0   = ptl3min ! minimum pt for the third lepton in pt
 0.0   = ptl4min ! minimum pt for the fourth lepton in pt
 -1.0  = ptl1max ! maximum pt for the leading lepton in pt 
 -1.0  = ptl2max ! maximum pt for the second lepton in pt
 -1.0  = ptl3max ! maximum pt for the third lepton in pt
 -1.0  = ptl4max ! maximum pt for the fourth lepton in pt
#*********************************************************************
# Control the Ht(k)=Sum of k leading jets                            *
#*********************************************************************
 0.0   = htjmin ! minimum jet HT=Sum(jet pt)
 -1.0  = htjmax ! maximum jet HT=Sum(jet pt)
 0.0   = ihtmin  !inclusive Ht for all partons (including b)
 -1.0  = ihtmax  !inclusive Ht for all partons (including b)
 0.0   = ht2min ! minimum Ht for the two leading jets
 0.0   = ht3min ! minimum Ht for the three leading jets
 0.0   = ht4min ! minimum Ht for the four leading jets
 -1.0  = ht2max ! maximum Ht for the two leading jets
 -1.0  = ht3max ! maximum Ht for the three leading jets
 -1.0  = ht4max ! maximum Ht for the four leading jets
#***********************************************************************
# Photon-isolation cuts, according to hep-ph/9801442                   *
# When ptgmin=0, all the other parameters are ignored                  *
# When ptgmin>0, pta and draj are not going to be used                 *
#***********************************************************************
 0.0 = ptgmin ! Min photon transverse momentum
 0.4 = R0gamma ! Radius of isolation code
 1.0 = xn ! n parameter of eq.(3.4) in hep-ph/9801442
 1.0 = epsgamma ! epsilon_gamma parameter of eq.(3.4) in hep-ph/9801442
 True = isoEM ! isolate photons from EM energy (photons and leptons)
#*********************************************************************
# WBF cuts                                                           *
#*********************************************************************
 0.0   = xetamin ! minimum rapidity for two jets in the WBF case  
 0.0   = deltaeta ! minimum rapidity for two jets in the WBF case 
#***********************************************************************
# Turn on either the ktdurham or ptlund cut to activate                *
# CKKW(L) merging with Pythia8 [arXiv:1410.3012, arXiv:1109.4829]      *
#***********************************************************************
 -1.0  =  ktdurham        
 0.4   =  dparameter
 -1.0  =  ptlund
 1, 2, 3, 4, 5, 6, 21  =  pdgs_for_merging_cut ! PDGs for two cuts above   
#*********************************************************************
# maximal pdg code for quark to be considered as a light jet         *
# (otherwise b cuts are applied)                                     *
#*********************************************************************
 4 = maxjetflavor    ! Maximum jet pdg code
#*********************************************************************
#
#*********************************************************************
# Store info for systematics studies                                 *
# WARNING: Do not use for interference type of computation           *
#*********************************************************************
   True  = use_syst      ! Enable systematics studies
#
systematics = systematics_program ! none, systematics [python], SysCalc [depreceted, C++]
['--mur=0.5,1,2', '--muf=0.5,1,2', '--pdf=errorset'] = systematics_arguments ! see: https://cp3.irmp.ucl.ac.be/projects/madgraph/wiki/Systematics#Systematicspythonmodule
# Syscalc is deprecated but to see the associate options type'update syscalc'
]]>
</MGRunCard>
<slha>
######################################################################
## PARAM_CARD AUTOMATICALY GENERATED BY MG5 FOLLOWING UFO MODEL   ####
######################################################################
##                                                                  ##
##  Width set on Auto will be computed following the information    ##
##        present in the decay.py files of the model.               ##
##        See  arXiv:1402.1178 for more details.                    ##
##                                                                  ##
######################################################################

###################################
## INFORMATION FOR BMLBLOCK
###################################
Block bmlblock 
    1 1.000000e-02 # thm 
    2 1.000000e-02 # the 
    3 1.000000e-02 # tht 

###################################
## INFORMATION FOR CKMBLOCK
###################################
Block ckmblock 
    1 2.277360e-01 # cabi 

###################################
## INFORMATION FOR MASS
###################################
Block mass 
    1 5.040000e-03 # MD 
    2 2.550000e-03 # MU 
    3 1.010000e-01 # MS 
    4 1.270000e+00 # MC 
    5 4.700000e+00 # MB 
    6 1.720000e+02 # MT 
   11 5.110000e-04 # Me 
   13 1.056600e-01 # MMU 
   15 1.777000e+00 # MTA 
   23 9.118760e+01 # MZ 
   25 1.250000e+02 # MH 
   66 3.000000e+01 # MNR 
## Dependent parameters, given by model restrictions.
## Those values should be edited following the 
## analytical expression. MG5 ignores those values 
## but they are important for interfacing the output of MG5
## to external program such as Pythia.
  12 0.000000 # ve : 0.0 
  14 0.000000 # vm : 0.0 
  16 0.000000 # vt : 0.0 
  21 0.000000 # g : 0.0 
  22 0.000000 # a : 0.0 
  24 79.824360 # w+ : cmath.sqrt(MZ__exp__2/2. + cmath.sqrt(MZ__exp__4/4. - (aEW*cmath.pi*MZ__exp__2)/(Gf*sqrt__2))) 

###################################
## INFORMATION FOR SMINPUTS
###################################
Block sminputs 
    1 1.279000e+02 # aEWM1 
    2 1.166370e-05 # Gf 
    3 1.184000e-01 # aS 

###################################
## INFORMATION FOR YUKAWA
###################################
Block yukawa 
    1 5.040000e-03 # ymdo 
    2 2.550000e-03 # ymup 
    3 1.010000e-01 # yms 
    4 1.270000e+00 # ymc 
    5 4.700000e+00 # ymb 
    6 1.720000e+02 # ymt 
   11 5.110000e-04 # yme 
   13 1.056600e-01 # ymm 
   15 1.777000e+00 # ymtau 

###################################
## INFORMATION FOR DECAY
###################################
DECAY   4 1.000000e-03 # Wc 
DECAY   5 1.000000e-03 # Wb 
DECAY   6 1.508336e+00 # WT 
DECAY  23 2.495200e+00 # WZ 
DECAY  24 2.085000e+00 # WW 
DECAY  25 4.070000e-03 # WH 
DECAY  66 1.000000e-03 # WNR 
## Dependent parameters, given by model restrictions.
## Those values should be edited following the 
## analytical expression. MG5 ignores those values 
## but they are important for interfacing the output of MG5
## to external program such as Pythia.
DECAY  1 0.000000 # d : 0.0 
DECAY  2 0.000000 # u : 0.0 
DECAY  3 0.000000 # s : 0.0 
DECAY  11 0.000000 # e- : 0.0 
DECAY  12 0.000000 # ve : 0.0 
DECAY  13 0.000000 # mu- : 0.0 
DECAY  14 0.000000 # vm : 0.0 
DECAY  15 0.000000 # ta- : 0.0 
DECAY  16 0.000000 # vt : 0.0 
DECAY  21 0.000000 # g : 0.0 
DECAY  22 0.000000 # a : 0.0 
#===========================================================
# QUANTUM NUMBERS OF NEW STATE(S) (NON SM PDG CODE)
#===========================================================

Block QNUMBERS 66  # nr 
        1 0  # 3 times electric charge
        2 2  # number of spin states (2S+1)
        3 1  # colour rep (1: singlet, 3: triplet, 8: octet)
        4 0  # Particle/Antiparticle distinction (0=own anti)
</slha>
<MGGenerationInfo>
#  Number of Events        :       1000
#  Integrated weight (pb)  :       5.03207629334e-08
</MGGenerationInfo>
</header>
<init>
2212 2212 6.500000e+03 6.500000e+03 0 0 247000 247000 -4 1
5.032076e-08 5.421539e-10 5.032076e-08 1
<generator name='MadGraph5_aMC@NLO' version='2.6.5'>please cite 1405.0301 </generator>
</init>
<event>
 8      1 +5.0320763e-08 8.02844700e+01 7.81860800e-03 1.32824600e-01
        2 -1    0    0  501    0 +0.0000000000e+00 +0.0000000000e+00 +8.6321597003e+01 8.6321597041e+01 2.5500000000e-03 0.0000e+00 -1.0000e+00
       -1 -1    0    0    0  501 -0.0000000000e+00 -0.0000000000e+00 -1.8667392286e+01 1.8667392966e+01 5.0400000000e-03 0.0000e+00 1.0000e+00
       24  2    1    2    0    0 +0.0000000000e+00 +3.5527136788e-15 +6.7654204717e+01 1.0498899001e+02 8.0284473012e+01 0.0000e+00 0.0000e+00
       66  2    3    3    0    0 +1.2938555081e+01 +2.2168628575e+01 +6.8768577469e+01 7.9296436784e+01 2.9999222307e+01 0.0000e+00 0.0000e+00
      -13  1    3    3    0    0 -1.2938555081e+01 -2.2168628575e+01 -1.1143727516e+00 2.5692553223e+01 1.0566000000e-01 0.0000e+00 1.0000e+00
       13  1    4    4    0    0 -8.2847825103e+00 +1.1407631182e+01 +2.2942872807e+01 2.6928762450e+01 1.0566000000e-01 0.0000e+00 -1.0000e+00
      -13  1    4    4    0    0 +1.0014495512e+01 +8.4815510680e+00 +3.0833274860e+01 3.3510130282e+01 1.0566000000e-01 0.0000e+00 1.0000e+00
      -14  1    4    4    0    0 +1.1208842079e+01 +2.2794463257e+00 +1.4992429802e+01 1.8857544052e+01 0.0000000000e+00 0.0000e+00 1.0000e+00
<mgrwt>
<rscale>  0 0.80284473E+02</rscale>
<asrwt>0</asrwt>
<pdfrwt beam="1">  1        2 0.13280246E-01 0.80284473E+02</pdfrwt>
<pdfrwt beam="2">  1       -1 0.28719066E-02 0.80284473E+02</pdfrwt>
<totfact> 0.16868199E+05</totfact>
</mgrwt>
</event>
<event>
 8      1 +5.0320763e-08 8.17301300e+01 7.81860800e-03 1.32421200e-01
       -2 -1    0    0    0  501 -0.0000000000e+00 +0.0000000000e+00 +1.5291540979e+02 1.5291540981e+02 2.5500000000e-03 0.0000e+00 1.0000e+00
        1 -1    0    0  501    0 +0.0000000000e+00 -0.0000000000e+00 -1.0920766149e+01 1.0920767312e+01 5.0400000000e-03 0.0000e+00 -1.0000e+00
      -24  2    1    2    0    0 +0.0000000000e+00 +0.0000000000e+00 +1.4199464364e+02 1.6383617712e+02 8.1730129764e+01 0.0000e+00 0.0000e+00
       66  2    3    3    0    0 +1.7183395852e+01 +3.0346415730e+01 +9.2261071250e+01 1.0309398892e+02 3.0001520673e+01 0.0000e+00 0.0000e+00
       13  1    3    3    0    0 -1.7183395852e+01 -3.0346415730e+01 +4.9733572388e+01 6.0742188199e+01 1.0566000000e-01 0.0000e+00 -1.0000e+00
       13  1    4    4    0    0 -3.1034163349e+00 +1.7638264945e+01 +2.4438781825e+01 3.0298594099e+01 1.0566000000e-01 0.0000e+00 1.0000e+00
      -13  1    4    4    0    0 +1.8461472295e+01 +9.5313223234e+00 +4.3598548349e+01 4.8296134904e+01 1.0566000000e-01 0.0000e+00 -1.0000e+00
      -14  1    4    4    0    0 +1.8253398925e+00 +3.1768284611e+00 +2.4223741075e+01 2.4499259917e+01 0.0000000000e+00 0.0000e+00 1.0000e+00
<mgrwt>
<rscale>  0 0.81730130E+02</rscale>
<asrwt>0</asrwt>
<pdfrwt beam="1">  1        1 0.16801181E-02 0.81730130E+02</pdfrwt>
<pdfrwt beam="2">  1       -2 0.23525446E-01 0.81730130E+02</pdfrwt>
<totfact> 0.88875089E+04</totfact>
</mgrwt>
</event>
<event>
 8      1 +5.0320763e-08 8.32814600e+01 7.81860800e-03 1.31998900e-01
        1 -1    0    0  501    0 +0.0000000000e+00 +0.0000000000e+00 +7.7414630115e+01 7.7414630280e+01 5.0400000000e-03 0.0000e+00 -1.0000e+00
       -2 -1    0    0    0  501 -0.0000000000e+00 -0.0000000000e+00 -2.2398226320e+01 2.2398226465e+01 2.5500000000e-03 0.0000e+00 1.0000e+00
      -24  2    1    2    0    0 +0.0000000000e+00 +0.0000000000e+00 +5.5016403795e+01 9.9812856745e+01 8.3281460632e+01 0.0000e+00 0.0000e+00
       66  2    3    3    0    0 -1.0442039764e+01 -3.4561677973e+01 +2.7366121258e+01 5.4336543490e+01 3.0000159783e+01 0.0000e+00 0.0000e+00
       13  1    3    3    0    0 +1.0442039764e+01 +3.4561677973e+01 +2.7650282538e+01 4.5476313255e+01 1.0566000000e-01 0.0000e+00 -1.0000e+00
       13  1    4    4    0    0 -1.0509413099e+00 -1.5679212987e+01 -1.2058103153e+00 1.5760943502e+01 1.0566000000e-01 0.0000e+00 -1.0000e+00
      -13  1    4    4    0    0 -1.3499236539e+01 -1.5688403746e+01 +2.2263078595e+01 3.0397553056e+01 1.0566000000e-01 0.0000e+00 1.0000e+00
       14  1    4    4    0    0 +4.1081380845e+00 -3.1940612406e+00 +6.3088529780e+00 8.1780469324e+00 0.0000000000e+00 0.0000e+00 -1.0000e+00
<mgrwt>
<rscale>  0 0.83281461E+02</rscale>
<asrwt>0</asrwt>
<pdfrwt beam="1">  1        1 0.11909943E-01 0.83281461E+02</pdfrwt>
<pdfrwt beam="2">  1       -2 0.34458810E-02 0.83281461E+02</pdfrwt>
<totfact> 0.12627185E+05</totfact>
</mgrwt>
</event>
<event>
 8      1 +5.0320763e-08 7.71643800e+01 7.81860800e-03 1.33729700e-01
        1 -1    0    0  501    0 +0.0000000000e+00 +0.0000000000e+00 +1.1882148902e+02 1.1882148913e+02 5.0400000000e-03 0.0000e+00 -1.0000e+00
       -2 -1    0    0    0  501 -0.0000000000e+00 -0.0000000000e+00 -1.2527913425e+01 1.2527913684e+01 2.5500000000e-03 0.0000e+00 1.0000e+00
      -24  2    1    2    0    0 -3.5527136788e-15 +1.7763568394e-15 +1.0629357560e+02 1.3134940281e+02 7.7164379126e+01 0.0000e+00 0.0000e+00
       66  2    3    3    0    0 -2.8301763816e+01 -1.5484476865e+01 +7.0783556463e+01 8.3373039030e+01 2.9999881878e+01 0.0000e+00 0.0000e+00
       13  1    3    3    0    0 +2.8301763816e+01 +1.5484476865e+01 +3.5510019133e+01 4.7976363782e+01 1.0566000000e-01 0.0000e+00 -1.0000e+00
       13  1    4    4    0    0 -1.4813366913e+01 -1.0385380024e+01 +1.7847259765e+01 2.5413142322e+01 1.0566000000e-01 0.0000e+00 -1.0000e+00
      -13  1    4    4    0    0 -4.1756395935e+00 +3.7186355355e+00 +2.8872254549e+00 6.2937628747e+00 1.0566000000e-01 0.0000e+00 1.0000e+00
       14  1    4    4    0    0 -9.3127573095e+00 -8.8177323761e+00 +5.0049071243e+01 5.1666133833e+01 0.0000000000e+00 0.0000e+00 -1.0000e+00
<mgrwt>
<rscale>  0 0.77164379E+02</rscale>
<asrwt>0</asrwt>
<pdfrwt beam="1">  1        1 0.18280229E-01 0.77164379E+02</pdfrwt>
<pdfrwt beam="2">  1       -2 0.19273714E-02 0.77164379E+02</pdfrwt>
<totfact> 0.16679166E+05</totfact>
</mgrwt>
</event>
<event>
 8      1 +5.0320763e-08 8.00981300e+01 7.81860800e-03 1.32877300e-01
        1 -1    0    0  501    0 +0.0000000000e+00 +0.0000000000e+00 +1.3192611723e+01 1.3192612685e+01 5.0400000000e-03 0.0000e+00 -1.0000e+00
       -2 -1    0    0    0  501 -0.0000000000e+00 -0.0000000000e+00 -1.2157769847e+02 1.2157769850e+02 2.5500000000e-03 0.0000e+00 1.0000e+00
      -24  2    1    2    0    0 +1.7763568394e-15 -7.1054273576e-15 -1.0838508675e+02 1.3477031119e+02 8.0098125740e+01 0.0000e+00 0.0000e+00
       66  2    3    3    0    0 -1.6374085626e+00 -3.2652449399e+01 -7.9966304120e+01 9.1451701688e+01 2.9999006457e+01 0.0000e+00 0.0000e+00
       13  1    3    3    0    0 +1.6374085626e+00 +3.2652449399e+01 -2.8418782632e+01 4.3318609498e+01 1.0566000000e-01 0.0000e+00 -1.0000e+00
       13  1    4    4    0    0 +2.2839432317e+00 -2.1932462653e-01 -3.4122400056e+00 4.1132767800e+00 1.0566000000e-01 0.0000e+00 -1.0000e+00
      -13  1    4    4    0    0 +5.6384814127e+00 +2.2245213996e+00 -9.9797272985e+00 1.1676775629e+01 1.0566000000e-01 0.0000e+00 1.0000e+00
      -14  1    4    4    0    0 -9.5598332070e+00 -3.4657646172e+01 -6.6574336816e+01 7.5661649279e+01 0.0000000000e+00 0.0000e+00 1.0000e+00
<mgrwt>
<rscale>  0 0.80098126E+02</rscale>
<asrwt>0</asrwt>
<pdfrwt beam="1">  1        1 0.20296327E-02 0.80098126E+02</pdfrwt>
<pdfrwt beam="2">  1       -2 0.18704261E-01 0.80098126E+02</pdfrwt>
<totfact> 0.10045758E+05</totfact>
</mgrwt>
</event>
<event>
 8      1 +5.0320763e-08 7.95666400e+01 7.81860800e-03 1.33028600e-01
        2 -1    0    0  501    0 +0.0000000000e+00 +0.0000000000e+00 +9.9506191262e+00 9.9506194529e+00 2.5500000000e-03 0.0000e+00 -1.0000e+00
       -1 -1    0    0    0  501 -0.0000000000e+00 -0.0000000000e+00 -1.5905667745e+02 1.5905667753e+02 5.0400000000e-03 0.0000e+00 1.0000e+00
       24  2    1    2    0    0 +5.3290705182e-15 -3.5527136788e-15 -1.4910605832e+02 1.6900729698e+02 7.9566637508e+01 0.0000e+00 0.0000e+00
       66  2    3    3    0    0 +1.5684941452e+01 -1.5779244982e+01 -3.0182506150e+01 4.8020420065e+01 2.9999585083e+01 0.0000e+00 0.0000e+00
      -13  1    3    3    0    0 -1.5684941452e+01 +1.5779244982e+01 -1.1892355217e+02 1.2098687691e+02 1.0566000000e-01 0.0000e+00 1.0000e+00
       13  1    4    4    0    0 -4.1037486358e-01 +5.7529345788e+00 -3.9951050613e+00 7.0168862242e+00 1.0566000000e-01 0.0000e+00 -1.0000e+00
      -13  1    4    4    0    0 +1.1094090589e+00 +1.7489043021e+00 -7.0432571218e+00 7.3422128570e+00 1.0566000000e-01 0.0000e+00 1.0000e+00
      -14  1    4    4    0    0 +1.4985907257e+01 -2.3281083863e+01 -1.9144143966e+01 3.3661320984e+01 0.0000000000e+00 0.0000e+00 1.0000e+00
<mgrwt>
<rscale>  0 0.79566638E+02</rscale>
<asrwt>0</asrwt>
<pdfrwt beam="1">  1        2 0.15308646E-02 0.79566638E+02</pdfrwt>
<pdfrwt beam="2">  1       -1 0.24470256E-01 0.79566638E+02</pdfrwt>
<totfact> 0.10771843E+05</totfact>
</mgrwt>
</event>
<event>
 8      1 +5.0320763e-08 7.90723500e+01 7.81860800e-03 1.33170500e-01
        1 -1    0    0  501    0 +0.0000000000e+00 +0.0000000000e+00 +2.2772090367e+01 2.2772090925e+01 5.0400000000e-03 0.0000e+00 -1.0000e+00
       -2 -1    0    0    0  501 -0.0000000000e+00 -0.0000000000e+00 -6.8641436411e+01 6.8641436458e+01 2.5500000000e-03 0.0000e+00 1.0000e+00
      -24  2    1    2    0    0 -8.8817841970e-16 -1.7763568394e-15 -4.5869346043e+01 9.1413527383e+01 7.9072347140e+01 0.0000e+00 0.0000e+00
       66  2    3    3    0    0 -5.9171052051e+00 -1.0894648875e+01 -6.2643695856e+01 7.0554584845e+01 3.0000188399e+01 0.0000e+00 0.0000e+00
       13  1    3    3    0    0 +5.9171052051e+00 +1.0894648875e+01 +1.6774349813e+01 2.0858942538e+01 1.0566000000e-01 0.0000e+00 -1.0000e+00
       13  1    4    4    0    0 +4.2094195300e+00 -5.1910929789e-01 -1.1332997024e+00 4.3913801354e+00 1.0566000000e-01 0.0000e+00 -1.0000e+00
      -13  1    4    4    0    0 -6.7189103080e+00 -8.0500025307e+00 -1.0006671765e+01 1.4494514146e+01 1.0566000000e-01 0.0000e+00 1.0000e+00
      -14  1    4    4    0    0 -3.4076144271e+00 -2.3255370465e+00 -5.1503724389e+01 5.1668690564e+01 0.0000000000e+00 0.0000e+00 1.0000e+00
<mgrwt>
<rscale>  0 0.79072347E+02</rscale>
<asrwt>0</asrwt>
<pdfrwt beam="1">  1        1 0.35033986E-02 0.79072347E+02</pdfrwt>
<pdfrwt beam="2">  1       -2 0.10560221E-01 0.79072347E+02</pdfrwt>
<totfact> 0.11882896E+05</totfact>
</mgrwt>
</event>
<event>
 7      1 +5.0320763e-08 1.16580600e+02 7.81860800e-03 1.24884700e-01
       -1 -1    0    0    0  501 -0.0000000000e+00 +0.0000000000e+00 +1.9510662254e+01 1.9510662905e+01 5.0400000000e-03 0.0000e+00 1.0000e+00
        2 -1    0    0  501    0 +0.0000000000e+00 -0.0000000000e+00 -1.7414892080e+02 1.7414892082e+02 2.5500000000e-03 0.0000e+00 -1.0000e+00
       66  2    1    2    0    0 -1.2671398074e+01 -1.1019668021e+01 -1.6844600726e+02 1.7191878105e+02 3.0000208383e+01 0.0000e+00 0.0000e+00
      -13  1    1    2    0    0 +1.2671398074e+01 +1.1019668021e+01 +1.3807748713e+01 2.1740802676e+01 1.0566000000e-01 0.0000e+00 1.0000e+00
       13  1    3    3    0    0 -2.1567804299e+00 -1.3797525588e+01 -8.7014053255e+01 8.8127634952e+01 1.0566000000e-01 0.0000e+00 -1.0000e+00
      -13  1    3    3    0    0 +3.4249489643e+00 -2.0990052938e+00 -8.8146396716e+00 9.6873698807e+00 1.0566000000e-01 0.0000e+00 1.0000e+00
      -14  1    3    3    0    0 -1.3939566608e+01 +4.8768628613e+00 -7.2617314335e+01 7.4103776218e+01 0.0000000000e+00 0.0000e+00 1.0000e+00
<mgrwt>
<rscale>  0 0.11658063E+03</rscale>
<asrwt>0</asrwt>
<pdfrwt beam="1">  1        2 0.26792141E-01 0.11658063E+03</pdfrwt>
<pdfrwt beam="2">  1       -1 0.30016405E-02 0.11658063E+03</pdfrwt>
<totfact> 0.75995548E+04</totfact>
</mgrwt>
</event>
<event>
 8      1 +5.0320763e-08 8.01983700e+01 7.81860800e-03 1.32848900e-01
       -3 -1    0    0    0  501 -0.0000000000e+00 +0.0000000000e+00 +7.9141889760e+00 7.9148334252e+00 1.0100000000e-01 0.0000e+00 1.0000e+00
        4 -1    0    0  501    0 +0.0000000000e+00 -0.0000000000e+00 -2.0311084779e+02 2.0311481824e+02 1.2700000000e+00 0.0000e+00 -1.0000e+00
       24  2    1    2    0    0 -3.5527136788e-15 +0.0000000000e+00 -1.9519665881e+02 2.1102965167e+02 8.0198368257e+01 0.0000e+00 0.0000e+00
       66  2    3    3    0    0 -2.6037837323e+01 -1.2227364431e+01 -1.6131520154e+02 1.6658371007e+02 3.0001013320e+01 0.0000e+00 0.0000e+00
      -13  1    3    3    0    0 +2.6037837323e+01 +1.2227364431e+01 -3.3881457279e+01 4.4445941601e+01 1.0566000000e-01 0.0000e+00 1.0000e+00
       13  1    4    4    0    0 +3.2375865193e-01 -8.6338512943e+00 -2.0496154419e+01 2.2243015035e+01 1.0566000000e-01 0.0000e+00 -1.0000e+00
      -13  1    4    4    0    0 -2.4439664927e+01 -5.4839781647e+00 -1.3861119255e+02 1.4085611489e+02 1.0566000000e-01 0.0000e+00 1.0000e+00
      -14  1    4    4    0    0 -1.9219310480e+00 +1.8904650276e+00 -2.2078545659e+00 3.4845801409e+00 0.0000000000e+00 0.0000e+00 1.0000e+00
<mgrwt>
<rscale>  0 0.80198368E+02</rscale>
<asrwt>0</asrwt>
<pdfrwt beam="1">  1        4 0.31255960E-01 0.80198368E+02</pdfrwt>
<pdfrwt beam="2">  1       -3 0.12176193E-02 0.80198368E+02</pdfrwt>
<totfact> 0.32492616E+04</totfact>
</mgrwt>
</event>
<event>
 8      1 +5.0320763e-08 7.95882900e+01 7.81860800e-03 1.33022400e-01
       -1 -1    0    0    0  501 -0.0000000000e+00 +0.0000000000e+00 +1.3909421984e+01 1.3909422898e+01 5.0400000000e-03 0.0000e+00 1.0000e+00
        2 -1    0    0  501    0 +0.0000000000e+00 -0.0000000000e+00 -1.1384902050e+02 1.1384902053e+02 2.5500000000e-03 0.0000e+00 -1.0000e+00
       24  2    1    2    0    0 +0.0000000000e+00 +3.5527136788e-15 -9.9939598516e+01 1.2775844343e+02 7.9588293833e+01 0.0000e+00 0.0000e+00
       66  2    3    3    0    0 +1.3636625838e+01 +2.6590325914e+01 -3.0571943666e+01 5.2227749666e+01 3.0001518283e+01 0.0000e+00 0.0000e+00
      -13  1    3    3    0    0 -1.3636625838e+01 -2.6590325914e+01 -6.9367654851e+01 7.5530693761e+01 1.0566000000e-01 0.0000e+00 1.0000e+00
       13  1    4    4    0    0 +1.0115831404e+01 +3.0728990167e+01 -2.8604165702e+01 4.3183449853e+01 1.0566000000e-01 0.0000e+00 -1.0000e+00
      -13  1    4    4    0    0 +2.3658469059e+00 -1.2730189080e+00 -4.3698605320e+00 5.1307556780e+00 1.0566000000e-01 0.0000e+00 1.0000e+00
      -14  1    4    4    0    0 +1.1549475276e+00 -2.8656453452e+00 +2.4020825680e+00 3.9135441354e+00 0.0000000000e+00 0.0000e+00 1.0000e+00
<mgrwt>
<rscale>  0 0.79588294E+02</rscale>
<asrwt>0</asrwt>
<pdfrwt beam="1">  1        2 0.17515233E-01 0.79588294E+02</pdfrwt>
<pdfrwt beam="2">  1       -1 0.21399112E-02 0.79588294E+02</pdfrwt>
<totfact> 0.18652593E+05</totfact>
</mgrwt>
</event>
<event>
 8      1 +5.0320763e-08 8.04972200e+01 7.81860800e-03 1.32764600e-01
       -2 -1    0    0    0  501 -0.0000000000e+00 +0.0000000000e+00 +4.7556187315e+02 4.7556187316e+02 2.5500000000e-03 0.0000e+00 1.0000e+00
        1 -1    0    0  501    0 +0.0000000000e+00 -0.0000000000e+00 -3.4063907659e+00 3.4063944944e+00 5.0400000000e-03 0.0000e+00 -1.0000e+00
      -24  2    1    2    0    0 +0.0000000000e+00 +0.0000000000e+00 +4.7215548238e+02 4.7896826765e+02 8.0497216545e+01 0.0000e+00 0.0000e+00
       66  2    3    3    0    0 +7.7850648179e+00 +2.9566529391e+01 +3.6598508943e+02 3.6848319898e+02 2.9999922561e+01 0.0000e+00 0.0000e+00
       13  1    3    3    0    0 -7.7850648179e+00 -2.9566529391e+01 +1.0617039296e+02 1.1048506867e+02 1.0566000000e-01 0.0000e+00 -1.0000e+00
       13  1    4    4    0    0 +2.7676487814e+00 +2.5198263032e+00 +1.3034880846e+01 1.3562031083e+01 1.0566000000e-01 0.0000e+00 -1.0000e+00
      -13  1    4    4    0    0 +1.1928403629e+01 +2.7335751468e+01 +3.0816784342e+02 3.0960775347e+02 1.0566000000e-01 0.0000e+00 1.0000e+00
      -14  1    4    4    0    0 -6.9109875930e+00 -2.8904837960e-01 +4.4782365157e+01 4.5313414432e+01 0.0000000000e+00 0.0000e+00 1.0000e+00
<mgrwt>
<rscale>  0 0.80497217E+02</rscale>
<asrwt>0</asrwt>
<pdfrwt beam="1">  1        1 0.52406070E-03 0.80497217E+02</pdfrwt>
<pdfrwt beam="2">  1       -2 0.73163324E-01 0.80497217E+02</pdfrwt>
<totfact> 0.51499502E+04</totfact>
</mgrwt>
</event>
<event>
 8      1 +5.0320763e-08 8.05935700e+01 7.81860800e-03 1.32737500e-01
       -2 -1    0    0    0  501 -0.0000000000e+00 +0.0000000000e+00 +2.1531705742e+01 2.1531705893e+01 2.5500000000e-03 0.0000e+00 1.0000e+00
        1 -1    0    0  501    0 +0.0000000000e+00 -0.0000000000e+00 -7.5415804647e+01 7.5415804816e+01 5.0400000000e-03 0.0000e+00 -1.0000e+00
      -24  2    1    2    0    0 +1.7763568394e-15 +0.0000000000e+00 -5.3884098905e+01 9.6947510708e+01 8.0593571194e+01 0.0000e+00 0.0000e+00
       66  2    3    3    0    0 -1.4874102699e+01 -3.1096465326e+01 -2.5745893319e+01 5.2450332545e+01 2.9999287899e+01 0.0000e+00 0.0000e+00
       13  1    3    3    0    0 +1.4874102699e+01 +3.1096465326e+01 -2.8138205586e+01 4.4497178163e+01 1.0566000000e-01 0.0000e+00 -1.0000e+00
       13  1    4    4    0    0 -2.0100193569e+01 -1.4473758083e+01 -8.5680095881e+00 2.6209338162e+01 1.0566000000e-01 0.0000e+00 -1.0000e+00
      -13  1    4    4    0    0 +7.4456794209e+00 -9.0750096483e+00 -8.2887674608e+00 1.4370413084e+01 1.0566000000e-01 0.0000e+00 1.0000e+00
       14  1    4    4    0    0 -2.2195885512e+00 -7.5476975939e+00 -8.8891162706e+00 1.1870581299e+01 0.0000000000e+00 0.0000e+00 -1.0000e+00
<mgrwt>
<rscale>  0 0.80593571E+02</rscale>
<asrwt>0</asrwt>
<pdfrwt beam="1">  1        1 0.11602431E-01 0.80593571E+02</pdfrwt>
<pdfrwt beam="2">  1       -2 0.33125702E-02 0.80593571E+02</pdfrwt>
<totfact> 0.13755351E+05</totfact>
</mgrwt>
</event>
<event>
 8      1 +5.0320763e-08 8.04386300e+01 7.81860800e-03 1.32781100e-01
       -2 -1    0    0    0  501 -0.0000000000e+00 +0.0000000000e+00 +1.8110581676e+02 1.8110581678e+02 2.5500000000e-03 0.0000e+00 1.0000e+00
        1 -1    0    0  501    0 +0.0000000000e+00 -0.0000000000e+00 -8.9317573134e+00 8.9317587354e+00 5.0400000000e-03 0.0000e+00 -1.0000e+00
      -24  2    1    2    0    0 +0.0000000000e+00 +0.0000000000e+00 +1.7217405945e+02 1.9003757552e+02 8.0438631022e+01 0.0000e+00 0.0000e+00
       66  2    3    3    0    0 +1.1527179493e+01 +3.1889316355e+01 +8.1512473043e+01 9.3242230699e+01 3.0000432653e+01 0.0000e+00 0.0000e+00
       13  1    3    3    0    0 -1.1527179493e+01 -3.1889316355e+01 +9.0661586405e+01 9.6795344817e+01 1.0566000000e-01 0.0000e+00 -1.0000e+00
       13  1    4    4    0    0 -8.1355733670e-01 -2.1042829929e+00 -4.4326316161e-01 2.3016360964e+00 1.0566000000e-01 0.0000e+00 -1.0000e+00
      -13  1    4    4    0    0 +6.1054147379e+00 +3.6799275035e+00 +2.6405876308e+01 2.7351406238e+01 1.0566000000e-01 0.0000e+00 1.0000e+00
       14  1    4    4    0    0 +6.2353220915e+00 +3.0313671844e+01 +5.5549859897e+01 6.3589188364e+01 0.0000000000e+00 0.0000e+00 -1.0000e+00
<mgrwt>
<rscale>  0 0.80438631E+02</rscale>
<asrwt>0</asrwt>
<pdfrwt beam="1">  1        1 0.13741165E-02 0.80438631E+02</pdfrwt>
<pdfrwt beam="2">  1       -2 0.27862436E-01 0.80438631E+02</pdfrwt>
<totfact> 0.87207266E+04</totfact>
</mgrwt>
</event>
<event>
 8      1 +5.0320763e-08 8.04277100e+01 7.81860800e-03 1.32784200e-01
        2 -1    0    0  501    0 +0.0000000000e+00 +0.0000000000e+00 +8.8137760601e+02 8.8137760601e+02 2.5500000000e-03 0.0000e+00 -1.0000e+00
       -1 -1    0    0    0  501 -0.0000000000e+00 -0.0000000000e+00 -1.8347995955e+00 1.8348065176e+00 5.0400000000e-03 0.0000e+00 1.0000e+00
       24  2    1    2    0    0 +8.8817841970e-16 -3.5527136788e-15 +8.7954280641e+02 8.8321241253e+02 8.0427714961e+01 0.0000e+00 0.0000e+00
       66  2    3    3    0    0 +4.9379256054e+00 +2.8020139879e+01 +7.1753063125e+02 7.1872087045e+02 2.9999525026e+01 0.0000e+00 0.0000e+00
      -13  1    3    3    0    0 -4.9379256054e+00 -2.8020139879e+01 +1.6201217517e+02 1.6449154208e+02 1.0566000000e-01 0.0000e+00 1.0000e+00
       13  1    4    4    0    0 +5.5302103248e+00 +8.1840522192e+00 +1.5375275664e+02 1.5406973510e+02 1.0566000000e-01 0.0000e+00 -1.0000e+00
      -13  1    4    4    0    0 +1.0421784646e+01 +4.4077583229e+00 +1.4326740868e+02 1.4371361621e+02 1.0566000000e-01 0.0000e+00 1.0000e+00
       14  1    4    4    0    0 -1.1014069365e+01 +1.5428329337e+01 +4.2051046593e+02 4.2093751914e+02 0.0000000000e+00 0.0000e+00 -1.0000e+00
<mgrwt>
<rscale>  0 0.80427715E+02</rscale>
<asrwt>0</asrwt>
<pdfrwt beam="1">  1        2 0.13559683E+00 0.80427715E+02</pdfrwt>
<pdfrwt beam="2">  1       -1 0.28227682E-03 0.80427715E+02</pdfrwt>
<totfact> 0.34382347E+05</totfact>
</mgrwt>
</event>
<event>
 8      1 +5.0320763e-08 7.96660000e+01 7.81860800e-03 1.33000200e-01
        4 -1    0    0  501    0 +0.0000000000e+00 +0.0000000000e+00 +2.2414373022e+02 2.2414732811e+02 1.2700000000e+00 0.0000e+00 -1.0000e+00
       -3 -1    0    0    0  501 -0.0000000000e+00 -0.0000000000e+00 -7.0765696928e+00 7.0772904149e+00 1.0100000000e-01 0.0000e+00 1.0000e+00
       24  2    1    2    0    0 +7.1054273576e-15 +8.8817841970e-16 +2.1706716053e+02 2.3122461852e+02 7.9666002980e+01 0.0000e+00 0.0000e+00
       66  2    3    3    0    0 -2.7981070632e+01 +3.9465049562e+00 +1.7975673261e+02 1.8442083224e+02 3.0000753812e+01 0.0000e+00 0.0000e+00
      -13  1    3    3    0    0 +2.7981070632e+01 -3.9465049562e+00 +3.7310427918e+01 4.6803786284e+01 1.0566000000e-01 0.0000e+00 1.0000e+00
       13  1    4    4    0    0 -8.7517755755e+00 -3.2213838383e-01 +1.0474956763e+02 1.0511508185e+02 1.0566000000e-01 0.0000e+00 -1.0000e+00
      -13  1    4    4    0    0 -1.1497656512e+01 -5.8186701447e+00 +4.2159326606e+01 4.4084838793e+01 1.0566000000e-01 0.0000e+00 1.0000e+00
      -14  1    4    4    0    0 -7.7316385444e+00 +1.0087313485e+01 +3.2847838379e+01 3.5220911602e+01 0.0000000000e+00 0.0000e+00 1.0000e+00
<mgrwt>
<rscale>  0 0.79666003E+02</rscale>
<asrwt>0</asrwt>
<pdfrwt beam="1">  1        4 0.34492696E-01 0.79666003E+02</pdfrwt>
<pdfrwt beam="2">  1       -3 0.10887601E-02 0.79666003E+02</pdfrwt>
<totfact> 0.31763638E+04</totfact>
</mgrwt>
</event>
<event>
 8      1 +5.0320763e-08 7.88048300e+01 7.81860800e-03 1.33247800e-01
        1 -1    0    0  501    0 +0.0000000000e+00 +0.0000000000e+00 +3.8850730318e+01 3.8850730645e+01 5.0400000000e-03 0.0000e+00 -1.0000e+00
       -2 -1    0    0    0  501 -0.0000000000e+00 -0.0000000000e+00 -3.9961934938e+01 3.9961935020e+01 2.5500000000e-03 0.0000e+00 1.0000e+00
      -24  2    1    2    0    0 -3.5527136788e-15 +3.5527136788e-15 -1.1112046205e+00 7.8812665665e+01 7.8804831663e+01 0.0000e+00 0.0000e+00
       66  2    3    3    0    0 -2.1722894109e+01 +2.5593047828e+01 -3.5083249699e+00 4.5157865478e+01 3.0000604074e+01 0.0000e+00 0.0000e+00
       13  1    3    3    0    0 +2.1722894109e+01 -2.5593047828e+01 +2.3971203494e+00 3.3654800187e+01 1.0566000000e-01 0.0000e+00 -1.0000e+00
       13  1    4    4    0    0 -1.0149270832e+01 -9.0486640956e-01 +6.5267793128e+00 1.2101094739e+01 1.0566000000e-01 0.0000e+00 -1.0000e+00
      -13  1    4    4    0    0 +5.4822196499e-01 -1.1463688770e+00 -1.0174330183e-01 1.2791499756e+00 1.0566000000e-01 0.0000e+00 1.0000e+00
      -14  1    4    4    0    0 -1.2121845242e+01 +2.7644283115e+01 -9.9333609808e+00 3.1777620763e+01 0.0000000000e+00 0.0000e+00 1.0000e+00
<mgrwt>
<rscale>  0 0.78804832E+02</rscale>
<asrwt>0</asrwt>
<pdfrwt beam="1">  1        1 0.59770355E-02 0.78804832E+02</pdfrwt>
<pdfrwt beam="2">  1       -2 0.61479900E-02 0.78804832E+02</pdfrwt>
<totfact> 0.13185080E+05</totfact>
</mgrwt>
</event>
<event>
 8      1 +5.0320763e-08 8.00967100e+01 7.81860800e-03 1.32877700e-01
        2 -1    0    0  501    0 +0.0000000000e+00 +0.0000000000e+00 +6.3071927350e+01 6.3071927402e+01 2.5500000000e-03 0.0000e+00 -1.0000e+00
       -1 -1    0    0    0  501 -0.0000000000e+00 -0.0000000000e+00 -2.5429234035e+01 2.5429234534e+01 5.0400000000e-03 0.0000e+00 1.0000e+00
       24  2    1    2    0    0 +0.0000000000e+00 +0.0000000000e+00 +3.7642693315e+01 8.8501161936e+01 8.0096712192e+01 0.0000e+00 0.0000e+00
       66  2    3    3    0    0 -6.6566161333e+00 -1.4428674235e+01 +5.5211136910e+01 6.4812376554e+01 2.9997955549e+01 0.0000e+00 0.0000e+00
      -13  1    3    3    0    0 +6.6566161333e+00 +1.4428674235e+01 -1.7568443595e+01 2.3688785382e+01 1.0566000000e-01 0.0000e+00 1.0000e+00
       13  1    4    4    0    0 -2.6741249242e+00 -8.3001419711e+00 +6.2864549498e+00 1.0750533974e+01 1.0566000000e-01 0.0000e+00 -1.0000e+00
      -13  1    4    4    0    0 -8.4369347261e+00 +4.3318846718e+00 +1.1279197576e+01 1.4736979147e+01 1.0566000000e-01 0.0000e+00 1.0000e+00
       14  1    4    4    0    0 +4.4544435170e+00 -1.0460416935e+01 +3.7645484384e+01 3.9324863433e+01 0.0000000000e+00 0.0000e+00 -1.0000e+00
<mgrwt>
<rscale>  0 0.80096712E+02</rscale>
<asrwt>0</asrwt>
<pdfrwt beam="1">  1        2 0.97033736E-02 0.80096712E+02</pdfrwt>
<pdfrwt beam="2">  1       -1 0.39121899E-02 0.80096712E+02</pdfrwt>
<totfact> 0.15696744E+05</totfact>
</mgrwt>
</event>
<event>
 8      1 +5.0320763e-08 7.79107400e+01 7.81860800e-03 1.33508700e-01
       -1 -1    0    0    0  501 -0.0000000000e+00 +0.0000000000e+00 +4.2624395369e+00 4.2624425166e+00 5.0400000000e-03 0.0000e+00 1.0000e+00
        2 -1    0    0  501    0 +0.0000000000e+00 -0.0000000000e+00 -3.5602157321e+02 3.5602157322e+02 2.5500000000e-03 0.0000e+00 -1.0000e+00
       24  2    1    2    0    0 +0.0000000000e+00 -3.5527136788e-15 -3.5175913368e+02 3.6028401574e+02 7.7910742984e+01 0.0000e+00 0.0000e+00
       66  2    3    3    0    0 -1.2050593742e+01 -2.7063310945e+01 -2.7104797490e+02 2.7430761244e+02 3.0000365622e+01 0.0000e+00 0.0000e+00
      -13  1    3    3    0    0 +1.2050593742e+01 +2.7063310945e+01 -8.0711158779e+01 8.5976403300e+01 1.0566000000e-01 0.0000e+00 1.0000e+00
       13  1    4    4    0    0 -4.7994452608e+00 -4.9019935354e+00 -3.0181936870e+01 3.0951973971e+01 1.0566000000e-01 0.0000e+00 -1.0000e+00
      -13  1    4    4    0    0 -5.5510622070e-02 -1.0077807997e+01 -1.9769212511e+02 1.9794886408e+02 1.0566000000e-01 0.0000e+00 1.0000e+00
      -14  1    4    4    0    0 -7.1956378587e+00 -1.2083509413e+01 -4.3173912919e+01 4.5406774392e+01 0.0000000000e+00 0.0000e+00 1.0000e+00
<mgrwt>
<rscale>  0 0.77910743E+02</rscale>
<asrwt>0</asrwt>
<pdfrwt beam="1">  1        2 0.54772526E-01 0.77910743E+02</pdfrwt>
<pdfrwt beam="2">  1       -1 0.65576044E-03 0.77910743E+02</pdfrwt>
<totfact> 0.29054836E+05</totfact>
</mgrwt>
</event>
<event>
 8      1 +5.0320763e-08 7.97925200e+01 7.81860800e-03 1.32964100e-01
       -1 -1    0    0    0  501 -0.0000000000e+00 +0.0000000000e+00 +1.0164168994e+01 1.0164170243e+01 5.0400000000e-03 0.0000e+00 1.0000e+00
        2 -1    0    0  501    0 +0.0000000000e+00 -0.0000000000e+00 -1.5660024334e+02 1.5660024336e+02 2.5500000000e-03 0.0000e+00 -1.0000e+00
       24  2    1    2    0    0 +0.0000000000e+00 +0.0000000000e+00 -1.4643607434e+02 1.6676441360e+02 7.9792517034e+01 0.0000e+00 0.0000e+00
       66  2    3    3    0    0 -6.8013419259e+00 +2.7093799044e+01 -1.2500436676e+02 1.3155558726e+02 3.0007476241e+01 0.0000e+00 0.0000e+00
      -13  1    3    3    0    0 +6.8013419259e+00 -2.7093799044e+01 -2.1431707579e+01 3.5208826342e+01 1.0566000000e-01 0.0000e+00 1.0000e+00
       13  1    4    4    0    0 -4.8514346143e+00 +1.7129754031e+01 -3.1059935786e+01 3.5800777450e+01 1.0566000000e-01 0.0000e+00 -1.0000e+00
      -13  1    4    4    0    0 -8.0250078277e+00 +7.0152275167e+00 -7.2295045099e+01 7.3076664385e+01 1.0566000000e-01 0.0000e+00 1.0000e+00
       14  1    4    4    0    0 +6.0751005161e+00 +2.9488174956e+00 -2.1649385878e+01 2.2678145422e+01 0.0000000000e+00 0.0000e+00 -1.0000e+00
<mgrwt>
<rscale>  0 0.79792517E+02</rscale>
<asrwt>0</asrwt>
<pdfrwt beam="1">  1        2 0.24092343E-01 0.79792517E+02</pdfrwt>
<pdfrwt beam="2">  1       -1 0.15637185E-02 0.79792517E+02</pdfrwt>
<totfact> 0.20451929E+05</totfact>
</mgrwt>
</event>
<event>
 8      1 +5.0320763e-08 7.99586300e+01 7.81860800e-03 1.32916900e-01
       -1 -1    0    0    0  501 -0.0000000000e+00 +0.0000000000e+00 +4.5097360382e+01 4.5097360664e+01 5.0400000000e-03 0.0000e+00 1.0000e+00
        2 -1    0    0  501    0 +0.0000000000e+00 -0.0000000000e+00 -3.5442108014e+01 3.5442108105e+01 2.5500000000e-03 0.0000e+00 -1.0000e+00
       24  2    1    2    0    0 +8.8817841970e-16 +0.0000000000e+00 +9.6552523687e+00 8.0539468769e+01 7.9958627623e+01 0.0000e+00 0.0000e+00
       66  2    3    3    0    0 -7.3781040449e+00 -2.1814613894e+01 -2.0166974225e+01 4.2860692758e+01 3.0000305593e+01 0.0000e+00 0.0000e+00
      -13  1    3    3    0    0 +7.3781040449e+00 +2.1814613894e+01 +2.9822226594e+01 3.7678776011e+01 1.0566000000e-01 0.0000e+00 1.0000e+00
       13  1    4    4    0    0 -2.4429172329e+00 -5.3353805107e+00 -9.8856343556e+00 1.1496567333e+01 1.0566000000e-01 0.0000e+00 -1.0000e+00
      -13  1    4    4    0    0 -1.7576817452e+00 +5.0884259926e+00 -7.7220205854e+00 9.4139412658e+00 1.0566000000e-01 0.0000e+00 1.0000e+00
      -14  1    4    4    0    0 -3.1775050668e+00 -2.1567659376e+01 -2.5593192839e+00 2.1950184159e+01 0.0000000000e+00 0.0000e+00 1.0000e+00
<mgrwt>
<rscale>  0 0.79958628E+02</rscale>
<asrwt>0</asrwt>
<pdfrwt beam="1">  1        2 0.54526320E-02 0.79958628E+02</pdfrwt>
<pdfrwt beam="2">  1       -1 0.69380555E-02 0.79958628E+02</pdfrwt>
<totfact> 0.13929051E+05</totfact>
</mgrwt>
</event>
<event>
 8      1 +5.0320763e-08 8.06405500e+01 7.81860800e-03 1.32724300e-01
        4 -1    0    0  501    0 +0.0000000000e+00 +0.0000000000e+00 +1.0252878574e+01 1.0331235117e+01 1.2700000000e+00 0.0000e+00 -1.0000e+00
       -1 -1    0    0    0  501 -0.0000000000e+00 -0.0000000000e+00 -1.5791998312e+02 1.5791998320e+02 5.0400000000e-03 0.0000e+00 1.0000e+00
       24  2    1    2    0    0 -8.8817841970e-16 +3.5527136788e-15 -1.4766710455e+02 1.6825121832e+02 8.0640552456e+01 0.0000e+00 0.0000e+00
       66  2    3    3    0    0 -2.4221682347e+00 -2.1860108379e+01 -2.7949956102e+01 4.6530480426e+01 3.0002571977e+01 0.0000e+00 0.0000e+00
      -13  1    3    3    0    0 +2.4221682347e+00 +2.1860108379e+01 -1.1971714844e+02 1.2172073789e+02 1.0566000000e-01 0.0000e+00 1.0000e+00
       13  1    4    4    0    0 -6.8807306661e+00 -1.1903117980e+01 -1.0493834470e+01 1.7296253874e+01 1.0566000000e-01 0.0000e+00 -1.0000e+00
      -13  1    4    4    0    0 +1.1360781432e+01 -6.1778622115e+00 -1.6989225649e+01 2.1351306481e+01 1.0566000000e-01 0.0000e+00 1.0000e+00
      -14  1    4    4    0    0 -6.9022190010e+00 -3.7791281878e+00 -4.6689598354e-01 7.8829200717e+00 0.0000000000e+00 0.0000e+00 1.0000e+00
<mgrwt>
<rscale>  0 0.80640552E+02</rscale>
<asrwt>0</asrwt>
<pdfrwt beam="1">  1        4 0.15837863E-02 0.80640552E+02</pdfrwt>
<pdfrwt beam="2">  1       -1 0.24295380E-01 0.80640552E+02</pdfrwt>
<totfact> 0.67465004E+04</totfact>
</mgrwt>
</event>
<event>
 8      1 +5.0320763e-08 9.48714600e+01 7.81860800e-03 1.29146600e-01
        2 -1    0    0  501    0 +0.0000000000e+00 +0.0000000000e+00 +1.8985675604e+02 1.8985675605e+02 2.5500000000e-03 0.0000e+00 -1.0000e+00
       -1 -1    0    0    0  501 -0.0000000000e+00 -0.0000000000e+00 -1.1851821225e+01 1.1851822296e+01 5.0400000000e-03 0.0000e+00 1.0000e+00
       24  2    1    2    0    0 +0.0000000000e+00 +0.0000000000e+00 +1.7800493481e+02 2.0170857835e+02 9.4871459157e+01 0.0000e+00 0.0000e+00
       66  2    3    3    0    0 +7.5360276111e+00 -3.9784350590e+01 +6.9136464279e+01 8.5553762245e+01 3.0000154623e+01 0.0000e+00 0.0000e+00
      -13  1    3    3    0    0 -7.5360276111e+00 +3.9784350590e+01 +1.0886847053e+02 1.1615481611e+02 1.0566000000e-01 0.0000e+00 1.0000e+00
       13  1    4    4    0    0 +8.6455218589e-01 -1.5283149311e+01 +2.7195766997e+01 3.1208060016e+01 1.0566000000e-01 0.0000e+00 -1.0000e+00
      -13  1    4    4    0    0 +3.5466413475e+00 +2.8765792328e+00 +5.2105623898e-01 4.5973945415e+00 1.0566000000e-01 0.0000e+00 1.0000e+00
      -14  1    4    4    0    0 +3.1248340777e+00 -2.7377780512e+01 +4.1419641042e+01 4.9748307688e+01 0.0000000000e+00 0.0000e+00 1.0000e+00
<mgrwt>
<rscale>  0 0.94871459E+02</rscale>
<asrwt>0</asrwt>
<pdfrwt beam="1">  1        2 0.29208731E-01 0.94871459E+02</pdfrwt>
<pdfrwt beam="2">  1       -1 0.18233572E-02 0.94871459E+02</pdfrwt>
<totfact> 0.13751429E+05</totfact>
</mgrwt>
</event>
<event>
 8      1 +5.0320763e-08 8.34859100e+01 7.81860800e-03 1.31944000e-01
       -1 -1    0    0    0  501 -0.0000000000e+00 +0.0000000000e+00 +1.0625615821e+01 1.0625617016e+01 5.0400000000e-03 0.0000e+00 1.0000e+00
        2 -1    0    0  501    0 +0.0000000000e+00 -0.0000000000e+00 -1.6398807675e+02 1.6398807677e+02 2.5500000000e-03 0.0000e+00 -1.0000e+00
       24  2    1    2    0    0 -1.7763568394e-15 +1.7763568394e-15 -1.5336246093e+02 1.7461369379e+02 8.3485912797e+01 0.0000e+00 0.0000e+00
       66  2    3    3    0    0 -1.3808820490e+01 -9.7962143045e+00 -1.5386620476e+02 1.5767515017e+02 2.9999911302e+01 0.0000e+00 0.0000e+00
      -13  1    3    3    0    0 +1.3808820490e+01 +9.7962143045e+00 +5.0374382171e-01 1.6938543618e+01 1.0566000000e-01 0.0000e+00 1.0000e+00
       13  1    4    4    0    0 -7.7356266364e-01 -3.4393727494e-02 -1.7611863068e+01 1.7629193597e+01 1.0566000000e-01 0.0000e+00 -1.0000e+00
      -13  1    4    4    0    0 -2.1007392998e+01 -1.1015664327e+01 -8.8967452174e+01 9.2075372014e+01 1.0566000000e-01 0.0000e+00 1.0000e+00
      -14  1    4    4    0    0 +7.9721351711e+00 +1.2538437502e+00 -4.7286889512e+01 4.7970584561e+01 0.0000000000e+00 0.0000e+00 1.0000e+00
<mgrwt>
<rscale>  0 0.83485913E+02</rscale>
<asrwt>0</asrwt>
<pdfrwt beam="1">  1        2 0.25228933E-01 0.83485913E+02</pdfrwt>
<pdfrwt beam="2">  1       -1 0.16347103E-02 0.83485913E+02</pdfrwt>
<totfact> 0.18413768E+05</totfact>
</mgrwt>
</event>
<event>
 8      1 +5.0320763e-08 7.83622800e+01 7.81860800e-03 1.33376400e-01
        4 -1    0    0  501    0 +0.0000000000e+00 +0.0000000000e+00 +1.0814725348e+01 1.0889039643e+01 1.2700000000e+00 0.0000e+00 -1.0000e+00
       -3 -1    0    0    0  501 -0.0000000000e+00 -0.0000000000e+00 -1.4142761277e+02 1.4142764884e+02 1.0100000000e-01 0.0000e+00 1.0000e+00
       24  2    1    2    0    0 +1.7763568394e-15 +0.0000000000e+00 -1.3061288743e+02 1.5231668848e+02 7.8362281924e+01 0.0000e+00 0.0000e+00
       66  2    3    3    0    0 +1.5296108959e+01 +1.7287002754e+01 -2.7851550159e+01 4.6994729639e+01 2.9999739234e+01 0.0000e+00 0.0000e+00
      -13  1    3    3    0    0 -1.5296108959e+01 -1.7287002754e+01 -1.0276133727e+02 1.0532195884e+02 1.0566000000e-01 0.0000e+00 1.0000e+00
       13  1    4    4    0    0 +6.0426941229e+00 -2.5118532809e+00 +3.9455019164e-01 6.5567059608e+00 1.0566000000e-01 0.0000e+00 -1.0000e+00
      -13  1    4    4    0    0 +4.9075554512e+00 -9.7163563063e-01 -1.4030801710e+01 1.4896400135e+01 1.0566000000e-01 0.0000e+00 1.0000e+00
      -14  1    4    4    0    0 +4.3458593849e+00 +2.0770491665e+01 -1.4215298640e+01 2.5541623544e+01 0.0000000000e+00 0.0000e+00 1.0000e+00
<mgrwt>
<rscale>  0 0.78362282E+02</rscale>
<asrwt>0</asrwt>
<pdfrwt beam="1">  1        4 0.16699591E-02 0.78362282E+02</pdfrwt>
<pdfrwt beam="2">  1       -3 0.21758132E-01 0.78362282E+02</pdfrwt>
<totfact> 0.42101411E+04</totfact>
</mgrwt>
</event>
<event>
 8      1 +5.0320763e-08 8.03217600e+01 7.81860800e-03 1.32814100e-01
       -4 -1    0    0    0  501 -0.0000000000e+00 +0.0000000000e+00 +2.0009341117e+01 2.0049604284e+01 1.2700000000e+00 0.0000e+00 1.0000e+00
        3 -1    0    0  501    0 +0.0000000000e+00 -0.0000000000e+00 -8.0505853028e+01 8.0505916383e+01 1.0100000000e-01 0.0000e+00 -1.0000e+00
      -24  2    1    2    0    0 +4.4408920985e-16 +0.0000000000e+00 -6.0496511910e+01 1.0055552067e+02 8.0321757846e+01 0.0000e+00 0.0000e+00
       66  2    3    3    0    0 +2.3880740294e+00 -1.9346083372e+01 -7.0192253821e+01 7.8784153814e+01 3.0000275937e+01 0.0000e+00 0.0000e+00
       13  1    3    3    0    0 -2.3880740294e+00 +1.9346083372e+01 +9.6957419113e+00 2.1771366853e+01 1.0566000000e-01 0.0000e+00 -1.0000e+00
       13  1    4    4    0    0 +3.3191189812e+00 -9.7351284177e+00 -2.3624922685e+01 2.5766982983e+01 1.0566000000e-01 0.0000e+00 -1.0000e+00
      -13  1    4    4    0    0 -1.1939383751e+01 -6.5436132754e+00 -2.9325443746e+01 3.2332036342e+01 1.0566000000e-01 0.0000e+00 1.0000e+00
       14  1    4    4    0    0 +1.1008338799e+01 -3.0673416791e+00 -1.7241887390e+01 2.0685134489e+01 0.0000000000e+00 0.0000e+00 -1.0000e+00
<mgrwt>
<rscale>  0 0.80321758E+02</rscale>
<asrwt>0</asrwt>
<pdfrwt beam="1">  1        3 0.12385540E-01 0.80321758E+02</pdfrwt>
<pdfrwt beam="2">  1       -4 0.30822279E-02 0.80321758E+02</pdfrwt>
<totfact> 0.43392840E+04</totfact>
</mgrwt>
</event>
<event>
 8      1 +5.0320763e-08 7.99582800e+01 7.81860800e-03 1.32917000e-01
       -1 -1    0    0    0  501 -0.0000000000e+00 +0.0000000000e+00 +2.3081193482e+01 2.3081194032e+01 5.0400000000e-03 0.0000e+00 1.0000e+00
        2 -1    0    0  501    0 +0.0000000000e+00 -0.0000000000e+00 -6.9248225896e+01 6.9248225943e+01 2.5500000000e-03 0.0000e+00 -1.0000e+00
       24  2    1    2    0    0 +3.5527136788e-15 +1.7763568394e-15 -4.6167032414e+01 9.2329419974e+01 7.9958282316e+01 0.0000e+00 0.0000e+00
       66  2    3    3    0    0 -3.1213963301e+01 -1.1768155027e+01 -3.5799189786e+01 5.7396565776e+01 2.9999713262e+01 0.0000e+00 0.0000e+00
      -13  1    3    3    0    0 +3.1213963301e+01 +1.1768155027e+01 -1.0367842628e+01 3.4932854199e+01 1.0566000000e-01 0.0000e+00 1.0000e+00
       13  1    4    4    0    0 -1.7793312318e+01 -1.5628449432e+01 -1.2252285194e+01 2.6664209184e+01 1.0566000000e-01 0.0000e+00 -1.0000e+00
      -13  1    4    4    0    0 -7.4783816569e-01 -2.2540439416e+00 -1.2821448591e+01 1.3039964878e+01 1.0566000000e-01 0.0000e+00 1.0000e+00
      -14  1    4    4    0    0 -1.2672812817e+01 +6.1143383472e+00 -1.0725456002e+01 1.7692391714e+01 0.0000000000e+00 0.0000e+00 1.0000e+00
<mgrwt>
<rscale>  0 0.79958282E+02</rscale>
<asrwt>0</asrwt>
<pdfrwt beam="1">  1        2 0.10653573E-01 0.79958282E+02</pdfrwt>
<pdfrwt beam="2">  1       -1 0.35509529E-02 0.79958282E+02</pdfrwt>
<totfact> 0.16126830E+05</totfact>
</mgrwt>
</event>
<event>
 8      1 +5.0320763e-08 7.83547900e+01 7.81860800e-03 1.33378600e-01
       -1 -1    0    0    0  501 -0.0000000000e+00 +0.0000000000e+00 +2.3284203222e+01 2.3284203768e+01 5.0400000000e-03 0.0000e+00 1.0000e+00
        2 -1    0    0  501    0 +0.0000000000e+00 -0.0000000000e+00 -6.5918865254e+01 6.5918865303e+01 2.5500000000e-03 0.0000e+00 -1.0000e+00
       24  2    1    2    0    0 +8.8817841970e-16 +0.0000000000e+00 -4.2634662032e+01 8.9203069071e+01 7.8354790059e+01 0.0000e+00 0.0000e+00
       66  2    3    3    0    0 +7.3770088383e+00 +1.1297976100e+01 -5.9265909045e+01 6.7786391817e+01 3.0008039210e+01 0.0000e+00 0.0000e+00
      -13  1    3    3    0    0 -7.3770088383e+00 -1.1297976100e+01 +1.6631247013e+01 2.1416677254e+01 1.0566000000e-01 0.0000e+00 1.0000e+00
       13  1    4    4    0    0 +8.8767327798e+00 -6.5573435315e+00 -3.0664007800e+01 3.2589686673e+01 1.0566000000e-01 0.0000e+00 -1.0000e+00
      -13  1    4    4    0    0 -4.8029327646e+00 +4.0680656543e+00 -9.8222559987e+00 1.1666413256e+01 1.0566000000e-01 0.0000e+00 1.0000e+00
      -14  1    4    4    0    0 +3.3032088230e+00 +1.3787253978e+01 -1.8779645247e+01 2.3530291889e+01 0.0000000000e+00 0.0000e+00 1.0000e+00
<mgrwt>
<rscale>  0 0.78354790E+02</rscale>
<asrwt>0</asrwt>
<pdfrwt beam="1">  1        2 0.10141364E-01 0.78354790E+02</pdfrwt>
<pdfrwt beam="2">  1       -1 0.35821852E-02 0.78354790E+02</pdfrwt>
<totfact> 0.16835254E+05</totfact>
</mgrwt>
</event>
<event>
 8      1 +5.0320763e-08 8.05927700e+01 7.81860800e-03 1.32737800e-01
        3 -1    0    0  501    0 +0.0000000000e+00 +0.0000000000e+00 +1.3172239602e+02 1.3172243474e+02 1.0100000000e-01 0.0000e+00 -1.0000e+00
       -4 -1    0    0    0  501 -0.0000000000e+00 -0.0000000000e+00 -1.2291628809e+01 1.2357064327e+01 1.2700000000e+00 0.0000e+00 1.0000e+00
      -24  2    1    2    0    0 -8.8817841970e-16 +7.1054273576e-15 +1.1943076721e+02 1.4407949907e+02 8.0592765775e+01 0.0000e+00 0.0000e+00
       66  2    3    3    0    0 +6.3093060306e+00 -3.3802367329e+01 +5.9471490329e+01 7.4959795454e+01 2.9995089479e+01 0.0000e+00 0.0000e+00
       13  1    3    3    0    0 -6.3093060306e+00 +3.3802367329e+01 +5.9959276878e+01 6.9119703612e+01 1.0566000000e-01 0.0000e+00 -1.0000e+00
       13  1    4    4    0    0 -8.1052310935e+00 -7.3259492265e+00 +1.6817523855e+01 2.0055038663e+01 1.0566000000e-01 0.0000e+00 -1.0000e+00
      -13  1    4    4    0    0 -8.1195217502e-01 -1.5927652269e+01 +2.1813435343e+01 2.7021963264e+01 1.0566000000e-01 0.0000e+00 1.0000e+00
      -14  1    4    4    0    0 +1.5226489299e+01 -1.0548765833e+01 +2.0840531131e+01 2.7882793526e+01 0.0000000000e+00 0.0000e+00 1.0000e+00
<mgrwt>
<rscale>  0 0.80592766E+02</rscale>
<asrwt>0</asrwt>
<pdfrwt beam="1">  1        3 0.20265020E-01 0.80592766E+02</pdfrwt>
<pdfrwt beam="2">  1       -4 0.18965242E-02 0.80592766E+02</pdfrwt>
<totfact> 0.39653269E+04</totfact>
</mgrwt>
</event>
<event>
 8      1 +5.0320763e-08 8.03751600e+01 7.81860800e-03 1.32799000e-01
       -1 -1    0    0    0  501 -0.0000000000e+00 +0.0000000000e+00 +2.5877502460e+00 2.5877551540e+00 5.0400000000e-03 0.0000e+00 1.0000e+00
        2 -1    0    0  501    0 +0.0000000000e+00 -0.0000000000e+00 -6.2410976356e+02 6.2410976356e+02 2.5500000000e-03 0.0000e+00 -1.0000e+00
       24  2    1    2    0    0 +0.0000000000e+00 -4.4408920985e-16 -6.2152201331e+02 6.2669751872e+02 8.0375163669e+01 0.0000e+00 0.0000e+00
       66  2    3    3    0    0 -2.1486168647e+01 -2.0690560368e+00 -5.6478524499e+02 5.6599324803e+02 3.0000790343e+01 0.0000e+00 0.0000e+00
      -13  1    3    3    0    0 +2.1486168647e+01 +2.0690560368e+00 -5.6736768326e+01 6.0704270691e+01 1.0566000000e-01 0.0000e+00 1.0000e+00
       13  1    4    4    0    0 -1.4294294148e+01 +3.4762924796e+00 -1.7956443820e+02 1.8016606252e+02 1.0566000000e-01 0.0000e+00 -1.0000e+00
      -13  1    4    4    0    0 -7.0557702370e+00 +5.8726655062e+00 -2.3194872483e+02 2.3213033883e+02 1.0566000000e-01 0.0000e+00 1.0000e+00
      -14  1    4    4    0    0 -1.3610426227e-01 -1.1418014023e+01 -1.5327208196e+02 1.5369684667e+02 0.0000000000e+00 0.0000e+00 1.0000e+00
<mgrwt>
<rscale>  0 0.80375164E+02</rscale>
<asrwt>0</asrwt>
<pdfrwt beam="1">  1        2 0.96016767E-01 0.80375164E+02</pdfrwt>
<pdfrwt beam="2">  1       -1 0.39811630E-03 0.80375164E+02</pdfrwt>
<totfact> 0.32117556E+05</totfact>
</mgrwt>
</event>
<event>
 8      1 +5.0320763e-08 7.94136600e+01 7.81860800e-03 1.33072400e-01
        2 -1    0    0  501    0 +0.0000000000e+00 +0.0000000000e+00 +3.6679542674e+01 3.6679542763e+01 2.5500000000e-03 0.0000e+00 -1.0000e+00
       -1 -1    0    0    0  501 -0.0000000000e+00 -0.0000000000e+00 -4.2983967900e+01 4.2983968195e+01 5.0400000000e-03 0.0000e+00 1.0000e+00
       24  2    1    2    0    0 -4.4408920985e-16 +0.0000000000e+00 -6.3044252259e+00 7.9663510958e+01 7.9413658779e+01 0.0000e+00 0.0000e+00
       66  2    3    3    0    0 -5.0189193622e-01 +2.9941235602e+01 +1.2635667974e+01 4.4230930198e+01 2.9999759934e+01 0.0000e+00 0.0000e+00
      -13  1    3    3    0    0 +5.0189193622e-01 -2.9941235602e+01 -1.8940093199e+01 3.5432580760e+01 1.0566000000e-01 0.0000e+00 1.0000e+00
       13  1    4    4    0    0 -7.4474069296e+00 +1.0342894447e+01 +8.5265900395e+00 1.5334706950e+01 1.0566000000e-01 0.0000e+00 1.0000e+00
      -13  1    4    4    0    0 +4.1790213847e-01 +2.1727502928e+01 +2.8980696485e+00 2.1924164692e+01 1.0566000000e-01 0.0000e+00 -1.0000e+00
      -14  1    4    4    0    0 +6.5276128549e+00 -2.1291617730e+00 +1.2110082856e+00 6.9720585559e+00 0.0000000000e+00 0.0000e+00 1.0000e+00
<mgrwt>
<rscale>  0 0.79413659E+02</rscale>
<asrwt>0</asrwt>
<pdfrwt beam="1">  1        2 0.56430065E-02 0.79413659E+02</pdfrwt>
<pdfrwt beam="2">  1       -1 0.66129182E-02 0.79413659E+02</pdfrwt>
<totfact> 0.14294343E+05</totfact>
</mgrwt>
</event>
<event>
 8      1 +5.0320763e-08 7.80541900e+01 7.81860800e-03 1.33466600e-01
        2 -1    0    0  501    0 +0.0000000000e+00 +0.0000000000e+00 +1.3780321688e+02 1.3780321691e+02 2.5500000000e-03 0.0000e+00 -1.0000e+00
       -1 -1    0    0    0  501 -0.0000000000e+00 -0.0000000000e+00 -1.1052819475e+01 1.1052820624e+01 5.0400000000e-03 0.0000e+00 1.0000e+00
       24  2    1    2    0    0 +3.5527136788e-15 +1.2212453271e-15 +1.2675039741e+02 1.4885603753e+02 7.8054190575e+01 0.0000e+00 0.0000e+00
       66  2    3    3    0    0 -2.1897265656e+01 +8.3230650732e-01 +1.2045858357e+02 1.2605733005e+02 2.9999952094e+01 0.0000e+00 0.0000e+00
      -13  1    3    3    0    0 +2.1897265656e+01 -8.3230650732e-01 +6.2918138328e+00 2.2798707478e+01 1.0566000000e-01 0.0000e+00 1.0000e+00
       13  1    4    4    0    0 +9.5692199172e-01 -9.5544694407e+00 +5.2696763007e+01 5.3564573940e+01 1.0566000000e-01 0.0000e+00 -1.0000e+00
      -13  1    4    4    0    0 -1.0468922618e+00 +9.1773694500e-01 +8.9351842063e+00 9.0436112999e+00 1.0566000000e-01 0.0000e+00 1.0000e+00
      -14  1    4    4    0    0 -2.1807295386e+01 +9.4690390030e+00 +5.8826636362e+01 6.3449144812e+01 0.0000000000e+00 0.0000e+00 1.0000e+00
<mgrwt>
<rscale>  0 0.78054191E+02</rscale>
<asrwt>0</asrwt>
<pdfrwt beam="1">  1        2 0.21200494E-01 0.78054191E+02</pdfrwt>
<pdfrwt beam="2">  1       -1 0.17004339E-02 0.78054191E+02</pdfrwt>
<totfact> 0.20813832E+05</totfact>
</mgrwt>
</event>
<event>
 8      1 +5.0320763e-08 7.92436600e+01 7.81860800e-03 1.33121200e-01
        1 -1    0    0  501    0 +0.0000000000e+00 +0.0000000000e+00 +3.1854004904e+00 3.1854044776e+00 5.0400000000e-03 0.0000e+00 -1.0000e+00
       -2 -1    0    0    0  501 -0.0000000000e+00 -0.0000000000e+00 -4.9283865802e+02 4.9283865803e+02 2.5500000000e-03 0.0000e+00 1.0000e+00
      -24  2    1    2    0    0 +0.0000000000e+00 +0.0000000000e+00 -4.8965325753e+02 4.9602406250e+02 7.9243662041e+01 0.0000e+00 0.0000e+00
       66  2    3    3    0    0 -1.0523729227e+01 -1.3574271181e+01 -4.6317072044e+02 4.6445911914e+02 3.0002455939e+01 0.0000e+00 0.0000e+00
       13  1    3    3    0    0 +1.0523729227e+01 +1.3574271181e+01 -2.6482537085e+01 3.1564943362e+01 1.0566000000e-01 0.0000e+00 -1.0000e+00
       13  1    4    4    0    0 +1.3260037348e+00 -1.7631827668e+00 -2.0939011052e+02 2.0940175894e+02 1.0566000000e-01 0.0000e+00 1.0000e+00
      -13  1    4    4    0    0 -1.5022982063e+01 -5.4251364020e+00 -2.1730485420e+02 2.1789110335e+02 1.0566000000e-01 0.0000e+00 -1.0000e+00
       14  1    4    4    0    0 +3.1732491006e+00 -6.3859520120e+00 -3.6475755721e+01 3.7166256852e+01 0.0000000000e+00 0.0000e+00 -1.0000e+00
<mgrwt>
<rscale>  0 0.79243662E+02</rscale>
<asrwt>0</asrwt>
<pdfrwt beam="1">  1        1 0.49006231E-03 0.79243662E+02</pdfrwt>
<pdfrwt beam="2">  1       -2 0.75821271E-01 0.79243662E+02</pdfrwt>
<totfact> 0.52211275E+04</totfact>
</mgrwt>
</event>
<event>
 8      1 +5.0320763e-08 7.99893700e+01 7.81860800e-03 1.32908200e-01
        2 -1    0    0  501    0 +0.0000000000e+00 +0.0000000000e+00 +3.2437199099e+01 3.2437199199e+01 2.5500000000e-03 0.0000e+00 -1.0000e+00
       -1 -1    0    0    0  501 -0.0000000000e+00 -0.0000000000e+00 -4.9312972318e+01 4.9312972576e+01 5.0400000000e-03 0.0000e+00 1.0000e+00
       24  2    1    2    0    0 -8.8817841970e-16 +0.0000000000e+00 -1.6875773219e+01 8.1750171775e+01 7.9989367190e+01 0.0000e+00 0.0000e+00
       66  2    3    3    0    0 -5.7408452182e+00 +9.1577763873e+00 +2.3718696362e+01 3.9741312033e+01 2.9999552543e+01 0.0000e+00 0.0000e+00
      -13  1    3    3    0    0 +5.7408452182e+00 -9.1577763873e+00 -4.0594469582e+01 4.2008859742e+01 1.0566000000e-01 0.0000e+00 1.0000e+00
       13  1    4    4    0    0 -9.3277087431e+00 +2.1839261241e+00 +1.2410636147e+01 1.5678352507e+01 1.0566000000e-01 0.0000e+00 -1.0000e+00
      -13  1    4    4    0    0 +5.9084367912e+00 -5.7179047994e+00 +3.1945347864e+00 8.8215801956e+00 1.0566000000e-01 0.0000e+00 1.0000e+00
      -14  1    4    4    0    0 -2.3215732662e+00 +1.2691755063e+01 +8.1135254286e+00 1.5241379330e+01 0.0000000000e+00 0.0000e+00 1.0000e+00
<mgrwt>
<rscale>  0 0.79989367E+02</rscale>
<asrwt>0</asrwt>
<pdfrwt beam="1">  1        2 0.49903384E-02 0.79989367E+02</pdfrwt>
<pdfrwt beam="2">  1       -1 0.75866111E-02 0.79989367E+02</pdfrwt>
<totfact> 0.13670014E+05</totfact>
</mgrwt>
</event>
<event>
 8      1 +5.0320763e-08 8.00954500e+01 7.81860800e-03 1.32878100e-01
        2 -1    0    0  501    0 +0.0000000000e+00 +0.0000000000e+00 +1.5270245325e+01 1.5270245538e+01 2.5500000000e-03 0.0000e+00 -1.0000e+00
       -1 -1    0    0    0  501 -0.0000000000e+00 -0.0000000000e+00 -1.0502911169e+02 1.0502911182e+02 5.0400000000e-03 0.0000e+00 1.0000e+00
       24  2    1    2    0    0 -1.7763568394e-15 -3.5527136788e-15 -8.9758866370e+01 1.2029935735e+02 8.0095451105e+01 0.0000e+00 0.0000e+00
       66  2    3    3    0    0 +1.3701702847e+01 +2.5885657611e+01 -2.3991509643e+01 4.8305188800e+01 2.9999913320e+01 0.0000e+00 0.0000e+00
      -13  1    3    3    0    0 -1.3701702847e+01 -2.5885657611e+01 -6.5767356726e+01 7.1994168553e+01 1.0566000000e-01 0.0000e+00 1.0000e+00
       13  1    4    4    0    0 +2.6545692014e+00 +2.1720374205e+01 -1.5180118507e+01 2.6632096335e+01 1.0566000000e-01 0.0000e+00 -1.0000e+00
      -13  1    4    4    0    0 +5.5187506344e+00 +1.0490755804e+00 +4.3208233356e+00 7.0878661437e+00 1.0566000000e-01 0.0000e+00 1.0000e+00
      -14  1    4    4    0    0 +5.5283830108e+00 +3.1162078256e+00 -1.3132214472e+01 1.4585226322e+01 0.0000000000e+00 0.0000e+00 1.0000e+00
<mgrwt>
<rscale>  0 0.80095451E+02</rscale>
<asrwt>0</asrwt>
<pdfrwt beam="1">  1        2 0.23492686E-02 0.80095451E+02</pdfrwt>
<pdfrwt beam="2">  1       -1 0.16158324E-01 0.80095451E+02</pdfrwt>
<totfact> 0.11693172E+05</totfact>
</mgrwt>
</event>
<event>
 8      1 +5.0320763e-08 8.02968000e+01 7.81860800e-03 1.32821100e-01
        4 -1    0    0  501    0 +0.0000000000e+00 +0.0000000000e+00 +3.4011914264e+01 3.4035616814e+01 1.2700000000e+00 0.0000e+00 -1.0000e+00
       -3 -1    0    0    0  501 -0.0000000000e+00 -0.0000000000e+00 -4.7363555350e+01 4.7363663039e+01 1.0100000000e-01 0.0000e+00 1.0000e+00
       24  2    1    2    0    0 +3.5527136788e-15 +8.8817841970e-16 -1.3351641086e+01 8.1399279853e+01 8.0296802183e+01 0.0000e+00 0.0000e+00
       66  2    3    3    0    0 +2.7054612576e+01 +6.7196764245e+00 -2.8289113570e+01 4.9772623988e+01 2.9998900633e+01 0.0000e+00 0.0000e+00
      -13  1    3    3    0    0 -2.7054612576e+01 -6.7196764245e+00 +1.4937472484e+01 3.1626655864e+01 1.0566000000e-01 0.0000e+00 1.0000e+00
       13  1    4    4    0    0 +7.6839327153e+00 +5.8883279106e+00 +4.5534079167e+00 1.0698594078e+01 1.0566000000e-01 0.0000e+00 -1.0000e+00
      -13  1    4    4    0    0 +1.6850443910e+01 -2.4539253724e+00 -2.6513361291e+01 3.1510771185e+01 1.0566000000e-01 0.0000e+00 1.0000e+00
       14  1    4    4    0    0 +2.5202359510e+00 +3.2852738863e+00 -6.3291601964e+00 7.5632587255e+00 0.0000000000e+00 0.0000e+00 -1.0000e+00
<mgrwt>
<rscale>  0 0.80296802E+02</rscale>
<asrwt>0</asrwt>
<pdfrwt beam="1">  1        4 0.52357352E-02 0.80296802E+02</pdfrwt>
<pdfrwt beam="2">  1       -3 0.72867206E-02 0.80296802E+02</pdfrwt>
<totfact> 0.44742858E+04</totfact>
</mgrwt>
</event>
<event>
 8      1 +5.0320763e-08 7.83788500e+01 7.81860800e-03 1.33371600e-01
       -2 -1    0    0    0  501 -0.0000000000e+00 +0.0000000000e+00 +9.4690091701e+00 9.4690095134e+00 2.5500000000e-03 0.0000e+00 1.0000e+00
        1 -1    0    0  501    0 +0.0000000000e+00 -0.0000000000e+00 -1.6219340798e+02 1.6219340806e+02 5.0400000000e-03 0.0000e+00 -1.0000e+00
      -24  2    1    2    0    0 +0.0000000000e+00 +3.5527136788e-15 -1.5272439881e+02 1.7166241757e+02 7.8378846731e+01 0.0000e+00 0.0000e+00
       66  2    3    3    0    0 +1.2873670261e+01 +2.6569286292e+01 -5.3115946909e+01 6.7770583368e+01 2.9998163176e+01 0.0000e+00 0.0000e+00
       13  1    3    3    0    0 -1.2873670261e+01 -2.6569286292e+01 -9.9608451903e+01 1.0389183421e+02 1.0566000000e-01 0.0000e+00 -1.0000e+00
       13  1    4    4    0    0 +3.8191392922e+00 +2.9747451926e+00 -2.7732361850e+01 2.8151909201e+01 1.0566000000e-01 0.0000e+00 -1.0000e+00
      -13  1    4    4    0    0 +4.8713356099e+00 +2.7302487509e+00 -1.4868520503e+01 1.5882954223e+01 1.0566000000e-01 0.0000e+00 1.0000e+00
      -14  1    4    4    0    0 +4.1831953589e+00 +2.0864292349e+01 -1.0515064556e+01 2.3735719944e+01 0.0000000000e+00 0.0000e+00 1.0000e+00
<mgrwt>
<rscale>  0 0.78378847E+02</rscale>
<asrwt>0</asrwt>
<pdfrwt beam="1">  1        1 0.24952830E-01 0.78378847E+02</pdfrwt>
<pdfrwt beam="2">  1       -2 0.14567708E-02 0.78378847E+02</pdfrwt>
<totfact> 0.16917512E+05</totfact>
</mgrwt>
</event>
<event>
 8      1 +5.0320763e-08 8.00723700e+01 7.81860800e-03 1.32884600e-01
       -3 -1    0    0    0  501 -0.0000000000e+00 +0.0000000000e+00 +3.4032779512e+00 3.4047763235e+00 1.0100000000e-01 0.0000e+00 1.0000e+00
        2 -1    0    0  501    0 +0.0000000000e+00 -0.0000000000e+00 -4.7088158037e+02 4.7088158038e+02 2.5500000000e-03 0.0000e+00 -1.0000e+00
       24  2    1    2    0    0 +1.7763568394e-15 +1.7763568394e-15 -4.6747830242e+02 4.7428635670e+02 8.0072373012e+01 0.0000e+00 0.0000e+00
       66  2    3    3    0    0 +1.1882764159e+01 +1.4183559099e+01 -4.3843528370e+02 4.3984972602e+02 2.9998500752e+01 0.0000e+00 0.0000e+00
      -13  1    3    3    0    0 -1.1882764159e+01 -1.4183559099e+01 -2.9043018715e+01 3.4436630685e+01 1.0566000000e-01 0.0000e+00 1.0000e+00
       13  1    4    4    0    0 -7.8785968056e+00 +9.7548111346e+00 -1.1558406714e+02 1.1626227406e+02 1.0566000000e-01 0.0000e+00 -1.0000e+00
      -13  1    4    4    0    0 +4.6158521074e+00 +6.7253095339e-01 -3.4466660292e+01 3.4781032536e+01 1.0566000000e-01 0.0000e+00 1.0000e+00
       14  1    4    4    0    0 +1.5145508857e+01 +3.7562170112e+00 -2.8838455627e+02 2.8880641942e+02 0.0000000000e+00 0.0000e+00 -1.0000e+00
<mgrwt>
<rscale>  0 0.80072373E+02</rscale>
<asrwt>0</asrwt>
<pdfrwt beam="1">  1        2 0.72443268E-01 0.80072373E+02</pdfrwt>
<pdfrwt beam="2">  1       -3 0.52369769E-03 0.80072373E+02</pdfrwt>
<totfact> 0.24704470E+05</totfact>
</mgrwt>
</event>
<event>
 8      1 +5.0320763e-08 7.98286300e+01 7.81860800e-03 1.32953800e-01
        2 -1    0    0  501    0 +0.0000000000e+00 +0.0000000000e+00 +5.5992849823e+01 5.5992849881e+01 2.5500000000e-03 0.0000e+00 -1.0000e+00
       -1 -1    0    0    0  501 -0.0000000000e+00 -0.0000000000e+00 -2.8452786942e+01 2.8452787389e+01 5.0400000000e-03 0.0000e+00 1.0000e+00
       24  2    1    2    0    0 +0.0000000000e+00 +1.7763568394e-15 +2.7540062880e+01 8.4445637270e+01 7.9828632648e+01 0.0000e+00 0.0000e+00
       66  2    3    3    0    0 +1.1009540176e+01 -9.9134879768e+00 +4.8412786011e+01 5.8849368915e+01 2.9999385887e+01 0.0000e+00 0.0000e+00
      -13  1    3    3    0    0 -1.1009540176e+01 +9.9134879768e+00 -2.0872723131e+01 2.5596268355e+01 1.0566000000e-01 0.0000e+00 1.0000e+00
       13  1    4    4    0    0 +1.2637778414e+01 +2.8645222605e+00 +2.5750934570e+01 2.8827776991e+01 1.0566000000e-01 0.0000e+00 -1.0000e+00
      -13  1    4    4    0    0 -5.4306607652e-01 +2.2464890552e+00 -5.2385509599e-01 2.3721766452e+00 1.0566000000e-01 0.0000e+00 1.0000e+00
       14  1    4    4    0    0 -1.0851721613e+00 -1.5024499292e+01 +2.3185706537e+01 2.7649415278e+01 0.0000000000e+00 0.0000e+00 -1.0000e+00
<mgrwt>
<rscale>  0 0.79828633E+02</rscale>
<asrwt>0</asrwt>
<pdfrwt beam="1">  1        2 0.86142846E-02 0.79828633E+02</pdfrwt>
<pdfrwt beam="2">  1       -1 0.43773519E-02 0.79828633E+02</pdfrwt>
<totfact> 0.15412394E+05</totfact>
</mgrwt>
</event>
<event>
 8      1 +5.0320763e-08 8.75663900e+01 7.81860800e-03 1.30885400e-01
        2 -1    0    0  501    0 +0.0000000000e+00 +0.0000000000e+00 +1.9832907565e+01 1.9832907729e+01 2.5500000000e-03 0.0000e+00 -1.0000e+00
       -1 -1    0    0    0  501 -0.0000000000e+00 -0.0000000000e+00 -9.6655926750e+01 9.6655926882e+01 5.0400000000e-03 0.0000e+00 1.0000e+00
       24  2    1    2    0    0 +0.0000000000e+00 -1.7763568394e-15 -7.6823019185e+01 1.1648883461e+02 8.7566388027e+01 0.0000e+00 0.0000e+00
       66  2    3    3    0    0 +3.3388566394e+01 +1.4092734971e+01 -2.5072162296e+01 5.3310009854e+01 2.9999038045e+01 0.0000e+00 0.0000e+00
      -13  1    3    3    0    0 -3.3388566394e+01 -1.4092734971e+01 -5.1750856889e+01 6.3178824757e+01 1.0566000000e-01 0.0000e+00 1.0000e+00
       13  1    4    4    0    0 +3.1263831962e+01 +1.5343762093e+01 -1.2329780295e+01 3.6944456557e+01 1.0566000000e-01 0.0000e+00 -1.0000e+00
      -13  1    4    4    0    0 -2.4653497665e+00 +1.0938328864e+00 -1.0325933663e+01 1.0672885735e+01 1.0566000000e-01 0.0000e+00 1.0000e+00
       14  1    4    4    0    0 +4.5900841982e+00 -2.3448600084e+00 -2.4164483373e+00 5.6926675621e+00 0.0000000000e+00 0.0000e+00 -1.0000e+00
<mgrwt>
<rscale>  0 0.87566388E+02</rscale>
<asrwt>0</asrwt>
<pdfrwt beam="1">  1        2 0.30512166E-02 0.87566388E+02</pdfrwt>
<pdfrwt beam="2">  1       -1 0.14870142E-01 0.87566388E+02</pdfrwt>
<totfact> 0.95355661E+04</totfact>
</mgrwt>
</event>
<event>
 8      1 +5.0320763e-08 8.13013600e+01 7.81860800e-03 1.32539800e-01
       -1 -1    0    0    0  501 -0.0000000000e+00 +0.0000000000e+00 +1.9143036955e+00 1.9143103301e+00 5.0400000000e-03 0.0000e+00 1.0000e+00
        2 -1    0    0  501    0 +0.0000000000e+00 -0.0000000000e+00 -8.6322503232e+02 8.6322503232e+02 2.5500000000e-03 0.0000e+00 -1.0000e+00
       24  2    1    2    0    0 -2.2204460493e-16 +0.0000000000e+00 -8.6131072862e+02 8.6513934265e+02 8.1301358930e+01 0.0000e+00 0.0000e+00
       66  2    3    3    0    0 -1.1350667440e+00 +1.1600113481e+01 -8.4177825997e+02 8.4239336487e+02 3.0001520285e+01 0.0000e+00 0.0000e+00
      -13  1    3    3    0    0 +1.1350667440e+00 -1.1600113481e+01 -1.9532468652e+01 2.2745977776e+01 1.0566000000e-01 0.0000e+00 1.0000e+00
       13  1    4    4    0    0 -8.6591147062e+00 +8.8808503996e+00 -6.7672463132e+02 6.7683830238e+02 1.0566000000e-01 0.0000e+00 -1.0000e+00
      -13  1    4    4    0    0 -6.9307438281e-01 -1.0214844951e+00 -2.9421586413e+00 3.1923728135e+00 1.0566000000e-01 0.0000e+00 1.0000e+00
       14  1    4    4    0    0 +8.2171223451e+00 +3.7407475767e+00 -1.6211147001e+02 1.6236268968e+02 0.0000000000e+00 0.0000e+00 -1.0000e+00
<mgrwt>
<rscale>  0 0.81301359E+02</rscale>
<asrwt>0</asrwt>
<pdfrwt beam="1">  1        2 0.13280354E+00 0.81301359E+02</pdfrwt>
<pdfrwt beam="2">  1       -1 0.29450946E-03 0.81301359E+02</pdfrwt>
<totfact> 0.33341171E+05</totfact>
</mgrwt>
</event>
<event>
 8      1 +5.0320763e-08 7.97028400e+01 7.81860800e-03 1.32989700e-01
        4 -1    0    0  501    0 +0.0000000000e+00 +0.0000000000e+00 +3.4913509247e+01 3.4936600120e+01 1.2700000000e+00 0.0000e+00 -1.0000e+00
       -3 -1    0    0    0  501 -0.0000000000e+00 -0.0000000000e+00 -4.5461003150e+01 4.5461115345e+01 1.0100000000e-01 0.0000e+00 1.0000e+00
       24  2    1    2    0    0 +0.0000000000e+00 +0.0000000000e+00 -1.0547493903e+01 8.0397715465e+01 7.9702842010e+01 0.0000e+00 0.0000e+00
       66  2    3    3    0    0 -1.0675973725e+01 -3.0770632642e+01 +4.5204088225e+00 4.4510933710e+01 2.9999681259e+01 0.0000e+00 0.0000e+00
      -13  1    3    3    0    0 +1.0675973725e+01 +3.0770632642e+01 -1.5067902725e+01 3.5886781755e+01 1.0566000000e-01 0.0000e+00 1.0000e+00
       13  1    4    4    0    0 -7.3715673246e+00 -4.2551651634e+00 +5.2548058293e+00 1.0003528564e+01 1.0566000000e-01 0.0000e+00 -1.0000e+00
      -13  1    4    4    0    0 -7.2738355476e-01 -8.9259932666e-01 -7.7347933107e+00 7.8207424192e+00 1.0566000000e-01 0.0000e+00 1.0000e+00
       14  1    4    4    0    0 -2.5770228461e+00 -2.5622868152e+01 +7.0003963040e+00 2.6686662727e+01 0.0000000000e+00 0.0000e+00 -1.0000e+00
<mgrwt>
<rscale>  0 0.79702842E+02</rscale>
<asrwt>0</asrwt>
<pdfrwt beam="1">  1        4 0.53744499E-02 0.79702842E+02</pdfrwt>
<pdfrwt beam="2">  1       -3 0.69940204E-02 0.79702842E+02</pdfrwt>
<totfact> 0.45706592E+04</totfact>
</mgrwt>
</event>
<event>
 8      1 +5.0320763e-08 7.88037200e+01 7.81860800e-03 1.33248100e-01
       -2 -1    0    0    0  501 -0.0000000000e+00 +0.0000000000e+00 +8.3781634421e+01 8.3781634459e+01 2.5500000000e-03 0.0000e+00 1.0000e+00
        1 -1    0    0  501    0 +0.0000000000e+00 -0.0000000000e+00 -1.8530390657e+01 1.8530391342e+01 5.0400000000e-03 0.0000e+00 -1.0000e+00
      -24  2    1    2    0    0 +3.5527136788e-15 +1.7763568394e-15 +6.5251243764e+01 1.0231202580e+02 7.8803716986e+01 0.0000e+00 0.0000e+00
       66  2    3    3    0    0 +1.8446681091e+01 -6.2319497027e+00 +7.3051727199e+01 8.1336422205e+01 2.9999024817e+01 0.0000e+00 0.0000e+00
       13  1    3    3    0    0 -1.8446681091e+01 +6.2319497027e+00 -7.8004834355e+00 2.0975603596e+01 1.0566000000e-01 0.0000e+00 -1.0000e+00
       13  1    4    4    0    0 -2.5100828497e+00 +2.7775593922e+00 +3.9570358156e+00 5.4483620081e+00 1.0566000000e-01 0.0000e+00 -1.0000e+00
      -13  1    4    4    0    0 +1.6369103834e+01 -1.0331050531e+00 +1.9656587304e+01 2.5600926836e+01 1.0566000000e-01 0.0000e+00 1.0000e+00
      -14  1    4    4    0    0 +4.5876601061e+00 -7.9764040418e+00 +4.9438104079e+01 5.0287133361e+01 0.0000000000e+00 0.0000e+00 1.0000e+00
<mgrwt>
<rscale>  0 0.78803717E+02</rscale>
<asrwt>0</asrwt>
<pdfrwt beam="1">  1        1 0.28508294E-02 0.78803717E+02</pdfrwt>
<pdfrwt beam="2">  1       -2 0.12889482E-01 0.78803717E+02</pdfrwt>
<totfact> 0.11496918E+05</totfact>
</mgrwt>
</event>
<event>
 8      1 +5.0320763e-08 7.71459500e+01 7.81860800e-03 1.33735200e-01
        2 -1    0    0  501    0 +0.0000000000e+00 +0.0000000000e+00 +2.1865513005e+01 2.1865513154e+01 2.5500000000e-03 0.0000e+00 -1.0000e+00
       -1 -1    0    0    0  501 -0.0000000000e+00 -0.0000000000e+00 -6.8046628813e+01 6.8046629000e+01 5.0400000000e-03 0.0000e+00 1.0000e+00
       24  2    1    2    0    0 +0.0000000000e+00 +1.7763568394e-15 -4.6181115808e+01 8.9912142154e+01 7.7145951608e+01 0.0000e+00 0.0000e+00
       66  2    3    3    0    0 -1.7501632708e+01 +1.4087508050e+01 +1.1721854359e+00 3.7499249339e+01 3.0000910849e+01 0.0000e+00 0.0000e+00
      -13  1    3    3    0    0 +1.7501632708e+01 -1.4087508050e+01 -4.7353301244e+01 5.2412892815e+01 1.0566000000e-01 0.0000e+00 1.0000e+00
       13  1    4    4    0    0 -9.3324396320e+00 -3.1789157208e+00 +3.4569227900e+00 1.0448033971e+01 1.0566000000e-01 0.0000e+00 -1.0000e+00
      -13  1    4    4    0    0 -1.7939407627e+00 +1.6918157472e+01 +4.6375231144e+00 1.7634059669e+01 1.0566000000e-01 0.0000e+00 1.0000e+00
       14  1    4    4    0    0 -6.3752523135e+00 +3.4826629877e-01 -6.9222604685e+00 9.4171556995e+00 0.0000000000e+00 0.0000e+00 -1.0000e+00
<mgrwt>
<rscale>  0 0.77145952E+02</rscale>
<asrwt>0</asrwt>
<pdfrwt beam="1">  1        2 0.33639251E-02 0.77145952E+02</pdfrwt>
<pdfrwt beam="2">  1       -1 0.10468712E-01 0.77145952E+02</pdfrwt>
<totfact> 0.14016482E+05</totfact>
</mgrwt>
</event>
<event>
 8      1 +5.0320763e-08 6.79034700e+01 7.81860800e-03 1.36737100e-01
        3 -1    0    0  501    0 +0.0000000000e+00 +0.0000000000e+00 +6.8618252456e+00 6.8625685206e+00 1.0100000000e-01 0.0000e+00 -1.0000e+00
       -4 -1    0    0    0  501 -0.0000000000e+00 -0.0000000000e+00 -1.6791967784e+02 1.6792448037e+02 1.2700000000e+00 0.0000e+00 1.0000e+00
      -24  2    1    2    0    0 -1.7763568394e-15 +0.0000000000e+00 -1.6105785260e+02 1.7478704889e+02 6.7903465125e+01 0.0000e+00 0.0000e+00
       66  2    3    3    0    0 -1.5785612543e+01 -2.2290816703e+01 -9.4302482119e+01 1.0265968429e+02 2.9999776190e+01 0.0000e+00 0.0000e+00
       13  1    3    3    0    0 +1.5785612543e+01 +2.2290816703e+01 -6.6755370479e+01 7.2127364602e+01 1.0566000000e-01 0.0000e+00 -1.0000e+00
       13  1    4    4    0    0 -7.7769117371e+00 -2.2276106009e+01 -4.2320925379e+01 4.8453866142e+01 1.0566000000e-01 0.0000e+00 -1.0000e+00
      -13  1    4    4    0    0 +8.2713553938e-01 +4.9855120216e+00 -2.1152442164e+01 2.1748021907e+01 1.0566000000e-01 0.0000e+00 1.0000e+00
      -14  1    4    4    0    0 -8.8358363455e+00 -5.0002227160e+00 -3.0829114576e+01 3.2457796239e+01 0.0000000000e+00 0.0000e+00 1.0000e+00
<mgrwt>
<rscale>  0 0.67903465E+02</rscale>
<asrwt>0</asrwt>
<pdfrwt beam="1">  1        3 0.10557252E-02 0.67903465E+02</pdfrwt>
<pdfrwt beam="2">  1       -4 0.25843200E-01 0.67903465E+02</pdfrwt>
<totfact> 0.53990549E+04</totfact>
</mgrwt>
</event>
<event>
 7      1 +5.0320763e-08 1.12147900e+02 7.81860800e-03 1.25664300e-01
        2 -1    0    0  501    0 +0.0000000000e+00 +0.0000000000e+00 +1.2881904397e+02 1.2881904400e+02 2.5500000000e-03 0.0000e+00 -1.0000e+00
       -1 -1    0    0    0  501 -0.0000000000e+00 -0.0000000000e+00 -2.4408557675e+01 2.4408558195e+01 5.0400000000e-03 0.0000e+00 1.0000e+00
       66  2    1    2    0    0 -2.7676906574e+01 +2.6877281372e+01 +1.0370198450e+02 1.1464117258e+02 3.0001624119e+01 0.0000e+00 0.0000e+00
      -13  1    1    2    0    0 +2.7676906574e+01 -2.6877281372e+01 +7.0850179793e-01 3.8586429613e+01 1.0566000000e-01 0.0000e+00 1.0000e+00
       13  1    3    3    0    0 -1.7885538551e+01 +6.6318316346e+00 +4.4578878487e+01 4.8488774487e+01 1.0566000000e-01 0.0000e+00 -1.0000e+00
      -13  1    3    3    0    0 +1.0633595840e+00 +1.8649012295e+01 +3.5955758395e+01 4.0518441715e+01 1.0566000000e-01 0.0000e+00 1.0000e+00
      -14  1    3    3    0    0 -1.0854727606e+01 +1.5964374425e+00 +2.3167347617e+01 2.5633956376e+01 0.0000000000e+00 0.0000e+00 1.0000e+00
<mgrwt>
<rscale>  0 0.11214789E+03</rscale>
<asrwt>0</asrwt>
<pdfrwt beam="1">  1        2 0.19818315E-01 0.11214789E+03</pdfrwt>
<pdfrwt beam="2">  1       -1 0.37551627E-02 0.11214789E+03</pdfrwt>
<totfact> 0.76218814E+04</totfact>
</mgrwt>
</event>
<event>
 8      1 +5.0320763e-08 8.08101200e+01 7.81860800e-03 1.32676800e-01
       -1 -1    0    0    0  501 -0.0000000000e+00 +0.0000000000e+00 +5.7635020802e+01 5.7635021022e+01 5.0400000000e-03 0.0000e+00 1.0000e+00
        4 -1    0    0  501    0 +0.0000000000e+00 -0.0000000000e+00 -2.8304750149e+01 2.8333227507e+01 1.2700000000e+00 0.0000e+00 -1.0000e+00
       24  2    1    2    0    0 +0.0000000000e+00 -6.6613381478e-16 +2.9330270653e+01 8.5968248530e+01 8.0810116809e+01 0.0000e+00 0.0000e+00
       66  2    3    3    0    0 +2.9726131851e+01 +1.9626150604e+00 -2.5247042998e+00 4.2353510585e+01 2.9999182562e+01 0.0000e+00 0.0000e+00
      -13  1    3    3    0    0 -2.9726131851e+01 -1.9626150604e+00 +3.1854974953e+01 4.3614737945e+01 1.0566000000e-01 0.0000e+00 1.0000e+00
       13  1    4    4    0    0 +1.1234406561e+01 -1.0469154824e+01 -4.7464022451e+00 1.6073412575e+01 1.0566000000e-01 0.0000e+00 -1.0000e+00
      -13  1    4    4    0    0 +5.3115438186e+00 +1.1851709011e+01 +8.4191041260e-01 1.3015201935e+01 1.0566000000e-01 0.0000e+00 1.0000e+00
       14  1    4    4    0    0 +1.3180181471e+01 +5.8006087293e-01 +1.3797875327e+00 1.3264896075e+01 0.0000000000e+00 0.0000e+00 -1.0000e+00
<mgrwt>
<rscale>  0 0.80810117E+02</rscale>
<asrwt>0</asrwt>
<pdfrwt beam="1">  1        4 0.43578436E-02 0.80810117E+02</pdfrwt>
<pdfrwt beam="2">  1       -1 0.88669268E-02 0.80810117E+02</pdfrwt>
<totfact> 0.67441908E+04</totfact>
</mgrwt>
</event>
<event>
 8      1 +5.0320763e-08 7.84951300e+01 7.81860800e-03 1.33337700e-01
        1 -1    0    0  501    0 +0.0000000000e+00 +0.0000000000e+00 +1.0817295469e+02 1.0817295481e+02 5.0400000000e-03 0.0000e+00 -1.0000e+00
       -2 -1    0    0    0  501 -0.0000000000e+00 -0.0000000000e+00 -1.4239893616e+01 1.4239893844e+01 2.5500000000e-03 0.0000e+00 1.0000e+00
      -24  2    1    2    0    0 +1.7763568394e-15 +0.0000000000e+00 +9.3933061077e+01 1.2241284865e+02 7.8495130757e+01 0.0000e+00 0.0000e+00
       66  2    3    3    0    0 -9.2261561068e+00 +1.2667614002e+01 +7.6247490869e+00 3.4693259716e+01 2.9998251117e+01 0.0000e+00 0.0000e+00
       13  1    3    3    0    0 +9.2261561068e+00 -1.2667614002e+01 +8.6308311990e+01 8.7719588939e+01 1.0566000000e-01 0.0000e+00 -1.0000e+00
       13  1    4    4    0    0 -6.0644941293e+00 -7.4989675467e-01 +3.2157098832e+00 6.9059675843e+00 1.0566000000e-01 0.0000e+00 -1.0000e+00
      -13  1    4    4    0    0 +8.4672280989e+00 +2.6806543898e+00 +7.5425869767e+00 1.1652538006e+01 1.0566000000e-01 0.0000e+00 1.0000e+00
       14  1    4    4    0    0 -1.1628890076e+01 +1.0736856367e+01 -3.1335477729e+00 1.6134754126e+01 0.0000000000e+00 0.0000e+00 -1.0000e+00
<mgrwt>
<rscale>  0 0.78495131E+02</rscale>
<asrwt>0</asrwt>
<pdfrwt beam="1">  1        1 0.16641993E-01 0.78495131E+02</pdfrwt>
<pdfrwt beam="2">  1       -2 0.21907529E-02 0.78495131E+02</pdfrwt>
<totfact> 0.15677884E+05</totfact>
</mgrwt>
</event>
<event>
 8      1 +5.0320763e-08 8.26494600e+01 7.81860800e-03 1.32169600e-01
        3 -1    0    0  501    0 +0.0000000000e+00 +0.0000000000e+00 +2.8708275494e+01 2.8708453160e+01 1.0100000000e-01 0.0000e+00 -1.0000e+00
       -4 -1    0    0    0  501 -0.0000000000e+00 -0.0000000000e+00 -5.9464647836e+01 5.9478208129e+01 1.2700000000e+00 0.0000e+00 1.0000e+00
      -24  2    1    2    0    0 +0.0000000000e+00 +0.0000000000e+00 -3.0756372342e+01 8.8186661289e+01 8.2649457286e+01 0.0000e+00 0.0000e+00
       66  2    3    3    0    0 +4.7946373221e+00 +2.8293533283e+01 -4.0384353349e+01 5.7917506114e+01 3.0000482436e+01 0.0000e+00 0.0000e+00
       13  1    3    3    0    0 -4.7946373221e+00 -2.8293533283e+01 +9.6279810073e+00 3.0269155175e+01 1.0566000000e-01 0.0000e+00 -1.0000e+00
       13  1    4    4    0    0 +5.1980335590e-01 -2.8503883651e+00 -2.0247662362e+01 2.0454190390e+01 1.0566000000e-01 0.0000e+00 -1.0000e+00
      -13  1    4    4    0    0 +2.5050143809e+00 +8.4670946900e+00 -6.1547257168e+00 1.0763763386e+01 1.0566000000e-01 0.0000e+00 1.0000e+00
       14  1    4    4    0    0 +1.7698195853e+00 +2.2676826958e+01 -1.3981965270e+01 2.6699552338e+01 0.0000000000e+00 0.0000e+00 -1.0000e+00
<mgrwt>
<rscale>  0 0.82649457E+02</rscale>
<asrwt>0</asrwt>
<pdfrwt beam="1">  1        3 0.44166783E-02 0.82649457E+02</pdfrwt>
<pdfrwt beam="2">  1       -4 0.91516108E-02 0.82649457E+02</pdfrwt>
<totfact> 0.40130439E+04</totfact>
</mgrwt>
</event>
<event>
 8      1 +5.0320763e-08 9.26044000e+01 7.81860800e-03 1.29666500e-01
        1 -1    0    0  501    0 +0.0000000000e+00 +0.0000000000e+00 +1.2710252360e+01 1.2710253360e+01 5.0400000000e-03 0.0000e+00 -1.0000e+00
       -2 -1    0    0    0  501 -0.0000000000e+00 -0.0000000000e+00 -1.6867437235e+02 1.6867437237e+02 2.5500000000e-03 0.0000e+00 1.0000e+00
      -24  2    1    2    0    0 +0.0000000000e+00 +0.0000000000e+00 -1.5596411999e+02 1.8138462573e+02 9.2604404468e+01 0.0000e+00 0.0000e+00
       66  2    3    3    0    0 +3.9555043875e+01 -2.5220153599e+00 -1.0987651368e+02 1.2059777948e+02 3.0000234999e+01 0.0000e+00 0.0000e+00
       13  1    3    3    0    0 -3.9555043875e+01 +2.5220153599e+00 -4.6087606313e+01 6.0786846251e+01 1.0566000000e-01 0.0000e+00 -1.0000e+00
       13  1    4    4    0    0 +1.4351084888e+01 -1.1140034254e+01 -2.6101816444e+01 3.1802043745e+01 1.0566000000e-01 0.0000e+00 -1.0000e+00
      -13  1    4    4    0    0 +8.2561616883e+00 +1.2528143359e+00 -4.5899440325e+01 4.6653012076e+01 1.0566000000e-01 0.0000e+00 1.0000e+00
      -14  1    4    4    0    0 +1.6947797299e+01 +7.3652045584e+00 -3.7875256912e+01 4.2142723661e+01 0.0000000000e+00 0.0000e+00 1.0000e+00
<mgrwt>
<rscale>  0 0.92604404E+02</rscale>
<asrwt>0</asrwt>
<pdfrwt beam="1">  1        1 0.19554237E-02 0.92604404E+02</pdfrwt>
<pdfrwt beam="2">  1       -2 0.25949902E-01 0.92604404E+02</pdfrwt>
<totfact> 0.62176112E+04</totfact>
</mgrwt>
</event>
<event>
 8      1 +5.0320763e-08 8.03870000e+01 7.81860800e-03 1.32795700e-01
        4 -1    0    0  501    0 +0.0000000000e+00 +0.0000000000e+00 +9.7714660042e+00 9.8536514994e+00 1.2700000000e+00 0.0000e+00 -1.0000e+00
       -3 -1    0    0    0  501 -0.0000000000e+00 -0.0000000000e+00 -1.6459635650e+02 1.6459638749e+02 1.0100000000e-01 0.0000e+00 1.0000e+00
       24  2    1    2    0    0 +0.0000000000e+00 +0.0000000000e+00 -1.5482489050e+02 1.7445003899e+02 8.0386997615e+01 0.0000e+00 0.0000e+00
       66  2    3    3    0    0 -1.6920666192e+01 +2.4013118506e+01 -4.8535352611e+01 6.4175763507e+01 2.9998489362e+01 0.0000e+00 0.0000e+00
      -13  1    3    3    0    0 +1.6920666192e+01 -2.4013118506e+01 -1.0628953788e+02 1.1027427548e+02 1.0566000000e-01 0.0000e+00 1.0000e+00
       13  1    4    4    0    0 -3.5351903606e+00 +2.2147244918e+01 -2.5855230988e+01 3.4227213761e+01 1.0566000000e-01 0.0000e+00 -1.0000e+00
      -13  1    4    4    0    0 -5.0584166595e+00 -3.2773690990e+00 -1.8222745672e+01 1.9193966531e+01 1.0566000000e-01 0.0000e+00 1.0000e+00
      -14  1    4    4    0    0 -8.3270591718e+00 +5.1432426867e+00 -4.4573759500e+00 1.0754583216e+01 0.0000000000e+00 0.0000e+00 1.0000e+00
<mgrwt>
<rscale>  0 0.80386998E+02</rscale>
<asrwt>0</asrwt>
<pdfrwt beam="1">  1        4 0.15100014E-02 0.80386998E+02</pdfrwt>
<pdfrwt beam="2">  1       -3 0.25322557E-01 0.80386998E+02</pdfrwt>
<totfact> 0.37770216E+04</totfact>
</mgrwt>
</event>
<event>
 8      1 +5.0320763e-08 7.89116500e+01 7.81860800e-03 1.33216900e-01
       -2 -1    0    0    0  501 -0.0000000000e+00 +0.0000000000e+00 +1.6019727058e+01 1.6019727261e+01 2.5500000000e-03 0.0000e+00 1.0000e+00
        1 -1    0    0  501    0 +0.0000000000e+00 -0.0000000000e+00 -9.7177811932e+01 9.7177812062e+01 5.0400000000e-03 0.0000e+00 -1.0000e+00
      -24  2    1    2    0    0 +0.0000000000e+00 +0.0000000000e+00 -8.1158084874e+01 1.1319753932e+02 7.8911647864e+01 0.0000e+00 0.0000e+00
       66  2    3    3    0    0 -2.1212678245e+00 -1.9702163006e+01 -7.2479331494e+00 3.6676975445e+01 2.9999883143e+01 0.0000e+00 0.0000e+00
       13  1    3    3    0    0 +2.1212678245e+00 +1.9702163006e+01 -7.3910151724e+01 7.6520563878e+01 1.0566000000e-01 0.0000e+00 -1.0000e+00
       13  1    4    4    0    0 +1.3522891064e+00 -4.7893407871e-01 +1.5639010151e+00 2.1248562539e+00 1.0566000000e-01 0.0000e+00 -1.0000e+00
      -13  1    4    4    0    0 -9.7668988080e+00 -1.1803322438e+01 +6.3112465099e+00 1.6569662925e+01 1.0566000000e-01 0.0000e+00 1.0000e+00
       14  1    4    4    0    0 +6.2933418771e+00 -7.4199064895e+00 -1.5123080674e+01 1.7982456267e+01 0.0000000000e+00 0.0000e+00 -1.0000e+00
<mgrwt>
<rscale>  0 0.78911648E+02</rscale>
<asrwt>0</asrwt>
<pdfrwt beam="1">  1        1 0.14950432E-01 0.78911648E+02</pdfrwt>
<pdfrwt beam="2">  1       -2 0.24645735E-02 0.78911648E+02</pdfrwt>
<totfact> 0.15180436E+05</totfact>
</mgrwt>
</event>
<event>
 8      1 +5.0320763e-08 7.87831300e+01 7.81860800e-03 1.33254100e-01
        4 -1    0    0  501    0 +0.0000000000e+00 +0.0000000000e+00 +1.6812655893e+00 2.1070249125e+00 1.2700000000e+00 0.0000e+00 -1.0000e+00
       -3 -1    0    0    0  501 -0.0000000000e+00 -0.0000000000e+00 -8.1899190086e+02 8.1899190709e+02 1.0100000000e-01 0.0000e+00 1.0000e+00
       24  2    1    2    0    0 +0.0000000000e+00 +0.0000000000e+00 -8.1731063527e+02 8.2109893200e+02 7.8783130208e+01 0.0000e+00 0.0000e+00
       66  2    3    3    0    0 -2.1153249634e+01 +1.5331961903e+01 -6.8943908551e+02 6.9058581607e+02 2.9999795191e+01 0.0000e+00 0.0000e+00
      -13  1    3    3    0    0 +2.1153249634e+01 -1.5331961903e+01 -1.2787154976e+02 1.3051311593e+02 1.0566000000e-01 0.0000e+00 1.0000e+00
       13  1    4    4    0    0 -5.5688905374e+00 -2.9677436459e+00 -1.3359602665e+02 1.3374501690e+02 1.0566000000e-01 0.0000e+00 -1.0000e+00
      -13  1    4    4    0    0 -1.0214913728e+01 +2.3154883441e+01 -4.7521035136e+02 4.7588379074e+02 1.0566000000e-01 0.0000e+00 1.0000e+00
      -14  1    4    4    0    0 -5.3694453679e+00 -4.8551778923e+00 -8.0632707498e+01 8.0957008433e+01 0.0000000000e+00 0.0000e+00 1.0000e+00
<mgrwt>
<rscale>  0 0.78783130E+02</rscale>
<asrwt>0</asrwt>
<pdfrwt beam="1">  1        4 0.29148336E-03 0.78783130E+02</pdfrwt>
<pdfrwt beam="2">  1       -3 0.12599868E+00 0.78783130E+02</pdfrwt>
<totfact> 0.16288768E+04</totfact>
</mgrwt>
</event>
<event>
 8      1 +5.0320763e-08 8.04230800e+01 7.81860800e-03 1.32785500e-01
        1 -1    0    0  501    0 +0.0000000000e+00 +0.0000000000e+00 +7.9123532313e+01 7.9123532474e+01 5.0400000000e-03 0.0000e+00 -1.0000e+00
       -2 -1    0    0    0  501 -0.0000000000e+00 -0.0000000000e+00 -2.0435990750e+01 2.0435990909e+01 2.5500000000e-03 0.0000e+00 1.0000e+00
      -24  2    1    2    0    0 +0.0000000000e+00 +1.7763568394e-15 +5.8687541563e+01 9.9559523383e+01 8.0423076050e+01 0.0000e+00 0.0000e+00
       66  2    3    3    0    0 +3.2579761073e+01 +1.1668683929e+01 +3.2466739419e+01 5.6141317002e+01 3.0002654716e+01 0.0000e+00 0.0000e+00
       13  1    3    3    0    0 -3.2579761073e+01 -1.1668683929e+01 +2.6220802144e+01 4.3418206381e+01 1.0566000000e-01 0.0000e+00 -1.0000e+00
       13  1    4    4    0    0 -1.6315642418e-01 -3.4553755451e+00 +4.9522872662e+00 6.0417343023e+00 1.0566000000e-01 0.0000e+00 1.0000e+00
      -13  1    4    4    0    0 +5.2055284206e+00 -2.6961228971e+00 +1.2941112162e+01 1.4207397820e+01 1.0566000000e-01 0.0000e+00 -1.0000e+00
      -14  1    4    4    0    0 +2.7537389077e+01 +1.7820182371e+01 +1.4573339991e+01 3.5892184879e+01 0.0000000000e+00 0.0000e+00 1.0000e+00
<mgrwt>
<rscale>  0 0.80423076E+02</rscale>
<asrwt>0</asrwt>
<pdfrwt beam="1">  1        1 0.12172851E-01 0.80423076E+02</pdfrwt>
<pdfrwt beam="2">  1       -2 0.31439986E-02 0.80423076E+02</pdfrwt>
<totfact> 0.13942376E+05</totfact>
</mgrwt>
</event>
<event>
 8      1 +5.0320763e-08 7.83843000e+01 7.81860800e-03 1.33370000e-01
        3 -1    0    0  501    0 +0.0000000000e+00 +0.0000000000e+00 +1.9429999721e+01 1.9430262226e+01 1.0100000000e-01 0.0000e+00 -1.0000e+00
       -4 -1    0    0    0  501 -0.0000000000e+00 -0.0000000000e+00 -7.9027759542e+01 7.9037963525e+01 1.2700000000e+00 0.0000e+00 1.0000e+00
      -24  2    1    2    0    0 -8.8817841970e-16 +0.0000000000e+00 -5.9597759820e+01 9.8468225751e+01 7.8384300131e+01 0.0000e+00 0.0000e+00
       66  2    3    3    0    0 +5.6541728756e+00 -2.9643025691e+01 -5.2293797389e+01 6.7419269661e+01 3.0000633881e+01 0.0000e+00 0.0000e+00
       13  1    3    3    0    0 -5.6541728756e+00 +2.9643025691e+01 -7.3039624313e+00 3.1048956090e+01 1.0566000000e-01 0.0000e+00 -1.0000e+00
       13  1    4    4    0    0 +8.6331489728e+00 -3.3736337300e+00 -6.9571425694e+00 1.1589894844e+01 1.0566000000e-01 0.0000e+00 -1.0000e+00
      -13  1    4    4    0    0 -6.1025273104e-01 -2.6111260118e+01 -4.6385967221e+01 5.3233818503e+01 1.0566000000e-01 0.0000e+00 1.0000e+00
      -14  1    4    4    0    0 -2.3687233661e+00 -1.5813184292e-01 +1.0493124014e+00 2.5955563143e+00 0.0000000000e+00 0.0000e+00 1.0000e+00
<mgrwt>
<rscale>  0 0.78384300E+02</rscale>
<asrwt>0</asrwt>
<pdfrwt beam="1">  1        3 0.29892561E-02 0.78384300E+02</pdfrwt>
<pdfrwt beam="2">  1       -4 0.12162093E-01 0.78384300E+02</pdfrwt>
<totfact> 0.44724199E+04</totfact>
</mgrwt>
</event>
<event>
 8      1 +5.0320763e-08 8.12714600e+01 7.81860800e-03 1.32548100e-01
       -2 -1    0    0    0  501 -0.0000000000e+00 +0.0000000000e+00 +7.1980552234e+00 7.1980556751e+00 2.5500000000e-03 0.0000e+00 1.0000e+00
        1 -1    0    0  501    0 +0.0000000000e+00 -0.0000000000e+00 -2.2940395567e+02 2.2940395573e+02 5.0400000000e-03 0.0000e+00 -1.0000e+00
      -24  2    1    2    0    0 +3.5527136788e-15 +0.0000000000e+00 -2.2220590045e+02 2.3660201141e+02 8.1271456278e+01 0.0000e+00 0.0000e+00
       66  2    3    3    0    0 -1.5125037317e+01 +3.0565382161e+01 -1.0207597820e+02 1.1172519721e+02 3.0000083744e+01 0.0000e+00 0.0000e+00
       13  1    3    3    0    0 +1.5125037317e+01 -3.0565382161e+01 -1.2012992225e+02 1.2487681420e+02 1.0566000000e-01 0.0000e+00 -1.0000e+00
       13  1    4    4    0    0 -9.5792623177e+00 +1.1375047513e+01 -3.9324789240e+01 4.2042885073e+01 1.0566000000e-01 0.0000e+00 -1.0000e+00
      -13  1    4    4    0    0 -7.4100582156e+00 +4.1089851523e-01 -5.0599555345e+00 8.9828789592e+00 1.0566000000e-01 0.0000e+00 1.0000e+00
       14  1    4    4    0    0 +1.8642832166e+00 +1.8779436133e+01 -5.7691233426e+01 6.0699433174e+01 0.0000000000e+00 0.0000e+00 -1.0000e+00
<mgrwt>
<rscale>  0 0.81271456E+02</rscale>
<asrwt>0</asrwt>
<pdfrwt beam="1">  1        1 0.35292911E-01 0.81271456E+02</pdfrwt>
<pdfrwt beam="2">  1       -2 0.11073933E-02 0.81271456E+02</pdfrwt>
<totfact> 0.16424649E+05</totfact>
</mgrwt>
</event>
<event>
 8      1 +5.0320763e-08 8.03793900e+01 7.81860800e-03 1.32797800e-01
        2 -1    0    0  501    0 +0.0000000000e+00 +0.0000000000e+00 +1.1228007305e+02 1.1228007308e+02 2.5500000000e-03 0.0000e+00 -1.0000e+00
       -1 -1    0    0    0  501 -0.0000000000e+00 -0.0000000000e+00 -1.4385556652e+01 1.4385557535e+01 5.0400000000e-03 0.0000e+00 1.0000e+00
       24  2    1    2    0    0 -7.1054273576e-15 -3.5527136788e-15 +9.7894516394e+01 1.2666563061e+02 8.0379385653e+01 0.0000e+00 0.0000e+00
       66  2    3    3    0    0 -2.6168898424e+01 -1.9189023143e+01 +7.4643777575e+01 8.6745236405e+01 3.0000210905e+01 0.0000e+00 0.0000e+00
      -13  1    3    3    0    0 +2.6168898424e+01 +1.9189023143e+01 +2.3250738819e+01 3.9920394206e+01 1.0566000000e-01 0.0000e+00 1.0000e+00
       13  1    4    4    0    0 +2.8962552579e-01 +1.8247820212e-02 +1.5461119087e+01 1.5464203289e+01 1.0566000000e-01 0.0000e+00 -1.0000e+00
      -13  1    4    4    0    0 -5.3297027416e+00 -1.7683144335e+01 +2.9774053070e+01 3.5037190600e+01 1.0566000000e-01 0.0000e+00 1.0000e+00
       14  1    4    4    0    0 -2.1128821208e+01 -1.5241266278e+00 +2.9408605419e+01 3.6243842515e+01 0.0000000000e+00 0.0000e+00 -1.0000e+00
<mgrwt>
<rscale>  0 0.80379386E+02</rscale>
<asrwt>0</asrwt>
<pdfrwt beam="1">  1        2 0.17273858E-01 0.80379386E+02</pdfrwt>
<pdfrwt beam="2">  1       -1 0.22131625E-02 0.80379386E+02</pdfrwt>
<totfact> 0.18092688E+05</totfact>
</mgrwt>
</event>
<event>
 8      1 +5.0320763e-08 7.77826000e+01 7.81860800e-03 1.33546400e-01
        2 -1    0    0  501    0 +0.0000000000e+00 +0.0000000000e+00 +5.2500754920e+02 5.2500754920e+02 2.5500000000e-03 0.0000e+00 -1.0000e+00
       -1 -1    0    0    0  501 -0.0000000000e+00 -0.0000000000e+00 -2.8809723199e+00 2.8809767284e+00 5.0400000000e-03 0.0000e+00 1.0000e+00
       24  2    1    2    0    0 +1.7763568394e-15 -3.5527136788e-15 +5.2212657688e+02 5.2788852593e+02 7.7782604281e+01 0.0000e+00 0.0000e+00
       66  2    3    3    0    0 -1.5431815492e+01 +1.9073680936e+01 +4.5074702319e+02 4.5241006488e+02 3.0000694291e+01 0.0000e+00 0.0000e+00
      -13  1    3    3    0    0 +1.5431815492e+01 -1.9073680936e+01 +7.1379553687e+01 7.5478461050e+01 1.0566000000e-01 0.0000e+00 1.0000e+00
       13  1    4    4    0    0 -9.1164957028e+00 +5.7060266889e+00 +4.2014068930e+01 4.3368910368e+01 1.0566000000e-01 0.0000e+00 -1.0000e+00
      -13  1    4    4    0    0 -4.3864560582e+00 +1.1777426801e+01 +2.7758832482e+02 2.7787270110e+02 1.0566000000e-01 0.0000e+00 1.0000e+00
       14  1    4    4    0    0 -1.9288637308e+00 +1.5902274464e+00 +1.3114462944e+02 1.3116845341e+02 0.0000000000e+00 0.0000e+00 -1.0000e+00
<mgrwt>
<rscale>  0 0.77782604E+02</rscale>
<asrwt>0</asrwt>
<pdfrwt beam="1">  1        2 0.80770378E-01 0.77782604E+02</pdfrwt>
<pdfrwt beam="2">  1       -1 0.44322693E-03 0.77782604E+02</pdfrwt>
<totfact> 0.33267425E+05</totfact>
</mgrwt>
</event>
<event>
 8      1 +5.0320763e-08 7.91091500e+01 7.81860800e-03 1.33159900e-01
        4 -1    0    0  501    0 +0.0000000000e+00 +0.0000000000e+00 +4.0416723454e+01 4.0436671905e+01 1.2700000000e+00 0.0000e+00 -1.0000e+00
       -3 -1    0    0    0  501 -0.0000000000e+00 -0.0000000000e+00 -3.8691160264e+01 3.8691292090e+01 1.0100000000e-01 0.0000e+00 1.0000e+00
       24  2    1    2    0    0 -3.3306690739e-16 +0.0000000000e+00 +1.7255631893e+00 7.9127963995e+01 7.9109146864e+01 0.0000e+00 0.0000e+00
       66  2    3    3    0    0 +6.5326830053e-01 +3.0250307601e+01 -1.4229078244e+01 4.4921683625e+01 2.9999718709e+01 0.0000e+00 0.0000e+00
      -13  1    3    3    0    0 -6.5326830053e-01 -3.0250307601e+01 +1.5954641434e+01 3.4206280370e+01 1.0566000000e-01 0.0000e+00 1.0000e+00
       13  1    4    4    0    0 -3.0544559619e+00 +8.6350386077e+00 -1.0352256802e+01 1.3822951129e+01 1.0566000000e-01 0.0000e+00 -1.0000e+00
      -13  1    4    4    0    0 -3.0445520020e+00 +1.4389588175e+00 -8.6593106490e+00 9.2916480951e+00 1.0566000000e-01 0.0000e+00 1.0000e+00
       14  1    4    4    0    0 +6.7522762644e+00 +2.0176310176e+01 +4.7824892068e+00 2.1807084401e+01 0.0000000000e+00 0.0000e+00 -1.0000e+00
<mgrwt>
<rscale>  0 0.79109147E+02</rscale>
<asrwt>0</asrwt>
<pdfrwt beam="1">  1        4 0.62210952E-02 0.79109147E+02</pdfrwt>
<pdfrwt beam="2">  1       -3 0.59525061E-02 0.79109147E+02</pdfrwt>
<totfact> 0.46569171E+04</totfact>
</mgrwt>
</event>
<event>
 8      1 +5.0320763e-08 8.33660400e+01 7.81860800e-03 1.31976200e-01
       -4 -1    0    0    0  501 -0.0000000000e+00 +0.0000000000e+00 +6.2337350093e+01 6.2350285618e+01 1.2700000000e+00 0.0000e+00 1.0000e+00
        3 -1    0    0  501    0 +0.0000000000e+00 -0.0000000000e+00 -2.7862631348e+01 2.7862814406e+01 1.0100000000e-01 0.0000e+00 -1.0000e+00
      -24  2    1    2    0    0 +6.6613381478e-16 +0.0000000000e+00 +3.4474718746e+01 9.0213100024e+01 8.3366043347e+01 0.0000e+00 0.0000e+00
       66  2    3    3    0    0 +1.2697552021e+00 +2.8212396546e+01 +4.4123571664e+01 6.0369120332e+01 2.9999825268e+01 0.0000e+00 0.0000e+00
       13  1    3    3    0    0 -1.2697552021e+00 -2.8212396546e+01 -9.6488529185e+00 2.9843979692e+01 1.0566000000e-01 0.0000e+00 -1.0000e+00
       13  1    4    4    0    0 +1.6444739710e+00 +7.1469709281e-02 +2.0671038834e+01 2.0736740657e+01 1.0566000000e-01 0.0000e+00 -1.0000e+00
      -13  1    4    4    0    0 +3.6779969688e+00 +5.9430601948e+00 -1.3302732003e-01 6.9911720394e+00 1.0566000000e-01 0.0000e+00 1.0000e+00
       14  1    4    4    0    0 -4.0527157378e+00 +2.2197866642e+01 +2.3585560150e+01 3.2641207635e+01 0.0000000000e+00 0.0000e+00 -1.0000e+00
<mgrwt>
<rscale>  0 0.83366043E+02</rscale>
<asrwt>0</asrwt>
<pdfrwt beam="1">  1        3 0.42865791E-02 0.83366043E+02</pdfrwt>
<pdfrwt beam="2">  1       -4 0.95935830E-02 0.83366043E+02</pdfrwt>
<totfact> 0.38981489E+04</totfact>
</mgrwt>
</event>
<event>
 8      1 +5.0320763e-08 7.72634500e+01 7.81860800e-03 1.33700200e-01
       -4 -1    0    0    0  501 -0.0000000000e+00 +0.0000000000e+00 +1.9769780884e+01 1.9810530942e+01 1.2700000000e+00 0.0000e+00 1.0000e+00
        3 -1    0    0  501    0 +0.0000000000e+00 -0.0000000000e+00 -7.5391210383e+01 7.5391278037e+01 1.0100000000e-01 0.0000e+00 -1.0000e+00
      -24  2    1    2    0    0 -3.5527136788e-15 -3.5527136788e-15 -5.5621429499e+01 9.5201808979e+01 7.7263451990e+01 0.0000e+00 0.0000e+00
       66  2    3    3    0    0 +1.1129034259e+01 +2.2393244305e+01 -5.8357975142e+00 3.9488856175e+01 3.0000007255e+01 0.0000e+00 0.0000e+00
       13  1    3    3    0    0 -1.1129034259e+01 -2.2393244305e+01 -4.9785631985e+01 5.5712952805e+01 1.0566000000e-01 0.0000e+00 -1.0000e+00
       13  1    4    4    0    0 -3.7497388870e+00 +4.0105023393e+00 -1.0919611870e+01 1.2222673937e+01 1.0566000000e-01 0.0000e+00 -1.0000e+00
      -13  1    4    4    0    0 +9.8958259281e+00 +4.0550110286e+00 -1.3672010424e+00 1.0781970505e+01 1.0566000000e-01 0.0000e+00 1.0000e+00
      -14  1    4    4    0    0 +4.9829472183e+00 +1.4327730937e+01 +6.4510153984e+00 1.6484211733e+01 0.0000000000e+00 0.0000e+00 1.0000e+00
<mgrwt>
<rscale>  0 0.77263452E+02</rscale>
<asrwt>0</asrwt>
<pdfrwt beam="1">  1        3 0.11598673E-01 0.77263452E+02</pdfrwt>
<pdfrwt beam="2">  1       -4 0.30454623E-02 0.77263452E+02</pdfrwt>
<totfact> 0.48672326E+04</totfact>
</mgrwt>
</event>
<event>
 8      1 +5.0320763e-08 7.09495400e+01 7.81860800e-03 1.35689400e-01
       -1 -1    0    0    0  501 -0.0000000000e+00 +0.0000000000e+00 +2.5428398339e+01 2.5428398839e+01 5.0400000000e-03 0.0000e+00 1.0000e+00
        2 -1    0    0  501    0 +0.0000000000e+00 -0.0000000000e+00 -4.9490310548e+01 4.9490310614e+01 2.5500000000e-03 0.0000e+00 -1.0000e+00
       24  2    1    2    0    0 +6.9388939039e-16 +0.0000000000e+00 -2.4061912209e+01 7.4918709453e+01 7.0949541273e+01 0.0000e+00 0.0000e+00
       66  2    3    3    0    0 -2.0086184794e-01 -2.1632396340e+01 -3.4784708907e+01 5.0773514280e+01 2.9999547692e+01 0.0000e+00 0.0000e+00
      -13  1    3    3    0    0 +2.0086184794e-01 +2.1632396340e+01 +1.0722796698e+01 2.4145195173e+01 1.0566000000e-01 0.0000e+00 1.0000e+00
       13  1    4    4    0    0 +2.0586024947e+00 -9.2009946340e+00 -1.9543034355e+01 2.1698790342e+01 1.0566000000e-01 0.0000e+00 -1.0000e+00
      -13  1    4    4    0    0 -9.6302757597e+00 -1.0468726753e+01 -1.6000499149e+01 2.1409427552e+01 1.0566000000e-01 0.0000e+00 1.0000e+00
       14  1    4    4    0    0 +7.3708114170e+00 -1.9626749524e+00 +7.5882459692e-01 7.6652963859e+00 0.0000000000e+00 0.0000e+00 -1.0000e+00
<mgrwt>
<rscale>  0 0.70949541E+02</rscale>
<asrwt>0</asrwt>
<pdfrwt beam="1">  1        2 0.76138939E-02 0.70949541E+02</pdfrwt>
<pdfrwt beam="2">  1       -1 0.39120614E-02 0.70949541E+02</pdfrwt>
<totfact> 0.20652721E+05</totfact>
</mgrwt>
</event>
<event>
 8      1 +5.0320763e-08 7.69818800e+01 7.81860800e-03 1.33784100e-01
       -1 -1    0    0    0  501 -0.0000000000e+00 +0.0000000000e+00 +7.8182963322e+01 7.8182963484e+01 5.0400000000e-03 0.0000e+00 1.0000e+00
        2 -1    0    0  501    0 +0.0000000000e+00 -0.0000000000e+00 -1.8949813089e+01 1.8949813261e+01 2.5500000000e-03 0.0000e+00 -1.0000e+00
       24  2    1    2    0    0 +1.7763568394e-15 +0.0000000000e+00 +5.9233150233e+01 9.7132776745e+01 7.6981882490e+01 0.0000e+00 0.0000e+00
       66  2    3    3    0    0 +8.2200810479e+00 -3.1253680711e+01 +3.9946423726e+01 5.9498334092e+01 2.9999545009e+01 0.0000e+00 0.0000e+00
      -13  1    3    3    0    0 -8.2200810479e+00 +3.1253680711e+01 +1.9286726507e+01 3.7634442653e+01 1.0566000000e-01 0.0000e+00 1.0000e+00
       13  1    4    4    0    0 -9.8189721853e-01 -1.7071667644e+01 +5.4876111843e+00 1.7959148054e+01 1.0566000000e-01 0.0000e+00 -1.0000e+00
      -13  1    4    4    0    0 +8.9852092278e+00 -1.4592448743e+00 +7.7559521107e+00 1.1959487349e+01 1.0566000000e-01 0.0000e+00 1.0000e+00
      -14  1    4    4    0    0 +2.1676903866e-01 -1.2722768193e+01 +2.6702860431e+01 2.9579698689e+01 0.0000000000e+00 0.0000e+00 1.0000e+00
<mgrwt>
<rscale>  0 0.76981882E+02</rscale>
<asrwt>0</asrwt>
<pdfrwt beam="1">  1        2 0.29153559E-02 0.76981882E+02</pdfrwt>
<pdfrwt beam="2">  1       -1 0.12028148E-01 0.76981882E+02</pdfrwt>
<totfact> 0.13714148E+05</totfact>
</mgrwt>
</event>
<event>
 8      1 +5.0320763e-08 7.90680200e+01 7.81860800e-03 1.33171700e-01
        1 -1    0    0  501    0 +0.0000000000e+00 +0.0000000000e+00 +7.6790818421e+00 7.6790834960e+00 5.0400000000e-03 0.0000e+00 -1.0000e+00
       -2 -1    0    0    0  501 -0.0000000000e+00 -0.0000000000e+00 -2.0353186110e+02 2.0353186112e+02 2.5500000000e-03 0.0000e+00 1.0000e+00
      -24  2    1    2    0    0 +3.5527136788e-15 +4.4408920985e-16 -1.9585277926e+02 2.1121094462e+02 7.9068021228e+01 0.0000e+00 0.0000e+00
       66  2    3    3    0    0 +2.8712735618e+01 -1.1910779639e+00 -1.5976967624e+02 1.6508241395e+02 3.0000234951e+01 0.0000e+00 0.0000e+00
       13  1    3    3    0    0 -2.8712735618e+01 +1.1910779639e+00 -3.6083103019e+01 4.6128530661e+01 1.0566000000e-01 0.0000e+00 -1.0000e+00
       13  1    4    4    0    0 -4.3217502111e+00 -1.7114114809e+00 -1.3753388981e+01 1.4518034531e+01 1.0566000000e-01 0.0000e+00 -1.0000e+00
      -13  1    4    4    0    0 +5.2602577813e+00 -5.3881945222e+00 -4.5299557222e+01 4.5921280478e+01 1.0566000000e-01 0.0000e+00 1.0000e+00
       14  1    4    4    0    0 +2.7774228048e+01 +5.9085280392e+00 -1.0071673004e+02 1.0464309895e+02 0.0000000000e+00 0.0000e+00 -1.0000e+00
<mgrwt>
<rscale>  0 0.79068021E+02</rscale>
<asrwt>0</asrwt>
<pdfrwt beam="1">  1        1 0.11813975E-02 0.79068021E+02</pdfrwt>
<pdfrwt beam="2">  1       -2 0.31312590E-01 0.79068021E+02</pdfrwt>
<totfact> 0.87061912E+04</totfact>
</mgrwt>
</event>
<event>
 8      1 +5.0320763e-08 7.93789800e+01 7.81860800e-03 1.33082300e-01
       -1 -1    0    0    0  501 -0.0000000000e+00 +0.0000000000e+00 +7.2491804098e+00 7.2491821619e+00 5.0400000000e-03 0.0000e+00 1.0000e+00
        2 -1    0    0  501    0 +0.0000000000e+00 -0.0000000000e+00 -2.1730115015e+02 2.1730115017e+02 2.5500000000e-03 0.0000e+00 -1.0000e+00
       24  2    1    2    0    0 -8.8817841970e-16 +0.0000000000e+00 -2.1005196974e+02 2.2455033233e+02 7.9378975531e+01 0.0000e+00 0.0000e+00
       66  2    3    3    0    0 -7.0323175656e+00 +2.2634892042e+01 -1.8906479602e+02 1.9289177183e+02 2.9999111927e+01 0.0000e+00 0.0000e+00
      -13  1    3    3    0    0 +7.0323175656e+00 -2.2634892042e+01 -2.0987173719e+01 3.1658560498e+01 1.0566000000e-01 0.0000e+00 1.0000e+00
       13  1    4    4    0    0 -8.2812385349e+00 +8.6051187578e+00 -8.0491287854e+01 8.1372511113e+01 1.0566000000e-01 0.0000e+00 -1.0000e+00
      -13  1    4    4    0    0 +4.2924626329e-01 +1.3561290539e-01 -7.7149050851e+01 7.7150436515e+01 1.0566000000e-01 0.0000e+00 1.0000e+00
      -14  1    4    4    0    0 +8.1967470598e-01 +1.3894160379e+01 -3.1424457318e+01 3.4368824201e+01 0.0000000000e+00 0.0000e+00 1.0000e+00
<mgrwt>
<rscale>  0 0.79378976E+02</rscale>
<asrwt>0</asrwt>
<pdfrwt beam="1">  1        2 0.33430941E-01 0.79378976E+02</pdfrwt>
<pdfrwt beam="2">  1       -1 0.11152588E-02 0.79378976E+02</pdfrwt>
<totfact> 0.23179110E+05</totfact>
</mgrwt>
</event>
<event>
 8      1 +5.0320763e-08 8.04101600e+01 7.81860800e-03 1.32789100e-01
       -2 -1    0    0    0  501 -0.0000000000e+00 +0.0000000000e+00 +7.2601615699e+00 7.2601620177e+00 2.5500000000e-03 0.0000e+00 1.0000e+00
        1 -1    0    0  501    0 +0.0000000000e+00 -0.0000000000e+00 -2.2264631893e+02 2.2264631899e+02 5.0400000000e-03 0.0000e+00 -1.0000e+00
      -24  2    1    2    0    0 -7.1054273576e-15 +0.0000000000e+00 -2.1538615736e+02 2.2990648101e+02 8.0410156234e+01 0.0000e+00 0.0000e+00
       66  2    3    3    0    0 +2.5876002573e+01 -8.8621654477e+00 -6.2045854862e+01 7.4145879376e+01 2.9996963801e+01 0.0000e+00 0.0000e+00
       13  1    3    3    0    0 -2.5876002573e+01 +8.8621654477e+00 -1.5334030250e+02 1.5576060163e+02 1.0566000000e-01 0.0000e+00 -1.0000e+00
       13  1    4    4    0    0 +9.2924458061e+00 -3.4528449792e+00 -3.5187211280e+00 1.0519707692e+01 1.0566000000e-01 0.0000e+00 -1.0000e+00
      -13  1    4    4    0    0 +1.4678486207e+01 +3.0653174332e+00 -2.6569019530e+01 3.0508656003e+01 1.0566000000e-01 0.0000e+00 1.0000e+00
       14  1    4    4    0    0 +1.9050705605e+00 -8.4746379016e+00 -3.1958114204e+01 3.3117515681e+01 0.0000000000e+00 0.0000e+00 -1.0000e+00
<mgrwt>
<rscale>  0 0.80410156E+02</rscale>
<asrwt>0</asrwt>
<pdfrwt beam="1">  1        1 0.34253275E-01 0.80410156E+02</pdfrwt>
<pdfrwt beam="2">  1       -2 0.11169481E-02 0.80410156E+02</pdfrwt>
<totfact> 0.16796730E+05</totfact>
</mgrwt>
</event>
<event>
 8      1 +5.0320763e-08 7.92645200e+01 7.81860800e-03 1.33115200e-01
       -1 -1    0    0    0  501 -0.0000000000e+00 +0.0000000000e+00 +2.2797241854e+00 2.2797297566e+00 5.0400000000e-03 0.0000e+00 1.0000e+00
        2 -1    0    0  501    0 +0.0000000000e+00 -0.0000000000e+00 -6.8899310561e+02 6.8899310562e+02 2.5500000000e-03 0.0000e+00 -1.0000e+00
       24  2    1    2    0    0 -8.8817841970e-16 +0.0000000000e+00 -6.8671338143e+02 6.9127283537e+02 7.9264523556e+01 0.0000e+00 0.0000e+00
       66  2    3    3    0    0 +4.6977926398e+00 -3.1546603633e+01 -4.9412698555e+02 4.9606323393e+02 2.9999945798e+01 0.0000e+00 0.0000e+00
      -13  1    3    3    0    0 -4.6977926398e+00 +3.1546603633e+01 -1.9258639588e+02 1.9520960145e+02 1.0566000000e-01 0.0000e+00 1.0000e+00
       13  1    4    4    0    0 -7.5367082228e+00 -2.3234733432e+01 -2.9530230054e+02 2.9631084131e+02 1.0566000000e-01 0.0000e+00 -1.0000e+00
      -13  1    4    4    0    0 +9.5619349262e-01 -2.4616805841e-01 -9.5084824295e+01 9.5090009359e+01 1.0566000000e-01 0.0000e+00 1.0000e+00
       14  1    4    4    0    0 +1.1278307370e+01 -8.0657021420e+00 -1.0373986072e+02 1.0466238326e+02 0.0000000000e+00 0.0000e+00 -1.0000e+00
<mgrwt>
<rscale>  0 0.79264524E+02</rscale>
<asrwt>0</asrwt>
<pdfrwt beam="1">  1        2 0.10599877E+00 0.79264524E+02</pdfrwt>
<pdfrwt beam="2">  1       -1 0.35072777E-03 0.79264524E+02</pdfrwt>
<totfact> 0.34138638E+05</totfact>
</mgrwt>
</event>
<event>
 8      1 +5.0320763e-08 7.78240300e+01 7.81860800e-03 1.33534200e-01
       -1 -1    0    0    0  501 -0.0000000000e+00 +0.0000000000e+00 +8.5385691521e+00 8.5385706396e+00 5.0400000000e-03 0.0000e+00 1.0000e+00
        2 -1    0    0  501    0 +0.0000000000e+00 -0.0000000000e+00 -1.7733001708e+02 1.7733001710e+02 2.5500000000e-03 0.0000e+00 -1.0000e+00
       24  2    1    2    0    0 +0.0000000000e+00 +0.0000000000e+00 -1.6879144792e+02 1.8586858773e+02 7.7824025943e+01 0.0000e+00 0.0000e+00
       66  2    3    3    0    0 -2.0692604684e+01 -2.1108095187e+01 -1.3266848888e+02 1.3919295271e+02 3.0000242841e+01 0.0000e+00 0.0000e+00
      -13  1    3    3    0    0 +2.0692604684e+01 +2.1108095187e+01 -3.6122959043e+01 4.6675635026e+01 1.0566000000e-01 0.0000e+00 1.0000e+00
       13  1    4    4    0    0 -1.2975829048e+01 -1.2378117749e+01 -2.9288851323e+01 3.4342945627e+01 1.0566000000e-01 0.0000e+00 -1.0000e+00
      -13  1    4    4    0    0 -3.4490877101e+00 -4.9345321657e+00 -9.1191655124e+01 9.1390234391e+01 1.0566000000e-01 0.0000e+00 1.0000e+00
      -14  1    4    4    0    0 -4.2676879263e+00 -3.7954452722e+00 -1.2187982435e+01 1.3459772691e+01 0.0000000000e+00 0.0000e+00 1.0000e+00
<mgrwt>
<rscale>  0 0.77824026E+02</rscale>
<asrwt>0</asrwt>
<pdfrwt beam="1">  1        2 0.27281538E-01 0.77824026E+02</pdfrwt>
<pdfrwt beam="2">  1       -1 0.13136263E-02 0.77824026E+02</pdfrwt>
<totfact> 0.22765794E+05</totfact>
</mgrwt>
</event>
<event>
 8      1 +5.0320763e-08 7.95592900e+01 7.81860800e-03 1.33030700e-01
       -1 -1    0    0    0  501 -0.0000000000e+00 +0.0000000000e+00 +5.0666172989e+00 5.0666198057e+00 5.0400000000e-03 0.0000e+00 1.0000e+00
        2 -1    0    0  501    0 +0.0000000000e+00 -0.0000000000e+00 -3.1232273577e+02 3.1232273578e+02 2.5500000000e-03 0.0000e+00 -1.0000e+00
       24  2    1    2    0    0 +0.0000000000e+00 +6.6613381478e-16 -3.0725611847e+02 3.1738935559e+02 7.9559290479e+01 0.0000e+00 0.0000e+00
       66  2    3    3    0    0 +3.0985624530e+01 -1.2474805525e+00 -2.3227289072e+02 2.3624651399e+02 3.0000907838e+01 0.0000e+00 0.0000e+00
      -13  1    3    3    0    0 -3.0985624530e+01 +1.2474805525e+00 -7.4983227751e+01 8.1142841602e+01 1.0566000000e-01 0.0000e+00 1.0000e+00
       13  1    4    4    0    0 +3.6782396910e+00 +9.3978108376e+00 -3.8853396057e+01 4.0142818100e+01 1.0566000000e-01 0.0000e+00 -1.0000e+00
      -13  1    4    4    0    0 +1.3972465624e+00 -3.3703565094e+00 -5.3193313260e+01 5.3318395893e+01 1.0566000000e-01 0.0000e+00 1.0000e+00
       14  1    4    4    0    0 +2.5910138276e+01 -7.2749348806e+00 -1.4022618141e+02 1.4278529999e+02 0.0000000000e+00 0.0000e+00 -1.0000e+00
<mgrwt>
<rscale>  0 0.79559290E+02</rscale>
<asrwt>0</asrwt>
<pdfrwt beam="1">  1        2 0.48049637E-01 0.79559290E+02</pdfrwt>
<pdfrwt beam="2">  1       -1 0.77948003E-03 0.79559290E+02</pdfrwt>
<totfact> 0.26245506E+05</totfact>
</mgrwt>
</event>
<event>
 8      1 +5.0320763e-08 7.87265100e+01 7.81860800e-03 1.33270500e-01
        2 -1    0    0  501    0 +0.0000000000e+00 +0.0000000000e+00 +9.2314444493e+02 9.2314444493e+02 2.5500000000e-03 0.0000e+00 -1.0000e+00
       -1 -1    0    0    0  501 -0.0000000000e+00 -0.0000000000e+00 -1.6784614184e+00 1.6784689853e+00 5.0400000000e-03 0.0000e+00 1.0000e+00
       24  2    1    2    0    0 +1.8318679906e-15 -3.5527136788e-15 +9.2146598351e+02 9.2482291392e+02 7.8726509768e+01 0.0000e+00 0.0000e+00
       66  2    3    3    0    0 -2.0266456766e-02 -2.0843937463e+01 +8.3792072315e+02 8.3871663173e+02 2.9999665235e+01 0.0000e+00 0.0000e+00
      -13  1    3    3    0    0 +2.0266456766e-02 +2.0843937463e+01 +8.3545260362e+01 8.6106282191e+01 1.0566000000e-01 0.0000e+00 1.0000e+00
       13  1    4    4    0    0 -5.9324102306e+00 -2.8814352439e+00 +3.0097047949e+02 3.0104274921e+02 1.0566000000e-01 0.0000e+00 -1.0000e+00
      -13  1    4    4    0    0 +9.7749574446e+00 -1.6783895938e+01 +2.7189714159e+02 2.7259001398e+02 1.0566000000e-01 0.0000e+00 1.0000e+00
      -14  1    4    4    0    0 -3.8628136708e+00 -1.1786062810e+00 +2.6505310207e+02 2.6508386854e+02 0.0000000000e+00 0.0000e+00 1.0000e+00
<mgrwt>
<rscale>  0 0.78726510E+02</rscale>
<asrwt>0</asrwt>
<pdfrwt beam="1">  1        2 0.14202194E+00 0.78726510E+02</pdfrwt>
<pdfrwt beam="2">  1       -1 0.25822593E-03 0.78726510E+02</pdfrwt>
<totfact> 0.36526992E+05</totfact>
</mgrwt>
</event>
<event>
 8      1 +5.0320763e-08 7.93015800e+01 7.81860800e-03 1.33104500e-01
        3 -1    0    0  501    0 +0.0000000000e+00 +0.0000000000e+00 +8.2993597771e+01 8.2993659227e+01 1.0100000000e-01 0.0000e+00 -1.0000e+00
       -2 -1    0    0    0  501 -0.0000000000e+00 -0.0000000000e+00 -1.8943414564e+01 1.8943414736e+01 2.5500000000e-03 0.0000e+00 1.0000e+00
      -24  2    1    2    0    0 -4.4408920985e-16 +0.0000000000e+00 +6.4050183207e+01 1.0193707396e+02 7.9301583082e+01 0.0000e+00 0.0000e+00
       66  2    3    3    0    0 +3.0011454356e+00 -1.8184848647e+01 -8.1366717653e-02 3.5209550002e+01 3.0000169942e+01 0.0000e+00 0.0000e+00
       13  1    3    3    0    0 -3.0011454356e+00 +1.8184848647e+01 +6.4131549924e+01 6.6727523961e+01 1.0566000000e-01 0.0000e+00 -1.0000e+00
       13  1    4    4    0    0 +4.3886348070e+00 +3.4402543197e+00 -3.5599100606e+00 6.6166146124e+00 1.0566000000e-01 0.0000e+00 -1.0000e+00
      -13  1    4    4    0    0 +4.2440557973e+00 -7.7676699821e+00 +9.0231872332e+00 1.2640323510e+01 1.0566000000e-01 0.0000e+00 1.0000e+00
       14  1    4    4    0    0 -5.6315451687e+00 -1.3857432985e+01 -5.5446438902e+00 1.5952611880e+01 0.0000000000e+00 0.0000e+00 -1.0000e+00
<mgrwt>
<rscale>  0 0.79301583E+02</rscale>
<asrwt>0</asrwt>
<pdfrwt beam="1">  1        3 0.12768271E-01 0.79301583E+02</pdfrwt>
<pdfrwt beam="2">  1       -2 0.29143715E-02 0.79301583E+02</pdfrwt>
<totfact> 0.68070004E+04</totfact>
</mgrwt>
</event>
<event>
 8      1 +5.0320763e-08 7.91198700e+01 7.81860800e-03 1.33156800e-01
       -1 -1    0    0    0  501 -0.0000000000e+00 +0.0000000000e+00 +2.3207476626e+01 2.3207477173e+01 5.0400000000e-03 0.0000e+00 1.0000e+00
        2 -1    0    0  501    0 +0.0000000000e+00 -0.0000000000e+00 -6.7434667100e+01 6.7434667148e+01 2.5500000000e-03 0.0000e+00 -1.0000e+00
       24  2    1    2    0    0 -1.7763568394e-15 +1.0658141036e-14 -4.4227190474e+01 9.0642144321e+01 7.9119870765e+01 0.0000e+00 0.0000e+00
       66  2    3    3    0    0 -8.2321647946e+00 +2.9871212897e+01 -4.0970693360e+01 5.9486505431e+01 2.9999811948e+01 0.0000e+00 0.0000e+00
      -13  1    3    3    0    0 +8.2321647946e+00 -2.9871212897e+01 -3.2564971148e+00 3.1155638890e+01 1.0566000000e-01 0.0000e+00 1.0000e+00
       13  1    4    4    0    0 -1.5223103467e+00 -2.0253568267e+00 -4.0164717961e+00 4.7500219780e+00 1.0566000000e-01 0.0000e+00 -1.0000e+00
      -13  1    4    4    0    0 -5.4230123975e+00 -2.3079487119e+00 -3.4028904696e+00 6.8063586670e+00 1.0566000000e-01 0.0000e+00 1.0000e+00
       14  1    4    4    0    0 -1.2868420504e+00 +3.4204518436e+01 -3.3551331094e+01 4.7930124786e+01 0.0000000000e+00 0.0000e+00 -1.0000e+00
<mgrwt>
<rscale>  0 0.79119871E+02</rscale>
<asrwt>0</asrwt>
<pdfrwt beam="1">  1        2 0.10374564E-01 0.79119871E+02</pdfrwt>
<pdfrwt beam="2">  1       -1 0.35703811E-02 0.79119871E+02</pdfrwt>
<totfact> 0.16487587E+05</totfact>
</mgrwt>
</event>
<event>
 8      1 +5.0320763e-08 7.96783700e+01 7.81860800e-03 1.32996700e-01
       -1 -1    0    0    0  501 -0.0000000000e+00 +0.0000000000e+00 +1.7648047799e+00 1.7648119766e+00 5.0400000000e-03 0.0000e+00 1.0000e+00
        2 -1    0    0  501    0 +0.0000000000e+00 -0.0000000000e+00 -8.9933888294e+02 8.9933888295e+02 2.5500000000e-03 0.0000e+00 -1.0000e+00
       24  2    1    2    0    0 +0.0000000000e+00 +0.0000000000e+00 -8.9757407816e+02 9.0110369492e+02 7.9678373565e+01 0.0000e+00 0.0000e+00
       66  2    3    3    0    0 -1.6268854915e+01 -1.3582796507e+01 -8.1584166964e+02 8.1666812322e+02 3.0000426126e+01 0.0000e+00 0.0000e+00
      -13  1    3    3    0    0 +1.6268854915e+01 +1.3582796507e+01 -8.1732408523e+01 8.4435571699e+01 1.0566000000e-01 0.0000e+00 1.0000e+00
       13  1    4    4    0    0 -3.0480829135e+00 -1.5653474821e+01 -3.8207460337e+02 3.8240729045e+02 1.0566000000e-01 0.0000e+00 -1.0000e+00
      -13  1    4    4    0    0 -5.9096330257e+00 +8.2092616563e+00 -2.9049402774e+02 2.9067010003e+02 1.0566000000e-01 0.0000e+00 1.0000e+00
      -14  1    4    4    0    0 -7.3111389753e+00 -6.1385833419e+00 -1.4327303853e+02 1.4359073274e+02 0.0000000000e+00 0.0000e+00 1.0000e+00
<mgrwt>
<rscale>  0 0.79678374E+02</rscale>
<asrwt>0</asrwt>
<pdfrwt beam="1">  1        2 0.13835946E+00 0.79678374E+02</pdfrwt>
<pdfrwt beam="2">  1       -1 0.27150970E-03 0.79678374E+02</pdfrwt>
<totfact> 0.35311093E+05</totfact>
</mgrwt>
</event>
<event>
 7      1 +5.0320763e-08 1.20651700e+02 7.81860800e-03 1.24202600e-01
        2 -1    0    0  501    0 +0.0000000000e+00 +0.0000000000e+00 +7.6356172899e+02 7.6356172899e+02 2.5500000000e-03 0.0000e+00 -1.0000e+00
       -1 -1    0    0    0  501 -0.0000000000e+00 -0.0000000000e+00 -4.7660944680e+00 4.7660971328e+00 5.0400000000e-03 0.0000e+00 1.0000e+00
       66  2    1    2    0    0 -1.1309578289e+00 +4.8003722848e+01 +5.9363075477e+02 5.9632467168e+02 3.0000076174e+01 0.0000e+00 0.0000e+00
      -13  1    1    2    0    0 +1.1309578289e+00 -4.8003722848e+01 +1.6516487975e+02 1.7200315445e+02 1.0566000000e-01 0.0000e+00 1.0000e+00
       13  1    3    3    0    0 +4.0828308490e+00 +2.2150613010e+01 +3.1229730049e+02 3.1310850232e+02 1.0566000000e-01 0.0000e+00 -1.0000e+00
      -13  1    3    3    0    0 -8.9584607853e+00 +2.5756674775e+01 +2.0702610455e+02 2.0881446177e+02 1.0566000000e-01 0.0000e+00 1.0000e+00
      -14  1    3    3    0    0 +3.7446721075e+00 +9.6435062397e-02 +7.4307349724e+01 7.4401707587e+01 0.0000000000e+00 0.0000e+00 1.0000e+00
<mgrwt>
<rscale>  0 0.12065170E+03</rscale>
<asrwt>0</asrwt>
<pdfrwt beam="1">  1        2 0.11747105E+00 0.12065170E+03</pdfrwt>
<pdfrwt beam="2">  1       -1 0.73324539E-03 0.12065170E+03</pdfrwt>
<totfact> 0.11463512E+05</totfact>
</mgrwt>
</event>
<event>
 8      1 +5.0320763e-08 7.80035200e+01 7.81860800e-03 1.33481500e-01
       -4 -1    0    0    0  501 -0.0000000000e+00 +0.0000000000e+00 +1.3107535502e+01 1.3168917455e+01 1.2700000000e+00 0.0000e+00 1.0000e+00
        3 -1    0    0  501    0 +0.0000000000e+00 -0.0000000000e+00 -1.1574858629e+02 1.1574863035e+02 1.0100000000e-01 0.0000e+00 -1.0000e+00
      -24  2    1    2    0    0 +0.0000000000e+00 +0.0000000000e+00 -1.0264105079e+02 1.2891754781e+02 7.8003518039e+01 0.0000e+00 0.0000e+00
       66  2    3    3    0    0 -3.2233464735e+00 -2.9131882935e+01 -3.3020543319e+01 5.3378929937e+01 2.9998288524e+01 0.0000e+00 0.0000e+00
       13  1    3    3    0    0 +3.2233464735e+00 +2.9131882935e+01 -6.9620507468e+01 7.5538617871e+01 1.0566000000e-01 0.0000e+00 -1.0000e+00
       13  1    4    4    0    0 +9.5855270646e+00 -9.2755029092e+00 -9.0619600677e+00 1.6125990439e+01 1.0566000000e-01 0.0000e+00 -1.0000e+00
      -13  1    4    4    0    0 -3.7512948359e+00 -1.6266577041e+01 -2.1471276787e+01 2.7197437976e+01 1.0566000000e-01 0.0000e+00 1.0000e+00
       14  1    4    4    0    0 -9.0575787022e+00 -3.5898029846e+00 -2.4873064642e+00 1.0055501522e+01 0.0000000000e+00 0.0000e+00 -1.0000e+00
<mgrwt>
<rscale>  0 0.78003518E+02</rscale>
<asrwt>0</asrwt>
<pdfrwt beam="1">  1        3 0.17807507E-01 0.78003518E+02</pdfrwt>
<pdfrwt beam="2">  1       -4 0.20218016E-02 0.78003518E+02</pdfrwt>
<totfact> 0.44525487E+04</totfact>
</mgrwt>
</event>
<event>
 8      1 +5.0320763e-08 8.06049200e+01 7.81860800e-03 1.32734300e-01
        2 -1    0    0  501    0 +0.0000000000e+00 +0.0000000000e+00 +1.5137705699e+02 1.5137705701e+02 2.5500000000e-03 0.0000e+00 -1.0000e+00
       -1 -1    0    0    0  501 -0.0000000000e+00 -0.0000000000e+00 -1.0730082729e+01 1.0730083913e+01 5.0400000000e-03 0.0000e+00 1.0000e+00
       24  2    1    2    0    0 -1.7763568394e-15 -1.7763568394e-15 +1.4064697426e+02 1.6210714092e+02 8.0604923979e+01 0.0000e+00 0.0000e+00
       66  2    3    3    0    0 -1.5924834775e+01 -1.4966730242e+01 +1.3432193121e+02 1.3935586161e+02 3.0001193054e+01 0.0000e+00 0.0000e+00
      -13  1    3    3    0    0 +1.5924834775e+01 +1.4966730242e+01 +6.3250430518e+00 2.2751279314e+01 1.0566000000e-01 0.0000e+00 1.0000e+00
       13  1    4    4    0    0 -2.1624011675e+01 -4.5593204281e+00 +9.8407903416e+01 1.0085887121e+02 1.0566000000e-01 0.0000e+00 -1.0000e+00
      -13  1    4    4    0    0 +2.1809787869e+00 +4.3536830472e-01 +8.9418197275e+00 9.2148531244e+00 1.0566000000e-01 0.0000e+00 1.0000e+00
       14  1    4    4    0    0 +3.5181981129e+00 -1.0842778119e+01 +2.6972208062e+01 2.9282137269e+01 0.0000000000e+00 0.0000e+00 -1.0000e+00
<mgrwt>
<rscale>  0 0.80604924E+02</rscale>
<asrwt>0</asrwt>
<pdfrwt beam="1">  1        2 0.23288777E-01 0.80604924E+02</pdfrwt>
<pdfrwt beam="2">  1       -1 0.16507821E-02 0.80604924E+02</pdfrwt>
<totfact> 0.19691496E+05</totfact>
</mgrwt>
</event>
<event>
 8      1 +5.0320763e-08 7.98693900e+01 7.81860800e-03 1.32942200e-01
       -4 -1    0    0    0  501 -0.0000000000e+00 +0.0000000000e+00 +1.7467295111e+01 1.7513403396e+01 1.2700000000e+00 0.0000e+00 1.0000e+00
        3 -1    0    0  501    0 +0.0000000000e+00 -0.0000000000e+00 -9.1157343659e+01 9.1157399612e+01 1.0100000000e-01 0.0000e+00 -1.0000e+00
      -24  2    1    2    0    0 +3.5527136788e-15 -3.5527136788e-15 -7.3690048548e+01 1.0867080301e+02 7.9869394460e+01 0.0000e+00 0.0000e+00
       66  2    3    3    0    0 -1.5650123302e+01 +6.8593934133e+00 -1.5745177954e+00 3.4558465458e+01 2.9997179720e+01 0.0000e+00 0.0000e+00
       13  1    3    3    0    0 +1.5650123302e+01 -6.8593934133e+00 -7.2115530752e+01 7.4112337550e+01 1.0566000000e-01 0.0000e+00 -1.0000e+00
       13  1    4    4    0    0 +3.9936652651e+00 +4.6766631455e+00 -3.3750658323e+00 7.0158943716e+00 1.0566000000e-01 0.0000e+00 -1.0000e+00
      -13  1    4    4    0    0 -1.8350209688e+00 -6.8795388178e+00 -1.5343398943e+00 7.2842789106e+00 1.0566000000e-01 0.0000e+00 1.0000e+00
      -14  1    4    4    0    0 -1.7808767599e+01 +9.0622690856e+00 +3.3348879312e+00 2.0258292176e+01 0.0000000000e+00 0.0000e+00 1.0000e+00
<mgrwt>
<rscale>  0 0.79869394E+02</rscale>
<asrwt>0</asrwt>
<pdfrwt beam="1">  1        3 0.14024233E-01 0.79869394E+02</pdfrwt>
<pdfrwt beam="2">  1       -4 0.26915035E-02 0.79869394E+02</pdfrwt>
<totfact> 0.43406428E+04</totfact>
</mgrwt>
</event>
<event>
 8      1 +5.0320763e-08 7.63214900e+01 7.81860800e-03 1.33982700e-01
       -1 -1    0    0    0  501 -0.0000000000e+00 +0.0000000000e+00 +1.5305258106e+01 1.5305258936e+01 5.0400000000e-03 0.0000e+00 1.0000e+00
        2 -1    0    0  501    0 +0.0000000000e+00 -0.0000000000e+00 -9.5146545861e+01 9.5146545895e+01 2.5500000000e-03 0.0000e+00 -1.0000e+00
       24  2    1    2    0    0 +1.7763568394e-15 +0.0000000000e+00 -7.9841287755e+01 1.1045180483e+02 7.6321490814e+01 0.0000e+00 0.0000e+00
       66  2    3    3    0    0 -1.5985384443e+01 -1.8552154091e+01 -7.6489592295e+01 8.5734200503e+01 2.9999674485e+01 0.0000e+00 0.0000e+00
      -13  1    3    3    0    0 +1.5985384443e+01 +1.8552154091e+01 -3.3516954597e+00 2.4717604328e+01 1.0566000000e-01 0.0000e+00 1.0000e+00
       13  1    4    4    0    0 -1.7552114085e+01 -1.9638197714e+01 -5.6049901337e+01 6.1930106751e+01 1.0566000000e-01 0.0000e+00 -1.0000e+00
      -13  1    4    4    0    0 -5.2605047340e-01 +2.6145562876e+00 -2.0986459649e+01 2.1155502507e+01 1.0566000000e-01 0.0000e+00 1.0000e+00
       14  1    4    4    0    0 +2.0927801153e+00 -1.5285126651e+00 +5.4676869152e-01 2.6485912445e+00 0.0000000000e+00 0.0000e+00 -1.0000e+00
<mgrwt>
<rscale>  0 0.76321491E+02</rscale>
<asrwt>0</asrwt>
<pdfrwt beam="1">  1        2 0.14637930E-01 0.76321491E+02</pdfrwt>
<pdfrwt beam="2">  1       -1 0.23546552E-02 0.76321491E+02</pdfrwt>
<totfact> 0.19828866E+05</totfact>
</mgrwt>
</event>
<event>
 8      1 +5.0320763e-08 7.98603200e+01 7.81860800e-03 1.32944800e-01
       -1 -1    0    0    0  501 -0.0000000000e+00 +0.0000000000e+00 +4.1226657359e+00 4.1226688166e+00 5.0400000000e-03 0.0000e+00 1.0000e+00
        2 -1    0    0  501    0 +0.0000000000e+00 -0.0000000000e+00 -3.8674416006e+02 3.8674416007e+02 2.5500000000e-03 0.0000e+00 -1.0000e+00
       24  2    1    2    0    0 +0.0000000000e+00 +1.7763568394e-15 -3.8262149433e+02 3.9086682889e+02 7.9860315576e+01 0.0000e+00 0.0000e+00
       66  2    3    3    0    0 -4.5864154725e+00 -1.2147170269e+01 -3.7366663766e+02 3.7509376405e+02 2.9999779612e+01 0.0000e+00 0.0000e+00
      -13  1    3    3    0    0 +4.5864154725e+00 +1.2147170269e+01 -8.9548566672e+00 1.5773064838e+01 1.0566000000e-01 0.0000e+00 1.0000e+00
       13  1    4    4    0    0 -2.1279316732e-01 -1.3946225617e+01 -1.8462014989e+02 1.8514630269e+02 1.0566000000e-01 0.0000e+00 -1.0000e+00
      -13  1    4    4    0    0 +4.7908257394e+00 +1.8450667761e+00 -1.9865072934e+01 2.0518005980e+01 1.0566000000e-01 0.0000e+00 1.0000e+00
       14  1    4    4    0    0 -9.1644480446e+00 -4.6011427386e-02 -1.6918141484e+02 1.6942945538e+02 0.0000000000e+00 0.0000e+00 -1.0000e+00
<mgrwt>
<rscale>  0 0.79860316E+02</rscale>
<asrwt>0</asrwt>
<pdfrwt beam="1">  1        2 0.59499073E-01 0.79860316E+02</pdfrwt>
<pdfrwt beam="2">  1       -1 0.63425681E-03 0.79860316E+02</pdfrwt>
<totfact> 0.28049084E+05</totfact>
</mgrwt>
</event>
<event>
 8      1 +5.0320763e-08 7.72101500e+01 7.81860800e-03 1.33716000e-01
        4 -1    0    0  501    0 +0.0000000000e+00 +0.0000000000e+00 +2.0794204616e+02 2.0794592437e+02 1.2700000000e+00 0.0000e+00 -1.0000e+00
       -3 -1    0    0    0  501 -0.0000000000e+00 -0.0000000000e+00 -7.1647766287e+00 7.1654884787e+00 1.0100000000e-01 0.0000e+00 1.0000e+00
       24  2    1    2    0    0 +0.0000000000e+00 -1.7763568394e-15 +2.0077726953e+02 2.1511141285e+02 7.7210154620e+01 0.0000e+00 0.0000e+00
       66  2    3    3    0    0 +1.6688763449e+01 +1.1656907398e+01 +1.8711484626e+02 1.9059465757e+02 2.9999324807e+01 0.0000e+00 0.0000e+00
      -13  1    3    3    0    0 -1.6688763449e+01 -1.1656907398e+01 +1.3662423275e+01 2.4516755277e+01 1.0566000000e-01 0.0000e+00 1.0000e+00
       13  1    4    4    0    0 +9.3914250777e+00 +3.4438877032e+00 +8.3398711311e+01 8.3996520403e+01 1.0566000000e-01 0.0000e+00 -1.0000e+00
      -13  1    4    4    0    0 +8.6690114221e+00 +1.2811701732e+01 +4.3094975533e+01 4.5787329476e+01 1.0566000000e-01 0.0000e+00 1.0000e+00
      -14  1    4    4    0    0 -1.3716730504e+00 -4.5986820371e+00 +6.0621159413e+01 6.0810807691e+01 0.0000000000e+00 0.0000e+00 1.0000e+00
<mgrwt>
<rscale>  0 0.77210155E+02</rscale>
<asrwt>0</asrwt>
<pdfrwt beam="1">  1        4 0.32000035E-01 0.77210155E+02</pdfrwt>
<pdfrwt beam="2">  1       -3 0.11023301E-02 0.77210155E+02</pdfrwt>
<totfact> 0.35592396E+04</totfact>
</mgrwt>
</event>
<event>
 8      1 +5.0320763e-08 8.10878200e+01 7.81860800e-03 1.32599200e-01
        2 -1    0    0  501    0 +0.0000000000e+00 +0.0000000000e+00 +1.1814703772e+01 1.1814704047e+01 2.5500000000e-03 0.0000e+00 -1.0000e+00
       -1 -1    0    0    0  501 -0.0000000000e+00 -0.0000000000e+00 -1.3913245694e+02 1.3913245704e+02 5.0400000000e-03 0.0000e+00 1.0000e+00
       24  2    1    2    0    0 +3.5527136788e-15 -3.5527136788e-15 -1.2731775317e+02 1.5094716108e+02 8.1087823785e+01 0.0000e+00 0.0000e+00
       66  2    3    3    0    0 -2.8946834636e+01 +1.9343131939e+01 -6.5782044988e+01 8.0245460012e+01 2.9999673681e+01 0.0000e+00 0.0000e+00
      -13  1    3    3    0    0 +2.8946834636e+01 -1.9343131939e+01 -6.1535708183e+01 7.0701701071e+01 1.0566000000e-01 0.0000e+00 1.0000e+00
       13  1    4    4    0    0 -6.5790424442e+00 -9.3230979700e-01 -2.3393324305e+00 7.0453276216e+00 1.0566000000e-01 0.0000e+00 -1.0000e+00
      -13  1    4    4    0    0 -1.6386322744e+01 +7.4918461323e+00 -5.1991640607e+01 5.5025277724e+01 1.0566000000e-01 0.0000e+00 1.0000e+00
      -14  1    4    4    0    0 -5.9814694475e+00 +1.2783595604e+01 -1.1451071951e+01 1.8174854666e+01 0.0000000000e+00 0.0000e+00 1.0000e+00
<mgrwt>
<rscale>  0 0.81087824E+02</rscale>
<asrwt>0</asrwt>
<pdfrwt beam="1">  1        2 0.18176469E-02 0.81087824E+02</pdfrwt>
<pdfrwt beam="2">  1       -1 0.21404992E-01 0.81087824E+02</pdfrwt>
<totfact> 0.10623938E+05</totfact>
</mgrwt>
</event>
<event>
 8      1 +5.0320763e-08 8.02337700e+01 7.81860800e-03 1.32838900e-01
       -4 -1    0    0    0  501 -0.0000000000e+00 +0.0000000000e+00 +1.3328652748e+02 1.3329257784e+02 1.2700000000e+00 0.0000e+00 1.0000e+00
        3 -1    0    0  501    0 +0.0000000000e+00 -0.0000000000e+00 -1.2070941981e+01 1.2071364517e+01 1.0100000000e-01 0.0000e+00 -1.0000e+00
      -24  2    1    2    0    0 +0.0000000000e+00 +0.0000000000e+00 +1.2121558550e+02 1.4536394236e+02 8.0233768265e+01 0.0000e+00 0.0000e+00
       66  2    3    3    0    0 +1.2441966449e+01 -5.8587330028e+00 +1.2642207966e+02 1.3065863628e+02 3.0000162109e+01 0.0000e+00 0.0000e+00
       13  1    3    3    0    0 -1.2441966449e+01 +5.8587330028e+00 -5.2064941600e+00 1.4705306083e+01 1.0566000000e-01 0.0000e+00 -1.0000e+00
       13  1    4    4    0    0 -2.8641936243e+00 +3.6586500072e+00 +3.0271329205e+01 3.0626032405e+01 1.0566000000e-01 0.0000e+00 -1.0000e+00
      -13  1    4    4    0    0 +5.0207054606e-01 -5.9711539775e+00 +5.5708886308e+00 8.1824641049e+00 1.0566000000e-01 0.0000e+00 1.0000e+00
      -14  1    4    4    0    0 +1.4804089527e+01 -3.5462290325e+00 +9.0579861823e+01 9.1850139766e+01 0.0000000000e+00 0.0000e+00 1.0000e+00
<mgrwt>
<rscale>  0 0.80233768E+02</rscale>
<asrwt>0</asrwt>
<pdfrwt beam="1">  1        3 0.18571034E-02 0.80233768E+02</pdfrwt>
<pdfrwt beam="2">  1       -4 0.20511224E-01 0.80233768E+02</pdfrwt>
<totfact> 0.37392751E+04</totfact>
</mgrwt>
</event>
<event>
 8      1 +5.0320763e-08 8.12282300e+01 7.81860800e-03 1.32560200e-01
        3 -1    0    0  501    0 +0.0000000000e+00 +0.0000000000e+00 +2.4660100183e+00 2.4680774725e+00 1.0100000000e-01 0.0000e+00 -1.0000e+00
       -4 -1    0    0    0  501 -0.0000000000e+00 -0.0000000000e+00 -6.6845146254e+02 6.6845266898e+02 1.2700000000e+00 0.0000e+00 1.0000e+00
      -24  2    1    2    0    0 +0.0000000000e+00 +0.0000000000e+00 -6.6598545252e+02 6.7092074646e+02 8.1228228192e+01 0.0000e+00 0.0000e+00
       66  2    3    3    0    0 -1.3325491564e+01 +5.0121170301e+00 -6.4317563777e+02 6.4403229437e+02 3.0000085483e+01 0.0000e+00 0.0000e+00
       13  1    3    3    0    0 +1.3325491564e+01 -5.0121170301e+00 -2.2809814755e+01 2.6888452089e+01 1.0566000000e-01 0.0000e+00 -1.0000e+00
       13  1    4    4    0    0 -1.2380242948e+01 -2.3479480721e+00 -2.3023698788e+02 2.3058157999e+02 1.0566000000e-01 0.0000e+00 -1.0000e+00
      -13  1    4    4    0    0 +7.9270001845e-01 +1.2341050981e+01 -3.6730598748e+02 3.6751412152e+02 1.0566000000e-01 0.0000e+00 1.0000e+00
      -14  1    4    4    0    0 -1.7379486347e+00 -4.9809858783e+00 -4.5632662399e+01 4.5936592858e+01 0.0000000000e+00 0.0000e+00 1.0000e+00
<mgrwt>
<rscale>  0 0.81228228E+02</rscale>
<asrwt>0</asrwt>
<pdfrwt beam="1">  1        3 0.37954633E-03 0.81228228E+02</pdfrwt>
<pdfrwt beam="2">  1       -4 0.10286377E+00 0.81228228E+02</pdfrwt>
<totfact> 0.15355485E+04</totfact>
</mgrwt>
</event>
<event>
 8      1 +5.0320763e-08 8.10795500e+01 7.81860800e-03 1.32601500e-01
        2 -1    0    0  501    0 +0.0000000000e+00 +0.0000000000e+00 +1.7322290406e+02 1.7322290408e+02 2.5500000000e-03 0.0000e+00 -1.0000e+00
       -1 -1    0    0    0  501 -0.0000000000e+00 -0.0000000000e+00 -9.4876219744e+00 9.4876233130e+00 5.0400000000e-03 0.0000e+00 1.0000e+00
       24  2    1    2    0    0 -7.1054273576e-15 -4.4408920985e-16 +1.6373528209e+02 1.8271052739e+02 8.1079554884e+01 0.0000e+00 0.0000e+00
       66  2    3    3    0    0 -3.1617170210e+01 +2.5308904358e+00 +1.2636478722e+02 1.3369404130e+02 2.9999772845e+01 0.0000e+00 0.0000e+00
      -13  1    3    3    0    0 +3.1617170210e+01 -2.5308904358e+00 +3.7370494864e+01 4.9016486093e+01 1.0566000000e-01 0.0000e+00 1.0000e+00
       13  1    4    4    0    0 -2.1253892047e+01 +2.7885691727e-01 +8.8284090504e+01 9.0806924232e+01 1.0566000000e-01 0.0000e+00 -1.0000e+00
      -13  1    4    4    0    0 +4.4555980182e+00 -3.4683950715e-02 +5.9903860463e+00 7.4665551425e+00 1.0566000000e-01 0.0000e+00 1.0000e+00
       14  1    4    4    0    0 -1.4818876181e+01 +2.2867174692e+00 +3.2090310672e+01 3.5420561925e+01 0.0000000000e+00 0.0000e+00 -1.0000e+00
<mgrwt>
<rscale>  0 0.81079555E+02</rscale>
<asrwt>0</asrwt>
<pdfrwt beam="1">  1        2 0.26649676E-01 0.81079555E+02</pdfrwt>
<pdfrwt beam="2">  1       -1 0.14596343E-02 0.81079555E+02</pdfrwt>
<totfact> 0.20268505E+05</totfact>
</mgrwt>
</event>
<event>
 8      1 +5.0320763e-08 8.09881500e+01 7.81860800e-03 1.32627000e-01
       -2 -1    0    0    0  501 -0.0000000000e+00 +0.0000000000e+00 +4.4922473211e+02 4.4922473212e+02 2.5500000000e-03 0.0000e+00 1.0000e+00
        1 -1    0    0  501    0 +0.0000000000e+00 -0.0000000000e+00 -3.6502205030e+00 3.6502239824e+00 5.0400000000e-03 0.0000e+00 -1.0000e+00
      -24  2    1    2    0    0 +0.0000000000e+00 +0.0000000000e+00 +4.4557451161e+02 4.5287495610e+02 8.0988150173e+01 0.0000e+00 0.0000e+00
       66  2    3    3    0    0 -3.0640205464e+01 -1.4257132714e+01 +3.0291375776e+02 3.0626598681e+02 3.0000366864e+01 0.0000e+00 0.0000e+00
       13  1    3    3    0    0 +3.0640205464e+01 +1.4257132714e+01 +1.4266075384e+02 1.4660896929e+02 1.0566000000e-01 0.0000e+00 -1.0000e+00
       13  1    4    4    0    0 -6.8008499806e+00 -8.2776179503e+00 +2.6217304567e+01 2.8321877448e+01 1.0566000000e-01 0.0000e+00 -1.0000e+00
      -13  1    4    4    0    0 -7.7932444885e+00 +6.3818514409e-01 +1.2787374490e+02 1.2811263692e+02 1.0566000000e-01 0.0000e+00 1.0000e+00
       14  1    4    4    0    0 -1.6046110994e+01 -6.6176999081e+00 +1.4882270829e+02 1.4983147244e+02 0.0000000000e+00 0.0000e+00 -1.0000e+00
<mgrwt>
<rscale>  0 0.80988150E+02</rscale>
<asrwt>0</asrwt>
<pdfrwt beam="1">  1        1 0.56157266E-03 0.80988150E+02</pdfrwt>
<pdfrwt beam="2">  1       -2 0.69111496E-01 0.80988150E+02</pdfrwt>
<totfact> 0.52847244E+04</totfact>
</mgrwt>
</event>
<event>
 8      1 +5.0320763e-08 8.20313000e+01 7.81860800e-03 1.32338400e-01
        3 -1    0    0  501    0 +0.0000000000e+00 +0.0000000000e+00 +4.7049381706e+01 4.7049490113e+01 1.0100000000e-01 0.0000e+00 -1.0000e+00
       -4 -1    0    0    0  501 -0.0000000000e+00 -0.0000000000e+00 -3.5735757653e+01 3.5758317564e+01 1.2700000000e+00 0.0000e+00 1.0000e+00
      -24  2    1    2    0    0 -1.7763568394e-15 +0.0000000000e+00 +1.1313624053e+01 8.2807807677e+01 8.2031304531e+01 0.0000e+00 0.0000e+00
       66  2    3    3    0    0 +1.4166384191e+01 +1.4718424252e+01 -2.2931451128e+01 4.2932316562e+01 3.0000231683e+01 0.0000e+00 0.0000e+00
       13  1    3    3    0    0 -1.4166384191e+01 -1.4718424252e+01 +3.4245075181e+01 3.9875491115e+01 1.0566000000e-01 0.0000e+00 -1.0000e+00
       13  1    4    4    0    0 +3.3741126011e+00 +9.3427957894e+00 -1.6658350756e+01 1.9395470681e+01 1.0566000000e-01 0.0000e+00 -1.0000e+00
      -13  1    4    4    0    0 -3.8228909511e-01 +8.0071990343e+00 -8.6705555471e+00 1.1808940632e+01 1.0566000000e-01 0.0000e+00 1.0000e+00
       14  1    4    4    0    0 +1.1174560685e+01 -2.6315705721e+00 +2.3974551755e+00 1.1727905248e+01 0.0000000000e+00 0.0000e+00 -1.0000e+00
<mgrwt>
<rscale>  0 0.82031305E+02</rscale>
<asrwt>0</asrwt>
<pdfrwt beam="1">  1        3 0.72383861E-02 0.82031305E+02</pdfrwt>
<pdfrwt beam="2">  1       -4 0.55008624E-02 0.82031305E+02</pdfrwt>
<totfact> 0.42071805E+04</totfact>
</mgrwt>
</event>
<event>
 8      1 +5.0320763e-08 7.96904700e+01 7.81860800e-03 1.32993200e-01
       -1 -1    0    0    0  501 -0.0000000000e+00 +0.0000000000e+00 +1.2476537264e+01 1.2476538281e+01 5.0400000000e-03 0.0000e+00 1.0000e+00
        2 -1    0    0  501    0 +0.0000000000e+00 -0.0000000000e+00 -1.2725027882e+02 1.2725027885e+02 2.5500000000e-03 0.0000e+00 -1.0000e+00
       24  2    1    2    0    0 -3.5527136788e-15 -5.3290705182e-15 -1.1477374156e+02 1.3972681713e+02 7.9690474172e+01 0.0000e+00 0.0000e+00
       66  2    3    3    0    0 -1.7019076709e+01 -1.1322840525e+01 -1.1359108442e+02 1.1925084264e+02 2.9999555330e+01 0.0000e+00 0.0000e+00
      -13  1    3    3    0    0 +1.7019076709e+01 +1.1322840525e+01 -1.1826571399e+00 2.0475974495e+01 1.0566000000e-01 0.0000e+00 1.0000e+00
       13  1    4    4    0    0 -1.5049564547e+01 -9.0846801976e+00 -8.5323605988e+01 8.7115725964e+01 1.0566000000e-01 0.0000e+00 -1.0000e+00
      -13  1    4    4    0    0 -7.7971289631e+00 +2.0058180169e+00 -1.5802781522e+01 1.7735771588e+01 1.0566000000e-01 0.0000e+00 1.0000e+00
      -14  1    4    4    0    0 +5.8276168010e+00 -4.2439783442e+00 -1.2464696911e+01 1.4399345084e+01 0.0000000000e+00 0.0000e+00 1.0000e+00
<mgrwt>
<rscale>  0 0.79690474E+02</rscale>
<asrwt>0</asrwt>
<pdfrwt beam="1">  1        2 0.19576965E-01 0.79690474E+02</pdfrwt>
<pdfrwt beam="2">  1       -1 0.19194674E-02 0.79690474E+02</pdfrwt>
<totfact> 0.19218627E+05</totfact>
</mgrwt>
</event>
<event>
 8      1 +5.0320763e-08 8.40817500e+01 7.81860800e-03 1.31785100e-01
       -1 -1    0    0    0  501 -0.0000000000e+00 +0.0000000000e+00 +5.2178803386e+00 5.2178827727e+00 5.0400000000e-03 0.0000e+00 1.0000e+00
        2 -1    0    0  501    0 +0.0000000000e+00 -0.0000000000e+00 -3.3872654672e+02 3.3872654673e+02 2.5500000000e-03 0.0000e+00 -1.0000e+00
       24  2    1    2    0    0 +1.7763568394e-15 +0.0000000000e+00 -3.3350866639e+02 3.4394442951e+02 8.4081746142e+01 0.0000e+00 0.0000e+00
       66  2    3    3    0    0 -1.2429491998e+01 -3.4286091804e+01 -2.0434663503e+02 2.0973239626e+02 3.0001707065e+01 0.0000e+00 0.0000e+00
      -13  1    3    3    0    0 +1.2429491998e+01 +3.4286091804e+01 -1.2916203135e+02 1.3421203325e+02 1.0566000000e-01 0.0000e+00 1.0000e+00
       13  1    4    4    0    0 -5.1384631065e+00 -4.5302747506e+00 -6.3183607582e+01 6.3553966229e+01 1.0566000000e-01 0.0000e+00 1.0000e+00
      -13  1    4    4    0    0 -1.4530605646e+01 -2.5995953975e+01 -1.0866894487e+02 1.1267599064e+02 1.0566000000e-01 0.0000e+00 -1.0000e+00
       14  1    4    4    0    0 +7.2395767546e+00 -3.7598630786e+00 -3.2494082579e+01 3.3502439383e+01 0.0000000000e+00 0.0000e+00 -1.0000e+00
<mgrwt>
<rscale>  0 0.84081746E+02</rscale>
<asrwt>0</asrwt>
<pdfrwt beam="1">  1        2 0.52111759E-01 0.84081746E+02</pdfrwt>
<pdfrwt beam="2">  1       -1 0.80275128E-03 0.84081746E+02</pdfrwt>
<totfact> 0.23375141E+05</totfact>
</mgrwt>
</event>
<event>
 8      1 +5.0320763e-08 8.28542000e+01 7.81860800e-03 1.32114100e-01
       -3 -1    0    0    0  501 -0.0000000000e+00 +0.0000000000e+00 +8.7535080973e+01 8.7535139241e+01 1.0100000000e-01 0.0000e+00 1.0000e+00
        4 -1    0    0  501    0 +0.0000000000e+00 -0.0000000000e+00 -1.9580694273e+01 1.9621837025e+01 1.2700000000e+00 0.0000e+00 -1.0000e+00
       24  2    1    2    0    0 +0.0000000000e+00 -1.4210854715e-14 +6.7954386700e+01 1.0715697627e+02 8.2854202613e+01 0.0000e+00 0.0000e+00
       66  2    3    3    0    0 +6.0442193338e+00 +3.5441678803e+01 +4.0701764229e+01 6.2041992287e+01 2.9998833509e+01 0.0000e+00 0.0000e+00
      -13  1    3    3    0    0 -6.0442193338e+00 -3.5441678803e+01 +2.7252622471e+01 4.5114983978e+01 1.0566000000e-01 0.0000e+00 1.0000e+00
       13  1    4    4    0    0 +6.9904223016e+00 +1.0058662008e+01 +5.9813810208e+00 1.3631975950e+01 1.0566000000e-01 0.0000e+00 -1.0000e+00
      -13  1    4    4    0    0 +4.1542863131e-01 -3.6677404189e+00 +8.9220068828e-01 3.7989586510e+00 1.0566000000e-01 0.0000e+00 1.0000e+00
      -14  1    4    4    0    0 -1.3616315991e+00 +2.9050757214e+01 +3.3828182520e+01 4.4611057686e+01 0.0000000000e+00 0.0000e+00 1.0000e+00
<mgrwt>
<rscale>  0 0.82854203E+02</rscale>
<asrwt>0</asrwt>
<pdfrwt beam="1">  1        4 0.30162878E-02 0.82854203E+02</pdfrwt>
<pdfrwt beam="2">  1       -3 0.13466961E-01 0.82854203E+02</pdfrwt>
<totfact> 0.39416557E+04</totfact>
</mgrwt>
</event>
<event>
 8      1 +5.0320763e-08 7.89689200e+01 7.81860800e-03 1.33200300e-01
       -1 -1    0    0    0  501 -0.0000000000e+00 +0.0000000000e+00 +6.9258089660e+01 6.9258089844e+01 5.0400000000e-03 0.0000e+00 1.0000e+00
        2 -1    0    0  501    0 +0.0000000000e+00 -0.0000000000e+00 -2.2510332262e+01 2.2510332407e+01 2.5500000000e-03 0.0000e+00 -1.0000e+00
       24  2    1    2    0    0 -3.5527136788e-15 +0.0000000000e+00 +4.6747757398e+01 9.1768422250e+01 7.8968921106e+01 0.0000e+00 0.0000e+00
       66  2    3    3    0    0 -2.9821140325e+01 +7.8913856193e+00 +1.0732026049e+01 4.4347768038e+01 2.9999562823e+01 0.0000e+00 0.0000e+00
      -13  1    3    3    0    0 +2.9821140325e+01 -7.8913856193e+00 +3.6015731350e+01 4.7420654212e+01 1.0566000000e-01 0.0000e+00 1.0000e+00
       13  1    4    4    0    0 -1.6145166496e+01 +2.8326190962e+00 -2.7933074154e+00 1.6628405290e+01 1.0566000000e-01 0.0000e+00 -1.0000e+00
      -13  1    4    4    0    0 -5.8259536949e+00 -7.3617840019e+00 +3.9783164219e+00 1.0196850775e+01 1.0566000000e-01 0.0000e+00 1.0000e+00
      -14  1    4    4    0    0 -7.8500201337e+00 +1.2420550525e+01 +9.5470170421e+00 1.7522511973e+01 0.0000000000e+00 0.0000e+00 1.0000e+00
<mgrwt>
<rscale>  0 0.78968921E+02</rscale>
<asrwt>0</asrwt>
<pdfrwt beam="1">  1        2 0.34631280E-02 0.78968921E+02</pdfrwt>
<pdfrwt beam="2">  1       -1 0.10655091E-01 0.78968921E+02</pdfrwt>
<totfact> 0.13191732E+05</totfact>
</mgrwt>
</event>
<event>
 8      1 +5.0320763e-08 7.91834200e+01 7.81860800e-03 1.33138500e-01
       -4 -1    0    0    0  501 -0.0000000000e+00 +0.0000000000e+00 +5.8329407227e+01 5.8343231377e+01 1.2700000000e+00 0.0000e+00 1.0000e+00
        3 -1    0    0  501    0 +0.0000000000e+00 -0.0000000000e+00 -2.6863063237e+01 2.6863253107e+01 1.0100000000e-01 0.0000e+00 -1.0000e+00
      -24  2    1    2    0    0 +0.0000000000e+00 +3.3306690739e-16 +3.1466343990e+01 8.5206484484e+01 7.9183421206e+01 0.0000e+00 0.0000e+00
       66  2    3    3    0    0 -1.2728316819e+01 -6.7136650742e-01 +5.1803523065e+01 6.1204967890e+01 2.9999705172e+01 0.0000e+00 0.0000e+00
       13  1    3    3    0    0 +1.2728316819e+01 +6.7136650742e-01 -2.0337179075e+01 2.4001516594e+01 1.0566000000e-01 0.0000e+00 -1.0000e+00
       13  1    4    4    0    0 -7.9325825648e+00 -8.3000845984e+00 +6.7783211366e+00 1.3333194364e+01 1.0566000000e-01 0.0000e+00 -1.0000e+00
      -13  1    4    4    0    0 -4.3090018335e+00 +1.1140917275e+01 +2.7358205632e+01 2.9852472493e+01 1.0566000000e-01 0.0000e+00 1.0000e+00
      -14  1    4    4    0    0 -4.8673242074e-01 -3.5121991839e+00 +1.7666996297e+01 1.8019301032e+01 0.0000000000e+00 0.0000e+00 1.0000e+00
<mgrwt>
<rscale>  0 0.79183421E+02</rscale>
<asrwt>0</asrwt>
<pdfrwt beam="1">  1        3 0.41328003E-02 0.79183421E+02</pdfrwt>
<pdfrwt beam="2">  1       -4 0.89771276E-02 0.79183421E+02</pdfrwt>
<totfact> 0.45302064E+04</totfact>
</mgrwt>
</event>
<event>
 8      1 +5.0320763e-08 8.01160000e+01 7.81860800e-03 1.32872300e-01
       -4 -1    0    0    0  501 -0.0000000000e+00 +0.0000000000e+00 +2.7889682895e+02 2.7889972051e+02 1.2700000000e+00 0.0000e+00 1.0000e+00
        3 -1    0    0  501    0 +0.0000000000e+00 -0.0000000000e+00 -5.7516088663e+00 5.7524955933e+00 1.0100000000e-01 0.0000e+00 -1.0000e+00
      -24  2    1    2    0    0 +0.0000000000e+00 +0.0000000000e+00 +2.7314522009e+02 2.8465221610e+02 8.0115996378e+01 0.0000e+00 0.0000e+00
       66  2    3    3    0    0 +4.5725333522e+00 -2.0927939405e+01 +2.5154065060e+02 2.5422763236e+02 3.0001724018e+01 0.0000e+00 0.0000e+00
       13  1    3    3    0    0 -4.5725333522e+00 +2.0927939405e+01 +2.1604569490e+01 3.0424583742e+01 1.0566000000e-01 0.0000e+00 -1.0000e+00
       13  1    4    4    0    0 +1.6214954032e+00 +6.0587760982e+00 +3.7684825443e+01 3.8203340795e+01 1.0566000000e-01 0.0000e+00 -1.0000e+00
      -13  1    4    4    0    0 +8.3135108583e-01 -6.4792522283e+00 +1.0690640127e+02 1.0710584321e+02 1.0566000000e-01 0.0000e+00 1.0000e+00
       14  1    4    4    0    0 +2.1196868631e+00 -2.0507463275e+01 +1.0694942388e+02 1.0891844835e+02 0.0000000000e+00 0.0000e+00 -1.0000e+00
<mgrwt>
<rscale>  0 0.80115996E+02</rscale>
<asrwt>0</asrwt>
<pdfrwt beam="1">  1        3 0.88493268E-03 0.80115996E+02</pdfrwt>
<pdfrwt beam="2">  1       -4 0.42918204E-01 0.80115996E+02</pdfrwt>
<totfact> 0.28310590E+04</totfact>
</mgrwt>
</event>
<event>
 8      1 +5.0320763e-08 8.33425300e+01 7.81860800e-03 1.31982500e-01
       -4 -1    0    0    0  501 -0.0000000000e+00 +0.0000000000e+00 +3.6988906282e+02 3.6989124306e+02 1.2700000000e+00 0.0000e+00 1.0000e+00
        3 -1    0    0  501    0 +0.0000000000e+00 -0.0000000000e+00 -4.6929816771e+00 4.6940683870e+00 1.0100000000e-01 0.0000e+00 -1.0000e+00
      -24  2    1    2    0    0 +0.0000000000e+00 -3.5527136788e-15 +3.6519608114e+02 3.7458531145e+02 8.3342533385e+01 0.0000e+00 0.0000e+00
       66  2    3    3    0    0 -1.3569675952e+01 +2.5943877639e+01 +3.0249017484e+02 3.0538081201e+02 2.9998559648e+01 0.0000e+00 0.0000e+00
       13  1    3    3    0    0 +1.3569675952e+01 -2.5943877639e+01 +6.2705906308e+01 6.9204499437e+01 1.0566000000e-01 0.0000e+00 -1.0000e+00
       13  1    4    4    0    0 -6.8988371767e+00 +1.8112398961e+01 +2.3662189167e+02 2.3741437137e+02 1.0566000000e-01 0.0000e+00 1.0000e+00
      -13  1    4    4    0    0 -5.8368068079e+00 -2.1845135911e+00 +3.3453838658e+01 3.4029559185e+01 1.0566000000e-01 0.0000e+00 -1.0000e+00
      -14  1    4    4    0    0 -8.3403196727e-01 +1.0015992269e+01 +3.2414444509e+01 3.3936881461e+01 0.0000000000e+00 0.0000e+00 1.0000e+00
<mgrwt>
<rscale>  0 0.83342533E+02</rscale>
<asrwt>0</asrwt>
<pdfrwt beam="1">  1        3 0.72208186E-03 0.83342533E+02</pdfrwt>
<pdfrwt beam="2">  1       -4 0.56919392E-01 0.83342533E+02</pdfrwt>
<totfact> 0.21896132E+04</totfact>
</mgrwt>
</event>
<event>
 8      1 +5.0320763e-08 7.69952200e+01 7.81860800e-03 1.33780100e-01
       -3 -1    0    0    0  501 -0.0000000000e+00 +0.0000000000e+00 +7.6804441803e+00 7.6811082408e+00 1.0100000000e-01 0.0000e+00 1.0000e+00
        4 -1    0    0  501    0 +0.0000000000e+00 -0.0000000000e+00 -1.9290290813e+02 1.9290708868e+02 1.2700000000e+00 0.0000e+00 -1.0000e+00
       24  2    1    2    0    0 +0.0000000000e+00 +0.0000000000e+00 -1.8522246395e+02 2.0058819692e+02 7.6995217997e+01 0.0000e+00 0.0000e+00
       66  2    3    3    0    0 -2.4675717522e+01 +1.4258804511e+01 -1.4819055175e+02 1.5385942392e+02 3.0001302643e+01 0.0000e+00 0.0000e+00
      -13  1    3    3    0    0 +2.4675717522e+01 -1.4258804511e+01 -3.7031912201e+01 4.6728773005e+01 1.0566000000e-01 0.0000e+00 1.0000e+00
       13  1    4    4    0    0 -4.3769225045e+00 +6.7975243494e+00 -1.0399822063e+02 1.0431205513e+02 1.0566000000e-01 0.0000e+00 -1.0000e+00
      -13  1    4    4    0    0 -9.2888068854e+00 +3.6545280487e+00 -1.4075505596e+01 1.7255970863e+01 1.0566000000e-01 0.0000e+00 1.0000e+00
       14  1    4    4    0    0 -1.1009988132e+01 +3.8067521130e+00 -3.0116825520e+01 3.2291397921e+01 0.0000000000e+00 0.0000e+00 -1.0000e+00
<mgrwt>
<rscale>  0 0.76995218E+02</rscale>
<asrwt>0</asrwt>
<pdfrwt beam="1">  1        4 0.29685763E-01 0.76995218E+02</pdfrwt>
<pdfrwt beam="2">  1       -3 0.11816601E-02 0.76995218E+02</pdfrwt>
<totfact> 0.36929645E+04</totfact>
</mgrwt>
</event>
<event>
 8      1 +5.0320763e-08 8.01005800e+01 7.81860800e-03 1.32876600e-01
       -1 -1    0    0    0  501 -0.0000000000e+00 +0.0000000000e+00 +2.7553100655e+00 2.7553146751e+00 5.0400000000e-03 0.0000e+00 1.0000e+00
        2 -1    0    0  501    0 +0.0000000000e+00 -0.0000000000e+00 -5.8215743762e+02 5.8215743763e+02 2.5500000000e-03 0.0000e+00 -1.0000e+00
       24  2    1    2    0    0 +0.0000000000e+00 +3.5527136788e-15 -5.7940212756e+02 5.8491275230e+02 8.0100576711e+01 0.0000e+00 0.0000e+00
       66  2    3    3    0    0 +2.3321119689e+01 +1.9835227749e+01 -4.4539323520e+02 4.4745110209e+02 3.0000731991e+01 0.0000e+00 0.0000e+00
      -13  1    3    3    0    0 -2.3321119689e+01 -1.9835227749e+01 -1.3400889236e+02 1.3746165021e+02 1.0566000000e-01 0.0000e+00 1.0000e+00
       13  1    4    4    0    0 +2.2154040193e+00 +6.7340078672e+00 -1.0823416876e+02 1.0846612986e+02 1.0566000000e-01 0.0000e+00 -1.0000e+00
      -13  1    4    4    0    0 +3.5036632451e+00 +1.4730108788e+01 -2.1759796898e+02 2.1812413675e+02 1.0566000000e-01 0.0000e+00 1.0000e+00
      -14  1    4    4    0    0 +1.7602052425e+01 -1.6288889062e+00 -1.1956109746e+02 1.2086083549e+02 0.0000000000e+00 0.0000e+00 1.0000e+00
<mgrwt>
<rscale>  0 0.80100577E+02</rscale>
<asrwt>0</asrwt>
<pdfrwt beam="1">  1        2 0.89562585E-01 0.80100577E+02</pdfrwt>
<pdfrwt beam="2">  1       -1 0.42389467E-03 0.80100577E+02</pdfrwt>
<totfact> 0.31786365E+05</totfact>
</mgrwt>
</event>
<event>
 8      1 +5.0320763e-08 8.43106200e+01 7.81860800e-03 1.31724500e-01
       -2 -1    0    0    0  501 -0.0000000000e+00 +0.0000000000e+00 +6.9839355504e+00 6.9839360159e+00 2.5500000000e-03 0.0000e+00 1.0000e+00
        1 -1    0    0  501    0 +0.0000000000e+00 -0.0000000000e+00 -2.5445108258e+02 2.5445108263e+02 5.0400000000e-03 0.0000e+00 -1.0000e+00
      -24  2    1    2    0    0 +0.0000000000e+00 +4.4408920985e-16 -2.4746714703e+02 2.6143501864e+02 8.4310616860e+01 0.0000e+00 0.0000e+00
       66  2    3    3    0    0 -3.0423388067e+01 -3.4289079604e+00 -7.5986440976e+01 8.7242643198e+01 2.9999993813e+01 0.0000e+00 0.0000e+00
       13  1    3    3    0    0 +3.0423388067e+01 +3.4289079604e+00 -1.7148070605e+02 1.7419237545e+02 1.0566000000e-01 0.0000e+00 -1.0000e+00
       13  1    4    4    0    0 +1.4921439148e+00 +2.3168535352e+00 -7.7224416630e-01 2.8638835266e+00 1.0566000000e-01 0.0000e+00 -1.0000e+00
      -13  1    4    4    0    0 +2.5524111443e+00 +1.0940466466e+00 -3.1308804595e+00 4.1863250235e+00 1.0566000000e-01 0.0000e+00 1.0000e+00
       14  1    4    4    0    0 -3.4467943126e+01 -6.8398081421e+00 -7.2083316350e+01 8.0192434648e+01 0.0000000000e+00 0.0000e+00 -1.0000e+00
<mgrwt>
<rscale>  0 0.84310617E+02</rscale>
<asrwt>0</asrwt>
<pdfrwt beam="1">  1        1 0.39146313E-01 0.84310617E+02</pdfrwt>
<pdfrwt beam="2">  1       -2 0.10744519E-02 0.84310617E+02</pdfrwt>
<totfact> 0.15205584E+05</totfact>
</mgrwt>
</event>
<event>
 8      1 +5.0320763e-08 8.10437900e+01 7.81860800e-03 1.32611500e-01
        2 -1    0    0  501    0 +0.0000000000e+00 +0.0000000000e+00 +9.7611028173e+02 9.7611028173e+02 2.5500000000e-03 0.0000e+00 -1.0000e+00
       -1 -1    0    0    0  501 -0.0000000000e+00 -0.0000000000e+00 -1.6822078358e+00 1.6822153858e+00 5.0400000000e-03 0.0000e+00 1.0000e+00
       24  2    1    2    0    0 +1.7763568394e-15 +1.7763568394e-15 +9.7442807389e+02 9.7779249712e+02 8.1043792047e+01 0.0000e+00 0.0000e+00
       66  2    3    3    0    0 +1.2489652877e+01 +1.2679397613e+01 +9.1714647229e+02 9.1780956956e+02 2.9999929644e+01 0.0000e+00 0.0000e+00
      -13  1    3    3    0    0 -1.2489652877e+01 -1.2679397613e+01 +5.7281601597e+01 5.9982927557e+01 1.0566000000e-01 0.0000e+00 1.0000e+00
       13  1    4    4    0    0 +1.4107987065e+00 +5.3665229429e+00 +2.4228602085e+02 2.4234957599e+02 1.0566000000e-01 0.0000e+00 -1.0000e+00
      -13  1    4    4    0    0 -6.1747430235e+00 +2.1312890478e+00 +3.7619687171e+02 3.7625359439e+02 1.0566000000e-01 0.0000e+00 1.0000e+00
      -14  1    4    4    0    0 +1.7253597194e+01 +5.1815856225e+00 +2.9866357974e+02 2.9920639918e+02 0.0000000000e+00 0.0000e+00 1.0000e+00
<mgrwt>
<rscale>  0 0.81043792E+02</rscale>
<asrwt>0</asrwt>
<pdfrwt beam="1">  1        2 0.15017063E+00 0.81043792E+02</pdfrwt>
<pdfrwt beam="2">  1       -1 0.25880210E-03 0.81043792E+02</pdfrwt>
<totfact> 0.34023032E+05</totfact>
</mgrwt>
</event>
<event>
 8      1 +5.0320763e-08 7.97918100e+01 7.81860800e-03 1.32964300e-01
        2 -1    0    0  501    0 +0.0000000000e+00 +0.0000000000e+00 +2.5379245154e+01 2.5379245282e+01 2.5500000000e-03 0.0000e+00 -1.0000e+00
       -1 -1    0    0    0  501 -0.0000000000e+00 -0.0000000000e+00 -6.2715942909e+01 6.2715943111e+01 5.0400000000e-03 0.0000e+00 1.0000e+00
       24  2    1    2    0    0 +3.5527136788e-15 +0.0000000000e+00 -3.7336697755e+01 8.8095188393e+01 7.9791811728e+01 0.0000e+00 0.0000e+00
       66  2    3    3    0    0 -2.8283632974e+01 +1.9251582203e+01 -1.9430464590e+01 4.9478719604e+01 3.0000223799e+01 0.0000e+00 0.0000e+00
      -13  1    3    3    0    0 +2.8283632974e+01 -1.9251582203e+01 -1.7906233165e+01 3.8616468789e+01 1.0566000000e-01 0.0000e+00 1.0000e+00
       13  1    4    4    0    0 -2.5425781808e+01 +9.0460597504e+00 -2.3386588086e+01 3.5710576079e+01 1.0566000000e-01 0.0000e+00 -1.0000e+00
      -13  1    4    4    0    0 +2.5334904875e+00 +4.5893580916e+00 +2.6476629707e+00 5.8738458428e+00 1.0566000000e-01 0.0000e+00 1.0000e+00
      -14  1    4    4    0    0 -5.3913416529e+00 +5.6161643614e+00 +1.3084605253e+00 7.8942976824e+00 0.0000000000e+00 0.0000e+00 1.0000e+00
<mgrwt>
<rscale>  0 0.79791812E+02</rscale>
<asrwt>0</asrwt>
<pdfrwt beam="1">  1        2 0.39044993E-02 0.79791812E+02</pdfrwt>
<pdfrwt beam="2">  1       -1 0.96486066E-02 0.79791812E+02</pdfrwt>
<totfact> 0.13115304E+05</totfact>
</mgrwt>
</event>
<event>
 8      1 +5.0320763e-08 7.96846300e+01 7.81860800e-03 1.32994900e-01
        2 -1    0    0  501    0 +0.0000000000e+00 +0.0000000000e+00 +1.6444434220e+02 1.6444434222e+02 2.5500000000e-03 0.0000e+00 -1.0000e+00
       -1 -1    0    0    0  501 -0.0000000000e+00 -0.0000000000e+00 -9.6531748400e+00 9.6531761557e+00 5.0400000000e-03 0.0000e+00 1.0000e+00
       24  2    1    2    0    0 +1.7763568394e-15 +0.0000000000e+00 +1.5479116736e+02 1.7409751838e+02 7.9684630965e+01 0.0000e+00 0.0000e+00
       66  2    3    3    0    0 -9.2943107158e+00 +5.0776020952e+00 +1.5940221219e+02 1.6254593177e+02 2.9999140495e+01 0.0000e+00 0.0000e+00
      -13  1    3    3    0    0 +9.2943107158e+00 -5.0776020952e+00 -4.6110448249e+00 1.1551586607e+01 1.0566000000e-01 0.0000e+00 1.0000e+00
       13  1    4    4    0    0 -9.6145685210e+00 -4.6187675098e-01 +1.0048011132e+02 1.0094016640e+02 1.0566000000e-01 0.0000e+00 -1.0000e+00
      -13  1    4    4    0    0 +9.0042366026e-01 +5.3214591053e+00 +6.0064227607e+01 6.0306312206e+01 1.0566000000e-01 0.0000e+00 1.0000e+00
      -14  1    4    4    0    0 -5.8016585507e-01 +2.1801974090e-01 -1.1421267424e+00 1.2994531628e+00 0.0000000000e+00 0.0000e+00 1.0000e+00
<mgrwt>
<rscale>  0 0.79684631E+02</rscale>
<asrwt>0</asrwt>
<pdfrwt beam="1">  1        2 0.25299128E-01 0.79684631E+02</pdfrwt>
<pdfrwt beam="2">  1       -1 0.14851040E-02 0.79684631E+02</pdfrwt>
<totfact> 0.20857338E+05</totfact>
</mgrwt>
</event>
<event>
 8      1 +5.0320763e-08 8.04717100e+01 7.81860800e-03 1.32771800e-01
       -1 -1    0    0    0  501 -0.0000000000e+00 +0.0000000000e+00 +3.5046787108e+01 3.5046787470e+01 5.0400000000e-03 0.0000e+00 1.0000e+00
        2 -1    0    0  501    0 +0.0000000000e+00 -0.0000000000e+00 -4.6193222425e+01 4.6193222495e+01 2.5500000000e-03 0.0000e+00 -1.0000e+00
       24  2    1    2    0    0 +0.0000000000e+00 -3.5527136788e-15 -1.1146435317e+01 8.1240009965e+01 8.0471710550e+01 0.0000e+00 0.0000e+00
       66  2    3    3    0    0 -2.4184205974e+01 +1.7876646507e+01 -2.3709255566e+01 4.8647281856e+01 2.9999648724e+01 0.0000e+00 0.0000e+00
      -13  1    3    3    0    0 +2.4184205974e+01 -1.7876646507e+01 +1.2562820249e+01 3.2592728109e+01 1.0566000000e-01 0.0000e+00 1.0000e+00
       13  1    4    4    0    0 +1.8150090045e+00 +8.2920459032e+00 -6.8500146694e+00 1.0908077189e+01 1.0566000000e-01 0.0000e+00 -1.0000e+00
      -13  1    4    4    0    0 -2.7432789957e+00 +3.7828316561e+00 +3.8559405457e+00 6.0592768969e+00 1.0566000000e-01 0.0000e+00 1.0000e+00
       14  1    4    4    0    0 -2.3255935983e+01 +5.8017689481e+00 -2.0715181443e+01 3.1679927771e+01 0.0000000000e+00 0.0000e+00 -1.0000e+00
<mgrwt>
<rscale>  0 0.80471711E+02</rscale>
<asrwt>0</asrwt>
<pdfrwt beam="1">  1        2 0.71066496E-02 0.80471711E+02</pdfrwt>
<pdfrwt beam="2">  1       -1 0.53918135E-02 0.80471711E+02</pdfrwt>
<totfact> 0.14455018E+05</totfact>
</mgrwt>
</event>
<event>
 8      1 +5.0320763e-08 7.87420200e+01 7.81860800e-03 1.33266000e-01
       -3 -1    0    0    0  501 -0.0000000000e+00 +0.0000000000e+00 +3.3360227679e+01 3.3360380570e+01 1.0100000000e-01 0.0000e+00 1.0000e+00
        4 -1    0    0  501    0 +0.0000000000e+00 -0.0000000000e+00 -4.6443848699e+01 4.6461209433e+01 1.2700000000e+00 0.0000e+00 -1.0000e+00
       24  2    1    2    0    0 +0.0000000000e+00 -5.3290705182e-15 -1.3083621021e+01 7.9821590003e+01 7.8742016050e+01 0.0000e+00 0.0000e+00
       66  2    3    3    0    0 -1.1619871519e+01 -1.5846338854e+01 -3.5190020525e+01 5.0244032087e+01 2.9999955776e+01 0.0000e+00 0.0000e+00
      -13  1    3    3    0    0 +1.1619871519e+01 +1.5846338854e+01 +2.2106399505e+01 2.9577557916e+01 1.0566000000e-01 0.0000e+00 1.0000e+00
       13  1    4    4    0    0 -1.5319312063e+00 +2.7562044880e+00 -6.6652876384e+00 7.3743270702e+00 1.0566000000e-01 0.0000e+00 -1.0000e+00
      -13  1    4    4    0    0 -8.4802079207e+00 -2.3827171405e+01 -1.8107423889e+01 3.1105272663e+01 1.0566000000e-01 0.0000e+00 1.0000e+00
      -14  1    4    4    0    0 -1.6077323925e+00 +5.2246280626e+00 -1.0417308998e+01 1.1764432353e+01 0.0000000000e+00 0.0000e+00 1.0000e+00
<mgrwt>
<rscale>  0 0.78742016E+02</rscale>
<asrwt>0</asrwt>
<pdfrwt beam="1">  1        4 0.71484020E-02 0.78742016E+02</pdfrwt>
<pdfrwt beam="2">  1       -3 0.51323633E-02 0.78742016E+02</pdfrwt>
<totfact> 0.46879681E+04</totfact>
</mgrwt>
</event>
<event>
 8      1 +5.0320763e-08 7.75495800e+01 7.81860800e-03 1.33615300e-01
       -2 -1    0    0    0  501 -0.0000000000e+00 +0.0000000000e+00 +1.2392866458e+01 1.2392866720e+01 2.5500000000e-03 0.0000e+00 1.0000e+00
        1 -1    0    0  501    0 +0.0000000000e+00 -0.0000000000e+00 -1.2131852591e+02 1.2131852601e+02 5.0400000000e-03 0.0000e+00 -1.0000e+00
      -24  2    1    2    0    0 +3.5527136788e-15 -1.7763568394e-15 -1.0892565945e+02 1.3371139273e+02 7.7549579365e+01 0.0000e+00 0.0000e+00
       66  2    3    3    0    0 -2.0240113007e+01 +1.1429017704e+01 -2.2292195297e+01 4.4013829245e+01 2.9999842891e+01 0.0000e+00 0.0000e+00
       13  1    3    3    0    0 +2.0240113007e+01 -1.1429017704e+01 -8.6633464153e+01 8.9697563486e+01 1.0566000000e-01 0.0000e+00 -1.0000e+00
       13  1    4    4    0    0 -5.9242604384e+00 +1.5710614958e+01 -1.6079887542e+01 2.3248531814e+01 1.0566000000e-01 0.0000e+00 -1.0000e+00
      -13  1    4    4    0    0 -1.0435431467e+01 +3.5448825436e+00 -4.2453214871e+00 1.1810941568e+01 1.0566000000e-01 0.0000e+00 1.0000e+00
      -14  1    4    4    0    0 -3.8804211017e+00 -7.8264797980e+00 -1.9669862671e+00 8.9543558635e+00 0.0000000000e+00 0.0000e+00 1.0000e+00
<mgrwt>
<rscale>  0 0.77549579E+02</rscale>
<asrwt>0</asrwt>
<pdfrwt beam="1">  1        1 0.18664388E-01 0.77549579E+02</pdfrwt>
<pdfrwt beam="2">  1       -2 0.19065949E-02 0.77549579E+02</pdfrwt>
<totfact> 0.16517549E+05</totfact>
</mgrwt>
</event>
<event>
 8      1 +5.0320763e-08 7.90830900e+01 7.81860800e-03 1.33167400e-01
        2 -1    0    0  501    0 +0.0000000000e+00 +0.0000000000e+00 +1.9011507432e+01 1.9011507603e+01 2.5500000000e-03 0.0000e+00 -1.0000e+00
       -1 -1    0    0    0  501 -0.0000000000e+00 -0.0000000000e+00 -8.2241448114e+01 8.2241448268e+01 5.0400000000e-03 0.0000e+00 1.0000e+00
       24  2    1    2    0    0 +8.8817841970e-16 -3.5527136788e-15 -6.3229940682e+01 1.0125295587e+02 7.9083093479e+01 0.0000e+00 0.0000e+00
       66  2    3    3    0    0 +4.6768126290e+00 -2.4523561322e+01 -6.8935131182e+00 3.9632489540e+01 2.9998934444e+01 0.0000e+00 0.0000e+00
      -13  1    3    3    0    0 -4.6768126290e+00 +2.4523561322e+01 -5.6336427563e+01 6.1620466331e+01 1.0566000000e-01 0.0000e+00 1.0000e+00
       13  1    4    4    0    0 +1.1433188219e+01 -5.1028487150e+00 -6.2595945418e+00 1.3998233664e+01 1.0566000000e-01 0.0000e+00 1.0000e+00
      -13  1    4    4    0    0 -1.4690648734e+00 -1.2607118012e+01 +6.6645104843e+00 1.4336123612e+01 1.0566000000e-01 0.0000e+00 -1.0000e+00
      -14  1    4    4    0    0 -5.2873107163e+00 -6.8135945944e+00 -7.2984290607e+00 1.1298132264e+01 0.0000000000e+00 0.0000e+00 1.0000e+00
<mgrwt>
<rscale>  0 0.79083093E+02</rscale>
<asrwt>0</asrwt>
<pdfrwt beam="1">  1        2 0.29248474E-02 0.79083093E+02</pdfrwt>
<pdfrwt beam="2">  1       -1 0.12652530E-01 0.79083093E+02</pdfrwt>
<totfact> 0.12703101E+05</totfact>
</mgrwt>
</event>
<event>
 8      1 +5.0320763e-08 7.68253500e+01 7.81860800e-03 1.33831000e-01
       -2 -1    0    0    0  501 -0.0000000000e+00 +0.0000000000e+00 +3.4750235850e+02 3.4750235851e+02 2.5500000000e-03 0.0000e+00 1.0000e+00
        1 -1    0    0  501    0 +0.0000000000e+00 -0.0000000000e+00 -4.2461096598e+00 4.2461126509e+00 5.0400000000e-03 0.0000e+00 -1.0000e+00
      -24  2    1    2    0    0 +1.7763568394e-15 +0.0000000000e+00 +3.4325624884e+02 3.5174847116e+02 7.6825351257e+01 0.0000e+00 0.0000e+00
       66  2    3    3    0    0 +1.5166577080e+01 -2.8564289760e+01 +2.1480318696e+02 2.1928661257e+02 3.0004426608e+01 0.0000e+00 0.0000e+00
       13  1    3    3    0    0 -1.5166577080e+01 +2.8564289760e+01 +1.2845306188e+02 1.3246185859e+02 1.0566000000e-01 0.0000e+00 -1.0000e+00
       13  1    4    4    0    0 +5.2312777478e+00 -5.4381496483e+00 +1.7479534768e+01 1.9039039845e+01 1.0566000000e-01 0.0000e+00 -1.0000e+00
      -13  1    4    4    0    0 -3.2004637717e+00 -9.6226229061e+00 +2.6268463016e+01 2.8158145414e+01 1.0566000000e-01 0.0000e+00 1.0000e+00
      -14  1    4    4    0    0 +1.3135763104e+01 -1.3503517205e+01 +1.7105518918e+02 1.7208942731e+02 0.0000000000e+00 0.0000e+00 1.0000e+00
<mgrwt>
<rscale>  0 0.76825351E+02</rscale>
<asrwt>0</asrwt>
<pdfrwt beam="1">  1        1 0.65324777E-03 0.76825351E+02</pdfrwt>
<pdfrwt beam="2">  1       -2 0.53461910E-01 0.76825351E+02</pdfrwt>
<totfact> 0.71707274E+04</totfact>
</mgrwt>
</event>
<event>
 8      1 +5.0320763e-08 8.16363100e+01 7.81860800e-03 1.32447100e-01
       -1 -1    0    0    0  501 -0.0000000000e+00 +0.0000000000e+00 +4.8912318910e+00 4.8912344876e+00 5.0400000000e-03 0.0000e+00 1.0000e+00
        2 -1    0    0  501    0 +0.0000000000e+00 -0.0000000000e+00 -3.4063428202e+02 3.4063428203e+02 2.5500000000e-03 0.0000e+00 -1.0000e+00
       24  2    1    2    0    0 +0.0000000000e+00 +0.0000000000e+00 -3.3574305013e+02 3.4552551652e+02 8.1636308433e+01 0.0000e+00 0.0000e+00
       66  2    3    3    0    0 +1.7307589140e+01 +2.6145568812e+01 -2.5922746391e+02 2.6283458891e+02 2.9999994513e+01 0.0000e+00 0.0000e+00
      -13  1    3    3    0    0 -1.7307589140e+01 -2.6145568812e+01 -7.6515586214e+01 8.2690927605e+01 1.0566000000e-01 0.0000e+00 1.0000e+00
       13  1    4    4    0    0 +6.7413423668e+00 +4.9110097193e+00 -8.3658945061e+01 8.4073741241e+01 1.0566000000e-01 0.0000e+00 -1.0000e+00
      -13  1    4    4    0    0 +1.3944540248e+01 +1.1706726793e+01 -5.8772657514e+01 6.1528319416e+01 1.0566000000e-01 0.0000e+00 1.0000e+00
      -14  1    4    4    0    0 -3.3782934748e+00 +9.5278323000e+00 -1.1679586134e+02 1.1723252826e+02 0.0000000000e+00 0.0000e+00 1.0000e+00
<mgrwt>
<rscale>  0 0.81636308E+02</rscale>
<asrwt>0</asrwt>
<pdfrwt beam="1">  1        2 0.52405256E-01 0.81636308E+02</pdfrwt>
<pdfrwt beam="2">  1       -1 0.75249768E-03 0.81636308E+02</pdfrwt>
<totfact> 0.25310415E+05</totfact>
</mgrwt>
</event>
<event>
 8      1 +5.0320763e-08 7.95400600e+01 7.81860800e-03 1.33036200e-01
        3 -1    0    0  501    0 +0.0000000000e+00 +0.0000000000e+00 +2.0733954400e+01 2.0734200396e+01 1.0100000000e-01 0.0000e+00 -1.0000e+00
       -4 -1    0    0    0  501 -0.0000000000e+00 -0.0000000000e+00 -7.6258031923e+01 7.6268606470e+01 1.2700000000e+00 0.0000e+00 1.0000e+00
      -24  2    1    2    0    0 -1.7763568394e-15 -8.8817841970e-16 -5.5524077523e+01 9.7002806866e+01 7.9540061321e+01 0.0000e+00 0.0000e+00
       66  2    3    3    0    0 -1.3536070688e+01 +5.2918404161e+00 -6.9348041288e+01 7.6944344241e+01 3.0000874914e+01 0.0000e+00 0.0000e+00
       13  1    3    3    0    0 +1.3536070688e+01 -5.2918404161e+00 +1.3823963765e+01 2.0058462624e+01 1.0566000000e-01 0.0000e+00 -1.0000e+00
       13  1    4    4    0    0 -1.6814511627e+01 -3.6664129740e+00 -2.2520007234e+01 2.8343116893e+01 1.0566000000e-01 0.0000e+00 -1.0000e+00
      -13  1    4    4    0    0 +4.3806179533e+00 +7.4407559277e-01 -2.1398801141e+01 2.1855509979e+01 1.0566000000e-01 0.0000e+00 1.0000e+00
      -14  1    4    4    0    0 -1.1021770142e+00 +8.2141777973e+00 -2.5429232913e+01 2.6745717369e+01 0.0000000000e+00 0.0000e+00 1.0000e+00
<mgrwt>
<rscale>  0 0.79540061E+02</rscale>
<asrwt>0</asrwt>
<pdfrwt beam="1">  1        3 0.31898634E-02 0.79540061E+02</pdfrwt>
<pdfrwt beam="2">  1       -4 0.11735809E-01 0.79540061E+02</pdfrwt>
<totfact> 0.43215893E+04</totfact>
</mgrwt>
</event>
<event>
 8      1 +5.0320763e-08 8.16315800e+01 7.81860800e-03 1.32448400e-01
        2 -1    0    0  501    0 +0.0000000000e+00 +0.0000000000e+00 +3.4131712110e+02 3.4131712111e+02 2.5500000000e-03 0.0000e+00 -1.0000e+00
       -1 -1    0    0    0  501 -0.0000000000e+00 -0.0000000000e+00 -4.8808815812e+00 4.8808841834e+00 5.0400000000e-03 0.0000e+00 1.0000e+00
       24  2    1    2    0    0 -1.7763568394e-15 -3.5527136788e-15 +3.3643623952e+02 3.4619800530e+02 8.1631584618e+01 0.0000e+00 0.0000e+00
       66  2    3    3    0    0 -1.4345367299e+01 -2.2610245208e+01 +2.8850737917e+02 2.9129627882e+02 3.0000024470e+01 0.0000e+00 0.0000e+00
      -13  1    3    3    0    0 +1.4345367299e+01 +2.2610245208e+01 +4.7928860354e+01 5.4901726477e+01 1.0566000000e-01 0.0000e+00 1.0000e+00
       13  1    4    4    0    0 -9.7698452825e+00 -1.0670544463e+01 +1.2063452809e+02 1.2149901616e+02 1.0566000000e-01 0.0000e+00 -1.0000e+00
      -13  1    4    4    0    0 +1.0285428150e+00 +6.2086810702e+00 +3.3173168371e+01 3.3765009770e+01 1.0566000000e-01 0.0000e+00 1.0000e+00
      -14  1    4    4    0    0 -5.6040648312e+00 -1.8148381815e+01 +1.3469968271e+02 1.3603225289e+02 0.0000000000e+00 0.0000e+00 1.0000e+00
<mgrwt>
<rscale>  0 0.81631585E+02</rscale>
<asrwt>0</asrwt>
<pdfrwt beam="1">  1        2 0.52510345E-01 0.81631585E+02</pdfrwt>
<pdfrwt beam="2">  1       -1 0.75090479E-03 0.81631585E+02</pdfrwt>
<totfact> 0.25332470E+05</totfact>
</mgrwt>
</event>
<event>
 8      1 +5.0320763e-08 8.14228500e+01 7.81860800e-03 1.32506100e-01
       -1 -1    0    0    0  501 -0.0000000000e+00 +0.0000000000e+00 +5.5409580053e+00 5.5409602974e+00 5.0400000000e-03 0.0000e+00 1.0000e+00
        2 -1    0    0  501    0 +0.0000000000e+00 -0.0000000000e+00 -2.9912148300e+02 2.9912148301e+02 2.5500000000e-03 0.0000e+00 -1.0000e+00
       24  2    1    2    0    0 +0.0000000000e+00 +0.0000000000e+00 -2.9358052499e+02 3.0466244331e+02 8.1422845114e+01 0.0000e+00 0.0000e+00
       66  2    3    3    0    0 -1.0354433429e+01 -5.3975308088e+00 -2.9090723241e+02 2.9268307405e+02 3.0000272340e+01 0.0000e+00 0.0000e+00
      -13  1    3    3    0    0 +1.0354433429e+01 +5.3975308088e+00 -2.6732925887e+00 1.1979369255e+01 1.0566000000e-01 0.0000e+00 1.0000e+00
       13  1    4    4    0    0 -7.9982170873e-01 +1.5790797035e+00 -2.6586736541e+00 3.1957654967e+00 1.0566000000e-01 0.0000e+00 -1.0000e+00
      -13  1    4    4    0    0 -9.5426167584e+00 -1.5247746393e+01 -1.6973966916e+02 1.7069013374e+02 1.0566000000e-01 0.0000e+00 1.0000e+00
       14  1    4    4    0    0 -1.1994961437e-02 +8.2711358806e+00 -1.1850888959e+02 1.1879717482e+02 0.0000000000e+00 0.0000e+00 -1.0000e+00
<mgrwt>
<rscale>  0 0.81422845E+02</rscale>
<asrwt>0</asrwt>
<pdfrwt beam="1">  1        2 0.46018677E-01 0.81422845E+02</pdfrwt>
<pdfrwt beam="2">  1       -1 0.85245549E-03 0.81422845E+02</pdfrwt>
<totfact> 0.24316078E+05</totfact>
</mgrwt>
</event>
<event>
 8      1 +5.0320763e-08 8.03042300e+01 7.81860800e-03 1.32819000e-01
        2 -1    0    0  501    0 +0.0000000000e+00 +0.0000000000e+00 +3.8117043021e+01 3.8117043107e+01 2.5500000000e-03 0.0000e+00 -1.0000e+00
       -1 -1    0    0    0  501 -0.0000000000e+00 -0.0000000000e+00 -4.2295836244e+01 4.2295836544e+01 5.0400000000e-03 0.0000e+00 1.0000e+00
       24  2    1    2    0    0 -1.1102230246e-16 +0.0000000000e+00 -4.1787932222e+00 8.0412879650e+01 8.0304227167e+01 0.0000e+00 0.0000e+00
       66  2    3    3    0    0 +9.5106837826e-01 +2.3422089079e+01 +2.3032445383e+01 4.4496846206e+01 2.9999616565e+01 0.0000e+00 0.0000e+00
      -13  1    3    3    0    0 -9.5106837826e-01 -2.3422089079e+01 -2.7211238605e+01 3.5916033444e+01 1.0566000000e-01 0.0000e+00 1.0000e+00
       13  1    4    4    0    0 +8.3228104151e+00 +1.1954683656e+01 +7.5488808721e+00 1.6406718166e+01 1.0566000000e-01 0.0000e+00 -1.0000e+00
      -13  1    4    4    0    0 -3.6907467973e+00 -2.8031076030e+00 +1.2116126431e+01 1.2972690849e+01 1.0566000000e-01 0.0000e+00 1.0000e+00
      -14  1    4    4    0    0 -3.6809952396e+00 +1.4270513026e+01 +3.3674380804e+00 1.5117437190e+01 0.0000000000e+00 0.0000e+00 1.0000e+00
<mgrwt>
<rscale>  0 0.80304227E+02</rscale>
<asrwt>0</asrwt>
<pdfrwt beam="1">  1        2 0.58641605E-02 0.80304227E+02</pdfrwt>
<pdfrwt beam="2">  1       -1 0.65070518E-02 0.80304227E+02</pdfrwt>
<totfact> 0.13967598E+05</totfact>
</mgrwt>
</event>
<event>
 8      1 +5.0320763e-08 7.88810900e+01 7.81860800e-03 1.33225700e-01
       -2 -1    0    0    0  501 -0.0000000000e+00 +0.0000000000e+00 +1.5725284303e+01 1.5725284510e+01 2.5500000000e-03 0.0000e+00 1.0000e+00
        1 -1    0    0  501    0 +0.0000000000e+00 -0.0000000000e+00 -9.8920725138e+01 9.8920725267e+01 5.0400000000e-03 0.0000e+00 -1.0000e+00
      -24  2    1    2    0    0 +0.0000000000e+00 +0.0000000000e+00 -8.3195440835e+01 1.1464600978e+02 7.8881088874e+01 0.0000e+00 0.0000e+00
       66  2    3    3    0    0 -1.6473547531e+01 -1.8479870436e+01 -1.4308119778e+01 4.1445206871e+01 3.0001658310e+01 0.0000e+00 0.0000e+00
       13  1    3    3    0    0 +1.6473547531e+01 +1.8479870436e+01 -6.8887321057e+01 7.3200802906e+01 1.0566000000e-01 0.0000e+00 -1.0000e+00
       13  1    4    4    0    0 -5.3857223561e-01 -1.6991834923e+01 -8.8381144793e+00 1.9160791886e+01 1.0566000000e-01 0.0000e+00 -1.0000e+00
      -13  1    4    4    0    0 -2.8182090138e+00 -5.8952013351e+00 -5.3513735571e+00 8.4465415296e+00 1.0566000000e-01 0.0000e+00 1.0000e+00
       14  1    4    4    0    0 -1.3116766282e+01 +4.4071658217e+00 -1.1863174131e-01 1.3837873455e+01 0.0000000000e+00 0.0000e+00 -1.0000e+00
<mgrwt>
<rscale>  0 0.78881089E+02</rscale>
<asrwt>0</asrwt>
<pdfrwt beam="1">  1        1 0.15218573E-01 0.78881089E+02</pdfrwt>
<pdfrwt beam="2">  1       -2 0.24192746E-02 0.78881089E+02</pdfrwt>
<totfact> 0.15241303E+05</totfact>
</mgrwt>
</event>
<event>
 8      1 +5.0320763e-08 8.01085700e+01 7.81860800e-03 1.32874400e-01
       -3 -1    0    0    0  501 -0.0000000000e+00 +0.0000000000e+00 +9.4415388689e+01 9.4415442711e+01 1.0100000000e-01 0.0000e+00 1.0000e+00
        4 -1    0    0  501    0 +0.0000000000e+00 -0.0000000000e+00 -1.6964379190e+01 1.7011850614e+01 1.2700000000e+00 0.0000e+00 -1.0000e+00
       24  2    1    2    0    0 -1.7763568394e-15 +0.0000000000e+00 +7.7451009499e+01 1.1142729333e+02 8.0108568989e+01 0.0000e+00 0.0000e+00
       66  2    3    3    0    0 -1.5137874216e+01 +1.0061155824e+01 +3.4721766375e+00 3.5248155972e+01 2.9999906609e+01 0.0000e+00 0.0000e+00
      -13  1    3    3    0    0 +1.5137874216e+01 -1.0061155824e+01 +7.3978832861e+01 7.6179137353e+01 1.0566000000e-01 0.0000e+00 1.0000e+00
       13  1    4    4    0    0 -1.1875802960e+01 +9.3226836140e+00 -4.3889738538e+00 1.5723275144e+01 1.0566000000e-01 0.0000e+00 -1.0000e+00
      -13  1    4    4    0    0 +7.1938702544e+00 -1.0138116797e+00 +2.9716759947e+00 7.8499430324e+00 1.0566000000e-01 0.0000e+00 1.0000e+00
      -14  1    4    4    0    0 -1.0455941510e+01 +1.7522838900e+00 +4.8894744967e+00 1.1674937796e+01 0.0000000000e+00 0.0000e+00 1.0000e+00
<mgrwt>
<rscale>  0 0.80108569E+02</rscale>
<asrwt>0</asrwt>
<pdfrwt beam="1">  1        4 0.26142130E-02 0.80108569E+02</pdfrwt>
<pdfrwt beam="2">  1       -3 0.14525473E-01 0.80108569E+02</pdfrwt>
<totfact> 0.42842456E+04</totfact>
</mgrwt>
</event>
<event>
 8      1 +5.0320763e-08 8.04393800e+01 7.81860800e-03 1.32780900e-01
       -1 -1    0    0    0  501 -0.0000000000e+00 +0.0000000000e+00 +2.5314527445e+01 2.5314527947e+01 5.0400000000e-03 0.0000e+00 1.0000e+00
        2 -1    0    0  501    0 +0.0000000000e+00 -0.0000000000e+00 -6.3901000639e+01 6.3901000689e+01 2.5500000000e-03 0.0000e+00 -1.0000e+00
       24  2    1    2    0    0 -4.4408920985e-16 +0.0000000000e+00 -3.8586473194e+01 8.9215528636e+01 8.0439384858e+01 0.0000e+00 0.0000e+00
       66  2    3    3    0    0 +2.0028225321e+00 -2.0350308032e+01 -5.2967559660e+01 6.4216065700e+01 2.9999906376e+01 0.0000e+00 0.0000e+00
      -13  1    3    3    0    0 -2.0028225321e+00 +2.0350308032e+01 +1.4381086466e+01 2.4999462936e+01 1.0566000000e-01 0.0000e+00 1.0000e+00
       13  1    4    4    0    0 -1.2400646813e+00 -6.8029802773e+00 -3.2087229398e+01 3.2824072806e+01 1.0566000000e-01 0.0000e+00 -1.0000e+00
      -13  1    4    4    0    0 +2.3867067478e+00 +4.3747860606e+00 -7.5183392542e+00 9.0206269933e+00 1.0566000000e-01 0.0000e+00 1.0000e+00
       14  1    4    4    0    0 +8.5618046563e-01 -1.7922113815e+01 -1.3361991007e+01 2.2371365901e+01 0.0000000000e+00 0.0000e+00 -1.0000e+00
<mgrwt>
<rscale>  0 0.80439385E+02</rscale>
<asrwt>0</asrwt>
<pdfrwt beam="1">  1        2 0.98309231E-02 0.80439385E+02</pdfrwt>
<pdfrwt beam="2">  1       -1 0.38945428E-02 0.80439385E+02</pdfrwt>
<totfact> 0.15563624E+05</totfact>
</mgrwt>
</event>
<event>
 8      1 +5.0320763e-08 7.29350800e+01 7.81860800e-03 1.35038700e-01
        2 -1    0    0  501    0 +0.0000000000e+00 +0.0000000000e+00 +3.5027599107e+01 3.5027599200e+01 2.5500000000e-03 0.0000e+00 -1.0000e+00
       -1 -1    0    0    0  501 -0.0000000000e+00 -0.0000000000e+00 -3.7966674245e+01 3.7966674580e+01 5.0400000000e-03 0.0000e+00 1.0000e+00
       24  2    1    2    0    0 +0.0000000000e+00 +0.0000000000e+00 -2.9390751384e+00 7.2994273780e+01 7.2935079639e+01 0.0000e+00 0.0000e+00
       66  2    3    3    0    0 -1.6261197836e+01 -1.7589482438e+01 +1.6850383919e+01 4.1922577635e+01 2.9995843542e+01 0.0000e+00 0.0000e+00
      -13  1    3    3    0    0 +1.6261197836e+01 +1.7589482438e+01 -1.9789459058e+01 3.1071696145e+01 1.0566000000e-01 0.0000e+00 1.0000e+00
       13  1    4    4    0    0 +3.3821973915e+00 -8.9597261455e+00 -1.2148848558e+00 9.6541732451e+00 1.0566000000e-01 0.0000e+00 -1.0000e+00
      -13  1    4    4    0    0 -2.9102241895e+00 -5.5529147153e+00 -1.3908233067e+00 6.4226022899e+00 1.0566000000e-01 0.0000e+00 1.0000e+00
       14  1    4    4    0    0 -1.6733171038e+01 -3.0768415768e+00 +1.9456092082e+01 2.5845802100e+01 0.0000000000e+00 0.0000e+00 -1.0000e+00
<mgrwt>
<rscale>  0 0.72935080E+02</rscale>
<asrwt>0</asrwt>
<pdfrwt beam="1">  1        2 0.53888614E-02 0.72935080E+02</pdfrwt>
<pdfrwt beam="2">  1       -1 0.58410269E-02 0.72935080E+02</pdfrwt>
<totfact> 0.17907886E+05</totfact>
</mgrwt>
</event>
<event>
 8      1 +5.0320763e-08 7.83443600e+01 7.81860800e-03 1.33381700e-01
       -4 -1    0    0    0  501 -0.0000000000e+00 +0.0000000000e+00 +3.8455341010e+01 3.8476306374e+01 1.2700000000e+00 0.0000e+00 1.0000e+00
        3 -1    0    0  501    0 +0.0000000000e+00 -0.0000000000e+00 -3.9880895871e+01 3.9881023764e+01 1.0100000000e-01 0.0000e+00 -1.0000e+00
      -24  2    1    2    0    0 +3.5527136788e-15 +1.7763568394e-15 -1.4255548616e+00 7.8357330138e+01 7.8344361506e+01 0.0000e+00 0.0000e+00
       66  2    3    3    0    0 +3.1621506801e+01 +9.4280311786e+00 -6.1701275537e+00 4.5020719658e+01 2.9999787670e+01 0.0000e+00 0.0000e+00
       13  1    3    3    0    0 -3.1621506801e+01 -9.4280311786e+00 +4.7445726921e+00 3.3336610480e+01 1.0566000000e-01 0.0000e+00 -1.0000e+00
       13  1    4    4    0    0 +2.2188044283e+01 +6.1538452338e+00 -6.8320520651e+00 2.4018060282e+01 1.0566000000e-01 0.0000e+00 -1.0000e+00
      -13  1    4    4    0    0 +1.1652009238e+00 -5.6471768373e+00 +5.4458910402e+00 7.9320358472e+00 1.0566000000e-01 0.0000e+00 1.0000e+00
      -14  1    4    4    0    0 +8.2682615942e+00 +8.9213627821e+00 -4.7839665288e+00 1.3070623529e+01 0.0000000000e+00 0.0000e+00 1.0000e+00
<mgrwt>
<rscale>  0 0.78344362E+02</rscale>
<asrwt>0</asrwt>
<pdfrwt beam="1">  1        3 0.61355424E-02 0.78344362E+02</pdfrwt>
<pdfrwt beam="2">  1       -4 0.59193746E-02 0.78344362E+02</pdfrwt>
<totfact> 0.47932061E+04</totfact>
</mgrwt>
</event>
<event>
 8      1 +5.0320763e-08 9.94791600e+01 7.81860800e-03 1.28139500e-01
       -3 -1    0    0    0  501 -0.0000000000e+00 +0.0000000000e+00 +1.2022203090e+02 1.2022207332e+02 1.0100000000e-01 0.0000e+00 1.0000e+00
        4 -1    0    0  501    0 +0.0000000000e+00 -0.0000000000e+00 -2.0555827525e+01 2.0595022341e+01 1.2700000000e+00 0.0000e+00 -1.0000e+00
       24  2    1    2    0    0 +0.0000000000e+00 +0.0000000000e+00 +9.9666203374e+01 1.4081709567e+02 9.9479155287e+01 0.0000e+00 0.0000e+00
       66  2    3    3    0    0 +3.9286408851e+01 +1.6953696168e+01 +3.3677158869e+01 6.2169686980e+01 3.0001153570e+01 0.0000e+00 0.0000e+00
      -13  1    3    3    0    0 -3.9286408851e+01 -1.6953696168e+01 +6.5989044505e+01 7.8647408685e+01 1.0566000000e-01 0.0000e+00 1.0000e+00
       13  1    4    4    0    0 +1.2849016245e-01 +3.1518413201e-01 -1.7884035003e+00 1.8235684452e+00 1.0566000000e-01 0.0000e+00 -1.0000e+00
      -13  1    4    4    0    0 +3.2135691691e+01 +1.6172232133e+01 +3.8490734913e+01 5.2685781865e+01 1.0566000000e-01 0.0000e+00 1.0000e+00
      -14  1    4    4    0    0 +7.0222269981e+00 +4.6627990278e-01 -3.0251725442e+00 7.6603366690e+00 0.0000000000e+00 0.0000e+00 1.0000e+00
<mgrwt>
<rscale>  0 0.99479155E+02</rscale>
<asrwt>0</asrwt>
<pdfrwt beam="1">  1        4 0.31659659E-02 0.99479155E+02</pdfrwt>
<pdfrwt beam="2">  1       -3 0.18495720E-01 0.99479155E+02</pdfrwt>
<totfact> 0.22478749E+04</totfact>
</mgrwt>
</event>
<event>
 8      1 +5.0320763e-08 8.03985200e+01 7.81860800e-03 1.32792400e-01
       -1 -1    0    0    0  501 -0.0000000000e+00 +0.0000000000e+00 +2.5543269504e+00 2.5543319226e+00 5.0400000000e-03 0.0000e+00 1.0000e+00
        2 -1    0    0  501    0 +0.0000000000e+00 -0.0000000000e+00 -6.3264367510e+02 6.3264367510e+02 2.5500000000e-03 0.0000e+00 -1.0000e+00
       24  2    1    2    0    0 -3.5527136788e-15 -4.4408920985e-16 -6.3008934815e+02 6.3519800702e+02 8.0398516656e+01 0.0000e+00 0.0000e+00
       66  2    3    3    0    0 -3.1972500525e+01 -3.3261627034e+00 -4.6008459791e+02 4.6218086794e+02 3.0000221878e+01 0.0000e+00 0.0000e+00
      -13  1    3    3    0    0 +3.1972500525e+01 +3.3261627034e+00 -1.7000475024e+02 1.7301713908e+02 1.0566000000e-01 0.0000e+00 1.0000e+00
       13  1    4    4    0    0 +4.4391919646e+00 +4.0917327101e+00 -5.5359067912e+01 5.5687397731e+01 1.0566000000e-01 0.0000e+00 -1.0000e+00
      -13  1    4    4    0    0 -1.2808024315e+01 +4.9262415715e-01 -1.2048408695e+02 1.2116399853e+02 1.0566000000e-01 0.0000e+00 1.0000e+00
       14  1    4    4    0    0 -2.3603668175e+01 -7.9105195706e+00 -2.8424144304e+02 2.8532947168e+02 0.0000000000e+00 0.0000e+00 -1.0000e+00
<mgrwt>
<rscale>  0 0.80398517E+02</rscale>
<asrwt>0</asrwt>
<pdfrwt beam="1">  1        2 0.97329671E-01 0.80398517E+02</pdfrwt>
<pdfrwt beam="2">  1       -1 0.39297427E-03 0.80398517E+02</pdfrwt>
<totfact> 0.32208999E+05</totfact>
</mgrwt>
</event>
<event>
 8      1 +5.0320763e-08 7.93829500e+01 7.81860800e-03 1.33081200e-01
       -1 -1    0    0    0  501 -0.0000000000e+00 +0.0000000000e+00 +2.0929742564e+01 2.0929743171e+01 5.0400000000e-03 0.0000e+00 1.0000e+00
        2 -1    0    0  501    0 +0.0000000000e+00 -0.0000000000e+00 -7.5271510048e+01 7.5271510092e+01 2.5500000000e-03 0.0000e+00 -1.0000e+00
       24  2    1    2    0    0 +0.0000000000e+00 +3.5527136788e-15 -5.4341767484e+01 9.6201253263e+01 7.9382954316e+01 0.0000e+00 0.0000e+00
       66  2    3    3    0    0 -2.3078320389e+01 +2.4887842353e+01 -3.3899445383e+01 5.6579122251e+01 3.0000185139e+01 0.0000e+00 0.0000e+00
      -13  1    3    3    0    0 +2.3078320389e+01 -2.4887842353e+01 -2.0442322101e+01 3.9622131012e+01 1.0566000000e-01 0.0000e+00 1.0000e+00
       13  1    4    4    0    0 -8.9044550422e+00 +1.3032495231e+01 -5.8092027225e+00 1.6819430783e+01 1.0566000000e-01 0.0000e+00 -1.0000e+00
      -13  1    4    4    0    0 -1.3184244271e+01 +1.7624348812e+01 -2.4300422544e+01 3.2786638558e+01 1.0566000000e-01 0.0000e+00 1.0000e+00
      -14  1    4    4    0    0 -9.8962107606e-01 -5.7690016899e+00 -3.7898201168e+00 6.9730529103e+00 0.0000000000e+00 0.0000e+00 1.0000e+00
<mgrwt>
<rscale>  0 0.79382954E+02</rscale>
<asrwt>0</asrwt>
<pdfrwt beam="1">  1        2 0.11580232E-01 0.79382954E+02</pdfrwt>
<pdfrwt beam="2">  1       -1 0.32199605E-02 0.79382954E+02</pdfrwt>
<totfact> 0.16786595E+05</totfact>
</mgrwt>
</event>
<event>
 8      1 +5.0320763e-08 7.90344300e+01 7.81860800e-03 1.33181400e-01
        3 -1    0    0  501    0 +0.0000000000e+00 +0.0000000000e+00 +3.2484313914e+01 3.2484470928e+01 1.0100000000e-01 0.0000e+00 -1.0000e+00
       -4 -1    0    0    0  501 -0.0000000000e+00 -0.0000000000e+00 -4.8051755869e+01 4.8068535885e+01 1.2700000000e+00 0.0000e+00 1.0000e+00
      -24  2    1    2    0    0 +0.0000000000e+00 +0.0000000000e+00 -1.5567441955e+01 8.0553006813e+01 7.9034433367e+01 0.0000e+00 0.0000e+00
       66  2    3    3    0    0 -3.2797826234e+01 +7.9595097601e+00 -6.6296378952e+00 4.5639589524e+01 2.9999480529e+01 0.0000e+00 0.0000e+00
       13  1    3    3    0    0 +3.2797826234e+01 -7.9595097601e+00 -8.9378040602e+00 3.4913417289e+01 1.0566000000e-01 0.0000e+00 -1.0000e+00
       13  1    4    4    0    0 -2.0644761430e+00 +1.0666484095e+01 -2.1611190651e+00 1.1077795103e+01 1.0566000000e-01 0.0000e+00 -1.0000e+00
      -13  1    4    4    0    0 +8.8550859425e-01 +1.2958011889e+00 -2.0708177166e+00 2.6005146111e+00 1.0566000000e-01 0.0000e+00 1.0000e+00
      -14  1    4    4    0    0 -3.1618858686e+01 -4.0027755239e+00 -2.3977011135e+00 3.1961279810e+01 0.0000000000e+00 0.0000e+00 1.0000e+00
<mgrwt>
<rscale>  0 0.79034433E+02</rscale>
<asrwt>0</asrwt>
<pdfrwt beam="1">  1        3 0.49976074E-02 0.79034433E+02</pdfrwt>
<pdfrwt beam="2">  1       -4 0.73957777E-02 0.79034433E+02</pdfrwt>
<totfact> 0.46290514E+04</totfact>
</mgrwt>
</event>
<event>
 8      1 +5.0320763e-08 7.94952600e+01 7.81860800e-03 1.33049000e-01
       -2 -1    0    0    0  501 -0.0000000000e+00 +0.0000000000e+00 +7.4462483197e+00 7.4462487563e+00 2.5500000000e-03 0.0000e+00 1.0000e+00
        1 -1    0    0  501    0 +0.0000000000e+00 -0.0000000000e+00 -2.1217045647e+02 2.1217045653e+02 5.0400000000e-03 0.0000e+00 -1.0000e+00
      -24  2    1    2    0    0 +6.6613381478e-16 +0.0000000000e+00 -2.0472420815e+02 2.1961670529e+02 7.9495256702e+01 0.0000e+00 0.0000e+00
       66  2    3    3    0    0 +1.1608262943e+00 -2.8790569927e+01 -1.6725236362e+02 1.7234732058e+02 3.0000022311e+01 0.0000e+00 0.0000e+00
       13  1    3    3    0    0 -1.1608262943e+00 +2.8790569927e+01 -3.7471844530e+01 4.7269384711e+01 1.0566000000e-01 0.0000e+00 -1.0000e+00
       13  1    4    4    0    0 +4.4810295766e+00 -2.2182793044e+01 -7.5877368638e+01 7.9180440569e+01 1.0566000000e-01 0.0000e+00 -1.0000e+00
      -13  1    4    4    0    0 -3.5674740323e-01 -1.0223157033e+00 +4.1129122980e-01 1.1630660421e+00 1.0566000000e-01 0.0000e+00 1.0000e+00
       14  1    4    4    0    0 -2.9634558791e+00 -5.5854611793e+00 -9.1786286215e+01 9.2003813967e+01 0.0000000000e+00 0.0000e+00 -1.0000e+00
<mgrwt>
<rscale>  0 0.79495257E+02</rscale>
<asrwt>0</asrwt>
<pdfrwt beam="1">  1        1 0.32641604E-01 0.79495257E+02</pdfrwt>
<pdfrwt beam="2">  1       -2 0.11455769E-02 0.79495257E+02</pdfrwt>
<totfact> 0.17152011E+05</totfact>
</mgrwt>
</event>
<event>
 8      1 +5.0320763e-08 7.83447100e+01 7.81860800e-03 1.33381600e-01
       -4 -1    0    0    0  501 -0.0000000000e+00 +0.0000000000e+00 +3.6529004537e+02 3.6529225306e+02 1.2700000000e+00 0.0000e+00 1.0000e+00
        3 -1    0    0  501    0 +0.0000000000e+00 -0.0000000000e+00 -4.1989678916e+00 4.2001824193e+00 1.0100000000e-01 0.0000e+00 -1.0000e+00
      -24  2    1    2    0    0 +0.0000000000e+00 +3.5527136788e-15 +3.6109107748e+02 3.6949243548e+02 7.8344710369e+01 0.0000e+00 0.0000e+00
       66  2    3    3    0    0 +1.7449450178e+01 +8.2565739424e+00 +3.3573035623e+02 3.3762032116e+02 2.9999247385e+01 0.0000e+00 0.0000e+00
       13  1    3    3    0    0 -1.7449450178e+01 -8.2565739424e+00 +2.5360721253e+01 3.1872114321e+01 1.0566000000e-01 0.0000e+00 -1.0000e+00
       13  1    4    4    0    0 +8.6556121129e+00 -1.1161891967e+01 +1.1631269945e+02 1.1716724231e+02 1.0566000000e-01 0.0000e+00 -1.0000e+00
      -13  1    4    4    0    0 +2.5293442057e+00 +6.6856659822e+00 +7.4934644065e+01 7.5274881315e+01 1.0566000000e-01 0.0000e+00 1.0000e+00
       14  1    4    4    0    0 +6.2644938596e+00 +1.2732799927e+01 +1.4448301272e+02 1.4517819754e+02 0.0000000000e+00 0.0000e+00 -1.0000e+00
<mgrwt>
<rscale>  0 0.78344710E+02</rscale>
<asrwt>0</asrwt>
<pdfrwt beam="1">  1        3 0.64608931E-03 0.78344710E+02</pdfrwt>
<pdfrwt beam="2">  1       -4 0.56213431E-01 0.78344710E+02</pdfrwt>
<totfact> 0.25943675E+04</totfact>
</mgrwt>
</event>
<event>
 8      1 +5.0320763e-08 7.95016100e+01 7.81860800e-03 1.33047200e-01
        1 -1    0    0  501    0 +0.0000000000e+00 +0.0000000000e+00 +2.0579221272e+02 2.0579221278e+02 5.0400000000e-03 0.0000e+00 -1.0000e+00
       -2 -1    0    0    0  501 -0.0000000000e+00 -0.0000000000e+00 -7.6782621819e+00 7.6782626053e+00 2.5500000000e-03 0.0000e+00 1.0000e+00
      -24  2    1    2    0    0 +3.5527136788e-15 +0.0000000000e+00 +1.9811395054e+02 2.1347047539e+02 7.9501612966e+01 0.0000e+00 0.0000e+00
       66  2    3    3    0    0 -2.6190378115e+01 -2.1804918779e+01 +1.1075274251e+02 1.1969743970e+02 2.9998611799e+01 0.0000e+00 0.0000e+00
       13  1    3    3    0    0 +2.6190378115e+01 +2.1804918779e+01 +8.7361208034e+01 9.3773035687e+01 1.0566000000e-01 0.0000e+00 -1.0000e+00
       13  1    4    4    0    0 -4.1189105819e+00 -1.9501181763e+00 +7.6851626070e+00 8.9353944297e+00 1.0566000000e-01 0.0000e+00 1.0000e+00
      -13  1    4    4    0    0 -1.0157954432e+01 -2.5281321678e+01 +7.4879252551e+01 7.9682136584e+01 1.0566000000e-01 0.0000e+00 -1.0000e+00
       14  1    4    4    0    0 -1.1913513101e+01 +5.4265210748e+00 +2.8188327349e+01 3.1079908689e+01 0.0000000000e+00 0.0000e+00 -1.0000e+00
<mgrwt>
<rscale>  0 0.79501613E+02</rscale>
<asrwt>0</asrwt>
<pdfrwt beam="1">  1        1 0.31660337E-01 0.79501613E+02</pdfrwt>
<pdfrwt beam="2">  1       -2 0.11812713E-02 0.79501613E+02</pdfrwt>
<totfact> 0.17046930E+05</totfact>
</mgrwt>
</event>
<event>
 8      1 +5.0320763e-08 7.67351700e+01 7.81860800e-03 1.33858000e-01
       -1 -1    0    0    0  501 -0.0000000000e+00 +0.0000000000e+00 +2.0160055748e+01 2.0160056378e+01 5.0400000000e-03 0.0000e+00 1.0000e+00
        2 -1    0    0  501    0 +0.0000000000e+00 -0.0000000000e+00 -7.3019225891e+01 7.3019225935e+01 2.5500000000e-03 0.0000e+00 -1.0000e+00
       24  2    1    2    0    0 +0.0000000000e+00 +0.0000000000e+00 -5.2859170143e+01 9.3179282313e+01 7.6735173058e+01 0.0000e+00 0.0000e+00
       66  2    3    3    0    0 -2.0300650587e+01 -1.6334595366e+01 -5.4062637794e+01 6.7094901576e+01 3.0000359868e+01 0.0000e+00 0.0000e+00
      -13  1    3    3    0    0 +2.0300650587e+01 +1.6334595366e+01 +1.2034676512e+00 2.6084380737e+01 1.0566000000e-01 0.0000e+00 1.0000e+00
       13  1    4    4    0    0 +9.0568264232e-01 -2.8320018193e+00 -1.2091485821e+00 3.2114949295e+00 1.0566000000e-01 0.0000e+00 -1.0000e+00
      -13  1    4    4    0    0 +2.2369017395e+00 -8.9564958531e+00 -5.2362291282e+00 1.0613755550e+01 1.0566000000e-01 0.0000e+00 1.0000e+00
       14  1    4    4    0    0 -2.3443234969e+01 -4.5460976932e+00 -4.7617260084e+01 5.3269651096e+01 0.0000000000e+00 0.0000e+00 -1.0000e+00
<mgrwt>
<rscale>  0 0.76735173E+02</rscale>
<asrwt>0</asrwt>
<pdfrwt beam="1">  1        2 0.11233727E-01 0.76735173E+02</pdfrwt>
<pdfrwt beam="2">  1       -1 0.31015471E-02 0.76735173E+02</pdfrwt>
<totfact> 0.18254949E+05</totfact>
</mgrwt>
</event>
<event>
 8      1 +5.0320763e-08 7.94649700e+01 7.81860800e-03 1.33057700e-01
        3 -1    0    0  501    0 +0.0000000000e+00 +0.0000000000e+00 +6.5962903833e+00 6.5970635757e+00 1.0100000000e-01 0.0000e+00 -1.0000e+00
       -4 -1    0    0    0  501 -0.0000000000e+00 -0.0000000000e+00 -2.3924977350e+02 2.3925314422e+02 1.2700000000e+00 0.0000e+00 1.0000e+00
      -24  2    1    2    0    0 -5.8286708793e-16 -3.5527136788e-15 -2.3265348311e+02 2.4585020779e+02 7.9464970065e+01 0.0000e+00 0.0000e+00
       66  2    3    3    0    0 +1.0030708436e-01 +2.3197672334e+01 -2.1010300367e+02 2.1349781452e+02 2.9998376488e+01 0.0000e+00 0.0000e+00
       13  1    3    3    0    0 -1.0030708436e-01 -2.3197672334e+01 -2.2550479447e+01 3.2352393274e+01 1.0566000000e-01 0.0000e+00 -1.0000e+00
       13  1    4    4    0    0 -3.0274186318e+00 -1.0635872976e+00 -1.1014682086e+01 1.1473049595e+01 1.0566000000e-01 0.0000e+00 -1.0000e+00
      -13  1    4    4    0    0 +6.9639408071e+00 +1.5238812816e+01 -5.2496550261e+01 5.5105506449e+01 1.0566000000e-01 0.0000e+00 1.0000e+00
       14  1    4    4    0    0 -3.8362150909e+00 +9.0224468152e+00 -1.4659177132e+02 1.4691925848e+02 0.0000000000e+00 0.0000e+00 -1.0000e+00
<mgrwt>
<rscale>  0 0.79464970E+02</rscale>
<asrwt>0</asrwt>
<pdfrwt beam="1">  1        3 0.10148753E-02 0.79464970E+02</pdfrwt>
<pdfrwt beam="2">  1       -4 0.36817312E-01 0.79464970E+02</pdfrwt>
<totfact> 0.31082175E+04</totfact>
</mgrwt>
</event>
<event>
 8      1 +5.0320763e-08 7.91673600e+01 7.81860800e-03 1.33143100e-01
        2 -1    0    0  501    0 +0.0000000000e+00 +0.0000000000e+00 +1.6078184389e+02 1.6078184391e+02 2.5500000000e-03 0.0000e+00 -1.0000e+00
       -1 -1    0    0    0  501 -0.0000000000e+00 -0.0000000000e+00 -9.7453018982e+00 9.7453032015e+00 5.0400000000e-03 0.0000e+00 1.0000e+00
       24  2    1    2    0    0 -8.8817841970e-16 +1.7763568394e-15 +1.5103654199e+02 1.7052714711e+02 7.9167359975e+01 0.0000e+00 0.0000e+00
       66  2    3    3    0    0 +7.1756805018e+00 +1.0149507237e+01 +1.5429681611e+02 1.5767633239e+02 2.9996923955e+01 0.0000e+00 0.0000e+00
      -13  1    3    3    0    0 -7.1756805018e+00 -1.0149507237e+01 -3.2602741122e+00 1.2850814727e+01 1.0566000000e-01 0.0000e+00 1.0000e+00
       13  1    4    4    0    0 +7.5776418808e+00 +1.1909211187e+01 +9.1030034442e+01 9.2118012908e+01 1.0566000000e-01 0.0000e+00 -1.0000e+00
      -13  1    4    4    0    0 +2.0573488392e+00 -6.8078873937e+00 +1.1740802228e+01 1.3727258139e+01 1.0566000000e-01 0.0000e+00 1.0000e+00
      -14  1    4    4    0    0 -2.4593102182e+00 +5.0481834438e+00 +5.1525979437e+01 5.1831061341e+01 0.0000000000e+00 0.0000e+00 1.0000e+00
<mgrwt>
<rscale>  0 0.79167360E+02</rscale>
<asrwt>0</asrwt>
<pdfrwt beam="1">  1        2 0.24735666E-01 0.79167360E+02</pdfrwt>
<pdfrwt beam="2">  1       -1 0.14992774E-02 0.79167360E+02</pdfrwt>
<totfact> 0.21063242E+05</totfact>
</mgrwt>
</event>
<event>
 8      1 +5.0320763e-08 7.92544600e+01 7.81860800e-03 1.33118100e-01
       -2 -1    0    0    0  501 -0.0000000000e+00 +0.0000000000e+00 +5.8680574684e+01 5.8680574739e+01 2.5500000000e-03 0.0000e+00 1.0000e+00
        1 -1    0    0  501    0 +0.0000000000e+00 -0.0000000000e+00 -2.6760427308e+01 2.6760427782e+01 5.0400000000e-03 0.0000e+00 -1.0000e+00
      -24  2    1    2    0    0 +4.4408920985e-16 +3.5527136788e-15 +3.1920147376e+01 8.5441002521e+01 7.9254457940e+01 0.0000e+00 0.0000e+00
       66  2    3    3    0    0 -3.4138914062e+00 -2.9718237808e+01 +3.5555478449e+01 5.5307049761e+01 2.9997489771e+01 0.0000e+00 0.0000e+00
       13  1    3    3    0    0 +3.4138914062e+00 +2.9718237808e+01 -3.6353310729e+00 3.0133952761e+01 1.0566000000e-01 0.0000e+00 -1.0000e+00
       13  1    4    4    0    0 +8.6346875999e+00 -2.1149551847e+01 +2.6445856503e+01 3.4946471403e+01 1.0566000000e-01 0.0000e+00 -1.0000e+00
      -13  1    4    4    0    0 -5.7388904646e+00 +1.7680494406e-01 +7.5170552331e+00 9.4595669651e+00 1.0566000000e-01 0.0000e+00 1.0000e+00
       14  1    4    4    0    0 -6.3096885415e+00 -8.7454909048e+00 +1.5925667128e+00 1.0901011393e+01 0.0000000000e+00 0.0000e+00 -1.0000e+00
<mgrwt>
<rscale>  0 0.79254458E+02</rscale>
<asrwt>0</asrwt>
<pdfrwt beam="1">  1        1 0.41169889E-02 0.79254458E+02</pdfrwt>
<pdfrwt beam="2">  1       -2 0.90277807E-02 0.79254458E+02</pdfrwt>
<totfact> 0.12172564E+05</totfact>
</mgrwt>
</event>
<event>
 8      1 +5.0320763e-08 7.82079200e+01 7.81860800e-03 1.33421500e-01
       -2 -1    0    0    0  501 -0.0000000000e+00 +0.0000000000e+00 +1.4426041728e+02 1.4426041730e+02 2.5500000000e-03 0.0000e+00 1.0000e+00
        1 -1    0    0  501    0 +0.0000000000e+00 -0.0000000000e+00 -1.0599717321e+01 1.0599718519e+01 5.0400000000e-03 0.0000e+00 -1.0000e+00
      -24  2    1    2    0    0 +0.0000000000e+00 +0.0000000000e+00 +1.3366069996e+02 1.5486013582e+02 7.8207921293e+01 0.0000e+00 0.0000e+00
       66  2    3    3    0    0 +2.7368067459e+01 -8.1980218536e+00 +1.1073222591e+02 1.1822757155e+02 2.9998568990e+01 0.0000e+00 0.0000e+00
       13  1    3    3    0    0 -2.7368067459e+01 +8.1980218536e+00 +2.2928474053e+01 3.6632564272e+01 1.0566000000e-01 0.0000e+00 -1.0000e+00
       13  1    4    4    0    0 +1.6505761194e+00 +6.7258077438e+00 +1.4378417054e+01 1.5959665797e+01 1.0566000000e-01 0.0000e+00 -1.0000e+00
      -13  1    4    4    0    0 +5.4270643344e+00 +8.1387888090e-01 +3.9558420450e+01 3.9937391235e+01 1.0566000000e-01 0.0000e+00 1.0000e+00
       14  1    4    4    0    0 +2.0290427005e+01 -1.5737708478e+01 +5.6795388404e+01 6.2330514519e+01 0.0000000000e+00 0.0000e+00 -1.0000e+00
<mgrwt>
<rscale>  0 0.78207921E+02</rscale>
<asrwt>0</asrwt>
<pdfrwt beam="1">  1        1 0.16307258E-02 0.78207921E+02</pdfrwt>
<pdfrwt beam="2">  1       -2 0.22193911E-01 0.78207921E+02</pdfrwt>
<totfact> 0.10145349E+05</totfact>
</mgrwt>
</event>
<event>
 8      1 +5.0320763e-08 7.86903100e+01 7.81860800e-03 1.33281000e-01
        2 -1    0    0  501    0 +0.0000000000e+00 +0.0000000000e+00 +5.3675124675e+01 5.3675124735e+01 2.5500000000e-03 0.0000e+00 -1.0000e+00
       -1 -1    0    0    0  501 -0.0000000000e+00 -0.0000000000e+00 -2.8840946328e+01 2.8840946769e+01 5.0400000000e-03 0.0000e+00 1.0000e+00
       24  2    1    2    0    0 +0.0000000000e+00 +0.0000000000e+00 +2.4834178346e+01 8.2516071504e+01 7.8690314794e+01 0.0000e+00 0.0000e+00
       66  2    3    3    0    0 +1.3690344969e+01 +1.0694853978e+01 +4.4412834238e+01 5.6340885210e+01 2.9999834236e+01 0.0000e+00 0.0000e+00
      -13  1    3    3    0    0 -1.3690344969e+01 -1.0694853978e+01 -1.9578655892e+01 2.6175186294e+01 1.0566000000e-01 0.0000e+00 1.0000e+00
       13  1    4    4    0    0 -1.2966387873e+00 -3.9140419056e+00 +1.6205401316e+01 1.6722057052e+01 1.0566000000e-01 0.0000e+00 -1.0000e+00
      -13  1    4    4    0    0 +1.4458706878e+01 +1.4940097214e+01 +1.3262767254e+01 2.4661161137e+01 1.0566000000e-01 0.0000e+00 1.0000e+00
      -14  1    4    4    0    0 +5.2827687773e-01 -3.3120133058e-01 +1.4944665668e+01 1.4957667021e+01 0.0000000000e+00 0.0000e+00 1.0000e+00
<mgrwt>
<rscale>  0 0.78690315E+02</rscale>
<asrwt>0</asrwt>
<pdfrwt beam="1">  1        2 0.82577113E-02 0.78690315E+02</pdfrwt>
<pdfrwt beam="2">  1       -1 0.44370688E-02 0.78690315E+02</pdfrwt>
<totfact> 0.15877372E+05</totfact>
</mgrwt>
</event>
<event>
 8      1 +5.0320763e-08 7.91654000e+01 7.81860800e-03 1.33143700e-01
       -1 -1    0    0    0  501 -0.0000000000e+00 +0.0000000000e+00 +1.1227986972e+02 1.1227986983e+02 5.0400000000e-03 0.0000e+00 1.0000e+00
        2 -1    0    0  501    0 +0.0000000000e+00 -0.0000000000e+00 -1.3954329025e+01 1.3954329258e+01 2.5500000000e-03 0.0000e+00 -1.0000e+00
       24  2    1    2    0    0 +3.5527136788e-15 +3.5527136788e-15 +9.8325540694e+01 1.2623419909e+02 7.9165403221e+01 0.0000e+00 0.0000e+00
       66  2    3    3    0    0 +1.8926574554e+01 +2.7993044000e+01 +6.0518951734e+01 7.5527443430e+01 3.0000424254e+01 0.0000e+00 0.0000e+00
      -13  1    3    3    0    0 -1.8926574554e+01 -2.7993044000e+01 +3.7806588960e+01 5.0706755660e+01 1.0566000000e-01 0.0000e+00 1.0000e+00
       13  1    4    4    0    0 +1.2917328875e+01 +1.0423392705e+01 +8.0388672164e+00 1.8442859077e+01 1.0566000000e-01 0.0000e+00 -1.0000e+00
      -13  1    4    4    0    0 -1.1512548595e+00 +7.6430403674e+00 +8.7570804336e+00 1.1680713829e+01 1.0566000000e-01 0.0000e+00 1.0000e+00
       14  1    4    4    0    0 +7.1605005381e+00 +9.9266109274e+00 +4.3723004084e+01 4.5403870524e+01 0.0000000000e+00 0.0000e+00 -1.0000e+00
<mgrwt>
<rscale>  0 0.79165403E+02</rscale>
<asrwt>0</asrwt>
<pdfrwt beam="1">  1        2 0.21468199E-02 0.79165403E+02</pdfrwt>
<pdfrwt beam="2">  1       -1 0.17273826E-01 0.79165403E+02</pdfrwt>
<totfact> 0.11864301E+05</totfact>
</mgrwt>
</event>
<event>
 8      1 +5.0320763e-08 8.04360100e+01 7.81860800e-03 1.32781900e-01
        1 -1    0    0  501    0 +0.0000000000e+00 +0.0000000000e+00 +1.7995151849e+01 1.7995152554e+01 5.0400000000e-03 0.0000e+00 -1.0000e+00
       -2 -1    0    0    0  501 -0.0000000000e+00 -0.0000000000e+00 -8.9884657184e+01 8.9884657220e+01 2.5500000000e-03 0.0000e+00 1.0000e+00
      -24  2    1    2    0    0 +0.0000000000e+00 +1.7763568394e-15 -7.1889505336e+01 1.0787980977e+02 8.0436014196e+01 0.0000e+00 0.0000e+00
       66  2    3    3    0    0 +3.2622743577e+01 -1.1579826821e+01 -4.0019961433e+01 6.0826491292e+01 2.9998815678e+01 0.0000e+00 0.0000e+00
       13  1    3    3    0    0 -3.2622743577e+01 +1.1579826821e+01 -3.1869543902e+01 4.7053318483e+01 1.0566000000e-01 0.0000e+00 -1.0000e+00
       13  1    4    4    0    0 +2.5370478384e+01 +2.6766263898e-03 -2.5912633347e+01 3.6264816442e+01 1.0566000000e-01 0.0000e+00 -1.0000e+00
      -13  1    4    4    0    0 +8.9955246616e+00 -4.6250619367e+00 -1.7385856224e+00 1.0263747165e+01 1.0566000000e-01 0.0000e+00 1.0000e+00
       14  1    4    4    0    0 -1.7432594684e+00 -6.9574415108e+00 -1.2368742464e+01 1.4297927685e+01 0.0000000000e+00 0.0000e+00 -1.0000e+00
<mgrwt>
<rscale>  0 0.80436014E+02</rscale>
<asrwt>0</asrwt>
<pdfrwt beam="1">  1        1 0.27684850E-02 0.80436014E+02</pdfrwt>
<pdfrwt beam="2">  1       -2 0.13828408E-01 0.80436014E+02</pdfrwt>
<totfact> 0.10737953E+05</totfact>
</mgrwt>
</event>
<event>
 8      1 +5.0320763e-08 7.98238900e+01 7.81860800e-03 1.32955200e-01
       -3 -1    0    0    0  501 -0.0000000000e+00 +0.0000000000e+00 +4.2272073259e+01 4.2272193917e+01 1.0100000000e-01 0.0000e+00 1.0000e+00
        4 -1    0    0  501    0 +0.0000000000e+00 -0.0000000000e+00 -3.7663232970e+01 3.7684639016e+01 1.2700000000e+00 0.0000e+00 -1.0000e+00
       24  2    1    2    0    0 +0.0000000000e+00 +1.7763568394e-15 +4.6088402887e+00 7.9956832933e+01 7.9823891936e+01 0.0000e+00 0.0000e+00
       66  2    3    3    0    0 +3.0226371285e+01 -1.3160505384e+01 -6.7617746241e+00 4.5083713334e+01 2.9999786480e+01 0.0000e+00 0.0000e+00
      -13  1    3    3    0    0 -3.0226371285e+01 +1.3160505384e+01 +1.1370614913e+01 3.4873119599e+01 1.0566000000e-01 0.0000e+00 1.0000e+00
       13  1    4    4    0    0 +7.3132768018e+00 -2.1175266729e+00 -2.3347536659e+00 7.9643063418e+00 1.0566000000e-01 0.0000e+00 -1.0000e+00
      -13  1    4    4    0    0 +1.5891244797e+01 -1.8950186470e+01 -7.9420564690e+00 2.5975539522e+01 1.0566000000e-01 0.0000e+00 1.0000e+00
       14  1    4    4    0    0 +7.0218496863e+00 +7.9072077584e+00 +3.5150355108e+00 1.1143867470e+01 0.0000000000e+00 0.0000e+00 -1.0000e+00
<mgrwt>
<rscale>  0 0.79823892E+02</rscale>
<asrwt>0</asrwt>
<pdfrwt beam="1">  1        4 0.57974573E-02 0.79823892E+02</pdfrwt>
<pdfrwt beam="2">  1       -3 0.65034160E-02 0.79823892E+02</pdfrwt>
<totfact> 0.45473893E+04</totfact>
</mgrwt>
</event>
<event>
 8      1 +5.0320763e-08 7.95340700e+01 7.81860800e-03 1.33037900e-01
        1 -1    0    0  501    0 +0.0000000000e+00 +0.0000000000e+00 +5.8050254854e+01 5.8050255073e+01 5.0400000000e-03 0.0000e+00 -1.0000e+00
       -2 -1    0    0    0  501 -0.0000000000e+00 -0.0000000000e+00 -2.7242204040e+01 2.7242204159e+01 2.5500000000e-03 0.0000e+00 1.0000e+00
      -24  2    1    2    0    0 -3.5527136788e-15 +0.0000000000e+00 +3.0808050814e+01 8.5292459232e+01 7.9534065700e+01 0.0000e+00 0.0000e+00
       66  2    3    3    0    0 -2.4915598123e+01 +1.0068621075e+01 -4.9318274410e+00 4.0576531176e+01 2.9999463331e+01 0.0000e+00 0.0000e+00
       13  1    3    3    0    0 +2.4915598123e+01 -1.0068621075e+01 +3.5739878255e+01 4.4715928056e+01 1.0566000000e-01 0.0000e+00 -1.0000e+00
       13  1    4    4    0    0 -5.5592976217e-01 -6.5056882929e-01 -1.1744991438e+00 1.4570209252e+00 1.0566000000e-01 0.0000e+00 -1.0000e+00
      -13  1    4    4    0    0 -2.0549011379e+01 +1.0395055607e+01 -1.4839497868e+01 2.7396001729e+01 1.0566000000e-01 0.0000e+00 1.0000e+00
      -14  1    4    4    0    0 -3.8106569818e+00 +3.2413429744e-01 +1.1082169570e+01 1.1723508522e+01 0.0000000000e+00 0.0000e+00 1.0000e+00
<mgrwt>
<rscale>  0 0.79534066E+02</rscale>
<asrwt>0</asrwt>
<pdfrwt beam="1">  1        1 0.89308085E-02 0.79534066E+02</pdfrwt>
<pdfrwt beam="2">  1       -2 0.41911083E-02 0.79534066E+02</pdfrwt>
<totfact> 0.13687508E+05</totfact>
</mgrwt>
</event>
<event>
 8      1 +5.0320763e-08 8.21758600e+01 7.81860800e-03 1.32298800e-01
       -2 -1    0    0    0  501 -0.0000000000e+00 +0.0000000000e+00 +8.7438898950e+02 8.7438898951e+02 2.5500000000e-03 0.0000e+00 1.0000e+00
        1 -1    0    0  501    0 +0.0000000000e+00 -0.0000000000e+00 -1.9307368364e+00 1.9307434146e+00 5.0400000000e-03 0.0000e+00 -1.0000e+00
      -24  2    1    2    0    0 -3.5527136788e-15 +0.0000000000e+00 +8.7245825267e+02 8.7631973292e+02 8.2175858142e+01 0.0000e+00 0.0000e+00
       66  2    3    3    0    0 -2.2182585471e+01 +9.2081878062e+00 +7.7475783656e+02 7.7571038797e+02 3.0000714440e+01 0.0000e+00 0.0000e+00
       13  1    3    3    0    0 +2.2182585471e+01 -9.2081878062e+00 +9.7700416105e+01 1.0060934495e+02 1.0566000000e-01 0.0000e+00 -1.0000e+00
       13  1    4    4    0    0 +1.0837245072e+00 -2.1403609981e+00 +3.1758961136e+02 3.1759869019e+02 1.0566000000e-01 0.0000e+00 -1.0000e+00
      -13  1    4    4    0    0 -2.0612845650e+01 +8.2720161639e+00 +2.7411119189e+02 2.7500958591e+02 1.0566000000e-01 0.0000e+00 1.0000e+00
      -14  1    4    4    0    0 -2.6534643282e+00 +3.0765326403e+00 +1.8305703331e+02 1.8310211186e+02 0.0000000000e+00 0.0000e+00 1.0000e+00
<mgrwt>
<rscale>  0 0.82175858E+02</rscale>
<asrwt>0</asrwt>
<pdfrwt beam="1">  1        1 0.29703764E-03 0.82175858E+02</pdfrwt>
<pdfrwt beam="2">  1       -2 0.13452107E+00 0.82175858E+02</pdfrwt>
<totfact> 0.28263128E+04</totfact>
</mgrwt>
</event>
<event>
 8      1 +5.0320763e-08 7.83949900e+01 7.81860800e-03 1.33366900e-01
       -3 -1    0    0    0  501 -0.0000000000e+00 +0.0000000000e+00 +6.3955092492e+01 6.3955172243e+01 1.0100000000e-01 0.0000e+00 1.0000e+00
        4 -1    0    0  501    0 +0.0000000000e+00 -0.0000000000e+00 -2.4000641779e+01 2.4034219475e+01 1.2700000000e+00 0.0000e+00 -1.0000e+00
       24  2    1    2    0    0 +0.0000000000e+00 +0.0000000000e+00 +3.9954450713e+01 8.7989391718e+01 7.8394992972e+01 0.0000e+00 0.0000e+00
       66  2    3    3    0    0 -4.1817778177e+00 +2.1751070258e+01 -5.2409843828e+00 3.7658140585e+01 3.0001188509e+01 0.0000e+00 0.0000e+00
      -13  1    3    3    0    0 +4.1817778177e+00 -2.1751070258e+01 +4.5195435096e+01 5.0331251133e+01 1.0566000000e-01 0.0000e+00 1.0000e+00
       13  1    4    4    0    0 +2.4886132899e-01 +6.9191023831e+00 -5.0424634884e+00 8.5658339826e+00 1.0566000000e-01 0.0000e+00 1.0000e+00
      -13  1    4    4    0    0 -2.0387017070e+00 +1.3235132596e+01 -1.1363304697e+01 1.7563054893e+01 1.0566000000e-01 0.0000e+00 -1.0000e+00
      -14  1    4    4    0    0 -2.3919374397e+00 +1.5968352783e+00 +1.1164783803e+01 1.1529251710e+01 0.0000000000e+00 0.0000e+00 1.0000e+00
<mgrwt>
<rscale>  0 0.78394993E+02</rscale>
<asrwt>0</asrwt>
<pdfrwt beam="1">  1        4 0.36959591E-02 0.78394993E+02</pdfrwt>
<pdfrwt beam="2">  1       -3 0.98392680E-02 0.78394993E+02</pdfrwt>
<totfact> 0.47393121E+04</totfact>
</mgrwt>
</event>
<event>
 8      1 +5.0320763e-08 8.05170200e+01 7.81860800e-03 1.32759100e-01
       -1 -1    0    0    0  501 -0.0000000000e+00 +0.0000000000e+00 +2.2196204073e+00 2.2196261294e+00 5.0400000000e-03 0.0000e+00 1.0000e+00
        2 -1    0    0  501    0 +0.0000000000e+00 -0.0000000000e+00 -7.3019039042e+02 7.3019039042e+02 2.5500000000e-03 0.0000e+00 -1.0000e+00
       24  2    1    2    0    0 +0.0000000000e+00 -1.3322676296e-15 -7.2797077001e+02 7.3241001655e+02 8.0517019043e+01 0.0000e+00 0.0000e+00
       66  2    3    3    0    0 -3.0982493296e+01 -3.2522177112e+00 -5.5291399582e+02 5.5460288181e+02 2.9999632128e+01 0.0000e+00 0.0000e+00
      -13  1    3    3    0    0 +3.0982493296e+01 +3.2522177112e+00 -1.7505677419e+02 1.7780713474e+02 1.0566000000e-01 0.0000e+00 1.0000e+00
       13  1    4    4    0    0 -1.6762900273e+01 +1.0406318491e+01 -3.4656751809e+02 3.4712871107e+02 1.0566000000e-01 0.0000e+00 -1.0000e+00
      -13  1    4    4    0    0 -1.5009130035e+01 -1.0551439038e+01 -1.7032298747e+02 1.7130831292e+02 1.0566000000e-01 0.0000e+00 1.0000e+00
      -14  1    4    4    0    0 +7.8953701192e-01 -3.1070971647e+00 -3.6023490258e+01 3.6165857820e+01 0.0000000000e+00 0.0000e+00 1.0000e+00
<mgrwt>
<rscale>  0 0.80517019E+02</rscale>
<asrwt>0</asrwt>
<pdfrwt beam="1">  1        2 0.11233679E+00 0.80517019E+02</pdfrwt>
<pdfrwt beam="2">  1       -1 0.34148109E-03 0.80517019E+02</pdfrwt>
<totfact> 0.33204275E+05</totfact>
</mgrwt>
</event>
<event>
 8      1 +5.0320763e-08 7.88846500e+01 7.81860800e-03 1.33224700e-01
        2 -1    0    0  501    0 +0.0000000000e+00 +0.0000000000e+00 +2.4705242948e+02 2.4705242950e+02 2.5500000000e-03 0.0000e+00 -1.0000e+00
       -3 -1    0    0    0  501 -0.0000000000e+00 -0.0000000000e+00 -6.2966160448e+00 6.2974260309e+00 1.0100000000e-01 0.0000e+00 1.0000e+00
       24  2    1    2    0    0 +0.0000000000e+00 +0.0000000000e+00 +2.4075581344e+02 2.5334985553e+02 7.8884647374e+01 0.0000e+00 0.0000e+00
       66  2    3    3    0    0 -2.0632636758e+01 -2.6042157261e+00 +2.2310876683e+02 2.2607501259e+02 2.9998364008e+01 0.0000e+00 0.0000e+00
      -13  1    3    3    0    0 +2.0632636758e+01 +2.6042157261e+00 +1.7647046612e+01 2.7274842938e+01 1.0566000000e-01 0.0000e+00 1.0000e+00
       13  1    4    4    0    0 -8.2555874992e+00 -7.1897233047e+00 +4.9432811982e+01 5.0630632138e+01 1.0566000000e-01 0.0000e+00 -1.0000e+00
      -13  1    4    4    0    0 +5.8216368956e+00 +2.0105314339e+00 +5.6638819228e+01 5.6972806675e+01 1.0566000000e-01 0.0000e+00 1.0000e+00
       14  1    4    4    0    0 -1.8198686155e+01 +2.5749761448e+00 +1.1703713562e+02 1.1847157378e+02 0.0000000000e+00 0.0000e+00 -1.0000e+00
<mgrwt>
<rscale>  0 0.78884647E+02</rscale>
<asrwt>0</asrwt>
<pdfrwt beam="1">  1        2 0.38008065E-01 0.78884647E+02</pdfrwt>
<pdfrwt beam="2">  1       -3 0.96877408E-03 0.78884647E+02</pdfrwt>
<totfact> 0.19627678E+05</totfact>
</mgrwt>
</event>
<event>
 8      1 +5.0320763e-08 8.23861900e+01 7.81860800e-03 1.32241300e-01
        2 -1    0    0  501    0 +0.0000000000e+00 +0.0000000000e+00 +4.2961022035e+01 4.2961022111e+01 2.5500000000e-03 0.0000e+00 -1.0000e+00
       -1 -1    0    0    0  501 -0.0000000000e+00 -0.0000000000e+00 -3.9497920680e+01 3.9497921001e+01 5.0400000000e-03 0.0000e+00 1.0000e+00
       24  2    1    2    0    0 +0.0000000000e+00 +0.0000000000e+00 +3.4631013554e+00 8.2458943112e+01 8.2386189547e+01 0.0000e+00 0.0000e+00
       66  2    3    3    0    0 -3.5280076292e+01 -2.0105883473e+00 +7.2496425644e+00 4.6919172333e+01 3.0002086034e+01 0.0000e+00 0.0000e+00
      -13  1    3    3    0    0 +3.5280076292e+01 +2.0105883473e+00 -3.7865412090e+00 3.5539770779e+01 1.0566000000e-01 0.0000e+00 1.0000e+00
       13  1    4    4    0    0 -6.4344133480e+00 +4.0794204309e+00 +5.9278198986e+00 9.6536811098e+00 1.0566000000e-01 0.0000e+00 -1.0000e+00
      -13  1    4    4    0    0 -3.1328097740e+01 -8.0802969798e+00 +4.6211432010e+00 3.2681906857e+01 1.0566000000e-01 0.0000e+00 1.0000e+00
      -14  1    4    4    0    0 +2.4824347963e+00 +1.9902882017e+00 -3.2993205352e+00 4.5835843657e+00 0.0000000000e+00 0.0000e+00 1.0000e+00
<mgrwt>
<rscale>  0 0.82386190E+02</rscale>
<asrwt>0</asrwt>
<pdfrwt beam="1">  1        2 0.66093880E-02 0.82386190E+02</pdfrwt>
<pdfrwt beam="2">  1       -1 0.60766032E-02 0.82386190E+02</pdfrwt>
<totfact> 0.13339581E+05</totfact>
</mgrwt>
</event>
<event>
 8      1 +5.0320763e-08 8.13869500e+01 7.81860800e-03 1.32516100e-01
        1 -1    0    0  501    0 +0.0000000000e+00 +0.0000000000e+00 +4.7361637880e+00 4.7361664697e+00 5.0400000000e-03 0.0000e+00 -1.0000e+00
       -2 -1    0    0    0  501 -0.0000000000e+00 -0.0000000000e+00 -3.4964129177e+02 3.4964129178e+02 2.5500000000e-03 0.0000e+00 1.0000e+00
      -24  2    1    2    0    0 +3.5527136788e-15 +8.8817841970e-16 -3.4490512798e+02 3.5437745825e+02 8.1386949855e+01 0.0000e+00 0.0000e+00
       66  2    3    3    0    0 -2.3349444218e+01 -6.7146379865e+00 -3.0657330117e+02 3.0899438851e+02 3.0001003796e+01 0.0000e+00 0.0000e+00
       13  1    3    3    0    0 +2.3349444218e+01 +6.7146379865e+00 -3.8331826811e+01 4.5383069743e+01 1.0566000000e-01 0.0000e+00 -1.0000e+00
       13  1    4    4    0    0 +9.6445491887e-01 -7.0749435270e-01 -1.4380180831e+00 1.8734411100e+00 1.0566000000e-01 0.0000e+00 -1.0000e+00
      -13  1    4    4    0    0 -2.4606722996e+01 -5.5902731397e+00 -3.0547058786e+02 3.0651106535e+02 1.0566000000e-01 0.0000e+00 1.0000e+00
      -14  1    4    4    0    0 +2.9282385914e-01 -4.1687049412e-01 +3.3530477138e-01 6.0988204684e-01 0.0000000000e+00 0.0000e+00 1.0000e+00
<mgrwt>
<rscale>  0 0.81386950E+02</rscale>
<asrwt>0</asrwt>
<pdfrwt beam="1">  1        1 0.72864107E-03 0.81386950E+02</pdfrwt>
<pdfrwt beam="2">  1       -2 0.53790947E-01 0.81386950E+02</pdfrwt>
<totfact> 0.61556778E+04</totfact>
</mgrwt>
</event>
<event>
 8      1 +5.0320763e-08 7.97887400e+01 7.81860800e-03 1.32965200e-01
       -1 -1    0    0    0  501 -0.0000000000e+00 +0.0000000000e+00 +3.3280759921e+01 3.3280760302e+01 5.0400000000e-03 0.0000e+00 1.0000e+00
        2 -1    0    0  501    0 +0.0000000000e+00 -0.0000000000e+00 -4.7822248125e+01 4.7822248193e+01 2.5500000000e-03 0.0000e+00 -1.0000e+00
       24  2    1    2    0    0 +0.0000000000e+00 +0.0000000000e+00 -1.4541488205e+01 8.1103008496e+01 7.9788740483e+01 0.0000e+00 0.0000e+00
       66  2    3    3    0    0 +2.0315303557e+01 -2.5616278779e+01 +2.0934869854e+00 4.4420057951e+01 2.9997559292e+01 0.0000e+00 0.0000e+00
      -13  1    3    3    0    0 -2.0315303557e+01 +2.5616278779e+01 -1.6634975190e+01 3.6682950545e+01 1.0566000000e-01 0.0000e+00 1.0000e+00
       13  1    4    4    0    0 +7.4228787301e+00 -9.9714466389e+00 -2.9478986648e-01 1.2434908195e+01 1.0566000000e-01 0.0000e+00 1.0000e+00
      -13  1    4    4    0    0 +4.2662250625e+00 -5.3115415887e+00 -1.1039062256e+01 1.2972478941e+01 1.0566000000e-01 0.0000e+00 -1.0000e+00
      -14  1    4    4    0    0 +8.6261997646e+00 -1.0333290551e+01 +1.3427339108e+01 1.9012670815e+01 0.0000000000e+00 0.0000e+00 1.0000e+00
<mgrwt>
<rscale>  0 0.79788740E+02</rscale>
<asrwt>0</asrwt>
<pdfrwt beam="1">  1        2 0.73572689E-02 0.79788740E+02</pdfrwt>
<pdfrwt beam="2">  1       -1 0.51201170E-02 0.79788740E+02</pdfrwt>
<totfact> 0.14907541E+05</totfact>
</mgrwt>
</event>
<event>
 8      1 +5.0320763e-08 7.96370800e+01 7.81860800e-03 1.33008500e-01
        2 -1    0    0  501    0 +0.0000000000e+00 +0.0000000000e+00 +2.4401426891e+02 2.4401426892e+02 2.5500000000e-03 0.0000e+00 -1.0000e+00
       -1 -1    0    0    0  501 -0.0000000000e+00 -0.0000000000e+00 -6.4976360033e+00 6.4976379580e+00 5.0400000000e-03 0.0000e+00 1.0000e+00
       24  2    1    2    0    0 +1.7763568394e-15 +0.0000000000e+00 +2.3751663290e+02 2.5051190688e+02 7.9637080445e+01 0.0000e+00 0.0000e+00
       66  2    3    3    0    0 +1.5773058332e+01 +1.5928170866e+01 +2.1672784700e+02 2.1993935743e+02 2.9997754679e+01 0.0000e+00 0.0000e+00
      -13  1    3    3    0    0 -1.5773058332e+01 -1.5928170866e+01 +2.0788785902e+01 3.0572549446e+01 1.0566000000e-01 0.0000e+00 1.0000e+00
       13  1    4    4    0    0 +1.7087811214e+01 +7.3975217137e+00 +1.4199643586e+02 1.4321213490e+02 1.0566000000e-01 0.0000e+00 -1.0000e+00
      -13  1    4    4    0    0 -2.3050610727e+00 -2.9407584977e+00 +3.9176641118e+01 3.9354564416e+01 1.0566000000e-01 0.0000e+00 1.0000e+00
       14  1    4    4    0    0 +9.9030819117e-01 +1.1471407650e+01 +3.5554770021e+01 3.7372658121e+01 0.0000000000e+00 0.0000e+00 -1.0000e+00
<mgrwt>
<rscale>  0 0.79637080E+02</rscale>
<asrwt>0</asrwt>
<pdfrwt beam="1">  1        2 0.37540658E-01 0.79637080E+02</pdfrwt>
<pdfrwt beam="2">  1       -1 0.99963644E-03 0.79637080E+02</pdfrwt>
<totfact> 0.23946889E+05</totfact>
</mgrwt>
</event>
<event>
 8      1 +5.0320763e-08 8.15991400e+01 7.81860800e-03 1.32457400e-01
        3 -1    0    0  501    0 +0.0000000000e+00 +0.0000000000e+00 +7.5796838910e+01 7.5796906201e+01 1.0100000000e-01 0.0000e+00 -1.0000e+00
       -4 -1    0    0    0  501 -0.0000000000e+00 -0.0000000000e+00 -2.1937676150e+01 2.1974406360e+01 1.2700000000e+00 0.0000e+00 1.0000e+00
      -24  2    1    2    0    0 +6.6613381478e-16 +3.5527136788e-15 +5.3859162760e+01 9.7771312561e+01 8.1599143051e+01 0.0000e+00 0.0000e+00
       66  2    3    3    0    0 -1.4573472466e+00 -2.7507761493e+01 +4.1491490969e+00 4.0939126031e+01 2.9999929978e+01 0.0000e+00 0.0000e+00
       13  1    3    3    0    0 +1.4573472466e+00 +2.7507761493e+01 +4.9710013663e+01 5.6832186530e+01 1.0566000000e-01 0.0000e+00 -1.0000e+00
       13  1    4    4    0    0 +5.0591692770e+00 -3.9269070784e+00 +1.3090868306e+00 6.5376345371e+00 1.0566000000e-01 0.0000e+00 -1.0000e+00
      -13  1    4    4    0    0 +7.4765283037e+00 -1.4160299750e+01 -3.4812894394e+00 1.6387284848e+01 1.0566000000e-01 0.0000e+00 1.0000e+00
       14  1    4    4    0    0 -1.3993044827e+01 -9.4205546640e+00 +6.3213517058e+00 1.8014206646e+01 0.0000000000e+00 0.0000e+00 -1.0000e+00
<mgrwt>
<rscale>  0 0.81599143E+02</rscale>
<asrwt>0</asrwt>
<pdfrwt beam="1">  1        3 0.11661076E-01 0.81599143E+02</pdfrwt>
<pdfrwt beam="2">  1       -4 0.33786707E-02 0.81599143E+02</pdfrwt>
<totfact> 0.41779147E+04</totfact>
</mgrwt>
</event>
<event>
 8      1 +5.0320763e-08 7.98282300e+01 7.81860800e-03 1.32954000e-01
       -1 -1    0    0    0  501 -0.0000000000e+00 +0.0000000000e+00 +1.6337309636e+02 1.6337309644e+02 5.0400000000e-03 0.0000e+00 1.0000e+00
        2 -1    0    0  501    0 +0.0000000000e+00 -0.0000000000e+00 -9.7515229364e+00 9.7515232698e+00 2.5500000000e-03 0.0000e+00 -1.0000e+00
       24  2    1    2    0    0 +1.7763568394e-15 +0.0000000000e+00 +1.5362157342e+02 1.7312461971e+02 7.9828228890e+01 0.0000e+00 0.0000e+00
       66  2    3    3    0    0 +1.1911618477e+01 -1.9060540472e+01 +3.1539833558e+01 4.8991009310e+01 3.0002783779e+01 0.0000e+00 0.0000e+00
      -13  1    3    3    0    0 -1.1911618477e+01 +1.9060540472e+01 +1.2208173987e+02 1.2413361040e+02 1.0566000000e-01 0.0000e+00 1.0000e+00
       13  1    4    4    0    0 +9.6097670360e+00 -1.3412775828e+00 +3.0028850134e+00 1.0157515960e+01 1.0566000000e-01 0.0000e+00 -1.0000e+00
      -13  1    4    4    0    0 -6.6485564340e+00 -5.9136554998e+00 +3.1495292408e+00 9.4395615630e+00 1.0566000000e-01 0.0000e+00 1.0000e+00
      -14  1    4    4    0    0 +8.9504078750e+00 -1.1805607389e+01 +2.5387419304e+01 2.9393931787e+01 0.0000000000e+00 0.0000e+00 1.0000e+00
<mgrwt>
<rscale>  0 0.79828229E+02</rscale>
<asrwt>0</asrwt>
<pdfrwt beam="1">  1        2 0.15002345E-02 0.79828229E+02</pdfrwt>
<pdfrwt beam="2">  1       -1 0.25134320E-01 0.79828229E+02</pdfrwt>
<totfact> 0.10607216E+05</totfact>
</mgrwt>
</event>
<event>
 8      1 +5.0320763e-08 7.99762100e+01 7.81860800e-03 1.32911900e-01
       -4 -1    0    0    0  501 -0.0000000000e+00 +0.0000000000e+00 +3.8682623238e+00 4.0714068092e+00 1.2700000000e+00 0.0000e+00 1.0000e+00
        3 -1    0    0  501    0 +0.0000000000e+00 -0.0000000000e+00 -4.0269753340e+02 4.0269754607e+02 1.0100000000e-01 0.0000e+00 -1.0000e+00
      -24  2    1    2    0    0 +3.5527136788e-15 +1.7763568394e-15 -3.9882927108e+02 4.0676895288e+02 7.9976206186e+01 0.0000e+00 0.0000e+00
       66  2    3    3    0    0 -3.0737848237e+01 -1.4321760952e+01 -1.9926716526e+02 2.0434619380e+02 3.0000593619e+01 0.0000e+00 0.0000e+00
       13  1    3    3    0    0 +3.0737848237e+01 +1.4321760952e+01 -1.9956210582e+02 2.0242275908e+02 1.0566000000e-01 0.0000e+00 -1.0000e+00
       13  1    4    4    0    0 -3.0529998283e+00 -1.2262852900e+01 -8.1243926912e+01 8.2220953493e+01 1.0566000000e-01 0.0000e+00 -1.0000e+00
      -13  1    4    4    0    0 -1.9703818394e+01 -5.2881785827e+00 -1.0109942568e+02 1.0313733722e+02 1.0566000000e-01 0.0000e+00 1.0000e+00
       14  1    4    4    0    0 -7.9810300151e+00 +3.2292705315e+00 -1.6923812663e+01 1.8987903079e+01 0.0000000000e+00 0.0000e+00 -1.0000e+00
<mgrwt>
<rscale>  0 0.79976206E+02</rscale>
<asrwt>0</asrwt>
<pdfrwt beam="1">  1        3 0.61953534E-01 0.79976206E+02</pdfrwt>
<pdfrwt beam="2">  1       -4 0.61089815E-03 0.79976206E+02</pdfrwt>
<totfact> 0.26363805E+04</totfact>
</mgrwt>
</event>
<event>
 8      1 +5.0320763e-08 7.90253400e+01 7.81860800e-03 1.33184000e-01
        2 -1    0    0  501    0 +0.0000000000e+00 +0.0000000000e+00 +4.3474578904e+00 4.3474586383e+00 2.5500000000e-03 0.0000e+00 -1.0000e+00
       -1 -1    0    0    0  501 -0.0000000000e+00 -0.0000000000e+00 -3.5911808698e+02 3.5911808701e+02 5.0400000000e-03 0.0000e+00 1.0000e+00
       24  2    1    2    0    0 -5.3290705182e-15 -3.5527136788e-15 -3.5477062909e+02 3.6346554565e+02 7.9025335258e+01 0.0000e+00 0.0000e+00
       66  2    3    3    0    0 +1.1128245280e+01 +3.0594757527e+01 -1.6085212064e+02 1.6683320824e+02 3.0000627127e+01 0.0000e+00 0.0000e+00
      -13  1    3    3    0    0 -1.1128245280e+01 -3.0594757527e+01 -1.9391850845e+02 1.9663233741e+02 1.0566000000e-01 0.0000e+00 1.0000e+00
       13  1    4    4    0    0 -8.1423856608e+00 +7.9987438670e+00 -7.5312996771e+01 7.6173072633e+01 1.0566000000e-01 0.0000e+00 -1.0000e+00
      -13  1    4    4    0    0 +8.5335788755e+00 +6.7210523291e+00 -2.9799397448e+01 3.1717656993e+01 1.0566000000e-01 0.0000e+00 1.0000e+00
       14  1    4    4    0    0 +1.0737052065e+01 +1.5874961331e+01 -5.5739726417e+01 5.8942478616e+01 0.0000000000e+00 0.0000e+00 -1.0000e+00
<mgrwt>
<rscale>  0 0.79025335E+02</rscale>
<asrwt>0</asrwt>
<pdfrwt beam="1">  1        2 0.66884002E-03 0.79025335E+02</pdfrwt>
<pdfrwt beam="2">  1       -1 0.55248913E-01 0.79025335E+02</pdfrwt>
<totfact> 0.82475520E+04</totfact>
</mgrwt>
</event>
<event>
 8      1 +5.0320763e-08 8.27889100e+01 7.81860800e-03 1.32131800e-01
       -1 -1    0    0    0  501 -0.0000000000e+00 +0.0000000000e+00 +7.8944572821e+00 7.8944588909e+00 5.0400000000e-03 0.0000e+00 1.0000e+00
        2 -1    0    0  501    0 +0.0000000000e+00 -0.0000000000e+00 -2.1705111750e+02 2.1705111752e+02 2.5500000000e-03 0.0000e+00 -1.0000e+00
       24  2    1    2    0    0 +0.0000000000e+00 +0.0000000000e+00 -2.0915666022e+02 2.2494557641e+02 8.2788911281e+01 0.0000e+00 0.0000e+00
       66  2    3    3    0    0 -1.9644723790e+01 +2.0282921893e+00 -1.9995948541e+02 2.0315961004e+02 3.0000036755e+01 0.0000e+00 0.0000e+00
      -13  1    3    3    0    0 +1.9644723790e+01 -2.0282921893e+00 -9.1971748121e+00 2.1785966367e+01 1.0566000000e-01 0.0000e+00 1.0000e+00
       13  1    4    4    0    0 -4.5393008391e+00 +3.4751288797e+00 -9.4141129646e+01 9.4314607712e+01 1.0566000000e-01 0.0000e+00 -1.0000e+00
      -13  1    4    4    0    0 -1.5941188213e+01 -7.7665724536e+00 -9.1031162942e+01 9.2742249919e+01 1.0566000000e-01 0.0000e+00 1.0000e+00
      -14  1    4    4    0    0 +8.3576526199e-01 +6.3197357632e+00 -1.4787192821e+01 1.6102752411e+01 0.0000000000e+00 0.0000e+00 1.0000e+00
<mgrwt>
<rscale>  0 0.82788911E+02</rscale>
<asrwt>0</asrwt>
<pdfrwt beam="1">  1        2 0.33392475E-01 0.82788911E+02</pdfrwt>
<pdfrwt beam="2">  1       -1 0.12145322E-02 0.82788911E+02</pdfrwt>
<totfact> 0.20735911E+05</totfact>
</mgrwt>
</event>
<event>
 8      1 +5.0320763e-08 7.15956300e+01 7.81860800e-03 1.35475000e-01
       -1 -1    0    0    0  501 -0.0000000000e+00 +0.0000000000e+00 +4.2339652691e+00 4.2339682688e+00 5.0400000000e-03 0.0000e+00 1.0000e+00
        2 -1    0    0  501    0 +0.0000000000e+00 -0.0000000000e+00 -3.0266735921e+02 3.0266735923e+02 2.5500000000e-03 0.0000e+00 -1.0000e+00
       24  2    1    2    0    0 -3.5527136788e-15 -1.8318679906e-15 -2.9843339395e+02 3.0690132749e+02 7.1595629726e+01 0.0000e+00 0.0000e+00
       66  2    3    3    0    0 -2.9491734092e+01 -1.7430611279e-01 -1.8008998385e+02 1.8493835508e+02 3.0000002254e+01 0.0000e+00 0.0000e+00
      -13  1    3    3    0    0 +2.9491734092e+01 +1.7430611279e-01 -1.1834341010e+02 1.2196297241e+02 1.0566000000e-01 0.0000e+00 1.0000e+00
       13  1    4    4    0    0 -1.5902884936e+00 +8.6603001756e+00 -3.9390385673e+01 4.0362649369e+01 1.0566000000e-01 0.0000e+00 1.0000e+00
      -13  1    4    4    0    0 -1.6250109950e+01 +3.1329814905e+00 -6.9581103667e+01 7.1522183956e+01 1.0566000000e-01 0.0000e+00 -1.0000e+00
       14  1    4    4    0    0 -1.1651335649e+01 -1.1967587779e+01 -7.1118494510e+01 7.3053521756e+01 0.0000000000e+00 0.0000e+00 -1.0000e+00
<mgrwt>
<rscale>  0 0.71595630E+02</rscale>
<asrwt>0</asrwt>
<pdfrwt beam="1">  1        2 0.46564192E-01 0.71595630E+02</pdfrwt>
<pdfrwt beam="2">  1       -1 0.65137975E-03 0.71595630E+02</pdfrwt>
<totfact> 0.34152750E+05</totfact>
</mgrwt>
</event>
<event>
 8      1 +5.0320763e-08 7.95393100e+01 7.81860800e-03 1.33036400e-01
       -1 -1    0    0    0  501 -0.0000000000e+00 +0.0000000000e+00 +2.1339279861e+02 2.1339279867e+02 5.0400000000e-03 0.0000e+00 1.0000e+00
        2 -1    0    0  501    0 +0.0000000000e+00 -0.0000000000e+00 -7.4118025098e+00 7.4118029485e+00 2.5500000000e-03 0.0000e+00 -1.0000e+00
       24  2    1    2    0    0 +1.7763568394e-15 -3.5527136788e-15 +2.0598099610e+02 2.2080460161e+02 7.9539306894e+01 0.0000e+00 0.0000e+00
       66  2    3    3    0    0 -1.5254177638e+01 -2.6723520854e+01 +1.5851558481e+02 1.6423771258e+02 2.9999985068e+01 0.0000e+00 0.0000e+00
      -13  1    3    3    0    0 +1.5254177638e+01 +2.6723520854e+01 +4.7465411288e+01 5.6566889034e+01 1.0566000000e-01 0.0000e+00 1.0000e+00
       13  1    4    4    0    0 -5.7125173505e+00 -1.2806109028e+01 +5.0318960494e+01 5.2236368864e+01 1.0566000000e-01 0.0000e+00 -1.0000e+00
      -13  1    4    4    0    0 +4.2826767929e+00 -1.4046458085e+01 +6.5344323902e+01 6.6974145276e+01 1.0566000000e-01 0.0000e+00 1.0000e+00
      -14  1    4    4    0    0 -1.3824337080e+01 +1.2904625815e-01 +4.2852300414e+01 4.5027198440e+01 0.0000000000e+00 0.0000e+00 1.0000e+00
<mgrwt>
<rscale>  0 0.79539307E+02</rscale>
<asrwt>0</asrwt>
<pdfrwt beam="1">  1        2 0.11402776E-02 0.79539307E+02</pdfrwt>
<pdfrwt beam="2">  1       -1 0.32829655E-01 0.79539307E+02</pdfrwt>
<totfact> 0.99075998E+04</totfact>
</mgrwt>
</event>
<event>
 8      1 +5.0320763e-08 6.71558800e+01 7.81860800e-03 1.37004100e-01
        2 -1    0    0  501    0 +0.0000000000e+00 +0.0000000000e+00 +1.7179662521e+01 1.7179662710e+01 2.5500000000e-03 0.0000e+00 -1.0000e+00
       -1 -1    0    0    0  501 -0.0000000000e+00 -0.0000000000e+00 -6.5628655297e+01 6.5628655491e+01 5.0400000000e-03 0.0000e+00 1.0000e+00
       24  2    1    2    0    0 +0.0000000000e+00 +0.0000000000e+00 -4.8448992777e+01 8.2808318201e+01 6.7155883303e+01 0.0000e+00 0.0000e+00
       66  2    3    3    0    0 -2.3937642444e+01 -5.6987589406e+00 -1.5726923114e+01 4.1866510885e+01 2.9999700729e+01 0.0000e+00 0.0000e+00
      -13  1    3    3    0    0 +2.3937642444e+01 +5.6987589406e+00 -3.2722069663e+01 4.0941807316e+01 1.0566000000e-01 0.0000e+00 1.0000e+00
       13  1    4    4    0    0 +4.5975520151e+00 +4.2872605368e+00 -3.9375564568e+00 7.4184636097e+00 1.0566000000e-01 0.0000e+00 -1.0000e+00
      -13  1    4    4    0    0 -1.1658243872e+01 -9.3597272588e+00 -8.6414415402e+00 1.7268607948e+01 1.0566000000e-01 0.0000e+00 1.0000e+00
       14  1    4    4    0    0 -1.6876950587e+01 -6.2629221863e-01 -3.1479251170e+00 1.7179439328e+01 0.0000000000e+00 0.0000e+00 -1.0000e+00
<mgrwt>
<rscale>  0 0.67155883E+02</rscale>
<asrwt>0</asrwt>
<pdfrwt beam="1">  1        2 0.26430251E-02 0.67155883E+02</pdfrwt>
<pdfrwt beam="2">  1       -1 0.10096716E-01 0.67155883E+02</pdfrwt>
<totfact> 0.19806933E+05</totfact>
</mgrwt>
</event>
<event>
 8      1 +5.0320763e-08 8.02118800e+01 7.81860800e-03 1.32845100e-01
        2 -1    0    0  501    0 +0.0000000000e+00 +0.0000000000e+00 +2.6865808114e+01 2.6865808235e+01 2.5500000000e-03 0.0000e+00 -1.0000e+00
       -1 -1    0    0    0  501 -0.0000000000e+00 -0.0000000000e+00 -5.9871130209e+01 5.9871130422e+01 5.0400000000e-03 0.0000e+00 1.0000e+00
       24  2    1    2    0    0 +7.1054273576e-15 +0.0000000000e+00 -3.3005322095e+01 8.6736938657e+01 8.0211877181e+01 0.0000e+00 0.0000e+00
       66  2    3    3    0    0 +3.4189415840e+01 +3.9915807595e+00 -2.1261828629e+01 5.0367037979e+01 2.9998738069e+01 0.0000e+00 0.0000e+00
      -13  1    3    3    0    0 -3.4189415840e+01 -3.9915807595e+00 -1.1743493467e+01 3.6369900677e+01 1.0566000000e-01 0.0000e+00 1.0000e+00
       13  1    4    4    0    0 -1.3726705432e+00 -3.1448609905e+00 +2.2347425398e+00 4.0962926317e+00 1.0566000000e-01 0.0000e+00 -1.0000e+00
      -13  1    4    4    0    0 +1.2335064794e+01 +9.8784539466e+00 -5.4060642782e+00 1.6702525883e+01 1.0566000000e-01 0.0000e+00 1.0000e+00
       14  1    4    4    0    0 +2.3227021589e+01 -2.7420121965e+00 -1.8090506890e+01 2.9568219465e+01 0.0000000000e+00 0.0000e+00 -1.0000e+00
<mgrwt>
<rscale>  0 0.80211877E+02</rscale>
<asrwt>0</asrwt>
<pdfrwt beam="1">  1        2 0.41332013E-02 0.80211877E+02</pdfrwt>
<pdfrwt beam="2">  1       -1 0.92109432E-02 0.80211877E+02</pdfrwt>
<totfact> 0.13068024E+05</totfact>
</mgrwt>
</event>
<event>
 8      1 +5.0320763e-08 8.28627900e+01 7.81860800e-03 1.32111800e-01
        4 -1    0    0  501    0 +0.0000000000e+00 +0.0000000000e+00 +3.3519807870e+01 3.3543858151e+01 1.2700000000e+00 0.0000e+00 -1.0000e+00
       -3 -1    0    0    0  501 -0.0000000000e+00 -0.0000000000e+00 -5.1179814392e+01 5.1179914050e+01 1.0100000000e-01 0.0000e+00 1.0000e+00
       24  2    1    2    0    0 +0.0000000000e+00 +0.0000000000e+00 -1.7660006522e+01 8.4723772201e+01 8.2862788666e+01 0.0000e+00 0.0000e+00
       66  2    3    3    0    0 +2.0389669444e+00 +3.1183602655e+01 +8.2885507268e+00 4.4104648034e+01 2.9999090724e+01 0.0000e+00 0.0000e+00
      -13  1    3    3    0    0 -2.0389669444e+00 -3.1183602655e+01 -2.5948557249e+01 4.0619124167e+01 1.0566000000e-01 0.0000e+00 1.0000e+00
       13  1    4    4    0    0 -9.6128361763e-01 +1.8668697560e+01 -2.0488250253e+00 1.8805668901e+01 1.0566000000e-01 0.0000e+00 -1.0000e+00
      -13  1    4    4    0    0 +4.3414683549e+00 +5.0044642363e+00 -4.9116427929e+00 8.2479336036e+00 1.0566000000e-01 0.0000e+00 1.0000e+00
       14  1    4    4    0    0 -1.3412177929e+00 +7.5104408589e+00 +1.5249018545e+01 1.7051045529e+01 0.0000000000e+00 0.0000e+00 -1.0000e+00
<mgrwt>
<rscale>  0 0.82862789E+02</rscale>
<asrwt>0</asrwt>
<pdfrwt beam="1">  1        4 0.51599556E-02 0.82862789E+02</pdfrwt>
<pdfrwt beam="2">  1       -3 0.78738370E-02 0.82862789E+02</pdfrwt>
<totfact> 0.40855332E+04</totfact>
</mgrwt>
</event>
<event>
 8      1 +5.0320763e-08 7.71722600e+01 7.81860800e-03 1.33727300e-01
        2 -1    0    0  501    0 +0.0000000000e+00 +0.0000000000e+00 +4.2016545364e+02 4.2016545364e+02 2.5500000000e-03 0.0000e+00 -1.0000e+00
       -1 -1    0    0    0  501 -0.0000000000e+00 -0.0000000000e+00 -3.5435774567e+00 3.5435810408e+00 5.0400000000e-03 0.0000e+00 1.0000e+00
       24  2    1    2    0    0 -1.7763568394e-15 +0.0000000000e+00 +4.1662187618e+02 4.2370903469e+02 7.7172264203e+01 0.0000e+00 0.0000e+00
       66  2    3    3    0    0 -1.3608419300e+01 -1.6035685774e+01 +3.7766094862e+02 3.7943378952e+02 2.9997936976e+01 0.0000e+00 0.0000e+00
      -13  1    3    3    0    0 +1.3608419300e+01 +1.6035685774e+01 +3.8960927561e+01 4.4275245166e+01 1.0566000000e-01 0.0000e+00 1.0000e+00
       13  1    4    4    0    0 -1.5902199170e+00 -3.9269391014e+00 +2.6738618767e+02 2.6741977146e+02 1.0566000000e-01 0.0000e+00 -1.0000e+00
      -13  1    4    4    0    0 +1.3875480063e+00 +2.3051497858e-01 +6.4206783001e+00 6.5737888994e+00 1.0566000000e-01 0.0000e+00 1.0000e+00
      -14  1    4    4    0    0 -1.3405747389e+01 -1.2339261651e+01 +1.0385408265e+02 1.0544022916e+02 0.0000000000e+00 0.0000e+00 1.0000e+00
<mgrwt>
<rscale>  0 0.77172264E+02</rscale>
<asrwt>0</asrwt>
<pdfrwt beam="1">  1        2 0.64640822E-01 0.77172264E+02</pdfrwt>
<pdfrwt beam="2">  1       -1 0.54516618E-03 0.77172264E+02</pdfrwt>
<totfact> 0.31565859E+05</totfact>
</mgrwt>
</event>
<event>
 8      1 +5.0320763e-08 7.79014300e+01 7.81860800e-03 1.33511500e-01
       -1 -1    0    0    0  501 -0.0000000000e+00 +0.0000000000e+00 +1.4425669022e+01 1.4425669903e+01 5.0400000000e-03 0.0000e+00 1.0000e+00
        2 -1    0    0  501    0 +0.0000000000e+00 -0.0000000000e+00 -1.0517072169e+02 1.0517072172e+02 2.5500000000e-03 0.0000e+00 -1.0000e+00
       24  2    1    2    0    0 +1.7763568394e-15 +0.0000000000e+00 -9.0745052665e+01 1.1959639162e+02 7.7901426852e+01 0.0000e+00 0.0000e+00
       66  2    3    3    0    0 +1.1981547134e+01 +7.8173890311e+00 -9.8051849897e+01 1.0353185015e+02 3.0000161387e+01 0.0000e+00 0.0000e+00
      -13  1    3    3    0    0 -1.1981547134e+01 -7.8173890311e+00 +7.3067972321e+00 1.6064541476e+01 1.0566000000e-01 0.0000e+00 1.0000e+00
       13  1    4    4    0    0 +2.4347785405e+00 +2.4274816967e+00 -3.1304491543e+01 3.1492906641e+01 1.0566000000e-01 0.0000e+00 -1.0000e+00
      -13  1    4    4    0    0 +1.3893954936e+01 -5.0921065922e+00 -4.6869262430e+01 4.9149877498e+01 1.0566000000e-01 0.0000e+00 1.0000e+00
      -14  1    4    4    0    0 -4.3471863418e+00 +1.0482013927e+01 -1.9878095925e+01 2.2889066007e+01 0.0000000000e+00 0.0000e+00 1.0000e+00
<mgrwt>
<rscale>  0 0.77901427E+02</rscale>
<asrwt>0</asrwt>
<pdfrwt beam="1">  1        2 0.16180111E-01 0.77901427E+02</pdfrwt>
<pdfrwt beam="2">  1       -1 0.22193338E-02 0.77901427E+02</pdfrwt>
<totfact> 0.19303326E+05</totfact>
</mgrwt>
</event>
<event>
 8      1 +5.0320763e-08 7.91596300e+01 7.81860800e-03 1.33145300e-01
       -1 -1    0    0    0  501 -0.0000000000e+00 +0.0000000000e+00 +4.2722059530e+00 4.2722089259e+00 5.0400000000e-03 0.0000e+00 1.0000e+00
        2 -1    0    0  501    0 +0.0000000000e+00 -0.0000000000e+00 -3.6668669539e+02 3.6668669540e+02 2.5500000000e-03 0.0000e+00 -1.0000e+00
       24  2    1    2    0    0 -1.7763568394e-15 +0.0000000000e+00 -3.6241448944e+02 3.7095890432e+02 7.9159626982e+01 0.0000e+00 0.0000e+00
       66  2    3    3    0    0 -1.5712764429e+01 -2.0158487135e+01 -3.1155961087e+02 3.1404242685e+02 2.9999986151e+01 0.0000e+00 0.0000e+00
      -13  1    3    3    0    0 +1.5712764429e+01 +2.0158487135e+01 -5.0854878565e+01 5.6916477469e+01 1.0566000000e-01 0.0000e+00 1.0000e+00
       13  1    4    4    0    0 +1.3033395623e+00 -1.5341874591e+00 -1.0262351873e+02 1.0264331535e+02 1.0566000000e-01 0.0000e+00 -1.0000e+00
      -13  1    4    4    0    0 -1.6816397171e+01 -3.6702944259e+00 -1.0943705082e+02 1.1078240623e+02 1.0566000000e-01 0.0000e+00 1.0000e+00
      -14  1    4    4    0    0 -1.9970682040e-01 -1.4954005250e+01 -9.9499041325e+01 1.0061670528e+02 0.0000000000e+00 0.0000e+00 1.0000e+00
<mgrwt>
<rscale>  0 0.79159627E+02</rscale>
<asrwt>0</asrwt>
<pdfrwt beam="1">  1        2 0.56413313E-01 0.79159627E+02</pdfrwt>
<pdfrwt beam="2">  1       -1 0.65726298E-03 0.79159627E+02</pdfrwt>
<totfact> 0.28166587E+05</totfact>
</mgrwt>
</event>
<event>
 8      1 +5.0320763e-08 8.22346300e+01 7.81860800e-03 1.32282700e-01
       -1 -1    0    0    0  501 -0.0000000000e+00 +0.0000000000e+00 +3.3549898957e+00 3.3549936814e+00 5.0400000000e-03 0.0000e+00 1.0000e+00
        2 -1    0    0  501    0 +0.0000000000e+00 -0.0000000000e+00 -5.0391587788e+02 5.0391587789e+02 2.5500000000e-03 0.0000e+00 -1.0000e+00
       24  2    1    2    0    0 +1.7763568394e-15 -1.7763568394e-15 -5.0056088799e+02 5.0727087157e+02 8.2234631158e+01 0.0000e+00 0.0000e+00
       66  2    3    3    0    0 -1.5244571297e+01 +1.5898041372e+01 -4.5646700715e+02 4.5798166216e+02 2.9998826312e+01 0.0000e+00 0.0000e+00
      -13  1    3    3    0    0 +1.5244571297e+01 -1.5898041372e+01 -4.4093880833e+01 4.9289209412e+01 1.0566000000e-01 0.0000e+00 1.0000e+00
       13  1    4    4    0    0 +5.3902079765e+00 +6.6055984650e+00 -1.4553160868e+02 1.4578116669e+02 1.0566000000e-01 0.0000e+00 -1.0000e+00
      -13  1    4    4    0    0 -2.3299036690e+01 +9.9435190922e+00 -2.8168121222e+02 2.8281802482e+02 1.0566000000e-01 0.0000e+00 1.0000e+00
      -14  1    4    4    0    0 +2.6642574169e+00 -6.5107618491e-01 -2.9254186258e+01 2.9382470648e+01 0.0000000000e+00 0.0000e+00 1.0000e+00
<mgrwt>
<rscale>  0 0.82234631E+02</rscale>
<asrwt>0</asrwt>
<pdfrwt beam="1">  1        2 0.77525460E-01 0.82234631E+02</pdfrwt>
<pdfrwt beam="2">  1       -1 0.51615298E-03 0.82234631E+02</pdfrwt>
<totfact> 0.28409312E+05</totfact>
</mgrwt>
</event>
<event>
 8      1 +5.0320763e-08 8.27868100e+01 7.81860800e-03 1.32132400e-01
       -1 -1    0    0    0  501 -0.0000000000e+00 +0.0000000000e+00 +5.4260472040e+01 5.4260472274e+01 5.0400000000e-03 0.0000e+00 1.0000e+00
        2 -1    0    0  501    0 +0.0000000000e+00 -0.0000000000e+00 -3.1577572727e+01 3.1577572830e+01 2.5500000000e-03 0.0000e+00 -1.0000e+00
       24  2    1    2    0    0 -1.7763568394e-15 -1.7763568394e-15 +2.2682899313e+01 8.5838045104e+01 8.2786810943e+01 0.0000e+00 0.0000e+00
       66  2    3    3    0    0 -1.0520575777e+01 -7.5804077078e+00 -2.1944322054e+01 3.9364986816e+01 2.9998396973e+01 0.0000e+00 0.0000e+00
      -13  1    3    3    0    0 +1.0520575777e+01 +7.5804077078e+00 +4.4627221367e+01 4.6473058288e+01 1.0566000000e-01 0.0000e+00 1.0000e+00
       13  1    4    4    0    0 -9.8595780185e+00 -1.1314422607e+01 -2.4112474170e+01 2.8401584679e+01 1.0566000000e-01 0.0000e+00 -1.0000e+00
      -13  1    4    4    0    0 +4.5287469124e+00 +5.7111873968e-01 +1.6841682301e+00 4.8665503053e+00 1.0566000000e-01 0.0000e+00 1.0000e+00
      -14  1    4    4    0    0 -5.1897446707e+00 +3.1628961596e+00 +4.8398388523e-01 6.0968518323e+00 0.0000000000e+00 0.0000e+00 1.0000e+00
<mgrwt>
<rscale>  0 0.82786811E+02</rscale>
<asrwt>0</asrwt>
<pdfrwt beam="1">  1        2 0.48580881E-02 0.82786811E+02</pdfrwt>
<pdfrwt beam="2">  1       -1 0.83477650E-02 0.82786811E+02</pdfrwt>
<totfact> 0.12348105E+05</totfact>
</mgrwt>
</event>
<event>
 8      1 +5.0320763e-08 7.93304600e+01 7.81860800e-03 1.33096200e-01
       -3 -1    0    0    0  501 -0.0000000000e+00 +0.0000000000e+00 +3.3107454936e+01 3.3107608995e+01 1.0100000000e-01 0.0000e+00 1.0000e+00
        2 -1    0    0  501    0 +0.0000000000e+00 -0.0000000000e+00 -4.7521756356e+01 4.7521756425e+01 2.5500000000e-03 0.0000e+00 -1.0000e+00
       24  2    1    2    0    0 +1.7763568394e-15 +0.0000000000e+00 -1.4414301420e+01 8.0629365420e+01 7.9330463774e+01 0.0000e+00 0.0000e+00
       66  2    3    3    0    0 +8.3879817256e+00 -7.4544511724e+00 -4.0850288600e+01 5.1910039837e+01 2.9999651288e+01 0.0000e+00 0.0000e+00
      -13  1    3    3    0    0 -8.3879817256e+00 +7.4544511724e+00 +2.6435987180e+01 2.8719325583e+01 1.0566000000e-01 0.0000e+00 1.0000e+00
       13  1    4    4    0    0 +1.0182485606e+01 -1.4042516673e+01 -3.7313735537e+01 4.1148527451e+01 1.0566000000e-01 0.0000e+00 -1.0000e+00
      -13  1    4    4    0    0 -1.1927991404e+00 +5.3729117061e+00 +1.3686599942e+00 5.6723314612e+00 1.0566000000e-01 0.0000e+00 1.0000e+00
       14  1    4    4    0    0 -6.0170474032e-01 +1.2151537949e+00 -4.9052130580e+00 5.0891809247e+00 0.0000000000e+00 0.0000e+00 -1.0000e+00
<mgrwt>
<rscale>  0 0.79330464E+02</rscale>
<asrwt>0</asrwt>
<pdfrwt beam="1">  1        2 0.73110395E-02 0.79330464E+02</pdfrwt>
<pdfrwt beam="2">  1       -3 0.50934747E-02 0.79330464E+02</pdfrwt>
<totfact> 0.10437404E+05</totfact>
</mgrwt>
</event>
<event>
 8      1 +5.0320763e-08 8.08541400e+01 7.81860800e-03 1.32664500e-01
        2 -1    0    0  501    0 +0.0000000000e+00 +0.0000000000e+00 +1.7875459397e+02 1.7875459398e+02 2.5500000000e-03 0.0000e+00 -1.0000e+00
       -1 -1    0    0    0  501 -0.0000000000e+00 -0.0000000000e+00 -9.1429703872e+00 9.1429717764e+00 5.0400000000e-03 0.0000e+00 1.0000e+00
       24  2    1    2    0    0 +0.0000000000e+00 -3.5527136788e-15 +1.6961162358e+02 1.8789756576e+02 8.0854142539e+01 0.0000e+00 0.0000e+00
       66  2    3    3    0    0 +1.9816927090e+01 -2.8406888694e+01 +8.7285873398e+01 9.8582380986e+01 3.0000003688e+01 0.0000e+00 0.0000e+00
      -13  1    3    3    0    0 -1.9816927090e+01 +2.8406888694e+01 +8.2325750180e+01 8.9315184775e+01 1.0566000000e-01 0.0000e+00 1.0000e+00
       13  1    4    4    0    0 +1.8355122558e+01 -2.2731973264e+01 +7.7979732146e+01 8.3273662837e+01 1.0566000000e-01 0.0000e+00 -1.0000e+00
      -13  1    4    4    0    0 -2.5321264228e+00 +2.0310863852e+00 +3.9330125071e+00 5.1006595203e+00 1.0566000000e-01 0.0000e+00 1.0000e+00
       14  1    4    4    0    0 +3.9939309544e+00 -7.7060018159e+00 +5.3731287449e+00 1.0208058629e+01 0.0000000000e+00 0.0000e+00 -1.0000e+00
<mgrwt>
<rscale>  0 0.80854143E+02</rscale>
<asrwt>0</asrwt>
<pdfrwt beam="1">  1        2 0.27500707E-01 0.80854143E+02</pdfrwt>
<pdfrwt beam="2">  1       -1 0.14066109E-02 0.80854143E+02</pdfrwt>
<totfact> 0.20636317E+05</totfact>
</mgrwt>
</event>
<event>
 8      1 +5.0320763e-08 7.89859100e+01 7.81860800e-03 1.33195400e-01
       -3 -1    0    0    0  501 -0.0000000000e+00 +0.0000000000e+00 +1.0052028344e+02 1.0052033418e+02 1.0100000000e-01 0.0000e+00 1.0000e+00
        4 -1    0    0  501    0 +0.0000000000e+00 -0.0000000000e+00 -1.5486170816e+01 1.5538159046e+01 1.2700000000e+00 0.0000e+00 -1.0000e+00
       24  2    1    2    0    0 +0.0000000000e+00 +0.0000000000e+00 +8.5034112626e+01 1.1605849323e+02 7.8985907227e+01 0.0000e+00 0.0000e+00
       66  2    3    3    0    0 +5.1572477073e+00 +3.2720280778e+01 +3.8801755165e+01 5.9184456811e+01 3.0000162433e+01 0.0000e+00 0.0000e+00
      -13  1    3    3    0    0 -5.1572477073e+00 -3.2720280778e+01 +4.6232357461e+01 5.6874036418e+01 1.0566000000e-01 0.0000e+00 1.0000e+00
       13  1    4    4    0    0 +1.0864894754e+01 +2.3770739505e+01 +1.5662111272e+01 3.0469770071e+01 1.0566000000e-01 0.0000e+00 -1.0000e+00
      -13  1    4    4    0    0 -3.4824061134e+00 -1.9113703133e+00 +1.2301628579e+00 4.1599222957e+00 1.0566000000e-01 0.0000e+00 1.0000e+00
       14  1    4    4    0    0 -2.2252409331e+00 +1.0860911585e+01 +2.1909481035e+01 2.4554764444e+01 0.0000000000e+00 0.0000e+00 -1.0000e+00
<mgrwt>
<rscale>  0 0.78985907E+02</rscale>
<asrwt>0</asrwt>
<pdfrwt beam="1">  1        4 0.23871039E-02 0.78985907E+02</pdfrwt>
<pdfrwt beam="2">  1       -3 0.15464689E-01 0.78985907E+02</pdfrwt>
<totfact> 0.44117706E+04</totfact>
</mgrwt>
</event>
<event>
 8      1 +5.0320763e-08 8.31165800e+01 7.81860800e-03 1.32043300e-01
       -2 -1    0    0    0  501 -0.0000000000e+00 +0.0000000000e+00 +2.3125769227e+03 2.3125769227e+03 2.5500000000e-03 0.0000e+00 1.0000e+00
        1 -1    0    0  501    0 +0.0000000000e+00 -0.0000000000e+00 -7.4681699294e-01 7.4683399933e-01 5.0400000000e-03 0.0000e+00 -1.0000e+00
      -24  2    1    2    0    0 +4.4408920985e-16 +0.0000000000e+00 +2.3118301057e+03 2.3133237567e+03 8.3116578747e+01 0.0000e+00 0.0000e+00
       66  2    3    3    0    0 -2.5396479481e+00 +1.2680959428e+01 +2.2458739869e+03 2.2461115754e+03 2.9999792468e+01 0.0000e+00 0.0000e+00
       13  1    3    3    0    0 +2.5396479481e+00 -1.2680959428e+01 +6.5956118829e+01 6.7212181327e+01 1.0566000000e-01 0.0000e+00 -1.0000e+00
       13  1    4    4    0    0 +1.6143297172e-01 +4.7109369390e+00 +9.3586071565e+01 9.3704764780e+01 1.0566000000e-01 0.0000e+00 -1.0000e+00
      -13  1    4    4    0    0 +5.4506558891e-01 +1.4628650129e+01 +1.6400578764e+03 1.6401232099e+03 1.0566000000e-01 0.0000e+00 1.0000e+00
       14  1    4    4    0    0 -3.2461465088e+00 -6.6586276400e+00 +5.1223003895e+02 5.1228360075e+02 0.0000000000e+00 0.0000e+00 -1.0000e+00
<mgrwt>
<rscale>  0 0.83116579E+02</rscale>
<asrwt>0</asrwt>
<pdfrwt beam="1">  1        1 0.11489854E-03 0.83116579E+02</pdfrwt>
<pdfrwt beam="2">  1       -2 0.35577391E+00 0.83116579E+02</pdfrwt>
<totfact> 0.47342854E+03</totfact>
</mgrwt>
</event>
<event>
 8      1 +5.0320763e-08 7.85200800e+01 7.81860800e-03 1.33330400e-01
        1 -1    0    0  501    0 +0.0000000000e+00 +0.0000000000e+00 +1.1623855647e+02 1.1623855658e+02 5.0400000000e-03 0.0000e+00 -1.0000e+00
       -2 -1    0    0    0  501 -0.0000000000e+00 -0.0000000000e+00 -1.3260236444e+01 1.3260236689e+01 2.5500000000e-03 0.0000e+00 1.0000e+00
      -24  2    1    2    0    0 +0.0000000000e+00 +0.0000000000e+00 +1.0297832003e+02 1.2949879327e+02 7.8520080633e+01 0.0000e+00 0.0000e+00
       66  2    3    3    0    0 -2.2496233047e+01 -2.4037458552e+01 +4.8534695590e+01 6.5874903724e+01 3.0000105829e+01 0.0000e+00 0.0000e+00
       13  1    3    3    0    0 +2.2496233047e+01 +2.4037458552e+01 +5.4443624440e+01 6.3623889547e+01 1.0566000000e-01 0.0000e+00 -1.0000e+00
       13  1    4    4    0    0 -1.5243261059e+01 -9.3026376209e+00 +1.2096469659e+01 2.1569233103e+01 1.0566000000e-01 0.0000e+00 1.0000e+00
      -13  1    4    4    0    0 -1.2359788958e+01 -1.4583771215e+01 +2.2871621375e+01 2.9808941516e+01 1.0566000000e-01 0.0000e+00 -1.0000e+00
       14  1    4    4    0    0 +5.1068169703e+00 -1.5104971641e-01 +1.3566604555e+01 1.4496729104e+01 0.0000000000e+00 0.0000e+00 -1.0000e+00
<mgrwt>
<rscale>  0 0.78520081E+02</rscale>
<asrwt>0</asrwt>
<pdfrwt beam="1">  1        1 0.17882855E-01 0.78520081E+02</pdfrwt>
<pdfrwt beam="2">  1       -2 0.20400363E-02 0.78520081E+02</pdfrwt>
<totfact> 0.15858386E+05</totfact>
</mgrwt>
</event>
<event>
 8      1 +5.0320763e-08 8.00328500e+01 7.81860800e-03 1.32895800e-01
        2 -1    0    0  501    0 +0.0000000000e+00 +0.0000000000e+00 +1.9040427921e+01 1.9040428092e+01 2.5500000000e-03 0.0000e+00 -1.0000e+00
       -1 -1    0    0    0  501 -0.0000000000e+00 -0.0000000000e+00 -8.4100754406e+01 8.4100754557e+01 5.0400000000e-03 0.0000e+00 1.0000e+00
       24  2    1    2    0    0 +0.0000000000e+00 +0.0000000000e+00 -6.5060326485e+01 1.0314118265e+02 8.0032852480e+01 0.0000e+00 0.0000e+00
       66  2    3    3    0    0 -1.0500749931e+01 -3.2364199670e+01 -3.0627673167e+01 5.4733270611e+01 2.9999489640e+01 0.0000e+00 0.0000e+00
      -13  1    3    3    0    0 +1.0500749931e+01 +3.2364199670e+01 -3.4432653318e+01 4.8407912039e+01 1.0566000000e-01 0.0000e+00 1.0000e+00
       13  1    4    4    0    0 -2.4558195258e+00 -3.2608935451e+01 -3.1743172608e+01 4.5574267872e+01 1.0566000000e-01 0.0000e+00 -1.0000e+00
      -13  1    4    4    0    0 -4.1835786797e+00 +2.2286996604e+00 +3.8761060977e-01 4.7571881155e+00 1.0566000000e-01 0.0000e+00 1.0000e+00
       14  1    4    4    0    0 -3.8613517259e+00 -1.9839638797e+00 +7.2788883117e-01 4.4018146233e+00 0.0000000000e+00 0.0000e+00 -1.0000e+00
<mgrwt>
<rscale>  0 0.80032852E+02</rscale>
<asrwt>0</asrwt>
<pdfrwt beam="1">  1        2 0.29292967E-02 0.80032852E+02</pdfrwt>
<pdfrwt beam="2">  1       -1 0.12938578E-01 0.80032852E+02</pdfrwt>
<totfact> 0.12277708E+05</totfact>
</mgrwt>
</event>
<event>
 8      1 +5.0320763e-08 8.07606100e+01 7.81860800e-03 1.32690700e-01
        2 -1    0    0  501    0 +0.0000000000e+00 +0.0000000000e+00 +7.3334487508e+01 7.3334487552e+01 2.5500000000e-03 0.0000e+00 -1.0000e+00
       -1 -1    0    0    0  501 -0.0000000000e+00 -0.0000000000e+00 -2.2234684549e+01 2.2234685120e+01 5.0400000000e-03 0.0000e+00 1.0000e+00
       24  2    1    2    0    0 +0.0000000000e+00 +0.0000000000e+00 +5.1099802959e+01 9.5569172672e+01 8.0760614800e+01 0.0000e+00 0.0000e+00
       66  2    3    3    0    0 +1.4990459022e+01 -7.2625129051e+00 +6.5243577315e+01 7.3717045260e+01 3.0000340423e+01 0.0000e+00 0.0000e+00
      -13  1    3    3    0    0 -1.4990459022e+01 +7.2625129051e+00 -1.4143774356e+01 2.1852127413e+01 1.0566000000e-01 0.0000e+00 1.0000e+00
       13  1    4    4    0    0 +7.7428791813e+00 -1.6739269787e+00 +3.9294393170e+01 4.0085093341e+01 1.0566000000e-01 0.0000e+00 -1.0000e+00
      -13  1    4    4    0    0 +5.4820396079e+00 +5.6919130702e+00 +1.8174299814e+01 1.9818349336e+01 1.0566000000e-01 0.0000e+00 1.0000e+00
       14  1    4    4    0    0 +1.7655402329e+00 -1.1280498997e+01 +7.7748843317e+00 1.3813602582e+01 0.0000000000e+00 0.0000e+00 -1.0000e+00
<mgrwt>
<rscale>  0 0.80760615E+02</rscale>
<asrwt>0</asrwt>
<pdfrwt beam="1">  1        2 0.11282229E-01 0.80760615E+02</pdfrwt>
<pdfrwt beam="2">  1       -1 0.34207208E-02 0.80760615E+02</pdfrwt>
<totfact> 0.15919978E+05</totfact>
</mgrwt>
</event>
<event>
 8      1 +5.0320763e-08 8.08760200e+01 7.81860800e-03 1.32658400e-01
       -2 -1    0    0    0  501 -0.0000000000e+00 +0.0000000000e+00 +1.0662362389e+02 1.0662362392e+02 2.5500000000e-03 0.0000e+00 1.0000e+00
        1 -1    0    0  501    0 +0.0000000000e+00 -0.0000000000e+00 -1.5336494471e+01 1.5336495299e+01 5.0400000000e-03 0.0000e+00 -1.0000e+00
      -24  2    1    2    0    0 +3.5527136788e-15 -1.7763568394e-15 +9.1287129419e+01 1.2196011922e+02 8.0876020443e+01 0.0000e+00 0.0000e+00
       66  2    3    3    0    0 +2.9920213669e+01 -1.2345561249e+01 +7.1501228436e+01 8.4024316734e+01 3.0000467765e+01 0.0000e+00 0.0000e+00
       13  1    3    3    0    0 -2.9920213669e+01 +1.2345561249e+01 +1.9785900983e+01 3.7935802487e+01 1.0566000000e-01 0.0000e+00 -1.0000e+00
       13  1    4    4    0    0 -3.8276280063e-01 +1.5910652558e+00 -9.6939793437e-01 1.9049651967e+00 1.0566000000e-01 0.0000e+00 -1.0000e+00
      -13  1    4    4    0    0 +2.4266986213e+01 -1.0697919943e+00 +4.8760120481e+01 5.4475605441e+01 1.0566000000e-01 0.0000e+00 1.0000e+00
       14  1    4    4    0    0 +6.0359902571e+00 -1.2866834510e+01 +2.3710505889e+01 2.7643746096e+01 0.0000000000e+00 0.0000e+00 -1.0000e+00
<mgrwt>
<rscale>  0 0.80876020E+02</rscale>
<asrwt>0</asrwt>
<pdfrwt beam="1">  1        1 0.23594608E-02 0.80876020E+02</pdfrwt>
<pdfrwt beam="2">  1       -2 0.16403634E-01 0.80876020E+02</pdfrwt>
<totfact> 0.10154206E+05</totfact>
</mgrwt>
</event>
<event>
 8      1 +5.0320763e-08 8.02521100e+01 7.81860800e-03 1.32833800e-01
       -1 -1    0    0    0  501 -0.0000000000e+00 +0.0000000000e+00 +2.5709263500e+00 2.5709312902e+00 5.0400000000e-03 0.0000e+00 1.0000e+00
        2 -1    0    0  501    0 +0.0000000000e+00 -0.0000000000e+00 -6.2627177640e+02 6.2627177641e+02 2.5500000000e-03 0.0000e+00 -1.0000e+00
       24  2    1    2    0    0 +0.0000000000e+00 -2.2204460493e-16 -6.2370085005e+02 6.2884270770e+02 8.0252106942e+01 0.0000e+00 0.0000e+00
       66  2    3    3    0    0 +1.2994686796e+01 +1.1220635334e+00 -6.0586169351e+02 6.0674366741e+02 2.9989420913e+01 0.0000e+00 0.0000e+00
      -13  1    3    3    0    0 -1.2994686796e+01 -1.1220635334e+00 -1.7839156542e+01 2.2099040288e+01 1.0566000000e-01 0.0000e+00 1.0000e+00
       13  1    4    4    0    0 +6.4248008846e-01 +4.4715713336e+00 -7.9130262582e+01 7.9259178341e+01 1.0566000000e-01 0.0000e+00 -1.0000e+00
      -13  1    4    4    0    0 +1.0471131229e+01 -6.6667216706e+00 -5.1498407196e+02 5.1513366741e+02 1.0566000000e-01 0.0000e+00 1.0000e+00
      -14  1    4    4    0    0 +1.8810754789e+00 +3.3172138704e+00 -1.1747358968e+01 1.2350821654e+01 0.0000000000e+00 0.0000e+00 1.0000e+00
<mgrwt>
<rscale>  0 0.80252107E+02</rscale>
<asrwt>0</asrwt>
<pdfrwt beam="1">  1        2 0.96349383E-01 0.80252107E+02</pdfrwt>
<pdfrwt beam="2">  1       -1 0.39552801E-03 0.80252107E+02</pdfrwt>
<totfact> 0.32275611E+05</totfact>
</mgrwt>
</event>
<event>
 8      1 +5.0320763e-08 7.99280900e+01 7.81860800e-03 1.32925600e-01
        2 -1    0    0  501    0 +0.0000000000e+00 +0.0000000000e+00 +2.0095415788e+02 2.0095415789e+02 2.5500000000e-03 0.0000e+00 -1.0000e+00
       -1 -1    0    0    0  501 -0.0000000000e+00 -0.0000000000e+00 -7.9477060527e+00 7.9477076507e+00 5.0400000000e-03 0.0000e+00 1.0000e+00
       24  2    1    2    0    0 +6.6613381478e-16 +3.5527136788e-15 +1.9300645182e+02 2.0890186554e+02 7.9928086314e+01 0.0000e+00 0.0000e+00
       66  2    3    3    0    0 -6.6652509918e-01 -2.6909910507e+01 +1.6580125289e+02 1.7063018473e+02 3.0000282363e+01 0.0000e+00 0.0000e+00
      -13  1    3    3    0    0 +6.6652509918e-01 +2.6909910507e+01 +2.7205198933e+01 3.8271680813e+01 1.0566000000e-01 0.0000e+00 1.0000e+00
       13  1    4    4    0    0 +2.2174527089e+00 -1.8128256992e+01 +1.4261306716e+02 1.4377777605e+02 1.0566000000e-01 0.0000e+00 -1.0000e+00
      -13  1    4    4    0    0 +2.3282525522e+00 -7.6984501552e+00 +1.1791671232e+01 1.4273807103e+01 1.0566000000e-01 0.0000e+00 1.0000e+00
       14  1    4    4    0    0 -5.2122303602e+00 -1.0832033595e+00 +1.1396514504e+01 1.2578601579e+01 0.0000000000e+00 0.0000e+00 -1.0000e+00
<mgrwt>
<rscale>  0 0.79928086E+02</rscale>
<asrwt>0</asrwt>
<pdfrwt beam="1">  1        2 0.30916024E-01 0.79928086E+02</pdfrwt>
<pdfrwt beam="2">  1       -1 0.12227242E-02 0.79928086E+02</pdfrwt>
<totfact> 0.22147552E+05</totfact>
</mgrwt>
</event>
<event>
 8      1 +5.0320763e-08 7.93673300e+01 7.81860800e-03 1.33085600e-01
       -1 -1    0    0    0  501 -0.0000000000e+00 +0.0000000000e+00 +4.0112329592e+00 4.0112361255e+00 5.0400000000e-03 0.0000e+00 1.0000e+00
        2 -1    0    0  501    0 +0.0000000000e+00 -0.0000000000e+00 -3.9259567241e+02 3.9259567242e+02 2.5500000000e-03 0.0000e+00 -1.0000e+00
       24  2    1    2    0    0 -3.5527136788e-15 -3.5527136788e-15 -3.8858443945e+02 3.9660690855e+02 7.9367331576e+01 0.0000e+00 0.0000e+00
       66  2    3    3    0    0 -1.4720680725e+01 -2.9631832223e+01 -2.6146006955e+02 2.6524724765e+02 2.9999841634e+01 0.0000e+00 0.0000e+00
      -13  1    3    3    0    0 +1.4720680725e+01 +2.9631832223e+01 -1.2712436991e+02 1.3135966089e+02 1.0566000000e-01 0.0000e+00 1.0000e+00
       13  1    4    4    0    0 +5.5917634657e+00 -3.0401092190e-01 -5.4036749483e+01 5.4326252401e+01 1.0566000000e-01 0.0000e+00 -1.0000e+00
      -13  1    4    4    0    0 -4.6854841181e+00 -9.4899824625e-01 -1.3773785792e+01 1.4580215985e+01 1.0566000000e-01 0.0000e+00 1.0000e+00
       14  1    4    4    0    0 -1.5626960073e+01 -2.8378823055e+01 -1.9364953427e+02 1.9634077927e+02 0.0000000000e+00 0.0000e+00 -1.0000e+00
<mgrwt>
<rscale>  0 0.79367332E+02</rscale>
<asrwt>0</asrwt>
<pdfrwt beam="1">  1        2 0.60399304E-01 0.79367332E+02</pdfrwt>
<pdfrwt beam="2">  1       -1 0.61711332E-03 0.79367332E+02</pdfrwt>
<totfact> 0.28657374E+05</totfact>
</mgrwt>
</event>
<event>
 8      1 +5.0320763e-08 7.90513000e+01 7.81860800e-03 1.33176500e-01
        3 -1    0    0  501    0 +0.0000000000e+00 +0.0000000000e+00 +7.8918677362e+01 7.8918741991e+01 1.0100000000e-01 0.0000e+00 -1.0000e+00
       -4 -1    0    0    0  501 -0.0000000000e+00 -0.0000000000e+00 -1.9770514675e+01 1.9811263223e+01 1.2700000000e+00 0.0000e+00 1.0000e+00
      -24  2    1    2    0    0 +0.0000000000e+00 +8.8817841970e-16 +5.9148162687e+01 9.8730005215e+01 7.9051304736e+01 0.0000e+00 0.0000e+00
       66  2    3    3    0    0 +3.0918673928e+01 -5.9229259732e+00 +4.9313208956e+01 6.5748450848e+01 3.0000346029e+01 0.0000e+00 0.0000e+00
       13  1    3    3    0    0 -3.0918673928e+01 +5.9229259732e+00 +9.8349537313e+00 3.2981554367e+01 1.0566000000e-01 0.0000e+00 -1.0000e+00
       13  1    4    4    0    0 +8.3038376840e+00 -4.6458669328e+00 +5.9059662166e+00 1.1199526813e+01 1.0566000000e-01 0.0000e+00 -1.0000e+00
      -13  1    4    4    0    0 -8.7251120188e-01 +2.9490470195e+00 -1.7015987621e+00 3.5163555712e+00 1.0566000000e-01 0.0000e+00 1.0000e+00
       14  1    4    4    0    0 +2.3487347445e+01 -4.2261060599e+00 +4.5108841501e+01 5.1032568464e+01 0.0000000000e+00 0.0000e+00 -1.0000e+00
<mgrwt>
<rscale>  0 0.79051305E+02</rscale>
<asrwt>0</asrwt>
<pdfrwt beam="1">  1        3 0.12141361E-01 0.79051305E+02</pdfrwt>
<pdfrwt beam="2">  1       -4 0.30455380E-02 0.79051305E+02</pdfrwt>
<totfact> 0.45458960E+04</totfact>
</mgrwt>
</event>
<event>
 8      1 +5.0320763e-08 7.93924500e+01 7.81860800e-03 1.33078400e-01
       -1 -1    0    0    0  501 -0.0000000000e+00 +0.0000000000e+00 +2.3367796990e+00 2.3367851342e+00 5.0400000000e-03 0.0000e+00 1.0000e+00
        2 -1    0    0  501    0 +0.0000000000e+00 -0.0000000000e+00 -6.7434194463e+02 6.7434194463e+02 2.5500000000e-03 0.0000e+00 -1.0000e+00
       24  2    1    2    0    0 +1.7763568394e-15 +8.8817841970e-16 -6.7200516493e+02 6.7667872977e+02 7.9392453217e+01 0.0000e+00 0.0000e+00
       66  2    3    3    0    0 -1.0479697925e+01 -4.0942939783e+00 -6.5769450585e+02 6.5847451490e+02 3.0000607139e+01 0.0000e+00 0.0000e+00
      -13  1    3    3    0    0 +1.0479697925e+01 +4.0942939783e+00 -1.4310659075e+01 1.8204214868e+01 1.0566000000e-01 0.0000e+00 1.0000e+00
       13  1    4    4    0    0 +6.2574477176e-01 +2.1718831256e+00 -1.1154961816e+02 1.1157256431e+02 1.0566000000e-01 0.0000e+00 -1.0000e+00
      -13  1    4    4    0    0 +4.3435860617e+00 +5.5837266755e+00 -6.9413208004e+01 6.9772841084e+01 1.0566000000e-01 0.0000e+00 1.0000e+00
       14  1    4    4    0    0 -1.5449028758e+01 -1.1849903779e+01 -4.7673167969e+02 4.7712910950e+02 0.0000000000e+00 0.0000e+00 -1.0000e+00
<mgrwt>
<rscale>  0 0.79392453E+02</rscale>
<asrwt>0</asrwt>
<pdfrwt beam="1">  1        2 0.10374476E+00 0.79392453E+02</pdfrwt>
<pdfrwt beam="2">  1       -1 0.35950553E-03 0.79392453E+02</pdfrwt>
<totfact> 0.33822256E+05</totfact>
</mgrwt>
</event>
<event>
 8      1 +5.0320763e-08 7.95329500e+01 7.81860800e-03 1.33038200e-01
        2 -1    0    0  501    0 +0.0000000000e+00 +0.0000000000e+00 +3.8694756702e+02 3.8694756702e+02 2.5500000000e-03 0.0000e+00 -1.0000e+00
       -1 -1    0    0    0  501 -0.0000000000e+00 -0.0000000000e+00 -4.0867858926e+00 4.0867890004e+00 5.0400000000e-03 0.0000e+00 1.0000e+00
       24  2    1    2    0    0 +0.0000000000e+00 +0.0000000000e+00 +3.8286078112e+02 3.9103435602e+02 7.9532948325e+01 0.0000e+00 0.0000e+00
       66  2    3    3    0    0 -2.8372336469e+01 +1.7581752548e+01 +2.5317681906e+02 2.5712375644e+02 3.0000281991e+01 0.0000e+00 0.0000e+00
      -13  1    3    3    0    0 +2.8372336469e+01 -1.7581752548e+01 +1.2968396206e+02 1.3391059958e+02 1.0566000000e-01 0.0000e+00 1.0000e+00
       13  1    4    4    0    0 -9.3982717513e+00 +2.2898944206e+00 +7.3667161817e+01 7.4299616571e+01 1.0566000000e-01 0.0000e+00 -1.0000e+00
      -13  1    4    4    0    0 -2.2626200445e+01 +1.2770626143e+01 +1.7303396673e+02 1.7497370844e+02 1.0566000000e-01 0.0000e+00 1.0000e+00
      -14  1    4    4    0    0 +3.6521357264e+00 +2.5212319836e+00 +6.4756905091e+00 7.8504314308e+00 0.0000000000e+00 0.0000e+00 1.0000e+00
<mgrwt>
<rscale>  0 0.79532948E+02</rscale>
<asrwt>0</asrwt>
<pdfrwt beam="1">  1        2 0.59530421E-01 0.79532948E+02</pdfrwt>
<pdfrwt beam="2">  1       -1 0.62873625E-03 0.79532948E+02</pdfrwt>
<totfact> 0.28356939E+05</totfact>
</mgrwt>
</event>
<event>
 8      1 +5.0320763e-08 7.69640100e+01 7.81860800e-03 1.33789500e-01
       -2 -1    0    0    0  501 -0.0000000000e+00 +0.0000000000e+00 +1.3022886154e+01 1.3022886404e+01 2.5500000000e-03 0.0000e+00 1.0000e+00
        1 -1    0    0  501    0 +0.0000000000e+00 -0.0000000000e+00 -1.1371248868e+02 1.1371248879e+02 5.0400000000e-03 0.0000e+00 -1.0000e+00
      -24  2    1    2    0    0 -1.7763568394e-15 +0.0000000000e+00 -1.0068960253e+02 1.2673537520e+02 7.6964012819e+01 0.0000e+00 0.0000e+00
       66  2    3    3    0    0 +6.0687164979e+00 -2.7607709461e+01 -3.1136861205e+01 5.1658015553e+01 3.0000525054e+01 0.0000e+00 0.0000e+00
       13  1    3    3    0    0 -6.0687164979e+00 +2.7607709461e+01 -6.9552741324e+01 7.5077359645e+01 1.0566000000e-01 0.0000e+00 -1.0000e+00
       13  1    4    4    0    0 -8.9198402817e+00 -2.5182023124e+00 -3.0444328461e+00 9.7562610116e+00 1.0566000000e-01 0.0000e+00 -1.0000e+00
      -13  1    4    4    0    0 +1.2101512456e+01 -2.4000329760e+01 -2.8002005893e+01 3.8814764335e+01 1.0566000000e-01 0.0000e+00 1.0000e+00
       14  1    4    4    0    0 +2.8870443238e+00 -1.0891773883e+00 -9.0422466367e-02 3.0869902062e+00 0.0000000000e+00 0.0000e+00 -1.0000e+00
<mgrwt>
<rscale>  0 0.76964013E+02</rscale>
<asrwt>0</asrwt>
<pdfrwt beam="1">  1        1 0.17494228E-01 0.76964013E+02</pdfrwt>
<pdfrwt beam="2">  1       -2 0.20035210E-02 0.76964013E+02</pdfrwt>
<totfact> 0.16669950E+05</totfact>
</mgrwt>
</event>
<event>
 8      1 +5.0320763e-08 7.97108900e+01 7.81860800e-03 1.32987400e-01
       -3 -1    0    0    0  501 -0.0000000000e+00 +0.0000000000e+00 +4.5872104594e+01 4.5872215783e+01 1.0100000000e-01 0.0000e+00 1.0000e+00
        4 -1    0    0  501    0 +0.0000000000e+00 -0.0000000000e+00 -3.4607408603e+01 3.4630703576e+01 1.2700000000e+00 0.0000e+00 -1.0000e+00
       24  2    1    2    0    0 -1.7763568394e-15 +0.0000000000e+00 +1.1264695991e+01 8.0502919359e+01 7.9710894172e+01 0.0000e+00 0.0000e+00
       66  2    3    3    0    0 +1.1154529174e+01 -2.2522482605e+01 -1.7008755614e+01 4.2673235598e+01 3.0000358749e+01 0.0000e+00 0.0000e+00
      -13  1    3    3    0    0 -1.1154529174e+01 +2.2522482605e+01 +2.8273451605e+01 3.7829683761e+01 1.0566000000e-01 0.0000e+00 1.0000e+00
       13  1    4    4    0    0 -4.4502742378e+00 -1.3649475272e+01 -1.6390959022e+01 2.1789626377e+01 1.0566000000e-01 0.0000e+00 -1.0000e+00
      -13  1    4    4    0    0 -1.4794813227e+00 -1.0652189705e-01 -7.8320104288e-01 1.6807081270e+00 1.0566000000e-01 0.0000e+00 1.0000e+00
       14  1    4    4    0    0 +1.7084284734e+01 -8.7664854360e+00 +1.6540445031e-01 1.9202901094e+01 0.0000000000e+00 0.0000e+00 -1.0000e+00
<mgrwt>
<rscale>  0 0.79710894E+02</rscale>
<asrwt>0</asrwt>
<pdfrwt beam="1">  1        4 0.53273607E-02 0.79710894E+02</pdfrwt>
<pdfrwt beam="2">  1       -3 0.70572672E-02 0.79710894E+02</pdfrwt>
<totfact> 0.45694251E+04</totfact>
</mgrwt>
</event>
<event>
 8      1 +5.0320763e-08 8.02769100e+01 7.81860800e-03 1.32826700e-01
       -4 -1    0    0    0  501 -0.0000000000e+00 +0.0000000000e+00 +1.2975121970e+01 1.3037127373e+01 1.2700000000e+00 0.0000e+00 1.0000e+00
        3 -1    0    0  501    0 +0.0000000000e+00 -0.0000000000e+00 -1.2384085014e+02 1.2384089132e+02 1.0100000000e-01 0.0000e+00 -1.0000e+00
      -24  2    1    2    0    0 +0.0000000000e+00 +0.0000000000e+00 -1.1086572817e+02 1.3687801870e+02 8.0276910256e+01 0.0000e+00 0.0000e+00
       66  2    3    3    0    0 +3.3471068235e+01 +7.2064708044e+00 -7.0844144397e+01 8.4209394623e+01 3.0001395255e+01 0.0000e+00 0.0000e+00
       13  1    3    3    0    0 -3.3471068235e+01 -7.2064708044e+00 -4.0021583771e+01 5.2668624074e+01 1.0566000000e-01 0.0000e+00 -1.0000e+00
       13  1    4    4    0    0 -3.3490829904e+00 -1.3631205326e+00 -1.4718055106e+01 1.5156080120e+01 1.0566000000e-01 0.0000e+00 -1.0000e+00
      -13  1    4    4    0    0 +2.0964303913e+01 +5.9431551292e+00 -4.3362473753e+01 4.8529768446e+01 1.0566000000e-01 0.0000e+00 1.0000e+00
       14  1    4    4    0    0 +1.5855847313e+01 +2.6264362078e+00 -1.2763615537e+01 2.0523546057e+01 0.0000000000e+00 0.0000e+00 -1.0000e+00
<mgrwt>
<rscale>  0 0.80276910E+02</rscale>
<asrwt>0</asrwt>
<pdfrwt beam="1">  1        3 0.19052471E-01 0.80276910E+02</pdfrwt>
<pdfrwt beam="2">  1       -4 0.20014433E-02 0.80276910E+02</pdfrwt>
<totfact> 0.40614254E+04</totfact>
</mgrwt>
</event>
<event>
 8      1 +5.0320763e-08 7.89688700e+01 7.81860800e-03 1.33200300e-01
        2 -1    0    0  501    0 +0.0000000000e+00 +0.0000000000e+00 +1.5771137933e+03 1.5771137933e+03 2.5500000000e-03 0.0000e+00 -1.0000e+00
       -1 -1    0    0    0  501 -0.0000000000e+00 -0.0000000000e+00 -9.8852130107e-01 9.8853414927e-01 5.0400000000e-03 0.0000e+00 1.0000e+00
       24  2    1    2    0    0 +1.7763568394e-15 +1.7763568394e-15 +1.5761252720e+03 1.5781023275e+03 7.8968872815e+01 0.0000e+00 0.0000e+00
       66  2    3    3    0    0 +9.6626853517e+00 +7.7381309572e+00 +1.5300124261e+03 1.5303566273e+03 3.0002277308e+01 0.0000e+00 0.0000e+00
      -13  1    3    3    0    0 -9.6626853517e+00 -7.7381309572e+00 +4.6112845927e+01 4.7745700146e+01 1.0566000000e-01 0.0000e+00 1.0000e+00
       13  1    4    4    0    0 +8.9127045754e+00 +1.5334590700e+01 +8.7693968084e+02 8.7711903466e+02 1.0566000000e-01 0.0000e+00 -1.0000e+00
      -13  1    4    4    0    0 +6.0030084815e+00 -5.7199696792e+00 +2.7884456322e+02 2.7896784002e+02 1.0566000000e-01 0.0000e+00 1.0000e+00
       14  1    4    4    0    0 -5.2530277053e+00 -1.8764900631e+00 +3.7422818204e+02 3.7426975265e+02 0.0000000000e+00 0.0000e+00 -1.0000e+00
<mgrwt>
<rscale>  0 0.78968873E+02</rscale>
<asrwt>0</asrwt>
<pdfrwt beam="1">  1        2 0.24263354E+00 0.78968873E+02</pdfrwt>
<pdfrwt beam="2">  1       -1 0.15208078E-03 0.78968873E+02</pdfrwt>
<totfact> 0.33685545E+05</totfact>
</mgrwt>
</event>
<event>
 8      1 +5.0320763e-08 8.09223300e+01 7.81860800e-03 1.32645400e-01
        2 -1    0    0  501    0 +0.0000000000e+00 +0.0000000000e+00 +1.1030841891e+02 1.1030841894e+02 2.5500000000e-03 0.0000e+00 -1.0000e+00
       -1 -1    0    0    0  501 -0.0000000000e+00 -0.0000000000e+00 -1.4841168811e+01 1.4841169667e+01 5.0400000000e-03 0.0000e+00 1.0000e+00
       24  2    1    2    0    0 -8.8817841970e-16 +3.5527136788e-15 +9.5467250100e+01 1.2514958861e+02 8.0922331200e+01 0.0000e+00 0.0000e+00
       66  2    3    3    0    0 +4.0268370829e+00 -1.3188245664e+01 +1.0387657326e+02 1.0899802148e+02 3.0001349529e+01 0.0000e+00 0.0000e+00
      -13  1    3    3    0    0 -4.0268370829e+00 +1.3188245664e+01 -8.4093231614e+00 1.6151567127e+01 1.0566000000e-01 0.0000e+00 1.0000e+00
       13  1    4    4    0    0 +6.9500108746e-01 -2.8810654392e+00 +1.8611800097e+00 3.5012454414e+00 1.0566000000e-01 0.0000e+00 -1.0000e+00
      -13  1    4    4    0    0 +1.1846023911e+01 -5.1188445996e-01 +2.8892226685e+01 3.1230789856e+01 1.0566000000e-01 0.0000e+00 1.0000e+00
       14  1    4    4    0    0 -8.5141879153e+00 -9.7952957644e+00 +7.3123166567e+01 7.4265986183e+01 0.0000000000e+00 0.0000e+00 -1.0000e+00
<mgrwt>
<rscale>  0 0.80922331E+02</rscale>
<asrwt>0</asrwt>
<pdfrwt beam="1">  1        2 0.16970526E-01 0.80922331E+02</pdfrwt>
<pdfrwt beam="2">  1       -1 0.22832569E-02 0.80922331E+02</pdfrwt>
<totfact> 0.17678293E+05</totfact>
</mgrwt>
</event>
<event>
 8      1 +5.0320763e-08 7.87495900e+01 7.81860800e-03 1.33263800e-01
        2 -1    0    0  501    0 +0.0000000000e+00 +0.0000000000e+00 +4.3305854543e+02 4.3305854543e+02 2.5500000000e-03 0.0000e+00 -1.0000e+00
       -1 -1    0    0    0  501 -0.0000000000e+00 -0.0000000000e+00 -3.5800553673e+00 3.5800589150e+00 5.0400000000e-03 0.0000e+00 1.0000e+00
       24  2    1    2    0    0 -4.4408920985e-16 +3.5527136788e-15 +4.2947849006e+02 4.3663860435e+02 7.8749586566e+01 0.0000e+00 0.0000e+00
       66  2    3    3    0    0 -1.3131867519e+00 -2.2005089488e+01 +3.8694387201e+02 3.8873084591e+02 3.0002700648e+01 0.0000e+00 0.0000e+00
      -13  1    3    3    0    0 +1.3131867519e+00 +2.2005089488e+01 +4.2534618045e+01 4.7907758444e+01 1.0566000000e-01 0.0000e+00 1.0000e+00
       13  1    4    4    0    0 +4.8763678045e+00 -4.1502741151e+00 +6.0655285621e+01 6.0992446876e+01 1.0566000000e-01 0.0000e+00 -1.0000e+00
      -13  1    4    4    0    0 -5.9204451342e+00 -9.8166317700e+00 +4.8618269739e+01 4.9951629066e+01 1.0566000000e-01 0.0000e+00 1.0000e+00
       14  1    4    4    0    0 -2.6910942219e-01 -8.0381836030e+00 +2.7767031666e+02 2.7778676996e+02 0.0000000000e+00 0.0000e+00 -1.0000e+00
<mgrwt>
<rscale>  0 0.78749587E+02</rscale>
<asrwt>0</asrwt>
<pdfrwt beam="1">  1        2 0.66624380E-01 0.78749587E+02</pdfrwt>
<pdfrwt beam="2">  1       -1 0.55077812E-03 0.78749587E+02</pdfrwt>
<totfact> 0.30257017E+05</totfact>
</mgrwt>
</event>
<event>
 8      1 +5.0320763e-08 7.93650000e+01 7.81860800e-03 1.33086300e-01
       -1 -1    0    0    0  501 -0.0000000000e+00 +0.0000000000e+00 +2.6944131798e+01 2.6944132269e+01 5.0400000000e-03 0.0000e+00 1.0000e+00
        2 -1    0    0  501    0 +0.0000000000e+00 -0.0000000000e+00 -5.8443180374e+01 5.8443180430e+01 2.5500000000e-03 0.0000e+00 -1.0000e+00
       24  2    1    2    0    0 -3.5527136788e-15 +0.0000000000e+00 -3.1499048576e+01 8.5387312699e+01 7.9364999268e+01 0.0000e+00 0.0000e+00
       66  2    3    3    0    0 +1.8247631019e+01 +5.5851243985e+00 -4.8290856904e+01 5.9967917677e+01 2.9999577291e+01 0.0000e+00 0.0000e+00
      -13  1    3    3    0    0 -1.8247631019e+01 -5.5851243985e+00 +1.6791808327e+01 2.5419395022e+01 1.0566000000e-01 0.0000e+00 1.0000e+00
       13  1    4    4    0    0 +6.9687602196e+00 +1.0862655121e+00 -3.9059169838e+00 8.0629363932e+00 1.0566000000e-01 0.0000e+00 -1.0000e+00
      -13  1    4    4    0    0 +7.5704983738e+00 -3.3972169183e+00 -1.8729930223e+00 8.5072201873e+00 1.0566000000e-01 0.0000e+00 1.0000e+00
       14  1    4    4    0    0 +3.7083724258e+00 +7.8960758047e+00 -4.2511946898e+01 4.3397761097e+01 0.0000000000e+00 0.0000e+00 -1.0000e+00
<mgrwt>
<rscale>  0 0.79364999E+02</rscale>
<asrwt>0</asrwt>
<pdfrwt beam="1">  1        2 0.89912585E-02 0.79364999E+02</pdfrwt>
<pdfrwt beam="2">  1       -1 0.41452511E-02 0.79364999E+02</pdfrwt>
<totfact> 0.15811654E+05</totfact>
</mgrwt>
</event>
<event>
 8      1 +5.0320763e-08 7.67767400e+01 7.81860800e-03 1.33845600e-01
       -1 -1    0    0    0  501 -0.0000000000e+00 +0.0000000000e+00 +2.9471738321e+00 2.9471781416e+00 5.0400000000e-03 0.0000e+00 1.0000e+00
        2 -1    0    0  501    0 +0.0000000000e+00 -0.0000000000e+00 -5.0002678830e+02 5.0002678830e+02 2.5500000000e-03 0.0000e+00 -1.0000e+00
       24  2    1    2    0    0 +0.0000000000e+00 +3.5527136788e-15 -4.9707961446e+02 5.0297396644e+02 7.6776740000e+01 0.0000e+00 0.0000e+00
       66  2    3    3    0    0 +7.7627818994e+00 -2.2394287288e+01 -4.3242414313e+02 4.3411101542e+02 2.9999487726e+01 0.0000e+00 0.0000e+00
      -13  1    3    3    0    0 -7.7627818994e+00 +2.2394287288e+01 -6.4655471337e+01 6.8862951024e+01 1.0566000000e-01 0.0000e+00 1.0000e+00
       13  1    4    4    0    0 +8.1967580811e-01 -5.6751630153e+00 -2.4151203664e+01 2.4822794890e+01 1.0566000000e-01 0.0000e+00 -1.0000e+00
      -13  1    4    4    0    0 +1.1837452859e+01 -1.4253645336e+00 -1.2744031230e+02 1.2799688011e+02 1.0566000000e-01 0.0000e+00 1.0000e+00
       14  1    4    4    0    0 -4.8943467674e+00 -1.5293759739e+01 -2.8083262716e+02 2.8129134042e+02 0.0000000000e+00 0.0000e+00 -1.0000e+00
<mgrwt>
<rscale>  0 0.76776740E+02</rscale>
<asrwt>0</asrwt>
<pdfrwt beam="1">  1        2 0.76927131E-01 0.76776740E+02</pdfrwt>
<pdfrwt beam="2">  1       -1 0.45341209E-03 0.76776740E+02</pdfrwt>
<totfact> 0.33889641E+05</totfact>
</mgrwt>
</event>
<event>
 8      1 +5.0320763e-08 8.02143100e+01 7.81860800e-03 1.32844400e-01
        4 -1    0    0  501    0 +0.0000000000e+00 +0.0000000000e+00 +3.0244193703e+01 3.0270846581e+01 1.2700000000e+00 0.0000e+00 -1.0000e+00
       -3 -1    0    0    0  501 -0.0000000000e+00 -0.0000000000e+00 -5.3149650681e+01 5.3149746646e+01 1.0100000000e-01 0.0000e+00 1.0000e+00
       24  2    1    2    0    0 +1.1102230246e-16 -1.7763568394e-15 -2.2905456978e+01 8.3420593227e+01 8.0214309290e+01 0.0000e+00 0.0000e+00
       66  2    3    3    0    0 +9.6542069521e-01 +1.5017483541e+01 +1.9227673866e+01 3.8680580622e+01 3.0000450429e+01 0.0000e+00 0.0000e+00
      -13  1    3    3    0    0 -9.6542069521e-01 -1.5017483541e+01 -4.2133130844e+01 4.4740012604e+01 1.0566000000e-01 0.0000e+00 1.0000e+00
       13  1    4    4    0    0 -1.3262000372e+00 +3.1150229166e+00 +3.9974075560e+00 5.2395234052e+00 1.0566000000e-01 0.0000e+00 -1.0000e+00
      -13  1    4    4    0    0 -6.2664472869e-01 -1.6630803795e+00 -7.0070216625e+00 7.2296636560e+00 1.0566000000e-01 0.0000e+00 1.0000e+00
       14  1    4    4    0    0 +2.9182654611e+00 +1.3565541004e+01 +2.2237287973e+01 2.6211393561e+01 0.0000000000e+00 0.0000e+00 -1.0000e+00
<mgrwt>
<rscale>  0 0.80214309E+02</rscale>
<asrwt>0</asrwt>
<pdfrwt beam="1">  1        4 0.46561703E-02 0.80214309E+02</pdfrwt>
<pdfrwt beam="2">  1       -3 0.81768897E-02 0.80214309E+02</pdfrwt>
<totfact> 0.44799167E+04</totfact>
</mgrwt>
</event>
<event>
 8      1 +5.0320763e-08 8.03885700e+01 7.81860800e-03 1.32795200e-01
       -2 -1    0    0    0  501 -0.0000000000e+00 +0.0000000000e+00 +2.0576975840e+02 2.0576975841e+02 2.5500000000e-03 0.0000e+00 1.0000e+00
        1 -1    0    0  501    0 +0.0000000000e+00 -0.0000000000e+00 -7.8513989144e+00 7.8514005320e+00 5.0400000000e-03 0.0000e+00 -1.0000e+00
      -24  2    1    2    0    0 -3.5527136788e-15 -3.5527136788e-15 +1.9791835948e+02 2.1362115894e+02 8.0388572127e+01 0.0000e+00 0.0000e+00
       66  2    3    3    0    0 +1.6889637936e+01 -2.4453151228e+01 +1.5980675494e+02 1.6529185066e+02 2.9999674912e+01 0.0000e+00 0.0000e+00
       13  1    3    3    0    0 -1.6889637936e+01 +2.4453151228e+01 +3.8111604539e+01 4.8329308284e+01 1.0566000000e-01 0.0000e+00 -1.0000e+00
       13  1    4    4    0    0 -3.8573064138e+00 -3.8957968029e+00 +4.6986861523e+01 4.7305732901e+01 1.0566000000e-01 0.0000e+00 -1.0000e+00
      -13  1    4    4    0    0 -1.5103171208e+00 -9.4969984431e+00 +3.4687966126e+01 3.5996391419e+01 1.0566000000e-01 0.0000e+00 1.0000e+00
      -14  1    4    4    0    0 +2.2257261471e+01 -1.1060355982e+01 +7.8131927294e+01 8.1989726340e+01 0.0000000000e+00 0.0000e+00 1.0000e+00
<mgrwt>
<rscale>  0 0.80388572E+02</rscale>
<asrwt>0</asrwt>
<pdfrwt beam="1">  1        1 0.12079076E-02 0.80388572E+02</pdfrwt>
<pdfrwt beam="2">  1       -2 0.31656887E-01 0.80388572E+02</pdfrwt>
<totfact> 0.83045328E+04</totfact>
</mgrwt>
</event>
<event>
 8      1 +5.0320763e-08 7.54283200e+01 7.81860800e-03 1.34255000e-01
       -2 -1    0    0    0  501 -0.0000000000e+00 +0.0000000000e+00 +2.3012432690e+00 2.3012446818e+00 2.5500000000e-03 0.0000e+00 1.0000e+00
        1 -1    0    0  501    0 +0.0000000000e+00 -0.0000000000e+00 -6.1808222928e+02 6.1808222930e+02 5.0400000000e-03 0.0000e+00 -1.0000e+00
      -24  2    1    2    0    0 +0.0000000000e+00 +0.0000000000e+00 -6.1578098601e+02 6.2038347398e+02 7.5428323975e+01 0.0000e+00 0.0000e+00
       66  2    3    3    0    0 -1.8056574106e+01 -4.3499483531e+00 -5.6836758382e+02 5.6946192854e+02 3.0003596401e+01 0.0000e+00 0.0000e+00
       13  1    3    3    0    0 +1.8056574106e+01 +4.3499483531e+00 -4.7413402185e+01 5.0921545439e+01 1.0566000000e-01 0.0000e+00 -1.0000e+00
       13  1    4    4    0    0 -3.9840589366e+00 -9.8787589589e-01 -1.3408627010e+02 1.3414912455e+02 1.0566000000e-01 0.0000e+00 -1.0000e+00
      -13  1    4    4    0    0 -4.5559310583e+00 +2.7819240101e+00 -3.7016766679e+02 3.7020617001e+02 1.0566000000e-01 0.0000e+00 1.0000e+00
      -14  1    4    4    0    0 -9.5165841109e+00 -6.1439964674e+00 -6.4113646930e+01 6.5106633982e+01 0.0000000000e+00 0.0000e+00 1.0000e+00
<mgrwt>
<rscale>  0 0.75428324E+02</rscale>
<asrwt>0</asrwt>
<pdfrwt beam="1">  1        1 0.95089442E-01 0.75428324E+02</pdfrwt>
<pdfrwt beam="2">  1       -2 0.35403803E-03 0.75428324E+02</pdfrwt>
<totfact> 0.23279978E+05</totfact>
</mgrwt>
</event>
<event>
 8      1 +5.0320763e-08 8.06178000e+01 7.81860800e-03 1.32730700e-01
       -2 -1    0    0    0  501 -0.0000000000e+00 +0.0000000000e+00 +1.3734476814e+01 1.3734477050e+01 2.5500000000e-03 0.0000e+00 1.0000e+00
        1 -1    0    0  501    0 +0.0000000000e+00 -0.0000000000e+00 -1.1830137949e+02 1.1830137960e+02 5.0400000000e-03 0.0000e+00 -1.0000e+00
      -24  2    1    2    0    0 -1.7763568394e-15 +3.5527136788e-15 -1.0456690268e+02 1.3203585665e+02 8.0617803900e+01 0.0000e+00 0.0000e+00
       66  2    3    3    0    0 -5.9218356216e+00 +2.3433135736e+01 -1.8687790163e+01 4.2820313621e+01 3.0002762704e+01 0.0000e+00 0.0000e+00
       13  1    3    3    0    0 +5.9218356216e+00 -2.3433135736e+01 -8.5879112517e+01 8.9215543031e+01 1.0566000000e-01 0.0000e+00 -1.0000e+00
       13  1    4    4    0    0 +2.0942670242e+00 -1.7837695586e+00 +4.0138721355e+00 4.8672499178e+00 1.0566000000e-01 0.0000e+00 -1.0000e+00
      -13  1    4    4    0    0 +2.1299026260e+00 +8.6925503680e+00 -1.2511771542e+00 9.0373406157e+00 1.0566000000e-01 0.0000e+00 1.0000e+00
       14  1    4    4    0    0 -1.0146005272e+01 +1.6524354927e+01 -2.1450485145e+01 2.8915723087e+01 0.0000000000e+00 0.0000e+00 -1.0000e+00
<mgrwt>
<rscale>  0 0.80617804E+02</rscale>
<asrwt>0</asrwt>
<pdfrwt beam="1">  1        1 0.18200212E-01 0.80617804E+02</pdfrwt>
<pdfrwt beam="2">  1       -2 0.21129965E-02 0.80617804E+02</pdfrwt>
<totfact> 0.14818733E+05</totfact>
</mgrwt>
</event>
<event>
 8      1 +5.0320763e-08 8.84278400e+01 7.81860800e-03 1.30670400e-01
        2 -1    0    0  501    0 +0.0000000000e+00 +0.0000000000e+00 +4.1884625042e+01 4.1884625119e+01 2.5500000000e-03 0.0000e+00 -1.0000e+00
       -1 -1    0    0    0  501 -0.0000000000e+00 -0.0000000000e+00 -4.6672751123e+01 4.6672751395e+01 5.0400000000e-03 0.0000e+00 1.0000e+00
       24  2    1    2    0    0 +3.5527136788e-15 -3.5527136788e-15 -4.7881260813e+00 8.8557376515e+01 8.8427839416e+01 0.0000e+00 0.0000e+00
       66  2    3    3    0    0 +3.1428408177e+01 -1.9262973445e+01 +1.0460497594e+01 4.8665790002e+01 3.0002168589e+01 0.0000e+00 0.0000e+00
      -13  1    3    3    0    0 -3.1428408177e+01 +1.9262973445e+01 -1.5248623676e+01 3.9891586513e+01 1.0566000000e-01 0.0000e+00 1.0000e+00
       13  1    4    4    0    0 +3.0800427171e+01 -1.2322712837e+01 +1.5316134773e+01 3.6539166849e+01 1.0566000000e-01 0.0000e+00 -1.0000e+00
      -13  1    4    4    0    0 -3.7404062986e+00 -2.5791161874e+00 -5.0033890626e-01 4.5720873399e+00 1.0566000000e-01 0.0000e+00 1.0000e+00
      -14  1    4    4    0    0 +4.3683873046e+00 -4.3611444204e+00 -4.3552982728e+00 7.5545358126e+00 0.0000000000e+00 0.0000e+00 1.0000e+00
<mgrwt>
<rscale>  0 0.88427839E+02</rscale>
<asrwt>0</asrwt>
<pdfrwt beam="1">  1        2 0.64437885E-02 0.88427839E+02</pdfrwt>
<pdfrwt beam="2">  1       -1 0.71804233E-02 0.88427839E+02</pdfrwt>
<totfact> 0.10893136E+05</totfact>
</mgrwt>
</event>
<event>
 8      1 +5.0320763e-08 7.69281000e+01 7.81860800e-03 1.33800200e-01
        3 -1    0    0  501    0 +0.0000000000e+00 +0.0000000000e+00 +8.7083050451e+01 8.7083109021e+01 1.0100000000e-01 0.0000e+00 -1.0000e+00
       -4 -1    0    0    0  501 -0.0000000000e+00 -0.0000000000e+00 -1.6960928601e+01 1.7008409655e+01 1.2700000000e+00 0.0000e+00 1.0000e+00
      -24  2    1    2    0    0 -8.8817841970e-16 -1.7763568394e-15 +7.0122121850e+01 1.0409151868e+02 7.6928098167e+01 0.0000e+00 0.0000e+00
       66  2    3    3    0    0 -7.9812702779e+00 +1.2421693094e+01 +1.0446507140e+00 3.3453658310e+01 3.0000947062e+01 0.0000e+00 0.0000e+00
       13  1    3    3    0    0 +7.9812702779e+00 -1.2421693094e+01 +6.9077471136e+01 7.0637860367e+01 1.0566000000e-01 0.0000e+00 -1.0000e+00
       13  1    4    4    0    0 -3.0092569337e+00 -6.4754571612e+00 -2.8942305304e+00 7.7055114780e+00 1.0566000000e-01 0.0000e+00 -1.0000e+00
      -13  1    4    4    0    0 -5.5927113984e+00 +4.6590296331e+00 +8.1105511589e+00 1.0898494485e+01 1.0566000000e-01 0.0000e+00 1.0000e+00
       14  1    4    4    0    0 +6.2069805419e-01 +1.4238120622e+01 -4.1716699145e+00 1.4849652346e+01 0.0000000000e+00 0.0000e+00 -1.0000e+00
<mgrwt>
<rscale>  0 0.76928098E+02</rscale>
<asrwt>0</asrwt>
<pdfrwt beam="1">  1        3 0.13397421E-01 0.76928098E+02</pdfrwt>
<pdfrwt beam="2">  1       -4 0.26137382E-02 0.76928098E+02</pdfrwt>
<totfact> 0.48439400E+04</totfact>
</mgrwt>
</event>
<event>
 8      1 +5.0320763e-08 7.97340400e+01 7.81860800e-03 1.32980800e-01
       -1 -1    0    0    0  501 -0.0000000000e+00 +0.0000000000e+00 +3.2985703322e+01 3.2985703707e+01 5.0400000000e-03 0.0000e+00 1.0000e+00
        2 -1    0    0  501    0 +0.0000000000e+00 -0.0000000000e+00 -4.8183886825e+01 4.8183886892e+01 2.5500000000e-03 0.0000e+00 -1.0000e+00
       24  2    1    2    0    0 -8.8817841970e-16 +0.0000000000e+00 -1.5198183503e+01 8.1169590599e+01 7.9734043270e+01 0.0000e+00 0.0000e+00
       66  2    3    3    0    0 +5.5616066004e+00 -1.1284767964e+01 -4.1074801656e+01 5.2396547884e+01 2.9999690716e+01 0.0000e+00 0.0000e+00
      -13  1    3    3    0    0 -5.5616066004e+00 +1.1284767964e+01 +2.5876618153e+01 2.8773042715e+01 1.0566000000e-01 0.0000e+00 1.0000e+00
       13  1    4    4    0    0 -3.8690267070e+00 -1.5921939481e+00 -1.9432758896e+01 1.9878323158e+01 1.0566000000e-01 0.0000e+00 -1.0000e+00
      -13  1    4    4    0    0 -1.3349363196e-01 -4.4471523168e+00 -2.1134839950e+01 2.1598324195e+01 1.0566000000e-01 0.0000e+00 1.0000e+00
       14  1    4    4    0    0 +9.5641269394e+00 -5.2454216993e+00 -5.0720281013e-01 1.0919900531e+01 0.0000000000e+00 0.0000e+00 -1.0000e+00
<mgrwt>
<rscale>  0 0.79734043E+02</rscale>
<asrwt>0</asrwt>
<pdfrwt beam="1">  1        2 0.74129057E-02 0.79734043E+02</pdfrwt>
<pdfrwt beam="2">  1       -1 0.50747236E-02 0.79734043E+02</pdfrwt>
<totfact> 0.14959788E+05</totfact>
</mgrwt>
</event>
<event>
 8      1 +5.0320763e-08 8.10735500e+01 7.81860800e-03 1.32603200e-01
        1 -1    0    0  501    0 +0.0000000000e+00 +0.0000000000e+00 +8.8418012827e+01 8.8418012970e+01 5.0400000000e-03 0.0000e+00 -1.0000e+00
       -2 -1    0    0    0  501 -0.0000000000e+00 -0.0000000000e+00 -1.8584790934e+01 1.8584791109e+01 2.5500000000e-03 0.0000e+00 1.0000e+00
      -24  2    1    2    0    0 +0.0000000000e+00 +3.5527136788e-15 +6.9833221893e+01 1.0700280408e+02 8.1073554263e+01 0.0000e+00 0.0000e+00
       66  2    3    3    0    0 -1.0895041908e+01 -3.0801785245e+01 +2.3181876252e+01 5.0048338700e+01 2.9999748459e+01 0.0000e+00 0.0000e+00
       13  1    3    3    0    0 +1.0895041908e+01 +3.0801785245e+01 +4.6651345641e+01 5.6954465379e+01 1.0566000000e-01 0.0000e+00 -1.0000e+00
       13  1    4    4    0    0 +1.5731163248e+00 -2.5687766671e+01 +2.2773263260e+01 3.4365225666e+01 1.0566000000e-01 0.0000e+00 -1.0000e+00
      -13  1    4    4    0    0 -6.3913324602e+00 +1.5533103335e+00 +9.4637076610e-01 6.6459525481e+00 1.0566000000e-01 0.0000e+00 1.0000e+00
       14  1    4    4    0    0 -6.0768257728e+00 -6.6673289072e+00 -5.3775777383e-01 9.0371604862e+00 0.0000000000e+00 0.0000e+00 -1.0000e+00
<mgrwt>
<rscale>  0 0.81073554E+02</rscale>
<asrwt>0</asrwt>
<pdfrwt beam="1">  1        1 0.13602771E-01 0.81073554E+02</pdfrwt>
<pdfrwt beam="2">  1       -2 0.28591987E-02 0.81073554E+02</pdfrwt>
<totfact> 0.13889590E+05</totfact>
</mgrwt>
</event>
<event>
 8      1 +5.0320763e-08 7.98182800e+01 7.81860800e-03 1.32956800e-01
        1 -1    0    0  501    0 +0.0000000000e+00 +0.0000000000e+00 +2.8177825438e+02 2.8177825443e+02 5.0400000000e-03 0.0000e+00 -1.0000e+00
       -2 -1    0    0    0  501 -0.0000000000e+00 -0.0000000000e+00 -5.6524560708e+00 5.6524566460e+00 2.5500000000e-03 0.0000e+00 1.0000e+00
      -24  2    1    2    0    0 +8.8817841970e-16 +0.0000000000e+00 +2.7612579831e+02 2.8743071107e+02 7.9818275946e+01 0.0000e+00 0.0000e+00
       66  2    3    3    0    0 +4.3563431887e+00 -3.2266775442e+01 +1.1905077681e+02 1.2701657183e+02 2.9999992311e+01 0.0000e+00 0.0000e+00
       13  1    3    3    0    0 -4.3563431887e+00 +3.2266775442e+01 +1.5707502150e+02 1.6041413924e+02 1.0566000000e-01 0.0000e+00 -1.0000e+00
       13  1    4    4    0    0 -5.2888676317e+00 -3.5542556373e+00 +3.9203571818e+00 7.4823270732e+00 1.0566000000e-01 0.0000e+00 -1.0000e+00
      -13  1    4    4    0    0 -1.3010329222e+00 -1.0151350148e+01 +2.9146392624e+01 3.0891195566e+01 1.0566000000e-01 0.0000e+00 1.0000e+00
       14  1    4    4    0    0 +1.0946243743e+01 -1.8561169656e+01 +8.5984027003e+01 8.8643049196e+01 0.0000000000e+00 0.0000e+00 -1.0000e+00
<mgrwt>
<rscale>  0 0.79818276E+02</rscale>
<asrwt>0</asrwt>
<pdfrwt beam="1">  1        1 0.43350503E-01 0.79818276E+02</pdfrwt>
<pdfrwt beam="2">  1       -2 0.86960862E-03 0.79818276E+02</pdfrwt>
<totfact> 0.17933205E+05</totfact>
</mgrwt>
</event>
<event>
 8      1 +5.0320763e-08 8.17770600e+01 7.81860800e-03 1.32408300e-01
        2 -1    0    0  501    0 +0.0000000000e+00 +0.0000000000e+00 +2.9188440273e+01 2.9188440384e+01 2.5500000000e-03 0.0000e+00 -1.0000e+00
       -1 -1    0    0    0  501 -0.0000000000e+00 -0.0000000000e+00 -5.7278554515e+01 5.7278554737e+01 5.0400000000e-03 0.0000e+00 1.0000e+00
       24  2    1    2    0    0 +0.0000000000e+00 +0.0000000000e+00 -2.8090114242e+01 8.6466995121e+01 8.1777055016e+01 0.0000e+00 0.0000e+00
       66  2    3    3    0    0 +1.3999170802e+01 -8.7994488104e+00 +1.7143775533e+01 3.8305568328e+01 3.0000007382e+01 0.0000e+00 0.0000e+00
      -13  1    3    3    0    0 -1.3999170802e+01 +8.7994488104e+00 -4.5233889775e+01 4.8161426793e+01 1.0566000000e-01 0.0000e+00 1.0000e+00
       13  1    4    4    0    0 +1.6688077263e+01 -3.7412136397e+00 +2.2302103478e+01 2.8104867653e+01 1.0566000000e-01 0.0000e+00 -1.0000e+00
      -13  1    4    4    0    0 +3.8282270933e-01 -3.4949041731e+00 -5.7136962939e+00 6.7095750819e+00 1.0566000000e-01 0.0000e+00 1.0000e+00
       14  1    4    4    0    0 -3.0717291702e+00 -1.5633309976e+00 +5.5536834864e-01 3.4911255930e+00 0.0000000000e+00 0.0000e+00 -1.0000e+00
<mgrwt>
<rscale>  0 0.81777055E+02</rscale>
<asrwt>0</asrwt>
<pdfrwt beam="1">  1        2 0.44905293E-02 0.81777055E+02</pdfrwt>
<pdfrwt beam="2">  1       -1 0.88120853E-02 0.81777055E+02</pdfrwt>
<totfact> 0.12580814E+05</totfact>
</mgrwt>
</event>
<event>
 8      1 +5.0320763e-08 7.86198400e+01 7.81860800e-03 1.33301400e-01
        1 -1    0    0  501    0 +0.0000000000e+00 +0.0000000000e+00 +4.0642303171e+00 4.0642334421e+00 5.0400000000e-03 0.0000e+00 -1.0000e+00
       -2 -1    0    0    0  501 -0.0000000000e+00 -0.0000000000e+00 -3.8021200706e+02 3.8021200707e+02 2.5500000000e-03 0.0000e+00 1.0000e+00
      -24  2    1    2    0    0 +0.0000000000e+00 -3.5527136788e-15 -3.7614777675e+02 3.8427624051e+02 7.8619838924e+01 0.0000e+00 0.0000e+00
       66  2    3    3    0    0 -1.6361004497e+01 +2.3138345250e+01 -3.0356904485e+02 3.0636122928e+02 2.9999538680e+01 0.0000e+00 0.0000e+00
       13  1    3    3    0    0 +1.6361004497e+01 -2.3138345250e+01 -7.2578731893e+01 7.7915011239e+01 1.0566000000e-01 0.0000e+00 -1.0000e+00
       13  1    4    4    0    0 -4.0692803357e+00 -9.4994093335e-01 -1.4267451718e+01 1.4867170975e+01 1.0566000000e-01 0.0000e+00 -1.0000e+00
      -13  1    4    4    0    0 +1.9859290160e+00 +1.7554778824e+01 -1.0053085875e+02 1.0207144017e+02 1.0566000000e-01 0.0000e+00 1.0000e+00
      -14  1    4    4    0    0 -1.4277653177e+01 +6.5335073595e+00 -1.8877073439e+02 1.8942261813e+02 0.0000000000e+00 0.0000e+00 1.0000e+00
<mgrwt>
<rscale>  0 0.78619839E+02</rscale>
<asrwt>0</asrwt>
<pdfrwt beam="1">  1        1 0.62526674E-03 0.78619839E+02</pdfrwt>
<pdfrwt beam="2">  1       -2 0.58494127E-01 0.78619839E+02</pdfrwt>
<totfact> 0.63887099E+04</totfact>
</mgrwt>
</event>
<event>
 8      1 +5.0320763e-08 7.96748800e+01 7.81860800e-03 1.32997700e-01
        1 -1    0    0  501    0 +0.0000000000e+00 +0.0000000000e+00 +3.8335823783e+01 3.8335824114e+01 5.0400000000e-03 0.0000e+00 -1.0000e+00
       -2 -1    0    0    0  501 -0.0000000000e+00 -0.0000000000e+00 -4.1397873639e+01 4.1397873717e+01 2.5500000000e-03 0.0000e+00 1.0000e+00
      -24  2    1    2    0    0 +0.0000000000e+00 +1.7763568394e-15 -3.0620498563e+00 7.9733697831e+01 7.9674879482e+01 0.0000e+00 0.0000e+00
       66  2    3    3    0    0 -3.1530136120e+01 +1.2596650231e+01 -5.7613840386e+00 4.5673124585e+01 3.0000261374e+01 0.0000e+00 0.0000e+00
       13  1    3    3    0    0 +3.1530136120e+01 -1.2596650231e+01 +2.6993341823e+00 3.4060573246e+01 1.0566000000e-01 0.0000e+00 -1.0000e+00
       13  1    4    4    0    0 -1.4528461236e-01 +1.3358981279e+01 -6.4809340456e-01 1.3375899130e+01 1.0566000000e-01 0.0000e+00 -1.0000e+00
      -13  1    4    4    0    0 -1.1957860913e+01 -3.0081029939e+00 -1.7744274879e+00 1.2457884178e+01 1.0566000000e-01 0.0000e+00 1.0000e+00
      -14  1    4    4    0    0 -1.9426990595e+01 +2.2457719454e+00 -3.3388631462e+00 1.9839341277e+01 0.0000000000e+00 0.0000e+00 1.0000e+00
<mgrwt>
<rscale>  0 0.79674879E+02</rscale>
<asrwt>0</asrwt>
<pdfrwt beam="1">  1        1 0.58978191E-02 0.79674879E+02</pdfrwt>
<pdfrwt beam="2">  1       -2 0.63689036E-02 0.79674879E+02</pdfrwt>
<totfact> 0.12755594E+05</totfact>
</mgrwt>
</event>
<event>
 8      1 +5.0320763e-08 7.92117500e+01 7.81860800e-03 1.33130300e-01
       -1 -1    0    0    0  501 -0.0000000000e+00 +0.0000000000e+00 +5.8553159538e+00 5.8553181229e+00 5.0400000000e-03 0.0000e+00 1.0000e+00
        2 -1    0    0  501    0 +0.0000000000e+00 -0.0000000000e+00 -2.6789760507e+02 2.6789760509e+02 2.5500000000e-03 0.0000e+00 -1.0000e+00
       24  2    1    2    0    0 +0.0000000000e+00 +0.0000000000e+00 -2.6204228912e+02 2.7375292321e+02 7.9211752146e+01 0.0000e+00 0.0000e+00
       66  2    3    3    0    0 -9.5206489766e+00 -3.9879894465e+00 -2.6149838393e+02 2.6341591138e+02 2.9999845821e+01 0.0000e+00 0.0000e+00
      -13  1    3    3    0    0 +9.5206489766e+00 +3.9879894465e+00 -5.4390518709e-01 1.0337011834e+01 1.0566000000e-01 0.0000e+00 1.0000e+00
       13  1    4    4    0    0 -5.2361591480e+00 +2.6005709588e+00 -2.8404752634e+01 2.9000370138e+01 1.0566000000e-01 0.0000e+00 -1.0000e+00
      -13  1    4    4    0    0 +4.3541717139e+00 -1.2999594447e+01 -1.5075920295e+02 1.5138129575e+02 1.0566000000e-01 0.0000e+00 1.0000e+00
      -14  1    4    4    0    0 -8.6386615426e+00 +6.4110340413e+00 -8.2334428352e+01 8.3034245482e+01 0.0000000000e+00 0.0000e+00 1.0000e+00
<mgrwt>
<rscale>  0 0.79211752E+02</rscale>
<asrwt>0</asrwt>
<pdfrwt beam="1">  1        2 0.41215007E-01 0.79211752E+02</pdfrwt>
<pdfrwt beam="2">  1       -1 0.90081822E-03 0.79211752E+02</pdfrwt>
<totfact> 0.25114862E+05</totfact>
</mgrwt>
</event>
<event>
 8      1 +5.0320763e-08 7.81332100e+01 7.81860800e-03 1.33443400e-01
        2 -1    0    0  501    0 +0.0000000000e+00 +0.0000000000e+00 +8.1380438939e+02 8.1380438940e+02 2.5500000000e-03 0.0000e+00 -1.0000e+00
       -1 -1    0    0    0  501 -0.0000000000e+00 -0.0000000000e+00 -1.8753852300e+00 1.8753920023e+00 5.0400000000e-03 0.0000e+00 1.0000e+00
       24  2    1    2    0    0 +0.0000000000e+00 +0.0000000000e+00 +8.1192900416e+02 8.1567978140e+02 7.8133206657e+01 0.0000e+00 0.0000e+00
       66  2    3    3    0    0 +1.3045604875e+01 -1.7512774966e+01 +7.2835971130e+02 7.2930430474e+02 3.0000246360e+01 0.0000e+00 0.0000e+00
      -13  1    3    3    0    0 -1.3045604875e+01 +1.7512774966e+01 +8.3569292870e+01 8.6375476661e+01 1.0566000000e-01 0.0000e+00 1.0000e+00
       13  1    4    4    0    0 +5.9300645797e+00 -9.0506396042e-01 +2.9447479081e+02 2.9453590340e+02 1.0566000000e-01 0.0000e+00 -1.0000e+00
      -13  1    4    4    0    0 +4.0804484687e+00 +3.0196496175e+00 +1.9278601125e+02 1.9285286008e+02 1.0566000000e-01 0.0000e+00 1.0000e+00
       14  1    4    4    0    0 +3.0350918269e+00 -1.9627360623e+01 +2.4109890924e+02 2.4191554126e+02 0.0000000000e+00 0.0000e+00 -1.0000e+00
<mgrwt>
<rscale>  0 0.78133207E+02</rscale>
<asrwt>0</asrwt>
<pdfrwt beam="1">  1        2 0.12520060E+00 0.78133207E+02</pdfrwt>
<pdfrwt beam="2">  1       -1 0.28852149E-03 0.78133207E+02</pdfrwt>
<totfact> 0.36641955E+05</totfact>
</mgrwt>
</event>
<event>
 8      1 +5.0320763e-08 7.96328600e+01 7.81860800e-03 1.33009700e-01
        2 -1    0    0  501    0 +0.0000000000e+00 +0.0000000000e+00 +4.2860133036e+02 4.2860133037e+02 2.5500000000e-03 0.0000e+00 -1.0000e+00
       -1 -1    0    0    0  501 -0.0000000000e+00 -0.0000000000e+00 -3.6988853682e+00 3.6988888019e+00 5.0400000000e-03 0.0000e+00 1.0000e+00
       24  2    1    2    0    0 +3.5527136788e-15 +0.0000000000e+00 +4.2490244499e+02 4.3230021917e+02 7.9632855870e+01 0.0000e+00 0.0000e+00
       66  2    3    3    0    0 +2.9704147338e+01 +1.1129131070e+01 +3.1150286047e+02 3.1454763593e+02 2.9999820940e+01 0.0000e+00 0.0000e+00
      -13  1    3    3    0    0 -2.9704147338e+01 -1.1129131070e+01 +1.1339958452e+02 1.1775258325e+02 1.0566000000e-01 0.0000e+00 1.0000e+00
       13  1    4    4    0    0 +1.1469979729e+01 -6.3880707595e+00 +6.8398365218e+01 6.9647077552e+01 1.0566000000e-01 0.0000e+00 -1.0000e+00
      -13  1    4    4    0    0 +1.3196695101e+01 +4.1385623155e+00 +8.1523543890e+01 8.2688450415e+01 1.0566000000e-01 0.0000e+00 1.0000e+00
      -14  1    4    4    0    0 +5.0374725084e+00 +1.3378639514e+01 +1.6158095136e+02 1.6221210796e+02 0.0000000000e+00 0.0000e+00 1.0000e+00
<mgrwt>
<rscale>  0 0.79632856E+02</rscale>
<asrwt>0</asrwt>
<pdfrwt beam="1">  1        2 0.65938670E-01 0.79632856E+02</pdfrwt>
<pdfrwt beam="2">  1       -1 0.56905952E-03 0.79632856E+02</pdfrwt>
<totfact> 0.29286190E+05</totfact>
</mgrwt>
</event>
<event>
 8      1 +5.0320763e-08 7.51528000e+01 7.81860800e-03 1.34339900e-01
        1 -1    0    0  501    0 +0.0000000000e+00 +0.0000000000e+00 +1.6446480987e+02 1.6446480995e+02 5.0400000000e-03 0.0000e+00 -1.0000e+00
       -2 -1    0    0    0  501 -0.0000000000e+00 -0.0000000000e+00 -8.5853367169e+00 8.5853370956e+00 2.5500000000e-03 0.0000e+00 1.0000e+00
      -24  2    1    2    0    0 -3.5527136788e-15 +3.5527136788e-15 +1.5587947316e+02 1.7305014704e+02 7.5152799290e+01 0.0000e+00 0.0000e+00
       66  2    3    3    0    0 +2.0773882470e+01 +2.2995430109e+01 +1.0445729317e+02 1.1301186129e+02 3.0000178257e+01 0.0000e+00 0.0000e+00
       13  1    3    3    0    0 -2.0773882470e+01 -2.2995430109e+01 +5.1422179982e+01 6.0038285759e+01 1.0566000000e-01 0.0000e+00 -1.0000e+00
       13  1    4    4    0    0 +4.1067509750e+00 -3.9383752838e+00 +1.1549638779e+01 1.2875617399e+01 1.0566000000e-01 0.0000e+00 -1.0000e+00
      -13  1    4    4    0    0 -4.1323784256e+00 +2.4280825949e+00 +1.7918059260e+01 1.8548319283e+01 1.0566000000e-01 0.0000e+00 1.0000e+00
      -14  1    4    4    0    0 +2.0799509920e+01 +2.4505722798e+01 +7.4989595135e+01 8.1587924604e+01 0.0000000000e+00 0.0000e+00 1.0000e+00
<mgrwt>
<rscale>  0 0.75152799E+02</rscale>
<asrwt>0</asrwt>
<pdfrwt beam="1">  1        1 0.25302277E-01 0.75152799E+02</pdfrwt>
<pdfrwt beam="2">  1       -2 0.13208211E-02 0.75152799E+02</pdfrwt>
<totfact> 0.18962229E+05</totfact>
</mgrwt>
</event>
<event>
 8      1 +5.0320763e-08 8.04774000e+01 7.81860800e-03 1.32770200e-01
        1 -1    0    0  501    0 +0.0000000000e+00 +0.0000000000e+00 +4.9495853233e+01 4.9495853490e+01 5.0400000000e-03 0.0000e+00 -1.0000e+00
       -2 -1    0    0    0  501 -0.0000000000e+00 -0.0000000000e+00 -3.2712902397e+01 3.2712902496e+01 2.5500000000e-03 0.0000e+00 1.0000e+00
      -24  2    1    2    0    0 +1.7763568394e-15 +3.5527136788e-15 +1.6782950836e+01 8.2208755986e+01 8.0477401312e+01 0.0000e+00 0.0000e+00
       66  2    3    3    0    0 +1.5522611596e+01 +2.3987690582e+01 -1.0462347877e+01 4.2728656743e+01 2.9998610196e+01 0.0000e+00 0.0000e+00
       13  1    3    3    0    0 -1.5522611596e+01 -2.3987690582e+01 +2.7245298713e+01 3.9480099243e+01 1.0566000000e-01 0.0000e+00 -1.0000e+00
       13  1    4    4    0    0 +8.0310324641e+00 -3.0593103786e+00 -1.2516197098e+00 8.6853081906e+00 1.0566000000e-01 0.0000e+00 -1.0000e+00
      -13  1    4    4    0    0 +1.0118812912e+01 +9.5053343086e+00 -8.5266567784e+00 1.6292844899e+01 1.0566000000e-01 0.0000e+00 1.0000e+00
       14  1    4    4    0    0 -2.6272337797e+00 +1.7541666652e+01 -6.8407138884e-01 1.7750503653e+01 0.0000000000e+00 0.0000e+00 -1.0000e+00
<mgrwt>
<rscale>  0 0.80477401E+02</rscale>
<asrwt>0</asrwt>
<pdfrwt beam="1">  1        1 0.76147467E-02 0.80477401E+02</pdfrwt>
<pdfrwt beam="2">  1       -2 0.50327542E-02 0.80477401E+02</pdfrwt>
<totfact> 0.12920316E+05</totfact>
</mgrwt>
</event>
<event>
 8      1 +5.0320763e-08 7.44527200e+01 7.81860800e-03 1.34557400e-01
       -4 -1    0    0    0  501 -0.0000000000e+00 +0.0000000000e+00 +4.0279227913e+01 4.0299244425e+01 1.2700000000e+00 0.0000e+00 1.0000e+00
        3 -1    0    0  501    0 +0.0000000000e+00 -0.0000000000e+00 -3.4386188817e+01 3.4386337147e+01 1.0100000000e-01 0.0000e+00 -1.0000e+00
      -24  2    1    2    0    0 -3.5527136788e-15 +3.5527136788e-15 +5.8930390953e+00 7.4685581572e+01 7.4452724497e+01 0.0000e+00 0.0000e+00
       66  2    3    3    0    0 -1.0634965462e+01 +1.4958503348e+01 +2.8712097562e+01 4.5401116303e+01 3.0000291704e+01 0.0000e+00 0.0000e+00
       13  1    3    3    0    0 +1.0634965462e+01 -1.4958503348e+01 -2.2819058467e+01 2.9284465270e+01 1.0566000000e-01 0.0000e+00 -1.0000e+00
       13  1    4    4    0    0 +1.6062194542e+00 -4.4416994655e+00 +2.2073514191e-01 4.7295373046e+00 1.0566000000e-01 0.0000e+00 -1.0000e+00
      -13  1    4    4    0    0 -4.8415986502e+00 +4.3215980376e-01 +1.6143134528e+01 1.6859412683e+01 1.0566000000e-01 0.0000e+00 1.0000e+00
      -14  1    4    4    0    0 -7.3995862662e+00 +1.8968043010e+01 +1.2348227892e+01 2.3812166315e+01 0.0000000000e+00 0.0000e+00 1.0000e+00
<mgrwt>
<rscale>  0 0.74452724E+02</rscale>
<asrwt>0</asrwt>
<pdfrwt beam="1">  1        3 0.52902041E-02 0.74452724E+02</pdfrwt>
<pdfrwt beam="2">  1       -4 0.62001481E-02 0.74452724E+02</pdfrwt>
<totfact> 0.55235729E+04</totfact>
</mgrwt>
</event>
<event>
 8      1 +5.0320763e-08 7.99194200e+01 7.81860800e-03 1.32928000e-01
       -1 -1    0    0    0  501 -0.0000000000e+00 +0.0000000000e+00 +5.3485074365e+01 5.3485074603e+01 5.0400000000e-03 0.0000e+00 1.0000e+00
        2 -1    0    0  501    0 +0.0000000000e+00 -0.0000000000e+00 -2.9854656356e+01 2.9854656465e+01 2.5500000000e-03 0.0000e+00 -1.0000e+00
       24  2    1    2    0    0 -7.1054273576e-15 +8.8817841970e-16 +2.3630418009e+01 8.3339731068e+01 7.9919422666e+01 0.0000e+00 0.0000e+00
       66  2    3    3    0    0 +3.4004612618e+01 -4.5395491786e+00 +1.4778784679e+01 4.7909747118e+01 3.0000170103e+01 0.0000e+00 0.0000e+00
      -13  1    3    3    0    0 -3.4004612618e+01 +4.5395491786e+00 +8.8516333302e+00 3.5429983950e+01 1.0566000000e-01 0.0000e+00 1.0000e+00
       13  1    4    4    0    0 +8.4579254750e+00 +3.3080683485e+00 +2.6528451325e+00 9.4619538612e+00 1.0566000000e-01 0.0000e+00 -1.0000e+00
      -13  1    4    4    0    0 +1.1560776931e+01 -1.0057753455e+01 +1.7537759955e+01 2.3289357142e+01 1.0566000000e-01 0.0000e+00 1.0000e+00
      -14  1    4    4    0    0 +1.3985910212e+01 +2.2101359280e+00 -5.4118204089e+00 1.5158436114e+01 0.0000000000e+00 0.0000e+00 1.0000e+00
<mgrwt>
<rscale>  0 0.79919423E+02</rscale>
<asrwt>0</asrwt>
<pdfrwt beam="1">  1        2 0.45930241E-02 0.79919423E+02</pdfrwt>
<pdfrwt beam="2">  1       -1 0.82284730E-02 0.79919423E+02</pdfrwt>
<totfact> 0.13480360E+05</totfact>
</mgrwt>
</event>
<event>
 8      1 +5.0320763e-08 8.01108800e+01 7.81860800e-03 1.32873700e-01
       -3 -1    0    0    0  501 -0.0000000000e+00 +0.0000000000e+00 +1.7166896455e+01 1.7167193565e+01 1.0100000000e-01 0.0000e+00 1.0000e+00
        4 -1    0    0  501    0 +0.0000000000e+00 -0.0000000000e+00 -9.3432416531e+01 9.3441047505e+01 1.2700000000e+00 0.0000e+00 -1.0000e+00
       24  2    1    2    0    0 -8.8817841970e-16 +1.7763568394e-15 -7.6265520075e+01 1.1060824107e+02 8.0110882159e+01 0.0000e+00 0.0000e+00
       66  2    3    3    0    0 +6.2916019167e+00 +1.3816921748e+01 -8.6158882528e+01 9.2486945147e+01 2.9999840048e+01 0.0000e+00 0.0000e+00
      -13  1    3    3    0    0 -6.2916019167e+00 -1.3816921748e+01 +9.8933624525e+00 1.8121295923e+01 1.0566000000e-01 0.0000e+00 1.0000e+00
       13  1    4    4    0    0 +9.0842810675e+00 +1.6117056695e+01 -5.1503513219e+01 5.4725740899e+01 1.0566000000e-01 0.0000e+00 -1.0000e+00
      -13  1    4    4    0    0 -7.4369477932e+00 +8.5835103679e-01 -2.8327748035e+01 2.9300468115e+01 1.0566000000e-01 0.0000e+00 1.0000e+00
      -14  1    4    4    0    0 +4.6442686423e+00 -3.1584859831e+00 -6.3276212737e+00 8.4607361329e+00 0.0000000000e+00 0.0000e+00 1.0000e+00
<mgrwt>
<rscale>  0 0.80110882E+02</rscale>
<asrwt>0</asrwt>
<pdfrwt beam="1">  1        4 0.14378494E-01 0.80110882E+02</pdfrwt>
<pdfrwt beam="2">  1       -3 0.26410883E-02 0.80110882E+02</pdfrwt>
<totfact> 0.40882465E+04</totfact>
</mgrwt>
</event>
<event>
 8      1 +5.0320763e-08 7.69118000e+01 7.81860800e-03 1.33805100e-01
        1 -1    0    0  501    0 +0.0000000000e+00 +0.0000000000e+00 +1.5380302477e+01 1.5380303303e+01 5.0400000000e-03 0.0000e+00 -1.0000e+00
       -2 -1    0    0    0  501 -0.0000000000e+00 -0.0000000000e+00 -9.6152600472e+01 9.6152600505e+01 2.5500000000e-03 0.0000e+00 1.0000e+00
      -24  2    1    2    0    0 +3.5527136788e-15 +0.0000000000e+00 -8.0772297994e+01 1.1153290381e+02 7.6911796941e+01 0.0000e+00 0.0000e+00
       66  2    3    3    0    0 +2.1722555590e+01 -2.2227151452e+01 -3.2235980889e+01 5.3898704541e+01 2.9999936739e+01 0.0000e+00 0.0000e+00
       13  1    3    3    0    0 -2.1722555590e+01 +2.2227151452e+01 -4.8536317105e+01 5.7634199267e+01 1.0566000000e-01 0.0000e+00 -1.0000e+00
       13  1    4    4    0    0 +1.6407334015e+01 -1.3138759812e+01 -5.8851823525e+00 2.1828287936e+01 1.0566000000e-01 0.0000e+00 -1.0000e+00
      -13  1    4    4    0    0 +4.0128936119e+00 +1.0755676330e+00 -4.0637481529e-01 4.1756993905e+00 1.0566000000e-01 0.0000e+00 1.0000e+00
       14  1    4    4    0    0 +1.3023279622e+00 -1.0163959273e+01 -2.5944423722e+01 2.7894717214e+01 0.0000000000e+00 0.0000e+00 -1.0000e+00
<mgrwt>
<rscale>  0 0.76911797E+02</rscale>
<asrwt>0</asrwt>
<pdfrwt beam="1">  1        1 0.23662005E-02 0.76911797E+02</pdfrwt>
<pdfrwt beam="2">  1       -2 0.14792707E-01 0.76911797E+02</pdfrwt>
<totfact> 0.11849588E+05</totfact>
</mgrwt>
</event>
<event>
 8      1 +5.0320763e-08 8.04856000e+01 7.81860800e-03 1.32767900e-01
        2 -1    0    0  501    0 +0.0000000000e+00 +0.0000000000e+00 +7.7147524768e+01 7.7147524810e+01 2.5500000000e-03 0.0000e+00 -1.0000e+00
       -1 -1    0    0    0  501 -0.0000000000e+00 -0.0000000000e+00 -2.0992026349e+01 2.0992026954e+01 5.0400000000e-03 0.0000e+00 1.0000e+00
       24  2    1    2    0    0 -3.5527136788e-15 +1.7763568394e-15 +5.6155498419e+01 9.8139551765e+01 8.0485598823e+01 0.0000e+00 0.0000e+00
       66  2    3    3    0    0 -2.5783374537e+01 +1.5974413944e+01 +5.2409627104e+01 6.7578023345e+01 3.0000932030e+01 0.0000e+00 0.0000e+00
      -13  1    3    3    0    0 +2.5783374537e+01 -1.5974413944e+01 +3.7458713146e+00 3.0561528419e+01 1.0566000000e-01 0.0000e+00 1.0000e+00
       13  1    4    4    0    0 -4.3971859029e+00 +1.4111013337e+01 +2.1365529617e+01 2.5979856834e+01 1.0566000000e-01 0.0000e+00 -1.0000e+00
      -13  1    4    4    0    0 -2.0312939074e+01 +4.4693257176e+00 +1.5863596138e+01 2.6158272356e+01 1.0566000000e-01 0.0000e+00 1.0000e+00
      -14  1    4    4    0    0 -1.0732495597e+00 -2.6059251103e+00 +1.5180501350e+01 1.5439894155e+01 0.0000000000e+00 0.0000e+00 1.0000e+00
<mgrwt>
<rscale>  0 0.80485599E+02</rscale>
<asrwt>0</asrwt>
<pdfrwt beam="1">  1        2 0.11868850E-01 0.80485599E+02</pdfrwt>
<pdfrwt beam="2">  1       -1 0.32295426E-02 0.80485599E+02</pdfrwt>
<totfact> 0.16273661E+05</totfact>
</mgrwt>
</event>
<event>
 8      1 +5.0320763e-08 7.65750200e+01 7.81860800e-03 1.33906200e-01
        2 -1    0    0  501    0 +0.0000000000e+00 +0.0000000000e+00 +7.6743983252e+01 7.6743983294e+01 2.5500000000e-03 0.0000e+00 -1.0000e+00
       -1 -1    0    0    0  501 -0.0000000000e+00 -0.0000000000e+00 -1.9101607870e+01 1.9101608535e+01 5.0400000000e-03 0.0000e+00 1.0000e+00
       24  2    1    2    0    0 +3.5527136788e-15 +1.7763568394e-15 +5.7642375382e+01 9.5845591829e+01 7.6575022255e+01 0.0000e+00 0.0000e+00
       66  2    3    3    0    0 -1.6935274424e+01 -1.4242616626e+01 +6.2886053106e+01 7.3104374440e+01 2.9998970630e+01 0.0000e+00 0.0000e+00
      -13  1    3    3    0    0 +1.6935274424e+01 +1.4242616626e+01 -5.2436777246e+00 2.2741217389e+01 1.0566000000e-01 0.0000e+00 1.0000e+00
       13  1    4    4    0    0 +4.0663234946e+00 -4.2616777597e+00 +2.2247849613e+01 2.3014666205e+01 1.0566000000e-01 0.0000e+00 1.0000e+00
      -13  1    4    4    0    0 +2.2321204783e+00 -1.0892936597e+00 +1.1550023217e+01 1.1814530158e+01 1.0566000000e-01 0.0000e+00 -1.0000e+00
      -14  1    4    4    0    0 -2.3233718397e+01 -8.8916452070e+00 +2.9088180275e+01 3.8275178077e+01 0.0000000000e+00 0.0000e+00 1.0000e+00
<mgrwt>
<rscale>  0 0.76575022E+02</rscale>
<asrwt>0</asrwt>
<pdfrwt beam="1">  1        2 0.11806767E-01 0.76575022E+02</pdfrwt>
<pdfrwt beam="2">  1       -1 0.29387090E-02 0.76575022E+02</pdfrwt>
<totfact> 0.18584714E+05</totfact>
</mgrwt>
</event>
<event>
 8      1 +5.0320763e-08 7.99340300e+01 7.81860800e-03 1.32923900e-01
        2 -1    0    0  501    0 +0.0000000000e+00 +0.0000000000e+00 +5.2382633107e+02 5.2382633108e+02 2.5500000000e-03 0.0000e+00 -1.0000e+00
       -3 -1    0    0    0  501 -0.0000000000e+00 -0.0000000000e+00 -3.0485705442e+00 3.0502431646e+00 1.0100000000e-01 0.0000e+00 1.0000e+00
       24  2    1    2    0    0 -3.5527136788e-15 -1.7763568394e-15 +5.2077776053e+02 5.2687657424e+02 7.9934026707e+01 0.0000e+00 0.0000e+00
       66  2    3    3    0    0 +2.1759331968e+01 +9.2456934565e+00 +4.6120299195e+02 4.6278199108e+02 3.0000335212e+01 0.0000e+00 0.0000e+00
      -13  1    3    3    0    0 -2.1759331968e+01 -9.2456934565e+00 +5.9574768581e+01 6.4094583162e+01 1.0566000000e-01 0.0000e+00 1.0000e+00
       13  1    4    4    0    0 +6.5002720993e+00 -2.8381106666e+00 +5.9779596653e+01 6.0199001234e+01 1.0566000000e-01 0.0000e+00 1.0000e+00
      -13  1    4    4    0    0 +1.6116047397e+00 +1.4353862573e+01 +1.2852553882e+02 1.2933466640e+02 1.0566000000e-01 0.0000e+00 -1.0000e+00
       14  1    4    4    0    0 +1.3647455129e+01 -2.2700584495e+00 +2.7289785648e+02 2.7324832345e+02 0.0000000000e+00 0.0000e+00 -1.0000e+00
<mgrwt>
<rscale>  0 0.79934027E+02</rscale>
<asrwt>0</asrwt>
<pdfrwt beam="1">  1        2 0.80588556E-01 0.79934027E+02</pdfrwt>
<pdfrwt beam="2">  1       -3 0.46914091E-03 0.79934027E+02</pdfrwt>
<totfact> 0.25844623E+05</totfact>
</mgrwt>
</event>
<event>
 8      1 +5.0320763e-08 8.04231600e+01 7.81860800e-03 1.32785500e-01
        2 -1    0    0  501    0 +0.0000000000e+00 +0.0000000000e+00 +7.9078908615e+02 7.9078908615e+02 2.5500000000e-03 0.0000e+00 -1.0000e+00
       -1 -1    0    0    0  501 -0.0000000000e+00 -0.0000000000e+00 -2.0447534934e+00 2.0447597048e+00 5.0400000000e-03 0.0000e+00 1.0000e+00
       24  2    1    2    0    0 +1.7763568394e-15 +8.3266726847e-16 +7.8874433265e+02 7.9283384586e+02 8.0423161101e+01 0.0000e+00 0.0000e+00
       66  2    3    3    0    0 -1.2939959481e+01 +4.4202239717e-01 +7.6573337187e+02 7.6643018294e+02 2.9999843161e+01 0.0000e+00 0.0000e+00
      -13  1    3    3    0    0 +1.2939959481e+01 -4.4202239717e-01 +2.3010960779e+01 2.6403662912e+01 1.0566000000e-01 0.0000e+00 1.0000e+00
       13  1    4    4    0    0 +3.1610010569e+00 -5.1499406100e-01 +6.2362088140e+01 6.2444362017e+01 1.0566000000e-01 0.0000e+00 -1.0000e+00
      -13  1    4    4    0    0 -1.3703686565e+01 -1.0658241104e+01 +3.7803461701e+02 3.7843304817e+02 1.0566000000e-01 0.0000e+00 1.0000e+00
      -14  1    4    4    0    0 -2.3972739729e+00 +1.1615257562e+01 +3.2533666673e+02 3.2555277275e+02 0.0000000000e+00 0.0000e+00 1.0000e+00
<mgrwt>
<rscale>  0 0.80423161E+02</rscale>
<asrwt>0</asrwt>
<pdfrwt beam="1">  1        2 0.12165971E+00 0.80423161E+02</pdfrwt>
<pdfrwt beam="2">  1       -1 0.31457834E-03 0.80423161E+02</pdfrwt>
<totfact> 0.33829055E+05</totfact>
</mgrwt>
</event>
<event>
 8      1 +5.0320763e-08 7.68854200e+01 7.81860800e-03 1.33813000e-01
       -2 -1    0    0    0  501 -0.0000000000e+00 +0.0000000000e+00 +2.5280441074e+01 2.5280441202e+01 2.5500000000e-03 0.0000e+00 1.0000e+00
        1 -1    0    0  501    0 +0.0000000000e+00 -0.0000000000e+00 -5.8457918304e+01 5.8457918521e+01 5.0400000000e-03 0.0000e+00 -1.0000e+00
      -24  2    1    2    0    0 +1.7763568394e-15 +0.0000000000e+00 -3.3177477230e+01 8.3738359724e+01 7.6885420555e+01 0.0000e+00 0.0000e+00
       66  2    3    3    0    0 +1.2557701517e+01 -2.7180059657e+01 -5.0972736429e+00 4.2690089262e+01 3.0000166871e+01 0.0000e+00 0.0000e+00
       13  1    3    3    0    0 -1.2557701517e+01 +2.7180059657e+01 -2.8080203587e+01 4.1048270461e+01 1.0566000000e-01 0.0000e+00 -1.0000e+00
       13  1    4    4    0    0 +1.3861640520e+01 -1.8908427250e+01 -8.5984176443e+00 2.4972337676e+01 1.0566000000e-01 0.0000e+00 -1.0000e+00
      -13  1    4    4    0    0 +6.5635901361e+00 -3.1774161956e+00 +4.0256794293e+00 8.3303029992e+00 1.0566000000e-01 0.0000e+00 1.0000e+00
       14  1    4    4    0    0 -7.8675291394e+00 -5.0942162114e+00 -5.2453542786e-01 9.3874485875e+00 0.0000000000e+00 0.0000e+00 -1.0000e+00
<mgrwt>
<rscale>  0 0.76885421E+02</rscale>
<asrwt>0</asrwt>
<pdfrwt beam="1">  1        1 0.89935259E-02 0.76885421E+02</pdfrwt>
<pdfrwt beam="2">  1       -2 0.38892987E-02 0.76885421E+02</pdfrwt>
<totfact> 0.15039856E+05</totfact>
</mgrwt>
</event>
<event>
 8      1 +5.0320763e-08 7.96891500e+01 7.81860800e-03 1.32993600e-01
        2 -1    0    0  501    0 +0.0000000000e+00 +0.0000000000e+00 +1.4670217583e+02 1.4670217585e+02 2.5500000000e-03 0.0000e+00 -1.0000e+00
       -1 -1    0    0    0  501 -0.0000000000e+00 -0.0000000000e+00 -1.0821857975e+01 1.0821859149e+01 5.0400000000e-03 0.0000e+00 1.0000e+00
       24  2    1    2    0    0 +0.0000000000e+00 +0.0000000000e+00 +1.3588031785e+02 1.5752403500e+02 7.9689151221e+01 0.0000e+00 0.0000e+00
       66  2    3    3    0    0 +2.6941291489e+01 +1.7297444797e+01 +1.0132582686e+02 1.1041714807e+02 2.9999810286e+01 0.0000e+00 0.0000e+00
      -13  1    3    3    0    0 -2.6941291489e+01 -1.7297444797e+01 +3.4554490996e+01 4.7106886924e+01 1.0566000000e-01 0.0000e+00 1.0000e+00
       13  1    4    4    0    0 +1.1359290198e+00 +2.6766065093e+00 +4.7472599270e+01 4.7561679981e+01 1.0566000000e-01 0.0000e+00 -1.0000e+00
      -13  1    4    4    0    0 +1.2828680457e+01 +1.2479802956e+01 +2.1780477818e+01 2.8190794634e+01 1.0566000000e-01 0.0000e+00 1.0000e+00
      -14  1    4    4    0    0 +1.2976682012e+01 +2.1410353320e+00 +3.2072749767e+01 3.4664673458e+01 0.0000000000e+00 0.0000e+00 1.0000e+00
<mgrwt>
<rscale>  0 0.79689151E+02</rscale>
<asrwt>0</asrwt>
<pdfrwt beam="1">  1        2 0.22569565E-01 0.79689151E+02</pdfrwt>
<pdfrwt beam="2">  1       -1 0.16649014E-02 0.79689151E+02</pdfrwt>
<totfact> 0.20094081E+05</totfact>
</mgrwt>
</event>
<event>
 8      1 +5.0320763e-08 7.81080400e+01 7.81860800e-03 1.33450800e-01
       -2 -1    0    0    0  501 -0.0000000000e+00 +0.0000000000e+00 +2.3208890065e+01 2.3208890205e+01 2.5500000000e-03 0.0000e+00 1.0000e+00
        1 -1    0    0  501    0 +0.0000000000e+00 -0.0000000000e+00 -6.5716903326e+01 6.5716903519e+01 5.0400000000e-03 0.0000e+00 -1.0000e+00
      -24  2    1    2    0    0 +1.7763568394e-15 -3.5527136788e-15 -4.2508013261e+01 8.8925793724e+01 7.8108037987e+01 0.0000e+00 0.0000e+00
       66  2    3    3    0    0 -3.2610787368e+00 +2.4026257967e+01 +1.5859276972e+00 3.8604997828e+01 2.9998916384e+01 0.0000e+00 0.0000e+00
       13  1    3    3    0    0 +3.2610787368e+00 -2.4026257967e+01 -4.4093940958e+01 5.0320795896e+01 1.0566000000e-01 0.0000e+00 -1.0000e+00
       13  1    4    4    0    0 -9.1503017198e+00 +1.8129030996e+00 +3.5438470510e+00 9.9792111496e+00 1.0566000000e-01 0.0000e+00 -1.0000e+00
      -13  1    4    4    0    0 +7.0791622754e+00 +7.8637242883e+00 +6.0103431129e+00 1.2169144858e+01 1.0566000000e-01 0.0000e+00 1.0000e+00
      -14  1    4    4    0    0 -1.1899392924e+00 +1.4349630579e+01 -7.9682624668e+00 1.6456641820e+01 0.0000000000e+00 0.0000e+00 1.0000e+00
<mgrwt>
<rscale>  0 0.78108038E+02</rscale>
<asrwt>0</asrwt>
<pdfrwt beam="1">  1        1 0.10110293E-01 0.78108038E+02</pdfrwt>
<pdfrwt beam="2">  1       -2 0.35705985E-02 0.78108038E+02</pdfrwt>
<totfact> 0.14664037E+05</totfact>
</mgrwt>
</event>
<event>
 8      1 +5.0320763e-08 7.54143300e+01 7.81860800e-03 1.34259300e-01
        2 -1    0    0  501    0 +0.0000000000e+00 +0.0000000000e+00 +2.7743845325e+00 2.7743857043e+00 2.5500000000e-03 0.0000e+00 -1.0000e+00
       -1 -1    0    0    0  501 -0.0000000000e+00 -0.0000000000e+00 -5.1248481773e+02 5.1248481775e+02 5.0400000000e-03 0.0000e+00 1.0000e+00
       24  2    1    2    0    0 -1.7763568394e-15 +0.0000000000e+00 -5.0971043319e+02 5.1525920346e+02 7.5414329135e+01 0.0000e+00 0.0000e+00
       66  2    3    3    0    0 +1.2990023717e+01 +2.6407261181e+01 -3.7641364674e+02 3.7875232230e+02 3.0000067300e+01 0.0000e+00 0.0000e+00
      -13  1    3    3    0    0 -1.2990023717e+01 -2.6407261181e+01 -1.3329678646e+02 1.3650688116e+02 1.0566000000e-01 0.0000e+00 1.0000e+00
       13  1    4    4    0    0 +6.6558019465e+00 +1.3949155669e+01 -2.4344850537e+02 2.4393864921e+02 1.0566000000e-01 0.0000e+00 -1.0000e+00
      -13  1    4    4    0    0 -4.5367729995e+00 +2.8803655107e-01 -5.3347248743e+01 5.3540689076e+01 1.0566000000e-01 0.0000e+00 1.0000e+00
      -14  1    4    4    0    0 +1.0870994770e+01 +1.2170068961e+01 -7.9617892620e+01 8.1272984017e+01 0.0000000000e+00 0.0000e+00 1.0000e+00
<mgrwt>
<rscale>  0 0.75414329E+02</rscale>
<asrwt>0</asrwt>
<pdfrwt beam="1">  1        2 0.42682889E-03 0.75414329E+02</pdfrwt>
<pdfrwt beam="2">  1       -1 0.78843743E-01 0.75414329E+02</pdfrwt>
<totfact> 0.76550088E+04</totfact>
</mgrwt>
</event>
<event>
 8      1 +5.0320763e-08 7.99787200e+01 7.81860800e-03 1.32911200e-01
       -2 -1    0    0    0  501 -0.0000000000e+00 +0.0000000000e+00 +3.4658219259e+01 3.4658219353e+01 2.5500000000e-03 0.0000e+00 1.0000e+00
        1 -1    0    0  501    0 +0.0000000000e+00 -0.0000000000e+00 -4.6140532844e+01 4.6140533120e+01 5.0400000000e-03 0.0000e+00 -1.0000e+00
      -24  2    1    2    0    0 +1.7763568394e-15 +3.5527136788e-15 -1.1482313586e+01 8.0798752472e+01 7.9978715142e+01 0.0000e+00 0.0000e+00
       66  2    3    3    0    0 +1.4179202446e+01 +2.6152343392e+01 -2.3924135826e+01 4.8552745718e+01 3.0000166580e+01 0.0000e+00 0.0000e+00
       13  1    3    3    0    0 -1.4179202446e+01 -2.6152343392e+01 +1.2441822240e+01 3.2246006754e+01 1.0566000000e-01 0.0000e+00 -1.0000e+00
       13  1    4    4    0    0 +3.2587378515e+00 -4.0295427526e+00 -3.9213581370e+00 6.4996000534e+00 1.0566000000e-01 0.0000e+00 -1.0000e+00
      -13  1    4    4    0    0 +6.4339193291e+00 +7.9479406899e+00 +2.0365377283e+00 1.0427067138e+01 1.0566000000e-01 0.0000e+00 1.0000e+00
      -14  1    4    4    0    0 +4.4865452651e+00 +2.2233945455e+01 -2.2039315417e+01 3.1626078527e+01 0.0000000000e+00 0.0000e+00 1.0000e+00
<mgrwt>
<rscale>  0 0.79978715E+02</rscale>
<asrwt>0</asrwt>
<pdfrwt beam="1">  1        1 0.70985436E-02 0.79978715E+02</pdfrwt>
<pdfrwt beam="2">  1       -2 0.53320337E-02 0.79978715E+02</pdfrwt>
<totfact> 0.13001037E+05</totfact>
</mgrwt>
</event>
<event>
 8      1 +5.0320763e-08 7.95804000e+01 7.81860800e-03 1.33024600e-01
       -2 -1    0    0    0  501 -0.0000000000e+00 +0.0000000000e+00 +7.3435731783e+01 7.3435731828e+01 2.5500000000e-03 0.0000e+00 1.0000e+00
        1 -1    0    0  501    0 +0.0000000000e+00 -0.0000000000e+00 -2.1559803191e+01 2.1559803780e+01 5.0400000000e-03 0.0000e+00 -1.0000e+00
      -24  2    1    2    0    0 +0.0000000000e+00 -8.8817841970e-16 +5.1875928592e+01 9.4995535608e+01 7.9580398454e+01 0.0000e+00 0.0000e+00
       66  2    3    3    0    0 -1.6065454281e+01 -6.4519119608e+00 +6.4740970085e+01 7.3425963385e+01 3.0004214742e+01 0.0000e+00 0.0000e+00
       13  1    3    3    0    0 +1.6065454281e+01 +6.4519119608e+00 -1.2865041493e+01 2.1569572223e+01 1.0566000000e-01 0.0000e+00 -1.0000e+00
       13  1    4    4    0    0 -9.0919937823e+00 -1.1605861654e+01 +1.3760607386e+01 2.0167445434e+01 1.0566000000e-01 0.0000e+00 1.0000e+00
      -13  1    4    4    0    0 -1.3203778927e-01 +6.5130330932e+00 +1.1958370654e+01 1.3618033147e+01 1.0566000000e-01 0.0000e+00 -1.0000e+00
      -14  1    4    4    0    0 -6.8414227095e+00 -1.3590834001e+00 +3.9021992045e+01 3.9640484804e+01 0.0000000000e+00 0.0000e+00 1.0000e+00
<mgrwt>
<rscale>  0 0.79580398E+02</rscale>
<asrwt>0</asrwt>
<pdfrwt beam="1">  1        1 0.33168928E-02 0.79580398E+02</pdfrwt>
<pdfrwt beam="2">  1       -2 0.11297805E-01 0.79580398E+02</pdfrwt>
<totfact> 0.11532875E+05</totfact>
</mgrwt>
</event>
<event>
 8      1 +5.0320763e-08 8.13076300e+01 7.81860800e-03 1.32538100e-01
        1 -1    0    0  501    0 +0.0000000000e+00 +0.0000000000e+00 +1.4415076561e+01 1.4415077442e+01 5.0400000000e-03 0.0000e+00 -1.0000e+00
       -2 -1    0    0    0  501 -0.0000000000e+00 -0.0000000000e+00 -1.1465305454e+02 1.1465305457e+02 2.5500000000e-03 0.0000e+00 1.0000e+00
      -24  2    1    2    0    0 -3.5527136788e-15 -1.7763568394e-15 -1.0023797798e+02 1.2906813201e+02 8.1307628615e+01 0.0000e+00 0.0000e+00
       66  2    3    3    0    0 +3.0038543446e+01 +1.3238762669e+01 -7.6758090635e+01 8.8708558137e+01 2.9997081183e+01 0.0000e+00 0.0000e+00
       13  1    3    3    0    0 -3.0038543446e+01 -1.3238762669e+01 -2.3479887342e+01 4.0359573871e+01 1.0566000000e-01 0.0000e+00 -1.0000e+00
       13  1    4    4    0    0 +1.8861485446e+01 +5.7534813832e+00 -2.0249751982e+01 2.8265204769e+01 1.0566000000e-01 0.0000e+00 -1.0000e+00
      -13  1    4    4    0    0 +5.9169034803e+00 +1.1523365025e+01 -4.7640142040e+01 4.9369950232e+01 1.0566000000e-01 0.0000e+00 1.0000e+00
       14  1    4    4    0    0 +5.2601545196e+00 -4.0380837385e+00 -8.8681966130e+00 1.1073403136e+01 0.0000000000e+00 0.0000e+00 -1.0000e+00
<mgrwt>
<rscale>  0 0.81307629E+02</rscale>
<asrwt>0</asrwt>
<pdfrwt beam="1">  1        1 0.22177042E-02 0.81307629E+02</pdfrwt>
<pdfrwt beam="2">  1       -2 0.17638931E-01 0.81307629E+02</pdfrwt>
<totfact> 0.98251253E+04</totfact>
</mgrwt>
</event>
<event>
 8      1 +5.0320763e-08 7.91162800e+01 7.81860800e-03 1.33157800e-01
       -1 -1    0    0    0  501 -0.0000000000e+00 +0.0000000000e+00 +9.5857855771e-01 9.5859180724e-01 5.0400000000e-03 0.0000e+00 1.0000e+00
        2 -1    0    0  501    0 +0.0000000000e+00 -0.0000000000e+00 -1.6324542511e+03 1.6324542511e+03 2.5500000000e-03 0.0000e+00 -1.0000e+00
       24  2    1    2    0    0 -3.5527136788e-15 +0.0000000000e+00 -1.6314956725e+03 1.6334128429e+03 7.9116280604e+01 0.0000e+00 0.0000e+00
       66  2    3    3    0    0 -1.4631627503e+01 -7.7401877147e+00 -1.5431146189e+03 1.5434950091e+03 3.0002017205e+01 0.0000e+00 0.0000e+00
      -13  1    3    3    0    0 +1.4631627503e+01 +7.7401877147e+00 -8.8381053630e+01 8.9917833793e+01 1.0566000000e-01 0.0000e+00 1.0000e+00
       13  1    4    4    0    0 -6.4451297034e+00 +4.1798872264e+00 -6.0782966648e+02 6.0787821623e+02 1.0566000000e-01 0.0000e+00 -1.0000e+00
      -13  1    4    4    0    0 +1.4827025174e+00 +4.1353749470e+00 -7.5632667597e+01 7.5760222443e+01 1.0566000000e-01 0.0000e+00 1.0000e+00
      -14  1    4    4    0    0 -9.6692003173e+00 -1.6055449888e+01 -8.5965228482e+02 8.5985657043e+02 0.0000000000e+00 0.0000e+00 1.0000e+00
<mgrwt>
<rscale>  0 0.79116281E+02</rscale>
<asrwt>0</asrwt>
<pdfrwt beam="1">  1        2 0.25114458E+00 0.79116281E+02</pdfrwt>
<pdfrwt beam="2">  1       -1 0.14747595E-03 0.79116281E+02</pdfrwt>
<totfact> 0.32972431E+05</totfact>
</mgrwt>
</event>
<event>
 8      1 +5.0320763e-08 8.07570000e+01 7.81860800e-03 1.32691700e-01
        2 -1    0    0  501    0 +0.0000000000e+00 +0.0000000000e+00 +1.0498755423e+01 1.0498755732e+01 2.5500000000e-03 0.0000e+00 -1.0000e+00
       -1 -1    0    0    0  501 -0.0000000000e+00 -0.0000000000e+00 -1.5529682121e+02 1.5529682130e+02 5.0400000000e-03 0.0000e+00 1.0000e+00
       24  2    1    2    0    0 +7.1054273576e-15 -1.7763568394e-15 -1.4479806579e+02 1.6579557703e+02 8.0757002824e+01 0.0000e+00 0.0000e+00
       66  2    3    3    0    0 +3.3933461369e+01 -7.6325339203e+00 -7.9693605516e+01 9.1982723904e+01 3.0000256034e+01 0.0000e+00 0.0000e+00
      -13  1    3    3    0    0 -3.3933461369e+01 +7.6325339203e+00 -6.5104460276e+01 7.3812853125e+01 1.0566000000e-01 0.0000e+00 1.0000e+00
       13  1    4    4    0    0 +3.6516927969e+00 -1.6295003020e+00 -2.7091189550e+00 4.8312132084e+00 1.0566000000e-01 0.0000e+00 -1.0000e+00
      -13  1    4    4    0    0 -4.2044956131e+00 +1.5836923426e+00 -1.6628296331e+01 1.7224902546e+01 1.0566000000e-01 0.0000e+00 1.0000e+00
       14  1    4    4    0    0 +3.4486264185e+01 -7.5867259609e+00 -6.0356190230e+01 6.9926608150e+01 0.0000000000e+00 0.0000e+00 -1.0000e+00
<mgrwt>
<rscale>  0 0.80757003E+02</rscale>
<asrwt>0</asrwt>
<pdfrwt beam="1">  1        2 0.16151933E-02 0.80757003E+02</pdfrwt>
<pdfrwt beam="2">  1       -1 0.23891817E-01 0.80757003E+02</pdfrwt>
<totfact> 0.10439622E+05</totfact>
</mgrwt>
</event>
<event>
 8      1 +5.0320763e-08 7.97363900e+01 7.81860800e-03 1.32980100e-01
       -4 -1    0    0    0  501 -0.0000000000e+00 +0.0000000000e+00 +1.3206156875e+01 1.3267082551e+01 1.2700000000e+00 0.0000e+00 1.0000e+00
        3 -1    0    0  501    0 +0.0000000000e+00 -0.0000000000e+00 -1.2005081017e+02 1.2005085266e+02 1.0100000000e-01 0.0000e+00 -1.0000e+00
      -24  2    1    2    0    0 +0.0000000000e+00 +4.4408920985e-16 -1.0684465330e+02 1.3331793521e+02 7.9736390125e+01 0.0000e+00 0.0000e+00
       66  2    3    3    0    0 -1.9308230471e+01 +2.7019444651e+00 -1.3953823306e+01 3.8403101130e+01 2.9999678726e+01 0.0000e+00 0.0000e+00
       13  1    3    3    0    0 +1.9308230471e+01 -2.7019444651e+00 -9.2890829992e+01 9.4914834081e+01 1.0566000000e-01 0.0000e+00 -1.0000e+00
       13  1    4    4    0    0 -2.6680724347e+00 +3.9000713584e+00 -1.9731488179e+00 5.1218792851e+00 1.0566000000e-01 0.0000e+00 -1.0000e+00
      -13  1    4    4    0    0 -5.2539769610e+00 +1.1118337628e+01 -1.0966860512e+01 1.6477405713e+01 1.0566000000e-01 0.0000e+00 1.0000e+00
       14  1    4    4    0    0 -1.1386181076e+01 -1.2316464521e+01 -1.0138139764e+00 1.6803816131e+01 0.0000000000e+00 0.0000e+00 -1.0000e+00
<mgrwt>
<rscale>  0 0.79736390E+02</rscale>
<asrwt>0</asrwt>
<pdfrwt beam="1">  1        3 0.18469388E-01 0.79736390E+02</pdfrwt>
<pdfrwt beam="2">  1       -4 0.20369198E-02 0.79736390E+02</pdfrwt>
<totfact> 0.41633312E+04</totfact>
</mgrwt>
</event>
<event>
 8      1 +5.0320763e-08 8.01367700e+01 7.81860800e-03 1.32866400e-01
        3 -1    0    0  501    0 +0.0000000000e+00 +0.0000000000e+00 +6.7911464321e+00 6.7918974420e+00 1.0100000000e-01 0.0000e+00 -1.0000e+00
       -2 -1    0    0    0  501 -0.0000000000e+00 -0.0000000000e+00 -2.3639367045e+02 2.3639367047e+02 2.5500000000e-03 0.0000e+00 1.0000e+00
      -24  2    1    2    0    0 -7.1054273576e-15 +3.5527136788e-15 -2.2960252402e+02 2.4318556791e+02 8.0136766857e+01 0.0000e+00 0.0000e+00
       66  2    3    3    0    0 -2.2028249484e+01 +2.4400827034e+01 -9.9595474562e+01 1.0908676773e+02 3.0000336766e+01 0.0000e+00 0.0000e+00
       13  1    3    3    0    0 +2.2028249484e+01 -2.4400827034e+01 -1.3000704946e+02 1.3409880017e+02 1.0566000000e-01 0.0000e+00 -1.0000e+00
       13  1    4    4    0    0 +1.1653904283e+00 +1.6611870024e+01 -6.1175669693e+01 6.3401782995e+01 1.0566000000e-01 0.0000e+00 -1.0000e+00
      -13  1    4    4    0    0 -1.9135014411e+01 +7.5095213765e+00 -3.3463177149e+01 3.9272599567e+01 1.0566000000e-01 0.0000e+00 1.0000e+00
       14  1    4    4    0    0 -4.0586255014e+00 +2.7943563361e-01 -4.9566277211e+00 6.4123851724e+00 0.0000000000e+00 0.0000e+00 -1.0000e+00
<mgrwt>
<rscale>  0 0.80136767E+02</rscale>
<asrwt>0</asrwt>
<pdfrwt beam="1">  1        3 0.10448514E-02 0.80136767E+02</pdfrwt>
<pdfrwt beam="2">  1       -2 0.36368251E-01 0.80136767E+02</pdfrwt>
<totfact> 0.60740580E+04</totfact>
</mgrwt>
</event>
<event>
 8      1 +5.0320763e-08 6.95870100e+01 7.81860800e-03 1.36150300e-01
        1 -1    0    0  501    0 +0.0000000000e+00 +0.0000000000e+00 +3.0885613886e+02 3.0885613890e+02 5.0400000000e-03 0.0000e+00 -1.0000e+00
       -2 -1    0    0    0  501 -0.0000000000e+00 -0.0000000000e+00 -3.9195844415e+00 3.9195852710e+00 2.5500000000e-03 0.0000e+00 1.0000e+00
      -24  2    1    2    0    0 +0.0000000000e+00 +1.7763568394e-15 +3.0493655442e+02 3.1277572417e+02 6.9587006049e+01 0.0000e+00 0.0000e+00
       66  2    3    3    0    0 -2.2649656946e+01 -1.1438255098e+01 +2.3740510484e+02 2.4063455364e+02 2.9999399367e+01 0.0000e+00 0.0000e+00
       13  1    3    3    0    0 +2.2649656946e+01 +1.1438255098e+01 +6.7531449585e+01 7.2141170537e+01 1.0566000000e-01 0.0000e+00 -1.0000e+00
       13  1    4    4    0    0 -2.1998148687e+00 -1.4142740802e+01 +8.4064919887e+01 8.5274722060e+01 1.0566000000e-01 0.0000e+00 -1.0000e+00
      -13  1    4    4    0    0 -3.6855565863e+00 +5.7824553317e+00 +2.6218562496e+01 2.7100632842e+01 1.0566000000e-01 0.0000e+00 1.0000e+00
       14  1    4    4    0    0 -1.6764285491e+01 -3.0779696279e+00 +1.2712162245e+02 1.2825919873e+02 0.0000000000e+00 0.0000e+00 -1.0000e+00
<mgrwt>
<rscale>  0 0.69587006E+02</rscale>
<asrwt>0</asrwt>
<pdfrwt beam="1">  1        1 0.47516324E-01 0.69587006E+02</pdfrwt>
<pdfrwt beam="2">  1       -2 0.60301313E-03 0.69587006E+02</pdfrwt>
<totfact> 0.26120917E+05</totfact>
</mgrwt>
</event>
<event>
 8      1 +5.0320763e-08 8.01711000e+01 7.81860800e-03 1.32856700e-01
        2 -1    0    0  501    0 +0.0000000000e+00 +0.0000000000e+00 +4.3517521418e+02 4.3517521418e+02 2.5500000000e-03 0.0000e+00 -1.0000e+00
       -1 -1    0    0    0  501 -0.0000000000e+00 -0.0000000000e+00 -3.6924217565e+00 3.6924251962e+00 5.0400000000e-03 0.0000e+00 1.0000e+00
       24  2    1    2    0    0 +1.7763568394e-15 +0.0000000000e+00 +4.3148279242e+02 4.3886763938e+02 8.0171096665e+01 0.0000e+00 0.0000e+00
       66  2    3    3    0    0 -9.5236619170e+00 -3.3129977644e+01 +2.4477045014e+02 2.4899977617e+02 3.0000328624e+01 0.0000e+00 0.0000e+00
      -13  1    3    3    0    0 +9.5236619170e+00 +3.3129977644e+01 +1.8671234228e+02 1.8986786321e+02 1.0566000000e-01 0.0000e+00 1.0000e+00
       13  1    4    4    0    0 -3.1696739029e+00 -3.2802945705e+00 +5.3062814598e+01 5.3258620168e+01 1.0566000000e-01 0.0000e+00 -1.0000e+00
      -13  1    4    4    0    0 -4.2097017859e-01 +2.1698102232e+00 +6.0927523884e+01 6.0967693273e+01 1.0566000000e-01 0.0000e+00 1.0000e+00
      -14  1    4    4    0    0 -5.9330178355e+00 -3.2019493297e+01 +1.3078011165e+02 1.3477346273e+02 0.0000000000e+00 0.0000e+00 1.0000e+00
<mgrwt>
<rscale>  0 0.80171097E+02</rscale>
<asrwt>0</asrwt>
<pdfrwt beam="1">  1        2 0.66949970E-01 0.80171097E+02</pdfrwt>
<pdfrwt beam="2">  1       -1 0.56806569E-03 0.80171097E+02</pdfrwt>
<totfact> 0.28925608E+05</totfact>
</mgrwt>
</event>
<event>
 8      1 +5.0320763e-08 7.92560300e+01 7.81860800e-03 1.33117600e-01
       -2 -1    0    0    0  501 -0.0000000000e+00 +0.0000000000e+00 +1.5307567051e+02 1.5307567053e+02 2.5500000000e-03 0.0000e+00 1.0000e+00
        1 -1    0    0  501    0 +0.0000000000e+00 -0.0000000000e+00 -1.0258843860e+01 1.0258845098e+01 5.0400000000e-03 0.0000e+00 -1.0000e+00
      -24  2    1    2    0    0 +0.0000000000e+00 +8.8817841970e-16 +1.4281682665e+02 1.6333451563e+02 7.9256028298e+01 0.0000e+00 0.0000e+00
       66  2    3    3    0    0 -3.2223376697e+01 +6.5761984514e+00 +9.9007107745e+01 1.0855409005e+02 2.9999844853e+01 0.0000e+00 0.0000e+00
       13  1    3    3    0    0 +3.2223376697e+01 -6.5761984514e+00 +4.3809718901e+01 5.4780425574e+01 1.0566000000e-01 0.0000e+00 -1.0000e+00
       13  1    4    4    0    0 -1.7646133148e-01 +2.2843573603e+00 +4.3362600464e+00 4.9054808507e+00 1.0566000000e-01 0.0000e+00 -1.0000e+00
      -13  1    4    4    0    0 -1.0221242609e+01 -7.8812392035e-01 +5.3588308404e+00 1.1568196566e+01 1.0566000000e-01 0.0000e+00 1.0000e+00
      -14  1    4    4    0    0 -2.1825672756e+01 +5.0799650115e+00 +8.9312016858e+01 9.2080412635e+01 0.0000000000e+00 0.0000e+00 1.0000e+00
<mgrwt>
<rscale>  0 0.79256028E+02</rscale>
<asrwt>0</asrwt>
<pdfrwt beam="1">  1        1 0.15782838E-02 0.79256028E+02</pdfrwt>
<pdfrwt beam="2">  1       -2 0.23550103E-01 0.79256028E+02</pdfrwt>
<totfact> 0.96162060E+04</totfact>
</mgrwt>
</event>
<event>
 8      1 +5.0320763e-08 8.16013900e+01 7.81860800e-03 1.32456700e-01
       -2 -1    0    0    0  501 -0.0000000000e+00 +0.0000000000e+00 +9.2139315791e+00 9.2139319320e+00 2.5500000000e-03 0.0000e+00 1.0000e+00
        1 -1    0    0  501    0 +0.0000000000e+00 -0.0000000000e+00 -1.8067168684e+02 1.8067168691e+02 5.0400000000e-03 0.0000e+00 -1.0000e+00
      -24  2    1    2    0    0 +0.0000000000e+00 +3.5527136788e-15 -1.7145775526e+02 1.8988561884e+02 8.1601387267e+01 0.0000e+00 0.0000e+00
       66  2    3    3    0    0 +2.0421271498e+01 -2.0667753134e+01 -1.4390913668e+02 1.4984661412e+02 2.9999729905e+01 0.0000e+00 0.0000e+00
       13  1    3    3    0    0 -2.0421271498e+01 +2.0667753134e+01 -2.7548618576e+01 4.0039004716e+01 1.0566000000e-01 0.0000e+00 -1.0000e+00
       13  1    4    4    0    0 +2.2822635999e+00 -8.5218339256e+00 -1.5110393238e+01 1.7497586360e+01 1.0566000000e-01 0.0000e+00 -1.0000e+00
      -13  1    4    4    0    0 +6.1129367967e+00 -6.0369330774e+00 -1.1916573311e+01 1.4691100734e+01 1.0566000000e-01 0.0000e+00 1.0000e+00
       14  1    4    4    0    0 +1.2026071101e+01 -6.1089861311e+00 -1.1688217014e+02 1.1765792703e+02 0.0000000000e+00 0.0000e+00 -1.0000e+00
<mgrwt>
<rscale>  0 0.81601387E+02</rscale>
<asrwt>0</asrwt>
<pdfrwt beam="1">  1        1 0.27795642E-01 0.81601387E+02</pdfrwt>
<pdfrwt beam="2">  1       -2 0.14175281E-02 0.81601387E+02</pdfrwt>
<totfact> 0.15509277E+05</totfact>
</mgrwt>
</event>
<event>
 8      1 +5.0320763e-08 7.95401900e+01 7.81860800e-03 1.33036100e-01
        2 -1    0    0  501    0 +0.0000000000e+00 +0.0000000000e+00 +1.2945348924e+02 1.2945348926e+02 2.5500000000e-03 0.0000e+00 -1.0000e+00
       -1 -1    0    0    0  501 -0.0000000000e+00 -0.0000000000e+00 -1.2217982529e+01 1.2217983568e+01 5.0400000000e-03 0.0000e+00 1.0000e+00
       24  2    1    2    0    0 +0.0000000000e+00 +0.0000000000e+00 +1.1723550671e+02 1.4167147283e+02 7.9540192235e+01 0.0000e+00 0.0000e+00
       66  2    3    3    0    0 -2.4008598479e+01 -1.0199050623e+01 +1.0610999871e+02 1.1331267302e+02 2.9999943441e+01 0.0000e+00 0.0000e+00
      -13  1    3    3    0    0 +2.4008598479e+01 +1.0199050623e+01 +1.1125508004e+01 2.8358799815e+01 1.0566000000e-01 0.0000e+00 1.0000e+00
       13  1    4    4    0    0 -2.5498820667e+00 -1.1969679229e+00 +5.1704196513e+01 5.1780978475e+01 1.0566000000e-01 0.0000e+00 -1.0000e+00
      -13  1    4    4    0    0 -1.9953142441e+01 -1.5178840844e+00 +4.6069960853e+01 5.0228321915e+01 1.0566000000e-01 0.0000e+00 1.0000e+00
      -14  1    4    4    0    0 -1.5055739713e+00 -7.4841986157e+00 +8.3358413396e+00 1.1303372627e+01 0.0000000000e+00 0.0000e+00 1.0000e+00
<mgrwt>
<rscale>  0 0.79540192E+02</rscale>
<asrwt>0</asrwt>
<pdfrwt beam="1">  1        2 0.19915921E-01 0.79540192E+02</pdfrwt>
<pdfrwt beam="2">  1       -1 0.18796898E-02 0.79540192E+02</pdfrwt>
<totfact> 0.19417281E+05</totfact>
</mgrwt>
</event>
<event>
 8      1 +5.0320763e-08 8.12062800e+01 7.81860800e-03 1.32566300e-01
        3 -1    0    0  501    0 +0.0000000000e+00 +0.0000000000e+00 +1.0535924341e+01 1.0536408435e+01 1.0100000000e-01 0.0000e+00 -1.0000e+00
       -4 -1    0    0    0  501 -0.0000000000e+00 -0.0000000000e+00 -1.5643089607e+02 1.5643605130e+02 1.2700000000e+00 0.0000e+00 1.0000e+00
      -24  2    1    2    0    0 -1.7763568394e-15 -7.6327832943e-16 -1.4589497173e+02 1.6697245973e+02 8.1206277670e+01 0.0000e+00 0.0000e+00
       66  2    3    3    0    0 -1.4066154055e+01 +1.2044712476e-01 -1.4893875643e+02 1.5257985793e+02 2.9999811345e+01 0.0000e+00 0.0000e+00
       13  1    3    3    0    0 +1.4066154055e+01 -1.2044712476e-01 +3.0437846994e+00 1.4392601806e+01 1.0566000000e-01 0.0000e+00 -1.0000e+00
       13  1    4    4    0    0 -5.5994763709e+00 -9.8387907500e+00 -5.7082832944e+01 5.8194646833e+01 1.0566000000e-01 0.0000e+00 -1.0000e+00
      -13  1    4    4    0    0 +6.6254476889e-01 -7.2688710781e-01 +3.9841426204e-01 1.0664091138e+00 1.0566000000e-01 0.0000e+00 1.0000e+00
      -14  1    4    4    0    0 -9.1292224530e+00 +1.0686124983e+01 -9.2254337749e+01 9.3318801981e+01 0.0000000000e+00 0.0000e+00 1.0000e+00
<mgrwt>
<rscale>  0 0.81206278E+02</rscale>
<asrwt>0</asrwt>
<pdfrwt beam="1">  1        3 0.16209514E-02 0.81206278E+02</pdfrwt>
<pdfrwt beam="2">  1       -4 0.24072573E-01 0.81206278E+02</pdfrwt>
<totfact> 0.34499802E+04</totfact>
</mgrwt>
</event>
<event>
 8      1 +5.0320763e-08 7.77333700e+01 7.81860800e-03 1.33561000e-01
        2 -1    0    0  501    0 +0.0000000000e+00 +0.0000000000e+00 +2.2783828090e+02 2.2783828091e+02 2.5500000000e-03 0.0000e+00 -1.0000e+00
       -1 -1    0    0    0  501 -0.0000000000e+00 -0.0000000000e+00 -6.6302241605e+00 6.6302260761e+00 5.0400000000e-03 0.0000e+00 1.0000e+00
       24  2    1    2    0    0 +0.0000000000e+00 +0.0000000000e+00 +2.2120805674e+02 2.3446850699e+02 7.7733367377e+01 0.0000e+00 0.0000e+00
       66  2    3    3    0    0 -2.4276987370e+01 +2.0220198431e+01 +9.7534888115e+01 1.0682332556e+02 2.9998999050e+01 0.0000e+00 0.0000e+00
      -13  1    3    3    0    0 +2.4276987370e+01 -2.0220198431e+01 +1.2367316862e+02 1.2764518143e+02 1.0566000000e-01 0.0000e+00 1.0000e+00
       13  1    4    4    0    0 -8.5471910105e+00 +1.9487947198e+01 +6.3864487088e+01 6.7316553946e+01 1.0566000000e-01 0.0000e+00 -1.0000e+00
      -13  1    4    4    0    0 -2.2923420035e+00 +3.9253517859e+00 +2.0226830617e+00 4.9765077422e+00 1.0566000000e-01 0.0000e+00 1.0000e+00
       14  1    4    4    0    0 -1.3437454356e+01 -3.1931005527e+00 +3.1647717966e+01 3.4530263873e+01 0.0000000000e+00 0.0000e+00 -1.0000e+00
<mgrwt>
<rscale>  0 0.77733367E+02</rscale>
<asrwt>0</asrwt>
<pdfrwt beam="1">  1        2 0.35052048E-01 0.77733367E+02</pdfrwt>
<pdfrwt beam="2">  1       -1 0.10200345E-02 0.77733367E+02</pdfrwt>
<totfact> 0.24903906E+05</totfact>
</mgrwt>
</event>
<event>
 8      1 +5.0320763e-08 7.94344900e+01 7.81860800e-03 1.33066400e-01
       -4 -1    0    0    0  501 -0.0000000000e+00 +0.0000000000e+00 +1.7242046205e+01 1.7288755228e+01 1.2700000000e+00 0.0000e+00 1.0000e+00
        3 -1    0    0  501    0 +0.0000000000e+00 -0.0000000000e+00 -9.1341830546e+01 9.1341886385e+01 1.0100000000e-01 0.0000e+00 -1.0000e+00
      -24  2    1    2    0    0 +3.5527136788e-15 +1.7763568394e-15 -7.4099784341e+01 1.0863064161e+02 7.9434490355e+01 0.0000e+00 0.0000e+00
       66  2    3    3    0    0 -3.0655493008e+01 -1.0117028588e+01 -2.7513641386e+01 5.1952661776e+01 2.9999418066e+01 0.0000e+00 0.0000e+00
       13  1    3    3    0    0 +3.0655493008e+01 +1.0117028588e+01 -4.6586142954e+01 5.6677979837e+01 1.0566000000e-01 0.0000e+00 -1.0000e+00
       13  1    4    4    0    0 -1.9234691985e+00 -6.4184588950e+00 -1.6144866713e+01 1.7480395693e+01 1.0566000000e-01 0.0000e+00 -1.0000e+00
      -13  1    4    4    0    0 -5.9478814861e+00 -7.1950712727e+00 -4.8335722147e+00 1.0512893473e+01 1.0566000000e-01 0.0000e+00 1.0000e+00
      -14  1    4    4    0    0 -2.2784142323e+01 +3.4965015795e+00 -6.5352024582e+00 2.3959372610e+01 0.0000000000e+00 0.0000e+00 1.0000e+00
<mgrwt>
<rscale>  0 0.79434490E+02</rscale>
<asrwt>0</asrwt>
<pdfrwt beam="1">  1        3 0.14052616E-01 0.79434490E+02</pdfrwt>
<pdfrwt beam="2">  1       -4 0.26568947E-02 0.79434490E+02</pdfrwt>
<totfact> 0.44054121E+04</totfact>
</mgrwt>
</event>
<event>
 8      1 +5.0320763e-08 8.20966400e+01 7.81860800e-03 1.32320500e-01
        2 -1    0    0  501    0 +0.0000000000e+00 +0.0000000000e+00 +1.9654642422e+02 1.9654642423e+02 2.5500000000e-03 0.0000e+00 -1.0000e+00
       -1 -1    0    0    0  501 -0.0000000000e+00 -0.0000000000e+00 -8.5728566469e+00 8.5728581285e+00 5.0400000000e-03 0.0000e+00 1.0000e+00
       24  2    1    2    0    0 +3.5527136788e-15 +3.5527136788e-15 +1.8797356757e+02 2.0511928236e+02 8.2096637518e+01 0.0000e+00 0.0000e+00
       66  2    3    3    0    0 -1.7373450174e+01 -2.8049904155e+01 +1.3971680712e+02 1.4666109228e+02 3.0000931718e+01 0.0000e+00 0.0000e+00
      -13  1    3    3    0    0 +1.7373450174e+01 +2.8049904155e+01 +4.8256760452e+01 5.8458190080e+01 1.0566000000e-01 0.0000e+00 1.0000e+00
       13  1    4    4    0    0 -1.0076817378e+01 -2.5397875256e+01 +1.3043602402e+02 1.3326725720e+02 1.0566000000e-01 0.0000e+00 -1.0000e+00
      -13  1    4    4    0    0 -7.2212570712e+00 -3.6766516301e-01 +7.9590472017e+00 1.0753572790e+01 1.0566000000e-01 0.0000e+00 1.0000e+00
       14  1    4    4    0    0 -7.5375725049e-02 -2.2843637366e+00 +1.3217358977e+00 2.6402622908e+00 0.0000000000e+00 0.0000e+00 -1.0000e+00
<mgrwt>
<rscale>  0 0.82096638E+02</rscale>
<asrwt>0</asrwt>
<pdfrwt beam="1">  1        2 0.30237910E-01 0.82096638E+02</pdfrwt>
<pdfrwt beam="2">  1       -1 0.13189012E-02 0.82096638E+02</pdfrwt>
<totfact> 0.20476658E+05</totfact>
</mgrwt>
</event>
<event>
 8      1 +5.0320763e-08 8.01689400e+01 7.81860800e-03 1.32857300e-01
       -2 -1    0    0    0  501 -0.0000000000e+00 +0.0000000000e+00 +4.5682434261e+01 4.5682434332e+01 2.5500000000e-03 0.0000e+00 1.0000e+00
        1 -1    0    0  501    0 +0.0000000000e+00 -0.0000000000e+00 -3.5172484425e+01 3.5172484786e+01 5.0400000000e-03 0.0000e+00 -1.0000e+00
      -24  2    1    2    0    0 +8.8817841970e-16 +3.5527136788e-15 +1.0509949836e+01 8.0854919118e+01 8.0168939746e+01 0.0000e+00 0.0000e+00
       66  2    3    3    0    0 -7.7589874900e+00 -1.5173220550e+01 +3.6211008367e+01 5.0016889311e+01 3.0000393008e+01 0.0000e+00 0.0000e+00
       13  1    3    3    0    0 +7.7589874900e+00 +1.5173220550e+01 -2.5701058531e+01 3.0838029807e+01 1.0566000000e-01 0.0000e+00 -1.0000e+00
       13  1    4    4    0    0 -1.3286792064e+01 -5.7679811101e+00 +1.2922534595e+01 1.9411633467e+01 1.0566000000e-01 0.0000e+00 -1.0000e+00
      -13  1    4    4    0    0 +9.6775211082e-01 -3.2992893869e+00 +2.2702853020e+01 2.2961980618e+01 1.0566000000e-01 0.0000e+00 1.0000e+00
       14  1    4    4    0    0 +4.5600524633e+00 -6.1059500531e+00 +5.8562075144e-01 7.6432752262e+00 0.0000000000e+00 0.0000e+00 -1.0000e+00
<mgrwt>
<rscale>  0 0.80168940E+02</rscale>
<asrwt>0</asrwt>
<pdfrwt beam="1">  1        1 0.54111515E-02 0.80168940E+02</pdfrwt>
<pdfrwt beam="2">  1       -2 0.70280668E-02 0.80168940E+02</pdfrwt>
<totfact> 0.12356470E+05</totfact>
</mgrwt>
</event>
<event>
 8      1 +5.0320763e-08 8.05592200e+01 7.81860800e-03 1.32747200e-01
        2 -1    0    0  501    0 +0.0000000000e+00 +0.0000000000e+00 +7.5976566517e+00 7.5976570796e+00 2.5500000000e-03 0.0000e+00 -1.0000e+00
       -1 -1    0    0    0  501 -0.0000000000e+00 -0.0000000000e+00 -2.1354568760e+02 2.1354568766e+02 5.0400000000e-03 0.0000e+00 1.0000e+00
       24  2    1    2    0    0 +3.5527136788e-15 +2.2204460493e-16 -2.0594803095e+02 2.2114334474e+02 8.0559217169e+01 0.0000e+00 0.0000e+00
       66  2    3    3    0    0 -3.1169257248e+01 -1.0324806899e+00 -7.5525264791e+01 8.7043763420e+01 2.9999375240e+01 0.0000e+00 0.0000e+00
      -13  1    3    3    0    0 +3.1169257248e+01 +1.0324806899e+00 -1.3042276616e+02 1.3409958132e+02 1.0566000000e-01 0.0000e+00 1.0000e+00
       13  1    4    4    0    0 -6.3277116138e+00 +7.4057790514e+00 -1.6539912908e+01 1.9195452083e+01 1.0566000000e-01 0.0000e+00 1.0000e+00
      -13  1    4    4    0    0 -1.6269889247e+01 +2.4649010433e-01 -1.4755247756e+01 2.1965849719e+01 1.0566000000e-01 0.0000e+00 -1.0000e+00
      -14  1    4    4    0    0 -8.5716563868e+00 -8.6847498456e+00 -4.4230104126e+01 4.5882461618e+01 0.0000000000e+00 0.0000e+00 1.0000e+00
<mgrwt>
<rscale>  0 0.80559217E+02</rscale>
<asrwt>0</asrwt>
<pdfrwt beam="1">  1        2 0.11688704E-02 0.80559217E+02</pdfrwt>
<pdfrwt beam="2">  1       -1 0.32853178E-01 0.80559217E+02</pdfrwt>
<totfact> 0.95888345E+04</totfact>
</mgrwt>
</event>
<event>
 8      1 +5.0320763e-08 9.64697900e+01 7.81860800e-03 1.28790000e-01
       -1 -1    0    0    0  501 -0.0000000000e+00 +0.0000000000e+00 +3.1284194672e+00 3.1284235270e+00 5.0400000000e-03 0.0000e+00 1.0000e+00
        2 -1    0    0  501    0 +0.0000000000e+00 -0.0000000000e+00 -7.4369937748e+02 7.4369937749e+02 2.5500000000e-03 0.0000e+00 -1.0000e+00
       24  2    1    2    0    0 -3.5527136788e-15 -8.8817841970e-16 -7.4057095801e+02 7.4682780101e+02 9.6469790667e+01 0.0000e+00 0.0000e+00
       66  2    3    3    0    0 -1.5103821622e+01 +5.1809834281e+00 -7.1992806712e+02 7.2072975271e+02 2.9999776540e+01 0.0000e+00 0.0000e+00
      -13  1    3    3    0    0 +1.5103821622e+01 -5.1809834281e+00 -2.0642890894e+01 2.6098048306e+01 1.0566000000e-01 0.0000e+00 1.0000e+00
       13  1    4    4    0    0 -5.3742352537e-02 -4.1759605740e+00 -1.8154611207e+02 1.8159417256e+02 1.0566000000e-01 0.0000e+00 -1.0000e+00
      -13  1    4    4    0    0 -1.7272208070e+01 +1.3058142366e+01 -3.3036911535e+02 3.3107794822e+02 1.0566000000e-01 0.0000e+00 1.0000e+00
      -14  1    4    4    0    0 +2.2221288000e+00 -3.7011983637e+00 -2.0801283970e+02 2.0805763193e+02 0.0000000000e+00 0.0000e+00 1.0000e+00
<mgrwt>
<rscale>  0 0.96469791E+02</rscale>
<asrwt>0</asrwt>
<pdfrwt beam="1">  1        2 0.11441515E+00 0.96469791E+02</pdfrwt>
<pdfrwt beam="2">  1       -1 0.48129621E-03 0.96469791E+02</pdfrwt>
<totfact> 0.20743505E+05</totfact>
</mgrwt>
</event>
<event>
 8      1 +5.0320763e-08 8.20351700e+01 7.81860800e-03 1.32337300e-01
       -1 -1    0    0    0  501 -0.0000000000e+00 +0.0000000000e+00 +6.0818577028e+00 6.0818597911e+00 5.0400000000e-03 0.0000e+00 1.0000e+00
        2 -1    0    0  501    0 +0.0000000000e+00 -0.0000000000e+00 -2.7663291729e+02 2.7663291730e+02 2.5500000000e-03 0.0000e+00 -1.0000e+00
       24  2    1    2    0    0 +0.0000000000e+00 +0.0000000000e+00 -2.7055105959e+02 2.8271477709e+02 8.2035171377e+01 0.0000e+00 0.0000e+00
       66  2    3    3    0    0 -2.7137055602e+01 +1.4439155576e+01 -2.1478532039e+02 2.1903795374e+02 2.9999705351e+01 0.0000e+00 0.0000e+00
      -13  1    3    3    0    0 +2.7137055602e+01 -1.4439155576e+01 -5.5765739191e+01 6.3676823351e+01 1.0566000000e-01 0.0000e+00 1.0000e+00
       13  1    4    4    0    0 -3.1022100738e+01 +1.5143787733e+01 -1.5281821686e+02 1.5666883420e+02 1.0566000000e-01 0.0000e+00 -1.0000e+00
      -13  1    4    4    0    0 +1.8316987807e+00 +1.5100158302e+00 -4.8894019157e+01 4.8951726646e+01 1.0566000000e-01 0.0000e+00 1.0000e+00
       14  1    4    4    0    0 +2.0533463546e+00 -2.2146479871e+00 -1.3073084376e+01 1.3417392893e+01 0.0000000000e+00 0.0000e+00 -1.0000e+00
<mgrwt>
<rscale>  0 0.82035171E+02</rscale>
<asrwt>0</asrwt>
<pdfrwt beam="1">  1        2 0.42558901E-01 0.82035171E+02</pdfrwt>
<pdfrwt beam="2">  1       -1 0.93567079E-03 0.82035171E+02</pdfrwt>
<totfact> 0.23174777E+05</totfact>
</mgrwt>
</event>
<event>
 8      1 +5.0320763e-08 7.98649600e+01 7.81860800e-03 1.32943500e-01
       -3 -1    0    0    0  501 -0.0000000000e+00 +0.0000000000e+00 +2.7260071708e+00 2.7278775807e+00 1.0100000000e-01 0.0000e+00 1.0000e+00
        4 -1    0    0  501    0 +0.0000000000e+00 -0.0000000000e+00 -5.8460911870e+02 5.8461049817e+02 1.2700000000e+00 0.0000e+00 -1.0000e+00
       24  2    1    2    0    0 +0.0000000000e+00 +0.0000000000e+00 -5.8188311153e+02 5.8733837575e+02 7.9864961924e+01 0.0000e+00 0.0000e+00
       66  2    3    3    0    0 -1.5980405210e+01 +8.1831180393e+00 -5.4690680049e+02 5.4802310811e+02 2.9999030460e+01 0.0000e+00 0.0000e+00
      -13  1    3    3    0    0 +1.5980405210e+01 -8.1831180393e+00 -3.4976311042e+01 3.9315267641e+01 1.0566000000e-01 0.0000e+00 1.0000e+00
       13  1    4    4    0    0 -2.8581806628e+00 +3.1148446631e+00 -2.8207906890e+02 2.8211076500e+02 1.0566000000e-01 0.0000e+00 -1.0000e+00
      -13  1    4    4    0    0 +2.3687993157e+00 -4.9251418623e+00 -5.1345182256e+01 5.1635328385e+01 1.0566000000e-01 0.0000e+00 1.0000e+00
      -14  1    4    4    0    0 -1.5491023863e+01 +9.9934152385e+00 -2.1348254933e+02 2.1427701472e+02 0.0000000000e+00 0.0000e+00 1.0000e+00
<mgrwt>
<rscale>  0 0.79864962E+02</rscale>
<asrwt>0</asrwt>
<pdfrwt beam="1">  1        4 0.89962614E-01 0.79864962E+02</pdfrwt>
<pdfrwt beam="2">  1       -3 0.41953076E-03 0.79864962E+02</pdfrwt>
<totfact> 0.17897636E+04</totfact>
</mgrwt>
</event>
<event>
 8      1 +5.0320763e-08 7.90800600e+01 7.81860800e-03 1.33168300e-01
       -4 -1    0    0    0  501 -0.0000000000e+00 +0.0000000000e+00 +1.4367666935e+02 1.4368228219e+02 1.2700000000e+00 0.0000e+00 1.0000e+00
        3 -1    0    0  501    0 +0.0000000000e+00 -0.0000000000e+00 -1.0878203183e+01 1.0878672047e+01 1.0100000000e-01 0.0000e+00 -1.0000e+00
      -24  2    1    2    0    0 +3.5527136788e-15 +0.0000000000e+00 +1.3279846617e+02 1.5456095424e+02 7.9080060436e+01 0.0000e+00 0.0000e+00
       66  2    3    3    0    0 -2.3261450359e+01 +1.9360232134e+01 +4.6319853348e+01 6.2939585004e+01 2.9999148075e+01 0.0000e+00 0.0000e+00
       13  1    3    3    0    0 +2.3261450359e+01 -1.9360232134e+01 +8.6478612817e+01 9.1621369232e+01 1.0566000000e-01 0.0000e+00 -1.0000e+00
       13  1    4    4    0    0 -5.5964817465e+00 +1.0459710606e+01 +1.4666358705e+01 1.8863705776e+01 1.0566000000e-01 0.0000e+00 -1.0000e+00
      -13  1    4    4    0    0 -1.3920362858e+01 +3.9057386400e+00 +3.4355293931e+01 3.7273699596e+01 1.0566000000e-01 0.0000e+00 1.0000e+00
       14  1    4    4    0    0 -3.7446057550e+00 +4.9947828880e+00 -2.7017992882e+00 6.8021796325e+00 0.0000000000e+00 0.0000e+00 -1.0000e+00
<mgrwt>
<rscale>  0 0.79080060E+02</rscale>
<asrwt>0</asrwt>
<pdfrwt beam="1">  1        3 0.16736087E-02 0.79080060E+02</pdfrwt>
<pdfrwt beam="2">  1       -4 0.22110234E-01 0.79080060E+02</pdfrwt>
<totfact> 0.38032018E+04</totfact>
</mgrwt>
</event>
<event>
 8      1 +5.0320763e-08 7.58252300e+01 7.81860800e-03 1.34133400e-01
        3 -1    0    0  501    0 +0.0000000000e+00 +0.0000000000e+00 +1.0663776795e+02 1.0663781578e+02 1.0100000000e-01 0.0000e+00 -1.0000e+00
       -4 -1    0    0    0  501 -0.0000000000e+00 -0.0000000000e+00 -1.3445230950e+01 1.3505078130e+01 1.2700000000e+00 0.0000e+00 1.0000e+00
      -24  2    1    2    0    0 +3.5527136788e-15 -2.6645352591e-15 +9.3192537004e+01 1.2014289391e+02 7.5825233298e+01 0.0000e+00 0.0000e+00
       66  2    3    3    0    0 -2.2936994543e+01 +2.0591058035e+00 +1.8736361485e+01 4.2206516834e+01 2.9999886435e+01 0.0000e+00 0.0000e+00
       13  1    3    3    0    0 +2.2936994543e+01 -2.0591058035e+00 +7.4456175519e+01 7.7936377080e+01 1.0566000000e-01 0.0000e+00 -1.0000e+00
       13  1    4    4    0    0 -2.2802068982e+00 -7.1471833635e+00 +9.9513694080e+00 1.2462844405e+01 1.0566000000e-01 0.0000e+00 -1.0000e+00
      -13  1    4    4    0    0 -1.7417782669e+01 +1.7818829801e+00 -3.7873038424e-01 1.7513105401e+01 1.0566000000e-01 0.0000e+00 1.0000e+00
       14  1    4    4    0    0 -3.2390049760e+00 +7.4244061869e+00 +9.1637224614e+00 1.2230567027e+01 0.0000000000e+00 0.0000e+00 -1.0000e+00
<mgrwt>
<rscale>  0 0.75825233E+02</rscale>
<asrwt>0</asrwt>
<pdfrwt beam="1">  1        3 0.16405845E-01 0.75825233E+02</pdfrwt>
<pdfrwt beam="2">  1       -4 0.20736823E-02 0.75825233E+02</pdfrwt>
<totfact> 0.48836432E+04</totfact>
</mgrwt>
</event>
<event>
 8      1 +5.0320763e-08 7.92611900e+01 7.81860800e-03 1.33116100e-01
       -1 -1    0    0    0  501 -0.0000000000e+00 +0.0000000000e+00 +1.9454184005e+00 1.9454249291e+00 5.0400000000e-03 0.0000e+00 1.0000e+00
        2 -1    0    0  501    0 +0.0000000000e+00 -0.0000000000e+00 -8.0732329103e+02 8.0732329104e+02 2.5500000000e-03 0.0000e+00 -1.0000e+00
       24  2    1    2    0    0 +0.0000000000e+00 +0.0000000000e+00 -8.0537787263e+02 8.0926871597e+02 7.9261194260e+01 0.0000e+00 0.0000e+00
       66  2    3    3    0    0 -6.6650762963e-01 -1.7496022270e+01 -7.5739503602e+02 7.5819113966e+02 3.0000144102e+01 0.0000e+00 0.0000e+00
      -13  1    3    3    0    0 +6.6650762963e-01 +1.7496022270e+01 -4.7982836611e+01 5.1077576302e+01 1.0566000000e-01 0.0000e+00 1.0000e+00
       13  1    4    4    0    0 -1.7537646827e+00 +1.9511466928e-01 -8.3794278156e+01 8.3812922488e+01 1.0566000000e-01 0.0000e+00 -1.0000e+00
      -13  1    4    4    0    0 +5.3215768092e+00 -2.3879235309e+01 -5.5661743851e+02 5.5715484479e+02 1.0566000000e-01 0.0000e+00 1.0000e+00
      -14  1    4    4    0    0 -4.2343197561e+00 +6.1880983689e+00 -1.1698331935e+02 1.1722337238e+02 0.0000000000e+00 0.0000e+00 1.0000e+00
<mgrwt>
<rscale>  0 0.79261194E+02</rscale>
<asrwt>0</asrwt>
<pdfrwt beam="1">  1        2 0.12420332E+00 0.79261194E+02</pdfrwt>
<pdfrwt beam="2">  1       -1 0.29929629E-03 0.79261194E+02</pdfrwt>
<totfact> 0.35258172E+05</totfact>
</mgrwt>
</event>
<event>
 8      1 +5.0320763e-08 8.02151100e+01 7.81860800e-03 1.32844200e-01
        1 -1    0    0  501    0 +0.0000000000e+00 +0.0000000000e+00 +6.8580902964e+00 6.8580921484e+00 5.0400000000e-03 0.0000e+00 -1.0000e+00
       -2 -1    0    0    0  501 -0.0000000000e+00 -0.0000000000e+00 -2.3455739807e+02 2.3455739809e+02 2.5500000000e-03 0.0000e+00 1.0000e+00
      -24  2    1    2    0    0 -8.8817841970e-16 +1.7763568394e-15 -2.2769930778e+02 2.4141549024e+02 8.0215111816e+01 0.0000e+00 0.0000e+00
       66  2    3    3    0    0 +6.7204689261e+00 -1.4119503073e+01 -2.2231742890e+02 2.2487762901e+02 3.0006395455e+01 0.0000e+00 0.0000e+00
       13  1    3    3    0    0 -6.7204689261e+00 +1.4119503073e+01 -5.3818788810e+00 1.6537861227e+01 1.0566000000e-01 0.0000e+00 -1.0000e+00
       13  1    4    4    0    0 +1.9082899613e+00 +6.6667133541e+00 -4.4030184724e+01 4.4573029608e+01 1.0566000000e-01 0.0000e+00 -1.0000e+00
      -13  1    4    4    0    0 -3.7549777777e+00 -7.6434954981e+00 -1.0563570519e+02 1.0597847072e+02 1.0566000000e-01 0.0000e+00 1.0000e+00
       14  1    4    4    0    0 +8.5671567425e+00 -1.3142720929e+01 -7.2651538986e+01 7.4326128684e+01 0.0000000000e+00 0.0000e+00 -1.0000e+00
<mgrwt>
<rscale>  0 0.80215112E+02</rscale>
<asrwt>0</asrwt>
<pdfrwt beam="1">  1        1 0.10550911E-02 0.80215112E+02</pdfrwt>
<pdfrwt beam="2">  1       -2 0.36085747E-01 0.80215112E+02</pdfrwt>
<totfact> 0.78891686E+04</totfact>
</mgrwt>
</event>
<event>
 8      1 +5.0320763e-08 7.86363900e+01 7.81860800e-03 1.33296600e-01
       -2 -1    0    0    0  501 -0.0000000000e+00 +0.0000000000e+00 +4.0771484742e+01 4.0771484821e+01 2.5500000000e-03 0.0000e+00 1.0000e+00
        1 -1    0    0  501    0 +0.0000000000e+00 -0.0000000000e+00 -3.7916711323e+01 3.7916711658e+01 5.0400000000e-03 0.0000e+00 -1.0000e+00
      -24  2    1    2    0    0 +0.0000000000e+00 -1.7763568394e-15 +2.8547734188e+00 7.8688196479e+01 7.8636394461e+01 0.0000e+00 0.0000e+00
       66  2    3    3    0    0 +1.9211008947e+01 -1.4643607862e+01 +2.4999313579e+01 4.5917936503e+01 2.9999884954e+01 0.0000e+00 0.0000e+00
       13  1    3    3    0    0 -1.9211008947e+01 +1.4643607862e+01 -2.2144540160e+01 3.2770259976e+01 1.0566000000e-01 0.0000e+00 -1.0000e+00
       13  1    4    4    0    0 +1.5604142538e+01 -9.9957833302e+00 +1.8120344905e+01 2.5918391390e+01 1.0566000000e-01 0.0000e+00 -1.0000e+00
      -13  1    4    4    0    0 +4.6857755904e+00 -3.9219501561e+00 +1.2668610305e+01 1.4065668736e+01 1.0566000000e-01 0.0000e+00 1.0000e+00
       14  1    4    4    0    0 -1.0789091812e+00 -7.2587437531e-01 -5.7896416312e+00 5.9338763762e+00 0.0000000000e+00 0.0000e+00 -1.0000e+00
<mgrwt>
<rscale>  0 0.78636394E+02</rscale>
<asrwt>0</asrwt>
<pdfrwt beam="1">  1        1 0.58333403E-02 0.78636394E+02</pdfrwt>
<pdfrwt beam="2">  1       -2 0.62725361E-02 0.78636394E+02</pdfrwt>
<totfact> 0.13212827E+05</totfact>
</mgrwt>
</event>
<event>
 8      1 +5.0320763e-08 7.79854000e+01 7.81860800e-03 1.33486800e-01
       -1 -1    0    0    0  501 -0.0000000000e+00 +0.0000000000e+00 +1.0031819836e+02 1.0031819849e+02 5.0400000000e-03 0.0000e+00 1.0000e+00
        2 -1    0    0  501    0 +0.0000000000e+00 -0.0000000000e+00 -1.5156080537e+01 1.5156080752e+01 2.5500000000e-03 0.0000e+00 -1.0000e+00
       24  2    1    2    0    0 -1.7763568394e-15 +0.0000000000e+00 +8.5162117822e+01 1.1547427924e+02 7.7985401540e+01 0.0000e+00 0.0000e+00
       66  2    3    3    0    0 +1.0379749400e+01 +1.6160022484e+01 +8.7436548938e+00 3.6679113366e+01 3.0000338867e+01 0.0000e+00 0.0000e+00
      -13  1    3    3    0    0 -1.0379749400e+01 -1.6160022484e+01 +7.6418462928e+01 7.8795165871e+01 1.0566000000e-01 0.0000e+00 1.0000e+00
       13  1    4    4    0    0 -2.4818800305e+00 +3.5658934147e+00 -4.2522077953e+00 6.0801118000e+00 1.0566000000e-01 0.0000e+00 -1.0000e+00
      -13  1    4    4    0    0 -5.8724910131e-02 +6.7763650428e+00 +1.4835529364e+01 1.6310323950e+01 1.0566000000e-01 0.0000e+00 1.0000e+00
       14  1    4    4    0    0 +1.2920354340e+01 +5.8177640264e+00 -1.8396666749e+00 1.4288677616e+01 0.0000000000e+00 0.0000e+00 -1.0000e+00
<mgrwt>
<rscale>  0 0.77985402E+02</rscale>
<asrwt>0</asrwt>
<pdfrwt beam="1">  1        2 0.23317048E-02 0.77985402E+02</pdfrwt>
<pdfrwt beam="2">  1       -1 0.15433568E-01 0.77985402E+02</pdfrwt>
<totfact> 0.12622542E+05</totfact>
</mgrwt>
</event>
<event>
 8      1 +5.0320763e-08 8.41218000e+01 7.81860800e-03 1.31774500e-01
       -1 -1    0    0    0  501 -0.0000000000e+00 +0.0000000000e+00 +3.1414267431e+00 3.1414307861e+00 5.0400000000e-03 0.0000e+00 1.0000e+00
        2 -1    0    0  501    0 +0.0000000000e+00 -0.0000000000e+00 -5.6315754178e+02 5.6315754178e+02 2.5500000000e-03 0.0000e+00 -1.0000e+00
       24  2    1    2    0    0 +0.0000000000e+00 +7.1054273576e-15 -5.6001611503e+02 5.6629897257e+02 8.4121799998e+01 0.0000e+00 0.0000e+00
       66  2    3    3    0    0 +1.2658586820e+01 +3.3171116315e+01 -3.7847438923e+02 3.8131796774e+02 2.9999440591e+01 0.0000e+00 0.0000e+00
      -13  1    3    3    0    0 -1.2658586820e+01 -3.3171116315e+01 -1.8154172580e+02 1.8498100483e+02 1.0566000000e-01 0.0000e+00 1.0000e+00
       13  1    4    4    0    0 +9.4871982037e+00 +1.2744957163e+01 -1.1709995308e+02 1.1817297084e+02 1.0566000000e-01 0.0000e+00 -1.0000e+00
      -13  1    4    4    0    0 +5.6017048381e+00 +2.0874295149e+01 -1.3283529853e+02 1.3458210503e+02 1.0566000000e-01 0.0000e+00 1.0000e+00
       14  1    4    4    0    0 -2.4303162223e+00 -4.4813599651e-01 -1.2853913762e+02 1.2856289186e+02 0.0000000000e+00 0.0000e+00 -1.0000e+00
<mgrwt>
<rscale>  0 0.84121800E+02</rscale>
<asrwt>0</asrwt>
<pdfrwt beam="1">  1        2 0.86639542E-01 0.84121800E+02</pdfrwt>
<pdfrwt beam="2">  1       -1 0.48329718E-03 0.84121800E+02</pdfrwt>
<totfact> 0.27703120E+05</totfact>
</mgrwt>
</event>
<event>
 8      1 +5.0320763e-08 8.09107800e+01 7.81860800e-03 1.32648600e-01
       -1 -1    0    0    0  501 -0.0000000000e+00 +0.0000000000e+00 +3.2730295172e+00 3.2730333976e+00 5.0400000000e-03 0.0000e+00 1.0000e+00
        2 -1    0    0  501    0 +0.0000000000e+00 -0.0000000000e+00 -5.0003748179e+02 5.0003748179e+02 2.5500000000e-03 0.0000e+00 -1.0000e+00
       24  2    1    2    0    0 -3.5527136788e-15 +3.5527136788e-15 -4.9676445227e+02 5.0331051519e+02 8.0910775938e+01 0.0000e+00 0.0000e+00
       66  2    3    3    0    0 +1.7854013882e+01 +2.1733909257e+01 -4.1098320382e+02 4.1303558859e+02 3.0001249905e+01 0.0000e+00 0.0000e+00
      -13  1    3    3    0    0 -1.7854013882e+01 -2.1733909257e+01 -8.5781248449e+01 9.0274926601e+01 1.0566000000e-01 0.0000e+00 1.0000e+00
       13  1    4    4    0    0 +6.1414651369e+00 +8.3663361941e+00 -1.9727523020e+02 1.9754807209e+02 1.0566000000e-01 0.0000e+00 -1.0000e+00
      -13  1    4    4    0    0 -3.5293954644e+00 -3.3259524429e+00 -4.8080076453e+01 4.8324150357e+01 1.0566000000e-01 0.0000e+00 1.0000e+00
      -14  1    4    4    0    0 +1.5241944210e+01 +1.6693525506e+01 -1.6562789717e+02 1.6716336614e+02 0.0000000000e+00 0.0000e+00 1.0000e+00
<mgrwt>
<rscale>  0 0.80910776E+02</rscale>
<asrwt>0</asrwt>
<pdfrwt beam="1">  1        2 0.76928783E-01 0.80910776E+02</pdfrwt>
<pdfrwt beam="2">  1       -1 0.50354370E-03 0.80910776E+02</pdfrwt>
<totfact> 0.29566259E+05</totfact>
</mgrwt>
</event>
<event>
 8      1 +5.0320763e-08 8.18708500e+01 7.81860800e-03 1.32382500e-01
       -1 -1    0    0    0  501 -0.0000000000e+00 +0.0000000000e+00 +9.4123514579e+00 9.4123528073e+00 5.0400000000e-03 0.0000e+00 1.0000e+00
        2 -1    0    0  501    0 +0.0000000000e+00 -0.0000000000e+00 -1.7803299173e+02 1.7803299174e+02 2.5500000000e-03 0.0000e+00 -1.0000e+00
       24  2    1    2    0    0 +0.0000000000e+00 -3.5527136788e-15 -1.6862064027e+02 1.8744534455e+02 8.1870854824e+01 0.0000e+00 0.0000e+00
       66  2    3    3    0    0 +8.5539946702e+00 +2.0125946176e+01 -1.5947889168e+02 1.6374287072e+02 2.9999771432e+01 0.0000e+00 0.0000e+00
      -13  1    3    3    0    0 -8.5539946702e+00 -2.0125946176e+01 -9.1417485835e+00 2.3702473827e+01 1.0566000000e-01 0.0000e+00 1.0000e+00
       13  1    4    4    0    0 +1.6107489339e+01 +1.2702223788e+01 -8.4586851272e+01 8.7038751565e+01 1.0566000000e-01 0.0000e+00 -1.0000e+00
      -13  1    4    4    0    0 -1.8867497280e+00 +1.1984551704e+00 -1.2122099632e+00 2.5449432925e+00 1.0566000000e-01 0.0000e+00 1.0000e+00
       14  1    4    4    0    0 -5.6667449408e+00 +6.2252672175e+00 -7.3679830450e+01 7.4159175867e+01 0.0000000000e+00 0.0000e+00 -1.0000e+00
<mgrwt>
<rscale>  0 0.81870855E+02</rscale>
<asrwt>0</asrwt>
<pdfrwt beam="1">  1        2 0.27389689E-01 0.81870855E+02</pdfrwt>
<pdfrwt beam="2">  1       -1 0.14480543E-02 0.81870855E+02</pdfrwt>
<totfact> 0.19936928E+05</totfact>
</mgrwt>
</event>
<event>
 8      1 +5.0320763e-08 7.89845600e+01 7.81860800e-03 1.33195800e-01
       -2 -1    0    0    0  501 -0.0000000000e+00 +0.0000000000e+00 +4.8289298235e+00 4.8289304968e+00 2.5500000000e-03 0.0000e+00 1.0000e+00
        1 -1    0    0  501    0 +0.0000000000e+00 -0.0000000000e+00 -3.2297838618e+02 3.2297838621e+02 5.0400000000e-03 0.0000e+00 -1.0000e+00
      -24  2    1    2    0    0 -3.5527136788e-15 +1.7763568394e-15 -3.1814945635e+02 3.2780731671e+02 7.8984557431e+01 0.0000e+00 0.0000e+00
       66  2    3    3    0    0 +3.1004842063e+01 +1.2477630556e+01 -2.0282578135e+02 2.0773836703e+02 2.9999001047e+01 0.0000e+00 0.0000e+00
       13  1    3    3    0    0 -3.1004842063e+01 -1.2477630556e+01 -1.1532367501e+02 1.2006894968e+02 1.0566000000e-01 0.0000e+00 -1.0000e+00
       13  1    4    4    0    0 +1.4716916228e+01 -2.8075090996e+00 -7.3254028713e+01 7.4770539769e+01 1.0566000000e-01 0.0000e+00 -1.0000e+00
      -13  1    4    4    0    0 +1.6368652415e+01 +1.5823568595e+01 -1.3017750114e+02 1.3215336194e+02 1.0566000000e-01 0.0000e+00 1.0000e+00
      -14  1    4    4    0    0 -8.0726579589e-02 -5.3842893887e-01 +6.0574851050e-01 8.1446532206e-01 0.0000000000e+00 0.0000e+00 1.0000e+00
<mgrwt>
<rscale>  0 0.78984557E+02</rscale>
<asrwt>0</asrwt>
<pdfrwt beam="1">  1        1 0.49688966E-01 0.78984557E+02</pdfrwt>
<pdfrwt beam="2">  1       -2 0.74291258E-03 0.78984557E+02</pdfrwt>
<totfact> 0.18919230E+05</totfact>
</mgrwt>
</event>
<event>
 8      1 +5.0320763e-08 8.17236900e+01 7.81860800e-03 1.32423000e-01
       -2 -1    0    0    0  501 -0.0000000000e+00 +0.0000000000e+00 +1.0780307854e+01 1.0780308155e+01 2.5500000000e-03 0.0000e+00 1.0000e+00
        1 -1    0    0  501    0 +0.0000000000e+00 -0.0000000000e+00 -1.5488337678e+02 1.5488337686e+02 5.0400000000e-03 0.0000e+00 -1.0000e+00
      -24  2    1    2    0    0 +0.0000000000e+00 +8.8817841970e-16 -1.4410306892e+02 1.6566368501e+02 8.1723693379e+01 0.0000e+00 0.0000e+00
       66  2    3    3    0    0 +2.1946168872e+01 +7.5252617261e+00 -2.7687243069e+01 4.6958505829e+01 3.0004232179e+01 0.0000e+00 0.0000e+00
       13  1    3    3    0    0 -2.1946168872e+01 -7.5252617261e+00 -1.1641582585e+02 1.1870517919e+02 1.0566000000e-01 0.0000e+00 -1.0000e+00
       13  1    4    4    0    0 +3.8935085449e+00 -2.1425298302e+00 +2.7403726693e+00 5.2221307208e+00 1.0566000000e-01 0.0000e+00 -1.0000e+00
      -13  1    4    4    0    0 +9.3741483582e+00 +7.6909924262e+00 -3.0514094805e+01 3.2835151404e+01 1.0566000000e-01 0.0000e+00 1.0000e+00
      -14  1    4    4    0    0 +8.6785119693e+00 +1.9767991300e+00 +8.6479065888e-02 8.9012237041e+00 0.0000000000e+00 0.0000e+00 1.0000e+00
<mgrwt>
<rscale>  0 0.81723693E+02</rscale>
<asrwt>0</asrwt>
<pdfrwt beam="1">  1        1 0.23828210E-01 0.81723693E+02</pdfrwt>
<pdfrwt beam="2">  1       -2 0.16585090E-02 0.81723693E+02</pdfrwt>
<totfact> 0.15002538E+05</totfact>
</mgrwt>
</event>
<event>
 8      1 +5.0320763e-08 8.16655400e+01 7.81860800e-03 1.32439000e-01
        1 -1    0    0  501    0 +0.0000000000e+00 +0.0000000000e+00 +8.2645541152e+01 8.2645541306e+01 5.0400000000e-03 0.0000e+00 -1.0000e+00
       -2 -1    0    0    0  501 -0.0000000000e+00 -0.0000000000e+00 -2.0174290535e+01 2.0174290696e+01 2.5500000000e-03 0.0000e+00 1.0000e+00
      -24  2    1    2    0    0 +0.0000000000e+00 +0.0000000000e+00 +6.2471250617e+01 1.0281983200e+02 8.1665541688e+01 0.0000e+00 0.0000e+00
       66  2    3    3    0    0 -6.1060310409e+00 -2.9250300774e+01 +1.1736322858e+01 4.3939378800e+01 3.0001067059e+01 0.0000e+00 0.0000e+00
       13  1    3    3    0    0 +6.1060310409e+00 +2.9250300774e+01 +5.0734927759e+01 5.8880453201e+01 1.0566000000e-01 0.0000e+00 -1.0000e+00
       13  1    4    4    0    0 -3.3950577997e+00 -7.5411314387e-02 +7.9757064101e+00 8.6692076400e+00 1.0566000000e-01 0.0000e+00 -1.0000e+00
      -13  1    4    4    0    0 -7.9147440374e+00 -6.3676950794e+00 +5.9526519091e+00 1.1774376527e+01 1.0566000000e-01 0.0000e+00 1.0000e+00
      -14  1    4    4    0    0 +5.2037707963e+00 -2.2807194380e+01 -2.1920354607e+00 2.3495794634e+01 0.0000000000e+00 0.0000e+00 1.0000e+00
<mgrwt>
<rscale>  0 0.81665542E+02</rscale>
<asrwt>0</asrwt>
<pdfrwt beam="1">  1        1 0.12714699E-01 0.81665542E+02</pdfrwt>
<pdfrwt beam="2">  1       -2 0.31037370E-02 0.81665542E+02</pdfrwt>
<totfact> 0.13466428E+05</totfact>
</mgrwt>
</event>
<event>
 8      1 +5.0320763e-08 8.54301100e+01 7.81860800e-03 1.31431200e-01
        1 -1    0    0  501    0 +0.0000000000e+00 +0.0000000000e+00 +1.1328273403e+02 1.1328273414e+02 5.0400000000e-03 0.0000e+00 -1.0000e+00
       -2 -1    0    0    0  501 -0.0000000000e+00 -0.0000000000e+00 -1.6106391815e+01 1.6106392017e+01 2.5500000000e-03 0.0000e+00 1.0000e+00
      -24  2    1    2    0    0 +2.2204460493e-16 +0.0000000000e+00 +9.7176342217e+01 1.2938912616e+02 8.5430114608e+01 0.0000e+00 0.0000e+00
       66  2    3    3    0    0 -1.5657556966e+00 +2.8759974547e+01 +1.8333457091e+01 4.5449865824e+01 2.9999782126e+01 0.0000e+00 0.0000e+00
       13  1    3    3    0    0 +1.5657556966e+00 -2.8759974547e+01 +7.8842885126e+01 8.3939260337e+01 1.0566000000e-01 0.0000e+00 -1.0000e+00
       13  1    4    4    0    0 +6.2230548926e+00 +1.1017115249e+01 +1.8865375683e+01 2.2716003264e+01 1.0566000000e-01 0.0000e+00 -1.0000e+00
      -13  1    4    4    0    0 +1.0147771412e+00 +1.0213052274e+01 -3.3768694624e+00 1.0805120119e+01 1.0566000000e-01 0.0000e+00 1.0000e+00
      -14  1    4    4    0    0 -8.8035877305e+00 +7.5298070239e+00 +2.8449508711e+00 1.1928742440e+01 0.0000000000e+00 0.0000e+00 1.0000e+00
<mgrwt>
<rscale>  0 0.85430115E+02</rscale>
<asrwt>0</asrwt>
<pdfrwt beam="1">  1        1 0.17428113E-01 0.85430115E+02</pdfrwt>
<pdfrwt beam="2">  1       -2 0.24779064E-02 0.85430115E+02</pdfrwt>
<totfact> 0.12572265E+05</totfact>
</mgrwt>
</event>
<event>
 8      1 +5.0320763e-08 8.04380200e+01 7.81860800e-03 1.32781300e-01
        1 -1    0    0  501    0 +0.0000000000e+00 +0.0000000000e+00 +1.1925829999e+02 1.1925830010e+02 5.0400000000e-03 0.0000e+00 -1.0000e+00
       -2 -1    0    0    0  501 -0.0000000000e+00 -0.0000000000e+00 -1.3563573924e+01 1.3563574164e+01 2.5500000000e-03 0.0000e+00 1.0000e+00
      -24  2    1    2    0    0 +3.5527136788e-15 +0.0000000000e+00 +1.0569472606e+02 1.3282187426e+02 8.0438020635e+01 0.0000e+00 0.0000e+00
       66  2    3    3    0    0 -2.4793296658e+01 -2.3684876005e+01 +5.2246465987e+01 6.9320625611e+01 2.9999583604e+01 0.0000e+00 0.0000e+00
       13  1    3    3    0    0 +2.4793296658e+01 +2.3684876005e+01 +5.3448260077e+01 6.3501248648e+01 1.0566000000e-01 0.0000e+00 -1.0000e+00
       13  1    4    4    0    0 -1.8645727472e+01 -2.7780224701e+00 +2.1404542039e+01 2.8522730335e+01 1.0566000000e-01 0.0000e+00 -1.0000e+00
      -13  1    4    4    0    0 -7.9859521793e-01 -2.2642583745e-01 -1.6865319590e+00 1.8827047209e+00 1.0566000000e-01 0.0000e+00 1.0000e+00
      -14  1    4    4    0    0 -5.3489739677e+00 -2.0680427697e+01 +3.2528455907e+01 3.8915190555e+01 0.0000000000e+00 0.0000e+00 1.0000e+00
<mgrwt>
<rscale>  0 0.80438021E+02</rscale>
<asrwt>0</asrwt>
<pdfrwt beam="1">  1        1 0.18347431E-01 0.80438021E+02</pdfrwt>
<pdfrwt beam="2">  1       -2 0.20867037E-02 0.80438021E+02</pdfrwt>
<totfact> 0.14929100E+05</totfact>
</mgrwt>
</event>
<event>
 8      1 +5.0320763e-08 7.41975300e+01 7.81860800e-03 1.34637400e-01
        2 -1    0    0  501    0 +0.0000000000e+00 +0.0000000000e+00 +8.9932322752e+01 8.9932322788e+01 2.5500000000e-03 0.0000e+00 -1.0000e+00
       -1 -1    0    0    0  501 -0.0000000000e+00 -0.0000000000e+00 -1.5303931830e+01 1.5303932660e+01 5.0400000000e-03 0.0000e+00 1.0000e+00
       24  2    1    2    0    0 -5.3290705182e-15 +0.0000000000e+00 +7.4628390923e+01 1.0523625545e+02 7.4197525087e+01 0.0000e+00 0.0000e+00
       66  2    3    3    0    0 +8.8117401851e+00 +2.9545647889e+01 +4.8427047460e+01 6.4774994499e+01 3.0000481870e+01 0.0000e+00 0.0000e+00
      -13  1    3    3    0    0 -8.8117401851e+00 -2.9545647889e+01 +2.6201343462e+01 4.0461260949e+01 1.0566000000e-01 0.0000e+00 1.0000e+00
       13  1    4    4    0    0 -9.0550488001e+00 +7.9554678244e+00 +2.6302482833e+01 2.8932942199e+01 1.0566000000e-01 0.0000e+00 -1.0000e+00
      -13  1    4    4    0    0 +4.5512964754e+00 +4.6909135603e+00 +3.6693363602e+00 7.4962766089e+00 1.0566000000e-01 0.0000e+00 1.0000e+00
       14  1    4    4    0    0 +1.3315492510e+01 +1.6899266504e+01 +1.8455228267e+01 2.8345775691e+01 0.0000000000e+00 0.0000e+00 -1.0000e+00
<mgrwt>
<rscale>  0 0.74197525E+02</rscale>
<asrwt>0</asrwt>
<pdfrwt beam="1">  1        2 0.13835742E-01 0.74197525E+02</pdfrwt>
<pdfrwt beam="2">  1       -1 0.23544511E-02 0.74197525E+02</pdfrwt>
<totfact> 0.21055894E+05</totfact>
</mgrwt>
</event>
<event>
 8      1 +5.0320763e-08 7.98133700e+01 7.81860800e-03 1.32958200e-01
       -4 -1    0    0    0  501 -0.0000000000e+00 +0.0000000000e+00 +5.4290445203e+01 5.4305297535e+01 1.2700000000e+00 0.0000e+00 1.0000e+00
        3 -1    0    0  501    0 +0.0000000000e+00 -0.0000000000e+00 -2.9322200412e+01 2.9322374359e+01 1.0100000000e-01 0.0000e+00 -1.0000e+00
      -24  2    1    2    0    0 +1.7763568394e-15 +0.0000000000e+00 +2.4968244791e+01 8.3627671893e+01 7.9813371426e+01 0.0000e+00 0.0000e+00
       66  2    3    3    0    0 -1.0154367548e+01 -3.2402302876e+01 +1.9086356619e+01 4.9165690168e+01 2.9999261136e+01 0.0000e+00 0.0000e+00
       13  1    3    3    0    0 +1.0154367548e+01 +3.2402302876e+01 +5.8818881714e+00 3.4461981726e+01 1.0566000000e-01 0.0000e+00 -1.0000e+00
       13  1    4    4    0    0 -3.3743116165e+00 -1.0885830432e+01 +1.6592455277e+01 2.0129779413e+01 1.0566000000e-01 0.0000e+00 -1.0000e+00
      -13  1    4    4    0    0 +6.0942324194e+00 -6.4706597691e+00 -9.3770219593e-01 8.9386551602e+00 1.0566000000e-01 0.0000e+00 1.0000e+00
       14  1    4    4    0    0 -1.2874288350e+01 -1.5045812675e+01 +3.4316035386e+00 2.0097255595e+01 0.0000000000e+00 0.0000e+00 -1.0000e+00
<mgrwt>
<rscale>  0 0.79813371E+02</rscale>
<asrwt>0</asrwt>
<pdfrwt beam="1">  1        3 0.45111284E-02 0.79813371E+02</pdfrwt>
<pdfrwt beam="2">  1       -4 0.83556342E-02 0.79813371E+02</pdfrwt>
<totfact> 0.44618746E+04</totfact>
</mgrwt>
</event>
<event>
 8      1 +5.0320763e-08 7.97406400e+01 7.81860800e-03 1.32978900e-01
       -2 -1    0    0    0  501 -0.0000000000e+00 +0.0000000000e+00 +3.9511858926e+01 3.9511859008e+01 2.5500000000e-03 0.0000e+00 1.0000e+00
        1 -1    0    0  501    0 +0.0000000000e+00 -0.0000000000e+00 -4.0232034621e+01 4.0232034937e+01 5.0400000000e-03 0.0000e+00 -1.0000e+00
      -24  2    1    2    0    0 +0.0000000000e+00 -1.7763568394e-15 -7.2017569547e-01 7.9743893945e+01 7.9740641887e+01 0.0000e+00 0.0000e+00
       66  2    3    3    0    0 -3.2818199906e+01 +9.7016768994e+00 +3.7752266459e-02 4.5513170924e+01 3.0004841654e+01 0.0000e+00 0.0000e+00
       13  1    3    3    0    0 +3.2818199906e+01 -9.7016768994e+00 -7.5792796193e-01 3.4230723021e+01 1.0566000000e-01 0.0000e+00 -1.0000e+00
       13  1    4    4    0    0 -5.9448120360e+00 +5.2704653837e+00 -2.7663931556e+00 8.4132449525e+00 1.0566000000e-01 0.0000e+00 -1.0000e+00
      -13  1    4    4    0    0 -1.6119063980e+01 +1.4602790487e+01 -1.1422816109e+00 2.1780304977e+01 1.0566000000e-01 0.0000e+00 1.0000e+00
      -14  1    4    4    0    0 -1.0754323890e+01 -1.0171578971e+01 +3.9464270329e+00 1.5319620994e+01 0.0000000000e+00 0.0000e+00 1.0000e+00
<mgrwt>
<rscale>  0 0.79740642E+02</rscale>
<asrwt>0</asrwt>
<pdfrwt beam="1">  1        1 0.61895438E-02 0.79740642E+02</pdfrwt>
<pdfrwt beam="2">  1       -2 0.60787475E-02 0.79740642E+02</pdfrwt>
<totfact> 0.12826222E+05</totfact>
</mgrwt>
</event>
<event>
 8      1 +5.0320763e-08 8.00714800e+01 7.81860800e-03 1.32884900e-01
       -3 -1    0    0    0  501 -0.0000000000e+00 +0.0000000000e+00 +5.5904803545e+00 5.5913926346e+00 1.0100000000e-01 0.0000e+00 1.0000e+00
        2 -1    0    0  501    0 +0.0000000000e+00 -0.0000000000e+00 -2.8668860778e+02 2.8668860779e+02 2.5500000000e-03 0.0000e+00 -1.0000e+00
       24  2    1    2    0    0 +3.5527136788e-15 -1.7763568394e-15 -2.8109812742e+02 2.9228000042e+02 8.0071476862e+01 0.0000e+00 0.0000e+00
       66  2    3    3    0    0 -2.5912940331e+01 +1.5073288271e+01 -2.2198372049e+02 2.2599871523e+02 2.9999377106e+01 0.0000e+00 0.0000e+00
      -13  1    3    3    0    0 +2.5912940331e+01 -1.5073288271e+01 -5.9114406931e+01 6.6281285192e+01 1.0566000000e-01 0.0000e+00 1.0000e+00
       13  1    4    4    0    0 -1.7761531651e+01 +6.3533165261e+00 -6.1024471745e+01 6.3873577896e+01 1.0566000000e-01 0.0000e+00 1.0000e+00
      -13  1    4    4    0    0 -1.1744843174e+00 +1.1731786281e+01 -1.0126325109e+02 1.0194739530e+02 1.0566000000e-01 0.0000e+00 -1.0000e+00
       14  1    4    4    0    0 -6.9769243630e+00 -3.0118145368e+00 -5.9695997661e+01 6.0177742040e+01 0.0000000000e+00 0.0000e+00 -1.0000e+00
<mgrwt>
<rscale>  0 0.80071477E+02</rscale>
<asrwt>0</asrwt>
<pdfrwt beam="1">  1        2 0.44105928E-01 0.80071477E+02</pdfrwt>
<pdfrwt beam="2">  1       -3 0.86014567E-03 0.80071477E+02</pdfrwt>
<totfact> 0.20092536E+05</totfact>
</mgrwt>
</event>
<event>
 8      1 +5.0320763e-08 7.66065100e+01 7.81860800e-03 1.33896700e-01
       -1 -1    0    0    0  501 -0.0000000000e+00 +0.0000000000e+00 +8.2360457298e+01 8.2360457453e+01 5.0400000000e-03 0.0000e+00 1.0000e+00
        2 -1    0    0  501    0 +0.0000000000e+00 -0.0000000000e+00 -1.7813637960e+01 1.7813638143e+01 2.5500000000e-03 0.0000e+00 -1.0000e+00
       24  2    1    2    0    0 +0.0000000000e+00 +0.0000000000e+00 +6.4546819338e+01 1.0017409560e+02 7.6606511092e+01 0.0000e+00 0.0000e+00
       66  2    3    3    0    0 -2.9812258059e+01 +1.1033692154e+01 +2.8836131483e+01 5.2364290281e+01 2.9999722075e+01 0.0000e+00 0.0000e+00
      -13  1    3    3    0    0 +2.9812258059e+01 -1.1033692154e+01 +3.5710687855e+01 4.7809805315e+01 1.0566000000e-01 0.0000e+00 1.0000e+00
       13  1    4    4    0    0 -2.8971232543e+00 +1.0334430090e+01 +2.9490548529e+00 1.1131121102e+01 1.0566000000e-01 0.0000e+00 1.0000e+00
      -13  1    4    4    0    0 -2.1143565677e+01 +8.1575205786e+00 +1.8396847722e+01 2.9189907188e+01 1.0566000000e-01 0.0000e+00 -1.0000e+00
       14  1    4    4    0    0 -5.7715691284e+00 -7.4582585146e+00 +7.4902289078e+00 1.2043261990e+01 0.0000000000e+00 0.0000e+00 -1.0000e+00
<mgrwt>
<rscale>  0 0.76606511E+02</rscale>
<asrwt>0</asrwt>
<pdfrwt beam="1">  1        2 0.27405597E-02 0.76606511E+02</pdfrwt>
<pdfrwt beam="2">  1       -1 0.12670840E-01 0.76606511E+02</pdfrwt>
<totfact> 0.13738549E+05</totfact>
</mgrwt>
</event>
<event>
 8      1 +5.0320763e-08 7.81815900e+01 7.81860800e-03 1.33429200e-01
       -3 -1    0    0    0  501 -0.0000000000e+00 +0.0000000000e+00 +1.4833412206e+02 1.4833415645e+02 1.0100000000e-01 0.0000e+00 1.0000e+00
        4 -1    0    0  501    0 +0.0000000000e+00 -0.0000000000e+00 -1.0259787718e+01 1.0338091895e+01 1.2700000000e+00 0.0000e+00 -1.0000e+00
       24  2    1    2    0    0 +0.0000000000e+00 +0.0000000000e+00 +1.3807433434e+02 1.5867224834e+02 7.8181587279e+01 0.0000e+00 0.0000e+00
       66  2    3    3    0    0 +1.2908442762e+01 +2.2626788397e+01 +3.6989142369e+01 5.4284381957e+01 2.9999967060e+01 0.0000e+00 0.0000e+00
      -13  1    3    3    0    0 -1.2908442762e+01 -2.2626788397e+01 +1.0108519198e+02 1.0438786639e+02 1.0566000000e-01 0.0000e+00 1.0000e+00
       13  1    4    4    0    0 -4.7643949350e+00 +2.5173414380e+00 +4.2350837167e+00 6.8544558599e+00 1.0566000000e-01 0.0000e+00 -1.0000e+00
      -13  1    4    4    0    0 -3.8448686282e+00 -3.0654922573e-01 +7.6609804561e+00 8.5778069913e+00 1.0566000000e-01 0.0000e+00 1.0000e+00
       14  1    4    4    0    0 +2.1517706325e+01 +2.0415996184e+01 +2.5093078196e+01 3.8852119106e+01 0.0000000000e+00 0.0000e+00 -1.0000e+00
<mgrwt>
<rscale>  0 0.78181587E+02</rscale>
<asrwt>0</asrwt>
<pdfrwt beam="1">  1        4 0.15848705E-02 0.78181587E+02</pdfrwt>
<pdfrwt beam="2">  1       -3 0.22820675E-01 0.78181587E+02</pdfrwt>
<totfact> 0.41866710E+04</totfact>
</mgrwt>
</event>
<event>
 8      1 +5.0320763e-08 7.99408400e+01 7.81860800e-03 1.32921900e-01
       -3 -1    0    0    0  501 -0.0000000000e+00 +0.0000000000e+00 +1.4668254758e+02 1.4668258235e+02 1.0100000000e-01 0.0000e+00 1.0000e+00
        2 -1    0    0  501    0 +0.0000000000e+00 -0.0000000000e+00 -1.0891764416e+01 1.0891764715e+01 2.5500000000e-03 0.0000e+00 -1.0000e+00
       24  2    1    2    0    0 -3.5527136788e-15 -3.5527136788e-15 +1.3579078316e+02 1.5757434707e+02 7.9940841010e+01 0.0000e+00 0.0000e+00
       66  2    3    3    0    0 -2.0893127209e+01 -2.6006146931e+01 +6.1386472492e+01 7.6033835336e+01 3.0000044469e+01 0.0000e+00 0.0000e+00
      -13  1    3    3    0    0 +2.0893127209e+01 +2.6006146931e+01 +7.4404310673e+01 8.1540511732e+01 1.0566000000e-01 0.0000e+00 1.0000e+00
       13  1    4    4    0    0 +4.3618969348e+00 -3.3596207645e+00 +4.1775915138e+00 6.9120641955e+00 1.0566000000e-01 0.0000e+00 1.0000e+00
      -13  1    4    4    0    0 -2.1435013996e+01 -7.3645759625e+00 +3.8379116499e+01 4.4572015339e+01 1.0566000000e-01 0.0000e+00 -1.0000e+00
       14  1    4    4    0    0 -3.8200101474e+00 -1.5281950204e+01 +1.8829764479e+01 2.4549755801e+01 0.0000000000e+00 0.0000e+00 -1.0000e+00
<mgrwt>
<rscale>  0 0.79940841E+02</rscale>
<asrwt>0</asrwt>
<pdfrwt beam="1">  1        2 0.16756561E-02 0.79940841E+02</pdfrwt>
<pdfrwt beam="2">  1       -3 0.22566585E-01 0.79940841E+02</pdfrwt>
<totfact> 0.61723535E+04</totfact>
</mgrwt>
</event>
<event>
 8      1 +5.0320763e-08 8.46427500e+01 7.81860800e-03 1.31636900e-01
       -1 -1    0    0    0  501 -0.0000000000e+00 +0.0000000000e+00 +1.6926061527e+02 1.6926061534e+02 5.0400000000e-03 0.0000e+00 1.0000e+00
        2 -1    0    0  501    0 +0.0000000000e+00 -0.0000000000e+00 -1.0581898031e+01 1.0581898338e+01 2.5500000000e-03 0.0000e+00 -1.0000e+00
       24  2    1    2    0    0 +0.0000000000e+00 +0.0000000000e+00 +1.5867871724e+02 1.7984251368e+02 8.4642745839e+01 0.0000e+00 0.0000e+00
       66  2    3    3    0    0 -6.9458727382e+00 -2.6047858286e+01 +3.5444655158e+01 5.3694262445e+01 3.0000236180e+01 0.0000e+00 0.0000e+00
      -13  1    3    3    0    0 +6.9458727382e+00 +2.6047858286e+01 +1.2323406208e+02 1.2614825123e+02 1.0566000000e-01 0.0000e+00 1.0000e+00
       13  1    4    4    0    0 -5.0547432756e+00 -1.0953528012e+01 +3.0755033277e+01 3.3036547056e+01 1.0566000000e-01 0.0000e+00 -1.0000e+00
      -13  1    4    4    0    0 -5.0331112365e+00 -5.0417090704e-01 +1.6419944680e-01 5.0620670202e+00 1.0566000000e-01 0.0000e+00 1.0000e+00
       14  1    4    4    0    0 +3.1419817740e+00 -1.4590159367e+01 +4.5254224342e+00 1.5595648369e+01 0.0000000000e+00 0.0000e+00 -1.0000e+00
<mgrwt>
<rscale>  0 0.84642746E+02</rscale>
<asrwt>0</asrwt>
<pdfrwt beam="1">  1        2 0.16279844E-02 0.84642746E+02</pdfrwt>
<pdfrwt beam="2">  1       -1 0.26040094E-01 0.84642746E+02</pdfrwt>
<totfact> 0.90556633E+04</totfact>
</mgrwt>
</event>
<event>
 8      1 +5.0320763e-08 8.00206700e+01 7.81860800e-03 1.32899300e-01
        2 -1    0    0  501    0 +0.0000000000e+00 +0.0000000000e+00 +3.4696440295e+01 3.4696440389e+01 2.5500000000e-03 0.0000e+00 -1.0000e+00
       -1 -1    0    0    0  501 -0.0000000000e+00 -0.0000000000e+00 -4.6138069816e+01 4.6138070091e+01 5.0400000000e-03 0.0000e+00 1.0000e+00
       24  2    1    2    0    0 +3.5527136788e-15 +0.0000000000e+00 -1.1441629520e+01 8.0834510480e+01 8.0020667321e+01 0.0000e+00 0.0000e+00
       66  2    3    3    0    0 -1.3903067707e+01 +3.0999663489e+01 -1.1640395344e+00 4.5339236878e+01 3.0000283075e+01 0.0000e+00 0.0000e+00
      -13  1    3    3    0    0 +1.3903067707e+01 -3.0999663489e+01 -1.0277589986e+01 3.5495273602e+01 1.0566000000e-01 0.0000e+00 1.0000e+00
       13  1    4    4    0    0 -8.6246082638e+00 +1.9644510548e+01 +8.2502964845e+00 2.2986283268e+01 1.0566000000e-01 0.0000e+00 -1.0000e+00
      -13  1    4    4    0    0 -9.8329192631e+00 +4.3659133620e+00 -8.9547641568e+00 1.3998087936e+01 1.0566000000e-01 0.0000e+00 1.0000e+00
       14  1    4    4    0    0 +4.5544598195e+00 +6.9892395793e+00 -4.5957186206e-01 8.3548656746e+00 0.0000000000e+00 0.0000e+00 -1.0000e+00
<mgrwt>
<rscale>  0 0.80020667E+02</rscale>
<asrwt>0</asrwt>
<pdfrwt beam="1">  1        2 0.53379139E-02 0.80020667E+02</pdfrwt>
<pdfrwt beam="2">  1       -1 0.70981646E-02 0.80020667E+02</pdfrwt>
<totfact> 0.13839834E+05</totfact>
</mgrwt>
</event>
<event>
 8      1 +5.0320763e-08 1.00111500e+02 7.81860800e-03 1.28006200e-01
       -2 -1    0    0    0  501 -0.0000000000e+00 +0.0000000000e+00 +1.6518734241e+01 1.6518734438e+01 2.5500000000e-03 0.0000e+00 1.0000e+00
        1 -1    0    0  501    0 +0.0000000000e+00 -0.0000000000e+00 -1.5168110652e+02 1.5168110661e+02 5.0400000000e-03 0.0000e+00 -1.0000e+00
      -24  2    1    2    0    0 -3.5527136788e-15 +0.0000000000e+00 -1.3516237228e+02 1.6819984104e+02 1.0011153603e+02 0.0000e+00 0.0000e+00
       66  2    3    3    0    0 -2.6092568959e+01 -3.5875755609e+01 -5.6200098424e+01 7.7629736417e+01 3.0000548627e+01 0.0000e+00 0.0000e+00
       13  1    3    3    0    0 +2.6092568959e+01 +3.5875755609e+01 -7.8962273857e+01 9.0570104627e+01 1.0566000000e-01 0.0000e+00 -1.0000e+00
       13  1    4    4    0    0 -1.7365623444e+01 -2.0550961566e+00 -1.6434231866e+01 2.3997571520e+01 1.0566000000e-01 0.0000e+00 -1.0000e+00
      -13  1    4    4    0    0 -7.3678529525e+00 -1.2172832161e+01 -1.7374350048e+01 2.2457566733e+01 1.0566000000e-01 0.0000e+00 1.0000e+00
       14  1    4    4    0    0 -1.3590925627e+00 -2.1647827291e+01 -2.2391516510e+01 3.1174598163e+01 0.0000000000e+00 0.0000e+00 -1.0000e+00
<mgrwt>
<rscale>  0 0.10011154E+03</rscale>
<asrwt>0</asrwt>
<pdfrwt beam="1">  1        1 0.23335554E-01 0.10011154E+03</pdfrwt>
<pdfrwt beam="2">  1       -2 0.25413438E-02 0.10011154E+03</pdfrwt>
<totfact> 0.86157351E+04</totfact>
</mgrwt>
</event>
<event>
 8      1 +5.0320763e-08 7.96525100e+01 7.81860800e-03 1.33004000e-01
       -1 -1    0    0    0  501 -0.0000000000e+00 +0.0000000000e+00 +4.7223062891e+00 4.7223089787e+00 5.0400000000e-03 0.0000e+00 1.0000e+00
        2 -1    0    0  501    0 +0.0000000000e+00 -0.0000000000e+00 -3.3588039753e+02 3.3588039754e+02 2.5500000000e-03 0.0000e+00 -1.0000e+00
       24  2    1    2    0    0 -7.1054273576e-15 +3.5527136788e-15 -3.3115809124e+02 3.4060270652e+02 7.9652509649e+01 0.0000e+00 0.0000e+00
       66  2    3    3    0    0 +1.6843850144e+01 -2.1728332520e+01 -2.7588491522e+02 2.7886964509e+02 2.9999279748e+01 0.0000e+00 0.0000e+00
      -13  1    3    3    0    0 -1.6843850144e+01 +2.1728332520e+01 -5.5273176024e+01 6.1733061431e+01 1.0566000000e-01 0.0000e+00 1.0000e+00
       13  1    4    4    0    0 +2.0453021544e+01 -1.1290684874e+01 -1.1563100050e+02 1.1796755951e+02 1.0566000000e-01 0.0000e+00 -1.0000e+00
      -13  1    4    4    0    0 -3.2846817180e+00 +1.6773526009e-01 -5.9525241893e+01 5.9616129157e+01 1.0566000000e-01 0.0000e+00 1.0000e+00
      -14  1    4    4    0    0 -3.2448968232e-01 -1.0605382906e+01 -1.0072867282e+02 1.0128595642e+02 0.0000000000e+00 0.0000e+00 1.0000e+00
<mgrwt>
<rscale>  0 0.79652510E+02</rscale>
<asrwt>0</asrwt>
<pdfrwt beam="1">  1        2 0.51673888E-01 0.79652510E+02</pdfrwt>
<pdfrwt beam="2">  1       -1 0.72650914E-03 0.79652510E+02</pdfrwt>
<totfact> 0.26859421E+05</totfact>
</mgrwt>
</event>
<event>
 8      1 +5.0320763e-08 7.76374900e+01 7.81860800e-03 1.33589300e-01
        3 -1    0    0  501    0 +0.0000000000e+00 +0.0000000000e+00 +1.4348237533e+02 1.4348241088e+02 1.0100000000e-01 0.0000e+00 -1.0000e+00
       -4 -1    0    0    0  501 -0.0000000000e+00 -0.0000000000e+00 -1.0461066805e+01 1.0537875436e+01 1.2700000000e+00 0.0000e+00 1.0000e+00
      -24  2    1    2    0    0 +8.8817841970e-16 -3.5527136788e-15 +1.3302130852e+02 1.5402028631e+02 7.7637491423e+01 0.0000e+00 0.0000e+00
       66  2    3    3    0    0 +7.2169312196e+00 -3.1521676160e+01 +6.3166102212e+01 7.7043269113e+01 3.0000144712e+01 0.0000e+00 0.0000e+00
       13  1    3    3    0    0 -7.2169312196e+00 +3.1521676160e+01 +6.9855206312e+01 7.6977017200e+01 1.0566000000e-01 0.0000e+00 -1.0000e+00
       13  1    4    4    0    0 -3.9792208474e+00 -2.6502440546e-01 +1.9781816269e+01 2.0180085615e+01 1.0566000000e-01 0.0000e+00 -1.0000e+00
      -13  1    4    4    0    0 +3.5175127186e+00 -2.2016140666e+01 +1.7558436049e+01 2.8379450066e+01 1.0566000000e-01 0.0000e+00 1.0000e+00
      -14  1    4    4    0    0 +7.6786393484e+00 -9.2405110883e+00 +2.5825849894e+01 2.8483733431e+01 0.0000000000e+00 0.0000e+00 1.0000e+00
<mgrwt>
<rscale>  0 0.77637491E+02</rscale>
<asrwt>0</asrwt>
<pdfrwt beam="1">  1        3 0.22074252E-01 0.77637491E+02</pdfrwt>
<pdfrwt beam="2">  1       -4 0.16157356E-02 0.77637491E+02</pdfrwt>
<totfact> 0.43017419E+04</totfact>
</mgrwt>
</event>
<event>
 8      1 +5.0320763e-08 8.20336100e+01 7.81860800e-03 1.32337700e-01
        4 -1    0    0  501    0 +0.0000000000e+00 +0.0000000000e+00 +4.0558245168e+01 4.0578124046e+01 1.2700000000e+00 0.0000e+00 -1.0000e+00
       -1 -1    0    0    0  501 -0.0000000000e+00 -0.0000000000e+00 -4.1460448668e+01 4.1460448974e+01 5.0400000000e-03 0.0000e+00 1.0000e+00
       24  2    1    2    0    0 -3.5527136788e-15 +0.0000000000e+00 -9.0220350005e-01 8.2038573020e+01 8.2033611965e+01 0.0000e+00 0.0000e+00
       66  2    3    3    0    0 -2.1634239809e+01 -4.6103586603e+00 +2.7296122880e+01 4.6199313629e+01 3.0000041940e+01 0.0000e+00 0.0000e+00
      -13  1    3    3    0    0 +2.1634239809e+01 +4.6103586603e+00 -2.8198326380e+01 3.5839259392e+01 1.0566000000e-01 0.0000e+00 1.0000e+00
       13  1    4    4    0    0 -1.3670104215e+01 -7.9665175173e+00 +6.7178932420e+00 1.7189485282e+01 1.0566000000e-01 0.0000e+00 -1.0000e+00
      -13  1    4    4    0    0 -4.6590285119e+00 -5.5366579792e+00 +1.0680108610e+00 7.3152538908e+00 1.0566000000e-01 0.0000e+00 1.0000e+00
       14  1    4    4    0    0 -3.3051070819e+00 +8.8928168362e+00 +1.9510218777e+01 2.1694574456e+01 0.0000000000e+00 0.0000e+00 -1.0000e+00
<mgrwt>
<rscale>  0 0.82033612E+02</rscale>
<asrwt>0</asrwt>
<pdfrwt beam="1">  1        4 0.62427554E-02 0.82033612E+02</pdfrwt>
<pdfrwt beam="2">  1       -1 0.63785306E-02 0.82033612E+02</pdfrwt>
<totfact> 0.62240858E+04</totfact>
</mgrwt>
</event>
<event>
 8      1 +5.0320763e-08 7.95258800e+01 7.81860800e-03 1.33040200e-01
       -1 -1    0    0    0  501 -0.0000000000e+00 +0.0000000000e+00 +1.4088972689e+01 1.4088973590e+01 5.0400000000e-03 0.0000e+00 1.0000e+00
        2 -1    0    0  501    0 +0.0000000000e+00 -0.0000000000e+00 -1.1222190743e+02 1.1222190746e+02 2.5500000000e-03 0.0000e+00 -1.0000e+00
       24  2    1    2    0    0 +2.2204460493e-16 +3.5527136788e-15 -9.8132934743e+01 1.2631088105e+02 7.9525881262e+01 0.0000e+00 0.0000e+00
       66  2    3    3    0    0 -1.3946516914e+00 +3.0657144013e+01 -7.9676057472e+01 9.0499248653e+01 3.0000572331e+01 0.0000e+00 0.0000e+00
      -13  1    3    3    0    0 +1.3946516914e+00 -3.0657144013e+01 -1.8456877271e+01 3.5811632398e+01 1.0566000000e-01 0.0000e+00 1.0000e+00
       13  1    4    4    0    0 -1.1597346032e+00 +5.7342564007e+00 -1.3360317014e+00 6.0019018287e+00 1.0566000000e-01 0.0000e+00 1.0000e+00
      -13  1    4    4    0    0 -8.1400913351e+00 +1.0382260005e+01 -2.0860306442e+01 2.4682300514e+01 1.0566000000e-01 0.0000e+00 -1.0000e+00
       14  1    4    4    0    0 +7.9051742469e+00 +1.4540627607e+01 -5.7479719328e+01 5.9815046310e+01 0.0000000000e+00 0.0000e+00 -1.0000e+00
<mgrwt>
<rscale>  0 0.79525881E+02</rscale>
<asrwt>0</asrwt>
<pdfrwt beam="1">  1        2 0.17264908E-01 0.79525881E+02</pdfrwt>
<pdfrwt beam="2">  1       -1 0.21675344E-02 0.79525881E+02</pdfrwt>
<totfact> 0.18613171E+05</totfact>
</mgrwt>
</event>
<event>
 8      1 +5.0320763e-08 7.93079700e+01 7.81860800e-03 1.33102700e-01
       -4 -1    0    0    0  501 -0.0000000000e+00 +0.0000000000e+00 +2.4508474351e+02 2.4508803398e+02 1.2700000000e+00 0.0000e+00 1.0000e+00
        3 -1    0    0  501    0 +0.0000000000e+00 -0.0000000000e+00 -6.4138016147e+00 6.4145968036e+00 1.0100000000e-01 0.0000e+00 -1.0000e+00
      -24  2    1    2    0    0 +0.0000000000e+00 +0.0000000000e+00 +2.3867094190e+02 2.5150263079e+02 7.9307974297e+01 0.0000e+00 0.0000e+00
       66  2    3    3    0    0 +5.5652525059e+00 -2.8774902605e+01 +1.9093885392e+02 1.9549075310e+02 3.0000359266e+01 0.0000e+00 0.0000e+00
       13  1    3    3    0    0 -5.5652525059e+00 +2.8774902605e+01 +4.7732087978e+01 5.6011877688e+01 1.0566000000e-01 0.0000e+00 -1.0000e+00
       13  1    4    4    0    0 -4.5499580840e-01 -2.6411504103e+01 +8.0788050803e+01 8.4997028694e+01 1.0566000000e-01 0.0000e+00 -1.0000e+00
      -13  1    4    4    0    0 +7.3954384276e-01 -2.6311205801e+00 +6.0582306321e+01 6.0644016389e+01 1.0566000000e-01 0.0000e+00 1.0000e+00
       14  1    4    4    0    0 +5.2807044716e+00 +2.6772207817e-01 +4.9568496794e+01 4.9849708016e+01 0.0000000000e+00 0.0000e+00 -1.0000e+00
<mgrwt>
<rscale>  0 0.79307974E+02</rscale>
<asrwt>0</asrwt>
<pdfrwt beam="1">  1        3 0.98680154E-03 0.79307974E+02</pdfrwt>
<pdfrwt beam="2">  1       -4 0.37715268E-01 0.79307974E+02</pdfrwt>
<totfact> 0.30909209E+04</totfact>
</mgrwt>
</event>
<event>
 8      1 +5.0320763e-08 7.92975800e+01 7.81860800e-03 1.33105700e-01
        2 -1    0    0  501    0 +0.0000000000e+00 +0.0000000000e+00 +1.4386965999e+02 1.4386966001e+02 2.5500000000e-03 0.0000e+00 -1.0000e+00
       -1 -1    0    0    0  501 -0.0000000000e+00 -0.0000000000e+00 -1.0926739984e+01 1.0926741146e+01 5.0400000000e-03 0.0000e+00 1.0000e+00
       24  2    1    2    0    0 +0.0000000000e+00 -3.5527136788e-15 +1.3294292000e+02 1.5479640116e+02 7.9297577719e+01 0.0000e+00 0.0000e+00
       66  2    3    3    0    0 +1.6468306105e+01 +1.9405581651e+01 +1.1991569898e+02 1.2620442052e+02 2.9999986519e+01 0.0000e+00 0.0000e+00
      -13  1    3    3    0    0 -1.6468306105e+01 -1.9405581651e+01 +1.3027221023e+01 2.8591980638e+01 1.0566000000e-01 0.0000e+00 1.0000e+00
       13  1    4    4    0    0 +1.7122252862e+01 +1.7911444982e+01 +8.0730553104e+01 8.4447763576e+01 1.0566000000e-01 0.0000e+00 -1.0000e+00
      -13  1    4    4    0    0 -2.5190675708e-02 -1.4420667636e+00 -8.0420900289e-01 1.6547227190e+00 1.0566000000e-01 0.0000e+00 1.0000e+00
      -14  1    4    4    0    0 -6.2875608075e-01 +2.9362034331e+00 +3.9989354880e+01 4.0101934224e+01 0.0000000000e+00 0.0000e+00 1.0000e+00
<mgrwt>
<rscale>  0 0.79297578E+02</rscale>
<asrwt>0</asrwt>
<pdfrwt beam="1">  1        2 0.22133794E-01 0.79297578E+02</pdfrwt>
<pdfrwt beam="2">  1       -1 0.16810370E-02 0.79297578E+02</pdfrwt>
<totfact> 0.20232295E+05</totfact>
</mgrwt>
</event>
<event>
 8      1 +5.0320763e-08 7.95850600e+01 7.81860800e-03 1.33023300e-01
        2 -1    0    0  501    0 +0.0000000000e+00 +0.0000000000e+00 +3.9729572187e+02 3.9729572188e+02 2.5500000000e-03 0.0000e+00 -1.0000e+00
       -1 -1    0    0    0  501 -0.0000000000e+00 -0.0000000000e+00 -3.9855575210e+00 3.9855607077e+00 5.0400000000e-03 0.0000e+00 1.0000e+00
       24  2    1    2    0    0 +3.5527136788e-15 -1.7763568394e-15 +3.9331016435e+02 4.0128128259e+02 7.9585063759e+01 0.0000e+00 0.0000e+00
       66  2    3    3    0    0 -2.7044506914e+01 +1.5443513937e+01 +2.9509918078e+02 2.9825062727e+02 3.0000044895e+01 0.0000e+00 0.0000e+00
      -13  1    3    3    0    0 +2.7044506914e+01 -1.5443513937e+01 +9.8210983568e+01 1.0303065531e+02 1.0566000000e-01 0.0000e+00 1.0000e+00
       13  1    4    4    0    0 -1.2266538184e+01 -5.6914206593e+00 +8.3364447293e+01 8.4454144153e+01 1.0566000000e-01 0.0000e+00 -1.0000e+00
      -13  1    4    4    0    0 -2.7258565770e+00 +6.3451531546e+00 +2.0926461514e+01 2.2036769685e+01 1.0566000000e-01 0.0000e+00 1.0000e+00
      -14  1    4    4    0    0 -1.2052112153e+01 +1.4789781442e+01 +1.9080827197e+02 1.9175971343e+02 0.0000000000e+00 0.0000e+00 1.0000e+00
<mgrwt>
<rscale>  0 0.79585064E+02</rscale>
<asrwt>0</asrwt>
<pdfrwt beam="1">  1        2 0.61122397E-01 0.79585064E+02</pdfrwt>
<pdfrwt beam="2">  1       -1 0.61316316E-03 0.79585064E+02</pdfrwt>
<totfact> 0.28572066E+05</totfact>
</mgrwt>
</event>
<event>
 8      1 +5.0320763e-08 7.72261700e+01 7.81860800e-03 1.33711300e-01
       -2 -1    0    0    0  501 -0.0000000000e+00 +0.0000000000e+00 +1.3159917466e+01 1.3159917713e+01 2.5500000000e-03 0.0000e+00 1.0000e+00
        1 -1    0    0  501    0 +0.0000000000e+00 -0.0000000000e+00 -1.1329633021e+02 1.1329633032e+02 5.0400000000e-03 0.0000e+00 -1.0000e+00
      -24  2    1    2    0    0 +1.7763568394e-15 +0.0000000000e+00 -1.0013641275e+02 1.2645624804e+02 7.7226171146e+01 0.0000e+00 0.0000e+00
       66  2    3    3    0    0 +1.3352434782e+01 +1.9292463440e+01 -9.5122031930e+01 1.0246371088e+02 3.0002073740e+01 0.0000e+00 0.0000e+00
       13  1    3    3    0    0 -1.3352434782e+01 -1.9292463440e+01 -5.0143808154e+00 2.3992537156e+01 1.0566000000e-01 0.0000e+00 -1.0000e+00
       13  1    4    4    0    0 -2.7009495657e+00 -2.1819547963e+00 -2.3403112092e+01 2.3659519752e+01 1.0566000000e-01 0.0000e+00 -1.0000e+00
      -13  1    4    4    0    0 -7.1900110322e-01 +1.3198972312e+01 -3.8170528110e+01 4.0394680503e+01 1.0566000000e-01 0.0000e+00 1.0000e+00
      -14  1    4    4    0    0 +1.6772385451e+01 +8.2754459243e+00 -3.3548391728e+01 3.8409510625e+01 0.0000000000e+00 0.0000e+00 1.0000e+00
<mgrwt>
<rscale>  0 0.77226171E+02</rscale>
<asrwt>0</asrwt>
<pdfrwt beam="1">  1        1 0.17430204E-01 0.77226171E+02</pdfrwt>
<pdfrwt beam="2">  1       -2 0.20246028E-02 0.77226171E+02</pdfrwt>
<totfact> 0.16508448E+05</totfact>
</mgrwt>
</event>
<event>
 8      1 +5.0320763e-08 8.00723100e+01 7.81860800e-03 1.32884600e-01
        2 -1    0    0  501    0 +0.0000000000e+00 +0.0000000000e+00 +4.5492565029e+02 4.5492565030e+02 2.5500000000e-03 0.0000e+00 -1.0000e+00
       -1 -1    0    0    0  501 -0.0000000000e+00 -0.0000000000e+00 -3.5234173301e+00 3.5234209347e+00 5.0400000000e-03 0.0000e+00 1.0000e+00
       24  2    1    2    0    0 +0.0000000000e+00 -3.5527136788e-15 +4.5140223296e+02 4.5844907124e+02 8.0072311021e+01 0.0000e+00 0.0000e+00
       66  2    3    3    0    0 -1.3478486542e+01 +2.5914813813e+01 +3.6158369737e+02 3.6399999673e+02 2.9999670704e+01 0.0000e+00 0.0000e+00
      -13  1    3    3    0    0 +1.3478486542e+01 -2.5914813813e+01 +8.9818535592e+01 9.4449074503e+01 1.0566000000e-01 0.0000e+00 1.0000e+00
       13  1    4    4    0    0 -8.2366164229e+00 +1.8929354233e+00 +2.6805094034e+01 2.8106036448e+01 1.0566000000e-01 0.0000e+00 -1.0000e+00
      -13  1    4    4    0    0 +5.7649720269e-01 +7.0162341429e+00 +4.3938529898e+01 4.4499050150e+01 1.0566000000e-01 0.0000e+00 1.0000e+00
       14  1    4    4    0    0 -5.8183673216e+00 +1.7005644247e+01 +2.9084007344e+02 2.9139491013e+02 0.0000000000e+00 0.0000e+00 -1.0000e+00
<mgrwt>
<rscale>  0 0.80072311E+02</rscale>
<asrwt>0</asrwt>
<pdfrwt beam="1">  1        2 0.69988570E-01 0.80072311E+02</pdfrwt>
<pdfrwt beam="2">  1       -1 0.54206442E-03 0.80072311E+02</pdfrwt>
<totfact> 0.29456430E+05</totfact>
</mgrwt>
</event>
<event>
 8      1 +5.0320763e-08 7.91171600e+01 7.81860800e-03 1.33157600e-01
       -1 -1    0    0    0  501 -0.0000000000e+00 +0.0000000000e+00 +1.1332197154e+01 1.1332198274e+01 5.0400000000e-03 0.0000e+00 1.0000e+00
        2 -1    0    0  501    0 +0.0000000000e+00 -0.0000000000e+00 -1.3809158774e+02 1.3809158777e+02 2.5500000000e-03 0.0000e+00 -1.0000e+00
       24  2    1    2    0    0 +3.5527136788e-15 -3.5527136788e-15 -1.2675939059e+02 1.4942378604e+02 7.9117158267e+01 0.0000e+00 0.0000e+00
       66  2    3    3    0    0 -1.9583728350e+01 +1.7830899899e+01 -1.1236707836e+02 1.1928057416e+02 3.0000527750e+01 0.0000e+00 0.0000e+00
      -13  1    3    3    0    0 +1.9583728350e+01 -1.7830899899e+01 -1.4392312231e+01 3.0143211884e+01 1.0566000000e-01 0.0000e+00 1.0000e+00
       13  1    4    4    0    0 -1.9344066472e+01 +4.3148174709e+00 -3.6059795110e+01 4.1147667550e+01 1.0566000000e-01 0.0000e+00 -1.0000e+00
      -13  1    4    4    0    0 -1.9546564314e+00 +1.4375927638e+01 -6.0785326289e+01 6.2492839857e+01 1.0566000000e-01 0.0000e+00 1.0000e+00
       14  1    4    4    0    0 +1.7149945530e+00 -8.5984521033e-01 -1.5521956960e+01 1.5640066751e+01 0.0000000000e+00 0.0000e+00 -1.0000e+00
<mgrwt>
<rscale>  0 0.79117158E+02</rscale>
<asrwt>0</asrwt>
<pdfrwt beam="1">  1        2 0.21244858E-01 0.79117158E+02</pdfrwt>
<pdfrwt beam="2">  1       -1 0.17434151E-02 0.79117158E+02</pdfrwt>
<totfact> 0.20093319E+05</totfact>
</mgrwt>
</event>
<event>
 8      1 +5.0320763e-08 7.91513100e+01 7.81860800e-03 1.33147700e-01
       -1 -1    0    0    0  501 -0.0000000000e+00 +0.0000000000e+00 +8.6523954695e+00 8.6523969374e+00 5.0400000000e-03 0.0000e+00 1.0000e+00
        2 -1    0    0  501    0 +0.0000000000e+00 -0.0000000000e+00 -1.8101717335e+02 1.8101717337e+02 2.5500000000e-03 0.0000e+00 -1.0000e+00
       24  2    1    2    0    0 +0.0000000000e+00 -9.4368957093e-16 -1.7236477788e+02 1.8966957031e+02 7.9151306029e+01 0.0000e+00 0.0000e+00
       66  2    3    3    0    0 +3.3428126071e+01 -3.9613077977e-01 -1.1189392465e+02 1.2057303069e+02 3.0000147070e+01 0.0000e+00 0.0000e+00
      -13  1    3    3    0    0 -3.3428126071e+01 +3.9613077977e-01 -6.0470853232e+01 6.9096539616e+01 1.0566000000e-01 0.0000e+00 1.0000e+00
       13  1    4    4    0    0 +9.2834482111e+00 +2.9599886836e+00 -1.6886676929e+01 1.9496537268e+01 1.0566000000e-01 0.0000e+00 -1.0000e+00
      -13  1    4    4    0    0 +9.6185869927e+00 +5.2903960399e+00 -1.1591065931e+01 1.5964632143e+01 1.0566000000e-01 0.0000e+00 1.0000e+00
      -14  1    4    4    0    0 +1.4526090868e+01 -8.6465155033e+00 -8.3416181790e+01 8.5111861281e+01 0.0000000000e+00 0.0000e+00 1.0000e+00
<mgrwt>
<rscale>  0 0.79151306E+02</rscale>
<asrwt>0</asrwt>
<pdfrwt beam="1">  1        2 0.27848793E-01 0.79151306E+02</pdfrwt>
<pdfrwt beam="2">  1       -1 0.13311380E-02 0.79151306E+02</pdfrwt>
<totfact> 0.21924347E+05</totfact>
</mgrwt>
</event>
<event>
 8      1 +5.0320763e-08 7.97124100e+01 7.81860800e-03 1.32987000e-01
       -1 -1    0    0    0  501 -0.0000000000e+00 +0.0000000000e+00 +6.2948330020e+01 6.2948330222e+01 5.0400000000e-03 0.0000e+00 1.0000e+00
        2 -1    0    0  501    0 +0.0000000000e+00 -0.0000000000e+00 -2.5235251512e+01 2.5235251641e+01 2.5500000000e-03 0.0000e+00 -1.0000e+00
       24  2    1    2    0    0 +0.0000000000e+00 +0.0000000000e+00 +3.7713078508e+01 8.8183581862e+01 7.9712406936e+01 0.0000e+00 0.0000e+00
       66  2    3    3    0    0 -2.0877974086e+01 +9.1106497351e+00 -6.7096489566e+00 3.8260805297e+01 2.9999601536e+01 0.0000e+00 0.0000e+00
      -13  1    3    3    0    0 +2.0877974086e+01 -9.1106497351e+00 +4.4422727465e+01 4.9922776565e+01 1.0566000000e-01 0.0000e+00 1.0000e+00
       13  1    4    4    0    0 -1.0878579727e+00 -7.9365411529e-01 +1.2905889830e+00 1.8681824809e+00 1.0566000000e-01 0.0000e+00 -1.0000e+00
      -13  1    4    4    0    0 -2.1466362063e+01 +4.7813045573e-01 +3.1436245754e+00 2.1700849026e+01 1.0566000000e-01 0.0000e+00 1.0000e+00
       14  1    4    4    0    0 +1.6762459491e+00 +9.4261733946e+00 -1.1143862515e+01 1.4691773790e+01 0.0000000000e+00 0.0000e+00 -1.0000e+00
<mgrwt>
<rscale>  0 0.79712407E+02</rscale>
<asrwt>0</asrwt>
<pdfrwt beam="1">  1        2 0.38823464E-02 0.79712407E+02</pdfrwt>
<pdfrwt beam="2">  1       -1 0.96843585E-02 0.79712407E+02</pdfrwt>
<totfact> 0.13137571E+05</totfact>
</mgrwt>
</event>
<event>
 8      1 +5.0320763e-08 8.18040200e+01 7.81860800e-03 1.32400800e-01
        1 -1    0    0  501    0 +0.0000000000e+00 +0.0000000000e+00 +2.9536183423e+01 2.9536183853e+01 5.0400000000e-03 0.0000e+00 -1.0000e+00
       -2 -1    0    0    0  501 -0.0000000000e+00 -0.0000000000e+00 -5.6641519685e+01 5.6641519742e+01 2.5500000000e-03 0.0000e+00 1.0000e+00
      -24  2    1    2    0    0 +3.5527136788e-15 +0.0000000000e+00 -2.7105336262e+01 8.6177703595e+01 8.1804017890e+01 0.0000e+00 0.0000e+00
       66  2    3    3    0    0 -3.1301696738e+01 +1.1775840940e+01 -3.1458252023e+00 4.5037261415e+01 2.9999867517e+01 0.0000e+00 0.0000e+00
       13  1    3    3    0    0 +3.1301696738e+01 -1.1775840940e+01 -2.3959511060e+01 4.1140442180e+01 1.0566000000e-01 0.0000e+00 -1.0000e+00
       13  1    4    4    0    0 -5.0166627825e+00 +1.2795769377e+01 +2.1162488446e-01 1.3746074660e+01 1.0566000000e-01 0.0000e+00 -1.0000e+00
      -13  1    4    4    0    0 -5.8547355156e+00 +6.9844861551e+00 -1.8254486743e+00 9.2953968020e+00 1.0566000000e-01 0.0000e+00 1.0000e+00
       14  1    4    4    0    0 -2.0430298440e+01 -8.0044145929e+00 -1.5320014125e+00 2.1995789953e+01 0.0000000000e+00 0.0000e+00 -1.0000e+00
<mgrwt>
<rscale>  0 0.81804018E+02</rscale>
<asrwt>0</asrwt>
<pdfrwt beam="1">  1        1 0.45440283E-02 0.81804018E+02</pdfrwt>
<pdfrwt beam="2">  1       -2 0.87140799E-02 0.81804018E+02</pdfrwt>
<totfact> 0.11309930E+05</totfact>
</mgrwt>
</event>
<event>
 8      1 +5.0320763e-08 7.86842100e+01 7.81860800e-03 1.33282700e-01
       -3 -1    0    0    0  501 -0.0000000000e+00 +0.0000000000e+00 +1.1418438868e+02 1.1418443335e+02 1.0100000000e-01 0.0000e+00 1.0000e+00
        4 -1    0    0  501    0 +0.0000000000e+00 -0.0000000000e+00 -1.3521967055e+01 1.3581476100e+01 1.2700000000e+00 0.0000e+00 -1.0000e+00
       24  2    1    2    0    0 -8.8817841970e-16 +0.0000000000e+00 +1.0066242163e+02 1.2776590945e+02 7.8684207373e+01 0.0000e+00 0.0000e+00
       66  2    3    3    0    0 +7.4096145262e+00 -2.3265040165e+01 +2.0111894001e+01 4.3596062437e+01 2.9999398301e+01 0.0000e+00 0.0000e+00
      -13  1    3    3    0    0 -7.4096145262e+00 +2.3265040165e+01 +8.0550527625e+01 8.4169847012e+01 1.0566000000e-01 0.0000e+00 1.0000e+00
       13  1    4    4    0    0 +9.4690956453e+00 -4.6654470340e+00 +1.0627362990e+01 1.4979391727e+01 1.0566000000e-01 0.0000e+00 -1.0000e+00
      -13  1    4    4    0    0 +6.8952801107e+00 -1.2121051851e+01 +1.0587547315e+01 1.7509200666e+01 1.0566000000e-01 0.0000e+00 1.0000e+00
       14  1    4    4    0    0 -8.9547612298e+00 -6.4785412804e+00 -1.1030163045e+00 1.1107470044e+01 0.0000000000e+00 0.0000e+00 -1.0000e+00
<mgrwt>
<rscale>  0 0.78684207E+02</rscale>
<asrwt>0</asrwt>
<pdfrwt beam="1">  1        4 0.20854234E-02 0.78684207E+02</pdfrwt>
<pdfrwt beam="2">  1       -3 0.17566862E-01 0.78684207E+02</pdfrwt>
<totfact> 0.43600870E+04</totfact>
</mgrwt>
</event>
<event>
 8      1 +5.0320763e-08 8.02865100e+01 7.81860800e-03 1.32824000e-01
        2 -1    0    0  501    0 +0.0000000000e+00 +0.0000000000e+00 +1.1601702797e+02 1.1601702800e+02 2.5500000000e-03 0.0000e+00 -1.0000e+00
       -1 -1    0    0    0  501 -0.0000000000e+00 -0.0000000000e+00 -1.3890038005e+01 1.3890038920e+01 5.0400000000e-03 0.0000e+00 1.0000e+00
       24  2    1    2    0    0 +0.0000000000e+00 +0.0000000000e+00 +1.0212698996e+02 1.2990706692e+02 8.0286511668e+01 0.0000e+00 0.0000e+00
       66  2    3    3    0    0 +3.3025993546e+01 -1.0037206182e+01 +6.0123688827e+01 7.5540255091e+01 3.0000173722e+01 0.0000e+00 0.0000e+00
      -13  1    3    3    0    0 -3.3025993546e+01 +1.0037206182e+01 +4.2003301135e+01 5.4366811824e+01 1.0566000000e-01 0.0000e+00 1.0000e+00
       13  1    4    4    0    0 +6.6407966107e+00 +2.1876215694e+00 +1.1800362654e+01 1.3716617315e+01 1.0566000000e-01 0.0000e+00 -1.0000e+00
      -13  1    4    4    0    0 +2.0171578286e+01 +1.2876945062e+00 +3.9908752748e+01 4.4735561219e+01 1.0566000000e-01 0.0000e+00 1.0000e+00
       14  1    4    4    0    0 +6.2136186496e+00 -1.3512522258e+01 +8.4145734253e+00 1.7088076557e+01 0.0000000000e+00 0.0000e+00 -1.0000e+00
<mgrwt>
<rscale>  0 0.80286512E+02</rscale>
<asrwt>0</asrwt>
<pdfrwt beam="1">  1        2 0.17848774E-01 0.80286512E+02</pdfrwt>
<pdfrwt beam="2">  1       -1 0.21369289E-02 0.80286512E+02</pdfrwt>
<totfact> 0.18324237E+05</totfact>
</mgrwt>
</event>
<event>
 8      1 +5.0320763e-08 8.10262300e+01 7.81860800e-03 1.32616400e-01
       -2 -1    0    0    0  501 -0.0000000000e+00 +0.0000000000e+00 +4.7882023863e+01 4.7882023930e+01 2.5500000000e-03 0.0000e+00 1.0000e+00
        1 -1    0    0  501    0 +0.0000000000e+00 -0.0000000000e+00 -3.4278262475e+01 3.4278262846e+01 5.0400000000e-03 0.0000e+00 -1.0000e+00
      -24  2    1    2    0    0 +0.0000000000e+00 +0.0000000000e+00 +1.3603761387e+01 8.2160286776e+01 8.1026232785e+01 0.0000e+00 0.0000e+00
       66  2    3    3    0    0 +1.0693739494e+01 +3.3262288944e+01 +8.9233943981e+00 4.6909004114e+01 3.0001529449e+01 0.0000e+00 0.0000e+00
       13  1    3    3    0    0 -1.0693739494e+01 -3.3262288944e+01 +4.6803669890e+00 3.5251282662e+01 1.0566000000e-01 0.0000e+00 -1.0000e+00
       13  1    4    4    0    0 -8.1288930116e+00 +6.5262685836e+00 -1.1551283581e+00 1.0488878337e+01 1.0566000000e-01 0.0000e+00 -1.0000e+00
      -13  1    4    4    0    0 +1.4533213133e+01 +2.3581294062e+01 +3.4445182622e+00 2.7913573467e+01 1.0566000000e-01 0.0000e+00 1.0000e+00
       14  1    4    4    0    0 +4.2894193725e+00 +3.1547262982e+00 +6.6340044940e+00 8.5065523096e+00 0.0000000000e+00 0.0000e+00 -1.0000e+00
<mgrwt>
<rscale>  0 0.81026233E+02</rscale>
<asrwt>0</asrwt>
<pdfrwt beam="1">  1        1 0.52735789E-02 0.81026233E+02</pdfrwt>
<pdfrwt beam="2">  1       -2 0.73664652E-02 0.81026233E+02</pdfrwt>
<totfact> 0.11935362E+05</totfact>
</mgrwt>
</event>
<event>
 8      1 +5.0320763e-08 8.04584400e+01 7.81860800e-03 1.32775500e-01
        2 -1    0    0  501    0 +0.0000000000e+00 +0.0000000000e+00 +1.1844622052e+03 1.1844622052e+03 2.5500000000e-03 0.0000e+00 -1.0000e+00
       -1 -1    0    0    0  501 -0.0000000000e+00 -0.0000000000e+00 -1.3663454205e+00 1.3663547159e+00 5.0400000000e-03 0.0000e+00 1.0000e+00
       24  2    1    2    0    0 -1.7763568394e-15 +3.5527136788e-15 +1.1830958597e+03 1.1858285599e+03 8.0458437042e+01 0.0000e+00 0.0000e+00
       66  2    3    3    0    0 -1.4402725715e+01 -1.7364746165e+01 +1.0611268883e+03 1.0617906057e+03 3.0000739567e+01 0.0000e+00 0.0000e+00
      -13  1    3    3    0    0 +1.4402725715e+01 +1.7364746165e+01 +1.2196897145e+02 1.2403795419e+02 1.0566000000e-01 0.0000e+00 1.0000e+00
       13  1    4    4    0    0 -1.6500014833e+00 +2.7936374092e+00 +2.4476186689e+01 2.4690520321e+01 1.0566000000e-01 0.0000e+00 -1.0000e+00
      -13  1    4    4    0    0 +3.1354197028e+00 -6.9028132465e+00 +1.3558950124e+02 1.3580133909e+02 1.0566000000e-01 0.0000e+00 1.0000e+00
       14  1    4    4    0    0 -1.5888143935e+01 -1.3255570327e+01 +9.0106120036e+02 9.0129874628e+02 0.0000000000e+00 0.0000e+00 -1.0000e+00
<mgrwt>
<rscale>  0 0.80458437E+02</rscale>
<asrwt>0</asrwt>
<pdfrwt beam="1">  1        2 0.18222506E+00 0.80458437E+02</pdfrwt>
<pdfrwt beam="2">  1       -1 0.21020758E-03 0.80458437E+02</pdfrwt>
<totfact> 0.34568777E+05</totfact>
</mgrwt>
</event>
<event>
 8      1 +5.0320763e-08 8.19014600e+01 7.81860800e-03 1.32374000e-01
        1 -1    0    0  501    0 +0.0000000000e+00 +0.0000000000e+00 +1.4843042228e+02 1.4843042236e+02 5.0400000000e-03 0.0000e+00 -1.0000e+00
       -2 -1    0    0    0  501 -0.0000000000e+00 -0.0000000000e+00 -1.1297968209e+01 1.1297968497e+01 2.5500000000e-03 0.0000e+00 1.0000e+00
      -24  2    1    2    0    0 +1.7763568394e-15 -3.5527136788e-15 +1.3713245407e+02 1.5972839086e+02 8.1901458399e+01 0.0000e+00 0.0000e+00
       66  2    3    3    0    0 -1.4185987716e+01 +3.0608565725e+01 +5.6486467036e+01 7.2310355354e+01 2.9998999817e+01 0.0000e+00 0.0000e+00
       13  1    3    3    0    0 +1.4185987716e+01 -3.0608565725e+01 +8.0645987033e+01 8.7418035506e+01 1.0566000000e-01 0.0000e+00 -1.0000e+00
       13  1    4    4    0    0 -7.7313423410e+00 +1.2595516523e+01 +3.6517981952e+01 3.9395365981e+01 1.0566000000e-01 0.0000e+00 -1.0000e+00
      -13  1    4    4    0    0 -8.9101570863e+00 +1.5385192804e+00 +1.0091631150e+01 1.3550281332e+01 1.0566000000e-01 0.0000e+00 1.0000e+00
       14  1    4    4    0    0 +2.4555117114e+00 +1.6474529921e+01 +9.8768539338e+00 1.9364708041e+01 0.0000000000e+00 0.0000e+00 -1.0000e+00
<mgrwt>
<rscale>  0 0.81901458E+02</rscale>
<asrwt>0</asrwt>
<pdfrwt beam="1">  1        1 0.22835450E-01 0.81901458E+02</pdfrwt>
<pdfrwt beam="2">  1       -2 0.17381490E-02 0.81901458E+02</pdfrwt>
<totfact> 0.14797653E+05</totfact>
</mgrwt>
</event>
<event>
 8      1 +5.0320763e-08 7.75662500e+01 7.81860800e-03 1.33610300e-01
       -1 -1    0    0    0  501 -0.0000000000e+00 +0.0000000000e+00 +7.4633473267e+01 7.4633473437e+01 5.0400000000e-03 0.0000e+00 1.0000e+00
        2 -1    0    0  501    0 +0.0000000000e+00 -0.0000000000e+00 -2.0153566954e+01 2.0153567116e+01 2.5500000000e-03 0.0000e+00 -1.0000e+00
       24  2    1    2    0    0 +3.5527136788e-15 +0.0000000000e+00 +5.4479906313e+01 9.4787040553e+01 7.7566248233e+01 0.0000e+00 0.0000e+00
       66  2    3    3    0    0 +1.8010547717e+01 -1.3649293563e+01 +1.9584865740e+00 3.7610176882e+01 3.0000111526e+01 0.0000e+00 0.0000e+00
      -13  1    3    3    0    0 -1.8010547717e+01 +1.3649293563e+01 +5.2521419739e+01 5.7176863671e+01 1.0566000000e-01 0.0000e+00 1.0000e+00
       13  1    4    4    0    0 -1.2567067142e+00 -4.5042035160e+00 -4.7638450684e+00 6.6762672917e+00 1.0566000000e-01 0.0000e+00 -1.0000e+00
      -13  1    4    4    0    0 -3.6956533922e+00 +2.4483759808e+00 +1.5347469925e+00 4.6924419341e+00 1.0566000000e-01 0.0000e+00 1.0000e+00
       14  1    4    4    0    0 +2.2962907823e+01 -1.1593466028e+01 +5.1875846499e+00 2.6241467656e+01 0.0000000000e+00 0.0000e+00 -1.0000e+00
<mgrwt>
<rscale>  0 0.77566248E+02</rscale>
<asrwt>0</asrwt>
<pdfrwt beam="1">  1        2 0.31005488E-02 0.77566248E+02</pdfrwt>
<pdfrwt beam="2">  1       -1 0.11482073E-01 0.77566248E+02</pdfrwt>
<totfact> 0.13584412E+05</totfact>
</mgrwt>
</event>
<event>
 8      1 +5.0320763e-08 7.94681400e+01 7.81860800e-03 1.33056800e-01
        2 -1    0    0  501    0 +0.0000000000e+00 +0.0000000000e+00 +6.7134211181e+02 6.7134211181e+02 2.5500000000e-03 0.0000e+00 -1.0000e+00
       -1 -1    0    0    0  501 -0.0000000000e+00 -0.0000000000e+00 -2.3516990251e+00 2.3517044257e+00 5.0400000000e-03 0.0000e+00 1.0000e+00
       24  2    1    2    0    0 -3.5527136788e-15 +0.0000000000e+00 +6.6899041278e+02 6.7369381624e+02 7.9468142312e+01 0.0000e+00 0.0000e+00
       66  2    3    3    0    0 -1.8702082983e+01 -2.4157429110e+01 +5.1003445754e+02 5.1182857550e+02 2.9999892134e+01 0.0000e+00 0.0000e+00
      -13  1    3    3    0    0 +1.8702082983e+01 +2.4157429110e+01 +1.5895595524e+02 1.6186524074e+02 1.0566000000e-01 0.0000e+00 1.0000e+00
       13  1    4    4    0    0 -1.7365985140e+01 -1.2926560103e+01 +3.4737549627e+02 3.4804945047e+02 1.0566000000e-01 0.0000e+00 -1.0000e+00
      -13  1    4    4    0    0 -2.2334533816e+00 +2.4527795843e+00 +7.3203350869e+01 7.3278552006e+01 1.0566000000e-01 0.0000e+00 1.0000e+00
       14  1    4    4    0    0 +8.9735553856e-01 -1.3683648592e+01 +8.9455610398e+01 9.0500573023e+01 0.0000000000e+00 0.0000e+00 -1.0000e+00
<mgrwt>
<rscale>  0 0.79468142E+02</rscale>
<asrwt>0</asrwt>
<pdfrwt beam="1">  1        2 0.10328356E+00 0.79468142E+02</pdfrwt>
<pdfrwt beam="2">  1       -1 0.36179970E-03 0.79468142E+02</pdfrwt>
<totfact> 0.33702139E+05</totfact>
</mgrwt>
</event>
<event>
 8      1 +5.0320763e-08 7.83025300e+01 7.81860800e-03 1.33393900e-01
        2 -1    0    0  501    0 +0.0000000000e+00 +0.0000000000e+00 +4.6758381862e+01 4.6758381931e+01 2.5500000000e-03 0.0000e+00 -1.0000e+00
       -1 -1    0    0    0  501 -0.0000000000e+00 -0.0000000000e+00 -3.2781746418e+01 3.2781746805e+01 5.0400000000e-03 0.0000e+00 1.0000e+00
       24  2    1    2    0    0 +0.0000000000e+00 +0.0000000000e+00 +1.3976635444e+01 7.9540128736e+01 7.8302527041e+01 0.0000e+00 0.0000e+00
       66  2    3    3    0    0 +2.4215500274e+01 -5.2327767744e+00 +3.0774937108e+01 4.9607429073e+01 3.0000464312e+01 0.0000e+00 0.0000e+00
      -13  1    3    3    0    0 -2.4215500274e+01 +5.2327767744e+00 -1.6798301664e+01 2.9932699663e+01 1.0566000000e-01 0.0000e+00 1.0000e+00
       13  1    4    4    0    0 -3.3122072912e+00 -3.3356206318e+00 -1.6491591984e-01 4.7048319242e+00 1.0566000000e-01 0.0000e+00 -1.0000e+00
      -13  1    4    4    0    0 +1.4201562914e-01 +2.4097647943e+00 -9.9542171403e-01 2.6132667730e+00 1.0566000000e-01 0.0000e+00 1.0000e+00
       14  1    4    4    0    0 +2.7385691936e+01 -4.3069209370e+00 +3.1935274742e+01 4.2289330376e+01 0.0000000000e+00 0.0000e+00 -1.0000e+00
<mgrwt>
<rscale>  0 0.78302527E+02</rscale>
<asrwt>0</asrwt>
<pdfrwt beam="1">  1        2 0.71935972E-02 0.78302527E+02</pdfrwt>
<pdfrwt beam="2">  1       -1 0.50433456E-02 0.78302527E+02</pdfrwt>
<totfact> 0.15620822E+05</totfact>
</mgrwt>
</event>
<event>
 8      1 +5.0320763e-08 7.96163400e+01 7.81860800e-03 1.33014400e-01
        4 -1    0    0  501    0 +0.0000000000e+00 +0.0000000000e+00 +9.5202268134e+01 9.5210738668e+01 1.2700000000e+00 0.0000e+00 -1.0000e+00
       -3 -1    0    0    0  501 -0.0000000000e+00 -0.0000000000e+00 -1.6640354140e+01 1.6640660651e+01 1.0100000000e-01 0.0000e+00 1.0000e+00
       24  2    1    2    0    0 +0.0000000000e+00 -3.5527136788e-15 +7.8561913994e+01 1.1185139932e+02 7.9616337515e+01 0.0000e+00 0.0000e+00
       66  2    3    3    0    0 -7.2085809416e+00 +2.7505357947e+01 +7.1443327867e+01 8.2539391754e+01 3.0001562285e+01 0.0000e+00 0.0000e+00
      -13  1    3    3    0    0 +7.2085809416e+00 -2.7505357947e+01 +7.1185861273e+00 2.9312007565e+01 1.0566000000e-01 0.0000e+00 1.0000e+00
       13  1    4    4    0    0 -3.3268003665e+00 +1.1072254311e+01 +1.3781290392e+01 1.7988817224e+01 1.0566000000e-01 0.0000e+00 -1.0000e+00
      -13  1    4    4    0    0 -1.2787174544e+01 +4.1879877959e+00 +3.2630479363e+01 3.5296039751e+01 1.0566000000e-01 0.0000e+00 1.0000e+00
      -14  1    4    4    0    0 +8.9053939692e+00 +1.2245115840e+01 +2.5031558111e+01 2.9254534779e+01 0.0000000000e+00 0.0000e+00 1.0000e+00
<mgrwt>
<rscale>  0 0.79616338E+02</rscale>
<asrwt>0</asrwt>
<pdfrwt beam="1">  1        4 0.14650882E-01 0.79616338E+02</pdfrwt>
<pdfrwt beam="2">  1       -3 0.25600822E-02 0.79616338E+02</pdfrwt>
<totfact> 0.41419523E+04</totfact>
</mgrwt>
</event>
<event>
 8      1 +5.0320763e-08 8.08994500e+01 7.81860800e-03 1.32651800e-01
        2 -1    0    0  501    0 +0.0000000000e+00 +0.0000000000e+00 +1.1679032289e+02 1.1679032292e+02 2.5500000000e-03 0.0000e+00 -1.0000e+00
       -1 -1    0    0    0  501 -0.0000000000e+00 -0.0000000000e+00 -1.4009553821e+01 1.4009554728e+01 5.0400000000e-03 0.0000e+00 1.0000e+00
       24  2    1    2    0    0 -8.8817841970e-16 +0.0000000000e+00 +1.0278076907e+02 1.3079987765e+02 8.0899453039e+01 0.0000e+00 0.0000e+00
       66  2    3    3    0    0 -5.5943522358e+00 -3.3626235375e+01 +7.0459554332e+01 8.3824431204e+01 2.9999433121e+01 0.0000e+00 0.0000e+00
      -13  1    3    3    0    0 +5.5943522358e+00 +3.3626235375e+01 +3.2321214742e+01 4.6975446446e+01 1.0566000000e-01 0.0000e+00 1.0000e+00
       13  1    4    4    0    0 -8.0274276143e+00 -2.6194335479e+01 +3.4087353747e+01 4.3732615458e+01 1.0566000000e-01 0.0000e+00 -1.0000e+00
      -13  1    4    4    0    0 +3.7770332951e+00 -1.1446768652e+01 +3.0935153280e+01 3.3200743449e+01 1.0566000000e-01 0.0000e+00 1.0000e+00
       14  1    4    4    0    0 -1.3439579166e+00 +4.0148687555e+00 +5.4370473050e+00 6.8910722970e+00 0.0000000000e+00 0.0000e+00 -1.0000e+00
<mgrwt>
<rscale>  0 0.80899453E+02</rscale>
<asrwt>0</asrwt>
<pdfrwt beam="1">  1        2 0.17967743E-01 0.80899453E+02</pdfrwt>
<pdfrwt beam="2">  1       -1 0.21553160E-02 0.80899453E+02</pdfrwt>
<totfact> 0.17991132E+05</totfact>
</mgrwt>
</event>
<event>
 8      1 +5.0320763e-08 7.11117000e+01 7.81860800e-03 1.35635300e-01
        2 -1    0    0  501    0 +0.0000000000e+00 +0.0000000000e+00 +2.8072755435e+02 2.8072755436e+02 2.5500000000e-03 0.0000e+00 -1.0000e+00
       -1 -1    0    0    0  501 -0.0000000000e+00 -0.0000000000e+00 -4.5033635402e+00 4.5033663605e+00 5.0400000000e-03 0.0000e+00 1.0000e+00
       24  2    1    2    0    0 +1.7763568394e-15 +0.0000000000e+00 +2.7622419081e+02 2.8523092072e+02 7.1111704715e+01 0.0000e+00 0.0000e+00
       66  2    3    3    0    0 +1.0915663721e+01 +8.4881733855e+00 +2.6597569572e+02 2.6801919165e+02 3.0000259651e+01 0.0000e+00 0.0000e+00
      -13  1    3    3    0    0 -1.0915663721e+01 -8.4881733855e+00 +1.0248495091e+01 1.7211729069e+01 1.0566000000e-01 0.0000e+00 1.0000e+00
       13  1    4    4    0    0 +1.9039106615e+01 +1.0968284431e+01 +1.3767878880e+02 1.3942112786e+02 1.0566000000e-01 0.0000e+00 -1.0000e+00
      -13  1    4    4    0    0 -3.6147627798e+00 +4.4917539836e-02 +4.9601900741e+01 4.9733572652e+01 1.0566000000e-01 0.0000e+00 1.0000e+00
       14  1    4    4    0    0 -4.5086801143e+00 -2.5250285855e+00 +7.8695006174e+01 7.8864491138e+01 0.0000000000e+00 0.0000e+00 -1.0000e+00
<mgrwt>
<rscale>  0 0.71111705E+02</rscale>
<asrwt>0</asrwt>
<pdfrwt beam="1">  1        2 0.43188864E-01 0.71111705E+02</pdfrwt>
<pdfrwt beam="2">  1       -1 0.69282523E-03 0.71111705E+02</pdfrwt>
<totfact> 0.33833296E+05</totfact>
</mgrwt>
</event>
<event>
 8      1 +5.0320763e-08 7.97127500e+01 7.81860800e-03 1.32986900e-01
        1 -1    0    0  501    0 +0.0000000000e+00 +0.0000000000e+00 +6.5717632431e+02 6.5717632432e+02 5.0400000000e-03 0.0000e+00 -1.0000e+00
       -2 -1    0    0    0  501 -0.0000000000e+00 -0.0000000000e+00 -2.4172056566e+00 2.4172070017e+00 2.5500000000e-03 0.0000e+00 1.0000e+00
      -24  2    1    2    0    0 -3.5527136788e-15 -3.5527136788e-15 +6.5475911865e+02 6.5959353133e+02 7.9712753772e+01 0.0000e+00 0.0000e+00
       66  2    3    3    0    0 +1.8308103879e+01 +2.4434046988e+01 +5.0145441162e+02 5.0327797330e+02 2.9999702599e+01 0.0000e+00 0.0000e+00
       13  1    3    3    0    0 -1.8308103879e+01 -2.4434046988e+01 +1.5330470703e+02 1.5631555803e+02 1.0566000000e-01 0.0000e+00 -1.0000e+00
       13  1    4    4    0    0 +1.6669938639e+00 +1.6137574894e+01 +1.8189260813e+02 1.8261470983e+02 1.0566000000e-01 0.0000e+00 -1.0000e+00
      -13  1    4    4    0    0 +5.5250875038e+00 -4.7020623592e+00 +4.6138778659e+01 4.6705824503e+01 1.0566000000e-01 0.0000e+00 1.0000e+00
      -14  1    4    4    0    0 +1.1116022511e+01 +1.2998534454e+01 +2.7342302483e+02 2.7395743896e+02 0.0000000000e+00 0.0000e+00 1.0000e+00
<mgrwt>
<rscale>  0 0.79712754E+02</rscale>
<asrwt>0</asrwt>
<pdfrwt beam="1">  1        1 0.10110404E+00 0.79712754E+02</pdfrwt>
<pdfrwt beam="2">  1       -2 0.37187795E-03 0.79712754E+02</pdfrwt>
<totfact> 0.20200227E+05</totfact>
</mgrwt>
</event>
<event>
 8      1 +5.0320763e-08 8.07951700e+01 7.81860800e-03 1.32681000e-01
       -4 -1    0    0    0  501 -0.0000000000e+00 +0.0000000000e+00 +1.0824438965e+01 1.0898687027e+01 1.2700000000e+00 0.0000e+00 1.0000e+00
        3 -1    0    0  501    0 +0.0000000000e+00 -0.0000000000e+00 -1.5021400150e+02 1.5021403546e+02 1.0100000000e-01 0.0000e+00 -1.0000e+00
      -24  2    1    2    0    0 +0.0000000000e+00 +0.0000000000e+00 -1.3938956254e+02 1.6111272248e+02 8.0795168183e+01 0.0000e+00 0.0000e+00
       66  2    3    3    0    0 +5.9424584366e+00 -2.7423873364e+01 -3.8163524582e+01 5.6069381111e+01 2.9998987435e+01 0.0000e+00 0.0000e+00
       13  1    3    3    0    0 -5.9424584366e+00 +2.7423873364e+01 -1.0122603796e+02 1.0504334137e+02 1.0566000000e-01 0.0000e+00 -1.0000e+00
       13  1    4    4    0    0 -3.5626441676e+00 -3.2846996645e+00 -8.4183591598e-01 4.9195057776e+00 1.0566000000e-01 0.0000e+00 -1.0000e+00
      -13  1    4    4    0    0 +7.9970667203e+00 -2.6504530104e+01 -2.1423257853e+01 3.5005861413e+01 1.0566000000e-01 0.0000e+00 1.0000e+00
      -14  1    4    4    0    0 +1.5080358839e+00 +2.3653564053e+00 -1.5898430813e+01 1.6144013920e+01 0.0000000000e+00 0.0000e+00 1.0000e+00
<mgrwt>
<rscale>  0 0.80795168E+02</rscale>
<asrwt>0</asrwt>
<pdfrwt beam="1">  1        3 0.23109884E-01 0.80795168E+02</pdfrwt>
<pdfrwt beam="2">  1       -4 0.16714228E-02 0.80795168E+02</pdfrwt>
<totfact> 0.38171813E+04</totfact>
</mgrwt>
</event>
<event>
 8      1 +5.0320763e-08 8.31711400e+01 7.81860800e-03 1.32028600e-01
        3 -1    0    0  501    0 +0.0000000000e+00 +0.0000000000e+00 +2.1793363660e+02 2.1793366001e+02 1.0100000000e-01 0.0000e+00 -1.0000e+00
       -2 -1    0    0    0  501 -0.0000000000e+00 -0.0000000000e+00 -7.9352452089e+00 7.9352456186e+00 2.5500000000e-03 0.0000e+00 1.0000e+00
      -24  2    1    2    0    0 +0.0000000000e+00 +0.0000000000e+00 +2.0999839139e+02 2.2586890563e+02 8.3171137664e+01 0.0000e+00 0.0000e+00
       66  2    3    3    0    0 +1.6071891794e+01 +2.8578729772e+01 +7.7130586100e+01 8.9015281819e+01 2.9992392102e+01 0.0000e+00 0.0000e+00
       13  1    3    3    0    0 -1.6071891794e+01 -2.8578729772e+01 +1.3286780529e+02 1.3685362381e+02 1.0566000000e-01 0.0000e+00 -1.0000e+00
       13  1    4    4    0    0 +1.2674518366e+01 +1.3788944356e+01 +3.5032849162e+01 3.9725182022e+01 1.0566000000e-01 0.0000e+00 -1.0000e+00
      -13  1    4    4    0    0 -5.5273077206e+00 +1.3630842885e+00 +2.5589293396e+01 2.6215114533e+01 1.0566000000e-01 0.0000e+00 1.0000e+00
      -14  1    4    4    0    0 +8.9246811484e+00 +1.3426701127e+01 +1.6508443542e+01 2.3074985264e+01 0.0000000000e+00 0.0000e+00 1.0000e+00
<mgrwt>
<rscale>  0 0.83171138E+02</rscale>
<asrwt>0</asrwt>
<pdfrwt beam="1">  1        3 0.33528301E-01 0.83171138E+02</pdfrwt>
<pdfrwt beam="2">  1       -2 0.12208071E-02 0.83171138E+02</pdfrwt>
<totfact> 0.44097352E+04</totfact>
</mgrwt>
</event>
<event>
 8      1 +5.0320763e-08 8.15818600e+01 7.81860800e-03 1.32462100e-01
        1 -1    0    0  501    0 +0.0000000000e+00 +0.0000000000e+00 +5.5866852456e+00 5.5866875190e+00 5.0400000000e-03 0.0000e+00 -1.0000e+00
       -2 -1    0    0    0  501 -0.0000000000e+00 -0.0000000000e+00 -2.9783307336e+02 2.9783307337e+02 2.5500000000e-03 0.0000e+00 1.0000e+00
      -24  2    1    2    0    0 +0.0000000000e+00 +2.6645352591e-15 -2.9224638811e+02 3.0341976089e+02 8.1581860315e+01 0.0000e+00 0.0000e+00
       66  2    3    3    0    0 +1.6052394872e+01 +4.0881053228e+00 -2.8171262536e+02 2.8378908825e+02 2.9997522221e+01 0.0000e+00 0.0000e+00
       13  1    3    3    0    0 -1.6052394872e+01 -4.0881053228e+00 -1.0533762754e+01 1.9630672634e+01 1.0566000000e-01 0.0000e+00 -1.0000e+00
       13  1    4    4    0    0 +5.1151286093e+00 -6.4720175632e+00 -8.2776843351e+01 8.3186949164e+01 1.0566000000e-01 0.0000e+00 -1.0000e+00
      -13  1    4    4    0    0 +1.6160225496e+00 -6.1587595098e+00 -6.3873952510e+01 6.4190613184e+01 1.0566000000e-01 0.0000e+00 1.0000e+00
      -14  1    4    4    0    0 +9.3212437135e+00 +1.6718882396e+01 -1.3506182950e+02 1.3641152591e+02 0.0000000000e+00 0.0000e+00 1.0000e+00
<mgrwt>
<rscale>  0 0.81581860E+02</rscale>
<asrwt>0</asrwt>
<pdfrwt beam="1">  1        1 0.85949045E-03 0.81581860E+02</pdfrwt>
<pdfrwt beam="2">  1       -2 0.45820461E-01 0.81581860E+02</pdfrwt>
<totfact> 0.67064228E+04</totfact>
</mgrwt>
</event>
<event>
 8      1 +5.0320763e-08 7.77451500e+01 7.81860800e-03 1.33557500e-01
        3 -1    0    0  501    0 +0.0000000000e+00 +0.0000000000e+00 +7.1256162730e+01 7.1256234309e+01 1.0100000000e-01 0.0000e+00 -1.0000e+00
       -4 -1    0    0    0  501 -0.0000000000e+00 -0.0000000000e+00 -2.1181542287e+01 2.1219581374e+01 1.2700000000e+00 0.0000e+00 1.0000e+00
      -24  2    1    2    0    0 +3.5527136788e-15 +0.0000000000e+00 +5.0074620442e+01 9.2475815683e+01 7.7745153378e+01 0.0000e+00 0.0000e+00
       66  2    3    3    0    0 -2.2607104430e+01 -7.1771287716e+00 +1.3305722189e+00 3.8267091760e+01 3.0000125687e+01 0.0000e+00 0.0000e+00
       13  1    3    3    0    0 +2.2607104430e+01 +7.1771287716e+00 +4.8744048223e+01 5.4208723923e+01 1.0566000000e-01 0.0000e+00 -1.0000e+00
       13  1    4    4    0    0 -2.6088528140e+00 +2.7718279559e-01 +8.4994805791e+00 8.8958011139e+00 1.0566000000e-01 0.0000e+00 -1.0000e+00
      -13  1    4    4    0    0 -3.8494867601e+00 +5.9602598166e+00 -3.9823799690e+00 8.1371837666e+00 1.0566000000e-01 0.0000e+00 1.0000e+00
      -14  1    4    4    0    0 -1.6148764856e+01 -1.3414571384e+01 -3.1865283912e+00 2.1234106879e+01 0.0000000000e+00 0.0000e+00 1.0000e+00
<mgrwt>
<rscale>  0 0.77745153E+02</rscale>
<asrwt>0</asrwt>
<pdfrwt beam="1">  1        3 0.10962511E-01 0.77745153E+02</pdfrwt>
<pdfrwt beam="2">  1       -4 0.32624953E-02 0.77745153E+02</pdfrwt>
<totfact> 0.48096035E+04</totfact>
</mgrwt>
</event>
<event>
 8      1 +5.0320763e-08 8.32281800e+01 7.81860800e-03 1.32013200e-01
        1 -1    0    0  501    0 +0.0000000000e+00 +0.0000000000e+00 +2.2620467707e+01 2.2620468268e+01 5.0400000000e-03 0.0000e+00 -1.0000e+00
       -2 -1    0    0    0  501 -0.0000000000e+00 -0.0000000000e+00 -7.6555996486e+01 7.6555996529e+01 2.5500000000e-03 0.0000e+00 1.0000e+00
      -24  2    1    2    0    0 +0.0000000000e+00 +0.0000000000e+00 -5.3935528780e+01 9.9176464797e+01 8.3228179752e+01 0.0000e+00 0.0000e+00
       66  2    3    3    0    0 +1.8546851417e+01 -1.8537885676e+01 -6.0222421859e+01 7.2210280576e+01 2.9999093711e+01 0.0000e+00 0.0000e+00
       13  1    3    3    0    0 -1.8546851417e+01 +1.8537885676e+01 +6.2868930798e+00 2.6966184221e+01 1.0566000000e-01 0.0000e+00 -1.0000e+00
       13  1    4    4    0    0 -3.6223084175e+00 -1.3573703977e+01 -3.1215911777e+01 3.4231723153e+01 1.0566000000e-01 0.0000e+00 -1.0000e+00
      -13  1    4    4    0    0 +3.0876657235e+00 +2.5515281591e+00 -4.7464042888e+00 6.2115612590e+00 1.0566000000e-01 0.0000e+00 1.0000e+00
       14  1    4    4    0    0 +1.9081494111e+01 -7.5157098580e+00 -2.4260105793e+01 3.1766996164e+01 0.0000000000e+00 0.0000e+00 -1.0000e+00
<mgrwt>
<rscale>  0 0.83228180E+02</rscale>
<asrwt>0</asrwt>
<pdfrwt beam="1">  1        1 0.34800721E-02 0.83228180E+02</pdfrwt>
<pdfrwt beam="2">  1       -2 0.11777845E-01 0.83228180E+02</pdfrwt>
<totfact> 0.10200113E+05</totfact>
</mgrwt>
</event>
<event>
 8      1 +5.0320763e-08 8.09024500e+01 7.81860800e-03 1.32651000e-01
       -2 -1    0    0    0  501 -0.0000000000e+00 +0.0000000000e+00 +8.3913853504e+02 8.3913853505e+02 2.5500000000e-03 0.0000e+00 1.0000e+00
        1 -1    0    0  501    0 +0.0000000000e+00 -0.0000000000e+00 -1.9499746494e+00 1.9499811627e+00 5.0400000000e-03 0.0000e+00 -1.0000e+00
      -24  2    1    2    0    0 +0.0000000000e+00 +1.7763568394e-15 +8.3718856040e+02 8.4108851621e+02 8.0902450184e+01 0.0000e+00 0.0000e+00
       66  2    3    3    0    0 +2.4320679939e+01 -1.5005957818e+01 +6.8419384527e+02 6.8544768524e+02 3.0010615848e+01 0.0000e+00 0.0000e+00
       13  1    3    3    0    0 -2.4320679939e+01 +1.5005957818e+01 +1.5299471513e+02 1.5564083097e+02 1.0566000000e-01 0.0000e+00 -1.0000e+00
       13  1    4    4    0    0 +2.5028549700e+00 -9.5021752434e+00 +2.0278652601e+02 2.0302448600e+02 1.0566000000e-01 0.0000e+00 -1.0000e+00
      -13  1    4    4    0    0 +1.7377634251e+01 -4.5319595687e+00 +4.6632902486e+02 4.6667471693e+02 1.0566000000e-01 0.0000e+00 1.0000e+00
      -14  1    4    4    0    0 +4.4401907174e+00 -9.7182300627e-01 +1.5078294395e+01 1.5748482321e+01 0.0000000000e+00 0.0000e+00 1.0000e+00
<mgrwt>
<rscale>  0 0.80902450E+02</rscale>
<asrwt>0</asrwt>
<pdfrwt beam="1">  1        1 0.29999650E-03 0.80902450E+02</pdfrwt>
<pdfrwt beam="2">  1       -2 0.12909828E+00 0.80902450E+02</pdfrwt>
<totfact> 0.30729408E+04</totfact>
</mgrwt>
</event>
<event>
 8      1 +5.0320763e-08 7.86276400e+01 7.81860800e-03 1.33299200e-01
       -1 -1    0    0    0  501 -0.0000000000e+00 +0.0000000000e+00 +7.9135592719e+01 7.9135592880e+01 5.0400000000e-03 0.0000e+00 1.0000e+00
        2 -1    0    0  501    0 +0.0000000000e+00 -0.0000000000e+00 -1.9530736494e+01 1.9530736661e+01 2.5500000000e-03 0.0000e+00 -1.0000e+00
       24  2    1    2    0    0 -3.5527136788e-15 +0.0000000000e+00 +5.9604856225e+01 9.8666329541e+01 7.8627639539e+01 0.0000e+00 0.0000e+00
       66  2    3    3    0    0 -1.7368893870e+01 -2.1581723170e+01 +1.0303267768e+01 4.2114521102e+01 3.0000438525e+01 0.0000e+00 0.0000e+00
      -13  1    3    3    0    0 +1.7368893870e+01 +2.1581723170e+01 +4.9301588457e+01 5.6551808439e+01 1.0566000000e-01 0.0000e+00 1.0000e+00
       13  1    4    4    0    0 +4.4099858940e+00 -3.2240948251e+00 +3.4761700014e+00 6.4759312026e+00 1.0566000000e-01 0.0000e+00 -1.0000e+00
      -13  1    4    4    0    0 -5.7104468709e+00 +3.6233431441e+00 +4.8813795920e+00 8.3412738692e+00 1.0566000000e-01 0.0000e+00 1.0000e+00
       14  1    4    4    0    0 -1.6068432893e+01 -2.1980971489e+01 +1.9457181748e+00 2.7297316030e+01 0.0000000000e+00 0.0000e+00 -1.0000e+00
<mgrwt>
<rscale>  0 0.78627640E+02</rscale>
<asrwt>0</asrwt>
<pdfrwt beam="1">  1        2 0.30047287E-02 0.78627640E+02</pdfrwt>
<pdfrwt beam="2">  1       -1 0.12174707E-01 0.78627640E+02</pdfrwt>
<totfact> 0.12985614E+05</totfact>
</mgrwt>
</event>
<event>
 8      1 +5.0320763e-08 8.70022100e+01 7.81860800e-03 1.31027800e-01
        3 -1    0    0  501    0 +0.0000000000e+00 +0.0000000000e+00 +7.6694633753e+01 7.6694700257e+01 1.0100000000e-01 0.0000e+00 -1.0000e+00
       -4 -1    0    0    0  501 -0.0000000000e+00 -0.0000000000e+00 -2.4652126928e+01 2.4684818454e+01 1.2700000000e+00 0.0000e+00 1.0000e+00
      -24  2    1    2    0    0 +0.0000000000e+00 +3.5527136788e-15 +5.2042506825e+01 1.0137951871e+02 8.7002208578e+01 0.0000e+00 0.0000e+00
       66  2    3    3    0    0 -1.2542064520e+01 +3.0491681938e+01 +6.3399032684e+00 4.5025413397e+01 3.0000790461e+01 0.0000e+00 0.0000e+00
       13  1    3    3    0    0 +1.2542064520e+01 -3.0491681938e+01 +4.5702603556e+01 5.6354105313e+01 1.0566000000e-01 0.0000e+00 -1.0000e+00
       13  1    4    4    0    0 +6.8052292407e+00 +1.5724290783e+01 +7.5242874427e+00 1.8713378401e+01 1.0566000000e-01 0.0000e+00 -1.0000e+00
      -13  1    4    4    0    0 -1.3971268542e+01 +1.5019420888e+01 +9.1881676918e-01 2.0533746292e+01 1.0566000000e-01 0.0000e+00 1.0000e+00
       14  1    4    4    0    0 -5.3760252185e+00 -2.5202973285e-01 -2.1032009434e+00 5.7782887038e+00 0.0000000000e+00 0.0000e+00 -1.0000e+00
<mgrwt>
<rscale>  0 0.87002209E+02</rscale>
<asrwt>0</asrwt>
<pdfrwt beam="1">  1        3 0.11799196E-01 0.87002209E+02</pdfrwt>
<pdfrwt beam="2">  1       -4 0.37959584E-02 0.87002209E+02</pdfrwt>
<totfact> 0.34841708E+04</totfact>
</mgrwt>
</event>
<event>
 8      1 +5.0320763e-08 8.10941500e+01 7.81860800e-03 1.32597500e-01
        1 -1    0    0  501    0 +0.0000000000e+00 +0.0000000000e+00 +1.4411200768e+01 1.4411201649e+01 5.0400000000e-03 0.0000e+00 -1.0000e+00
       -2 -1    0    0    0  501 -0.0000000000e+00 -0.0000000000e+00 -1.1408246631e+02 1.1408246634e+02 2.5500000000e-03 0.0000e+00 1.0000e+00
      -24  2    1    2    0    0 +0.0000000000e+00 +0.0000000000e+00 -9.9671265546e+01 1.2849366799e+02 8.1094152306e+01 0.0000e+00 0.0000e+00
       66  2    3    3    0    0 -2.2129595337e+01 -8.9479126787e+00 -9.7210022678e+01 1.0449673045e+02 2.9999900561e+01 0.0000e+00 0.0000e+00
       13  1    3    3    0    0 +2.2129595337e+01 +8.9479126787e+00 -2.4612428683e+00 2.3996937546e+01 1.0566000000e-01 0.0000e+00 -1.0000e+00
       13  1    4    4    0    0 -8.9238470242e+00 +4.8388313605e+00 -2.1907082261e+01 2.4144994344e+01 1.0566000000e-01 0.0000e+00 -1.0000e+00
      -13  1    4    4    0    0 -9.3719945273e+00 +2.9416773301e+00 -1.7661063379e+01 2.0209207571e+01 1.0566000000e-01 0.0000e+00 1.0000e+00
      -14  1    4    4    0    0 -3.8337537854e+00 -1.6728421369e+01 -5.7641877038e+01 6.0142528531e+01 0.0000000000e+00 0.0000e+00 1.0000e+00
<mgrwt>
<rscale>  0 0.81094152E+02</rscale>
<asrwt>0</asrwt>
<pdfrwt beam="1">  1        1 0.22171080E-02 0.81094152E+02</pdfrwt>
<pdfrwt beam="2">  1       -2 0.17551148E-01 0.81094152E+02</pdfrwt>
<totfact> 0.99050700E+04</totfact>
</mgrwt>
</event>
<event>
 8      1 +5.0320763e-08 7.62369300e+01 7.81860800e-03 1.34008300e-01
       -1 -1    0    0    0  501 -0.0000000000e+00 +0.0000000000e+00 +3.6245487656e+00 3.6245522697e+00 5.0400000000e-03 0.0000e+00 1.0000e+00
        2 -1    0    0  501    0 +0.0000000000e+00 -0.0000000000e+00 -4.0088205934e+02 4.0088205935e+02 2.5500000000e-03 0.0000e+00 -1.0000e+00
       24  2    1    2    0    0 +0.0000000000e+00 -8.8817841970e-16 -3.9725751057e+02 4.0450661162e+02 7.6236927632e+01 0.0000e+00 0.0000e+00
       66  2    3    3    0    0 -1.7429027453e+01 +5.6981477635e+00 -3.6992907995e+02 3.7159621553e+02 2.9999722026e+01 0.0000e+00 0.0000e+00
      -13  1    3    3    0    0 +1.7429027453e+01 -5.6981477635e+00 -2.7328430625e+01 3.2910396083e+01 1.0566000000e-01 0.0000e+00 1.0000e+00
       13  1    4    4    0    0 -1.3289843210e+01 +6.7692253415e+00 -2.4408351321e+02 2.4453878001e+02 1.0566000000e-01 0.0000e+00 -1.0000e+00
      -13  1    4    4    0    0 -3.7897832172e+00 -3.1675870988e+00 -9.6379929540e+00 1.0830426450e+01 1.0566000000e-01 0.0000e+00 1.0000e+00
       14  1    4    4    0    0 -3.4940102569e-01 +2.0965095208e+00 -1.1620757379e+02 1.1622700908e+02 0.0000000000e+00 0.0000e+00 -1.0000e+00
<mgrwt>
<rscale>  0 0.76236928E+02</rscale>
<asrwt>0</asrwt>
<pdfrwt beam="1">  1        2 0.61674128E-01 0.76236928E+02</pdfrwt>
<pdfrwt beam="2">  1       -1 0.55762348E-03 0.76236928E+02</pdfrwt>
<totfact> 0.32057991E+05</totfact>
</mgrwt>
</event>
<event>
 8      1 +5.0320763e-08 8.07080200e+01 7.81860800e-03 1.32705400e-01
       -2 -1    0    0    0  501 -0.0000000000e+00 +0.0000000000e+00 +1.3258846597e+01 1.3258846842e+01 2.5500000000e-03 0.0000e+00 1.0000e+00
        1 -1    0    0  501    0 +0.0000000000e+00 -0.0000000000e+00 -1.2281959537e+02 1.2281959548e+02 5.0400000000e-03 0.0000e+00 -1.0000e+00
      -24  2    1    2    0    0 +1.7763568394e-15 +0.0000000000e+00 -1.0956074878e+02 1.3607844232e+02 8.0708021852e+01 0.0000e+00 0.0000e+00
       66  2    3    3    0    0 +8.5087552006e+00 +2.2232271267e+01 -1.9600523763e+01 4.3021867864e+01 3.0000463028e+01 0.0000e+00 0.0000e+00
       13  1    3    3    0    0 -8.5087552006e+00 -2.2232271267e+01 -8.9960225013e+01 9.3056574454e+01 1.0566000000e-01 0.0000e+00 -1.0000e+00
       13  1    4    4    0    0 -5.9955732079e+00 +1.3676208387e+01 -4.9125296435e+00 1.5720358948e+01 1.0566000000e-01 0.0000e+00 -1.0000e+00
      -13  1    4    4    0    0 +1.7065301102e+00 +9.5736271700e+00 -3.7069514081e+00 1.0407652712e+01 1.0566000000e-01 0.0000e+00 1.0000e+00
       14  1    4    4    0    0 +1.2797798298e+01 -1.0175642893e+00 -1.0981042712e+01 1.6893856203e+01 0.0000000000e+00 0.0000e+00 -1.0000e+00
<mgrwt>
<rscale>  0 0.80708022E+02</rscale>
<asrwt>0</asrwt>
<pdfrwt beam="1">  1        1 0.18895322E-01 0.80708022E+02</pdfrwt>
<pdfrwt beam="2">  1       -2 0.20398227E-02 0.80708022E+02</pdfrwt>
<totfact> 0.14872090E+05</totfact>
</mgrwt>
</event>
<event>
 8      1 +5.0320763e-08 7.85140900e+01 7.81860800e-03 1.33332200e-01
        2 -1    0    0  501    0 +0.0000000000e+00 +0.0000000000e+00 +3.0454943587e+02 3.0454943588e+02 2.5500000000e-03 0.0000e+00 -1.0000e+00
       -1 -1    0    0    0  501 -0.0000000000e+00 -0.0000000000e+00 -5.0603115330e+00 5.0603140429e+00 5.0400000000e-03 0.0000e+00 1.0000e+00
       24  2    1    2    0    0 -3.5527136788e-15 +0.0000000000e+00 +2.9948912434e+02 3.0960974992e+02 7.8514085689e+01 0.0000e+00 0.0000e+00
       66  2    3    3    0    0 -2.7310412234e+01 -1.9444667417e+01 +1.7128981654e+02 1.7709926961e+02 2.9999939022e+01 0.0000e+00 0.0000e+00
      -13  1    3    3    0    0 +2.7310412234e+01 +1.9444667417e+01 +1.2819930780e+02 1.3251048031e+02 1.0566000000e-01 0.0000e+00 1.0000e+00
       13  1    4    4    0    0 -7.4321016887e+00 -1.4066344335e+01 +7.4353921078e+01 7.6036931305e+01 1.0566000000e-01 0.0000e+00 -1.0000e+00
      -13  1    4    4    0    0 -1.9862085574e+00 +5.0443064660e+00 +7.4640074155e+00 9.2256502692e+00 1.0566000000e-01 0.0000e+00 1.0000e+00
      -14  1    4    4    0    0 -1.7892101988e+01 -1.0422629548e+01 +8.9471888042e+01 9.1836688039e+01 0.0000000000e+00 0.0000e+00 1.0000e+00
<mgrwt>
<rscale>  0 0.78514086E+02</rscale>
<asrwt>0</asrwt>
<pdfrwt beam="1">  1        2 0.46853762E-01 0.78514086E+02</pdfrwt>
<pdfrwt beam="2">  1       -1 0.77850962E-03 0.78514086E+02</pdfrwt>
<totfact> 0.26923755E+05</totfact>
</mgrwt>
</event>
<event>
 8      1 +5.0320763e-08 7.95449900e+01 7.81860800e-03 1.33034800e-01
        2 -1    0    0  501    0 +0.0000000000e+00 +0.0000000000e+00 +5.1011770791e+00 5.1011777165e+00 2.5500000000e-03 0.0000e+00 -1.0000e+00
       -1 -1    0    0    0  501 -0.0000000000e+00 -0.0000000000e+00 -3.1009535198e+02 3.1009535202e+02 5.0400000000e-03 0.0000e+00 1.0000e+00
       24  2    1    2    0    0 +0.0000000000e+00 +0.0000000000e+00 -3.0499417490e+02 3.1519652974e+02 7.9544991263e+01 0.0000e+00 0.0000e+00
       66  2    3    3    0    0 -2.2988918941e+01 -1.8450259746e+01 -2.4223820452e+02 2.4586237177e+02 3.0000927380e+01 0.0000e+00 0.0000e+00
      -13  1    3    3    0    0 +2.2988918941e+01 +1.8450259746e+01 -6.2755970375e+01 6.9334157963e+01 1.0566000000e-01 0.0000e+00 1.0000e+00
       13  1    4    4    0    0 -1.0358288056e+01 -9.4759332809e+00 -9.9733798702e+01 1.0071707507e+02 1.0566000000e-01 0.0000e+00 -1.0000e+00
      -13  1    4    4    0    0 -7.6460903549e+00 -1.4704848085e+01 -1.2458680908e+02 1.2568444381e+02 1.0566000000e-01 0.0000e+00 1.0000e+00
      -14  1    4    4    0    0 -4.9845405295e+00 +5.7305216197e+00 -1.7917596744e+01 1.9460852895e+01 0.0000000000e+00 0.0000e+00 1.0000e+00
<mgrwt>
<rscale>  0 0.79544991E+02</rscale>
<asrwt>0</asrwt>
<pdfrwt beam="1">  1        2 0.78479677E-03 0.79544991E+02</pdfrwt>
<pdfrwt beam="2">  1       -1 0.47706963E-01 0.79544991E+02</pdfrwt>
<totfact> 0.86522097E+04</totfact>
</mgrwt>
</event>
<event>
 8      1 +5.0320763e-08 8.16267000e+01 7.81860800e-03 1.32449700e-01
       -2 -1    0    0    0  501 -0.0000000000e+00 +0.0000000000e+00 +2.1224129937e+02 2.1224129939e+02 2.5500000000e-03 0.0000e+00 1.0000e+00
        1 -1    0    0  501    0 +0.0000000000e+00 -0.0000000000e+00 -7.8482816956e+00 7.8482833139e+00 5.0400000000e-03 0.0000e+00 -1.0000e+00
      -24  2    1    2    0    0 +0.0000000000e+00 -3.5527136788e-15 +2.0439301768e+02 2.2008958270e+02 8.1626703589e+01 0.0000e+00 0.0000e+00
       66  2    3    3    0    0 -2.7823214276e+01 -2.0820372650e+01 +9.9271646743e+01 1.0937312972e+02 3.0000041461e+01 0.0000e+00 0.0000e+00
       13  1    3    3    0    0 +2.7823214276e+01 +2.0820372650e+01 +1.0512137093e+02 1.1071645298e+02 1.0566000000e-01 0.0000e+00 -1.0000e+00
       13  1    4    4    0    0 -2.6724420908e+01 -3.3782526883e+00 +6.5903627258e+01 7.1196253511e+01 1.0566000000e-01 0.0000e+00 -1.0000e+00
      -13  1    4    4    0    0 -1.9407329115e+00 -2.8867244481e+00 +1.0450923922e+01 1.1015107676e+01 1.0566000000e-01 0.0000e+00 1.0000e+00
       14  1    4    4    0    0 +8.4193954392e-01 -1.4555395514e+01 +2.2917095563e+01 2.7161768532e+01 0.0000000000e+00 0.0000e+00 -1.0000e+00
<mgrwt>
<rscale>  0 0.81626704E+02</rscale>
<asrwt>0</asrwt>
<pdfrwt beam="1">  1        1 0.12074281E-02 0.81626704E+02</pdfrwt>
<pdfrwt beam="2">  1       -2 0.32652506E-01 0.81626704E+02</pdfrwt>
<totfact> 0.78802449E+04</totfact>
</mgrwt>
</event>
<event>
 8      1 +5.0320763e-08 8.13512600e+01 7.81860800e-03 1.32526000e-01
        2 -1    0    0  501    0 +0.0000000000e+00 +0.0000000000e+00 +3.9649395115e+02 3.9649395116e+02 2.5500000000e-03 0.0000e+00 -1.0000e+00
       -1 -1    0    0    0  501 -0.0000000000e+00 -0.0000000000e+00 -4.1728410927e+00 4.1728441364e+00 5.0400000000e-03 0.0000e+00 1.0000e+00
       24  2    1    2    0    0 +0.0000000000e+00 +1.7763568394e-15 +3.9232111006e+02 4.0066679530e+02 8.1351259702e+01 0.0000e+00 0.0000e+00
       66  2    3    3    0    0 -2.0165646964e+01 +9.0621964336e+00 +3.5738687500e+02 3.5932446028e+02 2.9998543451e+01 0.0000e+00 0.0000e+00
      -13  1    3    3    0    0 +2.0165646964e+01 -9.0621964336e+00 +3.4934235059e+01 4.1342335020e+01 1.0566000000e-01 0.0000e+00 1.0000e+00
       13  1    4    4    0    0 -1.8615016669e+01 -2.3326819687e+00 +1.7906784271e+02 1.8004794836e+02 1.0566000000e-01 0.0000e+00 -1.0000e+00
      -13  1    4    4    0    0 -5.9337836618e-01 -1.5627784753e+00 +2.6989622720e+00 3.1764659340e+00 1.0566000000e-01 0.0000e+00 1.0000e+00
      -14  1    4    4    0    0 -9.5725192913e-01 +1.2957656878e+01 +1.7562007002e+02 1.7610004598e+02 0.0000000000e+00 0.0000e+00 1.0000e+00
<mgrwt>
<rscale>  0 0.81351260E+02</rscale>
<asrwt>0</asrwt>
<pdfrwt beam="1">  1        2 0.60999083E-01 0.81351260E+02</pdfrwt>
<pdfrwt beam="2">  1       -1 0.64197564E-03 0.81351260E+02</pdfrwt>
<totfact> 0.26959794E+05</totfact>
</mgrwt>
</event>
<event>
 8      1 +5.0320763e-08 8.24590100e+01 7.81860800e-03 1.32221400e-01
        2 -1    0    0  501    0 +0.0000000000e+00 +0.0000000000e+00 +1.1760230011e+02 1.1760230014e+02 2.5500000000e-03 0.0000e+00 -1.0000e+00
       -1 -1    0    0    0  501 -0.0000000000e+00 -0.0000000000e+00 -1.4454410149e+01 1.4454411028e+01 5.0400000000e-03 0.0000e+00 1.0000e+00
       24  2    1    2    0    0 +8.8817841970e-16 +0.0000000000e+00 +1.0314788996e+02 1.3205671117e+02 8.2459006545e+01 0.0000e+00 0.0000e+00
       66  2    3    3    0    0 -1.6494230440e+00 -3.1317808077e+01 +8.5957892877e+01 9.6293142231e+01 3.0001403197e+01 0.0000e+00 0.0000e+00
      -13  1    3    3    0    0 +1.6494230440e+00 +3.1317808077e+01 +1.7189997084e+01 3.5763568934e+01 1.0566000000e-01 0.0000e+00 1.0000e+00
       13  1    4    4    0    0 +1.1186156514e+00 -2.2574910716e+01 +4.7222988883e+01 5.2353602912e+01 1.0566000000e-01 0.0000e+00 -1.0000e+00
      -13  1    4    4    0    0 -9.3586731186e+00 -7.6943914449e+00 +1.4988202993e+01 1.9272929597e+01 1.0566000000e-01 0.0000e+00 1.0000e+00
       14  1    4    4    0    0 +6.5906344232e+00 -1.0485059159e+00 +2.3746701001e+01 2.4666609722e+01 0.0000000000e+00 0.0000e+00 -1.0000e+00
<mgrwt>
<rscale>  0 0.82459007E+02</rscale>
<asrwt>0</asrwt>
<pdfrwt beam="1">  1        2 0.18092662E-01 0.82459007E+02</pdfrwt>
<pdfrwt beam="2">  1       -1 0.22237555E-02 0.82459007E+02</pdfrwt>
<totfact> 0.17130694E+05</totfact>
</mgrwt>
</event>
<event>
 8      1 +5.0320763e-08 8.01762400e+01 7.81860800e-03 1.32855200e-01
        2 -1    0    0  501    0 +0.0000000000e+00 +0.0000000000e+00 +6.5433780665e+01 6.5433780715e+01 2.5500000000e-03 0.0000e+00 -1.0000e+00
       -1 -1    0    0    0  501 -0.0000000000e+00 -0.0000000000e+00 -2.4560055553e+01 2.4560056071e+01 5.0400000000e-03 0.0000e+00 1.0000e+00
       24  2    1    2    0    0 -3.5527136788e-15 -3.5527136788e-15 +4.0873725112e+01 8.9993836786e+01 8.0176238717e+01 0.0000e+00 0.0000e+00
       66  2    3    3    0    0 -2.0377585901e+01 -2.2199094748e+01 +4.2097772160e+01 5.9835002756e+01 2.9999321980e+01 0.0000e+00 0.0000e+00
      -13  1    3    3    0    0 +2.0377585901e+01 +2.2199094748e+01 -1.2240470479e+00 3.0158834029e+01 1.0566000000e-01 0.0000e+00 1.0000e+00
       13  1    4    4    0    0 -1.1604588925e+01 -1.3665293395e+01 +9.2136284055e+00 2.0157103961e+01 1.0566000000e-01 0.0000e+00 -1.0000e+00
      -13  1    4    4    0    0 +5.2311609355e+00 -5.8410624728e-01 +4.0140288447e+00 6.6204090843e+00 1.0566000000e-01 0.0000e+00 1.0000e+00
       14  1    4    4    0    0 -1.4004157912e+01 -7.9496951063e+00 +2.8870114910e+01 3.3057489711e+01 0.0000000000e+00 0.0000e+00 -1.0000e+00
<mgrwt>
<rscale>  0 0.80176239E+02</rscale>
<asrwt>0</asrwt>
<pdfrwt beam="1">  1        2 0.10066735E-01 0.80176239E+02</pdfrwt>
<pdfrwt beam="2">  1       -1 0.37784702E-02 0.80176239E+02</pdfrwt>
<totfact> 0.15791371E+05</totfact>
</mgrwt>
</event>
<event>
 8      1 +5.0320763e-08 8.28098300e+01 7.81860800e-03 1.32126100e-01
       -1 -1    0    0    0  501 -0.0000000000e+00 +0.0000000000e+00 +3.1700961655e+01 3.1700962056e+01 5.0400000000e-03 0.0000e+00 1.0000e+00
        2 -1    0    0  501    0 +0.0000000000e+00 -0.0000000000e+00 -5.4079333749e+01 5.4079333810e+01 2.5500000000e-03 0.0000e+00 -1.0000e+00
       24  2    1    2    0    0 +3.5527136788e-15 -8.8817841970e-16 -2.2378372095e+01 8.5780295865e+01 8.2809828047e+01 0.0000e+00 0.0000e+00
       66  2    3    3    0    0 +2.5422030138e+01 -4.2039040814e+00 -3.8656188217e+01 5.5301928330e+01 3.0000832717e+01 0.0000e+00 0.0000e+00
      -13  1    3    3    0    0 -2.5422030138e+01 +4.2039040814e+00 +1.6277816122e+01 3.0478367535e+01 1.0566000000e-01 0.0000e+00 1.0000e+00
       13  1    4    4    0    0 +4.9088941227e+00 -4.5623905085e+00 -9.0701389974e-01 6.7636149292e+00 1.0566000000e-01 0.0000e+00 -1.0000e+00
      -13  1    4    4    0    0 +1.8138970771e+01 -6.1209712471e+00 -1.3759656328e+01 2.3576001695e+01 1.0566000000e-01 0.0000e+00 1.0000e+00
       14  1    4    4    0    0 +2.3741652446e+00 +6.4794576742e+00 -2.3989517989e+01 2.4962311706e+01 0.0000000000e+00 0.0000e+00 -1.0000e+00
<mgrwt>
<rscale>  0 0.82809828E+02</rscale>
<asrwt>0</asrwt>
<pdfrwt beam="1">  1        2 0.83198975E-02 0.82809828E+02</pdfrwt>
<pdfrwt beam="2">  1       -1 0.48770711E-02 0.82809828E+02</pdfrwt>
<totfact> 0.13832366E+05</totfact>
</mgrwt>
</event>
<event>
 8      1 +5.0320763e-08 5.03618000e+01 7.81860800e-03 1.44340000e-01
        4 -1    0    0  501    0 +0.0000000000e+00 +0.0000000000e+00 +1.1828259632e+00 1.7355049004e+00 1.2700000000e+00 0.0000e+00 -1.0000e+00
       -3 -1    0    0    0  501 -0.0000000000e+00 -0.0000000000e+00 -4.3427004912e+02 4.3427006086e+02 1.0100000000e-01 0.0000e+00 1.0000e+00
       24  2    1    2    0    0 +8.8817841970e-16 +1.7763568394e-15 -4.3308722315e+02 4.3600556576e+02 5.0361796203e+01 0.0000e+00 0.0000e+00
       66  2    3    3    0    0 +4.8489326551e+00 -1.3538959519e+01 -3.5879544641e+02 3.6033460152e+02 3.0000618650e+01 0.0000e+00 0.0000e+00
      -13  1    3    3    0    0 -4.8489326551e+00 +1.3538959519e+01 -7.4291776748e+01 7.5670964241e+01 1.0566000000e-01 0.0000e+00 1.0000e+00
       13  1    4    4    0    0 +3.1552202513e+00 -1.3896597016e+01 -1.3343828872e+02 1.3419708970e+02 1.0566000000e-01 0.0000e+00 -1.0000e+00
      -13  1    4    4    0    0 +4.1658404327e+00 +6.5933726056e+00 -4.6122543817e+01 4.6777419777e+01 1.0566000000e-01 0.0000e+00 1.0000e+00
      -14  1    4    4    0    0 -2.4721280290e+00 -6.2357351086e+00 -1.7923461387e+02 1.7936009205e+02 0.0000000000e+00 0.0000e+00 1.0000e+00
<mgrwt>
<rscale>  0 0.50361796E+02</rscale>
<asrwt>0</asrwt>
<pdfrwt beam="1">  1        4 0.22463018E-03 0.50361796E+02</pdfrwt>
<pdfrwt beam="2">  1       -3 0.66810944E-01 0.50361796E+02</pdfrwt>
<totfact> 0.81767881E+04</totfact>
</mgrwt>
</event>
<event>
 8      1 +5.0320763e-08 8.01266700e+01 7.81860800e-03 1.32869200e-01
       -1 -1    0    0    0  501 -0.0000000000e+00 +0.0000000000e+00 +8.9154450589e+00 8.9154464835e+00 5.0400000000e-03 0.0000e+00 1.0000e+00
        2 -1    0    0  501    0 +0.0000000000e+00 -0.0000000000e+00 -1.8003258335e+02 1.8003258336e+02 2.5500000000e-03 0.0000e+00 -1.0000e+00
       24  2    1    2    0    0 +0.0000000000e+00 +3.5527136788e-15 -1.7111713829e+02 1.8894802985e+02 8.0126668268e+01 0.0000e+00 0.0000e+00
       66  2    3    3    0    0 -2.2343597595e+01 -2.6212382769e+01 -9.6384460029e+01 1.0666006154e+02 3.0001320462e+01 0.0000e+00 0.0000e+00
      -13  1    3    3    0    0 +2.2343597595e+01 +2.6212382769e+01 -7.4732678259e+01 8.2287968305e+01 1.0566000000e-01 0.0000e+00 1.0000e+00
       13  1    4    4    0    0 -5.0188644760e+00 -7.8110098123e+00 -1.6772163671e+01 1.9170746286e+01 1.0566000000e-01 0.0000e+00 -1.0000e+00
      -13  1    4    4    0    0 -1.8546216928e+01 -1.4446282824e+01 -3.2051901065e+01 3.9749122955e+01 1.0566000000e-01 0.0000e+00 1.0000e+00
      -14  1    4    4    0    0 +1.2214838093e+00 -3.9550901327e+00 -4.7560395293e+01 4.7740192303e+01 0.0000000000e+00 0.0000e+00 1.0000e+00
<mgrwt>
<rscale>  0 0.80126668E+02</rscale>
<asrwt>0</asrwt>
<pdfrwt beam="1">  1        2 0.27697318E-01 0.80126668E+02</pdfrwt>
<pdfrwt beam="2">  1       -1 0.13716072E-02 0.80126668E+02</pdfrwt>
<totfact> 0.21186931E+05</totfact>
</mgrwt>
</event>
<event>
 8      1 +5.0320763e-08 8.04340700e+01 7.81860800e-03 1.32782400e-01
        2 -1    0    0  501    0 +0.0000000000e+00 +0.0000000000e+00 +2.1437942384e+01 2.1437942535e+01 2.5500000000e-03 0.0000e+00 -1.0000e+00
       -1 -1    0    0    0  501 -0.0000000000e+00 -0.0000000000e+00 -7.5446137401e+01 7.5446137569e+01 5.0400000000e-03 0.0000e+00 1.0000e+00
       24  2    1    2    0    0 -7.1054273576e-15 +3.5527136788e-15 -5.4008195018e+01 9.6884080105e+01 8.0434071442e+01 0.0000e+00 0.0000e+00
       66  2    3    3    0    0 -3.1490765009e+01 +1.2242950884e+01 -2.1658590394e+01 5.0107310116e+01 3.0001497663e+01 0.0000e+00 0.0000e+00
      -13  1    3    3    0    0 +3.1490765009e+01 -1.2242950884e+01 -3.2349604624e+01 4.6776769989e+01 1.0566000000e-01 0.0000e+00 1.0000e+00
       13  1    4    4    0    0 -2.8380386280e+00 -1.3364587739e+00 +3.2084231890e+00 4.4883993476e+00 1.0566000000e-01 0.0000e+00 -1.0000e+00
      -13  1    4    4    0    0 -5.4607297186e-01 -1.2429160811e+00 +3.0383281387e+00 3.3295101726e+00 1.0566000000e-01 0.0000e+00 1.0000e+00
       14  1    4    4    0    0 -2.8106653409e+01 +1.4822325739e+01 -2.7905341721e+01 4.2289400596e+01 0.0000000000e+00 0.0000e+00 -1.0000e+00
<mgrwt>
<rscale>  0 0.80434071E+02</rscale>
<asrwt>0</asrwt>
<pdfrwt beam="1">  1        2 0.32981450E-02 0.80434071E+02</pdfrwt>
<pdfrwt beam="2">  1       -1 0.11607098E-01 0.80434071E+02</pdfrwt>
<totfact> 0.12396970E+05</totfact>
</mgrwt>
</event>
<event>
 8      1 +5.0320763e-08 8.51264600e+01 7.81860800e-03 1.31510200e-01
       -2 -1    0    0    0  501 -0.0000000000e+00 +0.0000000000e+00 +1.2036842132e+01 1.2036842402e+01 2.5500000000e-03 0.0000e+00 1.0000e+00
        1 -1    0    0  501    0 +0.0000000000e+00 -0.0000000000e+00 -1.5050697638e+02 1.5050697646e+02 5.0400000000e-03 0.0000e+00 -1.0000e+00
      -24  2    1    2    0    0 +0.0000000000e+00 -1.7763568394e-15 -1.3847013425e+02 1.6254381887e+02 8.5126464587e+01 0.0000e+00 0.0000e+00
       66  2    3    3    0    0 +2.7331210244e+01 +1.3841981545e+01 -3.7285308932e+01 5.6822602714e+01 3.0000306842e+01 0.0000e+00 0.0000e+00
       13  1    3    3    0    0 -2.7331210244e+01 -1.3841981545e+01 -1.0118482532e+02 1.0572121615e+02 1.0566000000e-01 0.0000e+00 -1.0000e+00
       13  1    4    4    0    0 +1.1689878367e+01 +1.0507722747e+01 -1.5619917813e+01 2.2159839577e+01 1.0566000000e-01 0.0000e+00 -1.0000e+00
      -13  1    4    4    0    0 +5.5698628528e+00 +1.1377028284e+01 -5.0567131709e+00 1.3639708828e+01 1.0566000000e-01 0.0000e+00 1.0000e+00
       14  1    4    4    0    0 +1.0071469023e+01 -8.0427694862e+00 -1.6608677948e+01 2.1023054309e+01 0.0000000000e+00 0.0000e+00 -1.0000e+00
<mgrwt>
<rscale>  0 0.85126465E+02</rscale>
<asrwt>0</asrwt>
<pdfrwt beam="1">  1        1 0.23154918E-01 0.85126465E+02</pdfrwt>
<pdfrwt beam="2">  1       -2 0.18518220E-02 0.85126465E+02</pdfrwt>
<totfact> 0.13374315E+05</totfact>
</mgrwt>
</event>
<event>
 8      1 +5.0320763e-08 7.88346000e+01 7.81860800e-03 1.33239200e-01
       -2 -1    0    0    0  501 -0.0000000000e+00 +0.0000000000e+00 +4.4353703604e+00 4.4353710934e+00 2.5500000000e-03 0.0000e+00 1.0000e+00
        1 -1    0    0  501    0 +0.0000000000e+00 -0.0000000000e+00 -3.5030293033e+02 3.5030293036e+02 5.0400000000e-03 0.0000e+00 -1.0000e+00
      -24  2    1    2    0    0 -1.7763568394e-15 -3.5527136788e-15 -3.4586755997e+02 3.5473830146e+02 7.8834595725e+01 0.0000e+00 0.0000e+00
       66  2    3    3    0    0 -1.3118527242e+01 +3.0311019534e+01 -2.2829132874e+02 2.3261117517e+02 3.0002906069e+01 0.0000e+00 0.0000e+00
       13  1    3    3    0    0 +1.3118527242e+01 -3.0311019534e+01 -1.1757623122e+02 1.2212712629e+02 1.0566000000e-01 0.0000e+00 -1.0000e+00
       13  1    4    4    0    0 -7.6264407338e+00 +1.1024223444e+00 -2.3747219661e+01 2.4966368157e+01 1.0566000000e-01 0.0000e+00 -1.0000e+00
      -13  1    4    4    0    0 +4.9111334623e+00 +2.9726972252e+00 -1.5979248740e+01 1.6979508680e+01 1.0566000000e-01 0.0000e+00 1.0000e+00
       14  1    4    4    0    0 -1.0403219971e+01 +2.6235899965e+01 -1.8856486034e+02 1.9066529833e+02 0.0000000000e+00 0.0000e+00 -1.0000e+00
<mgrwt>
<rscale>  0 0.78834596E+02</rscale>
<asrwt>0</asrwt>
<pdfrwt beam="1">  1        1 0.53892737E-01 0.78834596E+02</pdfrwt>
<pdfrwt beam="2">  1       -2 0.68236500E-03 0.78834596E+02</pdfrwt>
<totfact> 0.19296396E+05</totfact>
</mgrwt>
</event>
<event>
 8      1 +5.0320763e-08 7.94629700e+01 7.81860800e-03 1.33058200e-01
        1 -1    0    0  501    0 +0.0000000000e+00 +0.0000000000e+00 +3.8956045467e+01 3.8956045793e+01 5.0400000000e-03 0.0000e+00 -1.0000e+00
       -2 -1    0    0    0  501 -0.0000000000e+00 -0.0000000000e+00 -4.0522363658e+01 4.0522363738e+01 2.5500000000e-03 0.0000e+00 1.0000e+00
      -24  2    1    2    0    0 +8.8817841970e-16 +3.5527136788e-15 -1.5663181911e+00 7.9478409531e+01 7.9462973949e+01 0.0000e+00 0.0000e+00
       66  2    3    3    0    0 -7.2494458114e+00 -1.8478919171e+01 -2.8588505098e+01 4.5948800712e+01 2.9999412408e+01 0.0000e+00 0.0000e+00
       13  1    3    3    0    0 +7.2494458114e+00 +1.8478919171e+01 +2.7022186907e+01 3.3529608819e+01 1.0566000000e-01 0.0000e+00 -1.0000e+00
       13  1    4    4    0    0 -4.4453060830e+00 +5.6207809012e+00 -5.6529533694e+00 9.1280320959e+00 1.0566000000e-01 0.0000e+00 -1.0000e+00
      -13  1    4    4    0    0 -4.1793876540e+00 -2.4911833606e+01 -1.6456756130e+01 3.0148013552e+01 1.0566000000e-01 0.0000e+00 1.0000e+00
      -14  1    4    4    0    0 +1.3752479256e+00 +8.1213353393e-01 -6.4787955981e+00 6.6727550634e+00 0.0000000000e+00 0.0000e+00 1.0000e+00
<mgrwt>
<rscale>  0 0.79462974E+02</rscale>
<asrwt>0</asrwt>
<pdfrwt beam="1">  1        1 0.59932378E-02 0.79462974E+02</pdfrwt>
<pdfrwt beam="2">  1       -2 0.62342098E-02 0.79462974E+02</pdfrwt>
<totfact> 0.12885424E+05</totfact>
</mgrwt>
</event>
<event>
 8      1 +5.0320763e-08 8.80859400e+01 7.81860800e-03 1.30755400e-01
       -2 -1    0    0    0  501 -0.0000000000e+00 +0.0000000000e+00 +2.7593105450e+01 2.7593105568e+01 2.5500000000e-03 0.0000e+00 1.0000e+00
        1 -1    0    0  501    0 +0.0000000000e+00 -0.0000000000e+00 -7.0299564467e+01 7.0299564648e+01 5.0400000000e-03 0.0000e+00 -1.0000e+00
      -24  2    1    2    0    0 +8.8817841970e-16 +0.0000000000e+00 -4.2706459017e+01 9.7892670216e+01 8.8085942353e+01 0.0000e+00 0.0000e+00
       66  2    3    3    0    0 +4.2744658905e+00 -2.8925340194e+01 +4.7420864572e+00 4.2158282306e+01 2.9998116925e+01 0.0000e+00 0.0000e+00
       13  1    3    3    0    0 -4.2744658905e+00 +2.8925340194e+01 -4.7448545474e+01 5.5734387910e+01 1.0566000000e-01 0.0000e+00 -1.0000e+00
       13  1    4    4    0    0 +5.2683025561e+00 -1.1549222669e+01 -1.0837967990e+01 1.6691682668e+01 1.0566000000e-01 0.0000e+00 -1.0000e+00
      -13  1    4    4    0    0 -9.3914738203e-01 -1.8461954591e+01 +1.5845073348e+01 2.4347551798e+01 1.0566000000e-01 0.0000e+00 1.0000e+00
       14  1    4    4    0    0 -5.4689283582e-02 +1.0858370660e+00 -2.6501890061e-01 1.1190478405e+00 0.0000000000e+00 0.0000e+00 -1.0000e+00
<mgrwt>
<rscale>  0 0.88085942E+02</rscale>
<asrwt>0</asrwt>
<pdfrwt beam="1">  1        1 0.10815318E-01 0.88085942E+02</pdfrwt>
<pdfrwt beam="2">  1       -2 0.42450932E-02 0.88085942E+02</pdfrwt>
<totfact> 0.10643144E+05</totfact>
</mgrwt>
</event>
<event>
 8      1 +5.0320763e-08 7.42526500e+01 7.81860800e-03 1.34620100e-01
       -1 -1    0    0    0  501 -0.0000000000e+00 +0.0000000000e+00 +5.1420670370e+00 5.1420695070e+00 5.0400000000e-03 0.0000e+00 1.0000e+00
        2 -1    0    0  501    0 +0.0000000000e+00 -0.0000000000e+00 -2.6805631225e+02 2.6805631226e+02 2.5500000000e-03 0.0000e+00 -1.0000e+00
       24  2    1    2    0    0 -1.7763568394e-15 +0.0000000000e+00 -2.6291424521e+02 2.7319838177e+02 7.4252646184e+01 0.0000e+00 0.0000e+00
       66  2    3    3    0    0 -7.6340199323e+00 -2.4082367796e+01 -2.1943362672e+02 2.2291106679e+02 2.9999807735e+01 0.0000e+00 0.0000e+00
      -13  1    3    3    0    0 +7.6340199323e+00 +2.4082367796e+01 -4.3480618492e+01 5.0287314975e+01 1.0566000000e-01 0.0000e+00 1.0000e+00
       13  1    4    4    0    0 -4.4926134927e+00 -1.4911738243e+01 -3.6328328837e+01 3.9525968091e+01 1.0566000000e-01 0.0000e+00 -1.0000e+00
      -13  1    4    4    0    0 -1.3867811454e-02 -2.8708612115e+00 -7.2092966186e+01 7.2150183464e+01 1.0566000000e-01 0.0000e+00 1.0000e+00
       14  1    4    4    0    0 -3.1275386282e+00 -6.2997683415e+00 -1.1101233169e+02 1.1123491523e+02 0.0000000000e+00 0.0000e+00 -1.0000e+00
<mgrwt>
<rscale>  0 0.74252646E+02</rscale>
<asrwt>0</asrwt>
<pdfrwt beam="1">  1        2 0.41239422E-01 0.74252646E+02</pdfrwt>
<pdfrwt beam="2">  1       -1 0.79108764E-03 0.74252646E+02</pdfrwt>
<totfact> 0.29745256E+05</totfact>
</mgrwt>
</event>
<event>
 8      1 +5.0320763e-08 7.92914000e+01 7.81860800e-03 1.33107400e-01
        2 -1    0    0  501    0 +0.0000000000e+00 +0.0000000000e+00 +1.6181321473e+02 1.6181321475e+02 2.5500000000e-03 0.0000e+00 -1.0000e+00
       -1 -1    0    0    0  501 -0.0000000000e+00 -0.0000000000e+00 -9.7135531550e+00 9.7135544625e+00 5.0400000000e-03 0.0000e+00 1.0000e+00
       24  2    1    2    0    0 -4.4408920985e-16 -3.5527136788e-15 +1.5209966157e+02 1.7152676921e+02 7.9291396161e+01 0.0000e+00 0.0000e+00
       66  2    3    3    0    0 -3.5816268744e+00 -1.3808822920e+01 +1.5362851571e+02 1.5717894009e+02 2.9999778762e+01 0.0000e+00 0.0000e+00
      -13  1    3    3    0    0 +3.5816268744e+00 +1.3808822920e+01 -1.5288541399e+00 1.4347829122e+01 1.0566000000e-01 0.0000e+00 1.0000e+00
       13  1    4    4    0    0 +9.3441264655e+00 -1.1828397733e+01 +9.4841063982e+01 9.6031569151e+01 1.0566000000e-01 0.0000e+00 -1.0000e+00
      -13  1    4    4    0    0 -7.1401877084e+00 -5.0069907785e+00 +4.5663318230e+01 4.6488730172e+01 1.0566000000e-01 0.0000e+00 1.0000e+00
      -14  1    4    4    0    0 -5.7855656316e+00 +3.0265655917e+00 +1.3124133501e+01 1.4658640766e+01 0.0000000000e+00 0.0000e+00 1.0000e+00
<mgrwt>
<rscale>  0 0.79291396E+02</rscale>
<asrwt>0</asrwt>
<pdfrwt beam="1">  1        2 0.24894339E-01 0.79291396E+02</pdfrwt>
<pdfrwt beam="2">  1       -1 0.14943930E-02 0.79291396E+02</pdfrwt>
<totfact> 0.21020237E+05</totfact>
</mgrwt>
</event>
<event>
 8      1 +5.0320763e-08 7.46780300e+01 7.81860800e-03 1.34487100e-01
        1 -1    0    0  501    0 +0.0000000000e+00 +0.0000000000e+00 +2.0181498418e+02 2.0181498424e+02 5.0400000000e-03 0.0000e+00 -1.0000e+00
       -2 -1    0    0    0  501 -0.0000000000e+00 -0.0000000000e+00 -6.9083174197e+00 6.9083178903e+00 2.5500000000e-03 0.0000e+00 1.0000e+00
      -24  2    1    2    0    0 +0.0000000000e+00 +1.7763568394e-15 +1.9490666676e+02 2.0872330213e+02 7.4678029605e+01 0.0000e+00 0.0000e+00
       66  2    3    3    0    0 -2.4581644633e+01 +1.4345312364e+01 +7.6684742144e+01 8.7123631641e+01 2.9998871195e+01 0.0000e+00 0.0000e+00
       13  1    3    3    0    0 +2.4581644633e+01 -1.4345312364e+01 +1.1822192462e+02 1.2159967049e+02 1.0566000000e-01 0.0000e+00 -1.0000e+00
       13  1    4    4    0    0 -6.2067992383e+00 +9.0356336730e-01 +1.4690710760e+00 6.4428345784e+00 1.0566000000e-01 0.0000e+00 -1.0000e+00
      -13  1    4    4    0    0 -2.1883378124e+01 +1.0636668418e+01 +5.8184033826e+01 6.3066741706e+01 1.0566000000e-01 0.0000e+00 1.0000e+00
       14  1    4    4    0    0 +3.5085327289e+00 +2.8050805784e+00 +1.7031637242e+01 1.7614055357e+01 0.0000000000e+00 0.0000e+00 -1.0000e+00
<mgrwt>
<rscale>  0 0.74678030E+02</rscale>
<asrwt>0</asrwt>
<pdfrwt beam="1">  1        1 0.31048456E-01 0.74678030E+02</pdfrwt>
<pdfrwt beam="2">  1       -2 0.10628182E-02 0.74678030E+02</pdfrwt>
<totfact> 0.20037441E+05</totfact>
</mgrwt>
</event>
<event>
 8      1 +5.0320763e-08 7.95930700e+01 7.81860800e-03 1.33021000e-01
       -1 -1    0    0    0  501 -0.0000000000e+00 +0.0000000000e+00 +5.2119057815e+00 5.2119082184e+00 5.0400000000e-03 0.0000e+00 1.0000e+00
        2 -1    0    0  501    0 +0.0000000000e+00 -0.0000000000e+00 -3.0387424458e+02 3.0387424459e+02 2.5500000000e-03 0.0000e+00 -1.0000e+00
       24  2    1    2    0    0 -7.1054273576e-15 +0.0000000000e+00 -2.9866233880e+02 3.0908615281e+02 7.9593072826e+01 0.0000e+00 0.0000e+00
       66  2    3    3    0    0 +1.3319851550e+01 -3.0490449843e+01 -1.4081363792e+02 1.4776873431e+02 3.0000537319e+01 0.0000e+00 0.0000e+00
      -13  1    3    3    0    0 -1.3319851550e+01 +3.0490449843e+01 -1.5784870088e+02 1.6131741850e+02 1.0566000000e-01 0.0000e+00 1.0000e+00
       13  1    4    4    0    0 -3.1980829392e+00 -9.3906556849e-01 -1.1951450178e+01 1.2407977435e+01 1.0566000000e-01 0.0000e+00 -1.0000e+00
      -13  1    4    4    0    0 -5.2214430990e+00 -6.8749436595e+00 -4.4720148138e+01 4.5545923328e+01 1.0566000000e-01 0.0000e+00 1.0000e+00
       14  1    4    4    0    0 +2.1739377589e+01 -2.2676440616e+01 -8.4142039605e+01 8.9814833551e+01 0.0000000000e+00 0.0000e+00 -1.0000e+00
<mgrwt>
<rscale>  0 0.79593073E+02</rscale>
<asrwt>0</asrwt>
<pdfrwt beam="1">  1        2 0.46749870E-01 0.79593073E+02</pdfrwt>
<pdfrwt beam="2">  1       -1 0.80183209E-03 0.79593073E+02</pdfrwt>
<totfact> 0.25957771E+05</totfact>
</mgrwt>
</event>
<event>
 8      1 +5.0320763e-08 8.21114400e+01 7.81860800e-03 1.32316400e-01
        4 -1    0    0  501    0 +0.0000000000e+00 +0.0000000000e+00 +2.9896475207e+01 2.9923437800e+01 1.2700000000e+00 0.0000e+00 -1.0000e+00
       -3 -1    0    0    0  501 -0.0000000000e+00 -0.0000000000e+00 -5.6341267437e+01 5.6341357965e+01 1.0100000000e-01 0.0000e+00 1.0000e+00
       24  2    1    2    0    0 +0.0000000000e+00 +4.4408920985e-16 -2.6444792230e+01 8.6264795766e+01 8.2111436185e+01 0.0000e+00 0.0000e+00
       66  2    3    3    0    0 +3.2791186398e+01 -3.7754746117e+00 -2.8928079093e+01 5.3163527035e+01 3.0000178880e+01 0.0000e+00 0.0000e+00
      -13  1    3    3    0    0 -3.2791186398e+01 +3.7754746117e+00 +2.4832868631e+00 3.3101268731e+01 1.0566000000e-01 0.0000e+00 1.0000e+00
       13  1    4    4    0    0 +3.1412564623e+01 -1.2603741415e+00 -1.6502911246e+01 3.5506267092e+01 1.0566000000e-01 0.0000e+00 -1.0000e+00
      -13  1    4    4    0    0 -1.0722746240e-01 -7.4186415090e+00 -7.4963716402e+00 1.0547724464e+01 1.0566000000e-01 0.0000e+00 1.0000e+00
       14  1    4    4    0    0 +1.4858492375e+00 +4.9035410387e+00 -4.9287962064e+00 7.1095354785e+00 0.0000000000e+00 0.0000e+00 -1.0000e+00
<mgrwt>
<rscale>  0 0.82111436E+02</rscale>
<asrwt>0</asrwt>
<pdfrwt beam="1">  1        4 0.46026328E-02 0.82111436E+02</pdfrwt>
<pdfrwt beam="2">  1       -3 0.86679073E-02 0.82111436E+02</pdfrwt>
<totfact> 0.41841400E+04</totfact>
</mgrwt>
</event>
<event>
 8      1 +5.0320763e-08 7.94055800e+01 7.81860800e-03 1.33074700e-01
        1 -1    0    0  501    0 +0.0000000000e+00 +0.0000000000e+00 +5.7491209836e+01 5.7491210057e+01 5.0400000000e-03 0.0000e+00 -1.0000e+00
       -2 -1    0    0    0  501 -0.0000000000e+00 -0.0000000000e+00 -2.7418302749e+01 2.7418302867e+01 2.5500000000e-03 0.0000e+00 1.0000e+00
      -24  2    1    2    0    0 +0.0000000000e+00 +0.0000000000e+00 +3.0072907088e+01 8.4909512925e+01 7.9405576910e+01 0.0000e+00 0.0000e+00
       66  2    3    3    0    0 -2.3634334172e+01 +1.6977161876e+01 +3.6058488799e+01 5.5200185609e+01 3.0000668320e+01 0.0000e+00 0.0000e+00
       13  1    3    3    0    0 +2.3634334172e+01 -1.6977161876e+01 -5.9855817115e+00 2.9709327316e+01 1.0566000000e-01 0.0000e+00 -1.0000e+00
       13  1    4    4    0    0 -1.8747632949e+01 +1.9929135871e+00 +1.8037334687e+01 2.6092183742e+01 1.0566000000e-01 0.0000e+00 -1.0000e+00
      -13  1    4    4    0    0 -2.2661413480e+00 +2.6124490188e+00 -2.9977311008e+00 4.5779735990e+00 1.0566000000e-01 0.0000e+00 1.0000e+00
       14  1    4    4    0    0 -2.6205598744e+00 +1.2371799270e+01 +2.1018885213e+01 2.4530028268e+01 0.0000000000e+00 0.0000e+00 -1.0000e+00
<mgrwt>
<rscale>  0 0.79405577E+02</rscale>
<asrwt>0</asrwt>
<pdfrwt beam="1">  1        1 0.88448015E-02 0.79405577E+02</pdfrwt>
<pdfrwt beam="2">  1       -2 0.42182005E-02 0.79405577E+02</pdfrwt>
<totfact> 0.13728011E+05</totfact>
</mgrwt>
</event>
<event>
 8      1 +5.0320763e-08 7.12789200e+01 7.81860800e-03 1.35579700e-01
       -3 -1    0    0    0  501 -0.0000000000e+00 +0.0000000000e+00 +2.0075315194e+01 2.0075569261e+01 1.0100000000e-01 0.0000e+00 1.0000e+00
        4 -1    0    0  501    0 +0.0000000000e+00 -0.0000000000e+00 -6.3243314967e+01 6.3256065227e+01 1.2700000000e+00 0.0000e+00 -1.0000e+00
       24  2    1    2    0    0 -1.7763568394e-15 +8.8817841970e-16 -4.3167999773e+01 8.3331634488e+01 7.1278924670e+01 0.0000e+00 0.0000e+00
       66  2    3    3    0    0 +9.9355563902e+00 -5.3763504786e+00 -5.7046271576e+01 6.5436439112e+01 3.0000500623e+01 0.0000e+00 0.0000e+00
      -13  1    3    3    0    0 -9.9355563902e+00 +5.3763504786e+00 +1.3878271804e+01 1.7895195376e+01 1.0566000000e-01 0.0000e+00 1.0000e+00
       13  1    4    4    0    0 +5.6631630749e+00 -2.6921320407e+00 -2.4011636830e+00 6.7153363286e+00 1.0566000000e-01 0.0000e+00 -1.0000e+00
      -13  1    4    4    0    0 -3.8315214636e+00 -1.4239141801e-01 -4.7407382700e+01 4.7562295261e+01 1.0566000000e-01 0.0000e+00 1.0000e+00
       14  1    4    4    0    0 +8.1039147788e+00 -2.5418270199e+00 -7.2377251938e+00 1.1158807522e+01 0.0000000000e+00 0.0000e+00 -1.0000e+00
<mgrwt>
<rscale>  0 0.71278925E+02</rscale>
<asrwt>0</asrwt>
<pdfrwt beam="1">  1        4 0.97338105E-02 0.71278925E+02</pdfrwt>
<pdfrwt beam="2">  1       -3 0.30885361E-02 0.71278925E+02</pdfrwt>
<totfact> 0.59844967E+04</totfact>
</mgrwt>
</event>
<event>
 8      1 +5.0320763e-08 8.25533800e+01 7.81860800e-03 1.32195800e-01
        2 -1    0    0  501    0 +0.0000000000e+00 +0.0000000000e+00 +6.3643134095e+00 6.3643139203e+00 2.5500000000e-03 0.0000e+00 -1.0000e+00
       -1 -1    0    0    0  501 -0.0000000000e+00 -0.0000000000e+00 -2.6770605612e+02 2.6770605617e+02 5.0400000000e-03 0.0000e+00 1.0000e+00
       24  2    1    2    0    0 +1.7763568394e-15 -3.5527136788e-15 -2.6134174271e+02 2.7407037009e+02 8.2553384408e+01 0.0000e+00 0.0000e+00
       66  2    3    3    0    0 +1.0714197733e+01 -3.0647911871e+01 -9.7648994925e+01 1.0718892901e+02 3.0000862605e+01 0.0000e+00 0.0000e+00
      -13  1    3    3    0    0 -1.0714197733e+01 +3.0647911871e+01 -1.6369274779e+02 1.6688144108e+02 1.0566000000e-01 0.0000e+00 1.0000e+00
       13  1    4    4    0    0 -2.9111450679e+00 -1.5987674464e+01 -5.2562472771e+01 5.5017317348e+01 1.0566000000e-01 0.0000e+00 -1.0000e+00
      -13  1    4    4    0    0 +1.3332545257e+00 -1.2906954965e+01 -2.9620722204e+01 3.2338296214e+01 1.0566000000e-01 0.0000e+00 1.0000e+00
       14  1    4    4    0    0 +1.2292088275e+01 -1.7532824414e+00 -1.5465799950e+01 1.9833315446e+01 0.0000000000e+00 0.0000e+00 -1.0000e+00
<mgrwt>
<rscale>  0 0.82553384E+02</rscale>
<asrwt>0</asrwt>
<pdfrwt beam="1">  1        2 0.97912539E-03 0.82553384E+02</pdfrwt>
<pdfrwt beam="2">  1       -1 0.41185539E-01 0.82553384E+02</pdfrwt>
<totfact> 0.83355624E+04</totfact>
</mgrwt>
</event>
<event>
 8      1 +5.0320763e-08 8.08831900e+01 7.81860800e-03 1.32656400e-01
        4 -1    0    0  501    0 +0.0000000000e+00 +0.0000000000e+00 +7.3702851518e+00 7.4789038782e+00 1.2700000000e+00 0.0000e+00 -1.0000e+00
       -3 -1    0    0    0  501 -0.0000000000e+00 -0.0000000000e+00 -2.2022974536e+02 2.2022976852e+02 1.0100000000e-01 0.0000e+00 1.0000e+00
       24  2    1    2    0    0 +0.0000000000e+00 +0.0000000000e+00 -2.1285946021e+02 2.2770867240e+02 8.0883185430e+01 0.0000e+00 0.0000e+00
       66  2    3    3    0    0 -5.6514368719e+00 -3.4396958416e+01 -1.2436190389e+02 1.3259338380e+02 3.0000546680e+01 0.0000e+00 0.0000e+00
      -13  1    3    3    0    0 +5.6514368719e+00 +3.4396958416e+01 -8.8497556316e+01 9.5115288597e+01 1.0566000000e-01 0.0000e+00 1.0000e+00
       13  1    4    4    0    0 +4.5748213957e+00 +2.2462529903e+00 -2.6358930842e+01 2.6847328405e+01 1.0566000000e-01 0.0000e+00 1.0000e+00
      -13  1    4    4    0    0 -5.1669712210e+00 -1.2888291552e+01 -2.2570261060e+01 2.6499688660e+01 1.0566000000e-01 0.0000e+00 -1.0000e+00
      -14  1    4    4    0    0 -5.0592870465e+00 -2.3754919854e+01 -7.5432711992e+01 7.9246366738e+01 0.0000000000e+00 0.0000e+00 1.0000e+00
<mgrwt>
<rscale>  0 0.80883185E+02</rscale>
<asrwt>0</asrwt>
<pdfrwt beam="1">  1        4 0.11425272E-02 0.80883185E+02</pdfrwt>
<pdfrwt beam="2">  1       -3 0.33881549E-01 0.80883185E+02</pdfrwt>
<totfact> 0.33842569E+04</totfact>
</mgrwt>
</event>
<event>
 8      1 +5.0320763e-08 7.95860900e+01 7.81860800e-03 1.33023000e-01
        2 -1    0    0  501    0 +0.0000000000e+00 +0.0000000000e+00 +1.4352558418e+02 1.4352558420e+02 2.5500000000e-03 0.0000e+00 -1.0000e+00
       -1 -1    0    0    0  501 -0.0000000000e+00 -0.0000000000e+00 -1.1032779681e+01 1.1032780832e+01 5.0400000000e-03 0.0000e+00 1.0000e+00
       24  2    1    2    0    0 +3.5527136788e-15 +0.0000000000e+00 +1.3249280449e+02 1.5455836503e+02 7.9586085204e+01 0.0000e+00 0.0000e+00
       66  2    3    3    0    0 -2.0836344573e+01 +7.3531257098e+00 +1.2619801412e+02 1.3158322057e+02 2.9999724272e+01 0.0000e+00 0.0000e+00
      -13  1    3    3    0    0 +2.0836344573e+01 -7.3531257098e+00 +6.2947903756e+00 2.2975144456e+01 1.0566000000e-01 0.0000e+00 1.0000e+00
       13  1    4    4    0    0 -1.4720567916e+01 +9.9824025456e+00 +6.4449054279e+01 6.6858322158e+01 1.0566000000e-01 0.0000e+00 -1.0000e+00
      -13  1    4    4    0    0 -1.0538304163e+01 -2.7948677699e+00 +2.0321275380e+01 2.3061494695e+01 1.0566000000e-01 0.0000e+00 1.0000e+00
       14  1    4    4    0    0 +4.4225275062e+00 +1.6559093418e-01 +4.1427684460e+01 4.1663403721e+01 0.0000000000e+00 0.0000e+00 -1.0000e+00
<mgrwt>
<rscale>  0 0.79586085E+02</rscale>
<asrwt>0</asrwt>
<pdfrwt beam="1">  1        2 0.22080859E-01 0.79586085E+02</pdfrwt>
<pdfrwt beam="2">  1       -1 0.16973509E-02 0.79586085E+02</pdfrwt>
<totfact> 0.20022999E+05</totfact>
</mgrwt>
</event>
<event>
 8      1 +5.0320763e-08 7.96279600e+01 7.81860800e-03 1.33011100e-01
       -2 -1    0    0    0  501 -0.0000000000e+00 +0.0000000000e+00 +1.0813947301e+02 1.0813947304e+02 2.5500000000e-03 0.0000e+00 1.0000e+00
        1 -1    0    0  501    0 +0.0000000000e+00 -0.0000000000e+00 -1.4658413682e+01 1.4658414548e+01 5.0400000000e-03 0.0000e+00 -1.0000e+00
      -24  2    1    2    0    0 -4.4408920985e-16 -3.5527136788e-15 +9.3481059323e+01 1.2279788758e+02 7.9627964577e+01 0.0000e+00 0.0000e+00
       66  2    3    3    0    0 +3.1352355682e+00 -2.3743691180e+01 +9.0943991476e+01 9.8713858638e+01 3.0000395476e+01 0.0000e+00 0.0000e+00
       13  1    3    3    0    0 -3.1352355682e+00 +2.3743691180e+01 +2.5370678474e+00 2.4084028945e+01 1.0566000000e-01 0.0000e+00 -1.0000e+00
       13  1    4    4    0    0 +7.3411391890e+00 -1.1009211217e+01 +2.1393217524e+01 2.5155038785e+01 1.0566000000e-01 0.0000e+00 -1.0000e+00
      -13  1    4    4    0    0 +6.5045321656e+00 -8.5200744755e+00 +2.0030453407e+01 2.2718513057e+01 1.0566000000e-01 0.0000e+00 1.0000e+00
      -14  1    4    4    0    0 -1.0710435786e+01 -4.2144054882e+00 +4.9520320544e+01 5.0840306797e+01 0.0000000000e+00 0.0000e+00 1.0000e+00
<mgrwt>
<rscale>  0 0.79627965E+02</rscale>
<asrwt>0</asrwt>
<pdfrwt beam="1">  1        1 0.22551407E-02 0.79627965E+02</pdfrwt>
<pdfrwt beam="2">  1       -2 0.16636842E-01 0.79627965E+02</pdfrwt>
<totfact> 0.10528372E+05</totfact>
</mgrwt>
</event>
<event>
 8      1 +5.0320763e-08 7.55905300e+01 7.81860800e-03 1.34205200e-01
       -1 -1    0    0    0  501 -0.0000000000e+00 +0.0000000000e+00 +5.7789475660e+00 5.7789497637e+00 5.0400000000e-03 0.0000e+00 1.0000e+00
        2 -1    0    0  501    0 +0.0000000000e+00 -0.0000000000e+00 -2.4718717394e+02 2.4718717395e+02 2.5500000000e-03 0.0000e+00 -1.0000e+00
       24  2    1    2    0    0 -1.7763568394e-15 +1.7763568394e-15 -2.4140822637e+02 2.5296612372e+02 7.5590528423e+01 0.0000e+00 0.0000e+00
       66  2    3    3    0    0 +1.5082981031e+01 -6.9206257022e+00 -2.3066070806e+02 2.3319463691e+02 2.9999750998e+01 0.0000e+00 0.0000e+00
      -13  1    3    3    0    0 -1.5082981031e+01 +6.9206257022e+00 -1.0747518311e+01 1.9771486812e+01 1.0566000000e-01 0.0000e+00 1.0000e+00
       13  1    4    4    0    0 +1.3855519198e+01 +3.1804541776e+00 -1.8950542744e+02 1.9003791436e+02 1.0566000000e-01 0.0000e+00 -1.0000e+00
      -13  1    4    4    0    0 -2.2375362464e+00 -7.7192732753e+00 -3.3194488101e+01 3.4153754591e+01 1.0566000000e-01 0.0000e+00 1.0000e+00
       14  1    4    4    0    0 +3.4649980791e+00 -2.3818066045e+00 -7.9607925232e+00 9.0029679543e+00 0.0000000000e+00 0.0000e+00 -1.0000e+00
<mgrwt>
<rscale>  0 0.75590528E+02</rscale>
<asrwt>0</asrwt>
<pdfrwt beam="1">  1        2 0.38028788E-01 0.75590528E+02</pdfrwt>
<pdfrwt beam="2">  1       -1 0.88906922E-03 0.75590528E+02</pdfrwt>
<totfact> 0.27581521E+05</totfact>
</mgrwt>
</event>
<event>
 8      1 +5.0320763e-08 7.99053800e+01 7.81860800e-03 1.32932000e-01
       -2 -1    0    0    0  501 -0.0000000000e+00 +0.0000000000e+00 +2.1992912364e+01 2.1992912512e+01 2.5500000000e-03 0.0000e+00 1.0000e+00
        1 -1    0    0  501    0 +0.0000000000e+00 -0.0000000000e+00 -7.2578716468e+01 7.2578716643e+01 5.0400000000e-03 0.0000e+00 -1.0000e+00
      -24  2    1    2    0    0 +0.0000000000e+00 +1.7763568394e-15 -5.0585804104e+01 9.4571629155e+01 7.9905378194e+01 0.0000e+00 0.0000e+00
       66  2    3    3    0    0 -5.5747225739e+00 +9.0242512899e+00 +9.7728796774e+00 3.3287891386e+01 3.0000998194e+01 0.0000e+00 0.0000e+00
       13  1    3    3    0    0 +5.5747225739e+00 -9.0242512899e+00 -6.0358683781e+01 6.1283737769e+01 1.0566000000e-01 0.0000e+00 -1.0000e+00
       13  1    4    4    0    0 -7.4158378799e+00 +9.0169978674e+00 +7.3645987937e+00 1.3803962526e+01 1.0566000000e-01 0.0000e+00 -1.0000e+00
      -13  1    4    4    0    0 -7.6891710958e-01 +2.8159064636e+00 +1.0302121160e+01 1.0708194393e+01 1.0566000000e-01 0.0000e+00 1.0000e+00
       14  1    4    4    0    0 +2.6100324156e+00 -2.8086530411e+00 -7.8938402765e+00 8.7757344665e+00 0.0000000000e+00 0.0000e+00 -1.0000e+00
<mgrwt>
<rscale>  0 0.79905378E+02</rscale>
<asrwt>0</asrwt>
<pdfrwt beam="1">  1        1 0.11165956E-01 0.79905378E+02</pdfrwt>
<pdfrwt beam="2">  1       -2 0.33835250E-02 0.79905378E+02</pdfrwt>
<totfact> 0.13995644E+05</totfact>
</mgrwt>
</event>
<event>
 8      1 +5.0320763e-08 8.48487100e+01 7.81860800e-03 1.31582900e-01
       -1 -1    0    0    0  501 -0.0000000000e+00 +0.0000000000e+00 +8.9501262835e-01 8.9502681888e-01 5.0400000000e-03 0.0000e+00 1.0000e+00
        2 -1    0    0  501    0 +0.0000000000e+00 -0.0000000000e+00 -2.0109344542e+03 2.0109344542e+03 2.5500000000e-03 0.0000e+00 -1.0000e+00
       24  2    1    2    0    0 +1.3322676296e-15 -1.7763568394e-15 -2.0100394416e+03 2.0118294810e+03 8.4848712598e+01 0.0000e+00 0.0000e+00
       66  2    3    3    0    0 +3.6334245993e+00 +1.5884366171e+01 -1.9214881442e+03 1.9217913875e+03 2.9998895382e+01 0.0000e+00 0.0000e+00
      -13  1    3    3    0    0 -3.6334245993e+00 -1.5884366171e+01 -8.8551297353e+01 9.0038093549e+01 1.0566000000e-01 0.0000e+00 1.0000e+00
       13  1    4    4    0    0 -8.0264720567e+00 +7.0382714935e+00 -6.9258110952e+02 6.9266338574e+02 1.0566000000e-01 0.0000e+00 -1.0000e+00
      -13  1    4    4    0    0 +8.9848033632e+00 +9.0897253905e+00 -3.7676252901e+02 3.7697926234e+02 1.0566000000e-01 0.0000e+00 1.0000e+00
       14  1    4    4    0    0 +2.6750932927e+00 -2.4363071244e-01 -8.5214450568e+02 8.5214873939e+02 0.0000000000e+00 0.0000e+00 -1.0000e+00
<mgrwt>
<rscale>  0 0.84848713E+02</rscale>
<asrwt>0</asrwt>
<pdfrwt beam="1">  1        2 0.30937092E+00 0.84848713E+02</pdfrwt>
<pdfrwt beam="2">  1       -1 0.13769695E-03 0.84848713E+02</pdfrwt>
<totfact> 0.23678946E+05</totfact>
</mgrwt>
</event>
<event>
 8      1 +5.0320763e-08 7.76529100e+01 7.81860800e-03 1.33584700e-01
       -1 -1    0    0    0  501 -0.0000000000e+00 +0.0000000000e+00 +1.5060406296e+02 1.5060406305e+02 5.0400000000e-03 0.0000e+00 1.0000e+00
        4 -1    0    0  501    0 +0.0000000000e+00 -0.0000000000e+00 -9.9666750189e+00 1.0047263853e+01 1.2700000000e+00 0.0000e+00 -1.0000e+00
       24  2    1    2    0    0 +0.0000000000e+00 +0.0000000000e+00 +1.4063738795e+02 1.6065132690e+02 7.7652906882e+01 0.0000e+00 0.0000e+00
       66  2    3    3    0    0 -1.4306318439e+01 +1.6629827855e+01 +2.9731278091e+01 4.7596480527e+01 3.0004235366e+01 0.0000e+00 0.0000e+00
      -13  1    3    3    0    0 +1.4306318439e+01 -1.6629827855e+01 +1.1090610985e+02 1.1305484638e+02 1.0566000000e-01 0.0000e+00 1.0000e+00
       13  1    4    4    0    0 -1.1689624915e+01 +1.1781150811e+01 +1.2658819407e+01 2.0873421327e+01 1.0566000000e-01 0.0000e+00 -1.0000e+00
      -13  1    4    4    0    0 -8.6319424443e-01 -7.7150439142e+00 +5.1686442862e+00 9.3270067382e+00 1.0566000000e-01 0.0000e+00 1.0000e+00
      -14  1    4    4    0    0 -1.7534992795e+00 +1.2563720958e+01 +1.1903814398e+01 1.7396052462e+01 0.0000000000e+00 0.0000e+00 1.0000e+00
<mgrwt>
<rscale>  0 0.77652907E+02</rscale>
<asrwt>0</asrwt>
<pdfrwt beam="1">  1        4 0.15399457E-02 0.77652907E+02</pdfrwt>
<pdfrwt beam="2">  1       -1 0.23169855E-01 0.77652907E+02</pdfrwt>
<totfact> 0.75242688E+04</totfact>
</mgrwt>
</event>
<event>
 8      1 +5.0320763e-08 8.18594800e+01 7.81860800e-03 1.32385600e-01
        4 -1    0    0  501    0 +0.0000000000e+00 +0.0000000000e+00 +2.5538059938e+02 2.5538375719e+02 1.2700000000e+00 0.0000e+00 -1.0000e+00
       -3 -1    0    0    0  501 -0.0000000000e+00 -0.0000000000e+00 -6.5577739734e+00 6.5585517064e+00 1.0100000000e-01 0.0000e+00 1.0000e+00
       24  2    1    2    0    0 +0.0000000000e+00 +3.5527136788e-15 +2.4882282541e+02 2.6194230890e+02 8.1859481735e+01 0.0000e+00 0.0000e+00
       66  2    3    3    0    0 -7.7663095970e+00 +3.0102595554e+01 +1.9551662648e+02 2.0023295927e+02 3.0000082078e+01 0.0000e+00 0.0000e+00
      -13  1    3    3    0    0 +7.7663095970e+00 -3.0102595554e+01 +5.3306198927e+01 6.1709349631e+01 1.0566000000e-01 0.0000e+00 1.0000e+00
       13  1    4    4    0    0 -9.9165798804e+00 +1.0837590769e+01 +1.1469206555e+02 1.1562903180e+02 1.0566000000e-01 0.0000e+00 -1.0000e+00
      -13  1    4    4    0    0 +5.6527216125e+00 +5.6208257783e+00 +5.1008430461e+01 5.1627687206e+01 1.0566000000e-01 0.0000e+00 1.0000e+00
      -14  1    4    4    0    0 -3.5024513291e+00 +1.3644179007e+01 +2.9816130462e+01 3.2976240262e+01 0.0000000000e+00 0.0000e+00 1.0000e+00
<mgrwt>
<rscale>  0 0.81859482E+02</rscale>
<asrwt>0</asrwt>
<pdfrwt beam="1">  1        4 0.39299027E-01 0.81859482E+02</pdfrwt>
<pdfrwt beam="2">  1       -3 0.10089496E-02 0.81859482E+02</pdfrwt>
<totfact> 0.27898634E+04</totfact>
</mgrwt>
</event>
<event>
 8      1 +5.0320763e-08 8.02125200e+01 7.81860800e-03 1.32844900e-01
        1 -1    0    0  501    0 +0.0000000000e+00 +0.0000000000e+00 +2.5544261708e+01 2.5544262206e+01 5.0400000000e-03 0.0000e+00 -1.0000e+00
       -2 -1    0    0    0  501 -0.0000000000e+00 -0.0000000000e+00 -6.2969611571e+01 6.2969611623e+01 2.5500000000e-03 0.0000e+00 1.0000e+00
      -24  2    1    2    0    0 -3.5527136788e-15 +0.0000000000e+00 -3.7425349863e+01 8.8513873828e+01 8.0212524257e+01 0.0000e+00 0.0000e+00
       66  2    3    3    0    0 +2.7278058367e+01 -1.9458302327e+01 -1.2275720839e+01 4.6618372855e+01 2.9997689375e+01 0.0000e+00 0.0000e+00
       13  1    3    3    0    0 -2.7278058367e+01 +1.9458302327e+01 -2.5149629023e+01 4.1895500973e+01 1.0566000000e-01 0.0000e+00 -1.0000e+00
       13  1    4    4    0    0 +1.7623992252e+01 -1.9209037727e-01 -1.4634480294e+01 2.2908975951e+01 1.0566000000e-01 0.0000e+00 1.0000e+00
      -13  1    4    4    0    0 +1.0146641729e+01 -9.9746889940e+00 +6.0996123881e-01 1.4241909130e+01 1.0566000000e-01 0.0000e+00 -1.0000e+00
       14  1    4    4    0    0 -4.9257561403e-01 -9.2915229553e+00 +1.7487982158e+00 9.4674877747e+00 0.0000000000e+00 0.0000e+00 -1.0000e+00
<mgrwt>
<rscale>  0 0.80212524E+02</rscale>
<asrwt>0</asrwt>
<pdfrwt beam="1">  1        1 0.39298865E-02 0.80212524E+02</pdfrwt>
<pdfrwt beam="2">  1       -2 0.96876326E-02 0.80212524E+02</pdfrwt>
<totfact> 0.11653014E+05</totfact>
</mgrwt>
</event>
<event>
 7      1 +5.0320763e-08 1.32549000e+02 7.81860800e-03 1.22372200e-01
       -1 -1    0    0    0  501 -0.0000000000e+00 +0.0000000000e+00 +2.5306734174e+01 2.5306734676e+01 5.0400000000e-03 0.0000e+00 1.0000e+00
        2 -1    0    0  501    0 +0.0000000000e+00 -0.0000000000e+00 -1.7356279351e+02 1.7356279353e+02 2.5500000000e-03 0.0000e+00 -1.0000e+00
       66  2    1    2    0    0 -4.7043805024e+01 -2.0147475898e+01 -1.3274010504e+02 1.4539246417e+02 2.9999879570e+01 0.0000e+00 0.0000e+00
      -13  1    1    2    0    0 +4.7043805024e+01 +2.0147475898e+01 -1.5515954294e+01 5.3477064036e+01 1.0566000000e-01 0.0000e+00 1.0000e+00
       13  1    3    3    0    0 -4.0802752301e+00 -1.2918363642e+00 -2.7605690916e+00 5.0940546611e+00 1.0566000000e-01 0.0000e+00 -1.0000e+00
      -13  1    3    3    0    0 -1.5083401184e+01 -2.8898356021e+00 -1.7325630485e+01 2.3152727200e+01 1.0566000000e-01 0.0000e+00 1.0000e+00
       14  1    3    3    0    0 -2.7880128610e+01 -1.5965803932e+01 -1.1265390547e+02 1.1714568231e+02 0.0000000000e+00 0.0000e+00 -1.0000e+00
<mgrwt>
<rscale>  0 0.13254897E+03</rscale>
<asrwt>0</asrwt>
<pdfrwt beam="1">  1        2 0.26701967E-01 0.13254897E+03</pdfrwt>
<pdfrwt beam="2">  1       -1 0.38933439E-02 0.13254897E+03</pdfrwt>
<totfact> 0.53064957E+04</totfact>
</mgrwt>
</event>
<event>
 8      1 +5.0320763e-08 8.16394300e+01 7.81860800e-03 1.32446200e-01
       -4 -1    0    0    0  501 -0.0000000000e+00 +0.0000000000e+00 +9.5948151190e+00 9.6785007707e+00 1.2700000000e+00 0.0000e+00 1.0000e+00
        1 -1    0    0  501    0 +0.0000000000e+00 -0.0000000000e+00 -1.7286553640e+02 1.7286553648e+02 5.0400000000e-03 0.0000e+00 -1.0000e+00
      -24  2    1    2    0    0 +0.0000000000e+00 +0.0000000000e+00 -1.6327072128e+02 1.8254403725e+02 8.1639433522e+01 0.0000e+00 0.0000e+00
       66  2    3    3    0    0 -2.5510705768e+01 +7.7116835672e+00 -4.0874407848e+01 5.7279777066e+01 2.9999824525e+01 0.0000e+00 0.0000e+00
       13  1    3    3    0    0 +2.5510705768e+01 -7.7116835672e+00 -1.2239631343e+02 1.2526426018e+02 1.0566000000e-01 0.0000e+00 -1.0000e+00
       13  1    4    4    0    0 -2.3836236924e+00 -2.3200583371e+00 -4.0111064214e+00 5.2119546577e+00 1.0566000000e-01 0.0000e+00 -1.0000e+00
      -13  1    4    4    0    0 -7.7548195560e+00 +1.4468440205e+01 -3.0905658887e+01 3.4994912539e+01 1.0566000000e-01 0.0000e+00 1.0000e+00
       14  1    4    4    0    0 -1.5372262519e+01 -4.4366983005e+00 -5.9576425401e+00 1.7072909869e+01 0.0000000000e+00 0.0000e+00 -1.0000e+00
<mgrwt>
<rscale>  0 0.81639434E+02</rscale>
<asrwt>0</asrwt>
<pdfrwt beam="1">  1        1 0.26594696E-01 0.81639434E+02</pdfrwt>
<pdfrwt beam="2">  1       -4 0.14829217E-02 0.81639434E+02</pdfrwt>
<totfact> 0.10785411E+05</totfact>
</mgrwt>
</event>
<event>
 8      1 +5.0320763e-08 7.95272200e+01 7.81860800e-03 1.33039800e-01
        4 -1    0    0  501    0 +0.0000000000e+00 +0.0000000000e+00 +5.3193907371e+01 5.3209065782e+01 1.2700000000e+00 0.0000e+00 -1.0000e+00
       -3 -1    0    0    0  501 -0.0000000000e+00 -0.0000000000e+00 -2.9712221341e+01 2.9712393004e+01 1.0100000000e-01 0.0000e+00 1.0000e+00
       24  2    1    2    0    0 +0.0000000000e+00 +0.0000000000e+00 +2.3481686031e+01 8.2921458786e+01 7.9527220172e+01 0.0000e+00 0.0000e+00
       66  2    3    3    0    0 -1.1695177360e+01 +1.6207248293e+00 +4.6773370427e+01 5.6807905820e+01 2.9999767666e+01 0.0000e+00 0.0000e+00
      -13  1    3    3    0    0 +1.1695177360e+01 -1.6207248293e+00 -2.3291684397e+01 2.6113552966e+01 1.0566000000e-01 0.0000e+00 1.0000e+00
       13  1    4    4    0    0 -9.7809303309e+00 -2.9004475433e+00 +4.2682816322e+01 4.3885227210e+01 1.0566000000e-01 0.0000e+00 -1.0000e+00
      -13  1    4    4    0    0 -5.9735163761e+00 +1.0840375942e+00 -2.2052282383e-01 6.0760044234e+00 1.0566000000e-01 0.0000e+00 1.0000e+00
      -14  1    4    4    0    0 +4.0592693470e+00 +3.4371347784e+00 +4.3110769291e+00 6.8466741857e+00 0.0000000000e+00 0.0000e+00 1.0000e+00
<mgrwt>
<rscale>  0 0.79527220E+02</rscale>
<asrwt>0</asrwt>
<pdfrwt beam="1">  1        4 0.81869318E-02 0.79527220E+02</pdfrwt>
<pdfrwt beam="2">  1       -3 0.45711316E-02 0.79527220E+02</pdfrwt>
<totfact> 0.45151892E+04</totfact>
</mgrwt>
</event>
<event>
 8      1 +5.0320763e-08 8.07252300e+01 7.81860800e-03 1.32700600e-01
       -4 -1    0    0    0  501 -0.0000000000e+00 +0.0000000000e+00 +5.8550305591e+01 5.8564077598e+01 1.2700000000e+00 0.0000e+00 1.0000e+00
        3 -1    0    0  501    0 +0.0000000000e+00 -0.0000000000e+00 -2.7814337872e+01 2.7814521248e+01 1.0100000000e-01 0.0000e+00 -1.0000e+00
      -24  2    1    2    0    0 +0.0000000000e+00 -3.5527136788e-15 +3.0735967719e+01 8.6378598846e+01 8.0725229185e+01 0.0000e+00 0.0000e+00
       66  2    3    3    0    0 +8.7781390723e+00 -3.0836130869e+01 +3.0430570615e+00 4.4013151164e+01 2.9999576440e+01 0.0000e+00 0.0000e+00
       13  1    3    3    0    0 -8.7781390723e+00 +3.0836130869e+01 +2.7692910658e+01 4.2365447682e+01 1.0566000000e-01 0.0000e+00 -1.0000e+00
       13  1    4    4    0    0 +1.3624710536e+00 -1.2862230970e+01 +9.2900260718e+00 1.5925107891e+01 1.0566000000e-01 0.0000e+00 -1.0000e+00
      -13  1    4    4    0    0 +3.0204661701e+00 -6.8725944704e+00 +6.9926684186e+00 1.0259841436e+01 1.0566000000e-01 0.0000e+00 1.0000e+00
       14  1    4    4    0    0 +4.3952018486e+00 -1.1101305428e+01 -1.3239637429e+01 1.7828201837e+01 0.0000000000e+00 0.0000e+00 -1.0000e+00
<mgrwt>
<rscale>  0 0.80725229E+02</rscale>
<asrwt>0</asrwt>
<pdfrwt beam="1">  1        3 0.42791497E-02 0.80725229E+02</pdfrwt>
<pdfrwt beam="2">  1       -4 0.90110290E-02 0.80725229E+02</pdfrwt>
<totfact> 0.42921924E+04</totfact>
</mgrwt>
</event>
<event>
 8      1 +5.0320763e-08 7.88428800e+01 7.81860800e-03 1.33236800e-01
        2 -1    0    0  501    0 +0.0000000000e+00 +0.0000000000e+00 +1.2893737334e+01 1.2893737586e+01 2.5500000000e-03 0.0000e+00 -1.0000e+00
       -1 -1    0    0    0  501 -0.0000000000e+00 -0.0000000000e+00 -1.2052750525e+02 1.2052750535e+02 5.0400000000e-03 0.0000e+00 1.0000e+00
       24  2    1    2    0    0 -3.5527136788e-15 +0.0000000000e+00 -1.0763376791e+02 1.3342124294e+02 7.8842882191e+01 0.0000e+00 0.0000e+00
       66  2    3    3    0    0 +1.3341321907e+01 -2.2807558446e+01 -2.6175151041e+01 4.7784258993e+01 3.0000354715e+01 0.0000e+00 0.0000e+00
      -13  1    3    3    0    0 -1.3341321907e+01 +2.2807558446e+01 -8.1458616873e+01 8.5636983946e+01 1.0566000000e-01 0.0000e+00 1.0000e+00
       13  1    4    4    0    0 -4.0477478172e+00 +2.2927962303e-01 -8.0608032413e+00 9.0235549795e+00 1.0566000000e-01 0.0000e+00 -1.0000e+00
      -13  1    4    4    0    0 +1.9908601170e+01 -1.4378522181e+01 -9.6284467011e+00 2.6378257156e+01 1.0566000000e-01 0.0000e+00 1.0000e+00
      -14  1    4    4    0    0 -2.5195314461e+00 -8.6583158887e+00 -8.4859010986e+00 1.2382446858e+01 0.0000000000e+00 0.0000e+00 1.0000e+00
<mgrwt>
<rscale>  0 0.78842882E+02</rscale>
<asrwt>0</asrwt>
<pdfrwt beam="1">  1        2 0.19836520E-02 0.78842882E+02</pdfrwt>
<pdfrwt beam="2">  1       -1 0.18542692E-01 0.78842882E+02</pdfrwt>
<totfact> 0.11796636E+05</totfact>
</mgrwt>
</event>
<event>
 8      1 +5.0320763e-08 8.03627200e+01 7.81860800e-03 1.32802500e-01
        4 -1    0    0  501    0 +0.0000000000e+00 +0.0000000000e+00 +2.1293653787e+01 2.1331492953e+01 1.2700000000e+00 0.0000e+00 -1.0000e+00
       -3 -1    0    0    0  501 -0.0000000000e+00 -0.0000000000e+00 -7.5736297020e+01 7.5736364366e+01 1.0100000000e-01 0.0000e+00 1.0000e+00
       24  2    1    2    0    0 +3.5527136788e-15 +3.5527136788e-15 -5.4442643233e+01 9.7067857319e+01 8.0362724706e+01 0.0000e+00 0.0000e+00
       66  2    3    3    0    0 +2.2070836816e+01 +2.1301245037e+01 -1.1724026991e+01 4.4477399862e+01 2.9998690166e+01 0.0000e+00 0.0000e+00
      -13  1    3    3    0    0 -2.2070836816e+01 -2.1301245037e+01 -4.2718616242e+01 5.2590457457e+01 1.0566000000e-01 0.0000e+00 1.0000e+00
       13  1    4    4    0    0 +1.4665097219e+01 +6.4643134204e+00 -9.2648239759e+00 1.8512173070e+01 1.0566000000e-01 0.0000e+00 -1.0000e+00
      -13  1    4    4    0    0 +7.9365004623e+00 +1.9193368081e+01 +3.1696214243e-01 2.0772218151e+01 1.0566000000e-01 0.0000e+00 1.0000e+00
      -14  1    4    4    0    0 -5.3076086595e-01 -4.3564364637e+00 -2.7761651578e+00 5.1930086407e+00 0.0000000000e+00 0.0000e+00 1.0000e+00
<mgrwt>
<rscale>  0 0.80362725E+02</rscale>
<asrwt>0</asrwt>
<pdfrwt beam="1">  1        4 0.32796766E-02 0.80362725E+02</pdfrwt>
<pdfrwt beam="2">  1       -3 0.11651761E-01 0.80362725E+02</pdfrwt>
<totfact> 0.43611427E+04</totfact>
</mgrwt>
</event>
<event>
 8      1 +5.0320763e-08 8.00661900e+01 7.81860800e-03 1.32886400e-01
       -1 -1    0    0    0  501 -0.0000000000e+00 +0.0000000000e+00 +1.5772612283e+00 1.5772692807e+00 5.0400000000e-03 0.0000e+00 1.0000e+00
        2 -1    0    0  501    0 +0.0000000000e+00 -0.0000000000e+00 -1.0160932265e+03 1.0160932265e+03 2.5500000000e-03 0.0000e+00 -1.0000e+00
       24  2    1    2    0    0 -1.7763568394e-15 +0.0000000000e+00 -1.0145159653e+03 1.0176704958e+03 8.0066186358e+01 0.0000e+00 0.0000e+00
       66  2    3    3    0    0 -1.5403039308e+01 +4.8306401849e+00 -9.6475918852e+02 9.6536049004e+02 2.9999919803e+01 0.0000e+00 0.0000e+00
      -13  1    3    3    0    0 +1.5403039308e+01 -4.8306401849e+00 -4.9756776782e+01 5.2310005776e+01 1.0566000000e-01 0.0000e+00 1.0000e+00
       13  1    4    4    0    0 -8.3940491001e+00 +6.5630828019e+00 -3.4393225902e+02 3.4409728868e+02 1.0566000000e-01 0.0000e+00 -1.0000e+00
      -13  1    4    4    0    0 -8.9986925235e+00 -1.0721788671e+01 -3.9825018000e+02 3.9849611071e+02 1.0566000000e-01 0.0000e+00 1.0000e+00
      -14  1    4    4    0    0 +1.9897023155e+00 +8.9893460540e+00 -2.2257674950e+02 2.2276709065e+02 0.0000000000e+00 0.0000e+00 1.0000e+00
<mgrwt>
<rscale>  0 0.80066186E+02</rscale>
<asrwt>0</asrwt>
<pdfrwt beam="1">  1        2 0.15632151E+00 0.80066186E+02</pdfrwt>
<pdfrwt beam="2">  1       -1 0.24265701E-03 0.80066186E+02</pdfrwt>
<totfact> 0.35175921E+05</totfact>
</mgrwt>
</event>
<event>
 8      1 +5.0320763e-08 8.01895900e+01 7.81860800e-03 1.32851400e-01
       -4 -1    0    0    0  501 -0.0000000000e+00 +0.0000000000e+00 +1.0426524604e+02 1.0427298035e+02 1.2700000000e+00 0.0000e+00 1.0000e+00
        3 -1    0    0  501    0 +0.0000000000e+00 -0.0000000000e+00 -1.5413669353e+01 1.5414000258e+01 1.0100000000e-01 0.0000e+00 -1.0000e+00
      -24  2    1    2    0    0 +0.0000000000e+00 +0.0000000000e+00 +8.8851576682e+01 1.1968698061e+02 8.0189591892e+01 0.0000e+00 0.0000e+00
       66  2    3    3    0    0 -3.0329173977e+01 -3.9661849468e+00 +7.4407123736e+01 8.5860322449e+01 2.9999758185e+01 0.0000e+00 0.0000e+00
       13  1    3    3    0    0 +3.0329173977e+01 +3.9661849468e+00 +1.4444452946e+01 3.3826658158e+01 1.0566000000e-01 0.0000e+00 -1.0000e+00
       13  1    4    4    0    0 -2.7395317458e+01 -5.7715589655e+00 +3.2621570366e+01 4.2988281295e+01 1.0566000000e-01 0.0000e+00 -1.0000e+00
      -13  1    4    4    0    0 -5.3021063249e+00 -1.3403397369e+00 +2.0051665270e+01 2.0784351956e+01 1.0566000000e-01 0.0000e+00 1.0000e+00
       14  1    4    4    0    0 +2.3682498052e+00 +3.1457137556e+00 +2.1733888101e+01 2.2087689199e+01 0.0000000000e+00 0.0000e+00 -1.0000e+00
<mgrwt>
<rscale>  0 0.80189592E+02</rscale>
<asrwt>0</asrwt>
<pdfrwt beam="1">  1        3 0.23713629E-02 0.80189592E+02</pdfrwt>
<pdfrwt beam="2">  1       -4 0.16045427E-01 0.80189592E+02</pdfrwt>
<totfact> 0.39837225E+04</totfact>
</mgrwt>
</event>
<event>
 8      1 +5.0320763e-08 8.02253900e+01 7.81860800e-03 1.32841300e-01
        1 -1    0    0  501    0 +0.0000000000e+00 +0.0000000000e+00 +3.6569965082e+00 3.6569999813e+00 5.0400000000e-03 0.0000e+00 -1.0000e+00
       -2 -1    0    0    0  501 -0.0000000000e+00 -0.0000000000e+00 -4.3998603306e+02 4.3998603306e+02 2.5500000000e-03 0.0000e+00 1.0000e+00
      -24  2    1    2    0    0 +0.0000000000e+00 +4.4408920985e-16 -4.3632903655e+02 4.4364303305e+02 8.0225386471e+01 0.0000e+00 0.0000e+00
       66  2    3    3    0    0 +2.4019543189e+01 -2.6720266123e+00 -3.8484882436e+02 3.8677211260e+02 2.9999521541e+01 0.0000e+00 0.0000e+00
       13  1    3    3    0    0 -2.4019543189e+01 +2.6720266123e+00 -5.1480212185e+01 5.6870920442e+01 1.0566000000e-01 0.0000e+00 -1.0000e+00
       13  1    4    4    0    0 +5.1816615587e-01 -4.1415133936e+00 -1.1651728579e+01 1.2377179496e+01 1.0566000000e-01 0.0000e+00 -1.0000e+00
      -13  1    4    4    0    0 +1.0195166406e+01 +5.1761903344e+00 -7.3910328814e+01 7.4789586399e+01 1.0566000000e-01 0.0000e+00 1.0000e+00
      -14  1    4    4    0    0 +1.3306210628e+01 -3.7067035530e+00 -2.9928676697e+02 2.9960534671e+02 0.0000000000e+00 0.0000e+00 1.0000e+00
<mgrwt>
<rscale>  0 0.80225386E+02</rscale>
<asrwt>0</asrwt>
<pdfrwt beam="1">  1        1 0.56261547E-03 0.80225386E+02</pdfrwt>
<pdfrwt beam="2">  1       -2 0.67690117E-01 0.80225386E+02</pdfrwt>
<totfact> 0.54962279E+04</totfact>
</mgrwt>
</event>
<event>
 8      1 +5.0320763e-08 8.14114900e+01 7.81860800e-03 1.32509300e-01
       -1 -1    0    0    0  501 -0.0000000000e+00 +0.0000000000e+00 +1.4464789763e+01 1.4464790642e+01 5.0400000000e-03 0.0000e+00 1.0000e+00
        2 -1    0    0  501    0 +0.0000000000e+00 -0.0000000000e+00 -1.1455111466e+02 1.1455111469e+02 2.5500000000e-03 0.0000e+00 -1.0000e+00
       24  2    1    2    0    0 +0.0000000000e+00 +0.0000000000e+00 -1.0008632490e+02 1.2901590533e+02 8.1411494256e+01 0.0000e+00 0.0000e+00
       66  2    3    3    0    0 +2.6323387864e+01 +2.0689368551e+01 -7.3943020943e+01 8.6537037346e+01 3.0001962715e+01 0.0000e+00 0.0000e+00
      -13  1    3    3    0    0 -2.6323387864e+01 -2.0689368551e+01 -2.6143303958e+01 4.2478867988e+01 1.0566000000e-01 0.0000e+00 1.0000e+00
       13  1    4    4    0    0 +1.0977931431e+01 +3.2711418476e+00 -1.2819207787e+01 1.7191817816e+01 1.0566000000e-01 0.0000e+00 -1.0000e+00
      -13  1    4    4    0    0 +3.0584646603e-01 +1.8259443830e+00 -3.6504727898e+01 3.6551798012e+01 1.0566000000e-01 0.0000e+00 1.0000e+00
       14  1    4    4    0    0 +1.5039609967e+01 +1.5592282321e+01 -2.4619085258e+01 3.2793421518e+01 0.0000000000e+00 0.0000e+00 -1.0000e+00
<mgrwt>
<rscale>  0 0.81411494E+02</rscale>
<asrwt>0</asrwt>
<pdfrwt beam="1">  1        2 0.17623248E-01 0.81411494E+02</pdfrwt>
<pdfrwt beam="2">  1       -1 0.22253524E-02 0.81411494E+02</pdfrwt>
<totfact> 0.17589060E+05</totfact>
</mgrwt>
</event>
<event>
 8      1 +5.0320763e-08 7.95732400e+01 7.81860800e-03 1.33026700e-01
       -2 -1    0    0    0  501 -0.0000000000e+00 +0.0000000000e+00 +2.0403290444e+02 2.0403290445e+02 2.5500000000e-03 0.0000e+00 1.0000e+00
        1 -1    0    0  501    0 +0.0000000000e+00 -0.0000000000e+00 -7.7584288804e+00 7.7584305175e+00 5.0400000000e-03 0.0000e+00 -1.0000e+00
      -24  2    1    2    0    0 -1.7763568394e-15 +0.0000000000e+00 +1.9627447556e+02 2.1179133497e+02 7.9573235535e+01 0.0000e+00 0.0000e+00
       66  2    3    3    0    0 -1.2874951477e+01 -2.8485644319e+00 +1.9587648995e+02 1.9859860017e+02 2.9998766308e+01 0.0000e+00 0.0000e+00
       13  1    3    3    0    0 +1.2874951477e+01 +2.8485644319e+00 +3.9798560454e-01 1.3192734797e+01 1.0566000000e-01 0.0000e+00 -1.0000e+00
       13  1    4    4    0    0 -4.5814386560e+00 -1.5315156250e+01 +9.3723947077e+01 9.5077510542e+01 1.0566000000e-01 0.0000e+00 -1.0000e+00
      -13  1    4    4    0    0 -3.6830404484e+00 +4.6507526272e+00 +6.5250405737e+01 6.5519622250e+01 1.0566000000e-01 0.0000e+00 1.0000e+00
       14  1    4    4    0    0 -4.6104723723e+00 +7.8158391910e+00 +3.6902137139e+01 3.8001467382e+01 0.0000000000e+00 0.0000e+00 -1.0000e+00
<mgrwt>
<rscale>  0 0.79573236E+02</rscale>
<asrwt>0</asrwt>
<pdfrwt beam="1">  1        1 0.11936044E-02 0.79573236E+02</pdfrwt>
<pdfrwt beam="2">  1       -2 0.31389683E-01 0.79573236E+02</pdfrwt>
<totfact> 0.85557253E+04</totfact>
</mgrwt>
</event>
<event>
 8      1 +5.0320763e-08 7.84815300e+01 7.81860800e-03 1.33341700e-01
       -1 -1    0    0    0  501 -0.0000000000e+00 +0.0000000000e+00 +1.3107175258e+01 1.3107176227e+01 5.0400000000e-03 0.0000e+00 1.0000e+00
        2 -1    0    0  501    0 +0.0000000000e+00 -0.0000000000e+00 -1.1748050869e+02 1.1748050872e+02 2.5500000000e-03 0.0000e+00 -1.0000e+00
       24  2    1    2    0    0 -1.7763568394e-15 -3.5527136788e-15 -1.0437333343e+02 1.3058768494e+02 7.8481531122e+01 0.0000e+00 0.0000e+00
       66  2    3    3    0    0 +1.5614763662e+01 +2.8010589309e+01 -4.3653838828e+01 6.1919772884e+01 2.9999777866e+01 0.0000e+00 0.0000e+00
      -13  1    3    3    0    0 -1.5614763662e+01 -2.8010589309e+01 -6.0719494604e+01 6.8667912060e+01 1.0566000000e-01 0.0000e+00 1.0000e+00
       13  1    4    4    0    0 -2.2399087115e+00 +9.4203992773e+00 -1.9080715724e+01 2.1397336053e+01 1.0566000000e-01 0.0000e+00 -1.0000e+00
      -13  1    4    4    0    0 +9.5796135243e+00 +2.0674133451e+01 -1.3299235553e+01 2.6383131345e+01 1.0566000000e-01 0.0000e+00 1.0000e+00
      -14  1    4    4    0    0 +8.2750588489e+00 -2.0839434200e+00 -1.1273887551e+01 1.4139305487e+01 0.0000000000e+00 0.0000e+00 1.0000e+00
<mgrwt>
<rscale>  0 0.78481531E+02</rscale>
<asrwt>0</asrwt>
<pdfrwt beam="1">  1        2 0.18073924E-01 0.78481531E+02</pdfrwt>
<pdfrwt beam="2">  1       -1 0.20164887E-02 0.78481531E+02</pdfrwt>
<totfact> 0.19541822E+05</totfact>
</mgrwt>
</event>
<event>
 8      1 +5.0320763e-08 8.29590000e+01 7.81860800e-03 1.32085800e-01
        2 -1    0    0  501    0 +0.0000000000e+00 +0.0000000000e+00 +6.9187809959e+01 6.9187810006e+01 2.5500000000e-03 0.0000e+00 -1.0000e+00
       -1 -1    0    0    0  501 -0.0000000000e+00 -0.0000000000e+00 -2.4867804011e+01 2.4867804522e+01 5.0400000000e-03 0.0000e+00 1.0000e+00
       24  2    1    2    0    0 +0.0000000000e+00 +2.6645352591e-15 +4.4320005948e+01 9.4055614528e+01 8.2959000096e+01 0.0000e+00 0.0000e+00
       66  2    3    3    0    0 -3.3490311961e+01 +7.9331216527e+00 +1.2877460311e+01 4.7438233063e+01 3.0000359292e+01 0.0000e+00 0.0000e+00
      -13  1    3    3    0    0 +3.3490311961e+01 -7.9331216527e+00 +3.1442545637e+01 4.6617381465e+01 1.0566000000e-01 0.0000e+00 1.0000e+00
       13  1    4    4    0    0 -2.2998546739e+01 -1.6593125935e+00 +2.1579286985e-01 2.3059579375e+01 1.0566000000e-01 0.0000e+00 -1.0000e+00
      -13  1    4    4    0    0 -7.8448678785e+00 +8.6757671106e+00 +2.9720921078e-01 1.1700871093e+01 1.0566000000e-01 0.0000e+00 1.0000e+00
       14  1    4    4    0    0 -2.6468973442e+00 +9.1666713561e-01 +1.2364458230e+01 1.2677782595e+01 0.0000000000e+00 0.0000e+00 -1.0000e+00
<mgrwt>
<rscale>  0 0.82959000E+02</rscale>
<asrwt>0</asrwt>
<pdfrwt beam="1">  1        2 0.10644278E-01 0.82959000E+02</pdfrwt>
<pdfrwt beam="2">  1       -1 0.38258162E-02 0.82959000E+02</pdfrwt>
<totfact> 0.14589127E+05</totfact>
</mgrwt>
</event>
<event>
 8      1 +5.0320763e-08 8.03321600e+01 7.81860800e-03 1.32811100e-01
        2 -1    0    0  501    0 +0.0000000000e+00 +0.0000000000e+00 +1.0593914636e+02 1.0593914639e+02 2.5500000000e-03 0.0000e+00 -1.0000e+00
       -1 -1    0    0    0  501 -0.0000000000e+00 -0.0000000000e+00 -1.5228687048e+01 1.5228687882e+01 5.0400000000e-03 0.0000e+00 1.0000e+00
       24  2    1    2    0    0 -3.5527136788e-15 +1.7763568394e-15 +9.0710459314e+01 1.2116783427e+02 8.0332164380e+01 0.0000e+00 0.0000e+00
       66  2    3    3    0    0 +3.1539051070e+01 +1.0163048881e+01 +6.6512040971e+01 8.0136457022e+01 3.0000014082e+01 0.0000e+00 0.0000e+00
      -13  1    3    3    0    0 -3.1539051070e+01 -1.0163048881e+01 +2.4198418343e+01 4.1031377253e+01 1.0566000000e-01 0.0000e+00 1.0000e+00
       13  1    4    4    0    0 +1.9917836684e+00 -8.2144152641e+00 +9.0651838138e+00 1.2394859496e+01 1.0566000000e-01 0.0000e+00 -1.0000e+00
      -13  1    4    4    0    0 +4.3150899811e+00 +4.2269932783e+00 +4.9867888280e+00 7.8336900992e+00 1.0566000000e-01 0.0000e+00 1.0000e+00
       14  1    4    4    0    0 +2.5232177421e+01 +1.4150470866e+01 +5.2460068329e+01 5.9907907426e+01 0.0000000000e+00 0.0000e+00 -1.0000e+00
<mgrwt>
<rscale>  0 0.80332164E+02</rscale>
<asrwt>0</asrwt>
<pdfrwt beam="1">  1        2 0.16298330E-01 0.80332164E+02</pdfrwt>
<pdfrwt beam="2">  1       -1 0.23428750E-02 0.80332164E+02</pdfrwt>
<totfact> 0.17818925E+05</totfact>
</mgrwt>
</event>
<event>
 8      1 +5.0320763e-08 8.05670400e+01 7.81860800e-03 1.32745000e-01
        1 -1    0    0  501    0 +0.0000000000e+00 +0.0000000000e+00 +1.0863928364e+01 1.0863929533e+01 5.0400000000e-03 0.0000e+00 -1.0000e+00
       -2 -1    0    0    0  501 -0.0000000000e+00 -0.0000000000e+00 -1.4937157082e+02 1.4937157084e+02 2.5500000000e-03 0.0000e+00 1.0000e+00
      -24  2    1    2    0    0 -4.4408920985e-16 +0.0000000000e+00 -1.3850764245e+02 1.6023550037e+02 8.0567043894e+01 0.0000e+00 0.0000e+00
       66  2    3    3    0    0 -1.8730932152e+00 +3.3931776726e+01 -6.4950339611e+01 7.9207345294e+01 3.0006382370e+01 0.0000e+00 0.0000e+00
       13  1    3    3    0    0 +1.8730932152e+00 -3.3931776726e+01 -7.3557302843e+01 8.1028155079e+01 1.0566000000e-01 0.0000e+00 -1.0000e+00
       13  1    4    4    0    0 +7.4266986279e+00 +1.7222555473e+01 -1.6036630127e+01 2.4677052891e+01 1.0566000000e-01 0.0000e+00 -1.0000e+00
      -13  1    4    4    0    0 -3.0884531200e+00 +1.7300349057e+01 -3.9542877918e+01 4.3272288803e+01 1.0566000000e-01 0.0000e+00 1.0000e+00
       14  1    4    4    0    0 -6.2113387230e+00 -5.9112780416e-01 -9.3708315664e+00 1.1258003600e+01 0.0000000000e+00 0.0000e+00 -1.0000e+00
<mgrwt>
<rscale>  0 0.80567044E+02</rscale>
<asrwt>0</asrwt>
<pdfrwt beam="1">  1        1 0.16713738E-02 0.80567044E+02</pdfrwt>
<pdfrwt beam="2">  1       -2 0.22980240E-01 0.80567044E+02</pdfrwt>
<totfact> 0.92935508E+04</totfact>
</mgrwt>
</event>
<event>
 8      1 +5.0320763e-08 7.99005400e+01 7.81860800e-03 1.32933400e-01
        2 -1    0    0  501    0 +0.0000000000e+00 +0.0000000000e+00 +4.8638932872e+02 4.8638932872e+02 2.5500000000e-03 0.0000e+00 -1.0000e+00
       -1 -1    0    0    0  501 -0.0000000000e+00 -0.0000000000e+00 -3.2813697699e+00 3.2813736405e+00 5.0400000000e-03 0.0000e+00 1.0000e+00
       24  2    1    2    0    0 -7.1054273576e-15 -1.7763568394e-15 +4.8310795895e+02 4.8967070236e+02 7.9900542901e+01 0.0000e+00 0.0000e+00
       66  2    3    3    0    0 +3.3904505949e+01 +3.6080605283e+00 +2.9947300699e+02 3.0289720219e+02 3.0001659157e+01 0.0000e+00 0.0000e+00
      -13  1    3    3    0    0 -3.3904505949e+01 -3.6080605283e+00 +1.8363495196e+02 1.8677350018e+02 1.0566000000e-01 0.0000e+00 1.0000e+00
       13  1    4    4    0    0 +4.0518286902e+00 -9.9307394960e+00 +8.0391358291e+01 8.1103751791e+01 1.0566000000e-01 0.0000e+00 1.0000e+00
      -13  1    4    4    0    0 +2.7762352340e+01 +1.3748484332e+01 +1.7933115380e+02 1.8198748011e+02 1.0566000000e-01 0.0000e+00 -1.0000e+00
      -14  1    4    4    0    0 +2.0903249192e+00 -2.0968430756e-01 +3.9750494898e+01 3.9805970286e+01 0.0000000000e+00 0.0000e+00 1.0000e+00
<mgrwt>
<rscale>  0 0.79900543E+02</rscale>
<asrwt>0</asrwt>
<pdfrwt beam="1">  1        2 0.74829138E-01 0.79900543E+02</pdfrwt>
<pdfrwt beam="2">  1       -1 0.50482635E-03 0.79900543E+02</pdfrwt>
<totfact> 0.30280701E+05</totfact>
</mgrwt>
</event>
<event>
 8      1 +5.0320763e-08 7.92599100e+01 7.81860800e-03 1.33116500e-01
       -2 -1    0    0    0  501 -0.0000000000e+00 +0.0000000000e+00 +1.6317700863e+02 1.6317700865e+02 2.5500000000e-03 0.0000e+00 1.0000e+00
        1 -1    0    0  501    0 +0.0000000000e+00 -0.0000000000e+00 -9.6247216678e+00 9.6247229874e+00 5.0400000000e-03 0.0000e+00 -1.0000e+00
      -24  2    1    2    0    0 +0.0000000000e+00 +1.7763568394e-15 +1.5355228697e+02 1.7280173164e+02 7.9259911845e+01 0.0000e+00 0.0000e+00
       66  2    3    3    0    0 -2.2017639977e+01 -2.2481592493e+00 +1.4390958283e+02 1.4865999191e+02 2.9999907901e+01 0.0000e+00 0.0000e+00
       13  1    3    3    0    0 +2.2017639977e+01 +2.2481592493e+00 +9.6427041350e+00 2.4141739731e+01 1.0566000000e-01 0.0000e+00 -1.0000e+00
       13  1    4    4    0    0 -6.4677738903e+00 -2.0565281757e+00 +9.1250730517e+00 1.1372753821e+01 1.0566000000e-01 0.0000e+00 -1.0000e+00
      -13  1    4    4    0    0 -6.8016677804e+00 -9.2539156176e+00 +3.8328610775e+01 4.0012388167e+01 1.0566000000e-01 0.0000e+00 1.0000e+00
      -14  1    4    4    0    0 -8.7481983059e+00 +9.0622845439e+00 +9.6455899004e+01 9.7274849922e+01 0.0000000000e+00 0.0000e+00 1.0000e+00
<mgrwt>
<rscale>  0 0.79259912E+02</rscale>
<asrwt>0</asrwt>
<pdfrwt beam="1">  1        1 0.14807265E-02 0.79259912E+02</pdfrwt>
<pdfrwt beam="2">  1       -2 0.25104155E-01 0.79259912E+02</pdfrwt>
<totfact> 0.94078167E+04</totfact>
</mgrwt>
</event>
<event>
 8      1 +5.0320763e-08 7.92529500e+01 7.81860800e-03 1.33118500e-01
       -2 -1    0    0    0  501 -0.0000000000e+00 +0.0000000000e+00 +1.8616983216e+02 1.8616983217e+02 2.5500000000e-03 0.0000e+00 1.0000e+00
        1 -1    0    0  501    0 +0.0000000000e+00 -0.0000000000e+00 -8.4345420710e+00 8.4345435768e+00 5.0400000000e-03 0.0000e+00 -1.0000e+00
      -24  2    1    2    0    0 -3.5527136788e-15 +0.0000000000e+00 +1.7773529008e+02 1.9460437575e+02 7.9252947703e+01 0.0000e+00 0.0000e+00
       66  2    3    3    0    0 -1.9867318435e+01 -7.8388499311e+00 +1.6640066218e+02 1.7042498651e+02 2.9988960374e+01 0.0000e+00 0.0000e+00
       13  1    3    3    0    0 +1.9867318435e+01 +7.8388499311e+00 +1.1334627904e+01 2.4179389235e+01 1.0566000000e-01 0.0000e+00 -1.0000e+00
       13  1    4    4    0    0 -2.0119575087e+01 -2.2380021639e+00 +6.4271534333e+01 6.7384324920e+01 1.0566000000e-01 0.0000e+00 1.0000e+00
      -13  1    4    4    0    0 -2.1397233948e+00 -5.9891854099e+00 +2.2693792565e+01 2.3568371669e+01 1.0566000000e-01 0.0000e+00 -1.0000e+00
      -14  1    4    4    0    0 +2.3919800466e+00 +3.8833764263e-01 +7.9435335282e+01 7.9472289926e+01 0.0000000000e+00 0.0000e+00 1.0000e+00
<mgrwt>
<rscale>  0 0.79252948E+02</rscale>
<asrwt>0</asrwt>
<pdfrwt beam="1">  1        1 0.12976220E-02 0.79252948E+02</pdfrwt>
<pdfrwt beam="2">  1       -2 0.28641512E-01 0.79252948E+02</pdfrwt>
<totfact> 0.89662551E+04</totfact>
</mgrwt>
</event>
<event>
 8      1 +5.0320763e-08 8.05223700e+01 7.81860800e-03 1.32757600e-01
       -2 -1    0    0    0  501 -0.0000000000e+00 +0.0000000000e+00 +7.3219869747e+01 7.3219869791e+01 2.5500000000e-03 0.0000e+00 1.0000e+00
        1 -1    0    0  501    0 +0.0000000000e+00 -0.0000000000e+00 -2.2138291235e+01 2.2138291809e+01 5.0400000000e-03 0.0000e+00 -1.0000e+00
      -24  2    1    2    0    0 +0.0000000000e+00 +3.5527136788e-15 +5.1081578512e+01 9.5358161600e+01 8.0522365343e+01 0.0000e+00 0.0000e+00
       66  2    3    3    0    0 +2.1693094749e+01 -2.4086838348e+01 +4.3658872374e+01 6.2103479646e+01 2.9999648428e+01 0.0000e+00 0.0000e+00
       13  1    3    3    0    0 -2.1693094749e+01 +2.4086838348e+01 +7.4227061378e+00 3.3254681954e+01 1.0566000000e-01 0.0000e+00 -1.0000e+00
       13  1    4    4    0    0 +4.1906973862e+00 +2.0496887464e+00 +3.8979934445e+00 6.0801879468e+00 1.0566000000e-01 0.0000e+00 -1.0000e+00
      -13  1    4    4    0    0 +1.8999669673e+01 -9.5478356351e+00 +1.4397193286e+01 2.5679543445e+01 1.0566000000e-01 0.0000e+00 1.0000e+00
      -14  1    4    4    0    0 -1.4972723099e+00 -1.6588691459e+01 +2.5363685644e+01 3.0343748254e+01 0.0000000000e+00 0.0000e+00 1.0000e+00
<mgrwt>
<rscale>  0 0.80522365E+02</rscale>
<asrwt>0</asrwt>
<pdfrwt beam="1">  1        1 0.34058909E-02 0.80522365E+02</pdfrwt>
<pdfrwt beam="2">  1       -2 0.11264596E-01 0.80522365E+02</pdfrwt>
<totfact> 0.11199644E+05</totfact>
</mgrwt>
</event>
<event>
 8      1 +5.0320763e-08 7.78225900e+01 7.81860800e-03 1.33534700e-01
       -3 -1    0    0    0  501 -0.0000000000e+00 +0.0000000000e+00 +5.0292105258e+01 5.0292206676e+01 1.0100000000e-01 0.0000e+00 1.0000e+00
        4 -1    0    0  501    0 +0.0000000000e+00 -0.0000000000e+00 -3.0084400368e+01 3.0111194688e+01 1.2700000000e+00 0.0000e+00 -1.0000e+00
       24  2    1    2    0    0 -3.5527136788e-15 +1.6653345369e-16 +2.0207704890e+01 8.0403401363e+01 7.7822590639e+01 0.0000e+00 0.0000e+00
       66  2    3    3    0    0 +2.3929743546e+01 -4.7040542962e-01 -1.2059955631e+01 4.0227948821e+01 2.9999857151e+01 0.0000e+00 0.0000e+00
      -13  1    3    3    0    0 -2.3929743546e+01 +4.7040542962e-01 +3.2267660521e+01 4.0175452542e+01 1.0566000000e-01 0.0000e+00 1.0000e+00
       13  1    4    4    0    0 +1.0274422634e+01 -4.2152887372e+00 -7.2710577884e+00 1.3274481722e+01 1.0566000000e-01 0.0000e+00 -1.0000e+00
      -13  1    4    4    0    0 -5.7369539258e+00 +2.9750965199e+00 -3.8501958514e+00 7.5232314718e+00 1.0566000000e-01 0.0000e+00 1.0000e+00
      -14  1    4    4    0    0 +1.9392274838e+01 +7.6978678771e-01 -9.3870199134e-01 1.9430235627e+01 0.0000000000e+00 0.0000e+00 1.0000e+00
<mgrwt>
<rscale>  0 0.77822591E+02</rscale>
<asrwt>0</asrwt>
<pdfrwt beam="1">  1        4 0.46316636E-02 0.77822591E+02</pdfrwt>
<pdfrwt beam="2">  1       -3 0.77372683E-02 0.77822591E+02</pdfrwt>
<totfact> 0.48887999E+04</totfact>
</mgrwt>
</event>
<event>
 8      1 +5.0320763e-08 8.02060300e+01 7.81860800e-03 1.32846800e-01
       -2 -1    0    0    0  501 -0.0000000000e+00 +0.0000000000e+00 +6.7308746115e+01 6.7308746163e+01 2.5500000000e-03 0.0000e+00 1.0000e+00
        1 -1    0    0  501    0 +0.0000000000e+00 -0.0000000000e+00 -2.3893653702e+01 2.3893654233e+01 5.0400000000e-03 0.0000e+00 -1.0000e+00
      -24  2    1    2    0    0 -3.5527136788e-15 -1.3322676296e-15 +4.3415092413e+01 9.1202400397e+01 8.0206032123e+01 0.0000e+00 0.0000e+00
       66  2    3    3    0    0 -1.8743807916e+01 -2.4930142281e+00 +5.7547075554e+01 6.7595842692e+01 2.9999776488e+01 0.0000e+00 0.0000e+00
       13  1    3    3    0    0 +1.8743807916e+01 +2.4930142281e+00 -1.4131983141e+01 2.3606557705e+01 1.0566000000e-01 0.0000e+00 -1.0000e+00
       13  1    4    4    0    0 +1.4819617007e+00 -7.9218923902e+00 +9.3194262000e+00 1.2321341577e+01 1.0566000000e-01 0.0000e+00 -1.0000e+00
      -13  1    4    4    0    0 -1.4939213746e+00 +7.3122538204e+00 +1.9974382163e+01 2.1323413512e+01 1.0566000000e-01 0.0000e+00 1.0000e+00
       14  1    4    4    0    0 -1.8731848242e+01 -1.8833756584e+00 +2.8253267191e+01 3.3951087603e+01 0.0000000000e+00 0.0000e+00 -1.0000e+00
<mgrwt>
<rscale>  0 0.80206032E+02</rscale>
<asrwt>0</asrwt>
<pdfrwt beam="1">  1        1 0.36759468E-02 0.80206032E+02</pdfrwt>
<pdfrwt beam="2">  1       -2 0.10355192E-01 0.80206032E+02</pdfrwt>
<totfact> 0.11505737E+05</totfact>
</mgrwt>
</event>
<event>
 8      1 +5.0320763e-08 8.24551200e+01 7.81860800e-03 1.32222500e-01
       -2 -1    0    0    0  501 -0.0000000000e+00 +0.0000000000e+00 +4.8344136752e+02 4.8344136753e+02 2.5500000000e-03 0.0000e+00 1.0000e+00
        1 -1    0    0  501    0 +0.0000000000e+00 -0.0000000000e+00 -3.5158573007e+00 3.5158609132e+00 5.0400000000e-03 0.0000e+00 -1.0000e+00
      -24  2    1    2    0    0 +0.0000000000e+00 +0.0000000000e+00 +4.7992551022e+02 4.8695722844e+02 8.2455120949e+01 0.0000e+00 0.0000e+00
       66  2    3    3    0    0 -1.3146030716e+01 -2.0033218631e+01 +4.2857301934e+02 4.3028944697e+02 3.0000455037e+01 0.0000e+00 0.0000e+00
       13  1    3    3    0    0 +1.3146030716e+01 +2.0033218631e+01 +5.1352490885e+01 5.6667781467e+01 1.0566000000e-01 0.0000e+00 -1.0000e+00
       13  1    4    4    0    0 +2.6183184581e+00 -1.4765146905e+00 +1.4231612289e+02 1.4234790370e+02 1.0566000000e-01 0.0000e+00 -1.0000e+00
      -13  1    4    4    0    0 -8.4955543739e+00 -4.9616335621e+00 +2.0495097983e+02 2.0518700629e+02 1.0566000000e-01 0.0000e+00 1.0000e+00
       14  1    4    4    0    0 -7.2687948000e+00 -1.3595070378e+01 +8.1305916610e+01 8.2754536989e+01 0.0000000000e+00 0.0000e+00 -1.0000e+00
<mgrwt>
<rscale>  0 0.82455121E+02</rscale>
<asrwt>0</asrwt>
<pdfrwt beam="1">  1        1 0.54090171E-03 0.82455121E+02</pdfrwt>
<pdfrwt beam="2">  1       -2 0.74375552E-01 0.82455121E+02</pdfrwt>
<totfact> 0.47804619E+04</totfact>
</mgrwt>
</event>
<event>
 8      1 +5.0320763e-08 8.00957900e+01 7.81860800e-03 1.32878000e-01
       -2 -1    0    0    0  501 -0.0000000000e+00 +0.0000000000e+00 +1.0900644484e+01 1.0900644782e+01 2.5500000000e-03 0.0000e+00 1.0000e+00
        1 -1    0    0  501    0 +0.0000000000e+00 -0.0000000000e+00 -1.4713201087e+02 1.4713201095e+02 5.0400000000e-03 0.0000e+00 -1.0000e+00
      -24  2    1    2    0    0 +0.0000000000e+00 -3.5527136788e-15 -1.3623136638e+02 1.5803265574e+02 8.0095786983e+01 0.0000e+00 0.0000e+00
       66  2    3    3    0    0 +1.3853293293e+01 +2.4078432126e+01 -3.7539017626e+01 5.5505217965e+01 2.9999445800e+01 0.0000e+00 0.0000e+00
       13  1    3    3    0    0 -1.3853293293e+01 -2.4078432126e+01 -9.8692348757e+01 1.0252743777e+02 1.0566000000e-01 0.0000e+00 -1.0000e+00
       13  1    4    4    0    0 -4.7057918151e+00 -7.5838169139e-01 +1.6951908540e-01 4.7706938859e+00 1.0566000000e-01 0.0000e+00 -1.0000e+00
      -13  1    4    4    0    0 +4.2967265062e+00 -4.5186278605e-01 -8.5848106533e+00 9.6112526049e+00 1.0566000000e-01 0.0000e+00 1.0000e+00
      -14  1    4    4    0    0 +1.4262358602e+01 +2.5288676603e+01 -2.9123726058e+01 4.1123271474e+01 0.0000000000e+00 0.0000e+00 1.0000e+00
<mgrwt>
<rscale>  0 0.80095787E+02</rscale>
<asrwt>0</asrwt>
<pdfrwt beam="1">  1        1 0.22635693E-01 0.80095787E+02</pdfrwt>
<pdfrwt beam="2">  1       -2 0.16770224E-02 0.80095787E+02</pdfrwt>
<totfact> 0.15682163E+05</totfact>
</mgrwt>
</event>
<event>
 8      1 +5.0320763e-08 8.03779900e+01 7.81860800e-03 1.32798200e-01
       -3 -1    0    0    0  501 -0.0000000000e+00 +0.0000000000e+00 +9.9061811448e+01 9.9061862936e+01 1.0100000000e-01 0.0000e+00 1.0000e+00
        4 -1    0    0  501    0 +0.0000000000e+00 -0.0000000000e+00 -1.6275684795e+01 1.6325158974e+01 1.2700000000e+00 0.0000e+00 -1.0000e+00
       24  2    1    2    0    0 -8.8817841970e-16 +0.0000000000e+00 +8.2786126653e+01 1.1538702191e+02 8.0377994868e+01 0.0000e+00 0.0000e+00
       66  2    3    3    0    0 +7.4218383151e+00 +3.3727138323e+01 +4.4334256206e+01 6.3703745618e+01 3.0000623143e+01 0.0000e+00 0.0000e+00
      -13  1    3    3    0    0 -7.4218383151e+00 -3.3727138323e+01 +3.8451870447e+01 5.1683276292e+01 1.0566000000e-01 0.0000e+00 1.0000e+00
       13  1    4    4    0    0 +2.9706816448e+00 -1.7532569967e-01 -1.2429384400e+00 3.2267241185e+00 1.0566000000e-01 0.0000e+00 -1.0000e+00
      -13  1    4    4    0    0 -6.5262880315e+00 +5.5092162888e+00 +5.5375483894e+00 1.0179366669e+01 1.0566000000e-01 0.0000e+00 1.0000e+00
       14  1    4    4    0    0 +1.0977444702e+01 +2.8393247733e+01 +4.0039646257e+01 5.0297654830e+01 0.0000000000e+00 0.0000e+00 -1.0000e+00
<mgrwt>
<rscale>  0 0.80377995E+02</rscale>
<asrwt>0</asrwt>
<pdfrwt beam="1">  1        4 0.25083833E-02 0.80377995E+02</pdfrwt>
<pdfrwt beam="2">  1       -3 0.15240307E-01 0.80377995E+02</pdfrwt>
<totfact> 0.42142726E+04</totfact>
</mgrwt>
</event>
<event>
 8      1 +5.0320763e-08 8.11909300e+01 7.81860800e-03 1.32570500e-01
       -2 -1    0    0    0  501 -0.0000000000e+00 +0.0000000000e+00 +6.6736707627e+00 6.6736712499e+00 2.5500000000e-03 0.0000e+00 1.0000e+00
        1 -1    0    0  501    0 +0.0000000000e+00 -0.0000000000e+00 -2.4693934674e+02 2.4693934679e+02 5.0400000000e-03 0.0000e+00 -1.0000e+00
      -24  2    1    2    0    0 -3.5527136788e-15 +1.7763568394e-15 -2.4026567598e+02 2.5361301804e+02 8.1190934637e+01 0.0000e+00 0.0000e+00
       66  2    3    3    0    0 -2.9535494506e+01 +1.4273970176e+01 -1.7512345581e+02 1.8067735000e+02 2.9999806136e+01 0.0000e+00 0.0000e+00
       13  1    3    3    0    0 +2.9535494506e+01 -1.4273970176e+01 -6.5142220174e+01 7.2935668047e+01 1.0566000000e-01 0.0000e+00 -1.0000e+00
       13  1    4    4    0    0 -5.5061977438e-01 +2.0979384823e-02 -4.9902456134e+01 4.9905610051e+01 1.0566000000e-01 0.0000e+00 -1.0000e+00
      -13  1    4    4    0    0 -2.0835975695e+00 +1.0272568623e+01 -3.3004421795e+01 3.4629035028e+01 1.0566000000e-01 0.0000e+00 1.0000e+00
      -14  1    4    4    0    0 -2.6901277162e+01 +3.9804221676e+00 -9.2216577877e+01 9.6142704918e+01 0.0000000000e+00 0.0000e+00 1.0000e+00
<mgrwt>
<rscale>  0 0.81190935E+02</rscale>
<asrwt>0</asrwt>
<pdfrwt beam="1">  1        1 0.37990662E-01 0.81190935E+02</pdfrwt>
<pdfrwt beam="2">  1       -2 0.10267188E-02 0.81190935E+02</pdfrwt>
<totfact> 0.16707142E+05</totfact>
</mgrwt>
</event>
<event>
 8      1 +5.0320763e-08 8.01405900e+01 7.81860800e-03 1.32865300e-01
       -1 -1    0    0    0  501 -0.0000000000e+00 +0.0000000000e+00 +8.2879954156e+01 8.2879954309e+01 5.0400000000e-03 0.0000e+00 1.0000e+00
        2 -1    0    0  501    0 +0.0000000000e+00 -0.0000000000e+00 -1.9372940225e+01 1.9372940393e+01 2.5500000000e-03 0.0000e+00 -1.0000e+00
       24  2    1    2    0    0 +1.7763568394e-15 +0.0000000000e+00 +6.3507013931e+01 1.0225289470e+02 8.0140586825e+01 0.0000e+00 0.0000e+00
       66  2    3    3    0    0 +1.2595791658e+01 +5.4931006206e+00 -4.1154984417e+00 3.3248232067e+01 2.9994657628e+01 0.0000e+00 0.0000e+00
      -13  1    3    3    0    0 -1.2595791658e+01 -5.4931006206e+00 +6.7622512372e+01 6.9004662636e+01 1.0566000000e-01 0.0000e+00 1.0000e+00
       13  1    4    4    0    0 +6.8936177935e+00 +9.6898500965e+00 +1.5129624201e+00 1.1988134988e+01 1.0566000000e-01 0.0000e+00 -1.0000e+00
      -13  1    4    4    0    0 -6.5537425704e+00 -1.2484889004e+00 +1.4141285716e+00 6.8206443879e+00 1.0566000000e-01 0.0000e+00 1.0000e+00
      -14  1    4    4    0    0 +1.2255916435e+01 -2.9482605755e+00 -7.0425894334e+00 1.4439452690e+01 0.0000000000e+00 0.0000e+00 1.0000e+00
<mgrwt>
<rscale>  0 0.80140587E+02</rscale>
<asrwt>0</asrwt>
<pdfrwt beam="1">  1        2 0.29804524E-02 0.80140587E+02</pdfrwt>
<pdfrwt beam="2">  1       -1 0.12750762E-01 0.80140587E+02</pdfrwt>
<totfact> 0.12273524E+05</totfact>
</mgrwt>
</event>
<event>
 8      1 +5.0320763e-08 7.71286300e+01 7.81860800e-03 1.33740300e-01
        2 -1    0    0  501    0 +0.0000000000e+00 +0.0000000000e+00 +1.2470881970e+02 1.2470881973e+02 2.5500000000e-03 0.0000e+00 -1.0000e+00
       -1 -1    0    0    0  501 -0.0000000000e+00 -0.0000000000e+00 -1.1925429417e+01 1.1925430482e+01 5.0400000000e-03 0.0000e+00 1.0000e+00
       24  2    1    2    0    0 +0.0000000000e+00 +2.6645352591e-15 +1.1278339029e+02 1.3663425021e+02 7.7128627671e+01 0.0000e+00 0.0000e+00
       66  2    3    3    0    0 -2.9165341079e+01 -6.2134797266e+00 +8.8821386505e+01 9.8379665652e+01 3.0001590998e+01 0.0000e+00 0.0000e+00
      -13  1    3    3    0    0 +2.9165341079e+01 +6.2134797266e+00 +2.3962003780e+01 3.8254584559e+01 1.0566000000e-01 0.0000e+00 1.0000e+00
       13  1    4    4    0    0 -7.0293215264e+00 +5.5064183220e+00 +2.6246939673e+01 2.7724447877e+01 1.0566000000e-01 0.0000e+00 -1.0000e+00
      -13  1    4    4    0    0 -7.8458912574e-01 +5.1720222992e+00 +1.4382376767e+01 1.5304552273e+01 1.0566000000e-01 0.0000e+00 1.0000e+00
       14  1    4    4    0    0 -2.1351430427e+01 -1.6891920348e+01 +4.8192070065e+01 5.5350665502e+01 0.0000000000e+00 0.0000e+00 -1.0000e+00
<mgrwt>
<rscale>  0 0.77128628E+02</rscale>
<asrwt>0</asrwt>
<pdfrwt beam="1">  1        2 0.19185974E-01 0.77128628E+02</pdfrwt>
<pdfrwt beam="2">  1       -1 0.18346814E-02 0.77128628E+02</pdfrwt>
<totfact> 0.20834067E+05</totfact>
</mgrwt>
</event>
<event>
 8      1 +5.0320763e-08 7.95081600e+01 7.81860800e-03 1.33045300e-01
       -1 -1    0    0    0  501 -0.0000000000e+00 +0.0000000000e+00 +3.3746206931e+00 3.3746244567e+00 5.0400000000e-03 0.0000e+00 1.0000e+00
        2 -1    0    0  501    0 +0.0000000000e+00 -0.0000000000e+00 -4.6831508908e+02 4.6831508909e+02 2.5500000000e-03 0.0000e+00 -1.0000e+00
       24  2    1    2    0    0 +7.1054273576e-15 +0.0000000000e+00 -4.6494046839e+02 4.7168971354e+02 7.9508155048e+01 0.0000e+00 0.0000e+00
       66  2    3    3    0    0 +3.0664365802e+01 +9.4261118807e+00 -3.3405465173e+02 3.3692969321e+02 2.9999215100e+01 0.0000e+00 0.0000e+00
      -13  1    3    3    0    0 -3.0664365802e+01 -9.4261118807e+00 -1.3088581665e+02 1.3476002033e+02 1.0566000000e-01 0.0000e+00 1.0000e+00
       13  1    4    4    0    0 +1.2892734636e+01 +1.8852018270e+00 -1.5391538993e+02 1.5446596717e+02 1.0566000000e-01 0.0000e+00 -1.0000e+00
      -13  1    4    4    0    0 +9.3060336665e-01 +4.5993935069e+00 -1.1570115975e+02 1.1579632971e+02 1.0566000000e-01 0.0000e+00 1.0000e+00
      -14  1    4    4    0    0 +1.6841027800e+01 +2.9415165468e+00 -6.4438102055e+01 6.6667396329e+01 0.0000000000e+00 0.0000e+00 1.0000e+00
<mgrwt>
<rscale>  0 0.79508155E+02</rscale>
<asrwt>0</asrwt>
<pdfrwt beam="1">  1        2 0.72048424E-01 0.79508155E+02</pdfrwt>
<pdfrwt beam="2">  1       -1 0.51917308E-03 0.79508155E+02</pdfrwt>
<totfact> 0.30294771E+05</totfact>
</mgrwt>
</event>
<event>
 8      1 +5.0320763e-08 9.03545700e+01 7.81860800e-03 1.30199500e-01
       -1 -1    0    0    0  501 -0.0000000000e+00 +0.0000000000e+00 +5.4604265054e+01 5.4604265287e+01 5.0400000000e-03 0.0000e+00 1.0000e+00
        2 -1    0    0  501    0 +0.0000000000e+00 -0.0000000000e+00 -3.7377799588e+01 3.7377799675e+01 2.5500000000e-03 0.0000e+00 -1.0000e+00
       24  2    1    2    0    0 +0.0000000000e+00 -3.5527136788e-15 +1.7226465467e+01 9.1982064962e+01 9.0354574661e+01 0.0000e+00 0.0000e+00
       66  2    3    3    0    0 +2.2639455738e+01 -1.9628224778e+01 -1.7714923542e+01 4.5952465855e+01 2.9999973967e+01 0.0000e+00 0.0000e+00
      -13  1    3    3    0    0 -2.2639455738e+01 +1.9628224778e+01 +3.4941389008e+01 4.6029599107e+01 1.0566000000e-01 0.0000e+00 1.0000e+00
       13  1    4    4    0    0 +7.8070816989e+00 -7.7885757293e+00 +4.6922913833e+00 1.1985040634e+01 1.0566000000e-01 0.0000e+00 -1.0000e+00
      -13  1    4    4    0    0 +1.1712513083e+01 -8.6251057038e+00 -2.4902614098e+01 2.8839673439e+01 1.0566000000e-01 0.0000e+00 1.0000e+00
      -14  1    4    4    0    0 +3.1198609559e+00 -3.2145433451e+00 +2.4953991733e+00 5.1277517818e+00 0.0000000000e+00 0.0000e+00 1.0000e+00
<mgrwt>
<rscale>  0 0.90354575E+02</rscale>
<asrwt>0</asrwt>
<pdfrwt beam="1">  1        2 0.57504308E-02 0.90354575E+02</pdfrwt>
<pdfrwt beam="2">  1       -1 0.84006561E-02 0.90354575E+02</pdfrwt>
<totfact> 0.99984282E+04</totfact>
</mgrwt>
</event>
<event>
 8      1 +5.0320763e-08 6.50545600e+01 7.81860800e-03 1.37776600e-01
        2 -1    0    0  501    0 +0.0000000000e+00 +0.0000000000e+00 +5.8056658004e+02 5.8056658005e+02 2.5500000000e-03 0.0000e+00 -1.0000e+00
       -1 -1    0    0    0  501 -0.0000000000e+00 -0.0000000000e+00 -1.8223955638e+00 1.8224025331e+00 5.0400000000e-03 0.0000e+00 1.0000e+00
       24  2    1    2    0    0 +0.0000000000e+00 +2.6645352591e-15 +5.7874418448e+02 5.8238898258e+02 6.5054561439e+01 0.0000e+00 0.0000e+00
       66  2    3    3    0    0 -2.2575760580e+01 -3.3360918006e+00 +4.5495587438e+02 4.5651463509e+02 2.9999499122e+01 0.0000e+00 0.0000e+00
      -13  1    3    3    0    0 +2.2575760580e+01 +3.3360918006e+00 +1.2378831010e+02 1.2587434749e+02 1.0566000000e-01 0.0000e+00 1.0000e+00
       13  1    4    4    0    0 -1.4407926539e+01 -1.5149994516e+01 +2.4645027769e+02 2.4733552356e+02 1.0566000000e-01 0.0000e+00 -1.0000e+00
      -13  1    4    4    0    0 -6.5029527392e+00 +2.5076530937e+00 +1.1009764700e+02 1.1031808445e+02 1.0566000000e-01 0.0000e+00 1.0000e+00
      -14  1    4    4    0    0 -1.6648813023e+00 +9.3062496220e+00 +9.8407949692e+01 9.8861027075e+01 0.0000000000e+00 0.0000e+00 1.0000e+00
<mgrwt>
<rscale>  0 0.65054561E+02</rscale>
<asrwt>0</asrwt>
<pdfrwt beam="1">  1        2 0.89318144E-01 0.65054561E+02</pdfrwt>
<pdfrwt beam="2">  1       -1 0.28036843E-03 0.65054561E+02</pdfrwt>
<totfact> 0.54268924E+05</totfact>
</mgrwt>
</event>
<event>
 8      1 +5.0320763e-08 8.08792000e+01 7.81860800e-03 1.32657500e-01
        1 -1    0    0  501    0 +0.0000000000e+00 +0.0000000000e+00 +2.0603475294e+02 2.0603475300e+02 5.0400000000e-03 0.0000e+00 -1.0000e+00
       -2 -1    0    0    0  501 -0.0000000000e+00 -0.0000000000e+00 -7.9373077876e+00 7.9373081972e+00 2.5500000000e-03 0.0000e+00 1.0000e+00
      -24  2    1    2    0    0 +0.0000000000e+00 +1.3322676296e-15 +1.9809744515e+02 2.1397206120e+02 8.0879201268e+01 0.0000e+00 0.0000e+00
       66  2    3    3    0    0 +3.0886398793e+01 -2.0403720310e+00 +7.0159593958e+01 8.2342893911e+01 2.9997513313e+01 0.0000e+00 0.0000e+00
       13  1    3    3    0    0 -3.0886398793e+01 +2.0403720310e+00 +1.2793785119e+02 1.3162916729e+02 1.0566000000e-01 0.0000e+00 -1.0000e+00
       13  1    4    4    0    0 -3.4238736042e+00 +1.1196307608e+00 +3.2824928093e+00 4.8746698942e+00 1.0566000000e-01 0.0000e+00 -1.0000e+00
      -13  1    4    4    0    0 +9.3072419217e+00 -7.9327191481e+00 +1.2818779824e+01 1.7716801785e+01 1.0566000000e-01 0.0000e+00 1.0000e+00
      -14  1    4    4    0    0 +2.5003030476e+01 +4.7727163564e+00 +5.4058321324e+01 5.9751422232e+01 0.0000000000e+00 0.0000e+00 1.0000e+00
<mgrwt>
<rscale>  0 0.80879201E+02</rscale>
<asrwt>0</asrwt>
<pdfrwt beam="1">  1        1 0.31697650E-01 0.80879201E+02</pdfrwt>
<pdfrwt beam="2">  1       -2 0.12211245E-02 0.80879201E+02</pdfrwt>
<totfact> 0.16290824E+05</totfact>
</mgrwt>
</event>
<event>
 8      1 +5.0320763e-08 7.98666200e+01 7.81860800e-03 1.32943000e-01
       -2 -1    0    0    0  501 -0.0000000000e+00 +0.0000000000e+00 +1.7361208088e+01 1.7361208276e+01 2.5500000000e-03 0.0000e+00 1.0000e+00
        1 -1    0    0  501    0 +0.0000000000e+00 -0.0000000000e+00 -9.1852441692e+01 9.1852441831e+01 5.0400000000e-03 0.0000e+00 -1.0000e+00
      -24  2    1    2    0    0 +0.0000000000e+00 +0.0000000000e+00 -7.4491233604e+01 1.0921365011e+02 7.9866623102e+01 0.0000e+00 0.0000e+00
       66  2    3    3    0    0 +1.8690571907e+01 -6.5020685867e+00 -4.1926654269e+00 3.6182737296e+01 2.9999961012e+01 0.0000e+00 0.0000e+00
       13  1    3    3    0    0 -1.8690571907e+01 +6.5020685867e+00 -7.0298568177e+01 7.3030912811e+01 1.0566000000e-01 0.0000e+00 -1.0000e+00
       13  1    4    4    0    0 +1.2891524146e+01 +1.0354420421e+00 +5.2639667210e+00 1.3963668741e+01 1.0566000000e-01 0.0000e+00 -1.0000e+00
      -13  1    4    4    0    0 +9.6905171513e+00 -4.3348963460e-01 +8.7317491278e-02 9.7011764391e+00 1.0566000000e-01 0.0000e+00 1.0000e+00
       14  1    4    4    0    0 -3.8914693902e+00 -7.1040209942e+00 -9.5439496391e+00 1.2517892115e+01 0.0000000000e+00 0.0000e+00 -1.0000e+00
<mgrwt>
<rscale>  0 0.79866623E+02</rscale>
<asrwt>0</asrwt>
<pdfrwt beam="1">  1        1 0.14131145E-01 0.79866623E+02</pdfrwt>
<pdfrwt beam="2">  1       -2 0.26709551E-02 0.79866623E+02</pdfrwt>
<totfact> 0.14558020E+05</totfact>
</mgrwt>
</event>
<event>
 8      1 +5.0320763e-08 7.94476900e+01 7.81860800e-03 1.33062600e-01
        2 -1    0    0  501    0 +0.0000000000e+00 +0.0000000000e+00 +5.4968289323e+02 5.4968289324e+02 2.5500000000e-03 0.0000e+00 -1.0000e+00
       -1 -1    0    0    0  501 -0.0000000000e+00 -0.0000000000e+00 -2.8707145083e+00 2.8707189325e+00 5.0400000000e-03 0.0000e+00 1.0000e+00
       24  2    1    2    0    0 +3.5527136788e-15 -3.5527136788e-15 +5.4681217872e+02 5.5255361217e+02 7.9447690476e+01 0.0000e+00 0.0000e+00
       66  2    3    3    0    0 +2.2092887148e+01 -2.2675718690e+01 +3.9975472545e+02 4.0212692036e+02 2.9998927990e+01 0.0000e+00 0.0000e+00
      -13  1    3    3    0    0 -2.2092887148e+01 +2.2675718690e+01 +1.4705745328e+02 1.5042669181e+02 1.0566000000e-01 0.0000e+00 1.0000e+00
       13  1    4    4    0    0 +1.2534145277e+01 -1.6937143377e+01 +2.4186713740e+02 2.4278322624e+02 1.0566000000e-01 0.0000e+00 -1.0000e+00
      -13  1    4    4    0    0 -2.1636909538e+00 -7.0176890481e+00 +9.9880699686e+01 1.0015036122e+02 1.0566000000e-01 0.0000e+00 1.0000e+00
      -14  1    4    4    0    0 +1.1722432825e+01 +1.2791137345e+00 +5.8006888358e+01 5.9193332904e+01 0.0000000000e+00 0.0000e+00 1.0000e+00
<mgrwt>
<rscale>  0 0.79447690E+02</rscale>
<asrwt>0</asrwt>
<pdfrwt beam="1">  1        2 0.84566529E-01 0.79447690E+02</pdfrwt>
<pdfrwt beam="2">  1       -1 0.44164909E-03 0.79447690E+02</pdfrwt>
<totfact> 0.31928253E+05</totfact>
</mgrwt>
</event>
<event>
 8      1 +5.0320763e-08 7.77158400e+01 7.81860800e-03 1.33566100e-01
       -2 -1    0    0    0  501 -0.0000000000e+00 +0.0000000000e+00 +9.4655177809e+00 9.4655181244e+00 2.5500000000e-03 0.0000e+00 1.0000e+00
        1 -1    0    0  501    0 +0.0000000000e+00 -0.0000000000e+00 -1.5951984229e+02 1.5951984237e+02 5.0400000000e-03 0.0000e+00 -1.0000e+00
      -24  2    1    2    0    0 +1.7763568394e-15 -3.5527136788e-15 -1.5005432451e+02 1.6898536049e+02 7.7715839810e+01 0.0000e+00 0.0000e+00
       66  2    3    3    0    0 -9.3339766358e+00 +2.3576628812e+01 -4.0058424528e+01 5.6104495319e+01 3.0000941207e+01 0.0000e+00 0.0000e+00
       13  1    3    3    0    0 +9.3339766358e+00 -2.3576628812e+01 -1.0999589998e+02 1.1288086517e+02 1.0566000000e-01 0.0000e+00 -1.0000e+00
       13  1    4    4    0    0 +3.7837207586e+00 +1.3656375157e+01 -2.1674808501e+01 2.5896362926e+01 1.0566000000e-01 0.0000e+00 -1.0000e+00
      -13  1    4    4    0    0 +1.9483580362e+00 +2.7064273579e+00 +1.9723303823e+00 3.8758352975e+00 1.0566000000e-01 0.0000e+00 1.0000e+00
      -14  1    4    4    0    0 -1.5066055431e+01 +7.2138262980e+00 -2.0355946409e+01 2.6332297095e+01 0.0000000000e+00 0.0000e+00 1.0000e+00
<mgrwt>
<rscale>  0 0.77715840E+02</rscale>
<asrwt>0</asrwt>
<pdfrwt beam="1">  1        1 0.24541512E-01 0.77715840E+02</pdfrwt>
<pdfrwt beam="2">  1       -2 0.14562337E-02 0.77715840E+02</pdfrwt>
<totfact> 0.17250869E+05</totfact>
</mgrwt>
</event>
<event>
 8      1 +5.0320763e-08 7.96881000e+01 7.81860800e-03 1.32993900e-01
       -1 -1    0    0    0  501 -0.0000000000e+00 +0.0000000000e+00 +5.5595740131e+00 5.5595762975e+00 5.0400000000e-03 0.0000e+00 1.0000e+00
        2 -1    0    0  501    0 +0.0000000000e+00 -0.0000000000e+00 -2.8555207506e+02 2.8555207507e+02 2.5500000000e-03 0.0000e+00 -1.0000e+00
       24  2    1    2    0    0 +0.0000000000e+00 +3.5527136788e-15 -2.7999250104e+02 2.9111165137e+02 7.9688097732e+01 0.0000e+00 0.0000e+00
       66  2    3    3    0    0 +1.1496730649e+01 -2.4905278717e+01 -2.3443492137e+02 2.3793315991e+02 3.0000141731e+01 0.0000e+00 0.0000e+00
      -13  1    3    3    0    0 -1.1496730649e+01 +2.4905278717e+01 -4.5557579672e+01 5.3178491453e+01 1.0566000000e-01 0.0000e+00 1.0000e+00
       13  1    4    4    0    0 +1.0138011044e+01 -1.5496048479e+01 -7.0944307017e+01 7.3321297374e+01 1.0566000000e-01 0.0000e+00 -1.0000e+00
      -13  1    4    4    0    0 -5.1985987496e+00 -1.1171979193e+01 -9.8638185888e+01 9.9404936634e+01 1.0566000000e-01 0.0000e+00 1.0000e+00
       14  1    4    4    0    0 +6.5573183550e+00 +1.7627489541e+00 -6.4852428467e+01 6.5206925905e+01 0.0000000000e+00 0.0000e+00 -1.0000e+00
<mgrwt>
<rscale>  0 0.79688098E+02</rscale>
<asrwt>0</asrwt>
<pdfrwt beam="1">  1        2 0.43931077E-01 0.79688098E+02</pdfrwt>
<pdfrwt beam="2">  1       -1 0.85531948E-03 0.79688098E+02</pdfrwt>
<totfact> 0.25300629E+05</totfact>
</mgrwt>
</event>
<event>
 8      1 +5.0320763e-08 9.84231000e+01 7.81860800e-03 1.28364700e-01
        1 -1    0    0  501    0 +0.0000000000e+00 +0.0000000000e+00 +6.7017640133e+00 6.7017659084e+00 5.0400000000e-03 0.0000e+00 -1.0000e+00
       -2 -1    0    0    0  501 -0.0000000000e+00 -0.0000000000e+00 -3.6136399363e+02 3.6136399364e+02 2.5500000000e-03 0.0000e+00 1.0000e+00
      -24  2    1    2    0    0 +1.7763568394e-15 +0.0000000000e+00 -3.5466222962e+02 3.6806575955e+02 9.8423098074e+01 0.0000e+00 0.0000e+00
       66  2    3    3    0    0 +1.4571833395e+01 +1.7434151222e+01 -3.3749660203e+02 3.3958843714e+02 3.0001038268e+01 0.0000e+00 0.0000e+00
       13  1    3    3    0    0 -1.4571833395e+01 -1.7434151222e+01 -1.7165627589e+01 2.8477322414e+01 1.0566000000e-01 0.0000e+00 -1.0000e+00
       13  1    4    4    0    0 +1.1843449133e+01 +1.1771662799e+01 -1.3879338018e+02 1.3979432348e+02 1.0566000000e-01 0.0000e+00 -1.0000e+00
      -13  1    4    4    0    0 -8.0539989868e+00 -1.0604664557e+00 -7.3368934794e+01 7.3817364120e+01 1.0566000000e-01 0.0000e+00 1.0000e+00
      -14  1    4    4    0    0 +1.0782383248e+01 +6.7229548783e+00 -1.2533428706e+02 1.2597674954e+02 0.0000000000e+00 0.0000e+00 1.0000e+00
<mgrwt>
<rscale>  0 0.98423098E+02</rscale>
<asrwt>0</asrwt>
<pdfrwt beam="1">  1        1 0.10310410E-02 0.98423098E+02</pdfrwt>
<pdfrwt beam="2">  1       -2 0.55594445E-01 0.98423098E+02</pdfrwt>
<totfact> 0.36759059E+04</totfact>
</mgrwt>
</event>
<event>
 8      1 +5.0320763e-08 8.13487400e+01 7.81860800e-03 1.32526700e-01
       -1 -1    0    0    0  501 -0.0000000000e+00 +0.0000000000e+00 +4.7825751642e+01 4.7825751908e+01 5.0400000000e-03 0.0000e+00 1.0000e+00
        2 -1    0    0  501    0 +0.0000000000e+00 -0.0000000000e+00 -3.4592335134e+01 3.4592335228e+01 2.5500000000e-03 0.0000e+00 -1.0000e+00
       24  2    1    2    0    0 +0.0000000000e+00 +0.0000000000e+00 +1.3233416509e+01 8.2418087135e+01 8.1348741690e+01 0.0000e+00 0.0000e+00
       66  2    3    3    0    0 -8.6420715623e+00 +1.6649259851e+01 -2.2590937163e+01 4.1979507357e+01 3.0000755683e+01 0.0000e+00 0.0000e+00
      -13  1    3    3    0    0 +8.6420715623e+00 -1.6649259851e+01 +3.5824353672e+01 4.0438579779e+01 1.0566000000e-01 0.0000e+00 1.0000e+00
       13  1    4    4    0    0 -1.0343135128e+01 +1.6931276959e+01 -2.6340446654e+01 3.2976944639e+01 1.0566000000e-01 0.0000e+00 -1.0000e+00
      -13  1    4    4    0    0 +1.7229834297e-01 -3.8642191384e+00 +3.2931691415e+00 5.0811419286e+00 1.0566000000e-01 0.0000e+00 1.0000e+00
       14  1    4    4    0    0 +1.5287652231e+00 +3.5822020305e+00 +4.5634034902e-01 3.9214207896e+00 0.0000000000e+00 0.0000e+00 -1.0000e+00
<mgrwt>
<rscale>  0 0.81348742E+02</rscale>
<asrwt>0</asrwt>
<pdfrwt beam="1">  1        2 0.53218977E-02 0.81348742E+02</pdfrwt>
<pdfrwt beam="2">  1       -1 0.73578080E-02 0.81348742E+02</pdfrwt>
<totfact> 0.13211336E+05</totfact>
</mgrwt>
</event>
<event>
 8      1 +5.0320763e-08 8.28747800e+01 7.81860800e-03 1.32108600e-01
       -1 -1    0    0    0  501 -0.0000000000e+00 +0.0000000000e+00 +3.3670363426e+00 3.3670401147e+00 5.0400000000e-03 0.0000e+00 1.0000e+00
        2 -1    0    0  501    0 +0.0000000000e+00 -0.0000000000e+00 -5.0996074476e+02 5.0996074476e+02 2.5500000000e-03 0.0000e+00 -1.0000e+00
       24  2    1    2    0    0 +3.5527136788e-15 +0.0000000000e+00 -5.0659370841e+02 5.1332778488e+02 8.2874780982e+01 0.0000e+00 0.0000e+00
       66  2    3    3    0    0 +2.0994925059e+01 +2.8737724872e+01 -3.2035121669e+02 3.2371523098e+02 3.0000083714e+01 0.0000e+00 0.0000e+00
      -13  1    3    3    0    0 -2.0994925059e+01 -2.8737724872e+01 -1.8624249172e+02 1.8961255390e+02 1.0566000000e-01 0.0000e+00 1.0000e+00
       13  1    4    4    0    0 +9.0341838133e+00 +1.5264335950e+00 -8.1685372777e+01 8.2197674946e+01 1.0566000000e-01 0.0000e+00 -1.0000e+00
      -13  1    4    4    0    0 -6.3153392775e+00 +9.9820102817e+00 -6.9337056430e+01 7.0336068968e+01 1.0566000000e-01 0.0000e+00 1.0000e+00
       14  1    4    4    0    0 +1.8276080524e+01 +1.7229280995e+01 -1.6932878748e+02 1.7118148706e+02 0.0000000000e+00 0.0000e+00 -1.0000e+00
<mgrwt>
<rscale>  0 0.82874781E+02</rscale>
<asrwt>0</asrwt>
<pdfrwt beam="1">  1        2 0.78455438E-01 0.82874781E+02</pdfrwt>
<pdfrwt beam="2">  1       -1 0.51800629E-03 0.82874781E+02</pdfrwt>
<totfact> 0.27944659E+05</totfact>
</mgrwt>
</event>
<event>
 8      1 +5.0320763e-08 8.27137900e+01 7.81860800e-03 1.32152200e-01
        2 -1    0    0  501    0 +0.0000000000e+00 +0.0000000000e+00 +2.0764160995e+02 2.0764160997e+02 2.5500000000e-03 0.0000e+00 -1.0000e+00
       -1 -1    0    0    0  501 -0.0000000000e+00 -0.0000000000e+00 -8.2372335838e+00 8.2372351256e+00 5.0400000000e-03 0.0000e+00 1.0000e+00
       24  2    1    2    0    0 +0.0000000000e+00 +0.0000000000e+00 +1.9940437637e+02 2.1587884509e+02 8.2713786300e+01 0.0000e+00 0.0000e+00
       66  2    3    3    0    0 +3.3272353543e+01 -9.7885179014e+00 +1.3717764630e+02 1.4463951823e+02 3.0000316604e+01 0.0000e+00 0.0000e+00
      -13  1    3    3    0    0 -3.3272353543e+01 +9.7885179014e+00 +6.2226730074e+01 7.1239326869e+01 1.0566000000e-01 0.0000e+00 1.0000e+00
       13  1    4    4    0    0 +1.7007808001e+01 -1.4803298785e+01 +7.5726822902e+01 7.9012442431e+01 1.0566000000e-01 0.0000e+00 -1.0000e+00
      -13  1    4    4    0    0 +1.8888475270e+01 +5.8327738660e+00 +4.8242816888e+01 5.2136132330e+01 1.0566000000e-01 0.0000e+00 1.0000e+00
       14  1    4    4    0    0 -2.6239297276e+00 -8.1799298208e-01 +1.3208006506e+01 1.3490943466e+01 0.0000000000e+00 0.0000e+00 -1.0000e+00
<mgrwt>
<rscale>  0 0.82713786E+02</rscale>
<asrwt>0</asrwt>
<pdfrwt beam="1">  1        2 0.31944862E-01 0.82713786E+02</pdfrwt>
<pdfrwt beam="2">  1       -1 0.12672669E-02 0.82713786E+02</pdfrwt>
<totfact> 0.20463601E+05</totfact>
</mgrwt>
</event>
<event>
 8      1 +5.0320763e-08 7.92862100e+01 7.81860800e-03 1.33108900e-01
        3 -1    0    0  501    0 +0.0000000000e+00 +0.0000000000e+00 +1.5295489310e+01 1.5295822770e+01 1.0100000000e-01 0.0000e+00 -1.0000e+00
       -4 -1    0    0    0  501 -0.0000000000e+00 -0.0000000000e+00 -1.0271607877e+02 1.0272392972e+02 1.2700000000e+00 0.0000e+00 1.0000e+00
      -24  2    1    2    0    0 -1.7763568394e-15 +0.0000000000e+00 -8.7420589458e+01 1.1801975249e+02 7.9286206348e+01 0.0000e+00 0.0000e+00
       66  2    3    3    0    0 +1.4595790319e+01 -1.4971068627e+01 -8.9815719070e+01 9.6974140104e+01 2.9999174421e+01 0.0000e+00 0.0000e+00
       13  1    3    3    0    0 -1.4595790319e+01 +1.4971068627e+01 +2.3951296121e+00 2.1045612388e+01 1.0566000000e-01 0.0000e+00 -1.0000e+00
       13  1    4    4    0    0 +9.6172488684e+00 -1.4727281723e+01 -8.4421334838e+01 8.6234315922e+01 1.0566000000e-01 0.0000e+00 1.0000e+00
      -13  1    4    4    0    0 +3.7989906652e+00 -1.3995817814e+00 -7.2198597894e+00 8.2782062460e+00 1.0566000000e-01 0.0000e+00 -1.0000e+00
       14  1    4    4    0    0 +1.1795507859e+00 +1.1557948780e+00 +1.8254755565e+00 2.4616179363e+00 0.0000000000e+00 0.0000e+00 -1.0000e+00
<mgrwt>
<rscale>  0 0.79286206E+02</rscale>
<asrwt>0</asrwt>
<pdfrwt beam="1">  1        3 0.23531819E-02 0.79286206E+02</pdfrwt>
<pdfrwt beam="2">  1       -4 0.15807132E-01 0.79286206E+02</pdfrwt>
<totfact> 0.41215312E+04</totfact>
</mgrwt>
</event>
<event>
 8      1 +5.0320763e-08 8.15726400e+01 7.81860800e-03 1.32464700e-01
       -1 -1    0    0    0  501 -0.0000000000e+00 +0.0000000000e+00 +3.6756130004e+01 3.6756130349e+01 5.0400000000e-03 0.0000e+00 1.0000e+00
        2 -1    0    0  501    0 +0.0000000000e+00 -0.0000000000e+00 -4.5258405559e+01 4.5258405631e+01 2.5500000000e-03 0.0000e+00 -1.0000e+00
       24  2    1    2    0    0 +1.7763568394e-15 +0.0000000000e+00 -8.5022755554e+00 8.2014535981e+01 8.1572638933e+01 0.0000e+00 0.0000e+00
       66  2    3    3    0    0 +7.4344512174e+00 +3.3398413848e+01 -1.3417104550e+01 4.7447328680e+01 3.0008418684e+01 0.0000e+00 0.0000e+00
      -13  1    3    3    0    0 -7.4344512174e+00 -3.3398413848e+01 +4.9148289942e+00 3.4567207300e+01 1.0566000000e-01 0.0000e+00 1.0000e+00
       13  1    4    4    0    0 +8.3331643679e+00 +2.0506928560e+01 -2.0938125567e+01 3.0469525983e+01 1.0566000000e-01 0.0000e+00 -1.0000e+00
      -13  1    4    4    0    0 +3.2347991802e+00 +7.9826455598e+00 +2.9737818879e+00 9.1126888799e+00 1.0566000000e-01 0.0000e+00 1.0000e+00
       14  1    4    4    0    0 -4.1335123307e+00 +4.9088397286e+00 +4.5472391291e+00 7.8651138178e+00 0.0000000000e+00 0.0000e+00 -1.0000e+00
<mgrwt>
<rscale>  0 0.81572639E+02</rscale>
<asrwt>0</asrwt>
<pdfrwt beam="1">  1        2 0.69628316E-02 0.81572639E+02</pdfrwt>
<pdfrwt beam="2">  1       -1 0.56547893E-02 0.81572639E+02</pdfrwt>
<totfact> 0.13863400E+05</totfact>
</mgrwt>
</event>
<event>
 8      1 +5.0320763e-08 8.18698800e+01 7.81860800e-03 1.32382700e-01
       -1 -1    0    0    0  501 -0.0000000000e+00 +0.0000000000e+00 +5.8630201045e+00 5.8630222708e+00 5.0400000000e-03 0.0000e+00 1.0000e+00
        2 -1    0    0  501    0 +0.0000000000e+00 -0.0000000000e+00 -2.8580304178e+02 2.8580304179e+02 2.5500000000e-03 0.0000e+00 -1.0000e+00
       24  2    1    2    0    0 +0.0000000000e+00 +0.0000000000e+00 -2.7994002168e+02 2.9166606406e+02 8.1869879625e+01 0.0000e+00 0.0000e+00
       66  2    3    3    0    0 -1.3006831174e+01 -1.4907197787e+01 -2.6351000473e+02 2.6594916643e+02 3.0000572148e+01 0.0000e+00 0.0000e+00
      -13  1    3    3    0    0 +1.3006831174e+01 +1.4907197787e+01 -1.6430016951e+01 2.5716897638e+01 1.0566000000e-01 0.0000e+00 1.0000e+00
       13  1    4    4    0    0 -7.3358493798e+00 +2.7798428227e+00 -6.8480348169e+01 6.8928306679e+01 1.0566000000e-01 0.0000e+00 -1.0000e+00
      -13  1    4    4    0    0 -1.0153969979e+00 +3.7727279299e+00 -1.0768158626e+01 1.1455518816e+01 1.0566000000e-01 0.0000e+00 1.0000e+00
       14  1    4    4    0    0 -4.6555847966e+00 -2.1459768539e+01 -1.8426149793e+02 1.8556534093e+02 0.0000000000e+00 0.0000e+00 -1.0000e+00
<mgrwt>
<rscale>  0 0.81869880E+02</rscale>
<asrwt>0</asrwt>
<pdfrwt beam="1">  1        2 0.43969688E-01 0.81869880E+02</pdfrwt>
<pdfrwt beam="2">  1       -1 0.90200348E-03 0.81869880E+02</pdfrwt>
<totfact> 0.23575657E+05</totfact>
</mgrwt>
</event>
<event>
 8      1 +5.0320763e-08 7.90396700e+01 7.81860800e-03 1.33179900e-01
        2 -1    0    0  501    0 +0.0000000000e+00 +0.0000000000e+00 +5.0350878364e+02 5.0350878364e+02 2.5500000000e-03 0.0000e+00 -1.0000e+00
       -3 -1    0    0    0  501 -0.0000000000e+00 -0.0000000000e+00 -3.1010400406e+00 3.1026843754e+00 1.0100000000e-01 0.0000e+00 1.0000e+00
       24  2    1    2    0    0 -8.8817841970e-16 +0.0000000000e+00 +5.0040774359e+02 5.0661146802e+02 7.9039671539e+01 0.0000e+00 0.0000e+00
       66  2    3    3    0    0 -6.6922434889e+00 -3.0216689834e+01 +3.7375420983e+02 3.7623139574e+02 3.0000321810e+01 0.0000e+00 0.0000e+00
      -13  1    3    3    0    0 +6.6922434889e+00 +3.0216689834e+01 +1.2665353377e+02 1.3038007228e+02 1.0566000000e-01 0.0000e+00 1.0000e+00
       13  1    4    4    0    0 -1.2924549764e+01 -2.6086079375e+01 +2.6873712100e+02 2.7030941325e+02 1.0566000000e-01 0.0000e+00 -1.0000e+00
      -13  1    4    4    0    0 +8.4293556591e+00 -6.0467246417e+00 +9.1964216858e+01 9.2547529746e+01 1.0566000000e-01 0.0000e+00 1.0000e+00
       14  1    4    4    0    0 -2.1970493838e+00 +1.9161141822e+00 +1.3052871969e+01 1.3374452743e+01 0.0000000000e+00 0.0000e+00 -1.0000e+00
<mgrwt>
<rscale>  0 0.79039672E+02</rscale>
<asrwt>0</asrwt>
<pdfrwt beam="1">  1        2 0.77462858E-01 0.79039672E+02</pdfrwt>
<pdfrwt beam="2">  1       -3 0.47721054E-03 0.79039672E+02</pdfrwt>
<totfact> 0.26246056E+05</totfact>
</mgrwt>
</event>
<event>
 8      1 +5.0320763e-08 7.94813900e+01 7.81860800e-03 1.33053000e-01
        2 -1    0    0  501    0 +0.0000000000e+00 +0.0000000000e+00 +4.7188866789e+02 4.7188866790e+02 2.5500000000e-03 0.0000e+00 -1.0000e+00
       -1 -1    0    0    0  501 -0.0000000000e+00 -0.0000000000e+00 -3.3468102661e+00 3.3468140610e+00 5.0400000000e-03 0.0000e+00 1.0000e+00
       24  2    1    2    0    0 +3.5527136788e-15 +0.0000000000e+00 +4.6854185763e+02 4.7523548196e+02 7.9481387545e+01 0.0000e+00 0.0000e+00
       66  2    3    3    0    0 -3.1057284320e+01 -8.7074835758e+00 +3.3341269450e+02 3.3631004487e+02 3.0000770773e+01 0.0000e+00 0.0000e+00
      -13  1    3    3    0    0 +3.1057284320e+01 +8.7074835758e+00 +1.3512916313e+02 1.3892543709e+02 1.0566000000e-01 0.0000e+00 1.0000e+00
       13  1    4    4    0    0 -1.7115316140e+01 -1.4280531176e+01 +1.7601057697e+02 1.7741646481e+02 1.0566000000e-01 0.0000e+00 -1.0000e+00
      -13  1    4    4    0    0 -7.2759114577e+00 -3.3295060634e+00 +3.1475994404e+01 3.2477282613e+01 1.0566000000e-01 0.0000e+00 1.0000e+00
      -14  1    4    4    0    0 -6.6660567221e+00 +8.9025536631e+00 +1.2592612313e+02 1.2641629745e+02 0.0000000000e+00 0.0000e+00 1.0000e+00
<mgrwt>
<rscale>  0 0.79481388E+02</rscale>
<asrwt>0</asrwt>
<pdfrwt beam="1">  1        2 0.72598251E-01 0.79481388E+02</pdfrwt>
<pdfrwt beam="2">  1       -1 0.51489422E-03 0.79481388E+02</pdfrwt>
<totfact> 0.30397293E+05</totfact>
</mgrwt>
</event>
<event>
 8      1 +5.0320763e-08 8.52758100e+01 7.81860800e-03 1.31471300e-01
        1 -1    0    0  501    0 +0.0000000000e+00 +0.0000000000e+00 +2.0986322431e+01 2.0986323037e+01 5.0400000000e-03 0.0000e+00 -1.0000e+00
       -2 -1    0    0    0  501 -0.0000000000e+00 -0.0000000000e+00 -8.6627418323e+01 8.6627418361e+01 2.5500000000e-03 0.0000e+00 1.0000e+00
      -24  2    1    2    0    0 -2.2204460493e-16 -7.1054273576e-15 -6.5641095892e+01 1.0761374140e+02 8.5275810566e+01 0.0000e+00 0.0000e+00
       66  2    3    3    0    0 -1.5274238082e+00 +3.6030374318e+01 -4.9202463416e+01 6.7980917896e+01 3.0000031578e+01 0.0000e+00 0.0000e+00
       13  1    3    3    0    0 +1.5274238082e+00 -3.6030374318e+01 -1.6438632475e+01 3.9632823501e+01 1.0566000000e-01 0.0000e+00 -1.0000e+00
       13  1    4    4    0    0 -6.9794907741e+00 +1.2609856454e+01 -1.3598348003e+01 1.9815347680e+01 1.0566000000e-01 0.0000e+00 -1.0000e+00
      -13  1    4    4    0    0 +5.3361685642e+00 +2.6913448607e+01 -2.5437567521e+01 3.7415096102e+01 1.0566000000e-01 0.0000e+00 1.0000e+00
       14  1    4    4    0    0 +1.1589840171e-01 -3.4929307429e+00 -1.0166547893e+01 1.0750474114e+01 0.0000000000e+00 0.0000e+00 -1.0000e+00
<mgrwt>
<rscale>  0 0.85275811E+02</rscale>
<asrwt>0</asrwt>
<pdfrwt beam="1">  1        1 0.32286651E-02 0.85275811E+02</pdfrwt>
<pdfrwt beam="2">  1       -2 0.13327295E-01 0.85275811E+02</pdfrwt>
<totfact> 0.93274804E+04</totfact>
</mgrwt>
</event>
<event>
 8      1 +5.0320763e-08 7.87458600e+01 7.81860800e-03 1.33264900e-01
       -4 -1    0    0    0  501 -0.0000000000e+00 +0.0000000000e+00 +3.2077121649e+02 3.2077373058e+02 1.2700000000e+00 0.0000e+00 1.0000e+00
        3 -1    0    0  501    0 +0.0000000000e+00 -0.0000000000e+00 -4.8310025186e+00 4.8320581882e+00 1.0100000000e-01 0.0000e+00 -1.0000e+00
      -24  2    1    2    0    0 +0.0000000000e+00 +4.4408920985e-16 +3.1594021397e+02 3.2560578877e+02 7.8745862579e+01 0.0000e+00 0.0000e+00
       66  2    3    3    0    0 -3.3045656923e+01 +3.0827875096e+00 +2.0406056162e+02 2.0890708785e+02 2.9998992089e+01 0.0000e+00 0.0000e+00
       13  1    3    3    0    0 +3.3045656923e+01 -3.0827875096e+00 +1.1187965235e+02 1.1669870091e+02 1.0566000000e-01 0.0000e+00 -1.0000e+00
       13  1    4    4    0    0 -1.8267436020e+01 -4.6008099585e+00 +1.2134121177e+02 1.2279481874e+02 1.0566000000e-01 0.0000e+00 -1.0000e+00
      -13  1    4    4    0    0 -1.5215818688e+01 +4.7373254875e+00 +3.6876578902e+01 4.0172834436e+01 1.0566000000e-01 0.0000e+00 1.0000e+00
       14  1    4    4    0    0 +4.3759778534e-01 +2.9462719806e+00 +4.5842770949e+01 4.5939434680e+01 0.0000000000e+00 0.0000e+00 -1.0000e+00
<mgrwt>
<rscale>  0 0.78745863E+02</rscale>
<asrwt>0</asrwt>
<pdfrwt beam="1">  1        3 0.74331345E-03 0.78745863E+02</pdfrwt>
<pdfrwt beam="2">  1       -4 0.49362460E-01 0.78745863E+02</pdfrwt>
<totfact> 0.27553368E+04</totfact>
</mgrwt>
</event>
<event>
 8      1 +5.0320763e-08 7.91231500e+01 7.81860800e-03 1.33155800e-01
       -3 -1    0    0    0  501 -0.0000000000e+00 +0.0000000000e+00 +2.9456994860e+01 2.9457168011e+01 1.0100000000e-01 0.0000e+00 1.0000e+00
        4 -1    0    0  501    0 +0.0000000000e+00 -0.0000000000e+00 -5.3110783618e+01 5.3125965747e+01 1.2700000000e+00 0.0000e+00 -1.0000e+00
       24  2    1    2    0    0 +0.0000000000e+00 +0.0000000000e+00 -2.3653788758e+01 8.2583133757e+01 7.9123146162e+01 0.0000e+00 0.0000e+00
       66  2    3    3    0    0 +3.1726812711e+01 -1.1539277582e+01 -1.6423968829e+01 4.8057389273e+01 3.0000338994e+01 0.0000e+00 0.0000e+00
      -13  1    3    3    0    0 -3.1726812711e+01 +1.1539277582e+01 -7.2298199290e+00 3.4525744484e+01 1.0566000000e-01 0.0000e+00 1.0000e+00
       13  1    4    4    0    0 +3.0091012538e+00 -8.5126537403e+00 -9.5921283553e+00 1.3173460232e+01 1.0566000000e-01 0.0000e+00 -1.0000e+00
      -13  1    4    4    0    0 +1.8966294912e+01 -1.0502547386e+01 -6.3334684820e+00 2.2586452385e+01 1.0566000000e-01 0.0000e+00 1.0000e+00
      -14  1    4    4    0    0 +9.7514165451e+00 +7.4759235443e+00 -4.9837199161e-01 1.2297476657e+01 0.0000000000e+00 0.0000e+00 1.0000e+00
<mgrwt>
<rscale>  0 0.79123146E+02</rscale>
<asrwt>0</asrwt>
<pdfrwt beam="1">  1        4 0.81741630E-02 0.79123146E+02</pdfrwt>
<pdfrwt beam="2">  1       -3 0.45318664E-02 0.79123146E+02</pdfrwt>
<totfact> 0.45803973E+04</totfact>
</mgrwt>
</event>
<event>
 8      1 +5.0320763e-08 8.55701400e+01 7.81860800e-03 1.31394800e-01
       -2 -1    0    0    0  501 -0.0000000000e+00 +0.0000000000e+00 +3.6439682207e+02 3.6439682208e+02 2.5500000000e-03 0.0000e+00 1.0000e+00
        1 -1    0    0  501    0 +0.0000000000e+00 -0.0000000000e+00 -5.0235397283e+00 5.0235422565e+00 5.0400000000e-03 0.0000e+00 -1.0000e+00
      -24  2    1    2    0    0 +0.0000000000e+00 -8.8817841970e-16 +3.5937328234e+02 3.6942036434e+02 8.5570143886e+01 0.0000e+00 0.0000e+00
       66  2    3    3    0    0 +1.0290687467e+01 +6.3760524896e+00 +3.5511727871e+02 3.5658770971e+02 2.9999346339e+01 0.0000e+00 0.0000e+00
       13  1    3    3    0    0 -1.0290687467e+01 -6.3760524896e+00 +4.2560036315e+00 1.2832654630e+01 1.0566000000e-01 0.0000e+00 -1.0000e+00
       13  1    4    4    0    0 +7.3835439830e+00 +6.0262882082e+00 +4.4351154952e+01 4.5363740817e+01 1.0566000000e-01 0.0000e+00 -1.0000e+00
      -13  1    4    4    0    0 -8.5867993745e-01 +6.8301639164e+00 +2.3197792107e+02 2.3208006269e+02 1.0566000000e-01 0.0000e+00 1.0000e+00
      -14  1    4    4    0    0 +3.7658234216e+00 -6.4803996350e+00 +7.8788202691e+01 7.9143906201e+01 0.0000000000e+00 0.0000e+00 1.0000e+00
<mgrwt>
<rscale>  0 0.85570144E+02</rscale>
<asrwt>0</asrwt>
<pdfrwt beam="1">  1        1 0.77285263E-03 0.85570144E+02</pdfrwt>
<pdfrwt beam="2">  1       -2 0.56061037E-01 0.85570144E+02</pdfrwt>
<totfact> 0.52701108E+04</totfact>
</mgrwt>
</event>
<event>
 8      1 +5.0320763e-08 7.99340000e+01 7.81860800e-03 1.32923900e-01
       -4 -1    0    0    0  501 -0.0000000000e+00 +0.0000000000e+00 +1.2468667993e+02 1.2469314757e+02 1.2700000000e+00 0.0000e+00 1.0000e+00
        3 -1    0    0  501    0 +0.0000000000e+00 -0.0000000000e+00 -1.2807213755e+01 1.2807612001e+01 1.0100000000e-01 0.0000e+00 -1.0000e+00
      -24  2    1    2    0    0 +0.0000000000e+00 +0.0000000000e+00 +1.1187946617e+02 1.3750075957e+02 7.9933997348e+01 0.0000e+00 0.0000e+00
       66  2    3    3    0    0 -2.3383502675e+01 +1.9217660652e+01 +9.1712961901e+01 1.0113036314e+02 2.9999604822e+01 0.0000e+00 0.0000e+00
       13  1    3    3    0    0 +2.3383502675e+01 -1.9217660652e+01 +2.0166504271e+01 3.6370396435e+01 1.0566000000e-01 0.0000e+00 -1.0000e+00
       13  1    4    4    0    0 +2.7280680870e+00 +7.5287662055e+00 +1.3346427629e+01 1.5564799085e+01 1.0566000000e-01 0.0000e+00 -1.0000e+00
      -13  1    4    4    0    0 -7.9994971869e+00 +1.2075426410e+01 +4.8665707157e+01 5.0775684096e+01 1.0566000000e-01 0.0000e+00 1.0000e+00
       14  1    4    4    0    0 -1.8112073575e+01 -3.8653196356e-01 +2.9700827114e+01 3.4789879957e+01 0.0000000000e+00 0.0000e+00 -1.0000e+00
<mgrwt>
<rscale>  0 0.79933997E+02</rscale>
<asrwt>0</asrwt>
<pdfrwt beam="1">  1        3 0.19703744E-02 0.79933997E+02</pdfrwt>
<pdfrwt beam="2">  1       -4 0.19187907E-01 0.79933997E+02</pdfrwt>
<totfact> 0.38466602E+04</totfact>
</mgrwt>
</event>
<event>
 8      1 +5.0320763e-08 7.84694800e+01 7.81860800e-03 1.33345200e-01
        1 -1    0    0  501    0 +0.0000000000e+00 +0.0000000000e+00 +4.1024577702e+01 4.1024578011e+01 5.0400000000e-03 0.0000e+00 -1.0000e+00
       -2 -1    0    0    0  501 -0.0000000000e+00 -0.0000000000e+00 -3.7522993170e+01 3.7522993257e+01 2.5500000000e-03 0.0000e+00 1.0000e+00
      -24  2    1    2    0    0 +0.0000000000e+00 +0.0000000000e+00 +3.5015845313e+00 7.8547571268e+01 7.8469483609e+01 0.0000e+00 0.0000e+00
       66  2    3    3    0    0 -9.1524324800e+00 -3.0012596655e+01 -9.7397202244e+00 4.4490761465e+01 3.0000712116e+01 0.0000e+00 0.0000e+00
       13  1    3    3    0    0 +9.1524324800e+00 +3.0012596655e+01 +1.3241304756e+01 3.4056809803e+01 1.0566000000e-01 0.0000e+00 -1.0000e+00
       13  1    4    4    0    0 +5.1914292453e+00 -1.4494557861e+01 -3.7574226030e+00 1.5848423702e+01 1.0566000000e-01 0.0000e+00 -1.0000e+00
      -13  1    4    4    0    0 -3.7636329649e+00 -6.9239874537e+00 -1.1496265627e+01 1.3938501453e+01 1.0566000000e-01 0.0000e+00 1.0000e+00
       14  1    4    4    0    0 -1.0580228760e+01 -8.5940513404e+00 +5.5139680057e+00 1.4703836310e+01 0.0000000000e+00 0.0000e+00 -1.0000e+00
<mgrwt>
<rscale>  0 0.78469484E+02</rscale>
<asrwt>0</asrwt>
<pdfrwt beam="1">  1        1 0.63114735E-02 0.78469484E+02</pdfrwt>
<pdfrwt beam="2">  1       -2 0.57727682E-02 0.78469484E+02</pdfrwt>
<totfact> 0.13460250E+05</totfact>
</mgrwt>
</event>
<event>
 8      1 +5.0320763e-08 7.62124000e+01 7.81860800e-03 1.34015700e-01
        2 -1    0    0  501    0 +0.0000000000e+00 +0.0000000000e+00 +3.1482662663e+00 3.1482672990e+00 2.5500000000e-03 0.0000e+00 -1.0000e+00
       -1 -1    0    0    0  501 -0.0000000000e+00 -0.0000000000e+00 -4.6123229515e+02 4.6123229517e+02 5.0400000000e-03 0.0000e+00 1.0000e+00
       24  2    1    2    0    0 +3.5527136788e-15 +3.5527136788e-15 -4.5808402888e+02 4.6438056247e+02 7.6212395893e+01 0.0000e+00 0.0000e+00
       66  2    3    3    0    0 +2.3821990902e+01 +2.0712694414e+01 -3.0328028293e+02 3.0639096192e+02 2.9999809472e+01 0.0000e+00 0.0000e+00
      -13  1    3    3    0    0 -2.3821990902e+01 -2.0712694414e+01 -1.5480374595e+02 1.5798960056e+02 1.0566000000e-01 0.0000e+00 1.0000e+00
       13  1    4    4    0    0 +2.6697970196e+01 +1.7059268202e+01 -2.4693432402e+02 2.4895857444e+02 1.0566000000e-01 0.0000e+00 -1.0000e+00
      -13  1    4    4    0    0 +1.1949447448e+00 -2.9509292513e+00 -2.1385898437e+01 2.1621833696e+01 1.0566000000e-01 0.0000e+00 1.0000e+00
       14  1    4    4    0    0 -4.0709240388e+00 +6.6043554632e+00 -3.4960060480e+01 3.5810553785e+01 0.0000000000e+00 0.0000e+00 -1.0000e+00
<mgrwt>
<rscale>  0 0.76212396E+02</rscale>
<asrwt>0</asrwt>
<pdfrwt beam="1">  1        2 0.48434910E-03 0.76212396E+02</pdfrwt>
<pdfrwt beam="2">  1       -1 0.70958761E-01 0.76212396E+02</pdfrwt>
<totfact> 0.79437211E+04</totfact>
</mgrwt>
</event>
<event>
 8      1 +5.0320763e-08 8.17373000e+01 7.81860800e-03 1.32419200e-01
       -1 -1    0    0    0  501 -0.0000000000e+00 +0.0000000000e+00 +2.0796651457e+02 2.0796651463e+02 5.0400000000e-03 0.0000e+00 1.0000e+00
        2 -1    0    0  501    0 +0.0000000000e+00 -0.0000000000e+00 -8.0313246686e+00 8.0313250735e+00 2.5500000000e-03 0.0000e+00 -1.0000e+00
       24  2    1    2    0    0 +0.0000000000e+00 -8.8817841970e-16 +1.9993518990e+02 2.1599783971e+02 8.1737302354e+01 0.0000e+00 0.0000e+00
       66  2    3    3    0    0 -3.2546028121e+01 -7.6430115650e+00 +8.2987961587e+01 9.4365915660e+01 3.0004411307e+01 0.0000e+00 0.0000e+00
      -13  1    3    3    0    0 +3.2546028121e+01 +7.6430115650e+00 +1.1694722832e+02 1.2163192405e+02 1.0566000000e-01 0.0000e+00 1.0000e+00
       13  1    4    4    0    0 -3.7653922536e+00 +6.0006281036e-01 +1.0560750562e+00 3.9578671983e+00 1.0566000000e-01 0.0000e+00 -1.0000e+00
      -13  1    4    4    0    0 -2.0101464861e+01 -1.4118409788e-02 +7.2327492583e+01 7.5068944553e+01 1.0566000000e-01 0.0000e+00 1.0000e+00
      -14  1    4    4    0    0 -8.6791710057e+00 -8.2289559656e+00 +9.6043939473e+00 1.5339103909e+01 0.0000000000e+00 0.0000e+00 1.0000e+00
<mgrwt>
<rscale>  0 0.81737302E+02</rscale>
<asrwt>0</asrwt>
<pdfrwt beam="1">  1        2 0.12355883E-02 0.81737302E+02</pdfrwt>
<pdfrwt beam="2">  1       -1 0.31994851E-01 0.81737302E+02</pdfrwt>
<totfact> 0.93174961E+04</totfact>
</mgrwt>
</event>
<event>
 8      1 +5.0320763e-08 7.81556100e+01 7.81860800e-03 1.33436900e-01
        1 -1    0    0  501    0 +0.0000000000e+00 +0.0000000000e+00 +8.0246796118e+01 8.0246796277e+01 5.0400000000e-03 0.0000e+00 -1.0000e+00
       -2 -1    0    0    0  501 -0.0000000000e+00 -0.0000000000e+00 -1.9029730292e+01 1.9029730463e+01 2.5500000000e-03 0.0000e+00 1.0000e+00
      -24  2    1    2    0    0 +0.0000000000e+00 +8.8817841970e-16 +6.1217065827e+01 9.9276526739e+01 7.8155611526e+01 0.0000e+00 0.0000e+00
       66  2    3    3    0    0 +2.1478014038e+01 -4.8093764865e+00 +3.3426106547e+00 3.7358040689e+01 3.0000249482e+01 0.0000e+00 0.0000e+00
       13  1    3    3    0    0 -2.1478014038e+01 +4.8093764865e+00 +5.7874455172e+01 6.1918486050e+01 1.0566000000e-01 0.0000e+00 -1.0000e+00
       13  1    4    4    0    0 +1.6063034335e+01 -4.5460458915e+00 +1.1431858292e+01 2.0233293191e+01 1.0566000000e-01 0.0000e+00 -1.0000e+00
      -13  1    4    4    0    0 +1.5743495694e+00 +5.5427197290e+00 +8.1712604075e-01 5.8205822357e+00 1.0566000000e-01 0.0000e+00 1.0000e+00
       14  1    4    4    0    0 +3.8406301338e+00 -5.8060503239e+00 -8.9063736786e+00 1.1304165263e+01 0.0000000000e+00 0.0000e+00 -1.0000e+00
<mgrwt>
<rscale>  0 0.78155612E+02</rscale>
<asrwt>0</asrwt>
<pdfrwt beam="1">  1        1 0.12345661E-01 0.78155612E+02</pdfrwt>
<pdfrwt beam="2">  1       -2 0.29276509E-02 0.78155612E+02</pdfrwt>
<totfact> 0.15104635E+05</totfact>
</mgrwt>
</event>
<event>
 8      1 +5.0320763e-08 7.79340000e+01 7.81860800e-03 1.33501900e-01
       -3 -1    0    0    0  501 -0.0000000000e+00 +0.0000000000e+00 +3.6063386197e+00 3.6077526578e+00 1.0100000000e-01 0.0000e+00 1.0000e+00
        4 -1    0    0  501    0 +0.0000000000e+00 -0.0000000000e+00 -4.2084793525e+02 4.2084985149e+02 1.2700000000e+00 0.0000e+00 -1.0000e+00
       24  2    1    2    0    0 +0.0000000000e+00 +1.7763568394e-15 -4.1724159663e+02 4.2445760415e+02 7.7933996211e+01 0.0000e+00 0.0000e+00
       66  2    3    3    0    0 -2.5695180510e+01 -7.6126233538e+00 -3.4620659865e+02 3.4853543060e+02 2.9995717950e+01 0.0000e+00 0.0000e+00
      -13  1    3    3    0    0 +2.5695180510e+01 +7.6126233538e+00 -7.1034997977e+01 7.5922173555e+01 1.0566000000e-01 0.0000e+00 1.0000e+00
       13  1    4    4    0    0 -1.8064717282e+01 +4.2410325671e+00 -1.3381553561e+02 1.3509599958e+02 1.0566000000e-01 0.0000e+00 -1.0000e+00
      -13  1    4    4    0    0 +6.2665434974e-01 -1.0744673580e+00 -1.2445150591e+02 1.2445776658e+02 1.0566000000e-01 0.0000e+00 1.0000e+00
      -14  1    4    4    0    0 -8.2571175780e+00 -1.0779188563e+01 -8.7939557134e+01 8.8981664436e+01 0.0000000000e+00 0.0000e+00 1.0000e+00
<mgrwt>
<rscale>  0 0.77933996E+02</rscale>
<asrwt>0</asrwt>
<pdfrwt beam="1">  1        4 0.64763138E-01 0.77933996E+02</pdfrwt>
<pdfrwt beam="2">  1       -3 0.55493140E-03 0.77933996E+02</pdfrwt>
<totfact> 0.24101940E+04</totfact>
</mgrwt>
</event>
<event>
 8      1 +5.0320763e-08 7.71663700e+01 7.81860800e-03 1.33729100e-01
        1 -1    0    0  501    0 +0.0000000000e+00 +0.0000000000e+00 +5.2360418826e+02 5.2360418828e+02 5.0400000000e-03 0.0000e+00 -1.0000e+00
       -2 -1    0    0    0  501 -0.0000000000e+00 -0.0000000000e+00 -2.8431053288e+00 2.8431064723e+00 2.5500000000e-03 0.0000e+00 1.0000e+00
      -24  2    1    2    0    0 +8.8817841970e-16 -3.5527136788e-15 +5.2076108293e+02 5.2644729476e+02 7.7166370012e+01 0.0000e+00 0.0000e+00
       66  2    3    3    0    0 -4.0915165651e+00 -2.8534918113e+01 +4.0579589704e+02 4.0792308967e+02 2.9999249571e+01 0.0000e+00 0.0000e+00
       13  1    3    3    0    0 +4.0915165651e+00 +2.8534918113e+01 +1.1496518589e+02 1.1852420508e+02 1.0566000000e-01 0.0000e+00 -1.0000e+00
       13  1    4    4    0    0 +5.1937442080e+00 -3.8998921862e+00 +1.1425136204e+02 1.1443587301e+02 1.0566000000e-01 0.0000e+00 -1.0000e+00
      -13  1    4    4    0    0 +2.0668737693e+00 -6.3043721070e+00 +1.6391674510e+02 1.6405099074e+02 1.0566000000e-01 0.0000e+00 1.0000e+00
      -14  1    4    4    0    0 -1.1352134542e+01 -1.8330653820e+01 +1.2762778990e+02 1.2943622593e+02 0.0000000000e+00 0.0000e+00 1.0000e+00
<mgrwt>
<rscale>  0 0.77166370E+02</rscale>
<asrwt>0</asrwt>
<pdfrwt beam="1">  1        1 0.80554447E-01 0.77166370E+02</pdfrwt>
<pdfrwt beam="2">  1       -2 0.43740115E-03 0.77166370E+02</pdfrwt>
<totfact> 0.21658536E+05</totfact>
</mgrwt>
</event>
<event>
 8      1 +5.0320763e-08 8.15869800e+01 7.81860800e-03 1.32460700e-01
        1 -1    0    0  501    0 +0.0000000000e+00 +0.0000000000e+00 +5.3655801372e+01 5.3655801609e+01 5.0400000000e-03 0.0000e+00 -1.0000e+00
       -2 -1    0    0    0  501 -0.0000000000e+00 -0.0000000000e+00 -3.1014515545e+01 3.1014515650e+01 2.5500000000e-03 0.0000e+00 1.0000e+00
      -24  2    1    2    0    0 -8.8817841970e-16 +0.0000000000e+00 +2.2641285827e+01 8.4670317259e+01 8.1586976907e+01 0.0000e+00 0.0000e+00
       66  2    3    3    0    0 -6.1591124130e+00 -3.3384303764e+01 +2.8910231855e+00 4.5395255936e+01 2.9998747355e+01 0.0000e+00 0.0000e+00
       13  1    3    3    0    0 +6.1591124130e+00 +3.3384303764e+01 +1.9750262641e+01 3.9275061323e+01 1.0566000000e-01 0.0000e+00 -1.0000e+00
       13  1    4    4    0    0 -8.3995960488e+00 -5.4231019500e+00 +1.5890728988e+00 1.0124206895e+01 1.0566000000e-01 0.0000e+00 -1.0000e+00
      -13  1    4    4    0    0 +7.7582272081e+00 -1.1729760083e+00 +1.0680705891e+00 7.9194634254e+00 1.0566000000e-01 0.0000e+00 1.0000e+00
      -14  1    4    4    0    0 -5.5177435723e+00 -2.6788225806e+01 +2.3387969763e-01 2.7351585615e+01 0.0000000000e+00 0.0000e+00 1.0000e+00
<mgrwt>
<rscale>  0 0.81586977E+02</rscale>
<asrwt>0</asrwt>
<pdfrwt beam="1">  1        1 0.82547386E-02 0.81586977E+02</pdfrwt>
<pdfrwt beam="2">  1       -2 0.47714640E-02 0.81586977E+02</pdfrwt>
<totfact> 0.12597579E+05</totfact>
</mgrwt>
</event>
<event>
 8      1 +5.0320763e-08 7.95051100e+01 7.81860800e-03 1.33046200e-01
       -1 -1    0    0    0  501 -0.0000000000e+00 +0.0000000000e+00 +9.4839540773e+01 9.4839540907e+01 5.0400000000e-03 0.0000e+00 1.0000e+00
        2 -1    0    0  501    0 +0.0000000000e+00 -0.0000000000e+00 -1.6662518151e+01 1.6662518346e+01 2.5500000000e-03 0.0000e+00 -1.0000e+00
       24  2    1    2    0    0 +0.0000000000e+00 -1.7763568394e-15 +7.8177022622e+01 1.1150205925e+02 7.9505108965e+01 0.0000e+00 0.0000e+00
       66  2    3    3    0    0 +2.0367938499e+01 +1.5472201043e+01 +1.3042617712e+01 4.1525321755e+01 3.0000009104e+01 0.0000e+00 0.0000e+00
      -13  1    3    3    0    0 -2.0367938499e+01 -1.5472201043e+01 +6.5134404910e+01 6.9976737498e+01 1.0566000000e-01 0.0000e+00 1.0000e+00
       13  1    4    4    0    0 +4.6763558797e+00 +9.9075616629e+00 +2.5203490556e-01 1.0959140844e+01 1.0566000000e-01 0.0000e+00 -1.0000e+00
      -13  1    4    4    0    0 +2.1301727109e+01 +5.8429851826e+00 +1.0959757163e+01 2.4658294645e+01 1.0566000000e-01 0.0000e+00 1.0000e+00
      -14  1    4    4    0    0 -5.6101444903e+00 -2.7834580265e-01 +1.8308256431e+00 5.9078862653e+00 0.0000000000e+00 0.0000e+00 1.0000e+00
<mgrwt>
<rscale>  0 0.79505109E+02</rscale>
<asrwt>0</asrwt>
<pdfrwt beam="1">  1        2 0.25634644E-02 0.79505109E+02</pdfrwt>
<pdfrwt beam="2">  1       -1 0.14590699E-01 0.79505109E+02</pdfrwt>
<totfact> 0.12173689E+05</totfact>
</mgrwt>
</event>
<event>
 8      1 +5.0320763e-08 8.05374200e+01 7.81860800e-03 1.32753300e-01
        4 -1    0    0  501    0 +0.0000000000e+00 +0.0000000000e+00 +1.3604397292e+01 1.3663547332e+01 1.2700000000e+00 0.0000e+00 -1.0000e+00
       -3 -1    0    0    0  501 -0.0000000000e+00 -0.0000000000e+00 -1.1890614484e+02 1.1890618773e+02 1.0100000000e-01 0.0000e+00 1.0000e+00
       24  2    1    2    0    0 +0.0000000000e+00 +0.0000000000e+00 -1.0530174755e+02 1.3256973507e+02 8.0537423718e+01 0.0000e+00 0.0000e+00
       66  2    3    3    0    0 +1.8409454406e+01 -2.9308598608e+01 -5.6270008445e+01 7.2552866043e+01 2.9995042204e+01 0.0000e+00 0.0000e+00
      -13  1    3    3    0    0 -1.8409454406e+01 +2.9308598608e+01 -4.9031739102e+01 6.0016869023e+01 1.0566000000e-01 0.0000e+00 1.0000e+00
       13  1    4    4    0    0 +8.2413545265e+00 -1.3763117963e+01 -9.1241075721e+00 1.8455455657e+01 1.0566000000e-01 0.0000e+00 -1.0000e+00
      -13  1    4    4    0    0 -3.6171754426e+00 -6.7491161547e+00 -5.7131247678e+00 9.5543438132e+00 1.0566000000e-01 0.0000e+00 1.0000e+00
       14  1    4    4    0    0 +1.3785275322e+01 -8.7963644906e+00 -4.1432776105e+01 4.4543066573e+01 0.0000000000e+00 0.0000e+00 -1.0000e+00
<mgrwt>
<rscale>  0 0.80537424E+02</rscale>
<asrwt>0</asrwt>
<pdfrwt beam="1">  1        4 0.20980560E-02 0.80537424E+02</pdfrwt>
<pdfrwt beam="2">  1       -3 0.18293285E-01 0.80537424E+02</pdfrwt>
<totfact> 0.40592308E+04</totfact>
</mgrwt>
</event>
<event>
 8      1 +5.0320763e-08 7.88411400e+01 7.81860800e-03 1.33237300e-01
       -3 -1    0    0    0  501 -0.0000000000e+00 +0.0000000000e+00 +9.4616810342e+01 9.4616864249e+01 1.0100000000e-01 0.0000e+00 1.0000e+00
        4 -1    0    0  501    0 +0.0000000000e+00 -0.0000000000e+00 -1.6395094073e+01 1.6444209000e+01 1.2700000000e+00 0.0000e+00 -1.0000e+00
       24  2    1    2    0    0 +0.0000000000e+00 +0.0000000000e+00 +7.8221716270e+01 1.1106107325e+02 7.8841138343e+01 0.0000e+00 0.0000e+00
       66  2    3    3    0    0 -1.1528257791e+01 -1.4183289567e+01 +4.8684758892e+00 3.5464939294e+01 2.9999890517e+01 0.0000e+00 0.0000e+00
      -13  1    3    3    0    0 +1.1528257791e+01 +1.4183289567e+01 +7.3353240381e+01 7.5596133955e+01 1.0566000000e-01 0.0000e+00 1.0000e+00
       13  1    4    4    0    0 -1.7403733223e+00 +8.9931627992e+00 -3.1178674625e-01 9.1659288369e+00 1.0566000000e-01 0.0000e+00 1.0000e+00
      -13  1    4    4    0    0 -1.0236920504e+01 -2.1613797209e+01 +3.9045171276e+00 2.4232358309e+01 1.0566000000e-01 0.0000e+00 -1.0000e+00
      -14  1    4    4    0    0 +4.4903603532e-01 -1.5626551572e+00 +1.2757455079e+00 2.0666521484e+00 0.0000000000e+00 0.0000e+00 1.0000e+00
<mgrwt>
<rscale>  0 0.78841138E+02</rscale>
<asrwt>0</asrwt>
<pdfrwt beam="1">  1        4 0.25267556E-02 0.78841138E+02</pdfrwt>
<pdfrwt beam="2">  1       -3 0.14556462E-01 0.78841138E+02</pdfrwt>
<totfact> 0.44755364E+04</totfact>
</mgrwt>
</event>
<event>
 8      1 +5.0320763e-08 8.81540100e+01 7.81860800e-03 1.30738500e-01
        2 -1    0    0  501    0 +0.0000000000e+00 +0.0000000000e+00 +1.5214068447e+02 1.5214068449e+02 2.5500000000e-03 0.0000e+00 -1.0000e+00
       -1 -1    0    0    0  501 -0.0000000000e+00 -0.0000000000e+00 -1.2769643238e+01 1.2769644233e+01 5.0400000000e-03 0.0000e+00 1.0000e+00
       24  2    1    2    0    0 -7.1054273576e-15 -3.5527136788e-15 +1.3937104123e+02 1.6491032872e+02 8.8154009469e+01 0.0000e+00 0.0000e+00
       66  2    3    3    0    0 -2.9262245495e+01 -2.0934786336e+01 +4.9739631061e+01 6.8326970201e+01 2.9999994472e+01 0.0000e+00 0.0000e+00
      -13  1    3    3    0    0 +2.9262245495e+01 +2.0934786336e+01 +8.9631410166e+01 9.6583358519e+01 1.0566000000e-01 0.0000e+00 1.0000e+00
       13  1    4    4    0    0 -7.0715163519e-01 -1.1699730150e+01 +2.2403346125e+01 2.5284478057e+01 1.0566000000e-01 0.0000e+00 -1.0000e+00
      -13  1    4    4    0    0 -2.1809338050e+01 -3.3142921413e+00 +1.1593808004e+01 2.4921061507e+01 1.0566000000e-01 0.0000e+00 1.0000e+00
      -14  1    4    4    0    0 -6.7457558100e+00 -5.9207640452e+00 +1.5742476933e+01 1.8121430636e+01 0.0000000000e+00 0.0000e+00 1.0000e+00
<mgrwt>
<rscale>  0 0.88154009E+02</rscale>
<asrwt>0</asrwt>
<pdfrwt beam="1">  1        2 0.23406259E-01 0.88154009E+02</pdfrwt>
<pdfrwt beam="2">  1       -1 0.19645606E-02 0.88154009E+02</pdfrwt>
<totfact> 0.15533158E+05</totfact>
</mgrwt>
</event>
<event>
 8      1 +5.0320763e-08 7.99064600e+01 7.81860800e-03 1.32931700e-01
       -1 -1    0    0    0  501 -0.0000000000e+00 +0.0000000000e+00 +1.8516686728e+01 1.8516687414e+01 5.0400000000e-03 0.0000e+00 1.0000e+00
        2 -1    0    0  501    0 +0.0000000000e+00 -0.0000000000e+00 -8.6206604246e+01 8.6206604284e+01 2.5500000000e-03 0.0000e+00 -1.0000e+00
       24  2    1    2    0    0 +0.0000000000e+00 +8.8817841970e-16 -6.7689917518e+01 1.0472329170e+02 7.9906463384e+01 0.0000e+00 0.0000e+00
       66  2    3    3    0    0 -2.1147188465e+01 -5.3337636188e+00 -7.3347370517e+01 8.2191745973e+01 2.9999895502e+01 0.0000e+00 0.0000e+00
      -13  1    3    3    0    0 +2.1147188465e+01 +5.3337636188e+00 +5.6574529986e+00 2.2531545725e+01 1.0566000000e-01 0.0000e+00 1.0000e+00
       13  1    4    4    0    0 -9.9897293076e+00 -1.2543902540e+01 -2.6894970113e+01 3.1312853015e+01 1.0566000000e-01 0.0000e+00 -1.0000e+00
      -13  1    4    4    0    0 -7.9405361466e+00 +6.0263978744e+00 -9.5091636759e+00 1.3776971492e+01 1.0566000000e-01 0.0000e+00 1.0000e+00
      -14  1    4    4    0    0 -3.2169230104e+00 +1.1837410463e+00 -3.6943236728e+01 3.7101921466e+01 0.0000000000e+00 0.0000e+00 1.0000e+00
<mgrwt>
<rscale>  0 0.79906463E+02</rscale>
<asrwt>0</asrwt>
<pdfrwt beam="1">  1        2 0.13262554E-01 0.79906463E+02</pdfrwt>
<pdfrwt beam="2">  1       -1 0.28487211E-02 0.79906463E+02</pdfrwt>
<totfact> 0.17077683E+05</totfact>
</mgrwt>
</event>
<event>
 8      1 +5.0320763e-08 8.03975500e+01 7.81860800e-03 1.32792700e-01
       -3 -1    0    0    0  501 -0.0000000000e+00 +0.0000000000e+00 +3.3865682981e+00 3.3880740603e+00 1.0100000000e-01 0.0000e+00 1.0000e+00
        2 -1    0    0  501    0 +0.0000000000e+00 -0.0000000000e+00 -4.7705513172e+02 4.7705513173e+02 2.5500000000e-03 0.0000e+00 -1.0000e+00
       24  2    1    2    0    0 +0.0000000000e+00 +0.0000000000e+00 -4.7366856343e+02 4.8044320579e+02 8.0397549794e+01 0.0000e+00 0.0000e+00
       66  2    3    3    0    0 +2.9459291498e+01 -1.0923220309e+01 -3.5643582573e+02 3.5907314132e+02 2.9997605865e+01 0.0000e+00 0.0000e+00
      -13  1    3    3    0    0 -2.9459291498e+01 +1.0923220309e+01 -1.1723273770e+02 1.2137006447e+02 1.0566000000e-01 0.0000e+00 1.0000e+00
       13  1    4    4    0    0 +4.0421514209e+00 +2.9432928811e+00 -1.2699952738e+02 1.2709796646e+02 1.0566000000e-01 0.0000e+00 -1.0000e+00
      -13  1    4    4    0    0 +4.2012113521e+00 -1.2143489673e+01 -7.8336989127e+01 7.9383937593e+01 1.0566000000e-01 0.0000e+00 1.0000e+00
      -14  1    4    4    0    0 +2.1215928725e+01 -1.7230235170e+00 -1.5109930922e+02 1.5259123726e+02 0.0000000000e+00 0.0000e+00 1.0000e+00
<mgrwt>
<rscale>  0 0.80397550E+02</rscale>
<asrwt>0</asrwt>
<pdfrwt beam="1">  1        2 0.73393044E-01 0.80397550E+02</pdfrwt>
<pdfrwt beam="2">  1       -3 0.52112754E-03 0.80397550E+02</pdfrwt>
<totfact> 0.24560883E+05</totfact>
</mgrwt>
</event>
<event>
 8      1 +5.0320763e-08 7.82039700e+01 7.81860800e-03 1.33422700e-01
        2 -1    0    0  501    0 +0.0000000000e+00 +0.0000000000e+00 +5.1621192661e+01 5.1621192724e+01 2.5500000000e-03 0.0000e+00 -1.0000e+00
       -1 -1    0    0    0  501 -0.0000000000e+00 -0.0000000000e+00 -2.9618943437e+01 2.9618943866e+01 5.0400000000e-03 0.0000e+00 1.0000e+00
       24  2    1    2    0    0 -3.5527136788e-15 +3.5527136788e-15 +2.2002249224e+01 8.1240136590e+01 7.8203969351e+01 0.0000e+00 0.0000e+00
       66  2    3    3    0    0 +2.1668360701e+01 -1.8600728106e+01 +3.0517148626e+01 5.1440478582e+01 2.9988690117e+01 0.0000e+00 0.0000e+00
      -13  1    3    3    0    0 -2.1668360701e+01 +1.8600728106e+01 -8.5148994022e+00 2.9799658008e+01 1.0566000000e-01 0.0000e+00 1.0000e+00
       13  1    4    4    0    0 +1.5554147177e+01 -8.6956510981e+00 +2.3995725851e+01 2.9888992381e+01 1.0566000000e-01 0.0000e+00 -1.0000e+00
      -13  1    4    4    0    0 +3.5400967507e+00 -1.3284364247e+01 -2.4001320707e-02 1.3748394762e+01 1.0566000000e-01 0.0000e+00 1.0000e+00
       14  1    4    4    0    0 +2.5741167735e+00 +3.3792872386e+00 +6.5454240956e+00 7.8030914384e+00 0.0000000000e+00 0.0000e+00 -1.0000e+00
<mgrwt>
<rscale>  0 0.78203969E+02</rscale>
<asrwt>0</asrwt>
<pdfrwt beam="1">  1        2 0.79417219E-02 0.78203969E+02</pdfrwt>
<pdfrwt beam="2">  1       -1 0.45567606E-02 0.78203969E+02</pdfrwt>
<totfact> 0.16010522E+05</totfact>
</mgrwt>
</event>
<event>
 8      1 +5.0320763e-08 7.88520300e+01 7.81860800e-03 1.33234100e-01
        3 -1    0    0  501    0 +0.0000000000e+00 +0.0000000000e+00 +1.3481440403e+00 1.3519220959e+00 1.0100000000e-01 0.0000e+00 -1.0000e+00
       -4 -1    0    0    0  501 -0.0000000000e+00 -0.0000000000e+00 -1.1510862241e+03 1.1510869247e+03 1.2700000000e+00 0.0000e+00 1.0000e+00
      -24  2    1    2    0    0 +0.0000000000e+00 -1.7763568394e-15 -1.1497380801e+03 1.1524388468e+03 7.8852031443e+01 0.0000e+00 0.0000e+00
       66  2    3    3    0    0 +1.0655963000e+01 -1.4004442351e+01 -1.0784547013e+03 1.0790153819e+03 2.9999626012e+01 0.0000e+00 0.0000e+00
       13  1    3    3    0    0 -1.0655963000e+01 +1.4004442351e+01 -7.1283378764e+01 7.3423464949e+01 1.0566000000e-01 0.0000e+00 -1.0000e+00
       13  1    4    4    0    0 +5.3023981066e+00 +7.9335962291e+00 -2.3179677226e+02 2.3199312957e+02 1.0566000000e-01 0.0000e+00 -1.0000e+00
      -13  1    4    4    0    0 -2.0633123852e+00 -1.2632491411e+01 -4.8352380433e+02 4.8369320609e+02 1.0566000000e-01 0.0000e+00 1.0000e+00
       14  1    4    4    0    0 +7.4168772785e+00 -9.3055471697e+00 -3.6313412476e+02 3.6332904624e+02 0.0000000000e+00 0.0000e+00 -1.0000e+00
<mgrwt>
<rscale>  0 0.78852031E+02</rscale>
<asrwt>0</asrwt>
<pdfrwt beam="1">  1        3 0.20769867E-03 0.78852031E+02</pdfrwt>
<pdfrwt beam="2">  1       -4 0.17713540E+00 0.78852031E+02</pdfrwt>
<totfact> 0.95974739E+03</totfact>
</mgrwt>
</event>
<event>
 8      1 +5.0320763e-08 7.95425500e+01 7.81860800e-03 1.33035500e-01
       -1 -1    0    0    0  501 -0.0000000000e+00 +0.0000000000e+00 +1.9933528105e+02 1.9933528112e+02 5.0400000000e-03 0.0000e+00 1.0000e+00
        2 -1    0    0  501    0 +0.0000000000e+00 -0.0000000000e+00 -7.9351442633e+00 7.9351446731e+00 2.5500000000e-03 0.0000e+00 -1.0000e+00
       24  2    1    2    0    0 +0.0000000000e+00 +3.5527136788e-15 +1.9140013679e+02 2.0727042579e+02 7.9542548639e+01 0.0000e+00 0.0000e+00
       66  2    3    3    0    0 -1.6453510763e+01 +2.9825046093e+01 +1.1403951261e+02 1.2274274554e+02 3.0008661340e+01 0.0000e+00 0.0000e+00
      -13  1    3    3    0    0 +1.6453510763e+01 -2.9825046093e+01 +7.7360624179e+01 8.4527680249e+01 1.0566000000e-01 0.0000e+00 1.0000e+00
       13  1    4    4    0    0 -1.9860653094e+00 +2.7964954702e+01 +6.2828005736e+01 6.8799364937e+01 1.0566000000e-01 0.0000e+00 -1.0000e+00
      -13  1    4    4    0    0 -6.8321326438e+00 +5.1886222406e+00 +2.4130041818e+01 2.5609957427e+01 1.0566000000e-01 0.0000e+00 1.0000e+00
       14  1    4    4    0    0 -7.6353128102e+00 -3.3285308491e+00 +2.7081465056e+01 2.8333423177e+01 0.0000000000e+00 0.0000e+00 -1.0000e+00
<mgrwt>
<rscale>  0 0.79542549E+02</rscale>
<asrwt>0</asrwt>
<pdfrwt beam="1">  1        2 0.12207915E-02 0.79542549E+02</pdfrwt>
<pdfrwt beam="2">  1       -1 0.30666965E-01 0.79542549E+02</pdfrwt>
<totfact> 0.10116989E+05</totfact>
</mgrwt>
</event>
<event>
 8      1 +5.0320763e-08 7.77945100e+01 7.81860800e-03 1.33542900e-01
        1 -1    0    0  501    0 +0.0000000000e+00 +0.0000000000e+00 +1.0317783776e+01 1.0317785007e+01 5.0400000000e-03 0.0000e+00 -1.0000e+00
       -2 -1    0    0    0  501 -0.0000000000e+00 -0.0000000000e+00 -1.4663967943e+02 1.4663967945e+02 2.5500000000e-03 0.0000e+00 1.0000e+00
      -24  2    1    2    0    0 +1.7763568394e-15 +7.1054273576e-15 -1.3632189565e+02 1.5695746446e+02 7.7794514039e+01 0.0000e+00 0.0000e+00
       66  2    3    3    0    0 -7.9106012930e+00 -3.2077781810e+01 -8.2751531502e+01 9.4018154182e+01 3.0000594183e+01 0.0000e+00 0.0000e+00
       13  1    3    3    0    0 +7.9106012930e+00 +3.2077781810e+01 -5.3570364149e+01 6.2939310274e+01 1.0566000000e-01 0.0000e+00 -1.0000e+00
       13  1    4    4    0    0 +1.1057177889e+00 +2.1315789840e+00 -3.7398419686e+00 4.4456521208e+00 1.0566000000e-01 0.0000e+00 -1.0000e+00
      -13  1    4    4    0    0 -1.5840592533e+01 -1.8109147349e+01 -5.3288865713e+01 5.8468623744e+01 1.0566000000e-01 0.0000e+00 1.0000e+00
      -14  1    4    4    0    0 +6.8242734514e+00 -1.6100213444e+01 -2.5722823820e+01 3.1103878317e+01 0.0000000000e+00 0.0000e+00 1.0000e+00
<mgrwt>
<rscale>  0 0.77794514E+02</rscale>
<asrwt>0</asrwt>
<pdfrwt beam="1">  1        1 0.15873516E-02 0.77794514E+02</pdfrwt>
<pdfrwt beam="2">  1       -2 0.22559949E-01 0.77794514E+02</pdfrwt>
<totfact> 0.10230613E+05</totfact>
</mgrwt>
</event>
<event>
 8      1 +5.0320763e-08 8.07830600e+01 7.81860800e-03 1.32684400e-01
        2 -1    0    0  501    0 +0.0000000000e+00 +0.0000000000e+00 +1.0581803834e+03 1.0581803834e+03 2.5500000000e-03 0.0000e+00 -1.0000e+00
       -3 -1    0    0    0  501 -0.0000000000e+00 -0.0000000000e+00 -1.5401179807e+00 1.5434261869e+00 1.0100000000e-01 0.0000e+00 1.0000e+00
       24  2    1    2    0    0 +1.5265566589e-15 +1.7763568394e-15 +1.0566402654e+03 1.0597238096e+03 8.0783055814e+01 0.0000e+00 0.0000e+00
       66  2    3    3    0    0 +1.6221749938e-01 -1.1048263256e+01 +1.0343597801e+03 1.0348537146e+03 2.9999424505e+01 0.0000e+00 0.0000e+00
      -13  1    3    3    0    0 -1.6221749938e-01 +1.1048263256e+01 +2.2280485347e+01 2.4870095031e+01 1.0566000000e-01 0.0000e+00 1.0000e+00
       13  1    4    4    0    0 +5.9185310648e+00 -1.2357477967e+00 +6.5627501960e+02 6.5630287871e+02 1.0566000000e-01 0.0000e+00 -1.0000e+00
      -13  1    4    4    0    0 -6.3242757100e+00 -1.3100577526e+01 +3.4283110204e+02 3.4313961777e+02 1.0566000000e-01 0.0000e+00 1.0000e+00
      -14  1    4    4    0    0 +5.6796214455e-01 +3.2880620664e+00 +3.5253658429e+01 3.5411218078e+01 0.0000000000e+00 0.0000e+00 1.0000e+00
<mgrwt>
<rscale>  0 0.80783056E+02</rscale>
<asrwt>0</asrwt>
<pdfrwt beam="1">  1        2 0.16279753E+00 0.80783056E+02</pdfrwt>
<pdfrwt beam="2">  1       -3 0.23719528E-03 0.80783056E+02</pdfrwt>
<totfact> 0.29825129E+05</totfact>
</mgrwt>
</event>
<event>
 8      1 +5.0320763e-08 7.69737200e+01 7.81860800e-03 1.33786600e-01
        2 -1    0    0  501    0 +0.0000000000e+00 +0.0000000000e+00 +3.2047075208e+02 3.2047075209e+02 2.5500000000e-03 0.0000e+00 -1.0000e+00
       -1 -1    0    0    0  501 -0.0000000000e+00 -0.0000000000e+00 -4.6220687716e+00 4.6220715194e+00 5.0400000000e-03 0.0000e+00 1.0000e+00
       24  2    1    2    0    0 +3.5527136788e-15 -3.5527136788e-15 +3.1584868331e+02 3.2509282361e+02 7.6973717688e+01 0.0000e+00 0.0000e+00
       66  2    3    3    0    0 +2.1754656020e+01 +1.9609442994e+01 +2.4276682308e+02 2.4636058897e+02 3.0000234924e+01 0.0000e+00 0.0000e+00
      -13  1    3    3    0    0 -2.1754656020e+01 -1.9609442994e+01 +7.3081860230e+01 7.8732234643e+01 1.0566000000e-01 0.0000e+00 1.0000e+00
       13  1    4    4    0    0 +8.5367280561e+00 +5.2481997426e+00 +1.2773003357e+02 1.2812256618e+02 1.0566000000e-01 0.0000e+00 -1.0000e+00
      -13  1    4    4    0    0 +1.4839361332e+00 -4.2064352310e-01 +6.0649685300e+01 6.0669386831e+01 1.0566000000e-01 0.0000e+00 1.0000e+00
      -14  1    4    4    0    0 +1.1733991831e+01 +1.4781886775e+01 +5.4387104210e+01 5.7568635951e+01 0.0000000000e+00 0.0000e+00 1.0000e+00
<mgrwt>
<rscale>  0 0.76973718E+02</rscale>
<asrwt>0</asrwt>
<pdfrwt beam="1">  1        2 0.49303199E-01 0.76973718E+02</pdfrwt>
<pdfrwt beam="2">  1       -1 0.71108762E-03 0.76973718E+02</pdfrwt>
<totfact> 0.28879777E+05</totfact>
</mgrwt>
</event>
<event>
 8      1 +5.0320763e-08 8.86180500e+01 7.81860800e-03 1.30623300e-01
       -3 -1    0    0    0  501 -0.0000000000e+00 +0.0000000000e+00 +5.4044501717e+01 5.4044596093e+01 1.0100000000e-01 0.0000e+00 1.0000e+00
        4 -1    0    0  501    0 +0.0000000000e+00 -0.0000000000e+00 -3.6308637049e+01 3.6330841229e+01 1.2700000000e+00 0.0000e+00 -1.0000e+00
       24  2    1    2    0    0 +0.0000000000e+00 +0.0000000000e+00 +1.7735864667e+01 9.0375437322e+01 8.8618049942e+01 0.0000e+00 0.0000e+00
       66  2    3    3    0    0 -3.6941626127e+01 -1.2601821597e+01 +5.8530660716e+00 4.9574681017e+01 2.9998349406e+01 0.0000e+00 0.0000e+00
      -13  1    3    3    0    0 +3.6941626127e+01 +1.2601821597e+01 +1.1882798596e+01 4.0800756304e+01 1.0566000000e-01 0.0000e+00 1.0000e+00
       13  1    4    4    0    0 -3.3494897740e+01 -9.2232743416e+00 +2.8157739838e+00 3.4855655372e+01 1.0566000000e-01 0.0000e+00 -1.0000e+00
      -13  1    4    4    0    0 -8.1345035246e+00 -4.4175576538e+00 +3.4965921618e+00 9.8955689072e+00 1.0566000000e-01 0.0000e+00 1.0000e+00
      -14  1    4    4    0    0 +4.6877751380e+00 +1.0390103980e+00 -4.5930007400e-01 4.8234567386e+00 0.0000000000e+00 0.0000e+00 1.0000e+00
<mgrwt>
<rscale>  0 0.88618050E+02</rscale>
<asrwt>0</asrwt>
<pdfrwt beam="1">  1        4 0.55887998E-02 0.88618050E+02</pdfrwt>
<pdfrwt beam="2">  1       -3 0.83145571E-02 0.88618050E+02</pdfrwt>
<totfact> 0.33636200E+04</totfact>
</mgrwt>
</event>
<event>
 8      1 +5.0320763e-08 7.70502900e+01 7.81860800e-03 1.33763700e-01
       -2 -1    0    0    0  501 -0.0000000000e+00 +0.0000000000e+00 +7.6806120810e+01 7.6806120852e+01 2.5500000000e-03 0.0000e+00 1.0000e+00
        1 -1    0    0  501    0 +0.0000000000e+00 -0.0000000000e+00 -1.9323809483e+01 1.9323810140e+01 5.0400000000e-03 0.0000e+00 -1.0000e+00
      -24  2    1    2    0    0 -6.6613381478e-16 +0.0000000000e+00 +5.7482311327e+01 9.6129930992e+01 7.7050292128e+01 0.0000e+00 0.0000e+00
       66  2    3    3    0    0 -1.2645420231e+00 -2.2559679427e+01 +6.2564042130e+01 7.2970195363e+01 2.9997530588e+01 0.0000e+00 0.0000e+00
       13  1    3    3    0    0 +1.2645420231e+00 +2.2559679427e+01 -5.0817308031e+00 2.3159735629e+01 1.0566000000e-01 0.0000e+00 -1.0000e+00
       13  1    4    4    0    0 +1.1130088192e+01 -3.3988660599e+00 +1.0433010782e+01 1.5629780282e+01 1.0566000000e-01 0.0000e+00 -1.0000e+00
      -13  1    4    4    0    0 -1.1434059604e+01 -1.9697024040e+01 +4.9964205269e+01 5.4910321864e+01 1.0566000000e-01 0.0000e+00 1.0000e+00
       14  1    4    4    0    0 -9.6057061126e-01 +5.3621067251e-01 +2.1668260790e+00 2.4300932166e+00 0.0000000000e+00 0.0000e+00 -1.0000e+00
<mgrwt>
<rscale>  0 0.77050292E+02</rscale>
<asrwt>0</asrwt>
<pdfrwt beam="1">  1        1 0.29728939E-02 0.77050292E+02</pdfrwt>
<pdfrwt beam="2">  1       -2 0.11816326E-01 0.77050292E+02</pdfrwt>
<totfact> 0.12404590E+05</totfact>
</mgrwt>
</event>
<event>
 8      1 +5.0320763e-08 9.46493000e+01 7.81860800e-03 1.29196800e-01
        1 -1    0    0  501    0 +0.0000000000e+00 +0.0000000000e+00 +5.2410453054e+00 5.2410477288e+00 5.0400000000e-03 0.0000e+00 -1.0000e+00
       -2 -1    0    0    0  501 -0.0000000000e+00 -0.0000000000e+00 -4.2732352872e+02 4.2732352873e+02 2.5500000000e-03 0.0000e+00 1.0000e+00
      -24  2    1    2    0    0 +0.0000000000e+00 +0.0000000000e+00 -4.2208248342e+02 4.3256457646e+02 9.4649300048e+01 0.0000e+00 0.0000e+00
       66  2    3    3    0    0 +2.3114491437e+01 -1.6469883541e+01 -3.7724728588e+02 3.7950100250e+02 2.9999323707e+01 0.0000e+00 0.0000e+00
       13  1    3    3    0    0 -2.3114491437e+01 +1.6469883541e+01 -4.4835197540e+01 5.3063573954e+01 1.0566000000e-01 0.0000e+00 -1.0000e+00
       13  1    4    4    0    0 +3.0127868927e+00 +3.1784173442e+00 -5.6000507125e+01 5.6171586981e+01 1.0566000000e-01 0.0000e+00 -1.0000e+00
      -13  1    4    4    0    0 +1.2096780754e+01 -4.2231643296e+00 -2.3500720164e+02 2.3535624744e+02 1.0566000000e-01 0.0000e+00 1.0000e+00
       14  1    4    4    0    0 +8.0049237900e+00 -1.5425136555e+01 -8.6239577107e+01 8.7973168081e+01 0.0000000000e+00 0.0000e+00 -1.0000e+00
<mgrwt>
<rscale>  0 0.94649300E+02</rscale>
<asrwt>0</asrwt>
<pdfrwt beam="1">  1        1 0.80631519E-03 0.94649300E+02</pdfrwt>
<pdfrwt beam="2">  1       -2 0.65742054E-01 0.94649300E+02</pdfrwt>
<totfact> 0.36486936E+04</totfact>
</mgrwt>
</event>
<event>
 8      1 +5.0320763e-08 8.09809400e+01 7.81860800e-03 1.32629000e-01
        2 -1    0    0  501    0 +0.0000000000e+00 +0.0000000000e+00 +1.5128687373e+03 1.5128687373e+03 2.5500000000e-03 0.0000e+00 -1.0000e+00
       -1 -1    0    0    0  501 -0.0000000000e+00 -0.0000000000e+00 -1.0836825360e+00 1.0836942560e+00 5.0400000000e-03 0.0000e+00 1.0000e+00
       24  2    1    2    0    0 +8.8817841970e-16 +0.0000000000e+00 +1.5117850547e+03 1.5139524315e+03 8.0980943517e+01 0.0000e+00 0.0000e+00
       66  2    3    3    0    0 -7.6590463591e+00 -1.3016482051e+01 +1.4485331688e+03 1.4489224228e+03 2.9995939730e+01 0.0000e+00 0.0000e+00
      -13  1    3    3    0    0 +7.6590463591e+00 +1.3016482051e+01 +6.3251885925e+01 6.5030008713e+01 1.0566000000e-01 0.0000e+00 1.0000e+00
       13  1    4    4    0    0 -8.9171522156e+00 -3.3893395222e+00 +6.4191393336e+02 6.4198482243e+02 1.0566000000e-01 0.0000e+00 -1.0000e+00
      -13  1    4    4    0    0 -8.8504390335e+00 -7.4992600367e+00 +3.2350356534e+02 3.2371150293e+02 1.0566000000e-01 0.0000e+00 1.0000e+00
      -14  1    4    4    0    0 +1.0108544890e+01 -2.1278824924e+00 +4.8311567009e+02 4.8322609744e+02 0.0000000000e+00 0.0000e+00 1.0000e+00
<mgrwt>
<rscale>  0 0.80980944E+02</rscale>
<asrwt>0</asrwt>
<pdfrwt beam="1">  1        2 0.23274855E+00 0.80980944E+02</pdfrwt>
<pdfrwt beam="2">  1       -1 0.16672164E-03 0.80980944E+02</pdfrwt>
<totfact> 0.32108954E+05</totfact>
</mgrwt>
</event>
<event>
 8      1 +5.0320763e-08 8.00585300e+01 7.81860800e-03 1.32888500e-01
       -1 -1    0    0    0  501 -0.0000000000e+00 +0.0000000000e+00 +1.0577573447e+00 1.0577693519e+00 5.0400000000e-03 0.0000e+00 1.0000e+00
        2 -1    0    0  501    0 +0.0000000000e+00 -0.0000000000e+00 -1.5148400168e+03 1.5148400168e+03 2.5500000000e-03 0.0000e+00 -1.0000e+00
       24  2    1    2    0    0 +1.7763568394e-15 +7.7715611724e-16 -1.5137822594e+03 1.5158977861e+03 8.0058534993e+01 0.0000e+00 0.0000e+00
       66  2    3    3    0    0 +1.5636895441e+01 -8.8571295795e-01 -1.4432826959e+03 1.4436793909e+03 2.9999107645e+01 0.0000e+00 0.0000e+00
      -13  1    3    3    0    0 -1.5636895441e+01 +8.8571295795e-01 -7.0499563551e+01 7.2218395242e+01 1.0566000000e-01 0.0000e+00 1.0000e+00
       13  1    4    4    0    0 +1.2819105730e+01 +7.9530631504e+00 -1.2722194086e+03 1.2723088522e+03 1.0566000000e-01 0.0000e+00 -1.0000e+00
      -13  1    4    4    0    0 +4.9817681742e-01 -1.7938890370e-01 -2.0577062496e+00 2.1273644646e+00 1.0566000000e-01 0.0000e+00 1.0000e+00
       14  1    4    4    0    0 +2.3196128938e+00 -8.6593872046e+00 -1.6900558108e+02 1.6924317424e+02 0.0000000000e+00 0.0000e+00 -1.0000e+00
<mgrwt>
<rscale>  0 0.80058535E+02</rscale>
<asrwt>0</asrwt>
<pdfrwt beam="1">  1        2 0.23305057E+00 0.80058535E+02</pdfrwt>
<pdfrwt beam="2">  1       -1 0.16273404E-03 0.80058535E+02</pdfrwt>
<totfact> 0.33063472E+05</totfact>
</mgrwt>
</event>
<event>
 8      1 +5.0320763e-08 8.04199900e+01 7.81860800e-03 1.32786400e-01
        4 -1    0    0  501    0 +0.0000000000e+00 +0.0000000000e+00 +4.5512300333e+02 4.5512477526e+02 1.2700000000e+00 0.0000e+00 -1.0000e+00
       -3 -1    0    0    0  501 -0.0000000000e+00 -0.0000000000e+00 -3.5509253273e+00 3.5523614230e+00 1.0100000000e-01 0.0000e+00 1.0000e+00
       24  2    1    2    0    0 -1.7763568394e-15 +1.7763568394e-15 +4.5157207800e+02 4.5867713669e+02 8.0419985630e+01 0.0000e+00 0.0000e+00
       66  2    3    3    0    0 +4.0027688870e+00 -1.4515085034e+01 +4.3497196870e+02 4.3626542891e+02 3.0003350844e+01 0.0000e+00 0.0000e+00
      -13  1    3    3    0    0 -4.0027688870e+00 +1.4515085034e+01 +1.6600109304e+01 2.2411707772e+01 1.0566000000e-01 0.0000e+00 1.0000e+00
       13  1    4    4    0    0 -8.1431900082e+00 +1.3099081245e+00 +1.7097537170e+02 1.7117422789e+02 1.0566000000e-01 0.0000e+00 -1.0000e+00
      -13  1    4    4    0    0 -7.4620661711e-01 -9.7135528724e+00 +1.1605434529e+02 1.1646257836e+02 1.0566000000e-01 0.0000e+00 1.0000e+00
      -14  1    4    4    0    0 +1.2892165512e+01 -6.1114402858e+00 +1.4794225171e+02 1.4862862266e+02 0.0000000000e+00 0.0000e+00 1.0000e+00
<mgrwt>
<rscale>  0 0.80419986E+02</rscale>
<asrwt>0</asrwt>
<pdfrwt beam="1">  1        4 0.70036519E-01 0.80419986E+02</pdfrwt>
<pdfrwt beam="2">  1       -3 0.54640759E-03 0.80419986E+02</pdfrwt>
<totfact> 0.21087867E+04</totfact>
</mgrwt>
</event>
<event>
 8      1 +5.0320763e-08 7.75697100e+01 7.81860800e-03 1.33609300e-01
        2 -1    0    0  501    0 +0.0000000000e+00 +0.0000000000e+00 +5.1607669349e+01 5.1607669412e+01 2.5500000000e-03 0.0000e+00 -1.0000e+00
       -1 -1    0    0    0  501 -0.0000000000e+00 -0.0000000000e+00 -2.9148087104e+01 2.9148087539e+01 5.0400000000e-03 0.0000e+00 1.0000e+00
       24  2    1    2    0    0 +9.9920072216e-16 +0.0000000000e+00 +2.2459582246e+01 8.0755756951e+01 7.7569707014e+01 0.0000e+00 0.0000e+00
       66  2    3    3    0    0 +9.9895713889e-01 -1.6386188286e+01 +4.2692210322e+01 5.4700517846e+01 3.0000279142e+01 0.0000e+00 0.0000e+00
      -13  1    3    3    0    0 -9.9895713889e-01 +1.6386188286e+01 -2.0232628077e+01 2.6055239105e+01 1.0566000000e-01 0.0000e+00 1.0000e+00
       13  1    4    4    0    0 +3.1783143718e+00 +2.5764967858e+00 +6.7881490507e+00 7.9265471363e+00 1.0566000000e-01 0.0000e+00 -1.0000e+00
      -13  1    4    4    0    0 +1.8755934653e+00 +2.4982378958e+00 +1.8732000287e+01 1.8990998979e+01 1.0566000000e-01 0.0000e+00 1.0000e+00
       14  1    4    4    0    0 -4.0549506982e+00 -2.1460922967e+01 +1.7172060985e+01 2.7782971731e+01 0.0000000000e+00 0.0000e+00 -1.0000e+00
<mgrwt>
<rscale>  0 0.77569707E+02</rscale>
<asrwt>0</asrwt>
<pdfrwt beam="1">  1        2 0.79396415E-02 0.77569707E+02</pdfrwt>
<pdfrwt beam="2">  1       -1 0.44843211E-02 0.77569707E+02</pdfrwt>
<totfact> 0.16368937E+05</totfact>
</mgrwt>
</event>
<event>
 8      1 +5.0320763e-08 7.98077700e+01 7.81860800e-03 1.32959800e-01
       -1 -1    0    0    0  501 -0.0000000000e+00 +0.0000000000e+00 +1.2200177297e+01 1.2200178338e+01 5.0400000000e-03 0.0000e+00 1.0000e+00
        2 -1    0    0  501    0 +0.0000000000e+00 -0.0000000000e+00 -1.3051613526e+02 1.3051613529e+02 2.5500000000e-03 0.0000e+00 -1.0000e+00
       24  2    1    2    0    0 +3.5527136788e-15 +1.1379786002e-15 -1.1831595796e+02 1.4271631362e+02 7.9807770709e+01 0.0000e+00 0.0000e+00
       66  2    3    3    0    0 +3.1544343100e+01 +2.3664870082e-01 -4.3591862137e+01 6.1606491498e+01 3.0000129431e+01 0.0000e+00 0.0000e+00
      -13  1    3    3    0    0 -3.1544343100e+01 -2.3664870082e-01 -7.4724095826e+01 8.1109822126e+01 1.0566000000e-01 0.0000e+00 1.0000e+00
       13  1    4    4    0    0 +3.1038106779e+01 -2.0502878019e+00 -3.6619115102e+01 4.8047252860e+01 1.0566000000e-01 0.0000e+00 -1.0000e+00
      -13  1    4    4    0    0 -1.7876829206e+00 -4.2532400275e+00 -2.0030759846e+00 5.0308387364e+00 1.0566000000e-01 0.0000e+00 1.0000e+00
      -14  1    4    4    0    0 +2.2939192417e+00 +6.5401765302e+00 -4.9696710501e+00 8.5283999015e+00 0.0000000000e+00 0.0000e+00 1.0000e+00
<mgrwt>
<rscale>  0 0.79807771E+02</rscale>
<asrwt>0</asrwt>
<pdfrwt beam="1">  1        2 0.20079404E-01 0.79807771E+02</pdfrwt>
<pdfrwt beam="2">  1       -1 0.18769505E-02 0.79807771E+02</pdfrwt>
<totfact> 0.19293053E+05</totfact>
</mgrwt>
</event>
<event>
 8      1 +5.0320763e-08 7.87414100e+01 7.81860800e-03 1.33266200e-01
       -1 -1    0    0    0  501 -0.0000000000e+00 +0.0000000000e+00 +2.2326212644e+00 2.2326269531e+00 5.0400000000e-03 0.0000e+00 1.0000e+00
        2 -1    0    0  501    0 +0.0000000000e+00 -0.0000000000e+00 -6.9427379527e+02 6.9427379528e+02 2.5500000000e-03 0.0000e+00 -1.0000e+00
       24  2    1    2    0    0 +3.5527136788e-15 -4.4408920985e-16 -6.9204117401e+02 6.9650642223e+02 7.8741410233e+01 0.0000e+00 0.0000e+00
       66  2    3    3    0    0 -2.6441788257e+01 -3.4183082743e+00 -5.7792200476e+02 5.7931406347e+02 3.0001459158e+01 0.0000e+00 0.0000e+00
      -13  1    3    3    0    0 +2.6441788257e+01 +3.4183082743e+00 -1.1411916925e+02 1.1719235876e+02 1.0566000000e-01 0.0000e+00 1.0000e+00
       13  1    4    4    0    0 +4.3984906119e-01 +1.4953172652e+00 -2.2683788259e+01 2.2737520858e+01 1.0566000000e-01 0.0000e+00 -1.0000e+00
      -13  1    4    4    0    0 -2.2443894308e+01 +8.7918555123e+00 -3.6275380033e+02 3.6355378685e+02 1.0566000000e-01 0.0000e+00 1.0000e+00
       14  1    4    4    0    0 -4.4377430105e+00 -1.3705481052e+01 -1.9248441616e+02 1.9302275576e+02 0.0000000000e+00 0.0000e+00 -1.0000e+00
<mgrwt>
<rscale>  0 0.78741410E+02</rscale>
<asrwt>0</asrwt>
<pdfrwt beam="1">  1        2 0.10681118E+00 0.78741410E+02</pdfrwt>
<pdfrwt beam="2">  1       -1 0.34348119E-03 0.78741410E+02</pdfrwt>
<totfact> 0.34792479E+05</totfact>
</mgrwt>
</event>
<event>
 8      1 +5.0320763e-08 8.04919300e+01 7.81860800e-03 1.32766100e-01
       -2 -1    0    0    0  501 -0.0000000000e+00 +0.0000000000e+00 +3.1137246614e+02 3.1137246615e+02 2.5500000000e-03 0.0000e+00 1.0000e+00
        1 -1    0    0  501    0 +0.0000000000e+00 -0.0000000000e+00 -5.2019290413e+00 5.2019314829e+00 5.0400000000e-03 0.0000e+00 -1.0000e+00
      -24  2    1    2    0    0 +0.0000000000e+00 -2.2204460493e-16 +3.0617053710e+02 3.1657439763e+02 8.0491934065e+01 0.0000e+00 0.0000e+00
       66  2    3    3    0    0 +2.2531438846e+01 -1.0908662245e+00 +2.7781988439e+02 2.8034421134e+02 3.0002215670e+01 0.0000e+00 0.0000e+00
       13  1    3    3    0    0 -2.2531438846e+01 +1.0908662245e+00 +2.8350652707e+01 3.6230186290e+01 1.0566000000e-01 0.0000e+00 -1.0000e+00
       13  1    4    4    0    0 -9.1470991401e-01 -4.4064122903e+00 +7.1911081719e+01 7.2051842457e+01 1.0566000000e-01 0.0000e+00 -1.0000e+00
      -13  1    4    4    0    0 +8.9980337269e+00 -2.5002287989e+00 +1.4895210790e+02 1.4924462257e+02 1.0566000000e-01 0.0000e+00 1.0000e+00
       14  1    4    4    0    0 +1.4448115034e+01 +5.8157748647e+00 +5.6956694770e+01 5.9047746311e+01 0.0000000000e+00 0.0000e+00 -1.0000e+00
<mgrwt>
<rscale>  0 0.80491934E+02</rscale>
<asrwt>0</asrwt>
<pdfrwt beam="1">  1        1 0.80029667E-03 0.80491934E+02</pdfrwt>
<pdfrwt beam="2">  1       -2 0.47903474E-01 0.80491934E+02</pdfrwt>
<totfact> 0.67761420E+04</totfact>
</mgrwt>
</event>
<event>
 8      1 +5.0320763e-08 7.97908900e+01 7.81860800e-03 1.32964600e-01
        2 -1    0    0  501    0 +0.0000000000e+00 +0.0000000000e+00 +5.1607591355e+01 5.1607591418e+01 2.5500000000e-03 0.0000e+00 -1.0000e+00
       -1 -1    0    0    0  501 -0.0000000000e+00 -0.0000000000e+00 -3.0841326084e+01 3.0841326496e+01 5.0400000000e-03 0.0000e+00 1.0000e+00
       24  2    1    2    0    0 +1.7763568394e-15 +3.5527136788e-15 +2.0766265271e+01 8.2448917914e+01 7.9790891033e+01 0.0000e+00 0.0000e+00
       66  2    3    3    0    0 -6.9982492580e+00 -2.7109704967e+01 +3.2245060163e+01 5.2188622273e+01 2.9999946563e+01 0.0000e+00 0.0000e+00
      -13  1    3    3    0    0 +6.9982492580e+00 +2.7109704967e+01 -1.1478794892e+01 3.0260295641e+01 1.0566000000e-01 0.0000e+00 1.0000e+00
       13  1    4    4    0    0 -6.2985469019e+00 -1.1752264131e+01 +1.3656694326e+01 1.9086745905e+01 1.0566000000e-01 0.0000e+00 -1.0000e+00
      -13  1    4    4    0    0 +2.6311446655e+00 -1.3210870833e+01 -6.2391940163e-01 1.3485194469e+01 1.0566000000e-01 0.0000e+00 1.0000e+00
      -14  1    4    4    0    0 -3.3308470217e+00 -2.1465700036e+00 +1.9212285238e+01 1.9616681899e+01 0.0000000000e+00 0.0000e+00 1.0000e+00
<mgrwt>
<rscale>  0 0.79790891E+02</rscale>
<asrwt>0</asrwt>
<pdfrwt beam="1">  1        2 0.79396294E-02 0.79790891E+02</pdfrwt>
<pdfrwt beam="2">  1       -1 0.47448195E-02 0.79790891E+02</pdfrwt>
<totfact> 0.15154900E+05</totfact>
</mgrwt>
</event>
<event>
 8      1 +5.0320763e-08 8.09096100e+01 7.81860800e-03 1.32649000e-01
       -1 -1    0    0    0  501 -0.0000000000e+00 +0.0000000000e+00 +2.0638699653e+00 2.0638761191e+00 5.0400000000e-03 0.0000e+00 1.0000e+00
        2 -1    0    0  501    0 +0.0000000000e+00 -0.0000000000e+00 -7.9297079677e+02 7.9297079677e+02 2.5500000000e-03 0.0000e+00 -1.0000e+00
       24  2    1    2    0    0 +3.5527136788e-15 +1.7763568394e-15 -7.9090692680e+02 7.9503467289e+02 8.0909605330e+01 0.0000e+00 0.0000e+00
       66  2    3    3    0    0 -1.6028914247e+01 -1.2401083388e+01 -7.2892611716e+02 7.2982466684e+02 3.0000784814e+01 0.0000e+00 0.0000e+00
      -13  1    3    3    0    0 +1.6028914247e+01 +1.2401083388e+01 -6.1980809641e+01 6.5210006049e+01 1.0566000000e-01 0.0000e+00 1.0000e+00
       13  1    4    4    0    0 -9.1681779057e+00 -9.2021518688e+00 -4.3184653125e+02 4.3204186464e+02 1.0566000000e-01 0.0000e+00 -1.0000e+00
      -13  1    4    4    0    0 -6.4695365090e+00 +2.4994396857e+00 -2.7083725716e+02 2.7092606580e+02 1.0566000000e-01 0.0000e+00 1.0000e+00
      -14  1    4    4    0    0 -3.9119983282e-01 -5.6983712046e+00 -2.6242328755e+01 2.6856736402e+01 0.0000000000e+00 0.0000e+00 1.0000e+00
<mgrwt>
<rscale>  0 0.80909605E+02</rscale>
<asrwt>0</asrwt>
<pdfrwt beam="1">  1        2 0.12199526E+00 0.80909605E+02</pdfrwt>
<pdfrwt beam="2">  1       -1 0.31751956E-03 0.80909605E+02</pdfrwt>
<totfact> 0.33319056E+05</totfact>
</mgrwt>
</event>
<event>
 8      1 +5.0320763e-08 8.07546600e+01 7.81860800e-03 1.32692300e-01
       -1 -1    0    0    0  501 -0.0000000000e+00 +0.0000000000e+00 +2.4563345641e+00 2.4563397347e+00 5.0400000000e-03 0.0000e+00 1.0000e+00
        2 -1    0    0  501    0 +0.0000000000e+00 -0.0000000000e+00 -6.6372360605e+02 6.6372360606e+02 2.5500000000e-03 0.0000e+00 -1.0000e+00
       24  2    1    2    0    0 +0.0000000000e+00 -8.8817841970e-16 -6.6126727149e+02 6.6617994579e+02 8.0754664471e+01 0.0000e+00 0.0000e+00
       66  2    3    3    0    0 +3.2717401258e+01 +5.4425904481e+00 -4.6328780112e+02 4.6544147916e+02 3.0002228533e+01 0.0000e+00 0.0000e+00
      -13  1    3    3    0    0 -3.2717401258e+01 -5.4425904481e+00 -1.9797947037e+02 2.0073846664e+02 1.0566000000e-01 0.0000e+00 1.0000e+00
       13  1    4    4    0    0 +1.2672090997e+01 +6.8533282798e+00 -2.7238219841e+02 2.7276294318e+02 1.0566000000e-01 0.0000e+00 -1.0000e+00
      -13  1    4    4    0    0 -2.6791677754e+00 -1.9381402550e+00 -2.7990115444e+01 2.8184961490e+01 1.0566000000e-01 0.0000e+00 1.0000e+00
       14  1    4    4    0    0 +2.2724478036e+01 +5.2740242341e-01 -1.6291548727e+02 1.6449357449e+02 0.0000000000e+00 0.0000e+00 -1.0000e+00
<mgrwt>
<rscale>  0 0.80754664E+02</rscale>
<asrwt>0</asrwt>
<pdfrwt beam="1">  1        2 0.10211118E+00 0.80754664E+02</pdfrwt>
<pdfrwt beam="2">  1       -1 0.37789855E-03 0.80754664E+02</pdfrwt>
<totfact> 0.32233054E+05</totfact>
</mgrwt>
</event>
<event>
 8      1 +5.0320763e-08 7.87673900e+01 7.81860800e-03 1.33258600e-01
       -1 -1    0    0    0  501 -0.0000000000e+00 +0.0000000000e+00 +2.2884239537e+00 2.2884295037e+00 5.0400000000e-03 0.0000e+00 1.0000e+00
        2 -1    0    0  501    0 +0.0000000000e+00 -0.0000000000e+00 -6.7779120764e+02 6.7779120764e+02 2.5500000000e-03 0.0000e+00 -1.0000e+00
       24  2    1    2    0    0 +0.0000000000e+00 +0.0000000000e+00 -6.7550278368e+02 6.8007963714e+02 7.8767392340e+01 0.0000e+00 0.0000e+00
       66  2    3    3    0    0 +7.9746704510e+00 +2.7629868878e+01 -5.3796089807e+02 5.3956349400e+02 2.9997186198e+01 0.0000e+00 0.0000e+00
      -13  1    3    3    0    0 -7.9746704510e+00 -2.7629868878e+01 -1.3754188561e+02 1.4051614315e+02 1.0566000000e-01 0.0000e+00 1.0000e+00
       13  1    4    4    0    0 +1.1125977620e+00 +2.8699597646e+01 -4.4654785472e+02 4.4747056048e+02 1.0566000000e-01 0.0000e+00 -1.0000e+00
      -13  1    4    4    0    0 +3.8087532344e+00 -4.3162570995e+00 -6.9081882382e+01 6.9321384248e+01 1.0566000000e-01 0.0000e+00 1.0000e+00
       14  1    4    4    0    0 +3.0533194546e+00 +3.2465283312e+00 -2.2331160968e+01 2.2771549269e+01 0.0000000000e+00 0.0000e+00 -1.0000e+00
<mgrwt>
<rscale>  0 0.78767392E+02</rscale>
<asrwt>0</asrwt>
<pdfrwt beam="1">  1        2 0.10427541E+00 0.78767392E+02</pdfrwt>
<pdfrwt beam="2">  1       -1 0.35206619E-03 0.78767392E+02</pdfrwt>
<totfact> 0.34566212E+05</totfact>
</mgrwt>
</event>
<event>
 8      1 +5.0320763e-08 7.96164300e+01 7.81860800e-03 1.33014300e-01
       -1 -1    0    0    0  501 -0.0000000000e+00 +0.0000000000e+00 +3.6685997177e+01 3.6685997523e+01 5.0400000000e-03 0.0000e+00 1.0000e+00
        2 -1    0    0  501    0 +0.0000000000e+00 -0.0000000000e+00 -4.3196150576e+01 4.3196150651e+01 2.5500000000e-03 0.0000e+00 -1.0000e+00
       24  2    1    2    0    0 +7.1054273576e-15 +0.0000000000e+00 -6.5101533990e+00 7.9882148175e+01 7.9616427323e+01 0.0000e+00 0.0000e+00
       66  2    3    3    0    0 -2.9050161871e+01 -8.7741797290e+00 +1.2011196239e+01 4.4330078037e+01 2.9999814150e+01 0.0000e+00 0.0000e+00
      -13  1    3    3    0    0 +2.9050161871e+01 +8.7741797290e+00 -1.8521349638e+01 3.5552070138e+01 1.0566000000e-01 0.0000e+00 1.0000e+00
       13  1    4    4    0    0 +3.5693174653e+00 -6.9960705164e+00 -6.0502108918e-01 7.8779594054e+00 1.0566000000e-01 0.0000e+00 -1.0000e+00
      -13  1    4    4    0    0 +1.6696844293e-01 -6.0165123347e-01 +1.7990853056e+00 1.9072846248e+00 1.0566000000e-01 0.0000e+00 1.0000e+00
       14  1    4    4    0    0 -3.2786447779e+01 -1.1764579791e+00 +1.0817132023e+01 3.4544834007e+01 0.0000000000e+00 0.0000e+00 -1.0000e+00
<mgrwt>
<rscale>  0 0.79616427E+02</rscale>
<asrwt>0</asrwt>
<pdfrwt beam="1">  1        2 0.66455617E-02 0.79616427E+02</pdfrwt>
<pdfrwt beam="2">  1       -1 0.56439996E-02 0.79616427E+02</pdfrwt>
<totfact> 0.14677161E+05</totfact>
</mgrwt>
</event>
<event>
 8      1 +5.0320763e-08 8.10677600e+01 7.81860800e-03 1.32604800e-01
       -2 -1    0    0    0  501 -0.0000000000e+00 +0.0000000000e+00 +9.4318354993e+01 9.4318355028e+01 2.5500000000e-03 0.0000e+00 1.0000e+00
        1 -1    0    0  501    0 +0.0000000000e+00 -0.0000000000e+00 -1.7419678339e+01 1.7419679068e+01 5.0400000000e-03 0.0000e+00 -1.0000e+00
      -24  2    1    2    0    0 +0.0000000000e+00 -1.7763568394e-15 +7.6898676654e+01 1.1173803410e+02 8.1067760499e+01 0.0000e+00 0.0000e+00
       66  2    3    3    0    0 +3.2847576851e+01 -1.1314761179e+01 +4.9358643508e+01 6.7404618761e+01 3.0001996865e+01 0.0000e+00 0.0000e+00
       13  1    3    3    0    0 -3.2847576851e+01 +1.1314761179e+01 +2.7540033147e+01 4.4333415335e+01 1.0566000000e-01 0.0000e+00 -1.0000e+00
       13  1    4    4    0    0 +7.8783368907e-01 -4.6750920406e+00 +1.9810335460e+00 5.1393409554e+00 1.0566000000e-01 0.0000e+00 -1.0000e+00
      -13  1    4    4    0    0 +1.0654062036e+01 -1.2329261180e+01 +2.9896281374e+01 3.4048766837e+01 1.0566000000e-01 0.0000e+00 1.0000e+00
       14  1    4    4    0    0 +2.1405681126e+01 +5.6895920408e+00 +1.7481328588e+01 2.8216510969e+01 0.0000000000e+00 0.0000e+00 -1.0000e+00
<mgrwt>
<rscale>  0 0.81067760E+02</rscale>
<asrwt>0</asrwt>
<pdfrwt beam="1">  1        1 0.26799506E-02 0.81067760E+02</pdfrwt>
<pdfrwt beam="2">  1       -2 0.14510516E-01 0.81067760E+02</pdfrwt>
<totfact> 0.10406290E+05</totfact>
</mgrwt>
</event>
<event>
 8      1 +5.0320763e-08 8.04766900e+01 7.81860800e-03 1.32770400e-01
       -1 -1    0    0    0  501 -0.0000000000e+00 +0.0000000000e+00 +7.8092847399e+00 7.8092863662e+00 5.0400000000e-03 0.0000e+00 1.0000e+00
        2 -1    0    0  501    0 +0.0000000000e+00 -0.0000000000e+00 -2.0733323452e+02 2.0733323453e+02 2.5500000000e-03 0.0000e+00 -1.0000e+00
       24  2    1    2    0    0 -3.5527136788e-15 -3.5527136788e-15 -1.9952394978e+02 2.1514252090e+02 8.0476690813e+01 0.0000e+00 0.0000e+00
       66  2    3    3    0    0 -2.8821617688e+01 -1.7202673963e+01 -9.0666338120e+01 1.0122760345e+02 3.0000419907e+01 0.0000e+00 0.0000e+00
      -13  1    3    3    0    0 +2.8821617688e+01 +1.7202673963e+01 -1.0885761166e+02 1.1391491745e+02 1.0566000000e-01 0.0000e+00 1.0000e+00
       13  1    4    4    0    0 -6.4994710155e+00 -1.5831243217e+00 -8.0567284312e+00 1.0472413435e+01 1.0566000000e-01 0.0000e+00 -1.0000e+00
      -13  1    4    4    0    0 -2.3304101863e+01 -2.1370432151e+01 -6.6860789067e+01 7.3960481426e+01 1.0566000000e-01 0.0000e+00 1.0000e+00
      -14  1    4    4    0    0 +9.8195519086e-01 +5.7508825105e+00 -1.5748820622e+01 1.6794708590e+01 0.0000000000e+00 0.0000e+00 1.0000e+00
<mgrwt>
<rscale>  0 0.80476691E+02</rscale>
<asrwt>0</asrwt>
<pdfrwt beam="1">  1        2 0.31897417E-01 0.80476691E+02</pdfrwt>
<pdfrwt beam="2">  1       -1 0.12014287E-02 0.80476691E+02</pdfrwt>
<totfact> 0.21989745E+05</totfact>
</mgrwt>
</event>
<event>
 8      1 +5.0320763e-08 7.26913400e+01 7.81860800e-03 1.35117300e-01
       -3 -1    0    0    0  501 -0.0000000000e+00 +0.0000000000e+00 +2.1005507630e+00 2.1029775339e+00 1.0100000000e-01 0.0000e+00 1.0000e+00
        2 -1    0    0  501    0 +0.0000000000e+00 -0.0000000000e+00 -6.2852203260e+02 6.2852203261e+02 2.5500000000e-03 0.0000e+00 -1.0000e+00
       24  2    1    2    0    0 -3.5527136788e-15 +3.5527136788e-15 -6.2642148184e+02 6.3062501014e+02 7.2691337215e+01 0.0000e+00 0.0000e+00
       66  2    3    3    0    0 +1.1259719498e+01 -2.5155078353e+01 -4.7273268345e+02 4.7448463367e+02 2.9998638925e+01 0.0000e+00 0.0000e+00
      -13  1    3    3    0    0 -1.1259719498e+01 +2.5155078353e+01 -1.5368879838e+02 1.5614037647e+02 1.0566000000e-01 0.0000e+00 1.0000e+00
       13  1    4    4    0    0 +6.8534296164e+00 -2.3284885435e+00 -7.8198982739e+01 7.8533326822e+01 1.0566000000e-01 0.0000e+00 -1.0000e+00
      -13  1    4    4    0    0 +1.4141001008e+01 -1.6854255826e+01 -2.4889648198e+02 2.4986697211e+02 1.0566000000e-01 0.0000e+00 1.0000e+00
       14  1    4    4    0    0 -9.7347111260e+00 -5.9723339834e+00 -1.4563721874e+02 1.4608433474e+02 0.0000000000e+00 0.0000e+00 -1.0000e+00
<mgrwt>
<rscale>  0 0.72691337E+02</rscale>
<asrwt>0</asrwt>
<pdfrwt beam="1">  1        2 0.96695547E-01 0.72691337E+02</pdfrwt>
<pdfrwt beam="2">  1       -3 0.32334946E-03 0.72691337E+02</pdfrwt>
<totfact> 0.35451799E+05</totfact>
</mgrwt>
</event>
<event>
 8      1 +5.0320763e-08 7.96832400e+01 7.81860800e-03 1.32995300e-01
       -1 -1    0    0    0  501 -0.0000000000e+00 +0.0000000000e+00 +3.6895728190e+00 3.6895762614e+00 5.0400000000e-03 0.0000e+00 1.0000e+00
        2 -1    0    0  501    0 +0.0000000000e+00 -0.0000000000e+00 -4.3022706578e+02 4.3022706578e+02 2.5500000000e-03 0.0000e+00 -1.0000e+00
       24  2    1    2    0    0 +3.5527136788e-15 -3.5527136788e-15 -4.2653749296e+02 4.3391664205e+02 7.9683243819e+01 0.0000e+00 0.0000e+00
       66  2    3    3    0    0 -2.0981235322e+01 -1.6111725071e+01 -3.6148438513e+02 3.6369045090e+02 2.9999724410e+01 0.0000e+00 0.0000e+00
      -13  1    3    3    0    0 +2.0981235322e+01 +1.6111725071e+01 -6.5053107832e+01 7.0226191147e+01 1.0566000000e-01 0.0000e+00 1.0000e+00
       13  1    4    4    0    0 -4.7515927020e+00 +3.4918056947e-01 -7.3055482069e+01 7.3210751838e+01 1.0566000000e-01 0.0000e+00 -1.0000e+00
      -13  1    4    4    0    0 +1.8396242505e+00 +2.9922999660e+00 -7.3208543007e+00 8.1206002362e+00 1.0566000000e-01 0.0000e+00 1.0000e+00
       14  1    4    4    0    0 -1.8069266870e+01 -1.9453205607e+01 -2.8110804876e+02 2.8235909882e+02 0.0000000000e+00 0.0000e+00 -1.0000e+00
<mgrwt>
<rscale>  0 0.79683244E+02</rscale>
<asrwt>0</asrwt>
<pdfrwt beam="1">  1        2 0.66188740E-01 0.79683244E+02</pdfrwt>
<pdfrwt beam="2">  1       -1 0.56762719E-03 0.79683244E+02</pdfrwt>
<totfact> 0.29275736E+05</totfact>
</mgrwt>
</event>
<event>
 8      1 +5.0320763e-08 6.91402100e+01 7.81860800e-03 1.36304100e-01
        1 -1    0    0  501    0 +0.0000000000e+00 +0.0000000000e+00 +5.0791413615e+02 5.0791413618e+02 5.0400000000e-03 0.0000e+00 -1.0000e+00
       -2 -1    0    0    0  501 -0.0000000000e+00 -0.0000000000e+00 -2.3529405018e+00 2.3529418836e+00 2.5500000000e-03 0.0000e+00 1.0000e+00
      -24  2    1    2    0    0 -1.1657341759e-15 +0.0000000000e+00 +5.0556119565e+02 5.1026707806e+02 6.9140208311e+01 0.0000e+00 0.0000e+00
       66  2    3    3    0    0 -2.0945670170e-01 -2.6297610958e+01 +3.7262153223e+02 3.7475112517e+02 2.9999855310e+01 0.0000e+00 0.0000e+00
       13  1    3    3    0    0 +2.0945670170e-01 +2.6297610958e+01 +1.3293966342e+02 1.3551595289e+02 1.0566000000e-01 0.0000e+00 -1.0000e+00
       13  1    4    4    0    0 +3.8327556987e+00 -3.0555981701e+01 +2.7253825735e+02 2.7427262152e+02 1.0566000000e-01 0.0000e+00 -1.0000e+00
      -13  1    4    4    0    0 -1.7655814365e+00 +1.2154302334e+00 +7.0918681230e+00 7.4094740684e+00 1.0566000000e-01 0.0000e+00 1.0000e+00
       14  1    4    4    0    0 -2.2766309639e+00 +3.0429405089e+00 +9.2991406760e+01 9.3069029579e+01 0.0000000000e+00 0.0000e+00 -1.0000e+00
<mgrwt>
<rscale>  0 0.69140208E+02</rscale>
<asrwt>0</asrwt>
<pdfrwt beam="1">  1        1 0.78140716E-01 0.69140208E+02</pdfrwt>
<pdfrwt beam="2">  1       -2 0.36199059E-03 0.69140208E+02</pdfrwt>
<totfact> 0.28702893E+05</totfact>
</mgrwt>
</event>
<event>
 8      1 +5.0320763e-08 8.01865600e+01 7.81860800e-03 1.32852300e-01
       -2 -1    0    0    0  501 -0.0000000000e+00 +0.0000000000e+00 +8.0836807524e+00 8.0836811546e+00 2.5500000000e-03 0.0000e+00 1.0000e+00
        1 -1    0    0  501    0 +0.0000000000e+00 -0.0000000000e+00 -1.9885385746e+02 1.9885385753e+02 5.0400000000e-03 0.0000e+00 -1.0000e+00
      -24  2    1    2    0    0 +0.0000000000e+00 +0.0000000000e+00 -1.9077017671e+02 2.0693753868e+02 8.0186561177e+01 0.0000e+00 0.0000e+00
       66  2    3    3    0    0 +1.0717119490e+01 -2.4247578597e+01 -5.1835217734e+01 6.5495905108e+01 3.0000367839e+01 0.0000e+00 0.0000e+00
       13  1    3    3    0    0 -1.0717119490e+01 +2.4247578597e+01 -1.3893495898e+02 1.4144163357e+02 1.0566000000e-01 0.0000e+00 -1.0000e+00
       13  1    4    4    0    0 -6.6333908962e+00 -1.7309760181e+01 -2.5979499926e+01 3.1915125767e+01 1.0566000000e-01 0.0000e+00 1.0000e+00
      -13  1    4    4    0    0 +1.3595495015e+01 -4.4034649970e+00 -2.5245123575e+01 2.9009574575e+01 1.0566000000e-01 0.0000e+00 -1.0000e+00
      -14  1    4    4    0    0 +3.7550153719e+00 -2.5343534190e+00 -6.1059423290e-01 4.5712047661e+00 0.0000000000e+00 0.0000e+00 1.0000e+00
<mgrwt>
<rscale>  0 0.80186561E+02</rscale>
<asrwt>0</asrwt>
<pdfrwt beam="1">  1        1 0.30592898E-01 0.80186561E+02</pdfrwt>
<pdfrwt beam="2">  1       -2 0.12436434E-02 0.80186561E+02</pdfrwt>
<totfact> 0.16552632E+05</totfact>
</mgrwt>
</event>
<event>
 8      1 +5.0320763e-08 7.91381800e+01 7.81860800e-03 1.33151500e-01
       -3 -1    0    0    0  501 -0.0000000000e+00 +0.0000000000e+00 +2.8712010370e+01 2.8712188013e+01 1.0100000000e-01 0.0000e+00 1.0000e+00
        4 -1    0    0  501    0 +0.0000000000e+00 -0.0000000000e+00 -5.4509933448e+01 5.4524725992e+01 1.2700000000e+00 0.0000e+00 -1.0000e+00
       24  2    1    2    0    0 +0.0000000000e+00 -1.7763568394e-15 -2.5797923078e+01 8.3236914006e+01 7.9138176742e+01 0.0000e+00 0.0000e+00
       66  2    3    3    0    0 -2.7442852475e+01 -1.2070988007e+01 -3.1356805872e+01 5.2745419365e+01 3.0000184767e+01 0.0000e+00 0.0000e+00
      -13  1    3    3    0    0 +2.7442852475e+01 +1.2070988007e+01 +5.5588827943e+00 3.0491494640e+01 1.0566000000e-01 0.0000e+00 1.0000e+00
       13  1    4    4    0    0 +3.6108839371e+00 -6.2166627752e-01 -8.7527029930e+00 9.4892531575e+00 1.0566000000e-01 0.0000e+00 -1.0000e+00
      -13  1    4    4    0    0 -2.5872875291e+00 -5.8087347898e+00 +1.7761044270e-01 6.3622453679e+00 1.0566000000e-01 0.0000e+00 1.0000e+00
       14  1    4    4    0    0 -2.8466448884e+01 -5.6405869394e+00 -2.2781713322e+01 3.6893920840e+01 0.0000000000e+00 0.0000e+00 -1.0000e+00
<mgrwt>
<rscale>  0 0.79138177E+02</rscale>
<asrwt>0</asrwt>
<pdfrwt beam="1">  1        4 0.83894415E-02 0.79138177E+02</pdfrwt>
<pdfrwt beam="2">  1       -3 0.44172535E-02 0.79138177E+02</pdfrwt>
<totfact> 0.45675949E+04</totfact>
</mgrwt>
</event>
<event>
 8      1 +5.0320763e-08 7.92443900e+01 7.81860800e-03 1.33121000e-01
       -2 -1    0    0    0  501 -0.0000000000e+00 +0.0000000000e+00 +5.2299228134e+02 5.2299228135e+02 2.5500000000e-03 0.0000e+00 1.0000e+00
        1 -1    0    0  501    0 +0.0000000000e+00 -0.0000000000e+00 -3.0017980626e+00 3.0018022937e+00 5.0400000000e-03 0.0000e+00 -1.0000e+00
      -24  2    1    2    0    0 +3.5527136788e-15 +0.0000000000e+00 +5.1999048328e+02 5.2599408364e+02 7.9244389865e+01 0.0000e+00 0.0000e+00
       66  2    3    3    0    0 +2.4606934840e+01 -2.2713152646e+01 +3.3403579444e+02 3.3704820248e+02 3.0003171128e+01 0.0000e+00 0.0000e+00
       13  1    3    3    0    0 -2.4606934840e+01 +2.2713152646e+01 +1.8595468883e+02 1.8894588116e+02 1.0566000000e-01 0.0000e+00 -1.0000e+00
       13  1    4    4    0    0 +1.4283761525e+01 -3.1888969277e+00 +5.7378963669e+01 5.9216142585e+01 1.0566000000e-01 0.0000e+00 -1.0000e+00
      -13  1    4    4    0    0 +7.0507841304e+00 -1.0325705592e+01 +8.3743616827e+01 8.4671945036e+01 1.0566000000e-01 0.0000e+00 1.0000e+00
       14  1    4    4    0    0 +3.2723891845e+00 -9.1985501264e+00 +1.9291321395e+02 1.9316011486e+02 0.0000000000e+00 0.0000e+00 -1.0000e+00
<mgrwt>
<rscale>  0 0.79244390E+02</rscale>
<asrwt>0</asrwt>
<pdfrwt beam="1">  1        1 0.46181584E-03 0.79244390E+02</pdfrwt>
<pdfrwt beam="2">  1       -2 0.80460277E-01 0.79244390E+02</pdfrwt>
<totfact> 0.49863116E+04</totfact>
</mgrwt>
</event>
<event>
 8      1 +5.0320763e-08 7.76136800e+01 7.81860800e-03 1.33596300e-01
       -1 -1    0    0    0  501 -0.0000000000e+00 +0.0000000000e+00 +7.2161525737e+00 7.2161543338e+00 5.0400000000e-03 0.0000e+00 1.0000e+00
        2 -1    0    0  501    0 +0.0000000000e+00 -0.0000000000e+00 -2.0869440437e+02 2.0869440438e+02 2.5500000000e-03 0.0000e+00 -1.0000e+00
       24  2    1    2    0    0 -1.7763568394e-15 +3.5527136788e-15 -2.0147825179e+02 2.1591055872e+02 7.7613680621e+01 0.0000e+00 0.0000e+00
       66  2    3    3    0    0 +1.5217182976e+01 -2.2281162697e+01 -1.6868749820e+02 1.7344577856e+02 2.9999219671e+01 0.0000e+00 0.0000e+00
      -13  1    3    3    0    0 -1.5217182976e+01 +2.2281162697e+01 -3.2790753592e+01 4.2464780160e+01 1.0566000000e-01 0.0000e+00 1.0000e+00
       13  1    4    4    0    0 -3.4153497678e+00 -1.2504028273e+01 -5.4861633771e+01 5.6372203799e+01 1.0566000000e-01 0.0000e+00 -1.0000e+00
      -13  1    4    4    0    0 +4.5100167642e+00 -2.2785328130e-01 -6.8482248487e+01 6.8631054853e+01 1.0566000000e-01 0.0000e+00 1.0000e+00
      -14  1    4    4    0    0 +1.4122515979e+01 -9.5492811425e+00 -4.5343615943e+01 4.8442519905e+01 0.0000000000e+00 0.0000e+00 1.0000e+00
<mgrwt>
<rscale>  0 0.77613681E+02</rscale>
<asrwt>0</asrwt>
<pdfrwt beam="1">  1        2 0.32106827E-01 0.77613681E+02</pdfrwt>
<pdfrwt beam="2">  1       -1 0.11101776E-02 0.77613681E+02</pdfrwt>
<totfact> 0.24246191E+05</totfact>
</mgrwt>
</event>
<event>
 8      1 +5.0320763e-08 7.95913900e+01 7.81860800e-03 1.33021500e-01
       -2 -1    0    0    0  501 -0.0000000000e+00 +0.0000000000e+00 +2.8688768695e+01 2.8688768808e+01 2.5500000000e-03 0.0000e+00 1.0000e+00
        1 -1    0    0  501    0 +0.0000000000e+00 -0.0000000000e+00 -5.5202687695e+01 5.5202687925e+01 5.0400000000e-03 0.0000e+00 -1.0000e+00
      -24  2    1    2    0    0 +8.8817841970e-16 -3.5527136788e-15 -2.6513919001e+01 8.3891456733e+01 7.9591385288e+01 0.0000e+00 0.0000e+00
       66  2    3    3    0    0 -7.8093795146e+00 +2.9985195860e+01 -2.3331854187e-02 4.3125530391e+01 2.9995207083e+01 0.0000e+00 0.0000e+00
       13  1    3    3    0    0 +7.8093795146e+00 -2.9985195860e+01 -2.6490587146e+01 4.0765926343e+01 1.0566000000e-01 0.0000e+00 -1.0000e+00
       13  1    4    4    0    0 -1.0107353873e-01 +1.6540713335e+01 -3.2780055448e+00 1.6863033472e+01 1.0566000000e-01 0.0000e+00 -1.0000e+00
      -13  1    4    4    0    0 +1.9114647711e+00 +1.2780342733e+01 -4.7113480256e+00 1.3754956278e+01 1.0566000000e-01 0.0000e+00 1.0000e+00
      -14  1    4    4    0    0 -9.6197707469e+00 +6.6413979139e-01 +7.9660217162e+00 1.2507540640e+01 0.0000000000e+00 0.0000e+00 1.0000e+00
<mgrwt>
<rscale>  0 0.79591385E+02</rscale>
<asrwt>0</asrwt>
<pdfrwt beam="1">  1        1 0.84927212E-02 0.79591385E+02</pdfrwt>
<pdfrwt beam="2">  1       -2 0.44136567E-02 0.79591385E+02</pdfrwt>
<totfact> 0.13553658E+05</totfact>
</mgrwt>
</event>
<event>
 8      1 +5.0320763e-08 6.88448900e+01 7.81860800e-03 1.36406600e-01
        2 -1    0    0  501    0 +0.0000000000e+00 +0.0000000000e+00 +9.9739202921e+01 9.9739202954e+01 2.5500000000e-03 0.0000e+00 -1.0000e+00
       -1 -1    0    0    0  501 -0.0000000000e+00 -0.0000000000e+00 -1.1880028232e+01 1.1880029301e+01 5.0400000000e-03 0.0000e+00 1.0000e+00
       24  2    1    2    0    0 +0.0000000000e+00 -1.7763568394e-15 +8.7859174689e+01 1.1161923226e+02 6.8844886754e+01 0.0000e+00 0.0000e+00
       66  2    3    3    0    0 +2.0400959886e+01 +1.2524567138e+01 +2.9082753036e+01 4.8154731527e+01 3.0000128301e+01 0.0000e+00 0.0000e+00
      -13  1    3    3    0    0 -2.0400959886e+01 -1.2524567138e+01 +5.8776421653e+01 6.3464500728e+01 1.0566000000e-01 0.0000e+00 1.0000e+00
       13  1    4    4    0    0 +1.1045804984e+01 +5.5300536951e+00 +6.7189807838e+00 1.4062260431e+01 1.0566000000e-01 0.0000e+00 -1.0000e+00
      -13  1    4    4    0    0 +2.3397491769e+00 +1.6141045329e+00 -4.7705219053e+00 5.5541698694e+00 1.0566000000e-01 0.0000e+00 1.0000e+00
      -14  1    4    4    0    0 +7.0154057256e+00 +5.3804089098e+00 +2.7134294157e+01 2.8538301227e+01 0.0000000000e+00 0.0000e+00 1.0000e+00
<mgrwt>
<rscale>  0 0.68844887E+02</rscale>
<asrwt>0</asrwt>
<pdfrwt beam="1">  1        2 0.15344493E-01 0.68844887E+02</pdfrwt>
<pdfrwt beam="2">  1       -1 0.18276967E-02 0.68844887E+02</pdfrwt>
<totfact> 0.26379205E+05</totfact>
</mgrwt>
</event>
<event>
 7      1 +5.0320763e-08 1.12423700e+02 7.81860800e-03 1.25614600e-01
       -1 -1    0    0    0  501 -0.0000000000e+00 +0.0000000000e+00 +6.0819687006e+01 6.0819687215e+01 5.0400000000e-03 0.0000e+00 1.0000e+00
        2 -1    0    0  501    0 +0.0000000000e+00 -0.0000000000e+00 -5.1953092967e+01 5.1953093030e+01 2.5500000000e-03 0.0000e+00 -1.0000e+00
       66  2    1    2    0    0 +3.8544735266e+01 +3.1797293008e+01 -1.0431747701e+01 5.9207851258e+01 2.9999730517e+01 0.0000e+00 0.0000e+00
      -13  1    1    2    0    0 -3.8544735266e+01 -3.1797293008e+01 +1.9298341739e+01 5.3564928986e+01 1.0566000000e-01 0.0000e+00 1.0000e+00
       13  1    3    3    0    0 +3.0791434365e+01 +2.3220998959e+01 -7.6151824546e+00 3.9310677821e+01 1.0566000000e-01 0.0000e+00 -1.0000e+00
      -13  1    3    3    0    0 +6.9393877577e+00 +9.2677121095e+00 +4.5598630762e+00 1.2443838054e+01 1.0566000000e-01 0.0000e+00 1.0000e+00
       14  1    3    3    0    0 +8.1391314371e-01 -6.9141806052e-01 -7.3764283221e+00 7.4533353830e+00 0.0000000000e+00 0.0000e+00 -1.0000e+00
<mgrwt>
<rscale>  0 0.11242368E+03</rscale>
<asrwt>0</asrwt>
<pdfrwt beam="1">  1        2 0.79927835E-02 0.11242368E+03</pdfrwt>
<pdfrwt beam="2">  1       -1 0.93568750E-02 0.11242368E+03</pdfrwt>
<totfact> 0.57918749E+04</totfact>
</mgrwt>
</event>
<event>
 7      1 +5.0320763e-08 1.55647900e+02 7.81860800e-03 1.19370000e-01
        2 -1    0    0  501    0 +0.0000000000e+00 +0.0000000000e+00 +9.9664979948e+01 9.9664979981e+01 2.5500000000e-03 0.0000e+00 -1.0000e+00
       -1 -1    0    0    0  501 -0.0000000000e+00 -0.0000000000e+00 -6.0769289253e+01 6.0769289462e+01 5.0400000000e-03 0.0000e+00 1.0000e+00
       66  2    1    2    0    0 -6.0478948854e+01 -1.8846129981e+01 +6.1426528946e+01 9.3199384851e+01 3.0000450138e+01 0.0000e+00 0.0000e+00
      -13  1    1    2    0    0 +6.0478948854e+01 +1.8846129981e+01 -2.2530838251e+01 6.7234884592e+01 1.0566000000e-01 0.0000e+00 1.0000e+00
       13  1    3    3    0    0 -8.1427669621e+00 -1.9679927496e+00 +6.9556347472e+00 1.0888970017e+01 1.0566000000e-01 0.0000e+00 -1.0000e+00
      -13  1    3    3    0    0 -1.1338136554e+01 -1.2194105552e+01 +3.0066137777e+01 3.4369075571e+01 1.0566000000e-01 0.0000e+00 1.0000e+00
      -14  1    3    3    0    0 -4.0998045338e+01 -4.6840316788e+00 +2.4404756422e+01 4.7941339263e+01 0.0000000000e+00 0.0000e+00 1.0000e+00
<mgrwt>
<rscale>  0 0.15564794E+03</rscale>
<asrwt>0</asrwt>
<pdfrwt beam="1">  1        2 0.15333074E-01 0.15564794E+03</pdfrwt>
<pdfrwt beam="2">  1       -1 0.93491214E-02 0.15564794E+03</pdfrwt>
<totfact> 0.27353819E+04</totfact>
</mgrwt>
</event>
<event>
 8      1 +5.0320763e-08 8.14996600e+01 7.81860800e-03 1.32484900e-01
        2 -1    0    0  501    0 +0.0000000000e+00 +0.0000000000e+00 +4.5531312198e+01 4.5531312269e+01 2.5500000000e-03 0.0000e+00 -1.0000e+00
       -1 -1    0    0    0  501 -0.0000000000e+00 -0.0000000000e+00 -3.6470475393e+01 3.6470475742e+01 5.0400000000e-03 0.0000e+00 1.0000e+00
       24  2    1    2    0    0 +0.0000000000e+00 +0.0000000000e+00 +9.0608368044e+00 8.2001788011e+01 8.1499659345e+01 0.0000e+00 0.0000e+00
       66  2    3    3    0    0 +6.5984913103e+00 +1.8071049798e+01 +3.4837377060e+01 4.9837458079e+01 3.0000440979e+01 0.0000e+00 0.0000e+00
      -13  1    3    3    0    0 -6.5984913103e+00 -1.8071049798e+01 -2.5776540256e+01 3.2164329932e+01 1.0566000000e-01 0.0000e+00 1.0000e+00
       13  1    4    4    0    0 +8.5291053690e+00 +7.7245951555e+00 +1.7884547964e+01 2.1266951560e+01 1.0566000000e-01 0.0000e+00 -1.0000e+00
      -13  1    4    4    0    0 +1.8645089266e+00 +5.1444331199e+00 -3.9167779159e+00 6.7300742151e+00 1.0566000000e-01 0.0000e+00 1.0000e+00
       14  1    4    4    0    0 -3.7951229853e+00 +5.2020215223e+00 +2.0869607012e+01 2.1840432304e+01 0.0000000000e+00 0.0000e+00 -1.0000e+00
<mgrwt>
<rscale>  0 0.81499659E+02</rscale>
<asrwt>0</asrwt>
<pdfrwt beam="1">  1        2 0.70048173E-02 0.81499659E+02</pdfrwt>
<pdfrwt beam="2">  1       -1 0.56108424E-02 0.81499659E+02</pdfrwt>
<totfact> 0.13915542E+05</totfact>
</mgrwt>
</event>
<event>
 8      1 +5.0320763e-08 8.32628400e+01 7.81860800e-03 1.32003900e-01
        1 -1    0    0  501    0 +0.0000000000e+00 +0.0000000000e+00 +4.8789710258e+01 4.8789710518e+01 5.0400000000e-03 0.0000e+00 -1.0000e+00
       -2 -1    0    0    0  501 -0.0000000000e+00 -0.0000000000e+00 -3.5523375561e+01 3.5523375652e+01 2.5500000000e-03 0.0000e+00 1.0000e+00
      -24  2    1    2    0    0 +3.5527136788e-15 +3.5527136788e-15 +1.3266334697e+01 8.4313086170e+01 8.3262842032e+01 0.0000e+00 0.0000e+00
       66  2    3    3    0    0 -2.5970419790e+01 -2.1939792788e+01 -5.1763426075e+00 4.5635434718e+01 2.9999686123e+01 0.0000e+00 0.0000e+00
       13  1    3    3    0    0 +2.5970419790e+01 +2.1939792788e+01 +1.8442677304e+01 3.8677651452e+01 1.0566000000e-01 0.0000e+00 -1.0000e+00
       13  1    4    4    0    0 -9.7751647713e+00 -6.2393739952e+00 +5.4382486541e+00 1.2808955719e+01 1.0566000000e-01 0.0000e+00 -1.0000e+00
      -13  1    4    4    0    0 -1.7734055202e+01 -5.5729938113e+00 -1.2512837075e+01 2.2408418722e+01 1.0566000000e-01 0.0000e+00 1.0000e+00
      -14  1    4    4    0    0 +1.5388001834e+00 -1.0127424982e+01 +1.8982458134e+00 1.0418060277e+01 0.0000000000e+00 0.0000e+00 1.0000e+00
<mgrwt>
<rscale>  0 0.83262842E+02</rscale>
<asrwt>0</asrwt>
<pdfrwt beam="1">  1        1 0.75061093E-02 0.83262842E+02</pdfrwt>
<pdfrwt beam="2">  1       -2 0.54651347E-02 0.83262842E+02</pdfrwt>
<totfact> 0.11720908E+05</totfact>
</mgrwt>
</event>
<event>
 8      1 +5.0320763e-08 8.10208600e+01 7.81860800e-03 1.32617900e-01
        1 -1    0    0  501    0 +0.0000000000e+00 +0.0000000000e+00 +1.5509796594e+01 1.5509797413e+01 5.0400000000e-03 0.0000e+00 -1.0000e+00
       -2 -1    0    0    0  501 -0.0000000000e+00 -0.0000000000e+00 -1.0581021028e+02 1.0581021031e+02 2.5500000000e-03 0.0000e+00 1.0000e+00
      -24  2    1    2    0    0 +0.0000000000e+00 +0.0000000000e+00 -9.0300413682e+01 1.2132000772e+02 8.1020858809e+01 0.0000e+00 0.0000e+00
       66  2    3    3    0    0 -3.3195947835e+01 -1.0811054373e+01 -5.3977813638e+01 7.0939532461e+01 2.9999384182e+01 0.0000e+00 0.0000e+00
       13  1    3    3    0    0 +3.3195947835e+01 +1.0811054373e+01 -3.6322600044e+01 5.0380475259e+01 1.0566000000e-01 0.0000e+00 -1.0000e+00
       13  1    4    4    0    0 -1.1433281604e+00 +9.3136575282e-01 -7.5006137345e+00 7.6449337393e+00 1.0566000000e-01 0.0000e+00 -1.0000e+00
      -13  1    4    4    0    0 -2.9121021908e+01 -9.0185636538e+00 -4.9599229473e+01 5.8219095971e+01 1.0566000000e-01 0.0000e+00 1.0000e+00
      -14  1    4    4    0    0 -2.9315977666e+00 -2.7238564723e+00 +3.1220295689e+00 5.0755027510e+00 0.0000000000e+00 0.0000e+00 1.0000e+00
<mgrwt>
<rscale>  0 0.81020859E+02</rscale>
<asrwt>0</asrwt>
<pdfrwt beam="1">  1        1 0.23861227E-02 0.81020859E+02</pdfrwt>
<pdfrwt beam="2">  1       -2 0.16278493E-01 0.81020859E+02</pdfrwt>
<totfact> 0.10127785E+05</totfact>
</mgrwt>
</event>
<event>
 8      1 +5.0320763e-08 9.55675800e+01 7.81860800e-03 1.28990300e-01
       -1 -1    0    0    0  501 -0.0000000000e+00 +0.0000000000e+00 +2.5105454969e+00 2.5105505559e+00 5.0400000000e-03 0.0000e+00 1.0000e+00
        2 -1    0    0  501    0 +0.0000000000e+00 -0.0000000000e+00 -9.0947892903e+02 9.0947892903e+02 2.5500000000e-03 0.0000e+00 -1.0000e+00
       24  2    1    2    0    0 +8.8817841970e-16 +0.0000000000e+00 -9.0696838353e+02 9.1198947959e+02 9.5567578986e+01 0.0000e+00 0.0000e+00
       66  2    3    3    0    0 -7.4133198801e+00 -2.4731179443e+01 -8.2720871109e+02 8.2815508891e+02 3.0000183946e+01 0.0000e+00 0.0000e+00
      -13  1    3    3    0    0 +7.4133198801e+00 +2.4731179443e+01 -7.9759672447e+01 8.3834390683e+01 1.0566000000e-01 0.0000e+00 1.0000e+00
       13  1    4    4    0    0 -4.5557691063e+00 -6.4799523264e+00 -4.7887351002e+02 4.7893903013e+02 1.0566000000e-01 0.0000e+00 -1.0000e+00
      -13  1    4    4    0    0 -8.4833017652e+00 -1.0212780410e+01 -2.5976278888e+02 2.6010187416e+02 1.0566000000e-01 0.0000e+00 1.0000e+00
      -14  1    4    4    0    0 +5.6257509913e+00 -8.0384467063e+00 -8.8572412179e+01 8.9114184611e+01 0.0000000000e+00 0.0000e+00 1.0000e+00
<mgrwt>
<rscale>  0 0.95567579E+02</rscale>
<asrwt>0</asrwt>
<pdfrwt beam="1">  1        2 0.13991957E+00 0.95567579E+02</pdfrwt>
<pdfrwt beam="2">  1       -1 0.38623889E-03 0.95567579E+02</pdfrwt>
<totfact> 0.21957996E+05</totfact>
</mgrwt>
</event>
<event>
 8      1 +5.0320763e-08 8.02744100e+01 7.81860800e-03 1.32827400e-01
       -1 -1    0    0    0  501 -0.0000000000e+00 +0.0000000000e+00 +2.8538928951e+00 2.8538973455e+00 5.0400000000e-03 0.0000e+00 1.0000e+00
        2 -1    0    0  501    0 +0.0000000000e+00 -0.0000000000e+00 -5.6449000266e+02 5.6449000267e+02 2.5500000000e-03 0.0000e+00 -1.0000e+00
       24  2    1    2    0    0 -7.1054273576e-15 +3.5527136788e-15 -5.6163610977e+02 5.6734390001e+02 8.0274411167e+01 0.0000e+00 0.0000e+00
       66  2    3    3    0    0 +2.3199255661e+01 -1.7410087633e+01 -4.5246886179e+02 4.5438897179e+02 2.9999169686e+01 0.0000e+00 0.0000e+00
      -13  1    3    3    0    0 -2.3199255661e+01 +1.7410087633e+01 -1.0916724798e+02 1.1295492822e+02 1.0566000000e-01 0.0000e+00 1.0000e+00
       13  1    4    4    0    0 -4.3873105010e+00 +3.1496314535e+00 -5.6299160065e+01 5.6557716183e+01 1.0566000000e-01 0.0000e+00 -1.0000e+00
      -13  1    4    4    0    0 +2.2719993935e+01 -1.0521679979e+01 -2.5810893460e+02 2.5932052977e+02 1.0566000000e-01 0.0000e+00 1.0000e+00
       14  1    4    4    0    0 +4.8665722277e+00 -1.0038039107e+01 -1.3806076712e+02 1.3851072584e+02 0.0000000000e+00 0.0000e+00 -1.0000e+00
<mgrwt>
<rscale>  0 0.80274411E+02</rscale>
<asrwt>0</asrwt>
<pdfrwt beam="1">  1        2 0.86844527E-01 0.80274411E+02</pdfrwt>
<pdfrwt beam="2">  1       -1 0.43906124E-03 0.80274411E+02</pdfrwt>
<totfact> 0.31325881E+05</totfact>
</mgrwt>
</event>
<event>
 8      1 +5.0320763e-08 8.03115700e+01 7.81860800e-03 1.32817000e-01
        1 -1    0    0  501    0 +0.0000000000e+00 +0.0000000000e+00 +2.5701662979e+02 2.5701662984e+02 5.0400000000e-03 0.0000e+00 -1.0000e+00
       -2 -1    0    0    0  501 -0.0000000000e+00 -0.0000000000e+00 -6.2738628018e+00 6.2738633200e+00 2.5500000000e-03 0.0000e+00 1.0000e+00
      -24  2    1    2    0    0 +1.7763568394e-15 +0.0000000000e+00 +2.5074276699e+02 2.6329049316e+02 8.0311571964e+01 0.0000e+00 0.0000e+00
       66  2    3    3    0    0 +1.1389969192e+01 -3.2564190171e+01 +1.4922597811e+02 1.5607189651e+02 2.9998107559e+01 0.0000e+00 0.0000e+00
       13  1    3    3    0    0 -1.1389969192e+01 +3.2564190171e+01 +1.0151678888e+02 1.0721859665e+02 1.0566000000e-01 0.0000e+00 -1.0000e+00
       13  1    4    4    0    0 +3.2112975438e+00 -2.7331674905e+00 +4.2020714747e+01 4.2231910546e+01 1.0566000000e-01 0.0000e+00 -1.0000e+00
      -13  1    4    4    0    0 -6.3750389029e+00 -1.2235856896e+01 +5.7632451944e+01 5.9261015820e+01 1.0566000000e-01 0.0000e+00 1.0000e+00
      -14  1    4    4    0    0 +1.4553710551e+01 -1.7595165785e+01 +4.9572811424e+01 5.4578970147e+01 0.0000000000e+00 0.0000e+00 1.0000e+00
<mgrwt>
<rscale>  0 0.80311572E+02</rscale>
<asrwt>0</asrwt>
<pdfrwt beam="1">  1        1 0.39541013E-01 0.80311572E+02</pdfrwt>
<pdfrwt beam="2">  1       -2 0.96520987E-03 0.80311572E+02</pdfrwt>
<totfact> 0.17330366E+05</totfact>
</mgrwt>
</event>
<event>
 8      1 +5.0320763e-08 7.94347100e+01 7.81860800e-03 1.33066300e-01
        3 -1    0    0  501    0 +0.0000000000e+00 +0.0000000000e+00 +1.5379851030e+02 1.5379854346e+02 1.0100000000e-01 0.0000e+00 -1.0000e+00
       -4 -1    0    0    0  501 -0.0000000000e+00 -0.0000000000e+00 -1.0214757956e+01 1.0293404690e+01 1.2700000000e+00 0.0000e+00 1.0000e+00
      -24  2    1    2    0    0 -1.7763568394e-15 +0.0000000000e+00 +1.4358375234e+02 1.6409194815e+02 7.9434712259e+01 0.0000e+00 0.0000e+00
       66  2    3    3    0    0 -1.5510137864e+01 +2.1994529256e+01 +3.8935430370e+01 5.6038229338e+01 2.9999861925e+01 0.0000e+00 0.0000e+00
       13  1    3    3    0    0 +1.5510137864e+01 -2.1994529256e+01 +1.0464832197e+02 1.0805371881e+02 1.0566000000e-01 0.0000e+00 -1.0000e+00
       13  1    4    4    0    0 -6.3679588713e+00 +1.5833986487e+01 +3.0796157055e+01 3.5209096576e+01 1.0566000000e-01 0.0000e+00 -1.0000e+00
      -13  1    4    4    0    0 +1.7158375981e+00 +7.7250797686e+00 +5.2085926435e+00 9.4742576203e+00 1.0566000000e-01 0.0000e+00 1.0000e+00
       14  1    4    4    0    0 -1.0858016590e+01 -1.5645369996e+00 +2.9306806707e+00 1.1354875142e+01 0.0000000000e+00 0.0000e+00 -1.0000e+00
<mgrwt>
<rscale>  0 0.79434712E+02</rscale>
<asrwt>0</asrwt>
<pdfrwt beam="1">  1        3 0.23661352E-01 0.79434712E+02</pdfrwt>
<pdfrwt beam="2">  1       -4 0.15779542E-02 0.79434712E+02</pdfrwt>
<totfact> 0.39727650E+04</totfact>
</mgrwt>
</event>
<event>
 8      1 +5.0320763e-08 7.92570800e+01 7.81860800e-03 1.33117300e-01
       -1 -1    0    0    0  501 -0.0000000000e+00 +0.0000000000e+00 +6.5606243999e+01 6.5606244193e+01 5.0400000000e-03 0.0000e+00 1.0000e+00
        2 -1    0    0  501    0 +0.0000000000e+00 -0.0000000000e+00 -2.3937071212e+01 2.3937071347e+01 2.5500000000e-03 0.0000e+00 -1.0000e+00
       24  2    1    2    0    0 +0.0000000000e+00 -3.5527136788e-15 +4.1669172788e+01 8.9543315540e+01 7.9257084208e+01 0.0000e+00 0.0000e+00
       66  2    3    3    0    0 +1.2356549950e+01 -8.9763070932e+00 -1.0437423064e+01 3.5244448968e+01 2.9999549449e+01 0.0000e+00 0.0000e+00
      -13  1    3    3    0    0 -1.2356549950e+01 +8.9763070932e+00 +5.2106595852e+01 5.4298866572e+01 1.0566000000e-01 0.0000e+00 1.0000e+00
       13  1    4    4    0    0 +4.3926336224e+00 +4.7434656673e+00 +2.7677312219e+00 7.0332920336e+00 1.0566000000e-01 0.0000e+00 -1.0000e+00
      -13  1    4    4    0    0 +1.3362783374e+01 -1.4110292101e+01 -9.3531410724e+00 2.1567492544e+01 1.0566000000e-01 0.0000e+00 1.0000e+00
       14  1    4    4    0    0 -5.3988670458e+00 +3.9051934071e-01 -3.8520132138e+00 6.6436643905e+00 0.0000000000e+00 0.0000e+00 -1.0000e+00
<mgrwt>
<rscale>  0 0.79257084E+02</rscale>
<asrwt>0</asrwt>
<pdfrwt beam="1">  1        2 0.36826263E-02 0.79257084E+02</pdfrwt>
<pdfrwt beam="2">  1       -1 0.10093268E-01 0.79257084E+02</pdfrwt>
<totfact> 0.13214568E+05</totfact>
</mgrwt>
</event>
<event>
 8      1 +5.0320763e-08 8.12282900e+01 7.81860800e-03 1.32560100e-01
       -4 -1    0    0    0  501 -0.0000000000e+00 +0.0000000000e+00 +1.6491016771e+02 1.6491505788e+02 1.2700000000e+00 0.0000e+00 1.0000e+00
        3 -1    0    0  501    0 +0.0000000000e+00 -0.0000000000e+00 -9.9996040168e+00 1.0000114074e+01 1.0100000000e-01 0.0000e+00 -1.0000e+00
      -24  2    1    2    0    0 +0.0000000000e+00 +0.0000000000e+00 +1.5491056369e+02 1.7491517195e+02 8.1228287157e+01 0.0000e+00 0.0000e+00
       66  2    3    3    0    0 +2.8314002739e+01 -4.5219415568e+00 +1.3151937444e+02 1.3791125858e+02 3.0000644679e+01 0.0000e+00 0.0000e+00
       13  1    3    3    0    0 -2.8314002739e+01 +4.5219415568e+00 +2.3391189251e+01 3.7003913376e+01 1.0566000000e-01 0.0000e+00 -1.0000e+00
       13  1    4    4    0    0 +1.6970872255e+01 +8.6565333966e+00 +5.1168930146e+01 5.4600518788e+01 1.0566000000e-01 0.0000e+00 -1.0000e+00
      -13  1    4    4    0    0 +4.3630316792e+00 -3.4642753788e+00 +5.4981010311e+01 5.5262644781e+01 1.0566000000e-01 0.0000e+00 1.0000e+00
       14  1    4    4    0    0 +6.9800988045e+00 -9.7141995747e+00 +2.5369433987e+01 2.8048095007e+01 0.0000000000e+00 0.0000e+00 -1.0000e+00
<mgrwt>
<rscale>  0 0.81228287E+02</rscale>
<asrwt>0</asrwt>
<pdfrwt beam="1">  1        3 0.15384423E-02 0.81228287E+02</pdfrwt>
<pdfrwt beam="2">  1       -4 0.25377374E-01 0.81228287E+02</pdfrwt>
<totfact> 0.33883100E+04</totfact>
</mgrwt>
</event>
<event>
 8      1 +5.0320763e-08 7.85567100e+01 7.81860800e-03 1.33319800e-01
       -2 -1    0    0    0  501 -0.0000000000e+00 +0.0000000000e+00 +6.2112173271e+00 6.2112178506e+00 2.5500000000e-03 0.0000e+00 1.0000e+00
        1 -1    0    0  501    0 +0.0000000000e+00 -0.0000000000e+00 -2.4838757127e+02 2.4838757132e+02 5.0400000000e-03 0.0000e+00 -1.0000e+00
      -24  2    1    2    0    0 -3.5527136788e-15 +0.0000000000e+00 -2.4217635394e+02 2.5459878917e+02 7.8556712244e+01 0.0000e+00 0.0000e+00
       66  2    3    3    0    0 -2.6314823775e+01 -2.0612179570e+01 -1.4805358124e+02 1.5471666163e+02 3.0000842839e+01 0.0000e+00 0.0000e+00
       13  1    3    3    0    0 +2.6314823775e+01 +2.0612179570e+01 -9.4122772705e+01 9.9882127543e+01 1.0566000000e-01 0.0000e+00 -1.0000e+00
       13  1    4    4    0    0 +4.1664481771e+00 -9.3226359034e+00 -2.8301071281e+01 3.0087084111e+01 1.0566000000e-01 0.0000e+00 -1.0000e+00
      -13  1    4    4    0    0 +7.0503036139e-02 +5.5677010268e-01 -1.1790138932e+01 1.1803961356e+01 1.0566000000e-01 0.0000e+00 1.0000e+00
      -14  1    4    4    0    0 -3.0551774988e+01 -1.1846313769e+01 -1.0796237102e+02 1.1282561616e+02 0.0000000000e+00 0.0000e+00 1.0000e+00
<mgrwt>
<rscale>  0 0.78556712E+02</rscale>
<asrwt>0</asrwt>
<pdfrwt beam="1">  1        1 0.38213465E-01 0.78556712E+02</pdfrwt>
<pdfrwt beam="2">  1       -2 0.95557213E-03 0.78556712E+02</pdfrwt>
<totfact> 0.18250367E+05</totfact>
</mgrwt>
</event>
<event>
 8      1 +5.0320763e-08 8.08242100e+01 7.81860800e-03 1.32672900e-01
        2 -1    0    0  501    0 +0.0000000000e+00 +0.0000000000e+00 +9.7804165003e+00 9.7804168327e+00 2.5500000000e-03 0.0000e+00 -1.0000e+00
       -1 -1    0    0    0  501 -0.0000000000e+00 -0.0000000000e+00 -1.6698043538e+02 1.6698043546e+02 5.0400000000e-03 0.0000e+00 1.0000e+00
       24  2    1    2    0    0 +0.0000000000e+00 +0.0000000000e+00 -1.5720001888e+02 1.7676085229e+02 8.0824210273e+01 0.0000e+00 0.0000e+00
       66  2    3    3    0    0 +2.2787889157e+01 -2.6231395911e+01 -8.3735841711e+01 9.5493574035e+01 2.9999291181e+01 0.0000e+00 0.0000e+00
      -13  1    3    3    0    0 -2.2787889157e+01 +2.6231395911e+01 -7.3464177173e+01 8.1267278257e+01 1.0566000000e-01 0.0000e+00 1.0000e+00
       13  1    4    4    0    0 +8.1533652099e+00 -8.0874704225e-01 -1.5809116691e+01 1.7806481140e+01 1.0566000000e-01 0.0000e+00 -1.0000e+00
      -13  1    4    4    0    0 +5.3913576768e+00 -1.7830488203e+01 -6.1182170645e+01 6.3955157854e+01 1.0566000000e-01 0.0000e+00 1.0000e+00
      -14  1    4    4    0    0 +9.2431662703e+00 -7.5921606652e+00 -6.7445543749e+00 1.3731935041e+01 0.0000000000e+00 0.0000e+00 1.0000e+00
<mgrwt>
<rscale>  0 0.80824210E+02</rscale>
<asrwt>0</asrwt>
<pdfrwt beam="1">  1        2 0.15046796E-02 0.80824210E+02</pdfrwt>
<pdfrwt beam="2">  1       -1 0.25689296E-01 0.80824210E+02</pdfrwt>
<totfact> 0.10218872E+05</totfact>
</mgrwt>
</event>
<event>
 8      1 +5.0320763e-08 7.93482600e+01 7.81860800e-03 1.33091100e-01
        1 -1    0    0  501    0 +0.0000000000e+00 +0.0000000000e+00 +1.6370701387e+02 1.6370701395e+02 5.0400000000e-03 0.0000e+00 -1.0000e+00
       -2 -1    0    0    0  501 -0.0000000000e+00 -0.0000000000e+00 -9.6149606586e+00 9.6149609967e+00 2.5500000000e-03 0.0000e+00 1.0000e+00
      -24  2    1    2    0    0 -7.1054273576e-15 +2.2204460493e-16 +1.5409205321e+02 1.7332197495e+02 7.9348258555e+01 0.0000e+00 0.0000e+00
       66  2    3    3    0    0 +3.0158314310e+01 +8.1286964280e-01 +1.2231950691e+02 1.2950770168e+02 2.9999972423e+01 0.0000e+00 0.0000e+00
       13  1    3    3    0    0 -3.0158314310e+01 -8.1286964280e-01 +3.1772546308e+01 4.3814273268e+01 1.0566000000e-01 0.0000e+00 -1.0000e+00
       13  1    4    4    0    0 -3.9475550576e-01 +1.7724248553e-01 +2.9401020919e+01 2.9404394942e+01 1.0566000000e-01 0.0000e+00 -1.0000e+00
      -13  1    4    4    0    0 -3.1223442798e+00 -1.4967140172e+00 +7.4897870555e+00 8.2521064476e+00 1.0566000000e-01 0.0000e+00 1.0000e+00
      -14  1    4    4    0    0 +3.3675414096e+01 +2.1323411744e+00 +8.5428698931e+01 9.1851200288e+01 0.0000000000e+00 0.0000e+00 1.0000e+00
<mgrwt>
<rscale>  0 0.79348259E+02</rscale>
<asrwt>0</asrwt>
<pdfrwt beam="1">  1        1 0.25185694E-01 0.79348259E+02</pdfrwt>
<pdfrwt beam="2">  1       -2 0.14792248E-02 0.79348259E+02</pdfrwt>
<totfact> 0.16401199E+05</totfact>
</mgrwt>
</event>
<event>
 8      1 +5.0320763e-08 7.79033100e+01 7.81860800e-03 1.33510900e-01
        2 -1    0    0  501    0 +0.0000000000e+00 +0.0000000000e+00 +1.0996449579e+02 1.0996449582e+02 2.5500000000e-03 0.0000e+00 -1.0000e+00
       -1 -1    0    0    0  501 -0.0000000000e+00 -0.0000000000e+00 -1.3797466188e+01 1.3797467108e+01 5.0400000000e-03 0.0000e+00 1.0000e+00
       24  2    1    2    0    0 -3.5527136788e-15 +0.0000000000e+00 +9.6167029603e+01 1.2376196293e+02 7.7903311131e+01 0.0000e+00 0.0000e+00
       66  2    3    3    0    0 +2.6050302249e+01 -3.3081797847e+00 +8.7421204550e+01 9.6084121238e+01 3.0002150727e+01 0.0000e+00 0.0000e+00
      -13  1    3    3    0    0 -2.6050302249e+01 +3.3081797847e+00 +8.7458250530e+00 2.7677841691e+01 1.0566000000e-01 0.0000e+00 1.0000e+00
       13  1    4    4    0    0 +2.8112569065e+01 +1.6357542263e+00 +6.8869490390e+01 7.4404368836e+01 1.0566000000e-01 0.0000e+00 -1.0000e+00
      -13  1    4    4    0    0 -5.7563089076e+00 -1.8988549299e+00 +7.5580811425e+00 9.6889884341e+00 1.0566000000e-01 0.0000e+00 1.0000e+00
      -14  1    4    4    0    0 +3.6940420920e+00 -3.0450790811e+00 +1.0993633018e+01 1.1990763967e+01 0.0000000000e+00 0.0000e+00 1.0000e+00
<mgrwt>
<rscale>  0 0.77903311E+02</rscale>
<asrwt>0</asrwt>
<pdfrwt beam="1">  1        2 0.16917614E-01 0.77903311E+02</pdfrwt>
<pdfrwt beam="2">  1       -1 0.21226872E-02 0.77903311E+02</pdfrwt>
<totfact> 0.19549542E+05</totfact>
</mgrwt>
</event>
<event>
 8      1 +5.0320763e-08 8.08022600e+01 7.81860800e-03 1.32679000e-01
       -1 -1    0    0    0  501 -0.0000000000e+00 +0.0000000000e+00 +1.1023268939e+02 1.1023268951e+02 5.0400000000e-03 0.0000e+00 1.0000e+00
        2 -1    0    0  501    0 +0.0000000000e+00 -0.0000000000e+00 -1.4807325000e+01 1.4807325220e+01 2.5500000000e-03 0.0000e+00 -1.0000e+00
       24  2    1    2    0    0 +3.5527136788e-15 +0.0000000000e+00 +9.5425364394e+01 1.2504001473e+02 8.0802259335e+01 0.0000e+00 0.0000e+00
       66  2    3    3    0    0 -2.1710236488e+01 -2.6526766044e+01 +4.4705015762e+01 6.3822626558e+01 2.9996425477e+01 0.0000e+00 0.0000e+00
      -13  1    3    3    0    0 +2.1710236488e+01 +2.6526766044e+01 +5.0720348632e+01 6.1217388171e+01 1.0566000000e-01 0.0000e+00 1.0000e+00
       13  1    4    4    0    0 -6.8467901210e-01 -1.1734396130e+01 +1.8802324975e+01 2.2174386719e+01 1.0566000000e-01 0.0000e+00 -1.0000e+00
      -13  1    4    4    0    0 -1.2404831589e+01 -8.2344369924e+00 +1.5187037491e+00 1.4966743950e+01 1.0566000000e-01 0.0000e+00 1.0000e+00
       14  1    4    4    0    0 -8.6207258862e+00 -6.5579329217e+00 +2.4383987037e+01 2.6681495888e+01 0.0000000000e+00 0.0000e+00 -1.0000e+00
<mgrwt>
<rscale>  0 0.80802259E+02</rscale>
<asrwt>0</asrwt>
<pdfrwt beam="1">  1        2 0.22780500E-02 0.80802259E+02</pdfrwt>
<pdfrwt beam="2">  1       -1 0.16958875E-01 0.80802259E+02</pdfrwt>
<totfact> 0.11318024E+05</totfact>
</mgrwt>
</event>
<event>
 8      1 +5.0320763e-08 7.81973600e+01 7.81860800e-03 1.33424600e-01
       -4 -1    0    0    0  501 -0.0000000000e+00 +0.0000000000e+00 +2.5706169602e+01 2.5737522328e+01 1.2700000000e+00 0.0000e+00 1.0000e+00
        3 -1    0    0  501    0 +0.0000000000e+00 -0.0000000000e+00 -5.9416409054e+01 5.9416494897e+01 1.0100000000e-01 0.0000e+00 -1.0000e+00
      -24  2    1    2    0    0 +8.3266726847e-16 +0.0000000000e+00 -3.3710239452e+01 8.5154017225e+01 7.8197355491e+01 0.0000e+00 0.0000e+00
       66  2    3    3    0    0 -2.2439906812e-01 -3.3300999069e+01 -1.7520512964e+01 4.8125308070e+01 3.0001166783e+01 0.0000e+00 0.0000e+00
       13  1    3    3    0    0 +2.2439906812e-01 +3.3300999069e+01 -1.6189726488e+01 3.7028709156e+01 1.0566000000e-01 0.0000e+00 -1.0000e+00
       13  1    4    4    0    0 -2.6704602062e+00 -1.1909950475e+01 -1.7477306963e+01 2.1317732073e+01 1.0566000000e-01 0.0000e+00 -1.0000e+00
      -13  1    4    4    0    0 +8.3124933313e+00 -1.4756191860e+01 -3.5102551017e+00 1.7296699064e+01 1.0566000000e-01 0.0000e+00 1.0000e+00
      -14  1    4    4    0    0 -5.8664321933e+00 -6.6348567342e+00 +3.4670491007e+00 9.5108769327e+00 0.0000000000e+00 0.0000e+00 1.0000e+00
<mgrwt>
<rscale>  0 0.78197355E+02</rscale>
<asrwt>0</asrwt>
<pdfrwt beam="1">  1        3 0.91410078E-02 0.78197355E+02</pdfrwt>
<pdfrwt beam="2">  1       -4 0.39582512E-02 0.78197355E+02</pdfrwt>
<totfact> 0.47932712E+04</totfact>
</mgrwt>
</event>
<event>
 8      1 +5.0320763e-08 8.00951200e+01 7.81860800e-03 1.32878200e-01
        2 -1    0    0  501    0 +0.0000000000e+00 +0.0000000000e+00 +3.9182155712e+02 3.9182155713e+02 2.5500000000e-03 0.0000e+00 -1.0000e+00
       -1 -1    0    0    0  501 -0.0000000000e+00 -0.0000000000e+00 -4.0932057970e+00 4.0932088999e+00 5.0400000000e-03 0.0000e+00 1.0000e+00
       24  2    1    2    0    0 +0.0000000000e+00 +0.0000000000e+00 +3.8772835133e+02 3.9591476603e+02 8.0095115579e+01 0.0000e+00 0.0000e+00
       66  2    3    3    0    0 -2.6162318423e+01 +2.1954051318e+01 +1.9958286745e+02 2.0469452249e+02 3.0001321331e+01 0.0000e+00 0.0000e+00
      -13  1    3    3    0    0 +2.6162318423e+01 -2.1954051318e+01 +1.8814548388e+02 1.9122024355e+02 1.0566000000e-01 0.0000e+00 1.0000e+00
       13  1    4    4    0    0 +1.4699070376e+00 +4.6962847289e+00 +4.1847221510e+01 4.2135695427e+01 1.0566000000e-01 0.0000e+00 -1.0000e+00
      -13  1    4    4    0    0 -3.1373015521e+01 +1.4304684719e+01 +1.3551434041e+02 1.3983217701e+02 1.0566000000e-01 0.0000e+00 1.0000e+00
      -14  1    4    4    0    0 +3.7407900597e+00 +2.9530818700e+00 +2.2221305532e+01 2.2726650047e+01 0.0000000000e+00 0.0000e+00 1.0000e+00
<mgrwt>
<rscale>  0 0.80095116E+02</rscale>
<asrwt>0</asrwt>
<pdfrwt beam="1">  1        2 0.60280235E-01 0.80095116E+02</pdfrwt>
<pdfrwt beam="2">  1       -1 0.62972426E-03 0.80095116E+02</pdfrwt>
<totfact> 0.27962827E+05</totfact>
</mgrwt>
</event>
<event>
 8      1 +5.0320763e-08 8.00203300e+01 7.81860800e-03 1.32899400e-01
        1 -1    0    0  501    0 +0.0000000000e+00 +0.0000000000e+00 +2.7927494186e+02 2.7927494190e+02 5.0400000000e-03 0.0000e+00 -1.0000e+00
       -2 -1    0    0    0  501 -0.0000000000e+00 -0.0000000000e+00 -5.7320327656e+00 5.7320333328e+00 2.5500000000e-03 0.0000e+00 1.0000e+00
      -24  2    1    2    0    0 +0.0000000000e+00 +0.0000000000e+00 +2.7354290909e+02 2.8500697523e+02 8.0020327533e+01 0.0000e+00 0.0000e+00
       66  2    3    3    0    0 -2.8426745372e+01 -1.5789796301e+01 +1.1618464180e+02 1.2432395507e+02 3.0002954770e+01 0.0000e+00 0.0000e+00
       13  1    3    3    0    0 +2.8426745372e+01 +1.5789796301e+01 +1.5735826729e+02 1.6068302016e+02 1.0566000000e-01 0.0000e+00 -1.0000e+00
       13  1    4    4    0    0 -7.0263002774e+00 +2.4558740426e+00 +2.3961532723e+01 2.5091162336e+01 1.0566000000e-01 0.0000e+00 -1.0000e+00
      -13  1    4    4    0    0 +7.6784847517e-01 -1.0758147490e+01 +4.8044302317e+01 4.9240161229e+01 1.0566000000e-01 0.0000e+00 1.0000e+00
      -14  1    4    4    0    0 -2.2168293570e+01 -7.4875228543e+00 +4.4178806759e+01 4.9992631507e+01 0.0000000000e+00 0.0000e+00 1.0000e+00
<mgrwt>
<rscale>  0 0.80020328E+02</rscale>
<asrwt>0</asrwt>
<pdfrwt beam="1">  1        1 0.42965379E-01 0.80020328E+02</pdfrwt>
<pdfrwt beam="2">  1       -2 0.88185118E-03 0.80020328E+02</pdfrwt>
<totfact> 0.17783237E+05</totfact>
</mgrwt>
</event>
<event>
 8      1 +5.0320763e-08 8.08377100e+01 7.81860800e-03 1.32669100e-01
        2 -1    0    0  501    0 +0.0000000000e+00 +0.0000000000e+00 +6.9245778994e+02 6.9245778995e+02 2.5500000000e-03 0.0000e+00 -1.0000e+00
       -1 -1    0    0    0  501 -0.0000000000e+00 -0.0000000000e+00 -2.3592512494e+00 2.3592566328e+00 5.0400000000e-03 0.0000e+00 1.0000e+00
       24  2    1    2    0    0 +0.0000000000e+00 -1.7763568394e-15 +6.9009853870e+02 6.9481704658e+02 8.0837708477e+01 0.0000e+00 0.0000e+00
       66  2    3    3    0    0 +2.2385636968e+01 +8.7100064604e+00 +6.0961945101e+02 6.1082969233e+02 3.0000950512e+01 0.0000e+00 0.0000e+00
      -13  1    3    3    0    0 -2.2385636968e+01 -8.7100064604e+00 +8.0479087688e+01 8.3987354251e+01 1.0566000000e-01 0.0000e+00 1.0000e+00
       13  1    4    4    0    0 -2.5701166173e+00 +1.6120081564e+00 +2.8576563267e+02 2.8578175598e+02 1.0566000000e-01 0.0000e+00 -1.0000e+00
      -13  1    4    4    0    0 +7.9261105542e-01 +2.2046195406e+00 +1.2394729140e+01 1.2614636503e+01 1.0566000000e-01 0.0000e+00 1.0000e+00
       14  1    4    4    0    0 +2.4163142530e+01 +4.8933787633e+00 +3.1145908920e+02 3.1243329985e+02 0.0000000000e+00 0.0000e+00 -1.0000e+00
<mgrwt>
<rscale>  0 0.80837708E+02</rscale>
<asrwt>0</asrwt>
<pdfrwt beam="1">  1        2 0.10653209E+00 0.80837708E+02</pdfrwt>
<pdfrwt beam="2">  1       -1 0.36296172E-03 0.80837708E+02</pdfrwt>
<totfact> 0.32476212E+05</totfact>
</mgrwt>
</event>
<event>
 8      1 +5.0320763e-08 7.95330200e+01 7.81860800e-03 1.33038200e-01
        4 -1    0    0  501    0 +0.0000000000e+00 +0.0000000000e+00 +7.4626564010e+00 7.5699498386e+00 1.2700000000e+00 0.0000e+00 -1.0000e+00
       -3 -1    0    0    0  501 -0.0000000000e+00 -0.0000000000e+00 -2.1033871413e+02 2.1033873838e+02 1.0100000000e-01 0.0000e+00 1.0000e+00
       24  2    1    2    0    0 +3.5527136788e-15 +3.5527136788e-15 -2.0287605773e+02 2.1790868822e+02 7.9533022079e+01 0.0000e+00 0.0000e+00
       66  2    3    3    0    0 +1.8402082253e+01 +2.8248562467e+01 -1.0169412474e+02 1.1125779680e+02 2.9999740491e+01 0.0000e+00 0.0000e+00
      -13  1    3    3    0    0 -1.8402082253e+01 -2.8248562467e+01 -1.0118193299e+02 1.0665089142e+02 1.0566000000e-01 0.0000e+00 1.0000e+00
       13  1    4    4    0    0 +8.6988543578e+00 +3.9984396472e+00 -2.1742944379e+01 2.3757617327e+01 1.0566000000e-01 0.0000e+00 -1.0000e+00
      -13  1    4    4    0    0 +6.6162230253e+00 +1.5632661198e+00 -3.4070659466e+00 7.6050950344e+00 1.0566000000e-01 0.0000e+00 1.0000e+00
       14  1    4    4    0    0 +3.0870048700e+00 +2.2686856700e+01 -7.6544114418e+01 7.9895084442e+01 0.0000000000e+00 0.0000e+00 -1.0000e+00
<mgrwt>
<rscale>  0 0.79533022E+02</rscale>
<asrwt>0</asrwt>
<pdfrwt beam="1">  1        4 0.11566494E-02 0.79533022E+02</pdfrwt>
<pdfrwt beam="2">  1       -3 0.32359852E-01 0.79533022E+02</pdfrwt>
<totfact> 0.35989937E+04</totfact>
</mgrwt>
</event>
<event>
 8      1 +5.0320763e-08 7.62797400e+01 7.81860800e-03 1.33995300e-01
       -2 -1    0    0    0  501 -0.0000000000e+00 +0.0000000000e+00 +1.8399566879e+01 1.8399567056e+01 2.5500000000e-03 0.0000e+00 1.0000e+00
        1 -1    0    0  501    0 +0.0000000000e+00 -0.0000000000e+00 -7.9058914182e+01 7.9058914343e+01 5.0400000000e-03 0.0000e+00 -1.0000e+00
      -24  2    1    2    0    0 +0.0000000000e+00 -3.5527136788e-15 -6.0659347303e+01 9.7458481398e+01 7.6279742928e+01 0.0000e+00 0.0000e+00
       66  2    3    3    0    0 -1.6965465885e+01 +2.7375251991e+01 -3.3120877042e+01 5.5083843197e+01 3.0000097185e+01 0.0000e+00 0.0000e+00
       13  1    3    3    0    0 +1.6965465885e+01 -2.7375251991e+01 -2.7538470262e+01 4.2374638201e+01 1.0566000000e-01 0.0000e+00 -1.0000e+00
       13  1    4    4    0    0 -1.8767638148e+01 +1.1894551225e+01 -2.1023698838e+01 3.0589404495e+01 1.0566000000e-01 0.0000e+00 -1.0000e+00
      -13  1    4    4    0    0 -3.2725417974e+00 +1.1521904530e+01 -1.4669593691e+00 1.2067599084e+01 1.0566000000e-01 0.0000e+00 1.0000e+00
       14  1    4    4    0    0 +5.0747140605e+00 +3.9587962356e+00 -1.0630218835e+01 1.2426839619e+01 0.0000000000e+00 0.0000e+00 -1.0000e+00
<mgrwt>
<rscale>  0 0.76279743E+02</rscale>
<asrwt>0</asrwt>
<pdfrwt beam="1">  1        1 0.12162910E-01 0.76279743E+02</pdfrwt>
<pdfrwt beam="2">  1       -2 0.28307027E-02 0.76279743E+02</pdfrwt>
<totfact> 0.16094872E+05</totfact>
</mgrwt>
</event>
<event>
 8      1 +5.0320763e-08 7.93263400e+01 7.81860800e-03 1.33097400e-01
        4 -1    0    0  501    0 +0.0000000000e+00 +0.0000000000e+00 +2.1079503824e+01 2.1117726711e+01 1.2700000000e+00 0.0000e+00 -1.0000e+00
       -3 -1    0    0    0  501 -0.0000000000e+00 -0.0000000000e+00 -7.4543311652e+01 7.4543380075e+01 1.0100000000e-01 0.0000e+00 1.0000e+00
       24  2    1    2    0    0 +0.0000000000e+00 +7.1054273576e-15 -5.3463807828e+01 9.5661106786e+01 7.9326342435e+01 0.0000e+00 0.0000e+00
       66  2    3    3    0    0 +5.6131248161e+00 -3.3296252876e+01 -3.5257789836e+01 5.7299434757e+01 2.9999430886e+01 0.0000e+00 0.0000e+00
      -13  1    3    3    0    0 -5.6131248161e+00 +3.3296252876e+01 -1.8206017991e+01 3.8361672030e+01 1.0566000000e-01 0.0000e+00 1.0000e+00
       13  1    4    4    0    0 -2.4718007214e-01 -6.3471362306e+00 +1.6421748892e+00 6.5616414653e+00 1.0566000000e-01 0.0000e+00 -1.0000e+00
      -13  1    4    4    0    0 -6.0583143319e+00 -1.6023861435e+00 -1.0612275470e+01 1.2324867893e+01 1.0566000000e-01 0.0000e+00 1.0000e+00
       14  1    4    4    0    0 +1.1918619220e+01 -2.5346730502e+01 -2.6287689256e+01 3.8412925398e+01 0.0000000000e+00 0.0000e+00 -1.0000e+00
<mgrwt>
<rscale>  0 0.79326342E+02</rscale>
<asrwt>0</asrwt>
<pdfrwt beam="1">  1        4 0.32467730E-02 0.79326342E+02</pdfrwt>
<pdfrwt beam="2">  1       -3 0.11468226E-01 0.79326342E+02</pdfrwt>
<totfact> 0.45289361E+04</totfact>
</mgrwt>
</event>
<event>
 8      1 +5.0320763e-08 8.01176900e+01 7.81860800e-03 1.32871800e-01
        2 -1    0    0  501    0 +0.0000000000e+00 +0.0000000000e+00 +3.1649108595e+01 3.1649108697e+01 2.5500000000e-03 0.0000e+00 -1.0000e+00
       -1 -1    0    0    0  501 -0.0000000000e+00 -0.0000000000e+00 -5.0703193677e+01 5.0703193927e+01 5.0400000000e-03 0.0000e+00 1.0000e+00
       24  2    1    2    0    0 +3.5527136788e-15 +3.5527136788e-15 -1.9054085082e+01 8.2352302625e+01 8.0117685871e+01 0.0000e+00 0.0000e+00
       66  2    3    3    0    0 -1.7450067638e+01 -2.3605417487e+01 -2.9379282567e+01 5.1234117227e+01 3.0001198785e+01 0.0000e+00 0.0000e+00
      -13  1    3    3    0    0 +1.7450067638e+01 +2.3605417487e+01 +1.0325197485e+01 3.1118185398e+01 1.0566000000e-01 0.0000e+00 1.0000e+00
       13  1    4    4    0    0 +1.3676133262e+00 -7.2208243461e+00 -4.5237419262e+00 8.6305315883e+00 1.0566000000e-01 0.0000e+00 1.0000e+00
      -13  1    4    4    0    0 -2.0436810727e+01 -1.8648628831e+01 -2.7322702396e+01 3.8884133270e+01 1.0566000000e-01 0.0000e+00 -1.0000e+00
      -14  1    4    4    0    0 +1.6191297625e+00 +2.2640356896e+00 +2.4671617551e+00 3.7194523679e+00 0.0000000000e+00 0.0000e+00 1.0000e+00
<mgrwt>
<rscale>  0 0.80117686E+02</rscale>
<asrwt>0</asrwt>
<pdfrwt beam="1">  1        2 0.48690936E-02 0.80117686E+02</pdfrwt>
<pdfrwt beam="2">  1       -1 0.78004914E-02 0.80117686E+02</pdfrwt>
<totfact> 0.13542627E+05</totfact>
</mgrwt>
</event>
<event>
 8      1 +5.0320763e-08 8.04018600e+01 7.81860800e-03 1.32791500e-01
       -2 -1    0    0    0  501 -0.0000000000e+00 +0.0000000000e+00 +7.9965894135e+01 7.9965894175e+01 2.5500000000e-03 0.0000e+00 1.0000e+00
        1 -1    0    0  501    0 +0.0000000000e+00 -0.0000000000e+00 -2.0210051205e+01 2.0210051833e+01 5.0400000000e-03 0.0000e+00 -1.0000e+00
      -24  2    1    2    0    0 -1.7763568394e-15 -3.5527136788e-15 +5.9755842930e+01 1.0017594601e+02 8.0401861885e+01 0.0000e+00 0.0000e+00
       66  2    3    3    0    0 -1.4163257558e+01 +1.7259898651e+01 +6.6976010395e+01 7.6710142201e+01 3.0002632918e+01 0.0000e+00 0.0000e+00
       13  1    3    3    0    0 +1.4163257558e+01 -1.7259898651e+01 -7.2201674654e+00 2.3465803808e+01 1.0566000000e-01 0.0000e+00 -1.0000e+00
       13  1    4    4    0    0 -1.2389081179e+01 -4.8689722156e-01 +1.0915626535e+01 1.6519336187e+01 1.0566000000e-01 0.0000e+00 -1.0000e+00
      -13  1    4    4    0    0 +1.3024664060e+00 +3.2228131194e+00 +2.9978457242e+01 3.0179496447e+01 1.0566000000e-01 0.0000e+00 1.0000e+00
       14  1    4    4    0    0 -3.0766427845e+00 +1.4523982753e+01 +2.6081926618e+01 3.0011309567e+01 0.0000000000e+00 0.0000e+00 -1.0000e+00
<mgrwt>
<rscale>  0 0.80401862E+02</rscale>
<asrwt>0</asrwt>
<pdfrwt beam="1">  1        1 0.31092386E-02 0.80401862E+02</pdfrwt>
<pdfrwt beam="2">  1       -2 0.12302446E-01 0.80401862E+02</pdfrwt>
<totfact> 0.11035221E+05</totfact>
</mgrwt>
</event>
<event>
 8      1 +5.0320763e-08 7.93561100e+01 7.81860800e-03 1.33088900e-01
       -2 -1    0    0    0  501 -0.0000000000e+00 +0.0000000000e+00 +8.4051515437e+01 8.4051515476e+01 2.5500000000e-03 0.0000e+00 1.0000e+00
        1 -1    0    0  501    0 +0.0000000000e+00 -0.0000000000e+00 -1.8730750958e+01 1.8730751636e+01 5.0400000000e-03 0.0000e+00 -1.0000e+00
      -24  2    1    2    0    0 -3.5527136788e-15 +3.5527136788e-15 +6.5320764479e+01 1.0278226711e+02 7.9356109787e+01 0.0000e+00 0.0000e+00
       66  2    3    3    0    0 +1.7439825103e+01 -1.7491461443e+01 +6.7603572451e+01 7.7976600435e+01 3.0000141404e+01 0.0000e+00 0.0000e+00
       13  1    3    3    0    0 -1.7439825103e+01 +1.7491461443e+01 -2.2828079716e+00 2.4805666677e+01 1.0566000000e-01 0.0000e+00 -1.0000e+00
       13  1    4    4    0    0 +1.4550332189e+01 -7.2410609871e+00 +3.2085074973e+01 3.5966767037e+01 1.0566000000e-01 0.0000e+00 -1.0000e+00
      -13  1    4    4    0    0 +3.5118437920e+00 -6.3938549621e-01 +3.1286942926e+01 3.1490090859e+01 1.0566000000e-01 0.0000e+00 1.0000e+00
       14  1    4    4    0    0 -6.2235087768e-01 -9.6110149595e+00 +4.2315545525e+00 1.0519742539e+01 0.0000000000e+00 0.0000e+00 -1.0000e+00
<mgrwt>
<rscale>  0 0.79356110E+02</rscale>
<asrwt>0</asrwt>
<pdfrwt beam="1">  1        1 0.28816540E-02 0.79356110E+02</pdfrwt>
<pdfrwt beam="2">  1       -2 0.12931003E-01 0.79356110E+02</pdfrwt>
<totfact> 0.11285903E+05</totfact>
</mgrwt>
</event>
<event>
 8      1 +5.0320763e-08 7.95744400e+01 7.81860800e-03 1.33026300e-01
        2 -1    0    0  501    0 +0.0000000000e+00 +0.0000000000e+00 +1.3236292879e+02 1.3236292882e+02 2.5500000000e-03 0.0000e+00 -1.0000e+00
       -1 -1    0    0    0  501 -0.0000000000e+00 -0.0000000000e+00 -1.1959713095e+01 1.1959714157e+01 5.0400000000e-03 0.0000e+00 1.0000e+00
       24  2    1    2    0    0 +0.0000000000e+00 +0.0000000000e+00 +1.2040321570e+02 1.4432264297e+02 7.9574436378e+01 0.0000e+00 0.0000e+00
       66  2    3    3    0    0 -1.9186079874e+01 -2.6644669992e+01 +5.1844536231e+01 6.8307198530e+01 2.9999555565e+01 0.0000e+00 0.0000e+00
      -13  1    3    3    0    0 +1.9186079874e+01 +2.6644669992e+01 +6.8558679465e+01 7.6015444443e+01 1.0566000000e-01 0.0000e+00 1.0000e+00
       13  1    4    4    0    0 -1.5812294384e+00 -1.2450971475e+00 +4.3031082314e+00 4.7516794852e+00 1.0566000000e-01 0.0000e+00 -1.0000e+00
      -13  1    4    4    0    0 +2.6937217820e+00 -1.5845898603e+01 +7.6790286018e+00 1.7813682491e+01 1.0566000000e-01 0.0000e+00 1.0000e+00
      -14  1    4    4    0    0 -2.0298572218e+01 -9.5536742417e+00 +3.9862399398e+01 4.5741836554e+01 0.0000000000e+00 0.0000e+00 1.0000e+00
<mgrwt>
<rscale>  0 0.79574436E+02</rscale>
<asrwt>0</asrwt>
<pdfrwt beam="1">  1        2 0.20363528E-01 0.79574436E+02</pdfrwt>
<pdfrwt beam="2">  1       -1 0.18399559E-02 0.79574436E+02</pdfrwt>
<totfact> 0.19528485E+05</totfact>
</mgrwt>
</event>
<event>
 8      1 +5.0320763e-08 7.89514000e+01 7.81860800e-03 1.33205400e-01
       -1 -1    0    0    0  501 -0.0000000000e+00 +0.0000000000e+00 +2.1793556907e+01 2.1793557490e+01 5.0400000000e-03 0.0000e+00 1.0000e+00
        2 -1    0    0  501    0 +0.0000000000e+00 -0.0000000000e+00 -7.1504191829e+01 7.1504191875e+01 2.5500000000e-03 0.0000e+00 -1.0000e+00
       24  2    1    2    0    0 +0.0000000000e+00 +3.5527136788e-15 -4.9710634923e+01 9.3297749364e+01 7.8951395251e+01 0.0000e+00 0.0000e+00
       66  2    3    3    0    0 +1.7064146839e+01 +2.3338306847e+01 -7.8098701551e+00 4.2390510921e+01 3.0001661128e+01 0.0000e+00 0.0000e+00
      -13  1    3    3    0    0 -1.7064146839e+01 -2.3338306847e+01 -4.1900764768e+01 5.0907238444e+01 1.0566000000e-01 0.0000e+00 1.0000e+00
       13  1    4    4    0    0 -7.8494699500e-02 +1.2803738309e+01 -1.5606160853e+01 2.0186760431e+01 1.0566000000e-01 0.0000e+00 -1.0000e+00
      -13  1    4    4    0    0 +3.1779870457e+00 +3.2153076662e+00 -1.9784975536e-01 4.5263797468e+00 1.0566000000e-01 0.0000e+00 1.0000e+00
      -14  1    4    4    0    0 +1.3964654492e+01 +7.3192608715e+00 +7.9941404529e+00 1.7677370743e+01 0.0000000000e+00 0.0000e+00 1.0000e+00
<mgrwt>
<rscale>  0 0.78951395E+02</rscale>
<asrwt>0</asrwt>
<pdfrwt beam="1">  1        2 0.11000645E-01 0.78951395E+02</pdfrwt>
<pdfrwt beam="2">  1       -1 0.33528550E-02 0.78951395E+02</pdfrwt>
<totfact> 0.16820148E+05</totfact>
</mgrwt>
</event>
<event>
 8      1 +5.0320763e-08 7.93349600e+01 7.81860800e-03 1.33094900e-01
        3 -1    0    0  501    0 +0.0000000000e+00 +0.0000000000e+00 +7.7541720216e+01 7.7541785993e+01 1.0100000000e-01 0.0000e+00 -1.0000e+00
       -4 -1    0    0    0  501 -0.0000000000e+00 -0.0000000000e+00 -2.0267299804e+01 2.0307051518e+01 1.2700000000e+00 0.0000e+00 1.0000e+00
      -24  2    1    2    0    0 -3.5527136788e-15 -1.7763568394e-15 +5.7274420412e+01 9.7848837511e+01 7.9334959310e+01 0.0000e+00 0.0000e+00
       66  2    3    3    0    0 -2.8203609764e+01 +1.4619264685e+01 +1.7802901425e+01 4.7181506035e+01 2.9999745148e+01 0.0000e+00 0.0000e+00
       13  1    3    3    0    0 +2.8203609764e+01 -1.4619264685e+01 +3.9471518988e+01 5.0667331476e+01 1.0566000000e-01 0.0000e+00 -1.0000e+00
       13  1    4    4    0    0 -6.3242197698e-01 -4.0841489074e+00 -2.5396024613e+00 4.8519042191e+00 1.0566000000e-01 0.0000e+00 -1.0000e+00
      -13  1    4    4    0    0 -1.2448981604e+00 +5.1458392383e-01 -2.6177102133e+00 2.9458680963e+00 1.0566000000e-01 0.0000e+00 1.0000e+00
      -14  1    4    4    0    0 -2.6326289627e+01 +1.8188829669e+01 +2.2960214099e+01 3.9383733720e+01 0.0000000000e+00 0.0000e+00 1.0000e+00
<mgrwt>
<rscale>  0 0.79334959E+02</rscale>
<asrwt>0</asrwt>
<pdfrwt beam="1">  1        3 0.11929520E-01 0.79334959E+02</pdfrwt>
<pdfrwt beam="2">  1       -4 0.31219038E-02 0.79334959E+02</pdfrwt>
<totfact> 0.45091971E+04</totfact>
</mgrwt>
</event>
<event>
 8      1 +5.0320763e-08 8.06456500e+01 7.81860800e-03 1.32722900e-01
        2 -1    0    0  501    0 +0.0000000000e+00 +0.0000000000e+00 +8.9309716155e+02 8.9309716155e+02 2.5500000000e-03 0.0000e+00 -1.0000e+00
       -1 -1    0    0    0  501 -0.0000000000e+00 -0.0000000000e+00 -1.8205489216e+00 1.8205558979e+00 5.0400000000e-03 0.0000e+00 1.0000e+00
       24  2    1    2    0    0 +0.0000000000e+00 +0.0000000000e+00 +8.9127661263e+02 8.9491771745e+02 8.0645649544e+01 0.0000e+00 0.0000e+00
       66  2    3    3    0    0 -1.6325070618e+00 +1.9456227351e+01 +8.2620483059e+02 8.2697982049e+02 2.9999859053e+01 0.0000e+00 0.0000e+00
      -13  1    3    3    0    0 +1.6325070618e+00 -1.9456227351e+01 +6.5071782038e+01 6.7937896962e+01 1.0566000000e-01 0.0000e+00 1.0000e+00
       13  1    4    4    0    0 -9.1469683170e+00 +1.8784824333e+01 +5.1943771785e+02 5.1985775991e+02 1.0566000000e-01 0.0000e+00 -1.0000e+00
      -13  1    4    4    0    0 +1.0990616853e+01 -4.4144251896e-01 +2.4551451422e+02 2.4576081133e+02 1.0566000000e-01 0.0000e+00 1.0000e+00
      -14  1    4    4    0    0 -3.4761555978e+00 +1.1128455368e+00 +6.1252598524e+01 6.1361249244e+01 0.0000000000e+00 0.0000e+00 1.0000e+00
<mgrwt>
<rscale>  0 0.80645650E+02</rscale>
<asrwt>0</asrwt>
<pdfrwt beam="1">  1        2 0.13739962E+00 0.80645650E+02</pdfrwt>
<pdfrwt beam="2">  1       -1 0.28008487E-03 0.80645650E+02</pdfrwt>
<totfact> 0.34194838E+05</totfact>
</mgrwt>
</event>
<event>
 8      1 +5.0320763e-08 7.99697200e+01 7.81860800e-03 1.32913700e-01
       -2 -1    0    0    0  501 -0.0000000000e+00 +0.0000000000e+00 +3.1115761679e+02 3.1115761680e+02 2.5500000000e-03 0.0000e+00 1.0000e+00
        1 -1    0    0  501    0 +0.0000000000e+00 -0.0000000000e+00 -5.1381956461e+00 5.1381981180e+00 5.0400000000e-03 0.0000e+00 -1.0000e+00
      -24  2    1    2    0    0 -3.5527136788e-15 +0.0000000000e+00 +3.0601942115e+02 3.1629581492e+02 7.9969721881e+01 0.0000e+00 0.0000e+00
       66  2    3    3    0    0 +2.4650452355e+01 -1.5313833080e+01 +2.4728884128e+02 2.5078665174e+02 3.0000256422e+01 0.0000e+00 0.0000e+00
       13  1    3    3    0    0 -2.4650452355e+01 +1.5313833080e+01 +5.8730579865e+01 6.5509163178e+01 1.0566000000e-01 0.0000e+00 -1.0000e+00
       13  1    4    4    0    0 +1.3859751890e+01 -1.2477413096e+01 +9.4703630558e+01 9.6522367175e+01 1.0566000000e-01 0.0000e+00 -1.0000e+00
      -13  1    4    4    0    0 -3.4550119841e+00 +4.6539881691e+00 +2.4751560670e+01 2.5421401089e+01 1.0566000000e-01 0.0000e+00 1.0000e+00
      -14  1    4    4    0    0 +1.4245712450e+01 -7.4904081528e+00 +1.2783365005e+02 1.2884288348e+02 0.0000000000e+00 0.0000e+00 1.0000e+00
<mgrwt>
<rscale>  0 0.79969722E+02</rscale>
<asrwt>0</asrwt>
<pdfrwt beam="1">  1        1 0.79049174E-03 0.79969722E+02</pdfrwt>
<pdfrwt beam="2">  1       -2 0.47870408E-01 0.79969722E+02</pdfrwt>
<totfact> 0.68937470E+04</totfact>
</mgrwt>
</event>
<event>
 8      1 +5.0320763e-08 8.21418400e+01 7.81860800e-03 1.32308100e-01
       -1 -1    0    0    0  501 -0.0000000000e+00 +0.0000000000e+00 +5.4754000810e+01 5.4754001042e+01 5.0400000000e-03 0.0000e+00 1.0000e+00
        2 -1    0    0  501    0 +0.0000000000e+00 -0.0000000000e+00 -3.0807257615e+01 3.0807257721e+01 2.5500000000e-03 0.0000e+00 -1.0000e+00
       24  2    1    2    0    0 +0.0000000000e+00 -4.4408920985e-16 +2.3946743195e+01 8.5561258762e+01 8.2141843730e+01 0.0000e+00 0.0000e+00
       66  2    3    3    0    0 +2.7677393041e+01 +3.7327488520e+00 -9.4128364836e+00 4.2054429185e+01 3.0000033730e+01 0.0000e+00 0.0000e+00
      -13  1    3    3    0    0 -2.7677393041e+01 -3.7327488520e+00 +3.3359579678e+01 4.3506829578e+01 1.0566000000e-01 0.0000e+00 1.0000e+00
       13  1    4    4    0    0 +5.5523879106e+00 +1.1396919126e+01 -7.7495591182e+00 1.4858856202e+01 1.0566000000e-01 0.0000e+00 -1.0000e+00
      -13  1    4    4    0    0 +9.2338923814e-01 -5.3940946306e+00 -2.1150018442e+00 5.8679895540e+00 1.0566000000e-01 0.0000e+00 1.0000e+00
       14  1    4    4    0    0 +2.1201615893e+01 -2.2700756438e+00 +4.5172447880e-01 2.1327583428e+01 0.0000000000e+00 0.0000e+00 -1.0000e+00
<mgrwt>
<rscale>  0 0.82141844E+02</rscale>
<asrwt>0</asrwt>
<pdfrwt beam="1">  1        2 0.47395782E-02 0.82141844E+02</pdfrwt>
<pdfrwt beam="2">  1       -1 0.84236924E-02 0.82141844E+02</pdfrwt>
<totfact> 0.12559723E+05</totfact>
</mgrwt>
</event>
<event>
 8      1 +5.0320763e-08 7.97638900e+01 7.81860800e-03 1.32972300e-01
       -2 -1    0    0    0  501 -0.0000000000e+00 +0.0000000000e+00 +1.0738776731e+02 1.0738776734e+02 2.5500000000e-03 0.0000e+00 1.0000e+00
        1 -1    0    0  501    0 +0.0000000000e+00 -0.0000000000e+00 -1.4811459447e+01 1.4811460305e+01 5.0400000000e-03 0.0000e+00 -1.0000e+00
      -24  2    1    2    0    0 -8.8817841970e-16 -1.7763568394e-15 +9.2576307863e+01 1.2219922764e+02 7.9763891953e+01 0.0000e+00 0.0000e+00
       66  2    3    3    0    0 +6.7854243949e+00 -1.5855731101e+01 +9.8152141596e+01 1.0407335446e+02 2.9999566918e+01 0.0000e+00 0.0000e+00
       13  1    3    3    0    0 -6.7854243949e+00 +1.5855731101e+01 -5.5758337327e+00 1.8125873187e+01 1.0566000000e-01 0.0000e+00 -1.0000e+00
       13  1    4    4    0    0 -4.1304459886e+00 -6.4379943711e-01 +3.3285458386e+01 3.3547100706e+01 1.0566000000e-01 0.0000e+00 -1.0000e+00
      -13  1    4    4    0    0 +1.6126461956e+01 -1.2145248947e+01 +5.7809500656e+01 6.1233319176e+01 1.0566000000e-01 0.0000e+00 1.0000e+00
       14  1    4    4    0    0 -5.2105915728e+00 -3.0666827165e+00 +7.0571825534e+00 9.2929345749e+00 0.0000000000e+00 0.0000e+00 -1.0000e+00
<mgrwt>
<rscale>  0 0.79763892E+02</rscale>
<asrwt>0</asrwt>
<pdfrwt beam="1">  1        1 0.22786861E-02 0.79763892E+02</pdfrwt>
<pdfrwt beam="2">  1       -2 0.16521195E-01 0.79763892E+02</pdfrwt>
<totfact> 0.10501526E+05</totfact>
</mgrwt>
</event>
<event>
 8      1 +5.0320763e-08 9.15619000e+01 7.81860800e-03 1.29911300e-01
       -1 -1    0    0    0  501 -0.0000000000e+00 +0.0000000000e+00 +8.4368126675e+01 8.4368126825e+01 5.0400000000e-03 0.0000e+00 1.0000e+00
        2 -1    0    0  501    0 +0.0000000000e+00 -0.0000000000e+00 -2.4842266354e+01 2.4842266485e+01 2.5500000000e-03 0.0000e+00 -1.0000e+00
       24  2    1    2    0    0 +0.0000000000e+00 +0.0000000000e+00 +5.9525860321e+01 1.0921039331e+02 9.1561902339e+01 0.0000e+00 0.0000e+00
       66  2    3    3    0    0 -1.6136263324e+01 -1.9542861318e+01 -5.2793786810e+00 3.9625678115e+01 3.0000335069e+01 0.0000e+00 0.0000e+00
      -13  1    3    3    0    0 +1.6136263324e+01 +1.9542861318e+01 +6.4805239002e+01 6.9584715194e+01 1.0566000000e-01 0.0000e+00 1.0000e+00
       13  1    4    4    0    0 -3.7454496894e+00 -1.2918128962e+01 +8.8582540081e-01 1.3479699549e+01 1.0566000000e-01 0.0000e+00 -1.0000e+00
      -13  1    4    4    0    0 -7.0120645109e+00 -8.2902339401e+00 -1.3227613567e+01 1.7113677343e+01 1.0566000000e-01 0.0000e+00 1.0000e+00
      -14  1    4    4    0    0 -5.3787491242e+00 +1.6655015831e+00 +7.0624094852e+00 9.0323012240e+00 0.0000000000e+00 0.0000e+00 1.0000e+00
<mgrwt>
<rscale>  0 0.91561902E+02</rscale>
<asrwt>0</asrwt>
<pdfrwt beam="1">  1        2 0.38218872E-02 0.91561902E+02</pdfrwt>
<pdfrwt beam="2">  1       -1 0.12979712E-01 0.91561902E+02</pdfrwt>
<totfact> 0.88003041E+04</totfact>
</mgrwt>
</event>
<event>
 8      1 +5.0320763e-08 8.01442000e+01 7.81860800e-03 1.32864300e-01
        2 -1    0    0  501    0 +0.0000000000e+00 +0.0000000000e+00 +1.6985931727e+02 1.6985931729e+02 2.5500000000e-03 0.0000e+00 -1.0000e+00
       -1 -1    0    0    0  501 -0.0000000000e+00 -0.0000000000e+00 -9.4535469534e+00 9.4535482968e+00 5.0400000000e-03 0.0000e+00 1.0000e+00
       24  2    1    2    0    0 -3.5527136788e-15 +2.2204460493e-16 +1.6040577032e+02 1.7931286559e+02 8.0144198879e+01 0.0000e+00 0.0000e+00
       66  2    3    3    0    0 -2.4274955240e+01 -3.5734098688e-01 +1.4614901149e+02 1.5115851458e+02 2.9999363744e+01 0.0000e+00 0.0000e+00
      -13  1    3    3    0    0 +2.4274955240e+01 +3.5734098688e-01 +1.4256758826e+01 2.8154351009e+01 1.0566000000e-01 0.0000e+00 1.0000e+00
       13  1    4    4    0    0 +1.8937590718e+00 +7.6264618231e-01 +2.3728476446e+00 3.1320157409e+00 1.0566000000e-01 0.0000e+00 -1.0000e+00
      -13  1    4    4    0    0 -4.3539434179e+00 -3.5283460014e+00 +4.9553885876e+00 7.4815164827e+00 1.0566000000e-01 0.0000e+00 1.0000e+00
       14  1    4    4    0    0 -2.1814770894e+01 +2.4083588322e+00 +1.3882077526e+02 1.4054498236e+02 0.0000000000e+00 0.0000e+00 -1.0000e+00
<mgrwt>
<rscale>  0 0.80144199E+02</rscale>
<asrwt>0</asrwt>
<pdfrwt beam="1">  1        2 0.26132201E-01 0.80144199E+02</pdfrwt>
<pdfrwt beam="2">  1       -1 0.14543920E-02 0.80144199E+02</pdfrwt>
<totfact> 0.20764344E+05</totfact>
</mgrwt>
</event>
<event>
 8      1 +5.0320763e-08 9.77760600e+01 7.81860800e-03 1.28504300e-01
       -2 -1    0    0    0  501 -0.0000000000e+00 +0.0000000000e+00 +3.5313037831e+01 3.5313037923e+01 2.5500000000e-03 0.0000e+00 1.0000e+00
        1 -1    0    0  501    0 +0.0000000000e+00 -0.0000000000e+00 -6.7681506856e+01 6.7681507043e+01 5.0400000000e-03 0.0000e+00 -1.0000e+00
      -24  2    1    2    0    0 +3.5527136788e-15 +0.0000000000e+00 -3.2368469024e+01 1.0299454497e+02 9.7776063052e+01 0.0000e+00 0.0000e+00
       66  2    3    3    0    0 +2.9373488375e+01 -3.3033666793e+01 -1.4884754802e+01 5.5458070674e+01 3.0000278604e+01 0.0000e+00 0.0000e+00
       13  1    3    3    0    0 -2.9373488375e+01 +3.3033666793e+01 -1.7483714222e+01 4.7536474292e+01 1.0566000000e-01 0.0000e+00 -1.0000e+00
       13  1    4    4    0    0 -1.4265031661e+00 -8.7990142649e+00 -1.7291859808e+00 9.0806834274e+00 1.0566000000e-01 0.0000e+00 1.0000e+00
      -13  1    4    4    0    0 +6.0181563432e+00 -1.4318581219e+01 +2.0357625310e+00 1.5665103479e+01 1.0566000000e-01 0.0000e+00 -1.0000e+00
      -14  1    4    4    0    0 +2.4781835198e+01 -9.9160713091e+00 -1.5191331352e+01 3.0712283768e+01 0.0000000000e+00 0.0000e+00 1.0000e+00
<mgrwt>
<rscale>  0 0.97776063E+02</rscale>
<asrwt>0</asrwt>
<pdfrwt beam="1">  1        1 0.10412540E-01 0.97776063E+02</pdfrwt>
<pdfrwt beam="2">  1       -2 0.54327751E-02 0.97776063E+02</pdfrwt>
<totfact> 0.78852156E+04</totfact>
</mgrwt>
</event>
<event>
 8      1 +5.0320763e-08 7.89905700e+01 7.81860800e-03 1.33194100e-01
       -1 -1    0    0    0  501 -0.0000000000e+00 +0.0000000000e+00 +4.3081608596e+00 4.3081638077e+00 5.0400000000e-03 0.0000e+00 1.0000e+00
        2 -1    0    0  501    0 +0.0000000000e+00 -0.0000000000e+00 -3.6207490090e+02 3.6207490091e+02 2.5500000000e-03 0.0000e+00 -1.0000e+00
       24  2    1    2    0    0 +8.8817841970e-16 +5.3290705182e-15 -3.5776674004e+02 3.6638306471e+02 7.8990567994e+01 0.0000e+00 0.0000e+00
       66  2    3    3    0    0 -6.4041379821e+00 -1.5688942868e+01 -3.4032515345e+02 3.4206484071e+02 2.9999821221e+01 0.0000e+00 0.0000e+00
      -13  1    3    3    0    0 +6.4041379821e+00 +1.5688942868e+01 -1.7441586592e+01 2.4318223999e+01 1.0566000000e-01 0.0000e+00 1.0000e+00
       13  1    4    4    0    0 +1.5523705068e+00 -1.4333901318e+01 -8.9851064386e+01 9.1000524815e+01 1.0566000000e-01 0.0000e+00 -1.0000e+00
      -13  1    4    4    0    0 +1.3639122977e+00 +5.4267833900e+00 -7.0780936624e+01 7.1001847779e+01 1.0566000000e-01 0.0000e+00 1.0000e+00
      -14  1    4    4    0    0 -9.3204207865e+00 -6.7818249399e+00 -1.7969315244e+02 1.8006246812e+02 0.0000000000e+00 0.0000e+00 1.0000e+00
<mgrwt>
<rscale>  0 0.78990568E+02</rscale>
<asrwt>0</asrwt>
<pdfrwt beam="1">  1        2 0.55703807E-01 0.78990568E+02</pdfrwt>
<pdfrwt beam="2">  1       -1 0.66279449E-03 0.78990568E+02</pdfrwt>
<totfact> 0.28197587E+05</totfact>
</mgrwt>
</event>
<event>
 8      1 +5.0320763e-08 8.18802800e+01 7.81860800e-03 1.32379900e-01
        2 -1    0    0  501    0 +0.0000000000e+00 +0.0000000000e+00 +3.5306038086e+02 3.5306038087e+02 2.5500000000e-03 0.0000e+00 -1.0000e+00
       -1 -1    0    0    0  501 -0.0000000000e+00 -0.0000000000e+00 -4.7473309795e+00 4.7473336548e+00 5.0400000000e-03 0.0000e+00 1.0000e+00
       24  2    1    2    0    0 +0.0000000000e+00 -1.7763568394e-15 +3.4831304988e+02 3.5780771452e+02 8.1880277575e+01 0.0000e+00 0.0000e+00
       66  2    3    3    0    0 +1.4177796054e+01 +1.4467645971e+01 +3.2463589208e+02 3.2664777797e+02 2.9999762338e+01 0.0000e+00 0.0000e+00
      -13  1    3    3    0    0 -1.4177796054e+01 -1.4467645971e+01 +2.3677157796e+01 3.1159936557e+01 1.0566000000e-01 0.0000e+00 1.0000e+00
       13  1    4    4    0    0 +5.8719630164e+00 +3.2448772302e+00 +1.7224474212e+02 1.7237537971e+02 1.0566000000e-01 0.0000e+00 -1.0000e+00
      -13  1    4    4    0    0 +7.7347090460e+00 +1.6713442856e+01 +1.2233768377e+02 1.2371614660e+02 1.0566000000e-01 0.0000e+00 1.0000e+00
      -14  1    4    4    0    0 +5.7112399182e-01 -5.4906741152e+00 +3.0053466192e+01 3.0556251652e+01 0.0000000000e+00 0.0000e+00 1.0000e+00
<mgrwt>
<rscale>  0 0.81880278E+02</rscale>
<asrwt>0</asrwt>
<pdfrwt beam="1">  1        2 0.54316978E-01 0.81880278E+02</pdfrwt>
<pdfrwt beam="2">  1       -1 0.73035887E-03 0.81880278E+02</pdfrwt>
<totfact> 0.25437546E+05</totfact>
</mgrwt>
</event>
<event>
 8      1 +5.0320763e-08 7.88376600e+01 7.81860800e-03 1.33238300e-01
       -4 -1    0    0    0  501 -0.0000000000e+00 +0.0000000000e+00 +3.1326669754e+02 3.1326927185e+02 1.2700000000e+00 0.0000e+00 1.0000e+00
        3 -1    0    0  501    0 +0.0000000000e+00 -0.0000000000e+00 -4.9583021690e+00 4.9593307410e+00 1.0100000000e-01 0.0000e+00 -1.0000e+00
      -24  2    1    2    0    0 +0.0000000000e+00 +0.0000000000e+00 +3.0830839537e+02 3.1822860260e+02 7.8837661387e+01 0.0000e+00 0.0000e+00
       66  2    3    3    0    0 +5.2753281994e+00 -3.2634173319e+01 +2.0308515533e+02 2.0793463284e+02 3.0006880250e+01 0.0000e+00 0.0000e+00
       13  1    3    3    0    0 -5.2753281994e+00 +3.2634173319e+01 +1.0522324004e+02 1.1029396976e+02 1.0566000000e-01 0.0000e+00 -1.0000e+00
       13  1    4    4    0    0 -2.6319734497e+00 +2.8981233953e-01 +2.1096243795e+01 2.1262030518e+01 1.0566000000e-01 0.0000e+00 -1.0000e+00
      -13  1    4    4    0    0 +2.8868103225e+00 -3.7406989931e+00 +8.8054896045e+01 8.8181644259e+01 1.0566000000e-01 0.0000e+00 1.0000e+00
      -14  1    4    4    0    0 +5.0204913266e+00 -2.9183286665e+01 +9.3934015492e+01 9.8490958063e+01 0.0000000000e+00 0.0000e+00 1.0000e+00
<mgrwt>
<rscale>  0 0.78837661E+02</rscale>
<asrwt>0</asrwt>
<pdfrwt beam="1">  1        3 0.76289633E-03 0.78837661E+02</pdfrwt>
<pdfrwt beam="2">  1       -4 0.48207570E-01 0.78837661E+02</pdfrwt>
<totfact> 0.27821625E+04</totfact>
</mgrwt>
</event>
<event>
 8      1 +5.0320763e-08 7.76087800e+01 7.81860800e-03 1.33597800e-01
        2 -1    0    0  501    0 +0.0000000000e+00 +0.0000000000e+00 +1.5174487250e+03 1.5174487250e+03 2.5500000000e-03 0.0000e+00 -1.0000e+00
       -1 -1    0    0    0  501 -0.0000000000e+00 -0.0000000000e+00 -9.9230432397e-01 9.9231712319e-01 5.0400000000e-03 0.0000e+00 1.0000e+00
       24  2    1    2    0    0 -8.8817841970e-16 -3.5527136788e-15 +1.5164564207e+03 1.5184410422e+03 7.7608779151e+01 0.0000e+00 0.0000e+00
       66  2    3    3    0    0 -5.8159918405e+00 +1.6153937444e+01 +1.4230520450e+03 1.4234717628e+03 2.9999354245e+01 0.0000e+00 0.0000e+00
      -13  1    3    3    0    0 +5.8159918405e+00 -1.6153937444e+01 +9.3404375676e+01 9.4969279325e+01 1.0566000000e-01 0.0000e+00 1.0000e+00
       13  1    4    4    0    0 -1.1718203425e+01 +8.1523865220e+00 +7.1470853554e+02 7.1485108914e+02 1.0566000000e-01 0.0000e+00 -1.0000e+00
      -13  1    4    4    0    0 -2.8585805418e+00 +9.4991606608e+00 +2.6022063841e+02 2.6040967216e+02 1.0566000000e-01 0.0000e+00 1.0000e+00
       14  1    4    4    0    0 +8.7607921268e+00 -1.4976097383e+00 +4.4812287109e+02 4.4821100154e+02 0.0000000000e+00 0.0000e+00 -1.0000e+00
<mgrwt>
<rscale>  0 0.77608779E+02</rscale>
<asrwt>0</asrwt>
<pdfrwt beam="1">  1        2 0.23345448E+00 0.77608779E+02</pdfrwt>
<pdfrwt beam="2">  1       -1 0.15266265E-03 0.77608779E+02</pdfrwt>
<totfact> 0.35816600E+05</totfact>
</mgrwt>
</event>
<event>
 8      1 +5.0320763e-08 6.61929200e+01 7.81860800e-03 1.37354000e-01
       -2 -1    0    0    0  501 -0.0000000000e+00 +0.0000000000e+00 +8.4500498190e+00 8.4500502037e+00 2.5500000000e-03 0.0000e+00 1.0000e+00
        1 -1    0    0  501    0 +0.0000000000e+00 -0.0000000000e+00 -1.2962947843e+02 1.2962947853e+02 5.0400000000e-03 0.0000e+00 -1.0000e+00
      -24  2    1    2    0    0 +0.0000000000e+00 -1.7763568394e-15 -1.2117942862e+02 1.3807952874e+02 6.6192917570e+01 0.0000e+00 0.0000e+00
       66  2    3    3    0    0 -1.8744428544e+01 +8.4516856232e+00 -3.8834739286e+01 5.3206425717e+01 3.0000036180e+01 0.0000e+00 0.0000e+00
       13  1    3    3    0    0 +1.8744428544e+01 -8.4516856232e+00 -8.2344689330e+01 8.4873103020e+01 1.0566000000e-01 0.0000e+00 -1.0000e+00
       13  1    4    4    0    0 -1.5196634282e+01 +1.3263863766e+01 -1.1703163561e+01 2.3320441181e+01 1.0566000000e-01 0.0000e+00 -1.0000e+00
      -13  1    4    4    0    0 +2.3598752807e+00 +1.9802083641e+00 -3.8985805397e+00 4.9699427326e+00 1.0566000000e-01 0.0000e+00 1.0000e+00
       14  1    4    4    0    0 -5.9076695433e+00 -6.7923865064e+00 -2.3232995185e+01 2.4916041804e+01 0.0000000000e+00 0.0000e+00 -1.0000e+00
<mgrwt>
<rscale>  0 0.66192918E+02</rscale>
<asrwt>0</asrwt>
<pdfrwt beam="1">  1        1 0.19942995E-01 0.66192918E+02</pdfrwt>
<pdfrwt beam="2">  1       -2 0.13000078E-02 0.66192918E+02</pdfrwt>
<totfact> 0.25391815E+05</totfact>
</mgrwt>
</event>
<event>
 8      1 +5.0320763e-08 8.31467000e+01 7.81860800e-03 1.32035100e-01
       -2 -1    0    0    0  501 -0.0000000000e+00 +0.0000000000e+00 +3.0598817984e+01 3.0598818090e+01 2.5500000000e-03 0.0000e+00 1.0000e+00
        1 -1    0    0  501    0 +0.0000000000e+00 -0.0000000000e+00 -5.6483999235e+01 5.6483999460e+01 5.0400000000e-03 0.0000e+00 -1.0000e+00
      -24  2    1    2    0    0 +0.0000000000e+00 +0.0000000000e+00 -2.5885181251e+01 8.7082817550e+01 8.3146704709e+01 0.0000e+00 0.0000e+00
       66  2    3    3    0    0 +1.0800225799e+01 +2.6743895691e+01 -3.7471342495e+01 5.6000167559e+01 3.0000607064e+01 0.0000e+00 0.0000e+00
       13  1    3    3    0    0 -1.0800225799e+01 -2.6743895691e+01 +1.1586161244e+01 3.1082649991e+01 1.0566000000e-01 0.0000e+00 -1.0000e+00
       13  1    4    4    0    0 -1.1807211687e+00 +5.0694401886e+00 -2.6820456020e+01 2.7321078885e+01 1.0566000000e-01 0.0000e+00 -1.0000e+00
      -13  1    4    4    0    0 +1.0752402307e+01 +1.5739849187e+01 -1.1926632537e+01 2.2485834108e+01 1.0566000000e-01 0.0000e+00 1.0000e+00
       14  1    4    4    0    0 +1.2285446614e+00 +5.9346063151e+00 +1.2757460625e+00 6.1932545658e+00 0.0000000000e+00 0.0000e+00 -1.0000e+00
<mgrwt>
<rscale>  0 0.83146705E+02</rscale>
<asrwt>0</asrwt>
<pdfrwt beam="1">  1        1 0.86898460E-02 0.83146705E+02</pdfrwt>
<pdfrwt beam="2">  1       -2 0.47075105E-02 0.83146705E+02</pdfrwt>
<totfact> 0.12050210E+05</totfact>
</mgrwt>
</event>
<event>
 8      1 +5.0320763e-08 7.76200700e+01 7.81860800e-03 1.33594400e-01
       -1 -1    0    0    0  501 -0.0000000000e+00 +0.0000000000e+00 +4.0628871564e+00 4.0628902824e+00 5.0400000000e-03 0.0000e+00 1.0000e+00
        2 -1    0    0  501    0 +0.0000000000e+00 -0.0000000000e+00 -3.7072604177e+02 3.7072604178e+02 2.5500000000e-03 0.0000e+00 -1.0000e+00
       24  2    1    2    0    0 -3.5527136788e-15 +0.0000000000e+00 -3.6666315461e+02 3.7478893206e+02 7.7620065991e+01 0.0000e+00 0.0000e+00
       66  2    3    3    0    0 -1.7875363111e+01 +3.5703850047e+00 -3.4361501711e+02 3.4540349244e+02 3.0000272482e+01 0.0000e+00 0.0000e+00
      -13  1    3    3    0    0 +1.7875363111e+01 -3.5703850047e+00 -2.3048137500e+01 2.9385439620e+01 1.0566000000e-01 0.0000e+00 1.0000e+00
       13  1    4    4    0    0 -2.3618861782e+00 -5.5335517291e+00 -1.0027424317e+02 1.0045463508e+02 1.0566000000e-01 0.0000e+00 -1.0000e+00
      -13  1    4    4    0    0 -6.4358294596e-01 -6.1559191935e+00 -7.7122721873e+01 7.7370762781e+01 1.0566000000e-01 0.0000e+00 1.0000e+00
      -14  1    4    4    0    0 -1.4869893986e+01 +1.5259855927e+01 -1.6621805207e+02 1.6757809458e+02 0.0000000000e+00 0.0000e+00 1.0000e+00
<mgrwt>
<rscale>  0 0.77620066E+02</rscale>
<asrwt>0</asrwt>
<pdfrwt beam="1">  1        2 0.57034749E-01 0.77620066E+02</pdfrwt>
<pdfrwt beam="2">  1       -1 0.62506010E-03 0.77620066E+02</pdfrwt>
<totfact> 0.29762714E+05</totfact>
</mgrwt>
</event>
<event>
 8      1 +5.0320763e-08 7.95173700e+01 7.81860800e-03 1.33042700e-01
        4 -1    0    0  501    0 +0.0000000000e+00 +0.0000000000e+00 +9.5393226117e+00 9.6234908370e+00 1.2700000000e+00 0.0000e+00 -1.0000e+00
       -1 -1    0    0    0  501 -0.0000000000e+00 -0.0000000000e+00 -1.6493922688e+02 1.6493922696e+02 5.0400000000e-03 0.0000e+00 1.0000e+00
       24  2    1    2    0    0 -4.8572257327e-16 -7.1054273576e-15 -1.5539990427e+02 1.7456271779e+02 7.9517370410e+01 0.0000e+00 0.0000e+00
       66  2    3    3    0    0 +6.4876465157e-02 -3.3899292173e+01 -8.0669945165e+01 9.2503323631e+01 3.0000976835e+01 0.0000e+00 0.0000e+00
      -13  1    3    3    0    0 -6.4876465157e-02 +3.3899292173e+01 -7.4729959102e+01 8.2059394162e+01 1.0566000000e-01 0.0000e+00 1.0000e+00
       13  1    4    4    0    0 +2.4454961512e+00 -2.4672964449e+00 -3.1375562440e+00 4.6822458706e+00 1.0566000000e-01 0.0000e+00 -1.0000e+00
      -13  1    4    4    0    0 +1.1160301213e+01 -1.2117593648e+01 -2.1982767561e+01 2.7470741392e+01 1.0566000000e-01 0.0000e+00 1.0000e+00
       14  1    4    4    0    0 -1.3540920899e+01 -1.9314402080e+01 -5.5549621359e+01 6.0350336368e+01 0.0000000000e+00 0.0000e+00 -1.0000e+00
<mgrwt>
<rscale>  0 0.79517370E+02</rscale>
<asrwt>0</asrwt>
<pdfrwt beam="1">  1        4 0.14744388E-02 0.79517370E+02</pdfrwt>
<pdfrwt beam="2">  1       -1 0.25375264E-01 0.79517370E+02</pdfrwt>
<totfact> 0.69798581E+04</totfact>
</mgrwt>
</event>
<event>
 8      1 +5.0320763e-08 7.83668800e+01 7.81860800e-03 1.33375100e-01
        2 -1    0    0  501    0 +0.0000000000e+00 +0.0000000000e+00 +9.2910688097e+00 9.2910691597e+00 2.5500000000e-03 0.0000e+00 -1.0000e+00
       -1 -1    0    0    0  501 -0.0000000000e+00 -0.0000000000e+00 -1.6524924648e+02 1.6524924656e+02 5.0400000000e-03 0.0000e+00 1.0000e+00
       24  2    1    2    0    0 +1.3322676296e-15 -7.1054273576e-15 -1.5595817768e+02 1.7454031572e+02 7.8366884769e+01 0.0000e+00 0.0000e+00
       66  2    3    3    0    0 +2.9468910575e+00 -3.2891239321e+01 -1.0115083894e+02 1.1055302531e+02 2.9999356593e+01 0.0000e+00 0.0000e+00
      -13  1    3    3    0    0 -2.9468910575e+00 +3.2891239321e+01 -5.4807338740e+01 6.3987290415e+01 1.0566000000e-01 0.0000e+00 1.0000e+00
       13  1    4    4    0    0 +8.2599813791e+00 -1.1880465424e+01 -3.6794218973e+01 3.9537304726e+01 1.0566000000e-01 0.0000e+00 -1.0000e+00
      -13  1    4    4    0    0 -2.8672172624e+00 -1.6199079216e+00 -3.8311467197e+01 3.8452889609e+01 1.0566000000e-01 0.0000e+00 1.0000e+00
       14  1    4    4    0    0 -2.4458730592e+00 -1.9390865975e+01 -2.6045152765e+01 3.2562830971e+01 0.0000000000e+00 0.0000e+00 -1.0000e+00
<mgrwt>
<rscale>  0 0.78366885E+02</rscale>
<asrwt>0</asrwt>
<pdfrwt beam="1">  1        2 0.14293953E-02 0.78366885E+02</pdfrwt>
<pdfrwt beam="2">  1       -1 0.25422959E-01 0.78366885E+02</pdfrwt>
<totfact> 0.11081560E+05</totfact>
</mgrwt>
</event>
<event>
 8      1 +5.0320763e-08 7.70194000e+01 7.81860800e-03 1.33772900e-01
       -1 -1    0    0    0  501 -0.0000000000e+00 +0.0000000000e+00 +1.9487977086e+00 1.9488042259e+00 5.0400000000e-03 0.0000e+00 1.0000e+00
        2 -1    0    0  501    0 +0.0000000000e+00 -0.0000000000e+00 -7.6097927876e+02 7.6097927876e+02 2.5500000000e-03 0.0000e+00 -1.0000e+00
       24  2    1    2    0    0 +0.0000000000e+00 +3.5527136788e-15 -7.5903048105e+02 7.6292808299e+02 7.7019404372e+01 0.0000e+00 0.0000e+00
       66  2    3    3    0    0 -1.7263328230e+01 +1.7045427924e+01 -6.5378928258e+02 6.5492673979e+02 3.0000655863e+01 0.0000e+00 0.0000e+00
      -13  1    3    3    0    0 +1.7263328230e+01 -1.7045427924e+01 -1.0524119846e+02 1.0800134320e+02 1.0566000000e-01 0.0000e+00 1.0000e+00
       13  1    4    4    0    0 -9.4175838598e+00 +1.4596215518e+01 -2.0655202461e+02 2.0728118687e+02 1.0566000000e-01 0.0000e+00 -1.0000e+00
      -13  1    4    4    0    0 -7.0649132776e+00 -6.8134092301e+00 -2.3410674527e+02 2.3431243008e+02 1.0566000000e-01 0.0000e+00 1.0000e+00
      -14  1    4    4    0    0 -7.8083109267e-01 +9.2626216358e+00 -2.1313051270e+02 2.1333312284e+02 0.0000000000e+00 0.0000e+00 1.0000e+00
<mgrwt>
<rscale>  0 0.77019404E+02</rscale>
<asrwt>0</asrwt>
<pdfrwt beam="1">  1        2 0.11707350E+00 0.77019404E+02</pdfrwt>
<pdfrwt beam="2">  1       -1 0.29981614E-03 0.77019404E+02</pdfrwt>
<totfact> 0.37574284E+05</totfact>
</mgrwt>
</event>
<event>
 8      1 +5.0320763e-08 8.33991800e+01 7.81860800e-03 1.31967300e-01
       -1 -1    0    0    0  501 -0.0000000000e+00 +0.0000000000e+00 +1.8876560690e+00 1.8876627973e+00 5.0400000000e-03 0.0000e+00 1.0000e+00
        2 -1    0    0  501    0 +0.0000000000e+00 -0.0000000000e+00 -9.2117032442e+02 9.2117032442e+02 2.5500000000e-03 0.0000e+00 -1.0000e+00
       24  2    1    2    0    0 -1.7763568394e-15 +0.0000000000e+00 -9.1928266835e+02 9.2305798722e+02 8.3399181300e+01 0.0000e+00 0.0000e+00
       66  2    3    3    0    0 -8.1973606299e+00 +1.2503898822e+01 -8.8526594724e+02 8.8590031390e+02 3.0000410458e+01 0.0000e+00 0.0000e+00
      -13  1    3    3    0    0 +8.1973606299e+00 -1.2503898822e+01 -3.4016721112e+01 3.7157673316e+01 1.0566000000e-01 0.0000e+00 1.0000e+00
       13  1    4    4    0    0 +4.6359976848e+00 -4.9137079916e+00 -1.1793503873e+02 1.1812841117e+02 1.0566000000e-01 0.0000e+00 -1.0000e+00
      -13  1    4    4    0    0 +6.5830067583e-02 +6.7441948918e+00 -9.8115473501e+01 9.8347068094e+01 1.0566000000e-01 0.0000e+00 1.0000e+00
      -14  1    4    4    0    0 -1.2899188382e+01 +1.0673411922e+01 -6.6921543500e+02 6.6942483464e+02 0.0000000000e+00 0.0000e+00 1.0000e+00
<mgrwt>
<rscale>  0 0.83399181E+02</rscale>
<asrwt>0</asrwt>
<pdfrwt beam="1">  1        2 0.14171815E+00 0.83399181E+02</pdfrwt>
<pdfrwt beam="2">  1       -1 0.29040988E-03 0.83399181E+02</pdfrwt>
<totfact> 0.31435691E+05</totfact>
</mgrwt>
</event>
<event>
 8      1 +5.0320763e-08 8.37539500e+01 7.81860800e-03 1.31872400e-01
       -1 -1    0    0    0  501 -0.0000000000e+00 +0.0000000000e+00 +9.2116414272e+00 9.2116428060e+00 5.0400000000e-03 0.0000e+00 1.0000e+00
        2 -1    0    0  501    0 +0.0000000000e+00 -0.0000000000e+00 -1.9037660605e+02 1.9037660607e+02 2.5500000000e-03 0.0000e+00 -1.0000e+00
       24  2    1    2    0    0 -2.2204460493e-16 -7.1054273576e-15 -1.8116496463e+02 1.9958824888e+02 8.3753953229e+01 0.0000e+00 0.0000e+00
       66  2    3    3    0    0 -1.5899961141e+00 -3.4483060852e+01 -7.3920863786e+01 8.6925398289e+01 3.0002019791e+01 0.0000e+00 0.0000e+00
      -13  1    3    3    0    0 +1.5899961141e+00 +3.4483060852e+01 -1.0724410084e+02 1.1266285059e+02 1.0566000000e-01 0.0000e+00 1.0000e+00
       13  1    4    4    0    0 -5.4464358348e+00 -5.5247007797e+00 -1.6620422812e+01 1.8342180909e+01 1.0566000000e-01 0.0000e+00 -1.0000e+00
      -13  1    4    4    0    0 -1.5153500273e+00 -2.5953973308e+01 -5.6728001268e+01 6.2401781290e+01 1.0566000000e-01 0.0000e+00 1.0000e+00
      -14  1    4    4    0    0 +5.3717897479e+00 -3.0043867643e+00 -5.7243970537e-01 6.1814360906e+00 0.0000000000e+00 0.0000e+00 1.0000e+00
<mgrwt>
<rscale>  0 0.83753953E+02</rscale>
<asrwt>0</asrwt>
<pdfrwt beam="1">  1        2 0.29288706E-01 0.83753953E+02</pdfrwt>
<pdfrwt beam="2">  1       -1 0.14171759E-02 0.83753953E+02</pdfrwt>
<totfact> 0.19206680E+05</totfact>
</mgrwt>
</event>
<event>
 8      1 +5.0320763e-08 8.34022800e+01 7.81860800e-03 1.31966400e-01
        1 -1    0    0  501    0 +0.0000000000e+00 +0.0000000000e+00 +7.0556585690e+01 7.0556585870e+01 5.0400000000e-03 0.0000e+00 -1.0000e+00
       -2 -1    0    0    0  501 -0.0000000000e+00 -0.0000000000e+00 -2.4646670273e+01 2.4646670405e+01 2.5500000000e-03 0.0000e+00 1.0000e+00
      -24  2    1    2    0    0 +1.7763568394e-15 -1.7763568394e-15 +4.5909915417e+01 9.5203256275e+01 8.3402276178e+01 0.0000e+00 0.0000e+00
       66  2    3    3    0    0 +1.1766426308e+01 -7.3560341339e+00 -1.2370995793e+01 3.5293025080e+01 2.9999934270e+01 0.0000e+00 0.0000e+00
       13  1    3    3    0    0 -1.1766426308e+01 +7.3560341339e+00 +5.8280911210e+01 5.9910231194e+01 1.0566000000e-01 0.0000e+00 -1.0000e+00
       13  1    4    4    0    0 +6.4411655169e+00 -2.9762070561e+00 +6.2478194345e+00 9.4547783358e+00 1.0566000000e-01 0.0000e+00 -1.0000e+00
      -13  1    4    4    0    0 -2.3504840899e+00 +5.0174866886e+00 -7.8885511485e+00 9.6405576283e+00 1.0566000000e-01 0.0000e+00 1.0000e+00
      -14  1    4    4    0    0 +7.6757448808e+00 -9.3973137665e+00 -1.0730264079e+01 1.6197689116e+01 0.0000000000e+00 0.0000e+00 1.0000e+00
<mgrwt>
<rscale>  0 0.83402276E+02</rscale>
<asrwt>0</asrwt>
<pdfrwt beam="1">  1        1 0.10854859E-01 0.83402276E+02</pdfrwt>
<pdfrwt beam="2">  1       -2 0.37917955E-02 0.83402276E+02</pdfrwt>
<totfact> 0.12387268E+05</totfact>
</mgrwt>
</event>
<event>
 8      1 +5.0320763e-08 7.99490900e+01 7.81860800e-03 1.32919600e-01
        3 -1    0    0  501    0 +0.0000000000e+00 +0.0000000000e+00 +9.9690015806e+01 9.9690066970e+01 1.0100000000e-01 0.0000e+00 -1.0000e+00
       -4 -1    0    0    0  501 -0.0000000000e+00 -0.0000000000e+00 -1.6000095934e+01 1.6050419617e+01 1.2700000000e+00 0.0000e+00 1.0000e+00
      -24  2    1    2    0    0 -3.5527136788e-15 +0.0000000000e+00 +8.3689919872e+01 1.1574048659e+02 7.9949093474e+01 0.0000e+00 0.0000e+00
       66  2    3    3    0    0 -2.8039167268e+01 -1.7192410360e+01 +3.3413253018e+01 5.5661136815e+01 2.9999046639e+01 0.0000e+00 0.0000e+00
       13  1    3    3    0    0 +2.8039167268e+01 +1.7192410360e+01 +5.0276666855e+01 6.0079349773e+01 1.0566000000e-01 0.0000e+00 -1.0000e+00
       13  1    4    4    0    0 -3.5088991362e+00 +3.9133507610e-01 +9.7409383253e+00 1.0361590601e+01 1.0566000000e-01 0.0000e+00 -1.0000e+00
      -13  1    4    4    0    0 -2.7085180640e+01 -1.6199340181e+01 +2.6525813897e+01 4.1226879575e+01 1.0566000000e-01 0.0000e+00 1.0000e+00
       14  1    4    4    0    0 +2.5549125082e+00 -1.3844052551e+00 -2.8534992049e+00 4.0726666383e+00 0.0000000000e+00 0.0000e+00 -1.0000e+00
<mgrwt>
<rscale>  0 0.79949093E+02</rscale>
<asrwt>0</asrwt>
<pdfrwt beam="1">  1        3 0.15336955E-01 0.79949093E+02</pdfrwt>
<pdfrwt beam="2">  1       -4 0.24660464E-02 0.79949093E+02</pdfrwt>
<totfact> 0.42720719E+04</totfact>
</mgrwt>
</event>
<event>
 8      1 +5.0320763e-08 6.89053900e+01 7.81860800e-03 1.36385500e-01
       -1 -1    0    0    0  501 -0.0000000000e+00 +0.0000000000e+00 +3.4459044900e+02 3.4459044903e+02 5.0400000000e-03 0.0000e+00 1.0000e+00
        4 -1    0    0  501    0 +0.0000000000e+00 -0.0000000000e+00 -3.3263661111e+00 3.5605633690e+00 1.2700000000e+00 0.0000e+00 -1.0000e+00
       24  2    1    2    0    0 +0.0000000000e+00 -3.5527136788e-15 +3.4126408288e+02 3.4815101240e+02 6.8905392889e+01 0.0000e+00 0.0000e+00
       66  2    3    3    0    0 +1.9175358539e+01 -2.0276632254e+01 +2.0745720417e+02 2.1146477262e+02 3.0000371763e+01 0.0000e+00 0.0000e+00
      -13  1    3    3    0    0 -1.9175358539e+01 +2.0276632254e+01 +1.3380687871e+02 1.3668623978e+02 1.0566000000e-01 0.0000e+00 1.0000e+00
       13  1    4    4    0    0 +1.7425501802e+01 -8.5375179022e+00 +9.2059934388e+01 9.4082835887e+01 1.0566000000e-01 0.0000e+00 -1.0000e+00
      -13  1    4    4    0    0 +1.1459659414e+00 +4.7609589476e+00 +2.2266200923e+01 2.2798570911e+01 1.0566000000e-01 0.0000e+00 1.0000e+00
      -14  1    4    4    0    0 +6.0389079575e-01 -1.6500073299e+01 +9.3131068863e+01 9.4583365823e+01 0.0000000000e+00 0.0000e+00 1.0000e+00
<mgrwt>
<rscale>  0 0.68905393E+02</rscale>
<asrwt>0</asrwt>
<pdfrwt beam="1">  1        4 0.52994377E-03 0.68905393E+02</pdfrwt>
<pdfrwt beam="2">  1       -1 0.53013922E-01 0.68905393E+02</pdfrwt>
<totfact> 0.87132188E+04</totfact>
</mgrwt>
</event>
<event>
 8      1 +5.0320763e-08 7.64500500e+01 7.81860800e-03 1.33943900e-01
       -1 -1    0    0    0  501 -0.0000000000e+00 +0.0000000000e+00 +4.1759112262e+01 4.1759112566e+01 5.0400000000e-03 0.0000e+00 1.0000e+00
        2 -1    0    0  501    0 +0.0000000000e+00 -0.0000000000e+00 -3.4990030609e+01 3.4990030702e+01 2.5500000000e-03 0.0000e+00 -1.0000e+00
       24  2    1    2    0    0 +3.5527136788e-15 +0.0000000000e+00 +6.7690816526e+00 7.6749143268e+01 7.6450052491e+01 0.0000e+00 0.0000e+00
       66  2    3    3    0    0 +1.7097441072e+01 +1.6291565113e+01 -1.8272822413e+01 4.2327555444e+01 2.9999805431e+01 0.0000e+00 0.0000e+00
      -13  1    3    3    0    0 -1.7097441072e+01 -1.6291565113e+01 +2.5041904066e+01 3.4421587824e+01 1.0566000000e-01 0.0000e+00 1.0000e+00
       13  1    4    4    0    0 +2.8660526460e+00 +6.5946080657e-01 -4.5985912496e-01 2.9785534703e+00 1.0566000000e-01 0.0000e+00 -1.0000e+00
      -13  1    4    4    0    0 +1.7841837080e-01 -6.9402441586e+00 +6.5656561897e-01 6.9743146290e+00 1.0566000000e-01 0.0000e+00 1.0000e+00
      -14  1    4    4    0    0 +1.4052970055e+01 +2.2572348465e+01 -1.8469528907e+01 3.2374687345e+01 0.0000000000e+00 0.0000e+00 1.0000e+00
<mgrwt>
<rscale>  0 0.76450052E+02</rscale>
<asrwt>0</asrwt>
<pdfrwt beam="1">  1        2 0.53830817E-02 0.76450052E+02</pdfrwt>
<pdfrwt beam="2">  1       -1 0.64244788E-02 0.76450052E+02</pdfrwt>
<totfact> 0.15732911E+05</totfact>
</mgrwt>
</event>
<event>
 8      1 +5.0320763e-08 7.85453500e+01 7.81860800e-03 1.33323100e-01
        2 -1    0    0  501    0 +0.0000000000e+00 +0.0000000000e+00 +1.1884176330e+03 1.1884176330e+03 2.5500000000e-03 0.0000e+00 -1.0000e+00
       -1 -1    0    0    0  501 -0.0000000000e+00 -0.0000000000e+00 -1.2978072431e+00 1.2978170294e+00 5.0400000000e-03 0.0000e+00 1.0000e+00
       24  2    1    2    0    0 +0.0000000000e+00 +2.2204460493e-16 +1.1871198257e+03 1.1897154500e+03 7.8545345757e+01 0.0000e+00 0.0000e+00
       66  2    3    3    0    0 +1.0008112432e+01 +1.1582501830e+00 +1.1647665350e+03 1.1651963834e+03 3.0000448626e+01 0.0000e+00 0.0000e+00
      -13  1    3    3    0    0 -1.0008112432e+01 -1.1582501830e+00 +2.2353290742e+01 2.4519066641e+01 1.0566000000e-01 0.0000e+00 1.0000e+00
       13  1    4    4    0    0 +9.4436913912e+00 +9.3269401307e+00 +5.7878900949e+02 5.7894119199e+02 1.0566000000e-01 0.0000e+00 -1.0000e+00
      -13  1    4    4    0    0 -5.8041809381e+00 -8.5563708812e+00 +2.4515833897e+02 2.4537628722e+02 1.0566000000e-01 0.0000e+00 1.0000e+00
       14  1    4    4    0    0 +6.3686019793e+00 +3.8768093353e-01 +3.4081918653e+02 3.4087890415e+02 0.0000000000e+00 0.0000e+00 -1.0000e+00
<mgrwt>
<rscale>  0 0.78545346E+02</rscale>
<asrwt>0</asrwt>
<pdfrwt beam="1">  1        2 0.18283431E+00 0.78545346E+02</pdfrwt>
<pdfrwt beam="2">  1       -1 0.19966250E-03 0.78545346E+02</pdfrwt>
<totfact> 0.36783703E+05</totfact>
</mgrwt>
</event>
<event>
 8      1 +5.0320763e-08 7.94528700e+01 7.81860800e-03 1.33061100e-01
       -1 -1    0    0    0  501 -0.0000000000e+00 +0.0000000000e+00 +1.1997017679e+00 1.1997123545e+00 5.0400000000e-03 0.0000e+00 1.0000e+00
        2 -1    0    0  501    0 +0.0000000000e+00 -0.0000000000e+00 -1.3154792639e+03 1.3154792639e+03 2.5500000000e-03 0.0000e+00 -1.0000e+00
       24  2    1    2    0    0 -6.6613381478e-16 +0.0000000000e+00 -1.3142795622e+03 1.3166789763e+03 7.9452873321e+01 0.0000e+00 0.0000e+00
       66  2    3    3    0    0 +8.8429633065e-01 +1.5001056078e+01 -1.2574056876e+03 1.2578532809e+03 2.9999990929e+01 0.0000e+00 0.0000e+00
      -13  1    3    3    0    0 -8.8429633065e-01 -1.5001056078e+01 -5.6873874592e+01 5.8825695394e+01 1.0566000000e-01 0.0000e+00 1.0000e+00
       13  1    4    4    0    0 +1.0102203674e+01 +4.0751150665e-01 -3.9537856402e+02 3.9550782626e+02 1.0566000000e-01 0.0000e+00 -1.0000e+00
      -13  1    4    4    0    0 -4.4327909536e+00 +7.7607957999e-01 -5.0367868693e+02 5.0369880163e+02 1.0566000000e-01 0.0000e+00 1.0000e+00
      -14  1    4    4    0    0 -4.7851163898e+00 +1.3817464991e+01 -3.5834843664e+02 3.5864665301e+02 0.0000000000e+00 0.0000e+00 1.0000e+00
<mgrwt>
<rscale>  0 0.79452873E+02</rscale>
<asrwt>0</asrwt>
<pdfrwt beam="1">  1        2 0.20238027E+00 0.79452873E+02</pdfrwt>
<pdfrwt beam="2">  1       -1 0.18457137E-03 0.79452873E+02</pdfrwt>
<totfact> 0.35155770E+05</totfact>
</mgrwt>
</event>
<event>
 8      1 +5.0320763e-08 7.89411900e+01 7.81860800e-03 1.33208300e-01
        2 -1    0    0  501    0 +0.0000000000e+00 +0.0000000000e+00 +6.4928813820e+02 6.4928813820e+02 2.5500000000e-03 0.0000e+00 -1.0000e+00
       -1 -1    0    0    0  501 -0.0000000000e+00 -0.0000000000e+00 -2.3994371053e+00 2.3994423985e+00 5.0400000000e-03 0.0000e+00 1.0000e+00
       24  2    1    2    0    0 +4.4408920985e-16 +3.5527136788e-15 +6.4688870109e+02 6.5168758060e+02 7.8941187658e+01 0.0000e+00 0.0000e+00
       66  2    3    3    0    0 -1.8670966650e+00 -2.9987002001e+01 +4.9743626899e+02 4.9924497840e+02 3.0000006951e+01 0.0000e+00 0.0000e+00
      -13  1    3    3    0    0 +1.8670966650e+00 +2.9987002001e+01 +1.4945243210e+02 1.5244260220e+02 1.0566000000e-01 0.0000e+00 1.0000e+00
       13  1    4    4    0    0 -7.4320820400e+00 -1.7277553417e+01 +1.9408243126e+02 1.9499166901e+02 1.0566000000e-01 0.0000e+00 -1.0000e+00
      -13  1    4    4    0    0 -1.0437029244e+00 -7.0013684148e-02 +6.9888384216e-01 1.2624659880e+00 1.0566000000e-01 0.0000e+00 1.0000e+00
      -14  1    4    4    0    0 +6.6086882994e+00 -1.2639434899e+01 +3.0265495388e+02 3.0299084340e+02 0.0000000000e+00 0.0000e+00 1.0000e+00
<mgrwt>
<rscale>  0 0.78941188E+02</rscale>
<asrwt>0</asrwt>
<pdfrwt beam="1">  1        2 0.99890506E-01 0.78941188E+02</pdfrwt>
<pdfrwt beam="2">  1       -1 0.36914449E-03 0.78941188E+02</pdfrwt>
<totfact> 0.34005553E+05</totfact>
</mgrwt>
</event>
<event>
 8      1 +5.0320763e-08 8.01990900e+01 7.81860800e-03 1.32848700e-01
       -4 -1    0    0    0  501 -0.0000000000e+00 +0.0000000000e+00 +5.1213053740e+01 5.1228798281e+01 1.2700000000e+00 0.0000e+00 1.0000e+00
        3 -1    0    0  501    0 +0.0000000000e+00 -0.0000000000e+00 -3.1384896621e+01 3.1385059135e+01 1.0100000000e-01 0.0000e+00 -1.0000e+00
      -24  2    1    2    0    0 +0.0000000000e+00 +0.0000000000e+00 +1.9828157118e+01 8.2613857417e+01 8.0199087417e+01 0.0000e+00 0.0000e+00
       66  2    3    3    0    0 +1.4502692762e+01 -1.5092541369e+01 +3.9539246635e+01 5.3862316306e+01 2.9994736056e+01 0.0000e+00 0.0000e+00
       13  1    3    3    0    0 -1.4502692762e+01 +1.5092541369e+01 -1.9711089516e+01 2.8751541111e+01 1.0566000000e-01 0.0000e+00 -1.0000e+00
       13  1    4    4    0    0 -4.5320576534e+00 -4.0847874084e+00 -1.0519740784e+00 6.1921602242e+00 1.0566000000e-01 0.0000e+00 -1.0000e+00
      -13  1    4    4    0    0 +2.8741574234e+00 -7.7413978569e+00 +1.0504800489e+01 1.3362335837e+01 1.0566000000e-01 0.0000e+00 1.0000e+00
      -14  1    4    4    0    0 +1.6160592992e+01 -3.2663561033e+00 +3.0086420224e+01 3.4307820244e+01 0.0000000000e+00 0.0000e+00 1.0000e+00
<mgrwt>
<rscale>  0 0.80199087E+02</rscale>
<asrwt>0</asrwt>
<pdfrwt beam="1">  1        3 0.48284658E-02 0.80199087E+02</pdfrwt>
<pdfrwt beam="2">  1       -4 0.78821190E-02 0.80199087E+02</pdfrwt>
<totfact> 0.44231971E+04</totfact>
</mgrwt>
</event>
<event>
 8      1 +5.0320763e-08 7.83587900e+01 7.81860800e-03 1.33377500e-01
        2 -1    0    0  501    0 +0.0000000000e+00 +0.0000000000e+00 +4.3476340261e+01 4.3476340336e+01 2.5500000000e-03 0.0000e+00 -1.0000e+00
       -1 -1    0    0    0  501 -0.0000000000e+00 -0.0000000000e+00 -3.5307130648e+01 3.5307131008e+01 5.0400000000e-03 0.0000e+00 1.0000e+00
       24  2    1    2    0    0 +0.0000000000e+00 +0.0000000000e+00 +8.1692096133e+00 7.8783471344e+01 7.8358786178e+01 0.0000e+00 0.0000e+00
       66  2    3    3    0    0 +1.7893842508e+01 +2.6167272710e+01 +1.5376100110e+01 4.6273992796e+01 2.9999036550e+01 0.0000e+00 0.0000e+00
      -13  1    3    3    0    0 -1.7893842508e+01 -2.6167272710e+01 -7.2068904972e+00 3.2509478548e+01 1.0566000000e-01 0.0000e+00 1.0000e+00
       13  1    4    4    0    0 +9.8879364704e+00 +1.2248372161e+01 +8.5166167319e+00 1.7897984044e+01 1.0566000000e-01 0.0000e+00 -1.0000e+00
      -13  1    4    4    0    0 -1.9600341721e-02 +1.3174955525e+01 -4.9531191491e+00 1.4075666613e+01 1.0566000000e-01 0.0000e+00 1.0000e+00
      -14  1    4    4    0    0 +8.0255063788e+00 +7.4394502427e-01 +1.1812602528e+01 1.4300342140e+01 0.0000000000e+00 0.0000e+00 1.0000e+00
<mgrwt>
<rscale>  0 0.78358786E+02</rscale>
<asrwt>0</asrwt>
<pdfrwt beam="1">  1        2 0.66886677E-02 0.78358786E+02</pdfrwt>
<pdfrwt beam="2">  1       -1 0.54318663E-02 0.78358786E+02</pdfrwt>
<totfact> 0.15354637E+05</totfact>
</mgrwt>
</event>
<event>
 8      1 +5.0320763e-08 8.06236000e+01 7.81860800e-03 1.32729100e-01
       -3 -1    0    0    0  501 -0.0000000000e+00 +0.0000000000e+00 +6.3049387740e+01 6.3049468637e+01 1.0100000000e-01 0.0000e+00 1.0000e+00
        4 -1    0    0  501    0 +0.0000000000e+00 -0.0000000000e+00 -2.5751996537e+01 2.5783293538e+01 1.2700000000e+00 0.0000e+00 -1.0000e+00
       24  2    1    2    0    0 +0.0000000000e+00 -3.5527136788e-15 +3.7297391203e+01 8.8832762175e+01 8.0623596081e+01 0.0000e+00 0.0000e+00
       66  2    3    3    0    0 +6.5752471213e+00 -2.3260741221e+01 -6.2454644788e+00 3.9030278283e+01 3.0001013974e+01 0.0000e+00 0.0000e+00
      -13  1    3    3    0    0 -6.5752471213e+00 +2.3260741221e+01 +4.3542855681e+01 4.9802483892e+01 1.0566000000e-01 0.0000e+00 1.0000e+00
       13  1    4    4    0    0 -2.1729041104e+00 -7.6921544130e+00 +4.1996445038e+00 9.0298909064e+00 1.0566000000e-01 0.0000e+00 -1.0000e+00
      -13  1    4    4    0    0 +1.3959379585e+01 -2.9063629443e+00 -6.9812029616e+00 1.5876384437e+01 1.0566000000e-01 0.0000e+00 1.0000e+00
       14  1    4    4    0    0 -5.2112283533e+00 -1.2662223864e+01 -3.4639060210e+00 1.4124002940e+01 0.0000000000e+00 0.0000e+00 -1.0000e+00
<mgrwt>
<rscale>  0 0.80623596E+02</rscale>
<asrwt>0</asrwt>
<pdfrwt beam="1">  1        4 0.39652368E-02 0.80623596E+02</pdfrwt>
<pdfrwt beam="2">  1       -3 0.96999277E-02 0.80623596E+02</pdfrwt>
<totfact> 0.43838775E+04</totfact>
</mgrwt>
</event>
<event>
 8      1 +5.0320763e-08 7.85359600e+01 7.81860800e-03 1.33325800e-01
       -1 -1    0    0    0  501 -0.0000000000e+00 +0.0000000000e+00 +3.9477898978e+02 3.9477898981e+02 5.0400000000e-03 0.0000e+00 1.0000e+00
        2 -1    0    0  501    0 +0.0000000000e+00 -0.0000000000e+00 -3.9059175094e+00 3.9059183418e+00 2.5500000000e-03 0.0000e+00 -1.0000e+00
       24  2    1    2    0    0 +0.0000000000e+00 +0.0000000000e+00 +3.9087307227e+02 3.9868490816e+02 7.8535962231e+01 0.0000e+00 0.0000e+00
       66  2    3    3    0    0 +3.2520639294e+01 -8.1869680331e+00 +2.2178834199e+02 2.2630661601e+02 2.9999956331e+01 0.0000e+00 0.0000e+00
      -13  1    3    3    0    0 -3.2520639294e+01 +8.1869680331e+00 +1.6908473028e+02 1.7237829215e+02 1.0566000000e-01 0.0000e+00 1.0000e+00
       13  1    4    4    0    0 +8.6110103413e+00 -8.6224429325e+00 +6.6577568855e+01 6.7683674988e+01 1.0566000000e-01 0.0000e+00 -1.0000e+00
      -13  1    4    4    0    0 +9.5634365709e+00 +1.7551997586e+00 +1.2243620936e+02 1.2282172679e+02 1.0566000000e-01 0.0000e+00 1.0000e+00
       14  1    4    4    0    0 +1.4346192382e+01 -1.3197248592e+00 +3.2774563778e+01 3.5801214230e+01 0.0000000000e+00 0.0000e+00 -1.0000e+00
<mgrwt>
<rscale>  0 0.78535962E+02</rscale>
<asrwt>0</asrwt>
<pdfrwt beam="1">  1        2 0.60091052E-03 0.78535962E+02</pdfrwt>
<pdfrwt beam="2">  1       -1 0.60735223E-01 0.78535962E+02</pdfrwt>
<totfact> 0.80020894E+04</totfact>
</mgrwt>
</event>
<event>
 8      1 +5.0320763e-08 8.52793900e+01 7.81860800e-03 1.31470400e-01
        1 -1    0    0  501    0 +0.0000000000e+00 +0.0000000000e+00 +7.7223197247e+01 7.7223197411e+01 5.0400000000e-03 0.0000e+00 -1.0000e+00
       -2 -1    0    0    0  501 -0.0000000000e+00 -0.0000000000e+00 -2.3544010020e+01 2.3544010158e+01 2.5500000000e-03 0.0000e+00 1.0000e+00
      -24  2    1    2    0    0 +0.0000000000e+00 -3.5527136788e-15 +5.3679187227e+01 1.0076720757e+02 8.5279393642e+01 0.0000e+00 0.0000e+00
       66  2    3    3    0    0 -1.9868834009e+01 -1.9953512814e+01 +1.1454816963e+00 4.1162554904e+01 3.0002175911e+01 0.0000e+00 0.0000e+00
       13  1    3    3    0    0 +1.9868834009e+01 +1.9953512814e+01 +5.2533705531e+01 5.9604652665e+01 1.0566000000e-01 0.0000e+00 -1.0000e+00
       13  1    4    4    0    0 -1.0533991388e+00 -9.5158356107e+00 -7.5796508049e+00 1.2211594797e+01 1.0566000000e-01 0.0000e+00 -1.0000e+00
      -13  1    4    4    0    0 -8.1456986189e+00 -1.0533387125e+01 -2.4060579725e+00 1.3531627002e+01 1.0566000000e-01 0.0000e+00 1.0000e+00
       14  1    4    4    0    0 -1.0669736251e+01 +9.5709921386e-02 +1.1131190474e+01 1.5419333105e+01 0.0000000000e+00 0.0000e+00 -1.0000e+00
<mgrwt>
<rscale>  0 0.85279394E+02</rscale>
<asrwt>0</asrwt>
<pdfrwt beam="1">  1        1 0.11880492E-01 0.85279394E+02</pdfrwt>
<pdfrwt beam="2">  1       -2 0.36221555E-02 0.85279394E+02</pdfrwt>
<totfact> 0.11825878E+05</totfact>
</mgrwt>
</event>
<event>
 8      1 +5.0320763e-08 7.48189800e+01 7.81860800e-03 1.34443200e-01
       -2 -1    0    0    0  501 -0.0000000000e+00 +0.0000000000e+00 +1.8319251751e+01 1.8319251929e+01 2.5500000000e-03 0.0000e+00 1.0000e+00
        1 -1    0    0  501    0 +0.0000000000e+00 -0.0000000000e+00 -7.6393404487e+01 7.6393404653e+01 5.0400000000e-03 0.0000e+00 -1.0000e+00
      -24  2    1    2    0    0 +0.0000000000e+00 +8.8817841970e-16 -5.8074152735e+01 9.4712656582e+01 7.4818982223e+01 0.0000e+00 0.0000e+00
       66  2    3    3    0    0 -3.0876242847e+01 -5.2753069181e+00 -3.6358286848e+01 5.6597551562e+01 3.0003109588e+01 0.0000e+00 0.0000e+00
       13  1    3    3    0    0 +3.0876242847e+01 +5.2753069181e+00 -2.1715865888e+01 3.8115105020e+01 1.0566000000e-01 0.0000e+00 -1.0000e+00
       13  1    4    4    0    0 -9.5100007546e+00 +6.0076827838e+00 -2.4171188102e+01 2.6660642624e+01 1.0566000000e-01 0.0000e+00 -1.0000e+00
      -13  1    4    4    0    0 -8.9239044221e+00 -6.3369260204e+00 -1.2407933450e+01 1.6545714795e+01 1.0566000000e-01 0.0000e+00 1.0000e+00
      -14  1    4    4    0    0 -1.2442337670e+01 -4.9460636815e+00 +2.2083470511e-01 1.3391194144e+01 0.0000000000e+00 0.0000e+00 1.0000e+00
<mgrwt>
<rscale>  0 0.74818982E+02</rscale>
<asrwt>0</asrwt>
<pdfrwt beam="1">  1        1 0.11752831E-01 0.74818982E+02</pdfrwt>
<pdfrwt beam="2">  1       -2 0.28183465E-02 0.74818982E+02</pdfrwt>
<totfact> 0.16868431E+05</totfact>
</mgrwt>
</event>
<event>
 8      1 +5.0320763e-08 7.95683200e+01 7.81860800e-03 1.33028100e-01
       -1 -1    0    0    0  501 -0.0000000000e+00 +0.0000000000e+00 +5.8476413388e+01 5.8476413605e+01 5.0400000000e-03 0.0000e+00 1.0000e+00
        2 -1    0    0  501    0 +0.0000000000e+00 -0.0000000000e+00 -2.7066969603e+01 2.7066969723e+01 2.5500000000e-03 0.0000e+00 -1.0000e+00
       24  2    1    2    0    0 -7.1054273576e-15 -3.5527136788e-15 +3.1409443785e+01 8.5543383328e+01 7.9568318270e+01 0.0000e+00 0.0000e+00
       66  2    3    3    0    0 -2.3964754032e+01 -1.2793400203e+01 -4.2693394390e+00 4.0699573711e+01 3.0004124991e+01 0.0000e+00 0.0000e+00
      -13  1    3    3    0    0 +2.3964754032e+01 +1.2793400203e+01 +3.5678783224e+01 4.4843809617e+01 1.0566000000e-01 0.0000e+00 1.0000e+00
       13  1    4    4    0    0 -1.9770712271e+01 +1.7314742380e+00 -1.6519310989e+00 1.9915298319e+01 1.0566000000e-01 0.0000e+00 -1.0000e+00
      -13  1    4    4    0    0 +4.0979121405e+00 -3.2644968635e-01 -1.1852019045e+00 4.2796402768e+00 1.0566000000e-01 0.0000e+00 1.0000e+00
      -14  1    4    4    0    0 -8.2919539014e+00 -1.4198424754e+01 -1.4322064356e+00 1.6504635115e+01 0.0000000000e+00 0.0000e+00 1.0000e+00
<mgrwt>
<rscale>  0 0.79568318E+02</rscale>
<asrwt>0</asrwt>
<pdfrwt beam="1">  1        2 0.41641492E-02 0.79568318E+02</pdfrwt>
<pdfrwt beam="2">  1       -1 0.89963714E-02 0.79568318E+02</pdfrwt>
<totfact> 0.13387786E+05</totfact>
</mgrwt>
</event>
<event>
 8      1 +5.0320763e-08 8.07184400e+01 7.81860800e-03 1.32702500e-01
       -1 -1    0    0    0  501 -0.0000000000e+00 +0.0000000000e+00 +3.3936032376e+00 3.3936069801e+00 5.0400000000e-03 0.0000e+00 1.0000e+00
        2 -1    0    0  501    0 +0.0000000000e+00 -0.0000000000e+00 -4.7998124089e+02 4.7998124089e+02 2.5500000000e-03 0.0000e+00 -1.0000e+00
       24  2    1    2    0    0 +0.0000000000e+00 +0.0000000000e+00 -4.7658763765e+02 4.8337484787e+02 8.0718443970e+01 0.0000e+00 0.0000e+00
       66  2    3    3    0    0 -8.2410993898e+00 +9.3521075647e+00 -4.6567745288e+02 4.6680919271e+02 2.9999244156e+01 0.0000e+00 0.0000e+00
      -13  1    3    3    0    0 +8.2410993898e+00 -9.3521075647e+00 -1.0910184773e+01 1.6565655160e+01 1.0566000000e-01 0.0000e+00 1.0000e+00
       13  1    4    4    0    0 -8.4873518037e+00 -8.1633932596e-01 -2.0665462578e+02 2.0683047907e+02 1.0566000000e-01 0.0000e+00 -1.0000e+00
      -13  1    4    4    0    0 -7.7047453789e+00 +2.7735290971e+00 -4.9347627923e+01 5.0022546023e+01 1.0566000000e-01 0.0000e+00 1.0000e+00
      -14  1    4    4    0    0 +7.9509977928e+00 +7.3949177935e+00 -2.0967519917e+02 2.0995616762e+02 0.0000000000e+00 0.0000e+00 1.0000e+00
<mgrwt>
<rscale>  0 0.80718444E+02</rscale>
<asrwt>0</asrwt>
<pdfrwt beam="1">  1        2 0.73843214E-01 0.80718444E+02</pdfrwt>
<pdfrwt beam="2">  1       -1 0.52209348E-03 0.80718444E+02</pdfrwt>
<totfact> 0.29360254E+05</totfact>
</mgrwt>
</event>
<event>
 8      1 +5.0320763e-08 9.71626800e+01 7.81860800e-03 1.28637800e-01
        4 -1    0    0  501    0 +0.0000000000e+00 +0.0000000000e+00 +1.1986308941e+02 1.1986981731e+02 1.2700000000e+00 0.0000e+00 -1.0000e+00
       -3 -1    0    0    0  501 -0.0000000000e+00 -0.0000000000e+00 -1.9686286486e+01 1.9686545574e+01 1.0100000000e-01 0.0000e+00 1.0000e+00
       24  2    1    2    0    0 +3.5527136788e-15 -1.7763568394e-15 +1.0017680292e+02 1.3955636289e+02 9.7162680996e+01 0.0000e+00 0.0000e+00
       66  2    3    3    0    0 +2.9939569933e+01 -1.0408733327e+01 +9.8591875305e+01 1.0781927517e+02 2.9998644042e+01 0.0000e+00 0.0000e+00
      -13  1    3    3    0    0 -2.9939569933e+01 +1.0408733327e+01 +1.5849276177e+00 3.1737087719e+01 1.0566000000e-01 0.0000e+00 1.0000e+00
       13  1    4    4    0    0 +1.4971174302e+01 -2.4105611789e+00 +2.5735984956e+01 2.9871373435e+01 1.0566000000e-01 0.0000e+00 -1.0000e+00
      -13  1    4    4    0    0 +2.2595431218e+00 -5.5095351408e+00 +2.5831669693e+00 6.4918740140e+00 1.0566000000e-01 0.0000e+00 1.0000e+00
      -14  1    4    4    0    0 +1.2708852509e+01 -2.4886370072e+00 +7.0272723379e+01 7.1456027719e+01 0.0000000000e+00 0.0000e+00 1.0000e+00
<mgrwt>
<rscale>  0 0.97162681E+02</rscale>
<asrwt>0</asrwt>
<pdfrwt beam="1">  1        4 0.18444144E-01 0.97162681E+02</pdfrwt>
<pdfrwt beam="2">  1       -3 0.30286827E-02 0.97162681E+02</pdfrwt>
<totfact> 0.22776851E+04</totfact>
</mgrwt>
</event>
<event>
 8      1 +5.0320763e-08 7.66891200e+01 7.81860800e-03 1.33871900e-01
        1 -1    0    0  501    0 +0.0000000000e+00 +0.0000000000e+00 +1.2970255132e+02 1.2970255142e+02 5.0400000000e-03 0.0000e+00 -1.0000e+00
       -2 -1    0    0    0  501 -0.0000000000e+00 -0.0000000000e+00 -1.1335978038e+01 1.1335978325e+01 2.5500000000e-03 0.0000e+00 1.0000e+00
      -24  2    1    2    0    0 +0.0000000000e+00 +0.0000000000e+00 +1.1836657328e+02 1.4103852974e+02 7.6689120489e+01 0.0000e+00 0.0000e+00
       66  2    3    3    0    0 -2.8894552979e+01 +1.4823734695e+01 +6.9261676675e+01 8.2166292338e+01 2.9991356064e+01 0.0000e+00 0.0000e+00
       13  1    3    3    0    0 +2.8894552979e+01 -1.4823734695e+01 +4.9104896605e+01 5.8872237403e+01 1.0566000000e-01 0.0000e+00 -1.0000e+00
       13  1    4    4    0    0 -2.0621503878e+01 +1.5222365185e+00 +3.7049326470e+01 4.2429086510e+01 1.0566000000e-01 0.0000e+00 -1.0000e+00
      -13  1    4    4    0    0 +1.4386373698e-01 +1.4496696379e+01 +2.3119986178e+01 2.7289555284e+01 1.0566000000e-01 0.0000e+00 1.0000e+00
      -14  1    4    4    0    0 -8.4169128379e+00 -1.1951982019e+00 +9.0923640273e+00 1.2447650544e+01 0.0000000000e+00 0.0000e+00 1.0000e+00
<mgrwt>
<rscale>  0 0.76689120E+02</rscale>
<asrwt>0</asrwt>
<pdfrwt beam="1">  1        1 0.19954241E-01 0.76689120E+02</pdfrwt>
<pdfrwt beam="2">  1       -2 0.17439965E-02 0.76689120E+02</pdfrwt>
<totfact> 0.17217422E+05</totfact>
</mgrwt>
</event>
<event>
 8      1 +5.0320763e-08 8.07912400e+01 7.81860800e-03 1.32682100e-01
       -2 -1    0    0    0  501 -0.0000000000e+00 +0.0000000000e+00 +2.7602843986e+02 2.7602843988e+02 2.5500000000e-03 0.0000e+00 1.0000e+00
        1 -1    0    0  501    0 +0.0000000000e+00 -0.0000000000e+00 -5.9117311787e+00 5.9117333271e+00 5.0400000000e-03 0.0000e+00 -1.0000e+00
      -24  2    1    2    0    0 +0.0000000000e+00 +3.5527136788e-15 +2.7011670869e+02 2.8194017320e+02 8.0791243057e+01 0.0000e+00 0.0000e+00
       66  2    3    3    0    0 +2.3785944888e+01 -1.8408603368e+01 +2.1494309250e+02 2.1910079909e+02 2.9999654918e+01 0.0000e+00 0.0000e+00
       13  1    3    3    0    0 -2.3785944888e+01 +1.8408603368e+01 +5.5173616183e+01 6.2839374113e+01 1.0566000000e-01 0.0000e+00 -1.0000e+00
       13  1    4    4    0    0 +9.1913568475e+00 +2.1339015099e-01 +1.2955895878e+02 1.2988480104e+02 1.0566000000e-01 0.0000e+00 -1.0000e+00
      -13  1    4    4    0    0 +1.0939291935e+01 -1.1789323081e+01 +7.1779787445e+01 7.3559535727e+01 1.0566000000e-01 0.0000e+00 1.0000e+00
       14  1    4    4    0    0 +3.6552961054e+00 -6.8326704382e+00 +1.3604346277e+01 1.5656462326e+01 0.0000000000e+00 0.0000e+00 -1.0000e+00
<mgrwt>
<rscale>  0 0.80791243E+02</rscale>
<asrwt>0</asrwt>
<pdfrwt beam="1">  1        1 0.90949730E-03 0.80791243E+02</pdfrwt>
<pdfrwt beam="2">  1       -2 0.42465913E-01 0.80791243E+02</pdfrwt>
<totfact> 0.71584973E+04</totfact>
</mgrwt>
</event>
<event>
 8      1 +5.0320763e-08 8.19323900e+01 7.81860800e-03 1.32365500e-01
       -2 -1    0    0    0  501 -0.0000000000e+00 +0.0000000000e+00 +3.7873518849e+00 3.7873527433e+00 2.5500000000e-03 0.0000e+00 1.0000e+00
        1 -1    0    0  501    0 +0.0000000000e+00 -0.0000000000e+00 -4.4311412136e+02 4.4311412139e+02 5.0400000000e-03 0.0000e+00 -1.0000e+00
      -24  2    1    2    0    0 +0.0000000000e+00 -1.7763568394e-15 -4.3932676948e+02 4.4690147414e+02 8.1932394106e+01 0.0000e+00 0.0000e+00
       66  2    3    3    0    0 +3.3063365660e+01 -1.1910775849e+01 -2.7544801098e+02 2.7929684597e+02 3.0001144780e+01 0.0000e+00 0.0000e+00
       13  1    3    3    0    0 -3.3063365660e+01 +1.1910775849e+01 -1.6387875850e+02 1.6760462817e+02 1.0566000000e-01 0.0000e+00 -1.0000e+00
       13  1    4    4    0    0 -1.0026479563e+00 -4.8490123889e+00 -6.5360936743e+01 6.5548313785e+01 1.0566000000e-01 0.0000e+00 -1.0000e+00
      -13  1    4    4    0    0 +2.2204626938e+01 +6.4839025826e-01 -8.4652612966e+01 8.7518808912e+01 1.0566000000e-01 0.0000e+00 1.0000e+00
      -14  1    4    4    0    0 +1.1861386678e+01 -7.7101537179e+00 -1.2543446127e+02 1.2622972327e+02 0.0000000000e+00 0.0000e+00 1.0000e+00
<mgrwt>
<rscale>  0 0.81932394E+02</rscale>
<asrwt>0</asrwt>
<pdfrwt beam="1">  1        1 0.68171363E-01 0.81932394E+02</pdfrwt>
<pdfrwt beam="2">  1       -2 0.58266994E-03 0.81932394E+02</pdfrwt>
<totfact> 0.18124635E+05</totfact>
</mgrwt>
</event>
<event>
 8      1 +5.0320763e-08 7.02941000e+01 7.81860800e-03 1.35909600e-01
        1 -1    0    0  501    0 +0.0000000000e+00 +0.0000000000e+00 +3.9673452215e+02 3.9673452219e+02 5.0400000000e-03 0.0000e+00 -1.0000e+00
       -2 -1    0    0    0  501 -0.0000000000e+00 -0.0000000000e+00 -3.1137062527e+00 3.1137072968e+00 2.5500000000e-03 0.0000e+00 1.0000e+00
      -24  2    1    2    0    0 +3.5527136788e-15 +1.7763568394e-15 +3.9362081590e+02 3.9984822948e+02 7.0294095838e+01 0.0000e+00 0.0000e+00
       66  2    3    3    0    0 +2.7190913921e+01 +8.8706336850e+00 +2.4898326635e+02 2.5240988356e+02 3.0000807634e+01 0.0000e+00 0.0000e+00
       13  1    3    3    0    0 -2.7190913921e+01 -8.8706336850e+00 +1.4463754956e+02 1.4743834592e+02 1.0566000000e-01 0.0000e+00 -1.0000e+00
       13  1    4    4    0    0 +1.0297655382e+01 +6.5940593694e+00 +1.0815255266e+02 1.0884167004e+02 1.0566000000e-01 0.0000e+00 -1.0000e+00
      -13  1    4    4    0    0 +2.0874623176e+01 +6.4269104762e+00 +1.1927994606e+02 1.2126323337e+02 1.0566000000e-01 0.0000e+00 1.0000e+00
      -14  1    4    4    0    0 -3.9813646371e+00 -4.1503361605e+00 +2.1550767624e+01 2.2304980157e+01 0.0000000000e+00 0.0000e+00 1.0000e+00
<mgrwt>
<rscale>  0 0.70294096E+02</rscale>
<asrwt>0</asrwt>
<pdfrwt beam="1">  1        1 0.61036127E-01 0.70294096E+02</pdfrwt>
<pdfrwt beam="2">  1       -2 0.47903145E-03 0.70294096E+02</pdfrwt>
<totfact> 0.26576611E+05</totfact>
</mgrwt>
</event>
<event>
 8      1 +5.0320763e-08 8.21478200e+01 7.81860800e-03 1.32306400e-01
        2 -1    0    0  501    0 +0.0000000000e+00 +0.0000000000e+00 +6.5958491302e+02 6.5958491302e+02 2.5500000000e-03 0.0000e+00 -1.0000e+00
       -3 -1    0    0    0  501 -0.0000000000e+00 -0.0000000000e+00 -2.5567681916e+00 2.5587623152e+00 1.0100000000e-01 0.0000e+00 1.0000e+00
       24  2    1    2    0    0 +1.1102230246e-16 -3.5527136788e-15 +6.5702814483e+02 6.6214367534e+02 8.2147816139e+01 0.0000e+00 0.0000e+00
       66  2    3    3    0    0 +6.6867403415e-01 -3.0853594500e+01 +5.1531534684e+02 5.1710947353e+02 2.9998491656e+01 0.0000e+00 0.0000e+00
      -13  1    3    3    0    0 -6.6867403415e-01 +3.0853594500e+01 +1.4171279799e+02 1.4503420181e+02 1.0566000000e-01 0.0000e+00 1.0000e+00
       13  1    4    4    0    0 +4.2478654308e+00 -2.0549442482e+01 +2.6013591148e+02 2.6098089499e+02 1.0566000000e-01 0.0000e+00 -1.0000e+00
      -13  1    4    4    0    0 +3.2883763238e+00 -1.3890365183e+01 +1.6221179961e+02 1.6283867710e+02 1.0566000000e-01 0.0000e+00 1.0000e+00
      -14  1    4    4    0    0 -6.8675677204e+00 +3.5862131651e+00 +9.2967635754e+01 9.3289901430e+01 0.0000000000e+00 0.0000e+00 1.0000e+00
<mgrwt>
<rscale>  0 0.82147816E+02</rscale>
<asrwt>0</asrwt>
<pdfrwt beam="1">  1        2 0.10147464E+00 0.82147816E+02</pdfrwt>
<pdfrwt beam="2">  1       -3 0.39350278E-03 0.82147816E+02</pdfrwt>
<totfact> 0.25982303E+05</totfact>
</mgrwt>
</event>
<event>
 8      1 +5.0320763e-08 8.22252600e+01 7.81860800e-03 1.32285300e-01
       -4 -1    0    0    0  501 -0.0000000000e+00 +0.0000000000e+00 +7.2084515123e+00 7.3194721944e+00 1.2700000000e+00 0.0000e+00 1.0000e+00
        3 -1    0    0  501    0 +0.0000000000e+00 -0.0000000000e+00 -2.3263371493e+02 2.3263373685e+02 1.0100000000e-01 0.0000e+00 -1.0000e+00
      -24  2    1    2    0    0 +0.0000000000e+00 +3.5527136788e-15 -2.2542526342e+02 2.3995320905e+02 8.2225258566e+01 0.0000e+00 0.0000e+00
       66  2    3    3    0    0 -8.9847646598e+00 -3.0293429678e+01 -7.9607767152e+01 9.0751428702e+01 3.0000122381e+01 0.0000e+00 0.0000e+00
       13  1    3    3    0    0 +8.9847646598e+00 +3.0293429678e+01 -1.4581749626e+02 1.4920178035e+02 1.0566000000e-01 0.0000e+00 -1.0000e+00
       13  1    4    4    0    0 -3.4549624466e+00 -7.5557556014e+00 -2.3782000829e+01 2.5191683859e+01 1.0566000000e-01 0.0000e+00 1.0000e+00
      -13  1    4    4    0    0 -1.3928611361e+01 -1.8088726335e+01 -4.8079282374e+01 5.3224400349e+01 1.0566000000e-01 0.0000e+00 -1.0000e+00
       14  1    4    4    0    0 +8.3988091480e+00 -4.6489477411e+00 -7.7464839498e+00 1.2335344494e+01 0.0000000000e+00 0.0000e+00 -1.0000e+00
<mgrwt>
<rscale>  0 0.82225259E+02</rscale>
<asrwt>0</asrwt>
<pdfrwt beam="1">  1        3 0.35789852E-01 0.82225259E+02</pdfrwt>
<pdfrwt beam="2">  1       -4 0.11177994E-02 0.82225259E+02</pdfrwt>
<totfact> 0.31732410E+04</totfact>
</mgrwt>
</event>
<event>
 8      1 +5.0320763e-08 7.81915200e+01 7.81860800e-03 1.33426300e-01
        1 -1    0    0  501    0 +0.0000000000e+00 +0.0000000000e+00 +2.5697334215e+01 2.5697334710e+01 5.0400000000e-03 0.0000e+00 -1.0000e+00
       -2 -1    0    0    0  501 -0.0000000000e+00 -0.0000000000e+00 -5.9480033356e+01 5.9480033411e+01 2.5500000000e-03 0.0000e+00 1.0000e+00
      -24  2    1    2    0    0 +3.5527136788e-15 +0.0000000000e+00 -3.3782699141e+01 8.5177368121e+01 7.8191516667e+01 0.0000e+00 0.0000e+00
       66  2    3    3    0    0 -2.5725225302e+01 -2.3414865701e+00 -4.2339773769e+01 5.7965156405e+01 3.0000552295e+01 0.0000e+00 0.0000e+00
       13  1    3    3    0    0 +2.5725225302e+01 +2.3414865701e+00 +8.5570746285e+00 2.7212211715e+01 1.0566000000e-01 0.0000e+00 -1.0000e+00
       13  1    4    4    0    0 +6.5072962276e+00 -7.1297125080e-01 -4.8924865788e+00 8.1731769317e+00 1.0566000000e-01 0.0000e+00 -1.0000e+00
      -13  1    4    4    0    0 -9.6342936445e+00 -2.5087806465e+00 -1.4357966105e+01 1.7472147809e+01 1.0566000000e-01 0.0000e+00 1.0000e+00
      -14  1    4    4    0    0 -2.2598227885e+01 +8.8026532721e-01 -2.3089321086e+01 3.2319831664e+01 0.0000000000e+00 0.0000e+00 1.0000e+00
<mgrwt>
<rscale>  0 0.78191517E+02</rscale>
<asrwt>0</asrwt>
<pdfrwt beam="1">  1        1 0.39534361E-02 0.78191517E+02</pdfrwt>
<pdfrwt beam="2">  1       -2 0.91507743E-02 0.78191517E+02</pdfrwt>
<totfact> 0.12563811E+05</totfact>
</mgrwt>
</event>
<event>
 8      1 +5.0320763e-08 7.99575900e+01 7.81860800e-03 1.32917200e-01
        3 -1    0    0  501    0 +0.0000000000e+00 +0.0000000000e+00 +9.2942460124e+01 9.2942515002e+01 1.0100000000e-01 0.0000e+00 -1.0000e+00
       -2 -1    0    0    0  501 -0.0000000000e+00 -0.0000000000e+00 -1.7196674282e+01 1.7196674471e+01 2.5500000000e-03 0.0000e+00 1.0000e+00
      -24  2    1    2    0    0 +0.0000000000e+00 +1.7763568394e-15 +7.5745785842e+01 1.1013918947e+02 7.9957594917e+01 0.0000e+00 0.0000e+00
       66  2    3    3    0    0 +4.3198922788e+00 -1.3502980849e+01 +1.0409047705e-01 3.3180309525e+01 2.9998835715e+01 0.0000e+00 0.0000e+00
       13  1    3    3    0    0 -4.3198922788e+00 +1.3502980849e+01 +7.5641695365e+01 7.6958879948e+01 1.0566000000e-01 0.0000e+00 -1.0000e+00
       13  1    4    4    0    0 -4.3806264563e+00 -4.1295909811e+00 +9.2621830284e+00 1.1047289636e+01 1.0566000000e-01 0.0000e+00 -1.0000e+00
      -13  1    4    4    0    0 +2.2870622498e+00 -1.1175397367e+01 -1.0305433111e+01 1.5373134869e+01 1.0566000000e-01 0.0000e+00 1.0000e+00
      -14  1    4    4    0    0 +6.4134564852e+00 +1.8020074995e+00 +1.1473405600e+00 6.7598850195e+00 0.0000000000e+00 0.0000e+00 1.0000e+00
<mgrwt>
<rscale>  0 0.79957595E+02</rscale>
<asrwt>0</asrwt>
<pdfrwt beam="1">  1        3 0.14298867E-01 0.79957595E+02</pdfrwt>
<pdfrwt beam="2">  1       -2 0.26456422E-02 0.79957595E+02</pdfrwt>
<totfact> 0.64903099E+04</totfact>
</mgrwt>
</event>
<event>
 8      1 +5.0320763e-08 7.68999700e+01 7.81860800e-03 1.33808600e-01
       -1 -1    0    0    0  501 -0.0000000000e+00 +0.0000000000e+00 +1.1344883288e+02 1.1344883299e+02 5.0400000000e-03 0.0000e+00 1.0000e+00
        2 -1    0    0  501    0 +0.0000000000e+00 -0.0000000000e+00 -1.3031436021e+01 1.3031436270e+01 2.5500000000e-03 0.0000e+00 -1.0000e+00
       24  2    1    2    0    0 -3.5527136788e-15 -8.8817841970e-16 +1.0041739685e+02 1.2648026926e+02 7.6899966973e+01 0.0000e+00 0.0000e+00
       66  2    3    3    0    0 +1.7622359229e+01 +2.2680498380e+00 +1.2898985748e+01 3.7176433721e+01 3.0000196599e+01 0.0000e+00 0.0000e+00
      -13  1    3    3    0    0 -1.7622359229e+01 -2.2680498380e+00 +8.7518411106e+01 8.9303835536e+01 1.0566000000e-01 0.0000e+00 1.0000e+00
       13  1    4    4    0    0 +4.0622044549e+00 -1.0369002297e+01 +2.3409395514e+00 1.1380196645e+01 1.0566000000e-01 0.0000e+00 -1.0000e+00
      -13  1    4    4    0    0 +8.0667638325e+00 -1.5161358916e+00 +2.3544386978e+00 8.5396658241e+00 1.0566000000e-01 0.0000e+00 1.0000e+00
      -14  1    4    4    0    0 +5.4933909422e+00 +1.4153188027e+01 +8.2036074986e+00 1.7256571251e+01 0.0000000000e+00 0.0000e+00 1.0000e+00
<mgrwt>
<rscale>  0 0.76899967E+02</rscale>
<asrwt>0</asrwt>
<pdfrwt beam="1">  1        2 0.20048364E-02 0.76899967E+02</pdfrwt>
<pdfrwt beam="2">  1       -1 0.17453666E-01 0.76899967E+02</pdfrwt>
<totfact> 0.12729795E+05</totfact>
</mgrwt>
</event>
<event>
 8      1 +5.0320763e-08 7.87128800e+01 7.81860800e-03 1.33274400e-01
        2 -1    0    0  501    0 +0.0000000000e+00 +0.0000000000e+00 +1.4082179025e+02 1.4082179028e+02 2.5500000000e-03 0.0000e+00 -1.0000e+00
       -1 -1    0    0    0  501 -0.0000000000e+00 -0.0000000000e+00 -1.0999215124e+01 1.0999216279e+01 5.0400000000e-03 0.0000e+00 1.0000e+00
       24  2    1    2    0    0 +0.0000000000e+00 +1.7763568394e-15 +1.2982257513e+02 1.5182100655e+02 7.8712877080e+01 0.0000e+00 0.0000e+00
       66  2    3    3    0    0 +1.9969528560e+01 +1.4136571537e+01 +1.1886914028e+02 1.2501403685e+02 3.0000202873e+01 0.0000e+00 0.0000e+00
      -13  1    3    3    0    0 -1.9969528560e+01 -1.4136571537e+01 +1.0953434845e+01 2.6806969703e+01 1.0566000000e-01 0.0000e+00 1.0000e+00
       13  1    4    4    0    0 +1.6840891569e+01 +2.9452714243e+00 +3.3209326468e+01 3.7351851107e+01 1.0566000000e-01 0.0000e+00 -1.0000e+00
      -13  1    4    4    0    0 +5.3876450837e-01 -3.0343699669e+00 +2.9880604327e+01 3.0039296718e+01 1.0566000000e-01 0.0000e+00 1.0000e+00
       14  1    4    4    0    0 +2.5898724825e+00 +1.4225670080e+01 +5.5779209487e+01 5.7622889026e+01 0.0000000000e+00 0.0000e+00 -1.0000e+00
<mgrwt>
<rscale>  0 0.78712877E+02</rscale>
<asrwt>0</asrwt>
<pdfrwt beam="1">  1        2 0.21664890E-01 0.78712877E+02</pdfrwt>
<pdfrwt beam="2">  1       -1 0.16921871E-02 0.78712877E+02</pdfrwt>
<totfact> 0.20494085E+05</totfact>
</mgrwt>
</event>
<event>
 8      1 +5.0320763e-08 8.02124400e+01 7.81860800e-03 1.32845000e-01
       -1 -1    0    0    0  501 -0.0000000000e+00 +0.0000000000e+00 +4.2964246707e+00 4.2964276268e+00 5.0400000000e-03 0.0000e+00 1.0000e+00
        2 -1    0    0  501    0 +0.0000000000e+00 -0.0000000000e+00 -3.7438298081e+02 3.7438298082e+02 2.5500000000e-03 0.0000e+00 -1.0000e+00
       24  2    1    2    0    0 +0.0000000000e+00 +1.7763568394e-15 -3.7008655614e+02 3.7867940845e+02 8.0212438846e+01 0.0000e+00 0.0000e+00
       66  2    3    3    0    0 +1.3426264050e+01 +1.1012993792e+01 -3.5164103293e+02 3.5334565450e+02 3.0003081739e+01 0.0000e+00 0.0000e+00
      -13  1    3    3    0    0 -1.3426264050e+01 -1.1012993792e+01 -1.8445523211e+01 2.5333753949e+01 1.0566000000e-01 0.0000e+00 1.0000e+00
       13  1    4    4    0    0 +1.4588420467e+00 -3.4048079462e+00 -1.2372720342e+02 1.2378268444e+02 1.0566000000e-01 0.0000e+00 -1.0000e+00
      -13  1    4    4    0    0 +6.0965906556e+00 +5.3412763154e+00 -2.3411225846e+01 2.4774872552e+01 1.0566000000e-01 0.0000e+00 1.0000e+00
       14  1    4    4    0    0 +5.8708313473e+00 +9.0765254231e+00 -2.0450260367e+02 2.0478809751e+02 0.0000000000e+00 0.0000e+00 -1.0000e+00
<mgrwt>
<rscale>  0 0.80212439E+02</rscale>
<asrwt>0</asrwt>
<pdfrwt beam="1">  1        2 0.57597356E-01 0.80212439E+02</pdfrwt>
<pdfrwt beam="2">  1       -1 0.66098893E-03 0.80212439E+02</pdfrwt>
<totfact> 0.27411470E+05</totfact>
</mgrwt>
</event>
<event>
 8      1 +5.0320763e-08 7.71325500e+01 7.81860800e-03 1.33739200e-01
       -1 -1    0    0    0  501 -0.0000000000e+00 +0.0000000000e+00 +1.7394470626e+00 1.7394543642e+00 5.0400000000e-03 0.0000e+00 1.0000e+00
        2 -1    0    0  501    0 +0.0000000000e+00 -0.0000000000e+00 -8.5507304438e+02 8.5507304438e+02 2.5500000000e-03 0.0000e+00 -1.0000e+00
       24  2    1    2    0    0 +0.0000000000e+00 +0.0000000000e+00 -8.5333359732e+02 8.5681249875e+02 7.7132546309e+01 0.0000e+00 0.0000e+00
       66  2    3    3    0    0 -2.0759691512e+01 -2.2951307893e+00 -7.7116281900e+02 7.7202877159e+02 3.0001638983e+01 0.0000e+00 0.0000e+00
      -13  1    3    3    0    0 +2.0759691512e+01 +2.2951307893e+00 -8.2170778314e+01 8.4783727152e+01 1.0566000000e-01 0.0000e+00 1.0000e+00
       13  1    4    4    0    0 -2.6556908565e+00 +4.3545657913e+00 -4.4164825607e+02 4.4167771983e+02 1.0566000000e-01 0.0000e+00 -1.0000e+00
      -13  1    4    4    0    0 -1.0872554733e+01 -1.4328005559e+00 -8.9281114880e+01 8.9952176194e+01 1.0566000000e-01 0.0000e+00 1.0000e+00
       14  1    4    4    0    0 -7.2314459225e+00 -5.2168960247e+00 -2.4023344805e+02 2.4039887557e+02 0.0000000000e+00 0.0000e+00 -1.0000e+00
<mgrwt>
<rscale>  0 0.77132546E+02</rscale>
<asrwt>0</asrwt>
<pdfrwt beam="1">  1        2 0.13154936E+00 0.77132546E+02</pdfrwt>
<pdfrwt beam="2">  1       -1 0.26760849E-03 0.77132546E+02</pdfrwt>
<totfact> 0.38170280E+05</totfact>
</mgrwt>
</event>
<event>
 8      1 +5.0320763e-08 8.21045100e+01 7.81860800e-03 1.32318300e-01
        3 -1    0    0  501    0 +0.0000000000e+00 +0.0000000000e+00 +2.1236271025e+01 2.1236511203e+01 1.0100000000e-01 0.0000e+00 -1.0000e+00
       -4 -1    0    0    0  501 -0.0000000000e+00 -0.0000000000e+00 -7.9334289187e+01 7.9344453750e+01 1.2700000000e+00 0.0000e+00 1.0000e+00
      -24  2    1    2    0    0 +1.7763568394e-15 -2.2204460493e-16 -5.8098018162e+01 1.0058096495e+02 8.2104511426e+01 0.0000e+00 0.0000e+00
       66  2    3    3    0    0 +1.1716200263e+01 -1.0322437614e+00 -7.4052313364e+01 8.0759623545e+01 3.0000613408e+01 0.0000e+00 0.0000e+00
       13  1    3    3    0    0 -1.1716200263e+01 +1.0322437614e+00 +1.5954295202e+01 1.9821341408e+01 1.0566000000e-01 0.0000e+00 -1.0000e+00
       13  1    4    4    0    0 -6.8728426599e-01 -5.3284189819e+00 -1.0541086975e+01 1.1831740665e+01 1.0566000000e-01 0.0000e+00 -1.0000e+00
      -13  1    4    4    0    0 -6.9324046857e+00 +1.2309483470e+00 -2.0359117351e+01 2.1542476457e+01 1.0566000000e-01 0.0000e+00 1.0000e+00
       14  1    4    4    0    0 +1.9335889214e+01 +3.0652268734e+00 -4.3152109037e+01 4.7385406423e+01 0.0000000000e+00 0.0000e+00 -1.0000e+00
<mgrwt>
<rscale>  0 0.82104511E+02</rscale>
<asrwt>0</asrwt>
<pdfrwt beam="1">  1        3 0.32671423E-02 0.82104511E+02</pdfrwt>
<pdfrwt beam="2">  1       -4 0.12208977E-01 0.82104511E+02</pdfrwt>
<totfact> 0.39362273E+04</totfact>
</mgrwt>
</event>
<event>
 8      1 +5.0320763e-08 8.18100400e+01 7.81860800e-03 1.32399200e-01
       -2 -1    0    0    0  501 -0.0000000000e+00 +0.0000000000e+00 +1.3377608565e+01 1.3377608808e+01 2.5500000000e-03 0.0000e+00 1.0000e+00
        1 -1    0    0  501    0 +0.0000000000e+00 -0.0000000000e+00 -1.2507622690e+02 1.2507622700e+02 5.0400000000e-03 0.0000e+00 -1.0000e+00
      -24  2    1    2    0    0 -1.7763568394e-15 -7.1054273576e-15 -1.1169861833e+02 1.3845383581e+02 8.1810044081e+01 0.0000e+00 0.0000e+00
       66  2    3    3    0    0 +8.4703399129e+00 -3.4359374008e+01 -6.5188273798e+01 8.0011243863e+01 2.9999581051e+01 0.0000e+00 0.0000e+00
       13  1    3    3    0    0 -8.4703399129e+00 +3.4359374008e+01 -4.6510344534e+01 5.8442591944e+01 1.0566000000e-01 0.0000e+00 -1.0000e+00
       13  1    4    4    0    0 -5.1364010614e-01 -1.7508052228e+01 -1.8054744595e+01 2.5155132387e+01 1.0566000000e-01 0.0000e+00 -1.0000e+00
      -13  1    4    4    0    0 +2.4197813296e+00 +2.7663158322e+00 -3.3834155867e-01 3.6923548059e+00 1.0566000000e-01 0.0000e+00 1.0000e+00
      -14  1    4    4    0    0 +6.5641986894e+00 -1.9617637613e+01 -4.6795187645e+01 5.1163756671e+01 0.0000000000e+00 0.0000e+00 1.0000e+00
<mgrwt>
<rscale>  0 0.81810044E+02</rscale>
<asrwt>0</asrwt>
<pdfrwt beam="1">  1        1 0.19242496E-01 0.81810044E+02</pdfrwt>
<pdfrwt beam="2">  1       -2 0.20580937E-02 0.81810044E+02</pdfrwt>
<totfact> 0.14385786E+05</totfact>
</mgrwt>
</event>
<event>
 8      1 +5.0320763e-08 8.06473100e+01 7.81860800e-03 1.32722400e-01
        1 -1    0    0  501    0 +0.0000000000e+00 +0.0000000000e+00 +1.4237009307e+02 1.4237009316e+02 5.0400000000e-03 0.0000e+00 -1.0000e+00
       -2 -1    0    0    0  501 -0.0000000000e+00 -0.0000000000e+00 -1.1420918059e+01 1.1420918343e+01 2.5500000000e-03 0.0000e+00 1.0000e+00
      -24  2    1    2    0    0 +0.0000000000e+00 +0.0000000000e+00 +1.3094917502e+02 1.5379101151e+02 8.0647311072e+01 0.0000e+00 0.0000e+00
       66  2    3    3    0    0 +1.6718456366e+01 +1.3629601426e+01 +2.2595492857e+01 4.3311129087e+01 3.0000413114e+01 0.0000e+00 0.0000e+00
       13  1    3    3    0    0 -1.6718456366e+01 -1.3629601426e+01 +1.0835368216e+02 1.1047988242e+02 1.0566000000e-01 0.0000e+00 -1.0000e+00
       13  1    4    4    0    0 +1.1438009550e+00 +8.6609921627e+00 +1.0105533828e+01 1.3358669239e+01 1.0566000000e-01 0.0000e+00 -1.0000e+00
      -13  1    4    4    0    0 +1.7005313203e+01 +1.1009309230e+01 +6.3723545279e+00 2.1236846120e+01 1.0566000000e-01 0.0000e+00 1.0000e+00
      -14  1    4    4    0    0 -1.4306577919e+00 -6.0406999669e+00 +6.1176045015e+00 8.7156137274e+00 0.0000000000e+00 0.0000e+00 1.0000e+00
<mgrwt>
<rscale>  0 0.80647311E+02</rscale>
<asrwt>0</asrwt>
<pdfrwt beam="1">  1        1 0.21903092E-01 0.80647311E+02</pdfrwt>
<pdfrwt beam="2">  1       -2 0.17570643E-02 0.80647311E+02</pdfrwt>
<totfact> 0.15304168E+05</totfact>
</mgrwt>
</event>
<event>
 8      1 +5.0320763e-08 9.57129600e+01 7.81860800e-03 1.28957800e-01
        1 -1    0    0  501    0 +0.0000000000e+00 +0.0000000000e+00 +3.1294497513e+00 3.1294538098e+00 5.0400000000e-03 0.0000e+00 -1.0000e+00
       -2 -1    0    0    0  501 -0.0000000000e+00 -0.0000000000e+00 -7.3183512951e+02 7.3183512951e+02 2.5500000000e-03 0.0000e+00 1.0000e+00
      -24  2    1    2    0    0 +0.0000000000e+00 +0.0000000000e+00 -7.2870567976e+02 7.3496458332e+02 9.5712961653e+01 0.0000e+00 0.0000e+00
       66  2    3    3    0    0 +9.0513284616e+00 -1.1588028340e+01 -7.1169753416e+02 7.1248132003e+02 3.0000705156e+01 0.0000e+00 0.0000e+00
       13  1    3    3    0    0 -9.0513284616e+00 +1.1588028340e+01 -1.7008145595e+01 2.2483263294e+01 1.0566000000e-01 0.0000e+00 -1.0000e+00
       13  1    4    4    0    0 +1.6003929705e+01 -1.5896636910e+01 -3.7096901549e+02 3.7165420817e+02 1.0566000000e-01 0.0000e+00 -1.0000e+00
      -13  1    4    4    0    0 -5.1767347699e-01 +4.3276111274e-01 -3.0749969401e+01 3.0757552734e+01 1.0566000000e-01 0.0000e+00 1.0000e+00
       14  1    4    4    0    0 -6.4349277667e+00 +3.8758474572e+00 -3.0997854927e+02 3.1006955912e+02 0.0000000000e+00 0.0000e+00 -1.0000e+00
<mgrwt>
<rscale>  0 0.95712962E+02</rscale>
<asrwt>0</asrwt>
<pdfrwt beam="1">  1        1 0.48145470E-03 0.95712962E+02</pdfrwt>
<pdfrwt beam="2">  1       -2 0.11258988E+00 0.95712962E+02</pdfrwt>
<totfact> 0.22753526E+04</totfact>
</mgrwt>
</event>
<event>
 8      1 +5.0320763e-08 7.95355000e+01 7.81860800e-03 1.33037500e-01
       -4 -1    0    0    0  501 -0.0000000000e+00 +0.0000000000e+00 +1.1407621747e+01 1.1478098009e+01 1.2700000000e+00 0.0000e+00 1.0000e+00
        3 -1    0    0  501    0 +0.0000000000e+00 -0.0000000000e+00 -1.3817070376e+02 1.3817074067e+02 1.0100000000e-01 0.0000e+00 -1.0000e+00
      -24  2    1    2    0    0 +0.0000000000e+00 +0.0000000000e+00 -1.2676308201e+02 1.4964883868e+02 7.9535501242e+01 0.0000e+00 0.0000e+00
       66  2    3    3    0    0 +3.3277713231e+01 -6.8128190096e+00 -6.6555813855e+01 8.0520356827e+01 3.0000513409e+01 0.0000e+00 0.0000e+00
       13  1    3    3    0    0 -3.3277713231e+01 +6.8128190096e+00 -6.0207268157e+01 6.9128481856e+01 1.0566000000e-01 0.0000e+00 -1.0000e+00
       13  1    4    4    0    0 +1.0361956119e+01 +3.6336831584e-01 -3.5395381470e+00 1.0956352745e+01 1.0566000000e-01 0.0000e+00 -1.0000e+00
      -13  1    4    4    0    0 +2.4656265131e+01 -7.9980495328e+00 -4.9166113720e+01 5.5580735052e+01 1.0566000000e-01 0.0000e+00 1.0000e+00
       14  1    4    4    0    0 -1.7405080187e+00 +8.2186220735e-01 -1.3850161989e+01 1.3983269030e+01 0.0000000000e+00 0.0000e+00 -1.0000e+00
<mgrwt>
<rscale>  0 0.79535501E+02</rscale>
<asrwt>0</asrwt>
<pdfrwt beam="1">  1        3 0.21257067E-01 0.79535501E+02</pdfrwt>
<pdfrwt beam="2">  1       -4 0.17608890E-02 0.79535501E+02</pdfrwt>
<totfact> 0.40658797E+04</totfact>
</mgrwt>
</event>
<event>
 8      1 +5.0320763e-08 7.78630400e+01 7.81860800e-03 1.33522800e-01
        4 -1    0    0  501    0 +0.0000000000e+00 +0.0000000000e+00 +6.9746679936e+01 6.9758241536e+01 1.2700000000e+00 0.0000e+00 -1.0000e+00
       -3 -1    0    0    0  501 -0.0000000000e+00 -0.0000000000e+00 -2.1723236275e+01 2.1723471069e+01 1.0100000000e-01 0.0000e+00 1.0000e+00
       24  2    1    2    0    0 +3.5527136788e-15 +1.7763568394e-15 +4.8023443661e+01 9.1481712604e+01 7.7863037444e+01 0.0000e+00 0.0000e+00
       66  2    3    3    0    0 +2.7187923662e+01 +1.1498712949e+01 +4.5295891544e+01 6.1836235763e+01 3.0009976175e+01 0.0000e+00 0.0000e+00
      -13  1    3    3    0    0 -2.7187923662e+01 -1.1498712949e+01 +2.7275521171e+00 2.9645476841e+01 1.0566000000e-01 0.0000e+00 1.0000e+00
       13  1    4    4    0    0 +1.6273505005e+01 +7.7107007636e+00 +3.5111415999e+01 3.9460164329e+01 1.0566000000e-01 0.0000e+00 -1.0000e+00
      -13  1    4    4    0    0 -3.9086880008e+00 +8.6869420565e-02 +4.7663707510e+00 6.1656177594e+00 1.0566000000e-01 0.0000e+00 1.0000e+00
      -14  1    4    4    0    0 +1.4823106659e+01 +3.7011427648e+00 +5.4181047942e+00 1.6210453675e+01 0.0000000000e+00 0.0000e+00 1.0000e+00
<mgrwt>
<rscale>  0 0.77863037E+02</rscale>
<asrwt>0</asrwt>
<pdfrwt beam="1">  1        4 0.10734004E-01 0.77863037E+02</pdfrwt>
<pdfrwt beam="2">  1       -3 0.33420600E-02 0.77863037E+02</pdfrwt>
<totfact> 0.46431556E+04</totfact>
</mgrwt>
</event>
<event>
 8      1 +5.0320763e-08 8.05327500e+01 7.81860800e-03 1.32754600e-01
       -2 -1    0    0    0  501 -0.0000000000e+00 +0.0000000000e+00 +6.0277078547e+02 6.0277078547e+02 2.5500000000e-03 0.0000e+00 1.0000e+00
        1 -1    0    0  501    0 +0.0000000000e+00 -0.0000000000e+00 -2.6898774792e+00 2.6898822009e+00 5.0400000000e-03 0.0000e+00 -1.0000e+00
      -24  2    1    2    0    0 -4.4408920985e-16 +0.0000000000e+00 +6.0008090799e+02 6.0546066767e+02 8.0532750903e+01 0.0000e+00 0.0000e+00
       66  2    3    3    0    0 -1.9892351805e+00 +1.6430548896e+01 +5.7078788202e+02 5.7181527382e+02 2.9999685170e+01 0.0000e+00 0.0000e+00
       13  1    3    3    0    0 +1.9892351805e+00 -1.6430548896e+01 +2.9293025963e+01 3.3645393856e+01 1.0566000000e-01 0.0000e+00 -1.0000e+00
       13  1    4    4    0    0 +4.9095578518e+00 +3.7494221752e+00 +7.6198598713e+01 7.6448672551e+01 1.0566000000e-01 0.0000e+00 -1.0000e+00
      -13  1    4    4    0    0 +8.0745325880e+00 +9.4014776697e+00 +2.1219588428e+02 2.1255749887e+02 1.0566000000e-01 0.0000e+00 1.0000e+00
      -14  1    4    4    0    0 -1.4973325620e+01 +3.2796490516e+00 +2.8239339904e+02 2.8280910239e+02 0.0000000000e+00 0.0000e+00 1.0000e+00
<mgrwt>
<rscale>  0 0.80532751E+02</rscale>
<asrwt>0</asrwt>
<pdfrwt beam="1">  1        1 0.41382790E-03 0.80532751E+02</pdfrwt>
<pdfrwt beam="2">  1       -2 0.92733915E-01 0.80532751E+02</pdfrwt>
<totfact> 0.42560097E+04</totfact>
</mgrwt>
</event>
<event>
 8      1 +5.0320763e-08 7.90177800e+01 7.81860800e-03 1.33186200e-01
        3 -1    0    0  501    0 +0.0000000000e+00 +0.0000000000e+00 +1.7176631128e+02 1.7176634097e+02 1.0100000000e-01 0.0000e+00 -1.0000e+00
       -4 -1    0    0    0  501 -0.0000000000e+00 -0.0000000000e+00 -9.0409066943e+00 9.1296710705e+00 1.2700000000e+00 0.0000e+00 1.0000e+00
      -24  2    1    2    0    0 -3.5527136788e-15 +2.3869795029e-15 +1.6272540458e+02 1.8089601204e+02 7.9017782024e+01 0.0000e+00 0.0000e+00
       66  2    3    3    0    0 +3.1038642889e+01 +2.5325977987e-01 +6.2384076959e+01 7.5863375751e+01 3.0000287156e+01 0.0000e+00 0.0000e+00
       13  1    3    3    0    0 -3.1038642889e+01 -2.5325977987e-01 +1.0034132762e+02 1.0503263629e+02 1.0566000000e-01 0.0000e+00 -1.0000e+00
       13  1    4    4    0    0 +1.6781479796e+01 -1.2793776397e+01 +4.0594875047e+01 4.5752090911e+01 1.0566000000e-01 0.0000e+00 -1.0000e+00
      -13  1    4    4    0    0 +6.4131713111e+00 +4.1666618825e+00 +1.3934394969e+01 1.5895545435e+01 1.0566000000e-01 0.0000e+00 1.0000e+00
       14  1    4    4    0    0 +7.8439917817e+00 +8.8803742948e+00 +7.8548069430e+00 1.4215739404e+01 0.0000000000e+00 0.0000e+00 -1.0000e+00
<mgrwt>
<rscale>  0 0.79017782E+02</rscale>
<asrwt>0</asrwt>
<pdfrwt beam="1">  1        3 0.26425633E-01 0.79017782E+02</pdfrwt>
<pdfrwt beam="2">  1       -4 0.13980978E-02 0.79017782E+02</pdfrwt>
<totfact> 0.39082552E+04</totfact>
</mgrwt>
</event>
<event>
 8      1 +5.0320763e-08 8.66390700e+01 7.81860800e-03 1.31120100e-01
        2 -1    0    0  501    0 +0.0000000000e+00 +0.0000000000e+00 +4.2752164250e+02 4.2752164251e+02 2.5500000000e-03 0.0000e+00 -1.0000e+00
       -1 -1    0    0    0  501 -0.0000000000e+00 -0.0000000000e+00 -4.3894419872e+00 4.3894448807e+00 5.0400000000e-03 0.0000e+00 1.0000e+00
       24  2    1    2    0    0 -8.8817841970e-16 -3.5527136788e-15 +4.2313220051e+02 4.3191108739e+02 8.6639069121e+01 0.0000e+00 0.0000e+00
       66  2    3    3    0    0 +3.6010442848e+00 -2.7475236835e+01 +3.6747314539e+02 3.6973554766e+02 3.0000107716e+01 0.0000e+00 0.0000e+00
      -13  1    3    3    0    0 -3.6010442848e+00 +2.7475236835e+01 +5.5659055123e+01 6.2175539726e+01 1.0566000000e-01 0.0000e+00 1.0000e+00
       13  1    4    4    0    0 -7.6221170899e+00 -7.8541632766e+00 +4.2314197081e+01 4.3706829996e+01 1.0566000000e-01 0.0000e+00 -1.0000e+00
      -13  1    4    4    0    0 +4.6003409244e+00 -5.1938850371e+00 +6.1044837916e+01 6.1437960404e+01 1.0566000000e-01 0.0000e+00 1.0000e+00
       14  1    4    4    0    0 +6.6228204503e+00 -1.4427188521e+01 +2.6411411039e+02 2.6459075726e+02 0.0000000000e+00 0.0000e+00 -1.0000e+00
<mgrwt>
<rscale>  0 0.86639069E+02</rscale>
<asrwt>0</asrwt>
<pdfrwt beam="1">  1        2 0.65772593E-01 0.86639069E+02</pdfrwt>
<pdfrwt beam="2">  1       -1 0.67529866E-03 0.86639069E+02</pdfrwt>
<totfact> 0.23460831E+05</totfact>
</mgrwt>
</event>
<event>
 8      1 +5.0320763e-08 6.03798700e+01 7.81860800e-03 1.39624400e-01
        4 -1    0    0  501    0 +0.0000000000e+00 +0.0000000000e+00 +2.7941699602e+00 3.0692484042e+00 1.2700000000e+00 0.0000e+00 -1.0000e+00
       -3 -1    0    0    0  501 -0.0000000000e+00 -0.0000000000e+00 -3.1074921608e+02 3.1074923250e+02 1.0100000000e-01 0.0000e+00 1.0000e+00
       24  2    1    2    0    0 -1.7763568394e-15 +3.5527136788e-15 -3.0795504612e+02 3.1381848090e+02 6.0379868519e+01 0.0000e+00 0.0000e+00
       66  2    3    3    0    0 +9.5298892474e+00 -2.0275986165e+01 -2.1214827638e+02 2.1542700415e+02 2.9999475716e+01 0.0000e+00 0.0000e+00
      -13  1    3    3    0    0 -9.5298892474e+00 +2.0275986165e+01 -9.5806769744e+01 9.8391476749e+01 1.0566000000e-01 0.0000e+00 1.0000e+00
       13  1    4    4    0    0 +3.1142734765e+00 -1.4930390383e+01 -6.3666170505e+01 6.5467607922e+01 1.0566000000e-01 0.0000e+00 -1.0000e+00
      -13  1    4    4    0    0 -6.4933645818e+00 -4.7993005719e+00 -5.7999541012e+01 5.8558987280e+01 1.0566000000e-01 0.0000e+00 1.0000e+00
      -14  1    4    4    0    0 +1.2908980353e+01 -5.4629521070e-01 -9.0482564861e+01 9.1400408949e+01 0.0000000000e+00 0.0000e+00 1.0000e+00
<mgrwt>
<rscale>  0 0.60379869E+02</rscale>
<asrwt>0</asrwt>
<pdfrwt beam="1">  1        4 0.45123206E-03 0.60379869E+02</pdfrwt>
<pdfrwt beam="2">  1       -3 0.47807681E-01 0.60379869E+02</pdfrwt>
<totfact> 0.62666981E+04</totfact>
</mgrwt>
</event>
<event>
 8      1 +5.0320763e-08 8.02657100e+01 7.81860800e-03 1.32829900e-01
        2 -1    0    0  501    0 +0.0000000000e+00 +0.0000000000e+00 +9.6433742686e+00 9.6433746057e+00 2.5500000000e-03 0.0000e+00 -1.0000e+00
       -1 -1    0    0    0  501 -0.0000000000e+00 -0.0000000000e+00 -1.6702101776e+02 1.6702101783e+02 5.0400000000e-03 0.0000e+00 1.0000e+00
       24  2    1    2    0    0 +0.0000000000e+00 -3.5527136788e-15 -1.5737764349e+02 1.7666439244e+02 8.0265714261e+01 0.0000e+00 0.0000e+00
       66  2    3    3    0    0 -2.8267382074e+01 +1.7935709485e+01 -7.1086128216e+01 8.4106457413e+01 2.9998733139e+01 0.0000e+00 0.0000e+00
      -13  1    3    3    0    0 +2.8267382074e+01 -1.7935709485e+01 -8.6291515272e+01 9.2557935024e+01 1.0566000000e-01 0.0000e+00 1.0000e+00
       13  1    4    4    0    0 -8.0492544258e+00 +2.3067356439e+00 -1.4804076095e+01 1.7008332052e+01 1.0566000000e-01 0.0000e+00 -1.0000e+00
      -13  1    4    4    0    0 -2.0580434897e+01 +4.1776029085e-01 -2.5592871455e+01 3.2844102325e+01 1.0566000000e-01 0.0000e+00 1.0000e+00
       14  1    4    4    0    0 +3.6230724903e-01 +1.5211213550e+01 -3.0689180666e+01 3.4254023036e+01 0.0000000000e+00 0.0000e+00 -1.0000e+00
<mgrwt>
<rscale>  0 0.80265714E+02</rscale>
<asrwt>0</asrwt>
<pdfrwt beam="1">  1        2 0.14835962E-02 0.80265714E+02</pdfrwt>
<pdfrwt beam="2">  1       -1 0.25695539E-01 0.80265714E+02</pdfrwt>
<totfact> 0.10399421E+05</totfact>
</mgrwt>
</event>
<event>
 8      1 +5.0320763e-08 7.96500500e+01 7.81860800e-03 1.33004700e-01
        2 -1    0    0  501    0 +0.0000000000e+00 +0.0000000000e+00 +3.5581798840e+02 3.5581798841e+02 2.5500000000e-03 0.0000e+00 -1.0000e+00
       -3 -1    0    0    0  501 -0.0000000000e+00 -0.0000000000e+00 -4.4568476541e+00 4.4579919260e+00 1.0100000000e-01 0.0000e+00 1.0000e+00
       24  2    1    2    0    0 +0.0000000000e+00 +1.7763568394e-15 +3.5136114074e+02 3.6027598033e+02 7.9650051978e+01 0.0000e+00 0.0000e+00
       66  2    3    3    0    0 +8.4509107530e+00 +9.2323470522e+00 +3.4444571991e+02 3.4597603859e+02 2.9998519711e+01 0.0000e+00 0.0000e+00
      -13  1    3    3    0    0 -8.4509107530e+00 -9.2323470522e+00 +6.9154208300e+00 1.4299941746e+01 1.0566000000e-01 0.0000e+00 1.0000e+00
       13  1    4    4    0    0 +1.2603884899e+01 -6.8729435406e-02 +1.6683234187e+02 1.6730781242e+02 1.0566000000e-01 0.0000e+00 -1.0000e+00
      -13  1    4    4    0    0 -5.5328056207e+00 +1.3607255454e+01 +1.4515601144e+02 1.4589738914e+02 1.0566000000e-01 0.0000e+00 1.0000e+00
      -14  1    4    4    0    0 +1.3798314746e+00 -4.3061789669e+00 +3.2457366609e+01 3.2770837026e+01 0.0000000000e+00 0.0000e+00 1.0000e+00
<mgrwt>
<rscale>  0 0.79650052E+02</rscale>
<asrwt>0</asrwt>
<pdfrwt beam="1">  1        2 0.54741243E-01 0.79650052E+02</pdfrwt>
<pdfrwt beam="2">  1       -3 0.68575782E-03 0.79650052E+02</pdfrwt>
<totfact> 0.22349546E+05</totfact>
</mgrwt>
</event>
<event>
 8      1 +5.0320763e-08 7.84911100e+01 7.81860800e-03 1.33338900e-01
        2 -1    0    0  501    0 +0.0000000000e+00 +0.0000000000e+00 +1.2148745034e+02 1.2148745037e+02 2.5500000000e-03 0.0000e+00 -1.0000e+00
       -1 -1    0    0    0  501 -0.0000000000e+00 -0.0000000000e+00 -1.2677962499e+01 1.2677963500e+01 5.0400000000e-03 0.0000e+00 1.0000e+00
       24  2    1    2    0    0 +0.0000000000e+00 +0.0000000000e+00 +1.0880948784e+02 1.3416541387e+02 7.8491105445e+01 0.0000e+00 0.0000e+00
       66  2    3    3    0    0 -9.0908827074e+00 +1.6965835787e+01 +1.0924372705e+02 1.1491227231e+02 3.0002578142e+01 0.0000e+00 0.0000e+00
      -13  1    3    3    0    0 +9.0908827074e+00 -1.6965835787e+01 -4.3423920247e-01 1.9253141564e+01 1.0566000000e-01 0.0000e+00 1.0000e+00
       13  1    4    4    0    0 +5.2252677328e+00 -3.6984092947e+00 +3.7070958494e+01 3.7619792422e+01 1.0566000000e-01 0.0000e+00 -1.0000e+00
      -13  1    4    4    0    0 +9.7630064774e-01 +3.6839145708e-01 +3.4856651058e-01 1.1052320427e+00 1.0566000000e-01 0.0000e+00 1.0000e+00
       14  1    4    4    0    0 -1.5292451088e+01 +2.0295853625e+01 +7.1824202042e+01 7.6187247841e+01 0.0000000000e+00 0.0000e+00 -1.0000e+00
<mgrwt>
<rscale>  0 0.78491105E+02</rscale>
<asrwt>0</asrwt>
<pdfrwt beam="1">  1        2 0.18690376E-01 0.78491105E+02</pdfrwt>
<pdfrwt beam="2">  1       -1 0.19504559E-02 0.78491105E+02</pdfrwt>
<totfact> 0.19731228E+05</totfact>
</mgrwt>
</event>
<event>
 8      1 +5.0320763e-08 8.33572700e+01 7.81860800e-03 1.31978500e-01
        2 -1    0    0  501    0 +0.0000000000e+00 +0.0000000000e+00 +1.5827020106e+02 1.5827020108e+02 2.5500000000e-03 0.0000e+00 -1.0000e+00
       -1 -1    0    0    0  501 -0.0000000000e+00 -0.0000000000e+00 -1.0975589086e+01 1.0975590243e+01 5.0400000000e-03 0.0000e+00 1.0000e+00
       24  2    1    2    0    0 +0.0000000000e+00 +0.0000000000e+00 +1.4729461198e+02 1.6924579133e+02 8.3357274212e+01 0.0000e+00 0.0000e+00
       66  2    3    3    0    0 -1.4203125928e+01 -2.6776303219e+01 +1.2366852122e+02 1.3081530175e+02 3.0000680536e+01 0.0000e+00 0.0000e+00
      -13  1    3    3    0    0 +1.4203125928e+01 +2.6776303219e+01 +2.3626090761e+01 3.8430489574e+01 1.0566000000e-01 0.0000e+00 1.0000e+00
       13  1    4    4    0    0 -1.1819500259e+01 -4.8952851295e+00 +4.1680086885e+01 4.3599371665e+01 1.0566000000e-01 0.0000e+00 -1.0000e+00
      -13  1    4    4    0    0 -1.0879330816e+00 +8.7789529891e-01 -6.1050206144e-01 1.5291093318e+00 1.0566000000e-01 0.0000e+00 1.0000e+00
      -14  1    4    4    0    0 -1.2956925868e+00 -2.2758913388e+01 +8.2598936393e+01 8.5686820755e+01 0.0000000000e+00 0.0000e+00 1.0000e+00
<mgrwt>
<rscale>  0 0.83357274E+02</rscale>
<asrwt>0</asrwt>
<pdfrwt beam="1">  1        2 0.24349260E-01 0.83357274E+02</pdfrwt>
<pdfrwt beam="2">  1       -1 0.16885524E-02 0.83357274E+02</pdfrwt>
<totfact> 0.18273538E+05</totfact>
</mgrwt>
</event>
<event>
 8      1 +5.0320763e-08 8.05109600e+01 7.81860800e-03 1.32760800e-01
        1 -1    0    0  501    0 +0.0000000000e+00 +0.0000000000e+00 +6.9048050279e+00 6.9048068673e+00 5.0400000000e-03 0.0000e+00 -1.0000e+00
       -2 -1    0    0    0  501 -0.0000000000e+00 -0.0000000000e+00 -2.3469216559e+02 2.3469216561e+02 2.5500000000e-03 0.0000e+00 1.0000e+00
      -24  2    1    2    0    0 +0.0000000000e+00 +4.4408920985e-16 -2.2778736057e+02 2.4159697247e+02 8.0510964940e+01 0.0000e+00 0.0000e+00
       66  2    3    3    0    0 +2.8784409254e+01 +1.0704044640e+00 -1.8758791244e+02 1.9214300625e+02 3.0000366250e+01 0.0000e+00 0.0000e+00
       13  1    3    3    0    0 -2.8784409254e+01 -1.0704044640e+00 -4.0199448130e+01 4.9453966229e+01 1.0566000000e-01 0.0000e+00 -1.0000e+00
       13  1    4    4    0    0 +1.8567404223e+00 -9.4152983089e-01 -3.2233345793e+00 3.8386212713e+00 1.0566000000e-01 0.0000e+00 -1.0000e+00
      -13  1    4    4    0    0 +2.8497633866e+01 -4.9677815442e-01 -1.0257488331e+02 1.0646116557e+02 1.0566000000e-01 0.0000e+00 1.0000e+00
       14  1    4    4    0    0 -1.5699650337e+00 +2.5087124493e+00 -8.1789694551e+01 8.1843219408e+01 0.0000000000e+00 0.0000e+00 -1.0000e+00
<mgrwt>
<rscale>  0 0.80510965E+02</rscale>
<asrwt>0</asrwt>
<pdfrwt beam="1">  1        1 0.10622780E-02 0.80510965E+02</pdfrwt>
<pdfrwt beam="2">  1       -2 0.36106481E-01 0.80510965E+02</pdfrwt>
<totfact> 0.78124724E+04</totfact>
</mgrwt>
</event>
<event>
 8      1 +5.0320763e-08 8.23652900e+01 7.81860800e-03 1.32247000e-01
       -3 -1    0    0    0  501 -0.0000000000e+00 +0.0000000000e+00 +1.2739886226e+01 1.2740286576e+01 1.0100000000e-01 0.0000e+00 1.0000e+00
        4 -1    0    0  501    0 +0.0000000000e+00 -0.0000000000e+00 -1.3308903530e+02 1.3309509464e+02 1.2700000000e+00 0.0000e+00 -1.0000e+00
       24  2    1    2    0    0 +0.0000000000e+00 +0.0000000000e+00 -1.2034914908e+02 1.4583538122e+02 8.2365288390e+01 0.0000e+00 0.0000e+00
       66  2    3    3    0    0 +2.1486190781e+01 -2.7896202848e+01 -5.7538227034e+01 7.3827898139e+01 3.0000940747e+01 0.0000e+00 0.0000e+00
      -13  1    3    3    0    0 -2.1486190781e+01 +2.7896202848e+01 -6.2810922042e+01 7.2007483079e+01 1.0566000000e-01 0.0000e+00 1.0000e+00
       13  1    4    4    0    0 +1.4920952398e+01 -8.8968321209e+00 -8.5219287205e+00 1.9350009700e+01 1.0566000000e-01 0.0000e+00 -1.0000e+00
      -13  1    4    4    0    0 +5.8431037211e+00 -6.5365073262e+00 -3.3145689776e+01 3.4285794491e+01 1.0566000000e-01 0.0000e+00 1.0000e+00
       14  1    4    4    0    0 +7.2213466253e-01 -1.2462863401e+01 -1.5870608538e+01 2.0192093947e+01 0.0000000000e+00 0.0000e+00 -1.0000e+00
<mgrwt>
<rscale>  0 0.82365288E+02</rscale>
<asrwt>0</asrwt>
<pdfrwt beam="1">  1        4 0.20480569E-01 0.82365288E+02</pdfrwt>
<pdfrwt beam="2">  1       -3 0.19600164E-02 0.82365288E+02</pdfrwt>
<totfact> 0.34861297E+04</totfact>
</mgrwt>
</event>
<event>
 8      1 +5.0320763e-08 8.22255900e+01 7.81860800e-03 1.32285200e-01
       -1 -1    0    0    0  501 -0.0000000000e+00 +0.0000000000e+00 +7.8996805206e+00 7.8996821283e+00 5.0400000000e-03 0.0000e+00 1.0000e+00
        2 -1    0    0  501    0 +0.0000000000e+00 -0.0000000000e+00 -2.1396583600e+02 2.1396583601e+02 2.5500000000e-03 0.0000e+00 -1.0000e+00
       24  2    1    2    0    0 +0.0000000000e+00 -3.5527136788e-15 -2.0606615548e+02 2.2186551814e+02 8.2225590341e+01 0.0000e+00 0.0000e+00
       66  2    3    3    0    0 +9.8096834628e+00 -1.6187291554e+01 -1.9822986892e+02 2.0137950221e+02 3.0006077444e+01 0.0000e+00 0.0000e+00
      -13  1    3    3    0    0 -9.8096834628e+00 +1.6187291554e+01 -7.8362865605e+00 2.0486015928e+01 1.0566000000e-01 0.0000e+00 1.0000e+00
       13  1    4    4    0    0 +2.3169061700e+00 +4.5330459518e+00 -3.9474516473e+01 3.9801572515e+01 1.0566000000e-01 0.0000e+00 -1.0000e+00
      -13  1    4    4    0    0 +2.7704701530e+00 -5.6472923640e+00 -8.9372160394e+00 1.0929428644e+01 1.0566000000e-01 0.0000e+00 1.0000e+00
       14  1    4    4    0    0 +4.7223071398e+00 -1.5073045142e+01 -1.4981813640e+02 1.5064850105e+02 0.0000000000e+00 0.0000e+00 -1.0000e+00
<mgrwt>
<rscale>  0 0.82225590E+02</rscale>
<asrwt>0</asrwt>
<pdfrwt beam="1">  1        2 0.32917817E-01 0.82225590E+02</pdfrwt>
<pdfrwt beam="2">  1       -1 0.12153358E-02 0.82225590E+02</pdfrwt>
<totfact> 0.21007104E+05</totfact>
</mgrwt>
</event>
<event>
 8      1 +5.0320763e-08 7.88184200e+01 7.81860800e-03 1.33243800e-01
       -1 -1    0    0    0  501 -0.0000000000e+00 +0.0000000000e+00 +1.8731964505e+01 1.8731965183e+01 5.0400000000e-03 0.0000e+00 1.0000e+00
        2 -1    0    0  501    0 +0.0000000000e+00 -0.0000000000e+00 -8.2910999703e+01 8.2910999742e+01 2.5500000000e-03 0.0000e+00 -1.0000e+00
       24  2    1    2    0    0 +0.0000000000e+00 +0.0000000000e+00 -6.4179035198e+01 1.0164296493e+02 7.8818422719e+01 0.0000e+00 0.0000e+00
       66  2    3    3    0    0 +2.0587262685e+01 -2.1854748048e+01 -5.6475504723e+01 7.0645853078e+01 2.9998142047e+01 0.0000e+00 0.0000e+00
      -13  1    3    3    0    0 -2.0587262685e+01 +2.1854748048e+01 -7.7035304755e+00 3.0997111848e+01 1.0566000000e-01 0.0000e+00 1.0000e+00
       13  1    4    4    0    0 -2.6107265680e+00 +2.3913266813e+00 -1.6112091077e+01 1.6496817251e+01 1.0566000000e-01 0.0000e+00 -1.0000e+00
      -13  1    4    4    0    0 +2.5107146694e+00 -3.4710264405e+00 -2.9472858047e-02 4.2852940840e+00 1.0566000000e-01 0.0000e+00 1.0000e+00
       14  1    4    4    0    0 +2.0687274584e+01 -2.0775048289e+01 -4.0333940788e+01 4.9863741743e+01 0.0000000000e+00 0.0000e+00 -1.0000e+00
<mgrwt>
<rscale>  0 0.78818423E+02</rscale>
<asrwt>0</asrwt>
<pdfrwt beam="1">  1        2 0.12755538E-01 0.78818423E+02</pdfrwt>
<pdfrwt beam="2">  1       -1 0.28818408E-02 0.78818423E+02</pdfrwt>
<totfact> 0.17538970E+05</totfact>
</mgrwt>
</event>
<event>
 8      1 +5.0320763e-08 8.02507800e+01 7.81860800e-03 1.32834100e-01
       -3 -1    0    0    0  501 -0.0000000000e+00 +0.0000000000e+00 +1.1717143587e+01 1.1717578881e+01 1.0100000000e-01 0.0000e+00 1.0000e+00
        4 -1    0    0  501    0 +0.0000000000e+00 -0.0000000000e+00 -1.3736939546e+02 1.3737526601e+02 1.2700000000e+00 0.0000e+00 -1.0000e+00
       24  2    1    2    0    0 +0.0000000000e+00 +0.0000000000e+00 -1.2565225188e+02 1.4909284489e+02 8.0250781896e+01 0.0000e+00 0.0000e+00
       66  2    3    3    0    0 -2.2779864812e+01 +1.4680296912e+01 -1.1132076885e+02 1.1843610129e+02 3.0006051946e+01 0.0000e+00 0.0000e+00
      -13  1    3    3    0    0 +2.2779864812e+01 -1.4680296912e+01 -1.4331483032e+01 3.0656743601e+01 1.0566000000e-01 0.0000e+00 1.0000e+00
       13  1    4    4    0    0 -2.8720284463e+00 +5.1750970134e+00 -1.7855352603e+01 1.8811032856e+01 1.0566000000e-01 0.0000e+00 -1.0000e+00
      -13  1    4    4    0    0 -2.4645389925e+01 +6.0764491429e+00 -5.3295532207e+01 5.9031715171e+01 1.0566000000e-01 0.0000e+00 1.0000e+00
      -14  1    4    4    0    0 +4.7375535595e+00 +3.4287507557e+00 -4.0169884036e+01 4.0593353260e+01 0.0000000000e+00 0.0000e+00 1.0000e+00
<mgrwt>
<rscale>  0 0.80250782E+02</rscale>
<asrwt>0</asrwt>
<pdfrwt beam="1">  1        4 0.21139497E-01 0.80250782E+02</pdfrwt>
<pdfrwt beam="2">  1       -3 0.18026740E-02 0.80250782E+02</pdfrwt>
<totfact> 0.37053374E+04</totfact>
</mgrwt>
</event>
<event>
 8      1 +5.0320763e-08 7.99592600e+01 7.81860800e-03 1.32916700e-01
        2 -1    0    0  501    0 +0.0000000000e+00 +0.0000000000e+00 +5.3934819528e+02 5.3934819529e+02 2.5500000000e-03 0.0000e+00 -1.0000e+00
       -1 -1    0    0    0  501 -0.0000000000e+00 -0.0000000000e+00 -2.9635205616e+00 2.9635248473e+00 5.0400000000e-03 0.0000e+00 1.0000e+00
       24  2    1    2    0    0 -1.7763568394e-15 -1.7763568394e-15 +5.3638467472e+02 5.4231172013e+02 7.9959255381e+01 0.0000e+00 0.0000e+00
       66  2    3    3    0    0 +5.7321721961e+00 +1.0378306333e+01 +5.2461243166e+02 5.2560352121e+02 3.0004849979e+01 0.0000e+00 0.0000e+00
      -13  1    3    3    0    0 -5.7321721961e+00 -1.0378306333e+01 +1.1772243063e+01 1.6708198921e+01 1.0566000000e-01 0.0000e+00 1.0000e+00
       13  1    4    4    0    0 +1.2872828059e+00 -2.2055648746e+00 +7.9674116355e+01 7.9715102675e+01 1.0566000000e-01 0.0000e+00 -1.0000e+00
      -13  1    4    4    0    0 -6.3222386438e+00 -3.2044604112e+00 +2.2795215054e+02 2.2806234535e+02 1.0566000000e-01 0.0000e+00 1.0000e+00
      -14  1    4    4    0    0 +1.0767128034e+01 +1.5788331619e+01 +2.1698616476e+02 2.1782607318e+02 0.0000000000e+00 0.0000e+00 1.0000e+00
<mgrwt>
<rscale>  0 0.79959255E+02</rscale>
<asrwt>0</asrwt>
<pdfrwt beam="1">  1        2 0.82976650E-01 0.79959255E+02</pdfrwt>
<pdfrwt beam="2">  1       -1 0.45592655E-03 0.79959255E+02</pdfrwt>
<totfact> 0.31219482E+05</totfact>
</mgrwt>
</event>
<event>
 8      1 +5.0320763e-08 7.38205400e+01 7.81860800e-03 1.34756300e-01
       -1 -1    0    0    0  501 -0.0000000000e+00 +0.0000000000e+00 +2.6868620172e+01 2.6868620645e+01 5.0400000000e-03 0.0000e+00 1.0000e+00
        2 -1    0    0  501    0 +0.0000000000e+00 -0.0000000000e+00 -5.0704795890e+01 5.0704795954e+01 2.5500000000e-03 0.0000e+00 -1.0000e+00
       24  2    1    2    0    0 -3.5527136788e-15 +7.1054273576e-15 -2.3836175718e+01 7.7573416599e+01 7.3820537047e+01 0.0000e+00 0.0000e+00
       66  2    3    3    0    0 +2.0478232146e+01 -1.8935381783e+01 -2.7650353129e+01 4.9422647720e+01 3.0002489971e+01 0.0000e+00 0.0000e+00
      -13  1    3    3    0    0 -2.0478232146e+01 +1.8935381783e+01 +3.8141774112e+00 2.8150768878e+01 1.0566000000e-01 0.0000e+00 1.0000e+00
       13  1    4    4    0    0 +7.6830112219e+00 -1.0920764234e+00 -5.8894943095e+00 9.7426176979e+00 1.0566000000e-01 0.0000e+00 -1.0000e+00
      -13  1    4    4    0    0 +8.2433312586e-01 +1.2274731181e+00 +4.7043143547e+00 4.9323374724e+00 1.0566000000e-01 0.0000e+00 1.0000e+00
       14  1    4    4    0    0 +1.1970887799e+01 -1.9070778477e+01 -2.6465173174e+01 3.4747692550e+01 0.0000000000e+00 0.0000e+00 -1.0000e+00
<mgrwt>
<rscale>  0 0.73820537E+02</rscale>
<asrwt>0</asrwt>
<pdfrwt beam="1">  1        2 0.78007378E-02 0.73820537E+02</pdfrwt>
<pdfrwt beam="2">  1       -1 0.41336339E-02 0.73820537E+02</pdfrwt>
<totfact> 0.18653013E+05</totfact>
</mgrwt>
</event>
<event>
 8      1 +5.0320763e-08 8.02168800e+01 7.81860800e-03 1.32843700e-01
       -1 -1    0    0    0  501 -0.0000000000e+00 +0.0000000000e+00 +2.9871842695e+00 2.9871885213e+00 5.0400000000e-03 0.0000e+00 1.0000e+00
        2 -1    0    0  501    0 +0.0000000000e+00 -0.0000000000e+00 -5.3852911425e+02 5.3852911425e+02 2.5500000000e-03 0.0000e+00 -1.0000e+00
       24  2    1    2    0    0 +3.5527136788e-15 +8.8817841970e-16 -5.3554192998e+02 5.4151630278e+02 8.0216877317e+01 0.0000e+00 0.0000e+00
       66  2    3    3    0    0 +2.0845951602e+01 +5.6245250653e+00 -4.8685923199e+02 4.8826026812e+02 2.9999811071e+01 0.0000e+00 0.0000e+00
      -13  1    3    3    0    0 -2.0845951602e+01 -5.6245250653e+00 -4.8682697987e+01 5.3256034660e+01 1.0566000000e-01 0.0000e+00 1.0000e+00
       13  1    4    4    0    0 -4.5761148563e+00 -2.2287471770e+00 -4.4902332131e+01 4.5190029166e+01 1.0566000000e-01 0.0000e+00 -1.0000e+00
      -13  1    4    4    0    0 +1.2098013988e+01 -4.7693305051e+00 -1.7355285946e+02 1.7403940545e+02 1.0566000000e-01 0.0000e+00 1.0000e+00
       14  1    4    4    0    0 +1.3324052470e+01 +1.2622602747e+01 -2.6840404040e+02 2.6903083350e+02 0.0000000000e+00 0.0000e+00 -1.0000e+00
<mgrwt>
<rscale>  0 0.80216877E+02</rscale>
<asrwt>0</asrwt>
<pdfrwt beam="1">  1        2 0.82850556E-01 0.80216877E+02</pdfrwt>
<pdfrwt beam="2">  1       -1 0.45956757E-03 0.80216877E+02</pdfrwt>
<totfact> 0.30944691E+05</totfact>
</mgrwt>
</event>
<event>
 8      1 +5.0320763e-08 8.40724300e+01 7.81860800e-03 1.31787600e-01
       -1 -1    0    0    0  501 -0.0000000000e+00 +0.0000000000e+00 +3.7463427861e+00 3.7463461763e+00 5.0400000000e-03 0.0000e+00 1.0000e+00
        2 -1    0    0  501    0 +0.0000000000e+00 -0.0000000000e+00 -4.7167129697e+02 4.7167129698e+02 2.5500000000e-03 0.0000e+00 -1.0000e+00
       24  2    1    2    0    0 -1.7763568394e-15 -3.3306690739e-16 -4.6792495419e+02 4.7541764316e+02 8.4072425167e+01 0.0000e+00 0.0000e+00
       66  2    3    3    0    0 +1.5043655798e+01 +7.3986245710e-01 -4.5290127812e+02 4.5414369235e+02 3.0001110047e+01 0.0000e+00 0.0000e+00
      -13  1    3    3    0    0 -1.5043655798e+01 -7.3986245710e-01 -1.5023676066e+01 2.1273950803e+01 1.0566000000e-01 0.0000e+00 1.0000e+00
       13  1    4    4    0    0 +9.6636684229e-02 -2.9109596653e+00 -1.7600155405e+02 1.7602568340e+02 1.0566000000e-01 0.0000e+00 -1.0000e+00
      -13  1    4    4    0    0 +9.2770111549e+00 -2.9388563393e-01 -2.5468791236e+02 2.5485700534e+02 1.0566000000e-01 0.0000e+00 1.0000e+00
      -14  1    4    4    0    0 +5.6700079586e+00 +3.9447077563e+00 -2.2211811719e+01 2.3261003619e+01 0.0000000000e+00 0.0000e+00 1.0000e+00
<mgrwt>
<rscale>  0 0.84072425E+02</rscale>
<asrwt>0</asrwt>
<pdfrwt beam="1">  1        2 0.72564768E-01 0.84072425E+02</pdfrwt>
<pdfrwt beam="2">  1       -1 0.57636106E-03 0.84072425E+02</pdfrwt>
<totfact> 0.26244509E+05</totfact>
</mgrwt>
</event>
<event>
 8      1 +5.0320763e-08 7.43311000e+01 7.81860800e-03 1.34595500e-01
        4 -1    0    0  501    0 +0.0000000000e+00 +0.0000000000e+00 +4.5088879813e+01 4.5106762051e+01 1.2700000000e+00 0.0000e+00 -1.0000e+00
       -3 -1    0    0    0  501 -0.0000000000e+00 -0.0000000000e+00 -3.0619411273e+01 3.0619577850e+01 1.0100000000e-01 0.0000e+00 1.0000e+00
       24  2    1    2    0    0 +0.0000000000e+00 +5.3290705182e-15 +1.4469468539e+01 7.5726339901e+01 7.4331104089e+01 0.0000e+00 0.0000e+00
       66  2    3    3    0    0 -6.0542725103e+00 +1.1717033517e+01 +3.7119648569e+01 4.9515942928e+01 3.0000286734e+01 0.0000e+00 0.0000e+00
      -13  1    3    3    0    0 +6.0542725103e+00 -1.1717033517e+01 -2.2650180030e+01 2.6210396973e+01 1.0566000000e-01 0.0000e+00 1.0000e+00
       13  1    4    4    0    0 -3.3643273680e+00 +1.0284794628e+01 +1.7068859067e+01 2.0210215562e+01 1.0566000000e-01 0.0000e+00 -1.0000e+00
      -13  1    4    4    0    0 +6.7286190544e+00 -4.3622977438e+00 +1.5291249227e+01 1.7266656391e+01 1.0566000000e-01 0.0000e+00 1.0000e+00
      -14  1    4    4    0    0 -9.4185641966e+00 +5.7945366322e+00 +4.7595402756e+00 1.2039070975e+01 0.0000000000e+00 0.0000e+00 1.0000e+00
<mgrwt>
<rscale>  0 0.74331104E+02</rscale>
<asrwt>0</asrwt>
<pdfrwt beam="1">  1        4 0.69401523E-02 0.74331104E+02</pdfrwt>
<pdfrwt beam="2">  1       -3 0.47107002E-02 0.74331104E+02</pdfrwt>
<totfact> 0.55161778E+04</totfact>
</mgrwt>
</event>
<event>
 8      1 +5.0320763e-08 8.04461400e+01 7.81860800e-03 1.32779000e-01
       -3 -1    0    0    0  501 -0.0000000000e+00 +0.0000000000e+00 +4.6582077562e+01 4.6582187057e+01 1.0100000000e-01 0.0000e+00 1.0000e+00
        4 -1    0    0  501    0 +0.0000000000e+00 -0.0000000000e+00 -3.4711780640e+01 3.4735005616e+01 1.2700000000e+00 0.0000e+00 -1.0000e+00
       24  2    1    2    0    0 -3.5527136788e-15 -8.8817841970e-16 +1.1870296923e+01 8.1317192673e+01 8.0446142700e+01 0.0000e+00 0.0000e+00
       66  2    3    3    0    0 +2.8629847357e+01 +6.5675495337e+00 -1.1779240321e+01 4.3606283874e+01 2.9999277061e+01 0.0000e+00 0.0000e+00
      -13  1    3    3    0    0 -2.8629847357e+01 -6.5675495337e+00 +2.3649537244e+01 3.7710908799e+01 1.0566000000e-01 0.0000e+00 1.0000e+00
       13  1    4    4    0    0 +1.6905365255e+01 +1.1196235726e+00 +1.5352143726e+00 1.7012142092e+01 1.0566000000e-01 0.0000e+00 -1.0000e+00
      -13  1    4    4    0    0 -1.4027669494e+00 +4.3380067180e+00 +3.1241990036e+00 5.5279146927e+00 1.0566000000e-01 0.0000e+00 1.0000e+00
      -14  1    4    4    0    0 +1.3127249052e+01 +1.1099192431e+00 -1.6438653697e+01 2.1066227089e+01 0.0000000000e+00 0.0000e+00 1.0000e+00
<mgrwt>
<rscale>  0 0.80446143E+02</rscale>
<asrwt>0</asrwt>
<pdfrwt beam="1">  1        4 0.53433919E-02 0.80446143E+02</pdfrwt>
<pdfrwt beam="2">  1       -3 0.71664936E-02 0.80446143E+02</pdfrwt>
<totfact> 0.44506128E+04</totfact>
</mgrwt>
</event>
<event>
 8      1 +5.0320763e-08 8.01871800e+01 7.81860800e-03 1.32852100e-01
        2 -1    0    0  501    0 +0.0000000000e+00 +0.0000000000e+00 +2.0192548748e+02 2.0192548750e+02 2.5500000000e-03 0.0000e+00 -1.0000e+00
       -1 -1    0    0    0  501 -0.0000000000e+00 -0.0000000000e+00 -7.9608373284e+00 7.9608389238e+00 5.0400000000e-03 0.0000e+00 1.0000e+00
       24  2    1    2    0    0 +0.0000000000e+00 -8.8817841970e-16 +1.9396465016e+02 2.0988632642e+02 8.0187184199e+01 0.0000e+00 0.0000e+00
       66  2    3    3    0    0 +9.0133295953e+00 +4.5577537868e+00 +1.9685179288e+02 1.9938109025e+02 3.0002959188e+01 0.0000e+00 0.0000e+00
      -13  1    3    3    0    0 -9.0133295953e+00 -4.5577537868e+00 -2.8871427208e+00 1.0505236175e+01 1.0566000000e-01 0.0000e+00 1.0000e+00
       13  1    4    4    0    0 +8.6336961598e+00 +4.3251322207e+00 +1.7377321329e+02 1.7404134078e+02 1.0566000000e-01 0.0000e+00 -1.0000e+00
      -13  1    4    4    0    0 -4.9878664051e+00 +7.1393597822e-01 +1.2183193303e+01 1.3184455959e+01 1.0566000000e-01 0.0000e+00 1.0000e+00
       14  1    4    4    0    0 +5.3674998406e+00 -4.8131441212e-01 +1.0895386282e+01 1.2155293511e+01 0.0000000000e+00 0.0000e+00 -1.0000e+00
<mgrwt>
<rscale>  0 0.80187184E+02</rscale>
<asrwt>0</asrwt>
<pdfrwt beam="1">  1        2 0.31065457E-01 0.80187184E+02</pdfrwt>
<pdfrwt beam="2">  1       -1 0.12247444E-02 0.80187184E+02</pdfrwt>
<totfact> 0.21996087E+05</totfact>
</mgrwt>
</event>
<event>
 8      1 +5.0320763e-08 8.04654600e+01 7.81860800e-03 1.32773600e-01
       -1 -1    0    0    0  501 -0.0000000000e+00 +0.0000000000e+00 +3.5015066362e+00 3.5015102634e+00 5.0400000000e-03 0.0000e+00 1.0000e+00
        2 -1    0    0  501    0 +0.0000000000e+00 -0.0000000000e+00 -4.6227864974e+02 4.6227864975e+02 2.5500000000e-03 0.0000e+00 -1.0000e+00
       24  2    1    2    0    0 +0.0000000000e+00 +3.5527136788e-15 -4.5877714311e+02 4.6578016001e+02 8.0465461068e+01 0.0000e+00 0.0000e+00
       66  2    3    3    0    0 -2.4698029899e+01 -2.0348282534e+01 -3.3804648549e+02 3.4088040767e+02 2.9999678295e+01 0.0000e+00 0.0000e+00
      -13  1    3    3    0    0 +2.4698029899e+01 +2.0348282534e+01 -1.2073065762e+02 1.2489975234e+02 1.0566000000e-01 0.0000e+00 1.0000e+00
       13  1    4    4    0    0 -2.1369778119e+01 -1.6247906140e+01 -1.7075084307e+02 1.7284826712e+02 1.0566000000e-01 0.0000e+00 -1.0000e+00
      -13  1    4    4    0    0 +2.6355216027e+00 -7.9355131844e+00 -1.0554252041e+02 1.0587328804e+02 1.0566000000e-01 0.0000e+00 1.0000e+00
      -14  1    4    4    0    0 -5.9637733822e+00 +3.8351367912e+00 -6.1753122012e+01 6.2158852510e+01 0.0000000000e+00 0.0000e+00 1.0000e+00
<mgrwt>
<rscale>  0 0.80465461E+02</rscale>
<asrwt>0</asrwt>
<pdfrwt beam="1">  1        2 0.71119744E-01 0.80465461E+02</pdfrwt>
<pdfrwt beam="2">  1       -1 0.53869398E-03 0.80465461E+02</pdfrwt>
<totfact> 0.29238055E+05</totfact>
</mgrwt>
</event>
<event>
 8      1 +5.0320763e-08 7.98085200e+01 7.81860800e-03 1.32959600e-01
       -2 -1    0    0    0  501 -0.0000000000e+00 +0.0000000000e+00 +8.0818152567e+00 8.0818156590e+00 2.5500000000e-03 0.0000e+00 1.0000e+00
        1 -1    0    0  501    0 +0.0000000000e+00 -0.0000000000e+00 -1.9702876068e+02 1.9702876074e+02 5.0400000000e-03 0.0000e+00 -1.0000e+00
      -24  2    1    2    0    0 -1.7763568394e-15 +0.0000000000e+00 -1.8894694542e+02 2.0511057640e+02 7.9808523152e+01 0.0000e+00 0.0000e+00
       66  2    3    3    0    0 +6.0599443936e+00 -2.3303458589e+01 -4.5166909291e+01 5.9328259017e+01 3.0000308579e+01 0.0000e+00 0.0000e+00
       13  1    3    3    0    0 -6.0599443936e+00 +2.3303458589e+01 -1.4378003613e+02 1.4578231739e+02 1.0566000000e-01 0.0000e+00 -1.0000e+00
       13  1    4    4    0    0 -6.7485666667e+00 -1.3970544529e+01 -1.8475945106e+01 2.4126561671e+01 1.0566000000e-01 0.0000e+00 -1.0000e+00
      -13  1    4    4    0    0 +2.6965268080e+00 -1.2151745805e+01 -1.4872329740e+01 1.9394162495e+01 1.0566000000e-01 0.0000e+00 1.0000e+00
       14  1    4    4    0    0 +1.0111984252e+01 +2.8188317449e+00 -1.1818634445e+01 1.5807534851e+01 0.0000000000e+00 0.0000e+00 -1.0000e+00
<mgrwt>
<rscale>  0 0.79808523E+02</rscale>
<asrwt>0</asrwt>
<pdfrwt beam="1">  1        1 0.30312114E-01 0.79808523E+02</pdfrwt>
<pdfrwt beam="2">  1       -2 0.12433564E-02 0.79808523E+02</pdfrwt>
<totfact> 0.16731726E+05</totfact>
</mgrwt>
</event>
<event>
 8      1 +5.0320763e-08 7.93647400e+01 7.81860800e-03 1.33086400e-01
       -2 -1    0    0    0  501 -0.0000000000e+00 +0.0000000000e+00 +5.7987944026e+01 5.7987944082e+01 2.5500000000e-03 0.0000e+00 1.0000e+00
        3 -1    0    0  501    0 +0.0000000000e+00 -0.0000000000e+00 -2.7155345762e+01 2.7155533589e+01 1.0100000000e-01 0.0000e+00 -1.0000e+00
      -24  2    1    2    0    0 -1.6653345369e-16 +0.0000000000e+00 +3.0832598263e+01 8.5143477670e+01 7.9364744529e+01 0.0000e+00 0.0000e+00
       66  2    3    3    0    0 +3.4831461580e-01 +3.3973048366e+01 +1.9328058578e+01 4.9273505050e+01 3.0000251885e+01 0.0000e+00 0.0000e+00
       13  1    3    3    0    0 -3.4831461580e-01 -3.3973048366e+01 +1.1504539685e+01 3.5869972620e+01 1.0566000000e-01 0.0000e+00 -1.0000e+00
       13  1    4    4    0    0 +4.0782801661e-02 +1.6294088585e+01 -1.2381338459e+00 1.6341454204e+01 1.0566000000e-01 0.0000e+00 -1.0000e+00
      -13  1    4    4    0    0 -9.0834142685e+00 +1.0157257805e+01 +1.2059490980e+01 1.8196724640e+01 1.0566000000e-01 0.0000e+00 1.0000e+00
       14  1    4    4    0    0 +9.3909460826e+00 +7.5217019770e+00 +8.5067014439e+00 1.4735326207e+01 0.0000000000e+00 0.0000e+00 -1.0000e+00
<mgrwt>
<rscale>  0 0.79364745E+02</rscale>
<asrwt>0</asrwt>
<pdfrwt beam="1">  1        3 0.41777668E-02 0.79364745E+02</pdfrwt>
<pdfrwt beam="2">  1       -2 0.89212221E-02 0.79364745E+02</pdfrwt>
<totfact> 0.77233771E+04</totfact>
</mgrwt>
</event>
<event>
 8      1 +5.0320763e-08 7.95456900e+01 7.81860800e-03 1.33034600e-01
       -1 -1    0    0    0  501 -0.0000000000e+00 +0.0000000000e+00 +2.3517706418e+00 2.3517760423e+00 5.0400000000e-03 0.0000e+00 1.0000e+00
        2 -1    0    0  501    0 +0.0000000000e+00 -0.0000000000e+00 -6.7263244033e+02 6.7263244033e+02 2.5500000000e-03 0.0000e+00 -1.0000e+00
       24  2    1    2    0    0 +0.0000000000e+00 -4.4408920985e-16 -6.7028066969e+02 6.7498421638e+02 7.9545686248e+01 0.0000e+00 0.0000e+00
       66  2    3    3    0    0 +2.8737593885e+01 -2.1497755301e+00 -5.3771420187e+02 5.3932158191e+02 3.0012247209e+01 0.0000e+00 0.0000e+00
      -13  1    3    3    0    0 -2.8737593885e+01 +2.1497755301e+00 -1.3256646782e+02 1.3566263447e+02 1.0566000000e-01 0.0000e+00 1.0000e+00
       13  1    4    4    0    0 +1.6171345385e+01 +9.0645935610e+00 -1.5981791721e+02 1.6088958044e+02 1.0566000000e-01 0.0000e+00 -1.0000e+00
      -13  1    4    4    0    0 +4.6227683382e+00 -5.0240318015e+00 -2.6485785400e+02 2.6494585272e+02 1.0566000000e-01 0.0000e+00 1.0000e+00
      -14  1    4    4    0    0 +7.9434801617e+00 -6.1903372896e+00 -1.1303843066e+02 1.1348614875e+02 0.0000000000e+00 0.0000e+00 1.0000e+00
<mgrwt>
<rscale>  0 0.79545686E+02</rscale>
<asrwt>0</asrwt>
<pdfrwt beam="1">  1        2 0.10348176E+00 0.79545686E+02</pdfrwt>
<pdfrwt beam="2">  1       -1 0.36181182E-03 0.79545686E+02</pdfrwt>
<totfact> 0.33632514E+05</totfact>
</mgrwt>
</event>
<event>
 8      1 +5.0320763e-08 8.12102700e+01 7.81860800e-03 1.32565200e-01
       -1 -1    0    0    0  501 -0.0000000000e+00 +0.0000000000e+00 +2.2459714329e+01 2.2459714894e+01 5.0400000000e-03 0.0000e+00 1.0000e+00
        2 -1    0    0  501    0 +0.0000000000e+00 -0.0000000000e+00 -7.3410407189e+01 7.3410407233e+01 2.5500000000e-03 0.0000e+00 -1.0000e+00
       24  2    1    2    0    0 +3.5527136788e-15 -3.5527136788e-15 -5.0950692860e+01 9.5870122127e+01 8.1210265446e+01 0.0000e+00 0.0000e+00
       66  2    3    3    0    0 +1.6905006142e+01 -2.5693939754e+01 -9.0741056270e+00 4.3912278686e+01 2.9999850895e+01 0.0000e+00 0.0000e+00
      -13  1    3    3    0    0 -1.6905006142e+01 +2.5693939754e+01 -4.1876587233e+01 5.1957843441e+01 1.0566000000e-01 0.0000e+00 1.0000e+00
       13  1    4    4    0    0 -9.7583112718e-01 -7.7335176853e+00 -4.1561466445e+00 8.8342663047e+00 1.0566000000e-01 0.0000e+00 -1.0000e+00
      -13  1    4    4    0    0 +1.0394787769e+00 -1.6030558224e+01 +3.0428639395e+00 1.6350214008e+01 1.0566000000e-01 0.0000e+00 1.0000e+00
       14  1    4    4    0    0 +1.6841358492e+01 -1.9298638445e+00 -7.9608229220e+00 1.8727798373e+01 0.0000000000e+00 0.0000e+00 -1.0000e+00
<mgrwt>
<rscale>  0 0.81210265E+02</rscale>
<asrwt>0</asrwt>
<pdfrwt beam="1">  1        2 0.11293909E-01 0.81210265E+02</pdfrwt>
<pdfrwt beam="2">  1       -1 0.34553408E-02 0.81210265E+02</pdfrwt>
<totfact> 0.15686528E+05</totfact>
</mgrwt>
</event>
<event>
 8      1 +5.0320763e-08 8.00099000e+01 7.81860800e-03 1.32902300e-01
       -2 -1    0    0    0  501 -0.0000000000e+00 +0.0000000000e+00 +1.0240665558e+02 1.0240665562e+02 2.5500000000e-03 0.0000e+00 1.0000e+00
        1 -1    0    0  501    0 +0.0000000000e+00 -0.0000000000e+00 -1.5627852976e+01 1.5627853788e+01 5.0400000000e-03 0.0000e+00 -1.0000e+00
      -24  2    1    2    0    0 -1.7763568394e-15 +3.5527136788e-15 +8.6778802608e+01 1.1803450940e+02 8.0009904563e+01 0.0000e+00 0.0000e+00
       66  2    3    3    0    0 -3.2280037331e+00 +2.0551282877e+01 +8.9870033643e+01 9.7002578695e+01 3.0001701461e+01 0.0000e+00 0.0000e+00
       13  1    3    3    0    0 +3.2280037331e+00 -2.0551282877e+01 -3.0912310353e+00 2.1031930708e+01 1.0566000000e-01 0.0000e+00 -1.0000e+00
       13  1    4    4    0    0 -6.5472191135e+00 +1.1532646413e+01 +1.7225158760e+01 2.1739026422e+01 1.0566000000e-01 0.0000e+00 -1.0000e+00
      -13  1    4    4    0    0 +4.4037778248e+00 +1.3820652658e+01 +5.9024130654e+01 6.0780448029e+01 1.0566000000e-01 0.0000e+00 1.0000e+00
      -14  1    4    4    0    0 -1.0845624444e+00 -4.8020161947e+00 +1.3620744228e+01 1.4483104244e+01 0.0000000000e+00 0.0000e+00 1.0000e+00
<mgrwt>
<rscale>  0 0.80009905E+02</rscale>
<asrwt>0</asrwt>
<pdfrwt beam="1">  1        1 0.24042850E-02 0.80009905E+02</pdfrwt>
<pdfrwt beam="2">  1       -2 0.15754871E-01 0.80009905E+02</pdfrwt>
<totfact> 0.10546471E+05</totfact>
</mgrwt>
</event>
<event>
 8      1 +5.0320763e-08 8.00648000e+01 7.81860800e-03 1.32886800e-01
       -1 -1    0    0    0  501 -0.0000000000e+00 +0.0000000000e+00 +7.7085082151e-01 7.7086729768e-01 5.0400000000e-03 0.0000e+00 1.0000e+00
        2 -1    0    0  501    0 +0.0000000000e+00 -0.0000000000e+00 -2.0789703534e+03 2.0789703534e+03 2.5500000000e-03 0.0000e+00 -1.0000e+00
       24  2    1    2    0    0 -3.5527136788e-15 -4.4408920985e-16 -2.0781995026e+03 2.0797412207e+03 8.0064802242e+01 0.0000e+00 0.0000e+00
       66  2    3    3    0    0 -1.3649612342e+01 -3.3187839719e+00 -2.0009901978e+03 2.0012643824e+03 3.0000504127e+01 0.0000e+00 0.0000e+00
      -13  1    3    3    0    0 +1.3649612342e+01 +3.3187839719e+00 -7.7209304779e+01 7.8476838319e+01 1.0566000000e-01 0.0000e+00 1.0000e+00
       13  1    4    4    0    0 +3.6494237822e+00 -7.2854961825e+00 -1.0077405448e+03 1.0077734931e+03 1.0566000000e-01 0.0000e+00 -1.0000e+00
      -13  1    4    4    0    0 -5.2305775025e+00 +7.6384336890e+00 -3.9989473746e+02 4.0000189602e+02 1.0566000000e-01 0.0000e+00 1.0000e+00
       14  1    4    4    0    0 -1.2068458622e+01 -3.6717214784e+00 -5.9335491556e+02 5.9348899320e+02 0.0000000000e+00 0.0000e+00 -1.0000e+00
<mgrwt>
<rscale>  0 0.80064802E+02</rscale>
<asrwt>0</asrwt>
<pdfrwt beam="1">  1        2 0.31983711E+00 0.80064802E+02</pdfrwt>
<pdfrwt beam="2">  1       -1 0.11859537E-03 0.80064802E+02</pdfrwt>
<totfact> 0.26674172E+05</totfact>
</mgrwt>
</event>
<event>
 8      1 +5.0320763e-08 7.83260000e+01 7.81860800e-03 1.33387000e-01
       -2 -1    0    0    0  501 -0.0000000000e+00 +0.0000000000e+00 +2.6806663600e+02 2.6806663602e+02 2.5500000000e-03 0.0000e+00 1.0000e+00
        1 -1    0    0  501    0 +0.0000000000e+00 -0.0000000000e+00 -5.7214886610e+00 5.7214908809e+00 5.0400000000e-03 0.0000e+00 -1.0000e+00
      -24  2    1    2    0    0 +3.5527136788e-15 -8.8817841970e-16 +2.6234514734e+02 2.7378812690e+02 7.8325998847e+01 0.0000e+00 0.0000e+00
       66  2    3    3    0    0 -2.2577248640e+01 +6.9615266502e+00 +2.3303229315e+02 2.3613909511e+02 2.9990458148e+01 0.0000e+00 0.0000e+00
       13  1    3    3    0    0 +2.2577248640e+01 -6.9615266502e+00 +2.9312854196e+01 3.7649031788e+01 1.0566000000e-01 0.0000e+00 -1.0000e+00
       13  1    4    4    0    0 -1.1766580206e+01 +3.5606255940e+00 +5.1219749132e+01 5.2674513093e+01 1.0566000000e-01 0.0000e+00 -1.0000e+00
      -13  1    4    4    0    0 -8.9454391978e+00 +1.2137806407e+01 +9.4392987309e+01 9.5589719342e+01 1.0566000000e-01 0.0000e+00 1.0000e+00
       14  1    4    4    0    0 -1.8652292361e+00 -8.7369053510e+00 +8.7419556705e+01 8.7874862673e+01 0.0000000000e+00 0.0000e+00 -1.0000e+00
<mgrwt>
<rscale>  0 0.78325999E+02</rscale>
<asrwt>0</asrwt>
<pdfrwt beam="1">  1        1 0.88022926E-03 0.78325999E+02</pdfrwt>
<pdfrwt beam="2">  1       -2 0.41241018E-01 0.78325999E+02</pdfrwt>
<totfact> 0.78707714E+04</totfact>
</mgrwt>
</event>
<event>
 8      1 +5.0320763e-08 8.06410800e+01 7.81860800e-03 1.32724200e-01
       -2 -1    0    0    0  501 -0.0000000000e+00 +0.0000000000e+00 +2.8887793326e+02 2.8887793327e+02 2.5500000000e-03 0.0000e+00 1.0000e+00
        1 -1    0    0  501    0 +0.0000000000e+00 -0.0000000000e+00 -5.6277947162e+00 5.6277969730e+00 5.0400000000e-03 0.0000e+00 -1.0000e+00
      -24  2    1    2    0    0 +7.1054273576e-15 -3.5527136788e-15 +2.8325013854e+02 2.9450573024e+02 8.0641082344e+01 0.0000e+00 0.0000e+00
       66  2    3    3    0    0 +2.4342756901e+01 -2.3544679662e+01 +1.3294904682e+02 1.4043642411e+02 3.0000306894e+01 0.0000e+00 0.0000e+00
       13  1    3    3    0    0 -2.4342756901e+01 +2.3544679662e+01 +1.5030109172e+02 1.5406930613e+02 1.0566000000e-01 0.0000e+00 -1.0000e+00
       13  1    4    4    0    0 -1.2806089644e+00 +1.5962050900e+00 +2.7791750485e+01 2.7867191984e+01 1.0566000000e-01 0.0000e+00 -1.0000e+00
      -13  1    4    4    0    0 +1.2042757154e+01 -6.7982085621e+00 +6.4292423820e+01 6.5762987799e+01 1.0566000000e-01 0.0000e+00 1.0000e+00
      -14  1    4    4    0    0 +1.3580608712e+01 -1.8342676190e+01 +4.0864872514e+01 4.6806244330e+01 0.0000000000e+00 0.0000e+00 1.0000e+00
<mgrwt>
<rscale>  0 0.80641082E+02</rscale>
<asrwt>0</asrwt>
<pdfrwt beam="1">  1        1 0.86581461E-03 0.80641082E+02</pdfrwt>
<pdfrwt beam="2">  1       -2 0.44442766E-01 0.80641082E+02</pdfrwt>
<totfact> 0.70244925E+04</totfact>
</mgrwt>
</event>
<event>
 8      1 +5.0320763e-08 8.20699100e+01 7.81860800e-03 1.32327800e-01
        1 -1    0    0  501    0 +0.0000000000e+00 +0.0000000000e+00 +2.1271918703e+02 2.1271918709e+02 5.0400000000e-03 0.0000e+00 -1.0000e+00
       -2 -1    0    0    0  501 -0.0000000000e+00 -0.0000000000e+00 -7.9159175051e+00 7.9159179158e+00 2.5500000000e-03 0.0000e+00 1.0000e+00
      -24  2    1    2    0    0 -3.5527136788e-15 +3.5527136788e-15 +2.0480326953e+02 2.2063510501e+02 8.2069911373e+01 0.0000e+00 0.0000e+00
       66  2    3    3    0    0 +3.0742809032e+01 -1.7644151908e+01 +1.0878174295e+02 1.1827993350e+02 3.0003977506e+01 0.0000e+00 0.0000e+00
       13  1    3    3    0    0 -3.0742809032e+01 +1.7644151908e+01 +9.6021526576e+01 1.0235517150e+02 1.0566000000e-01 0.0000e+00 -1.0000e+00
       13  1    4    4    0    0 +1.8736036502e+01 -5.2730851927e+00 +4.9727549449e+01 5.3401168802e+01 1.0566000000e-01 0.0000e+00 -1.0000e+00
      -13  1    4    4    0    0 +1.2327864357e+01 -1.2220474229e+01 +2.2963242807e+01 2.8786071532e+01 1.0566000000e-01 0.0000e+00 1.0000e+00
      -14  1    4    4    0    0 -3.2109182714e-01 -1.5059248630e-01 +3.6090950694e+01 3.6092693167e+01 0.0000000000e+00 0.0000e+00 1.0000e+00
<mgrwt>
<rscale>  0 0.82069911E+02</rscale>
<asrwt>0</asrwt>
<pdfrwt beam="1">  1        1 0.32726035E-01 0.82069911E+02</pdfrwt>
<pdfrwt beam="2">  1       -2 0.12178333E-02 0.82069911E+02</pdfrwt>
<totfact> 0.15768325E+05</totfact>
</mgrwt>
</event>
<event>
 8      1 +5.0320763e-08 7.96331300e+01 7.81860800e-03 1.33009600e-01
       -4 -1    0    0    0  501 -0.0000000000e+00 +0.0000000000e+00 +3.2839419232e+02 3.2839664805e+02 1.2700000000e+00 0.0000e+00 1.0000e+00
        3 -1    0    0  501    0 +0.0000000000e+00 -0.0000000000e+00 -4.8258273267e+00 4.8268841282e+00 1.0100000000e-01 0.0000e+00 -1.0000e+00
      -24  2    1    2    0    0 -7.1054273576e-15 -7.1054273576e-15 +3.2356836499e+02 3.3322353218e+02 7.9633131119e+01 0.0000e+00 0.0000e+00
       66  2    3    3    0    0 +2.4019268854e+01 +2.3988520438e+01 +1.6864203029e+02 1.7462165722e+02 3.0003573171e+01 0.0000e+00 0.0000e+00
       13  1    3    3    0    0 -2.4019268854e+01 -2.3988520438e+01 +1.5492633471e+02 1.5860187495e+02 1.0566000000e-01 0.0000e+00 -1.0000e+00
       13  1    4    4    0    0 +2.8509972238e+00 +9.4914551195e+00 +8.3040212138e+01 8.3629563561e+01 1.0566000000e-01 0.0000e+00 -1.0000e+00
      -13  1    4    4    0    0 +1.0214012657e+01 +1.1016180355e+01 +7.0112685598e+01 7.1704129100e+01 1.0566000000e-01 0.0000e+00 1.0000e+00
       14  1    4    4    0    0 +1.0954258973e+01 +3.4808849635e+00 +1.5489132551e+01 1.9287964563e+01 0.0000000000e+00 0.0000e+00 -1.0000e+00
<mgrwt>
<rscale>  0 0.79633131E+02</rscale>
<asrwt>0</asrwt>
<pdfrwt beam="1">  1        3 0.74251778E-03 0.79633131E+02</pdfrwt>
<pdfrwt beam="2">  1       -4 0.50535204E-01 0.79633131E+02</pdfrwt>
<totfact> 0.26414259E+04</totfact>
</mgrwt>
</event>
<event>
 8      1 +5.0320763e-08 8.01787000e+01 7.81860800e-03 1.32854500e-01
        2 -1    0    0  501    0 +0.0000000000e+00 +0.0000000000e+00 +1.8866381097e+01 1.8866381270e+01 2.5500000000e-03 0.0000e+00 -1.0000e+00
       -1 -1    0    0    0  501 -0.0000000000e+00 -0.0000000000e+00 -8.5186235392e+01 8.5186235541e+01 5.0400000000e-03 0.0000e+00 1.0000e+00
       24  2    1    2    0    0 -3.5527136788e-15 -1.7763568394e-15 -6.6319854295e+01 1.0405261681e+02 8.0178700361e+01 0.0000e+00 0.0000e+00
       66  2    3    3    0    0 +3.1141237283e+01 -8.0232554619e+00 -2.1671275568e+01 4.9028476344e+01 2.9999967003e+01 0.0000e+00 0.0000e+00
      -13  1    3    3    0    0 -3.1141237283e+01 +8.0232554619e+00 -4.4648578727e+01 5.5024140467e+01 1.0566000000e-01 0.0000e+00 1.0000e+00
       13  1    4    4    0    0 +6.1267770652e+00 +3.7980939205e+00 +6.0748181320e-01 7.2348540293e+00 1.0566000000e-01 0.0000e+00 -1.0000e+00
      -13  1    4    4    0    0 +9.2311753444e+00 +6.3630243902e+00 -5.8737275442e+00 1.2657587327e+01 1.0566000000e-01 0.0000e+00 1.0000e+00
       14  1    4    4    0    0 +1.5783284874e+01 -1.8184373773e+01 -1.6405029837e+01 2.9136034988e+01 0.0000000000e+00 0.0000e+00 -1.0000e+00
<mgrwt>
<rscale>  0 0.80178700E+02</rscale>
<asrwt>0</asrwt>
<pdfrwt beam="1">  1        2 0.29025202E-02 0.80178700E+02</pdfrwt>
<pdfrwt beam="2">  1       -1 0.13105575E-01 0.80178700E+02</pdfrwt>
<totfact> 0.12190421E+05</totfact>
</mgrwt>
</event>
<event>
 8      1 +5.0320763e-08 8.01198900e+01 7.81860800e-03 1.32871200e-01
       -2 -1    0    0    0  501 -0.0000000000e+00 +0.0000000000e+00 +5.0156171740e+01 5.0156171805e+01 2.5500000000e-03 0.0000e+00 1.0000e+00
        3 -1    0    0  501    0 +0.0000000000e+00 -0.0000000000e+00 -3.1995912110e+01 3.1996071521e+01 1.0100000000e-01 0.0000e+00 -1.0000e+00
      -24  2    1    2    0    0 +0.0000000000e+00 +0.0000000000e+00 +1.8160259630e+01 8.2152243325e+01 8.0119885506e+01 0.0000e+00 0.0000e+00
       66  2    3    3    0    0 -2.5841253182e+01 +1.3749627206e+01 +2.8965615733e+01 5.0949847602e+01 3.0000957677e+01 0.0000e+00 0.0000e+00
       13  1    3    3    0    0 +2.5841253182e+01 -1.3749627206e+01 -1.0805356103e+01 3.1202395724e+01 1.0566000000e-01 0.0000e+00 -1.0000e+00
       13  1    4    4    0    0 -1.1542841229e+01 +5.4299212682e+00 +2.0966242797e+00 1.2927808245e+01 1.0566000000e-01 0.0000e+00 -1.0000e+00
      -13  1    4    4    0    0 -1.4446396780e+01 +1.4550440509e+01 +2.2302636262e+01 3.0295749656e+01 1.0566000000e-01 0.0000e+00 1.0000e+00
      -14  1    4    4    0    0 +1.4798482650e-01 -6.2307345716e+00 +4.5663551909e+00 7.7262897007e+00 0.0000000000e+00 0.0000e+00 1.0000e+00
<mgrwt>
<rscale>  0 0.80119886E+02</rscale>
<asrwt>0</asrwt>
<pdfrwt beam="1">  1        3 0.49224681E-02 0.80119886E+02</pdfrwt>
<pdfrwt beam="2">  1       -2 0.77163341E-02 0.80119886E+02</pdfrwt>
<totfact> 0.74857470E+04</totfact>
</mgrwt>
</event>
<event>
 8      1 +5.0320763e-08 7.97031600e+01 7.81860800e-03 1.32989600e-01
       -3 -1    0    0    0  501 -0.0000000000e+00 +0.0000000000e+00 +3.4807744080e+01 3.4807890613e+01 1.0100000000e-01 0.0000e+00 1.0000e+00
        4 -1    0    0  501    0 +0.0000000000e+00 -0.0000000000e+00 -4.5605707406e+01 4.5623387073e+01 1.2700000000e+00 0.0000e+00 -1.0000e+00
       24  2    1    2    0    0 -8.8817841970e-16 -7.1054273576e-15 -1.0797963326e+01 8.0431277686e+01 7.9703164418e+01 0.0000e+00 0.0000e+00
       66  2    3    3    0    0 -3.0981091042e+00 -3.1334480457e+01 -1.9648888807e+01 4.7723511155e+01 3.0000112334e+01 0.0000e+00 0.0000e+00
      -13  1    3    3    0    0 +3.0981091042e+00 +3.1334480457e+01 +8.8509254817e+00 3.2707766531e+01 1.0566000000e-01 0.0000e+00 1.0000e+00
       13  1    4    4    0    0 +4.6901670342e+00 -4.6394172840e+00 -1.4025414924e+01 1.5499847979e+01 1.0566000000e-01 0.0000e+00 -1.0000e+00
      -13  1    4    4    0    0 -1.3872198353e+00 -2.1434893928e+01 -8.9838337166e+00 2.3283030061e+01 1.0566000000e-01 0.0000e+00 1.0000e+00
      -14  1    4    4    0    0 -6.4010563031e+00 -5.2601692454e+00 +3.3603598330e+00 8.9406331148e+00 0.0000000000e+00 0.0000e+00 1.0000e+00
<mgrwt>
<rscale>  0 0.79703164E+02</rscale>
<asrwt>0</asrwt>
<pdfrwt beam="1">  1        4 0.70194044E-02 0.79703164E+02</pdfrwt>
<pdfrwt beam="2">  1       -3 0.53550578E-02 0.79703164E+02</pdfrwt>
<totfact> 0.45355284E+04</totfact>
</mgrwt>
</event>
<event>
 8      1 +5.0320763e-08 7.98223600e+01 7.81860800e-03 1.32955600e-01
        2 -1    0    0  501    0 +0.0000000000e+00 +0.0000000000e+00 +1.9526839644e+01 1.9526839810e+01 2.5500000000e-03 0.0000e+00 -1.0000e+00
       -1 -1    0    0    0  501 -0.0000000000e+00 -0.0000000000e+00 -8.1575022545e+01 8.1575022701e+01 5.0400000000e-03 0.0000e+00 1.0000e+00
       24  2    1    2    0    0 +1.7763568394e-15 -3.5527136788e-15 -6.2048182901e+01 1.0110186251e+02 7.9822362793e+01 0.0000e+00 0.0000e+00
       66  2    3    3    0    0 +9.4684293003e+00 -1.1960099014e+01 +3.4718374268e+00 3.3829436141e+01 2.9994699076e+01 0.0000e+00 0.0000e+00
      -13  1    3    3    0    0 -9.4684293003e+00 +1.1960099014e+01 -6.5520020328e+01 6.7272426370e+01 1.0566000000e-01 0.0000e+00 1.0000e+00
       13  1    4    4    0    0 +6.3938392206e+00 +5.2025442739e+00 +2.6609488050e+00 8.6625319323e+00 1.0566000000e-01 0.0000e+00 -1.0000e+00
      -13  1    4    4    0    0 +1.0090823285e+01 -9.3283219344e+00 -2.8430043504e+00 1.4033393832e+01 1.0566000000e-01 0.0000e+00 1.0000e+00
       14  1    4    4    0    0 -7.0162332050e+00 -7.8343213537e+00 +3.6538929722e+00 1.1133510377e+01 0.0000000000e+00 0.0000e+00 -1.0000e+00
<mgrwt>
<rscale>  0 0.79822363E+02</rscale>
<asrwt>0</asrwt>
<pdfrwt beam="1">  1        2 0.30041292E-02 0.79822363E+02</pdfrwt>
<pdfrwt beam="2">  1       -1 0.12550003E-01 0.79822363E+02</pdfrwt>
<totfact> 0.12434849E+05</totfact>
</mgrwt>
</event>
<event>
 8      1 +5.0320763e-08 8.16776400e+01 7.81860800e-03 1.32435700e-01
       -1 -1    0    0    0  501 -0.0000000000e+00 +0.0000000000e+00 +5.4980788896e+00 5.4980811996e+00 5.0400000000e-03 0.0000e+00 1.0000e+00
        2 -1    0    0  501    0 +0.0000000000e+00 -0.0000000000e+00 -3.0334394683e+02 3.0334394684e+02 2.5500000000e-03 0.0000e+00 -1.0000e+00
       24  2    1    2    0    0 +0.0000000000e+00 +1.7763568394e-15 -2.9784586794e+02 3.0884202804e+02 8.1677642197e+01 0.0000e+00 0.0000e+00
       66  2    3    3    0    0 -8.0241246176e+00 -1.5445598579e+01 -2.8526423017e+02 2.8736502024e+02 3.0000345784e+01 0.0000e+00 0.0000e+00
      -13  1    3    3    0    0 +8.0241246176e+00 +1.5445598579e+01 -1.2581637768e+01 2.1477007806e+01 1.0566000000e-01 0.0000e+00 1.0000e+00
       13  1    4    4    0    0 -7.1072407172e+00 -1.8899250043e+01 -2.1263729495e+02 2.1359383158e+02 1.0566000000e-01 0.0000e+00 -1.0000e+00
      -13  1    4    4    0    0 -4.2585991405e+00 +3.5419324396e+00 -1.4106858709e+01 1.5155711092e+01 1.0566000000e-01 0.0000e+00 1.0000e+00
      -14  1    4    4    0    0 +3.3417152401e+00 -8.8280975283e-02 -5.8520076517e+01 5.8615477562e+01 0.0000000000e+00 0.0000e+00 1.0000e+00
<mgrwt>
<rscale>  0 0.81677642E+02</rscale>
<asrwt>0</asrwt>
<pdfrwt beam="1">  1        2 0.46668287E-01 0.81677642E+02</pdfrwt>
<pdfrwt beam="2">  1       -1 0.84585871E-03 0.81677642E+02</pdfrwt>
<totfact> 0.24240264E+05</totfact>
</mgrwt>
</event>
<event>
 8      1 +5.0320763e-08 8.67217000e+01 7.81860800e-03 1.31099100e-01
        1 -1    0    0  501    0 +0.0000000000e+00 +0.0000000000e+00 +3.8603700092e+02 3.8603700095e+02 5.0400000000e-03 0.0000e+00 -1.0000e+00
       -2 -1    0    0    0  501 -0.0000000000e+00 -0.0000000000e+00 -4.8704217701e+00 4.8704224377e+00 2.5500000000e-03 0.0000e+00 1.0000e+00
      -24  2    1    2    0    0 +0.0000000000e+00 +0.0000000000e+00 +3.8116657914e+02 3.9090742339e+02 8.6721696253e+01 0.0000e+00 0.0000e+00
       66  2    3    3    0    0 -2.2574798796e+01 -3.0264841992e+01 +1.8808503741e+02 1.9416882746e+02 2.9999501007e+01 0.0000e+00 0.0000e+00
       13  1    3    3    0    0 +2.2574798796e+01 +3.0264841992e+01 +1.9308154174e+02 1.9673859592e+02 1.0566000000e-01 0.0000e+00 -1.0000e+00
       13  1    4    4    0    0 -7.4727579261e+00 -3.7474782686e+00 +4.4163774680e+01 4.4948146374e+01 1.0566000000e-01 0.0000e+00 -1.0000e+00
      -13  1    4    4    0    0 -4.5466113625e-01 -1.6482945707e+01 +3.3032675416e+01 3.6919683438e+01 1.0566000000e-01 0.0000e+00 1.0000e+00
      -14  1    4    4    0    0 -1.4647379734e+01 -1.0034418016e+01 +1.1088858731e+02 1.1230099765e+02 0.0000000000e+00 0.0000e+00 1.0000e+00
<mgrwt>
<rscale>  0 0.86721696E+02</rscale>
<asrwt>0</asrwt>
<pdfrwt beam="1">  1        1 0.59390318E-01 0.86721696E+02</pdfrwt>
<pdfrwt beam="2">  1       -2 0.74929559E-03 0.86721696E+02</pdfrwt>
<totfact> 0.15261582E+05</totfact>
</mgrwt>
</event>
<event>
 8      1 +5.0320763e-08 7.97149200e+01 7.81860800e-03 1.32986200e-01
       -3 -1    0    0    0  501 -0.0000000000e+00 +0.0000000000e+00 +8.5448094824e+01 8.5448154515e+01 1.0100000000e-01 0.0000e+00 1.0000e+00
        4 -1    0    0  501    0 +0.0000000000e+00 -0.0000000000e+00 -1.8565155204e+01 1.8608543407e+01 1.2700000000e+00 0.0000e+00 -1.0000e+00
       24  2    1    2    0    0 -8.8817841970e-16 +7.1054273576e-15 +6.6882939621e+01 1.0405669792e+02 7.9714921880e+01 0.0000e+00 0.0000e+00
       66  2    3    3    0    0 +4.6016601693e+00 -3.3888686006e+01 +3.9394083386e+01 6.0178836801e+01 2.9999671286e+01 0.0000e+00 0.0000e+00
      -13  1    3    3    0    0 -4.6016601693e+00 +3.3888686006e+01 +2.7488856234e+01 4.3877861122e+01 1.0566000000e-01 0.0000e+00 1.0000e+00
       13  1    4    4    0    0 -7.8659007313e+00 -1.0475128845e+01 +4.5815587458e+00 1.3878132555e+01 1.0566000000e-01 0.0000e+00 1.0000e+00
      -13  1    4    4    0    0 +1.2913456868e+01 -1.0311816501e+01 +1.3780012413e+01 2.1517221800e+01 1.0566000000e-01 0.0000e+00 -1.0000e+00
      -14  1    4    4    0    0 -4.4589596765e-01 -1.3101740660e+01 +2.1032512228e+01 2.4783482446e+01 0.0000000000e+00 0.0000e+00 1.0000e+00
<mgrwt>
<rscale>  0 0.79714922E+02</rscale>
<asrwt>0</asrwt>
<pdfrwt beam="1">  1        4 0.28602411E-02 0.79714922E+02</pdfrwt>
<pdfrwt beam="2">  1       -3 0.13145887E-01 0.79714922E+02</pdfrwt>
<totfact> 0.44016586E+04</totfact>
</mgrwt>
</event>
<event>
 8      1 +5.0320763e-08 7.85014200e+01 7.81860800e-03 1.33335900e-01
       -2 -1    0    0    0  501 -0.0000000000e+00 +0.0000000000e+00 +3.0578518016e+01 3.0578518122e+01 2.5500000000e-03 0.0000e+00 1.0000e+00
        1 -1    0    0  501    0 +0.0000000000e+00 -0.0000000000e+00 -5.0382366683e+01 5.0382366935e+01 5.0400000000e-03 0.0000e+00 -1.0000e+00
      -24  2    1    2    0    0 +0.0000000000e+00 +1.7763568394e-15 -1.9803848667e+01 8.0960885057e+01 7.8501417103e+01 0.0000e+00 0.0000e+00
       66  2    3    3    0    0 +3.1622429453e+01 +9.6483601662e+00 -1.7047688225e+01 4.7784440359e+01 2.9994335602e+01 0.0000e+00 0.0000e+00
       13  1    3    3    0    0 -3.1622429453e+01 -9.6483601662e+00 -2.7561604428e+00 3.3176444698e+01 1.0566000000e-01 0.0000e+00 -1.0000e+00
       13  1    4    4    0    0 +5.0576122502e+00 -1.7151433891e+00 -7.1756977479e+00 8.9455553614e+00 1.0566000000e-01 0.0000e+00 -1.0000e+00
      -13  1    4    4    0    0 +2.3871841401e+01 +1.4834314941e+01 -7.9173716471e-02 2.8105856047e+01 1.0566000000e-01 0.0000e+00 1.0000e+00
       14  1    4    4    0    0 +2.6929758014e+00 -3.4708113852e+00 -9.7928167602e+00 1.0733028950e+01 0.0000000000e+00 0.0000e+00 -1.0000e+00
<mgrwt>
<rscale>  0 0.78501417E+02</rscale>
<asrwt>0</asrwt>
<pdfrwt beam="1">  1        1 0.77511334E-02 0.78501417E+02</pdfrwt>
<pdfrwt beam="2">  1       -2 0.47043874E-02 0.78501417E+02</pdfrwt>
<totfact> 0.13882862E+05</totfact>
</mgrwt>
</event>
<event>
 8      1 +5.0320763e-08 9.22522600e+01 7.81860800e-03 1.29748700e-01
        2 -1    0    0  501    0 +0.0000000000e+00 +0.0000000000e+00 +4.3196882031e+02 4.3196882032e+02 2.5500000000e-03 0.0000e+00 -1.0000e+00
       -1 -1    0    0    0  501 -0.0000000000e+00 -0.0000000000e+00 -4.9253998453e+00 4.9254024239e+00 5.0400000000e-03 0.0000e+00 1.0000e+00
       24  2    1    2    0    0 +0.0000000000e+00 +8.8817841970e-16 +4.2704342047e+02 4.3689422274e+02 9.2252256898e+01 0.0000e+00 0.0000e+00
       66  2    3    3    0    0 -2.3802686581e+01 -4.4304508606e+00 +3.9425492103e+02 3.9613525266e+02 2.9999980940e+01 0.0000e+00 0.0000e+00
      -13  1    3    3    0    0 +2.3802686581e+01 +4.4304508606e+00 +3.2788499435e+01 4.0758970086e+01 1.0566000000e-01 0.0000e+00 1.0000e+00
       13  1    4    4    0    0 -1.0913452398e+01 +9.4626890386e+00 +2.4279294125e+02 2.4322226340e+02 1.0566000000e-01 0.0000e+00 -1.0000e+00
      -13  1    4    4    0    0 -6.0640710204e+00 -6.8293822709e+00 +4.0502119503e+01 4.1519227688e+01 1.0566000000e-01 0.0000e+00 1.0000e+00
      -14  1    4    4    0    0 -6.8251631625e+00 -7.0637576284e+00 +1.1095986028e+02 1.1139376157e+02 0.0000000000e+00 0.0000e+00 1.0000e+00
<mgrwt>
<rscale>  0 0.92252257E+02</rscale>
<asrwt>0</asrwt>
<pdfrwt beam="1">  1        2 0.66456736E-01 0.92252257E+02</pdfrwt>
<pdfrwt beam="2">  1       -1 0.75775409E-03 0.92252257E+02</pdfrwt>
<totfact> 0.19949969E+05</totfact>
</mgrwt>
</event>
<event>
 8      1 +5.0320763e-08 7.87668700e+01 7.81860800e-03 1.33258800e-01
        2 -1    0    0  501    0 +0.0000000000e+00 +0.0000000000e+00 +8.5820669946e+02 8.5820669947e+02 2.5500000000e-03 0.0000e+00 -1.0000e+00
       -1 -1    0    0    0  501 -0.0000000000e+00 -0.0000000000e+00 -1.8073175273e+00 1.8073245547e+00 5.0400000000e-03 0.0000e+00 1.0000e+00
       24  2    1    2    0    0 +0.0000000000e+00 -3.5527136788e-15 +8.5639938194e+02 8.6001402402e+02 7.8766872058e+01 0.0000e+00 0.0000e+00
       66  2    3    3    0    0 +1.2894014102e+01 -2.1058741418e+01 +7.4024153395e+02 7.4126056932e+02 2.9999614349e+01 0.0000e+00 0.0000e+00
      -13  1    3    3    0    0 -1.2894014102e+01 +2.1058741418e+01 +1.1615784799e+02 1.1875345470e+02 1.0566000000e-01 0.0000e+00 1.0000e+00
       13  1    4    4    0    0 +4.0860367105e+00 -3.4017746128e-01 +8.2049543759e+01 8.2151994569e+01 1.0566000000e-01 0.0000e+00 -1.0000e+00
      -13  1    4    4    0    0 -7.4120433255e+00 -2.1649167824e+00 +7.5092442511e+01 7.5488484799e+01 1.0566000000e-01 0.0000e+00 1.0000e+00
      -14  1    4    4    0    0 +1.6220020717e+01 -1.8553647174e+01 +5.8309954768e+02 5.8362008995e+02 0.0000000000e+00 0.0000e+00 1.0000e+00
<mgrwt>
<rscale>  0 0.78766872E+02</rscale>
<asrwt>0</asrwt>
<pdfrwt beam="1">  1        2 0.13203195E+00 0.78766872E+02</pdfrwt>
<pdfrwt beam="2">  1       -1 0.27804909E-03 0.78766872E+02</pdfrwt>
<totfact> 0.36170851E+05</totfact>
</mgrwt>
</event>
<event>
 8      1 +5.0320763e-08 8.15163100e+01 7.81860800e-03 1.32480300e-01
        2 -1    0    0  501    0 +0.0000000000e+00 +0.0000000000e+00 +2.5436362504e+02 2.5436362505e+02 2.5500000000e-03 0.0000e+00 -1.0000e+00
       -1 -1    0    0    0  501 -0.0000000000e+00 -0.0000000000e+00 -6.5309138046e+00 6.5309157493e+00 5.0400000000e-03 0.0000e+00 1.0000e+00
       24  2    1    2    0    0 +0.0000000000e+00 +3.5527136788e-15 +2.4783271124e+02 2.6089454080e+02 8.1516309178e+01 0.0000e+00 0.0000e+00
       66  2    3    3    0    0 +1.8417376357e+01 +1.6118954317e+01 +2.2183623267e+02 2.2518952012e+02 2.9999756769e+01 0.0000e+00 0.0000e+00
      -13  1    3    3    0    0 -1.8417376357e+01 -1.6118954317e+01 +2.5996478566e+01 3.5705020683e+01 1.0566000000e-01 0.0000e+00 1.0000e+00
       13  1    4    4    0    0 +1.1808571648e+01 +5.7888466920e+00 +8.1046186275e+01 8.2106324873e+01 1.0566000000e-01 0.0000e+00 -1.0000e+00
      -13  1    4    4    0    0 +1.3199916144e+01 +1.2439250118e+01 +8.8701831745e+01 9.0537278778e+01 1.0566000000e-01 0.0000e+00 1.0000e+00
       14  1    4    4    0    0 -6.5911114347e+00 -2.1091424931e+00 +5.2088214651e+01 5.2545916469e+01 0.0000000000e+00 0.0000e+00 -1.0000e+00
<mgrwt>
<rscale>  0 0.81516309E+02</rscale>
<asrwt>0</asrwt>
<pdfrwt beam="1">  1        2 0.39132853E-01 0.81516309E+02</pdfrwt>
<pdfrwt beam="2">  1       -1 0.10047564E-02 0.81516309E+02</pdfrwt>
<totfact> 0.22859344E+05</totfact>
</mgrwt>
</event>
<event>
 8      1 +5.0320763e-08 8.05858700e+01 7.81860800e-03 1.32739700e-01
       -1 -1    0    0    0  501 -0.0000000000e+00 +0.0000000000e+00 +3.2703592929e+01 3.2703593318e+01 5.0400000000e-03 0.0000e+00 1.0000e+00
        2 -1    0    0  501    0 +0.0000000000e+00 -0.0000000000e+00 -4.9643491592e+01 4.9643491658e+01 2.5500000000e-03 0.0000e+00 -1.0000e+00
       24  2    1    2    0    0 +3.5527136788e-15 +0.0000000000e+00 -1.6939898663e+01 8.2347084975e+01 8.0585868719e+01 0.0000e+00 0.0000e+00
       66  2    3    3    0    0 +2.7054338354e+01 +2.0525277402e+01 -1.6982192542e+01 4.8387738854e+01 2.9995902581e+01 0.0000e+00 0.0000e+00
      -13  1    3    3    0    0 -2.7054338354e+01 -2.0525277402e+01 +4.2293878936e-02 3.3959346121e+01 1.0566000000e-01 0.0000e+00 1.0000e+00
       13  1    4    4    0    0 +1.1318718632e+01 +8.7467848156e+00 -5.4897125517e+00 1.5322132489e+01 1.0566000000e-01 0.0000e+00 -1.0000e+00
      -13  1    4    4    0    0 +4.2825622578e-02 +1.4715632083e+01 -7.8946207786e+00 1.6699936015e+01 1.0566000000e-01 0.0000e+00 1.0000e+00
      -14  1    4    4    0    0 +1.5692794099e+01 -2.9371394973e+00 -3.5978592117e+00 1.6365670349e+01 0.0000000000e+00 0.0000e+00 1.0000e+00
<mgrwt>
<rscale>  0 0.80585869E+02</rscale>
<asrwt>0</asrwt>
<pdfrwt beam="1">  1        2 0.76374603E-02 0.80585869E+02</pdfrwt>
<pdfrwt beam="2">  1       -1 0.50313220E-02 0.80585869E+02</pdfrwt>
<totfact> 0.14624283E+05</totfact>
</mgrwt>
</event>
<event>
 8      1 +5.0320763e-08 7.97205500e+01 7.81860800e-03 1.32984600e-01
        3 -1    0    0  501    0 +0.0000000000e+00 +0.0000000000e+00 +7.0786060373e+01 7.0786132428e+01 1.0100000000e-01 0.0000e+00 -1.0000e+00
       -4 -1    0    0    0  501 -0.0000000000e+00 -0.0000000000e+00 -2.2421972564e+01 2.2457910714e+01 1.2700000000e+00 0.0000e+00 1.0000e+00
      -24  2    1    2    0    0 -8.8817841970e-16 +0.0000000000e+00 +4.8364087809e+01 9.3244043142e+01 7.9720553133e+01 0.0000e+00 0.0000e+00
       66  2    3    3    0    0 +5.8631535483e+00 +2.8934208348e+01 +7.3767877412e+00 4.2731322832e+01 2.9999732854e+01 0.0000e+00 0.0000e+00
       13  1    3    3    0    0 -5.8631535483e+00 -2.8934208348e+01 +4.0987300068e+01 5.0512720310e+01 1.0566000000e-01 0.0000e+00 -1.0000e+00
       13  1    4    4    0    0 +1.1163277458e+01 +3.7794287677e+00 -3.2315692931e-02 1.1786223049e+01 1.0566000000e-01 0.0000e+00 -1.0000e+00
      -13  1    4    4    0    0 -2.3849736792e-01 +3.2592843255e+00 -4.4601728201e+00 5.5302912157e+00 1.0566000000e-01 0.0000e+00 1.0000e+00
       14  1    4    4    0    0 -5.0616265421e+00 +2.1895495255e+01 +1.1869276254e+01 2.5414808567e+01 0.0000000000e+00 0.0000e+00 -1.0000e+00
<mgrwt>
<rscale>  0 0.79720553E+02</rscale>
<asrwt>0</asrwt>
<pdfrwt beam="1">  1        3 0.10890187E-01 0.79720553E+02</pdfrwt>
<pdfrwt beam="2">  1       -4 0.34531749E-02 0.79720553E+02</pdfrwt>
<totfact> 0.44867846E+04</totfact>
</mgrwt>
</event>
<event>
 8      1 +5.0320763e-08 8.04172500e+01 7.81860800e-03 1.32787100e-01
        4 -1    0    0  501    0 +0.0000000000e+00 +0.0000000000e+00 +3.6393715505e+01 3.6415867808e+01 1.2700000000e+00 0.0000e+00 -1.0000e+00
       -3 -1    0    0    0  501 -0.0000000000e+00 -0.0000000000e+00 -4.4398710705e+01 4.4398825585e+01 1.0100000000e-01 0.0000e+00 1.0000e+00
       24  2    1    2    0    0 +0.0000000000e+00 +0.0000000000e+00 -8.0049952009e+00 8.0814693393e+01 8.0417253870e+01 0.0000e+00 0.0000e+00
       66  2    3    3    0    0 +1.1625418426e+01 -3.0644476192e+01 +6.6229994799e+00 4.4922860519e+01 2.9999416668e+01 0.0000e+00 0.0000e+00
      -13  1    3    3    0    0 -1.1625418426e+01 +3.0644476192e+01 -1.4627994681e+01 3.5891832874e+01 1.0566000000e-01 0.0000e+00 1.0000e+00
       13  1    4    4    0    0 +1.9505671014e+00 -7.0355617548e+00 +4.6076996335e+00 8.6339968248e+00 1.0566000000e-01 0.0000e+00 -1.0000e+00
      -13  1    4    4    0    0 +1.1962477201e+01 -4.1684671434e+00 +8.9623055455e+00 1.5518088279e+01 1.0566000000e-01 0.0000e+00 1.0000e+00
       14  1    4    4    0    0 -2.2876258766e+00 -1.9440447294e+01 -6.9470056990e+00 2.0770775415e+01 0.0000000000e+00 0.0000e+00 -1.0000e+00
<mgrwt>
<rscale>  0 0.80417254E+02</rscale>
<asrwt>0</asrwt>
<pdfrwt beam="1">  1        4 0.56021344E-02 0.80417254E+02</pdfrwt>
<pdfrwt beam="2">  1       -3 0.68305905E-02 0.80417254E+02</pdfrwt>
<totfact> 0.44542142E+04</totfact>
</mgrwt>
</event>
<event>
 8      1 +5.0320763e-08 7.99786800e+01 7.81860800e-03 1.32911200e-01
       -1 -1    0    0    0  501 -0.0000000000e+00 +0.0000000000e+00 +4.3246909983e+01 4.3246910277e+01 5.0400000000e-03 0.0000e+00 1.0000e+00
        2 -1    0    0  501    0 +0.0000000000e+00 -0.0000000000e+00 -3.6977146865e+01 3.6977146953e+01 2.5500000000e-03 0.0000e+00 -1.0000e+00
       24  2    1    2    0    0 +0.0000000000e+00 +0.0000000000e+00 +6.2697631183e+00 8.0224057229e+01 7.9978681089e+01 0.0000e+00 0.0000e+00
       66  2    3    3    0    0 +1.6597352171e+01 -2.8165860848e+01 -7.0407651551e+00 4.4925769121e+01 2.9999409008e+01 0.0000e+00 0.0000e+00
      -13  1    3    3    0    0 -1.6597352171e+01 +2.8165860848e+01 +1.3310528273e+01 3.5298288108e+01 1.0566000000e-01 0.0000e+00 1.0000e+00
       13  1    4    4    0    0 -1.9923164056e-01 -1.8262901230e+01 -1.1798016500e+01 2.1743449863e+01 1.0566000000e-01 0.0000e+00 -1.0000e+00
      -13  1    4    4    0    0 +1.0190456203e+01 +3.9110790897e-01 +4.2863309107e-01 1.0207509656e+01 1.0566000000e-01 0.0000e+00 1.0000e+00
      -14  1    4    4    0    0 +6.6061276086e+00 -1.0294067527e+01 +4.3286182536e+00 1.2974809602e+01 0.0000000000e+00 0.0000e+00 1.0000e+00
<mgrwt>
<rscale>  0 0.79978681E+02</rscale>
<asrwt>0</asrwt>
<pdfrwt beam="1">  1        2 0.56887919E-02 0.79978681E+02</pdfrwt>
<pdfrwt beam="2">  1       -1 0.66533708E-02 0.79978681E+02</pdfrwt>
<totfact> 0.14038922E+05</totfact>
</mgrwt>
</event>
<event>
 8      1 +5.0320763e-08 7.84994000e+01 7.81860800e-03 1.33336500e-01
       -2 -1    0    0    0  501 -0.0000000000e+00 +0.0000000000e+00 +2.9734991434e+01 2.9734991544e+01 2.5500000000e-03 0.0000e+00 1.0000e+00
        1 -1    0    0  501    0 +0.0000000000e+00 -0.0000000000e+00 -5.1808962110e+01 5.1808962355e+01 5.0400000000e-03 0.0000e+00 -1.0000e+00
      -24  2    1    2    0    0 +0.0000000000e+00 +7.1054273576e-15 -2.2073970675e+01 8.1543953898e+01 7.8499402775e+01 0.0000e+00 0.0000e+00
       66  2    3    3    0    0 +7.4596035436e+00 +3.2460505528e+01 -8.7492857143e+00 4.5670725754e+01 2.9998918085e+01 0.0000e+00 0.0000e+00
       13  1    3    3    0    0 -7.4596035436e+00 -3.2460505528e+01 -1.3324684961e+01 3.5873228144e+01 1.0566000000e-01 0.0000e+00 -1.0000e+00
       13  1    4    4    0    0 +1.1853374359e+01 +8.2636610901e+00 -8.6679681619e+00 1.6850383212e+01 1.0566000000e-01 0.0000e+00 -1.0000e+00
      -13  1    4    4    0    0 +2.5625486476e+00 +1.8962884319e+01 -3.5268570392e+00 1.9457839600e+01 1.0566000000e-01 0.0000e+00 1.0000e+00
      -14  1    4    4    0    0 -6.9563194631e+00 +5.2339601182e+00 +3.4455394867e+00 9.3625029424e+00 0.0000000000e+00 0.0000e+00 1.0000e+00
<mgrwt>
<rscale>  0 0.78499403E+02</rscale>
<asrwt>0</asrwt>
<pdfrwt beam="1">  1        1 0.79706096E-02 0.78499403E+02</pdfrwt>
<pdfrwt beam="2">  1       -2 0.45746141E-02 0.78499403E+02</pdfrwt>
<totfact> 0.13943823E+05</totfact>
</mgrwt>
</event>
<event>
 8      1 +5.0320763e-08 8.40732100e+01 7.81860800e-03 1.31787400e-01
       -1 -1    0    0    0  501 -0.0000000000e+00 +0.0000000000e+00 +1.2253577880e+01 1.2253578916e+01 5.0400000000e-03 0.0000e+00 1.0000e+00
        2 -1    0    0  501    0 +0.0000000000e+00 -0.0000000000e+00 -1.4420898892e+02 1.4420898895e+02 2.5500000000e-03 0.0000e+00 -1.0000e+00
       24  2    1    2    0    0 +1.7763568394e-15 +1.7763568394e-15 -1.3195541104e+02 1.5646256786e+02 8.4073209992e+01 0.0000e+00 0.0000e+00
       66  2    3    3    0    0 -8.4079880568e+00 -1.5236313678e+01 -1.3447721995e+02 1.3887819407e+02 3.0003176250e+01 0.0000e+00 0.0000e+00
      -13  1    3    3    0    0 +8.4079880568e+00 +1.5236313678e+01 +2.5218089013e+00 1.7584373797e+01 1.0566000000e-01 0.0000e+00 1.0000e+00
       13  1    4    4    0    0 -1.0366604782e+01 -1.1649635289e+01 -8.4599381899e+01 8.6024688775e+01 1.0566000000e-01 0.0000e+00 -1.0000e+00
      -13  1    4    4    0    0 +6.8240523396e+00 -8.0080976764e+00 -3.5838116135e+01 3.7350757032e+01 1.0566000000e-01 0.0000e+00 1.0000e+00
       14  1    4    4    0    0 -4.8654356145e+00 +4.4214192872e+00 -1.4039721913e+01 1.5502748260e+01 0.0000000000e+00 0.0000e+00 -1.0000e+00
<mgrwt>
<rscale>  0 0.84073210E+02</rscale>
<asrwt>0</asrwt>
<pdfrwt beam="1">  1        2 0.22185997E-01 0.84073210E+02</pdfrwt>
<pdfrwt beam="2">  1       -1 0.18851660E-02 0.84073210E+02</pdfrwt>
<totfact> 0.17328935E+05</totfact>
</mgrwt>
</event>
<event>
 8      1 +5.0320763e-08 8.26081500e+01 7.81860800e-03 1.32180900e-01
        1 -1    0    0  501    0 +0.0000000000e+00 +0.0000000000e+00 +2.4601642544e+02 2.4601642549e+02 5.0400000000e-03 0.0000e+00 -1.0000e+00
       -2 -1    0    0    0  501 -0.0000000000e+00 -0.0000000000e+00 -6.9346034671e+00 6.9346039359e+00 2.5500000000e-03 0.0000e+00 1.0000e+00
      -24  2    1    2    0    0 +0.0000000000e+00 -3.5527136788e-15 +2.3908182197e+02 2.5295102942e+02 8.2608145424e+01 0.0000e+00 0.0000e+00
       66  2    3    3    0    0 -2.5641016984e+01 +2.4866010697e+01 +1.4494199613e+02 1.5226290593e+02 3.0000500657e+01 0.0000e+00 0.0000e+00
       13  1    3    3    0    0 +2.5641016984e+01 -2.4866010697e+01 +9.4139825836e+01 1.0068812349e+02 1.0566000000e-01 0.0000e+00 -1.0000e+00
       13  1    4    4    0    0 -9.2722853223e+00 +2.3108363685e+00 +5.3821280278e+01 5.4663119328e+01 1.0566000000e-01 0.0000e+00 -1.0000e+00
      -13  1    4    4    0    0 -2.0751981796e+01 +2.1804995218e+01 +7.3468923977e+01 7.9396451554e+01 1.0566000000e-01 0.0000e+00 1.0000e+00
      -14  1    4    4    0    0 +4.3832501347e+00 +7.5017911026e-01 +1.7651791877e+01 1.8203335049e+01 0.0000000000e+00 0.0000e+00 1.0000e+00
<mgrwt>
<rscale>  0 0.82608145E+02</rscale>
<asrwt>0</asrwt>
<pdfrwt beam="1">  1        1 0.37848678E-01 0.82608145E+02</pdfrwt>
<pdfrwt beam="2">  1       -2 0.10668622E-02 0.82608145E+02</pdfrwt>
<totfact> 0.15946180E+05</totfact>
</mgrwt>
</event>
<event>
 8      1 +5.0320763e-08 7.93869000e+01 7.81860800e-03 1.33080000e-01
        1 -1    0    0  501    0 +0.0000000000e+00 +0.0000000000e+00 +4.0249348091e+01 4.0249348406e+01 5.0400000000e-03 0.0000e+00 -1.0000e+00
       -2 -1    0    0    0  501 -0.0000000000e+00 -0.0000000000e+00 -3.9145230989e+01 3.9145231072e+01 2.5500000000e-03 0.0000e+00 1.0000e+00
      -24  2    1    2    0    0 +0.0000000000e+00 +1.1102230246e-16 +1.1041171016e+00 7.9394579479e+01 7.9386901791e+01 0.0000e+00 0.0000e+00
       66  2    3    3    0    0 -1.0564234525e+01 +7.4119443160e-01 -3.1707080081e+01 4.4916495934e+01 3.0000004324e+01 0.0000e+00 0.0000e+00
       13  1    3    3    0    0 +1.0564234525e+01 -7.4119443160e-01 +3.2811197183e+01 3.4478083544e+01 1.0566000000e-01 0.0000e+00 -1.0000e+00
       13  1    4    4    0    0 -1.4662868988e+01 +2.8715797204e+00 -1.0200407289e+01 1.8091577321e+01 1.0566000000e-01 0.0000e+00 -1.0000e+00
      -13  1    4    4    0    0 +4.4730410740e+00 +1.8400219919e+00 -2.2248564247e+01 2.2768477166e+01 1.0566000000e-01 0.0000e+00 1.0000e+00
       14  1    4    4    0    0 -3.7440661052e-01 -3.9704072807e+00 +7.4189145441e-01 4.0564414473e+00 0.0000000000e+00 0.0000e+00 -1.0000e+00
<mgrwt>
<rscale>  0 0.79386902E+02</rscale>
<asrwt>0</asrwt>
<pdfrwt beam="1">  1        1 0.61922074E-02 0.79386902E+02</pdfrwt>
<pdfrwt beam="2">  1       -2 0.60223433E-02 0.79386902E+02</pdfrwt>
<totfact> 0.12988554E+05</totfact>
</mgrwt>
</event>
<event>
 8      1 +5.0320763e-08 7.57998600e+01 7.81860800e-03 1.34141200e-01
        4 -1    0    0  501    0 +0.0000000000e+00 +0.0000000000e+00 +4.8025699276e+02 4.8025867196e+02 1.2700000000e+00 0.0000e+00 -1.0000e+00
       -3 -1    0    0    0  501 -0.0000000000e+00 -0.0000000000e+00 -2.9892051556e+00 2.9909109753e+00 1.0100000000e-01 0.0000e+00 1.0000e+00
       24  2    1    2    0    0 -3.5527136788e-15 -2.2204460493e-16 +4.7726778760e+02 4.8324958293e+02 7.5799857021e+01 0.0000e+00 0.0000e+00
       66  2    3    3    0    0 +3.1525358346e+01 +3.0778908244e-01 +3.0956415253e+02 3.1260825343e+02 3.0000210525e+01 0.0000e+00 0.0000e+00
      -13  1    3    3    0    0 -3.1525358346e+01 -3.0778908244e-01 +1.6770363507e+02 1.7064132950e+02 1.0566000000e-01 0.0000e+00 1.0000e+00
       13  1    4    4    0    0 +1.9617033995e+01 +2.6041800917e+00 +1.1820806007e+02 1.1985310345e+02 1.0566000000e-01 0.0000e+00 -1.0000e+00
      -13  1    4    4    0    0 +8.1549094612e+00 +3.8194287411e+00 +3.2151658366e+01 3.3389083305e+01 1.0566000000e-01 0.0000e+00 1.0000e+00
      -14  1    4    4    0    0 +3.7534148897e+00 -6.1158197504e+00 +1.5920443409e+02 1.5936606668e+02 0.0000000000e+00 0.0000e+00 1.0000e+00
<mgrwt>
<rscale>  0 0.75799857E+02</rscale>
<asrwt>0</asrwt>
<pdfrwt beam="1">  1        4 0.73906551E-01 0.75799857E+02</pdfrwt>
<pdfrwt beam="2">  1       -3 0.46000985E-03 0.75799857E+02</pdfrwt>
<totfact> 0.23706809E+04</totfact>
</mgrwt>
</event>
<event>
 8      1 +5.0320763e-08 7.95005800e+01 7.81860800e-03 1.33047500e-01
        3 -1    0    0  501    0 +0.0000000000e+00 +0.0000000000e+00 +1.3947648044e+01 1.3948013728e+01 1.0100000000e-01 0.0000e+00 -1.0000e+00
       -4 -1    0    0    0  501 -0.0000000000e+00 -0.0000000000e+00 -1.1325273136e+02 1.1325985193e+02 1.2700000000e+00 0.0000e+00 1.0000e+00
      -24  2    1    2    0    0 +3.5527136788e-15 -3.5527136788e-15 -9.9305083315e+01 1.2720786566e+02 7.9500575559e+01 0.0000e+00 0.0000e+00
       66  2    3    3    0    0 +2.0337238566e+01 +2.6647577361e+01 -4.6806652777e+01 6.4919881069e+01 3.0000526032e+01 0.0000e+00 0.0000e+00
       13  1    3    3    0    0 -2.0337238566e+01 -2.6647577361e+01 -5.2498430538e+01 6.2287984594e+01 1.0566000000e-01 0.0000e+00 -1.0000e+00
       13  1    4    4    0    0 -7.0850953642e+00 +7.9670652351e+00 -1.1308747988e+01 1.5542575394e+01 1.0566000000e-01 0.0000e+00 -1.0000e+00
      -13  1    4    4    0    0 +9.8643303762e+00 +1.1622256666e+01 -1.3530622123e+01 2.0383099932e+01 1.0566000000e-01 0.0000e+00 1.0000e+00
       14  1    4    4    0    0 +1.7558003554e+01 +7.0582554596e+00 -2.1967282666e+01 2.8994205743e+01 0.0000000000e+00 0.0000e+00 -1.0000e+00
<mgrwt>
<rscale>  0 0.79500576E+02</rscale>
<asrwt>0</asrwt>
<pdfrwt beam="1">  1        3 0.21458238E-02 0.79500576E+02</pdfrwt>
<pdfrwt beam="2">  1       -4 0.17428491E-01 0.79500576E+02</pdfrwt>
<totfact> 0.39999709E+04</totfact>
</mgrwt>
</event>
<event>
 8      1 +5.0320763e-08 8.26592500e+01 7.81860800e-03 1.32167000e-01
       -2 -1    0    0    0  501 -0.0000000000e+00 +0.0000000000e+00 +2.2432622473e+02 2.2432622474e+02 2.5500000000e-03 0.0000e+00 1.0000e+00
        1 -1    0    0  501    0 +0.0000000000e+00 -0.0000000000e+00 -7.6145247101e+00 7.6145263781e+00 5.0400000000e-03 0.0000e+00 -1.0000e+00
      -24  2    1    2    0    0 +1.7763568394e-15 +0.0000000000e+00 +2.1671170002e+02 2.3194075112e+02 8.2659246947e+01 0.0000e+00 0.0000e+00
       66  2    3    3    0    0 -1.0411050629e+01 +2.7715932792e+01 +1.7952800965e+02 1.8440969917e+02 3.0001133235e+01 0.0000e+00 0.0000e+00
       13  1    3    3    0    0 +1.0411050629e+01 -2.7715932792e+01 +3.7183690372e+01 4.7531051950e+01 1.0566000000e-01 0.0000e+00 -1.0000e+00
       13  1    4    4    0    0 -8.3836602179e+00 +2.4390676455e+01 +7.8000810183e+01 8.2154296357e+01 1.0566000000e-01 0.0000e+00 -1.0000e+00
      -13  1    4    4    0    0 -3.0330835000e+00 +4.5936554091e+00 +2.0932360745e+01 2.1644310013e+01 1.0566000000e-01 0.0000e+00 1.0000e+00
       14  1    4    4    0    0 +1.0056930893e+00 -1.2683990724e+00 +8.0594838718e+01 8.0611092803e+01 0.0000000000e+00 0.0000e+00 -1.0000e+00
<mgrwt>
<rscale>  0 0.82659247E+02</rscale>
<asrwt>0</asrwt>
<pdfrwt beam="1">  1        1 0.11714655E-02 0.82659247E+02</pdfrwt>
<pdfrwt beam="2">  1       -2 0.34511725E-01 0.82659247E+02</pdfrwt>
<totfact> 0.74477430E+04</totfact>
</mgrwt>
</event>
<event>
 8      1 +5.0320763e-08 8.03164400e+01 7.81860800e-03 1.32815600e-01
        1 -1    0    0  501    0 +0.0000000000e+00 +0.0000000000e+00 +5.0445241257e+01 5.0445241508e+01 5.0400000000e-03 0.0000e+00 -1.0000e+00
       -2 -1    0    0    0  501 -0.0000000000e+00 -0.0000000000e+00 -3.1968970961e+01 3.1968971063e+01 2.5500000000e-03 0.0000e+00 1.0000e+00
      -24  2    1    2    0    0 -1.7763568394e-15 +0.0000000000e+00 +1.8476270295e+01 8.2414212571e+01 8.0316435863e+01 0.0000e+00 0.0000e+00
       66  2    3    3    0    0 +2.9283225578e+00 +3.3219843201e+01 +1.9814913924e+01 4.9038530015e+01 3.0000225948e+01 0.0000e+00 0.0000e+00
       13  1    3    3    0    0 -2.9283225578e+00 -3.3219843201e+01 -1.3386436288e+00 3.3375682556e+01 1.0566000000e-01 0.0000e+00 -1.0000e+00
       13  1    4    4    0    0 -3.0588126265e+00 +4.0751702660e+00 -1.2794632359e+00 5.2546681712e+00 1.0566000000e-01 0.0000e+00 -1.0000e+00
      -13  1    4    4    0    0 -7.4676058847e+00 +1.6979057854e+00 +2.7676076780e+00 8.1436378849e+00 1.0566000000e-01 0.0000e+00 1.0000e+00
      -14  1    4    4    0    0 +1.3454741069e+01 +2.7446767150e+01 +1.8326769482e+01 3.5640223959e+01 0.0000000000e+00 0.0000e+00 1.0000e+00
<mgrwt>
<rscale>  0 0.80316436E+02</rscale>
<asrwt>0</asrwt>
<pdfrwt beam="1">  1        1 0.77608063E-02 0.80316436E+02</pdfrwt>
<pdfrwt beam="2">  1       -2 0.49183033E-02 0.80316436E+02</pdfrwt>
<totfact> 0.13031594E+05</totfact>
</mgrwt>
</event>
<event>
 8      1 +5.0320763e-08 7.87205600e+01 7.81860800e-03 1.33272200e-01
        4 -1    0    0  501    0 +0.0000000000e+00 +0.0000000000e+00 +1.0137782100e+02 1.0138577558e+02 1.2700000000e+00 0.0000e+00 -1.0000e+00
       -3 -1    0    0    0  501 -0.0000000000e+00 -0.0000000000e+00 -1.5276992415e+01 1.5277326280e+01 1.0100000000e-01 0.0000e+00 1.0000e+00
       24  2    1    2    0    0 -2.2204460493e-16 +1.7763568394e-15 +8.6100828580e+01 1.1666310186e+02 7.8720560549e+01 0.0000e+00 0.0000e+00
       66  2    3    3    0    0 +1.0992902024e+00 +1.0705041136e+01 +9.6542933631e+01 1.0166793375e+02 3.0000406235e+01 0.0000e+00 0.0000e+00
      -13  1    3    3    0    0 -1.0992902024e+00 -1.0705041136e+01 -1.0442105051e+01 1.4995168109e+01 1.0566000000e-01 0.0000e+00 1.0000e+00
       13  1    4    4    0    0 -2.7934108830e+00 +7.5685182073e-01 +4.3252718483e+01 4.3349565041e+01 1.0566000000e-01 0.0000e+00 -1.0000e+00
      -13  1    4    4    0    0 -5.1636259213e+00 +5.3457929601e+00 +4.9695008767e+00 8.9413443076e+00 1.0566000000e-01 0.0000e+00 1.0000e+00
      -14  1    4    4    0    0 +9.0563270067e+00 +4.6023963550e+00 +4.8320714272e+01 4.9377024402e+01 0.0000000000e+00 0.0000e+00 1.0000e+00
<mgrwt>
<rscale>  0 0.78720561E+02</rscale>
<asrwt>0</asrwt>
<pdfrwt beam="1">  1        4 0.15601261E-01 0.78720561E+02</pdfrwt>
<pdfrwt beam="2">  1       -3 0.23503360E-02 0.78720561E+02</pdfrwt>
<totfact> 0.42145906E+04</totfact>
</mgrwt>
</event>
<event>
 8      1 +5.0320763e-08 8.15508700e+01 7.81860800e-03 1.32470700e-01
       -3 -1    0    0    0  501 -0.0000000000e+00 +0.0000000000e+00 +9.0952860943e+01 9.0952917021e+01 1.0100000000e-01 0.0000e+00 1.0000e+00
        4 -1    0    0  501    0 +0.0000000000e+00 -0.0000000000e+00 -1.8253666323e+01 1.8297793152e+01 1.2700000000e+00 0.0000e+00 -1.0000e+00
       24  2    1    2    0    0 -4.4408920985e-16 +0.0000000000e+00 +7.2699194620e+01 1.0925071017e+02 8.1550872314e+01 0.0000e+00 0.0000e+00
       66  2    3    3    0    0 +1.1462206553e+00 -3.2464478514e+01 +5.9628605217e+01 7.4234890059e+01 2.9999869247e+01 0.0000e+00 0.0000e+00
      -13  1    3    3    0    0 -1.1462206553e+00 +3.2464478514e+01 +1.3070589402e+01 3.5015820115e+01 1.0566000000e-01 0.0000e+00 1.0000e+00
       13  1    4    4    0    0 -3.7665477209e+00 -1.2618130808e+01 +1.5651955594e+01 2.0454803465e+01 1.0566000000e-01 0.0000e+00 1.0000e+00
      -13  1    4    4    0    0 -4.0256981127e+00 +1.8249491991e+00 +1.9072931400e+01 1.9578676184e+01 1.0566000000e-01 0.0000e+00 -1.0000e+00
       14  1    4    4    0    0 +8.9384664889e+00 -2.1671296905e+01 +2.4903718223e+01 3.4201410410e+01 0.0000000000e+00 0.0000e+00 -1.0000e+00
<mgrwt>
<rscale>  0 0.81550872E+02</rscale>
<asrwt>0</asrwt>
<pdfrwt beam="1">  1        4 0.28123326E-02 0.81550872E+02</pdfrwt>
<pdfrwt beam="2">  1       -3 0.13992774E-01 0.81550872E+02</pdfrwt>
<totfact> 0.40990590E+04</totfact>
</mgrwt>
</event>
<event>
 8      1 +5.0320763e-08 7.94242600e+01 7.81860800e-03 1.33069300e-01
       -1 -1    0    0    0  501 -0.0000000000e+00 +0.0000000000e+00 +2.1698307017e+00 2.1698365550e+00 5.0400000000e-03 0.0000e+00 1.0000e+00
        2 -1    0    0  501    0 +0.0000000000e+00 -0.0000000000e+00 -7.2680845719e+02 7.2680845720e+02 2.5500000000e-03 0.0000e+00 -1.0000e+00
       24  2    1    2    0    0 +0.0000000000e+00 -3.5527136788e-15 -7.2463862649e+02 7.2897829375e+02 7.9424264297e+01 0.0000e+00 0.0000e+00
       66  2    3    3    0    0 -1.9864858744e+01 -2.2942773447e+01 -5.5565220008e+02 5.5728843692e+02 3.0000849929e+01 0.0000e+00 0.0000e+00
      -13  1    3    3    0    0 +1.9864858744e+01 +2.2942773447e+01 -1.6898642641e+02 1.7168985683e+02 1.0566000000e-01 0.0000e+00 1.0000e+00
       13  1    4    4    0    0 -1.2536907805e+01 -1.0349701513e+01 -1.8889905425e+02 1.8959734766e+02 1.0566000000e-01 0.0000e+00 -1.0000e+00
      -13  1    4    4    0    0 +7.2066251496e+00 -7.3923034281e+00 -1.8281663303e+02 1.8310793012e+02 1.0566000000e-01 0.0000e+00 1.0000e+00
      -14  1    4    4    0    0 -1.4534576088e+01 -5.2007685063e+00 -1.8393651280e+02 1.8458315914e+02 0.0000000000e+00 0.0000e+00 1.0000e+00
<mgrwt>
<rscale>  0 0.79424264E+02</rscale>
<asrwt>0</asrwt>
<pdfrwt beam="1">  1        2 0.11181649E+00 0.79424264E+02</pdfrwt>
<pdfrwt beam="2">  1       -1 0.33382114E-03 0.79424264E+02</pdfrwt>
<totfact> 0.34370536E+05</totfact>
</mgrwt>
</event>
<event>
 8      1 +5.0320763e-08 7.89455100e+01 7.81860800e-03 1.33207100e-01
        4 -1    0    0  501    0 +0.0000000000e+00 +0.0000000000e+00 +2.5685023460e+01 2.5716401967e+01 1.2700000000e+00 0.0000e+00 -1.0000e+00
       -3 -1    0    0    0  501 -0.0000000000e+00 -0.0000000000e+00 -6.0608888993e+01 6.0608973147e+01 1.0100000000e-01 0.0000e+00 1.0000e+00
       24  2    1    2    0    0 +0.0000000000e+00 +0.0000000000e+00 -3.4923865534e+01 8.6325375114e+01 7.8945512886e+01 0.0000e+00 0.0000e+00
       66  2    3    3    0    0 -1.7446133319e+01 -1.3174862765e+01 +8.1647090161e+00 3.8007873136e+01 2.9999856171e+01 0.0000e+00 0.0000e+00
      -13  1    3    3    0    0 +1.7446133319e+01 +1.3174862765e+01 -4.3088574550e+01 4.8317501979e+01 1.0566000000e-01 0.0000e+00 1.0000e+00
       13  1    4    4    0    0 +1.4351774764e+00 -2.3923037424e+00 -2.4028513191e+00 3.6834372646e+00 1.0566000000e-01 0.0000e+00 -1.0000e+00
      -13  1    4    4    0    0 -3.6140458757e+00 -1.6227844518e+00 +1.5379087421e+01 1.5881506569e+01 1.0566000000e-01 0.0000e+00 1.0000e+00
       14  1    4    4    0    0 -1.5267264920e+01 -9.1597745711e+00 -4.8115270858e+00 1.8442929302e+01 0.0000000000e+00 0.0000e+00 -1.0000e+00
<mgrwt>
<rscale>  0 0.78945513E+02</rscale>
<asrwt>0</asrwt>
<pdfrwt beam="1">  1        4 0.39549793E-02 0.78945513E+02</pdfrwt>
<pdfrwt beam="2">  1       -3 0.93244662E-02 0.78945513E+02</pdfrwt>
<totfact> 0.46621576E+04</totfact>
</mgrwt>
</event>
<event>
 8      1 +5.0320763e-08 8.04636700e+01 7.81860800e-03 1.32774100e-01
        1 -1    0    0  501    0 +0.0000000000e+00 +0.0000000000e+00 +6.8431867938e+00 6.8431886498e+00 5.0400000000e-03 0.0000e+00 -1.0000e+00
       -2 -1    0    0    0  501 -0.0000000000e+00 -0.0000000000e+00 -2.3652726414e+02 2.3652726416e+02 2.5500000000e-03 0.0000e+00 1.0000e+00
      -24  2    1    2    0    0 +0.0000000000e+00 +0.0000000000e+00 -2.2968407735e+02 2.4337045281e+02 8.0463668270e+01 0.0000e+00 0.0000e+00
       66  2    3    3    0    0 -3.7933720432e+00 -2.4770515035e+01 -2.0314032407e+02 2.0686634223e+02 2.9995402961e+01 0.0000e+00 0.0000e+00
       13  1    3    3    0    0 +3.7933720432e+00 +2.4770515035e+01 -2.6543753277e+01 3.6504110572e+01 1.0566000000e-01 0.0000e+00 -1.0000e+00
       13  1    4    4    0    0 -3.4525199556e+00 -1.4092246239e+01 -1.4497561469e+02 1.4569986725e+02 1.0566000000e-01 0.0000e+00 -1.0000e+00
      -13  1    4    4    0    0 -7.4656581267e+00 -6.6176434696e+00 -2.3225189152e+01 2.5277456983e+01 1.0566000000e-01 0.0000e+00 1.0000e+00
       14  1    4    4    0    0 +7.1248060391e+00 -4.0606253273e+00 -3.4939520232e+01 3.5889018003e+01 0.0000000000e+00 0.0000e+00 -1.0000e+00
<mgrwt>
<rscale>  0 0.80463668E+02</rscale>
<asrwt>0</asrwt>
<pdfrwt beam="1">  1        1 0.10527983E-02 0.80463668E+02</pdfrwt>
<pdfrwt beam="2">  1       -2 0.36388804E-01 0.80463668E+02</pdfrwt>
<totfact> 0.77965473E+04</totfact>
</mgrwt>
</event>
<event>
 8      1 +5.0320763e-08 8.04838500e+01 7.81860800e-03 1.32768400e-01
       -2 -1    0    0    0  501 -0.0000000000e+00 +0.0000000000e+00 +2.2276117262e+02 2.2276117264e+02 2.5500000000e-03 0.0000e+00 1.0000e+00
        1 -1    0    0  501    0 +0.0000000000e+00 -0.0000000000e+00 -7.2697251873e+00 7.2697269344e+00 5.0400000000e-03 0.0000e+00 -1.0000e+00
      -24  2    1    2    0    0 +3.5527136788e-15 +0.0000000000e+00 +2.1549144744e+02 2.3003089957e+02 8.0483854530e+01 0.0000e+00 0.0000e+00
       66  2    3    3    0    0 -2.0747217541e+01 +1.8529482021e+01 +1.8176680538e+02 1.8631418211e+02 3.0000236302e+01 0.0000e+00 0.0000e+00
       13  1    3    3    0    0 +2.0747217541e+01 -1.8529482021e+01 +3.3724642054e+01 4.3716717459e+01 1.0566000000e-01 0.0000e+00 -1.0000e+00
       13  1    4    4    0    0 -2.0530352810e+01 +6.5369600230e+00 +8.6022727759e+01 8.8680032071e+01 1.0566000000e-01 0.0000e+00 -1.0000e+00
      -13  1    4    4    0    0 -6.2622594586e+00 +1.1286628724e+01 +5.9665235103e+01 6.1045518471e+01 1.0566000000e-01 0.0000e+00 1.0000e+00
       14  1    4    4    0    0 +6.0453947278e+00 +7.0589327414e-01 +3.6078842520e+01 3.6588631572e+01 0.0000000000e+00 0.0000e+00 -1.0000e+00
<mgrwt>
<rscale>  0 0.80483855E+02</rscale>
<asrwt>0</asrwt>
<pdfrwt beam="1">  1        1 0.11184195E-02 0.80483855E+02</pdfrwt>
<pdfrwt beam="2">  1       -2 0.34270945E-01 0.80483855E+02</pdfrwt>
<totfact> 0.80038089E+04</totfact>
</mgrwt>
</event>
<event>
 8      1 +5.0320763e-08 8.17707000e+01 7.81860800e-03 1.32410000e-01
       -2 -1    0    0    0  501 -0.0000000000e+00 +0.0000000000e+00 +2.5957410920e+01 2.5957411045e+01 2.5500000000e-03 0.0000e+00 1.0000e+00
        1 -1    0    0  501    0 +0.0000000000e+00 -0.0000000000e+00 -6.4398244611e+01 6.4398244808e+01 5.0400000000e-03 0.0000e+00 -1.0000e+00
      -24  2    1    2    0    0 -1.7763568394e-15 +0.0000000000e+00 -3.8440833691e+01 9.0355655853e+01 8.1770696768e+01 0.0000e+00 0.0000e+00
       66  2    3    3    0    0 -1.0017547486e+01 -2.0717339361e+01 +7.8903105836e+00 3.8624180893e+01 3.0000182345e+01 0.0000e+00 0.0000e+00
       13  1    3    3    0    0 +1.0017547486e+01 +2.0717339361e+01 -4.6331144274e+01 5.1731474961e+01 1.0566000000e-01 0.0000e+00 -1.0000e+00
       13  1    4    4    0    0 +2.5796286682e+00 -1.9142376458e+01 -8.8617819584e-01 1.9336016558e+01 1.0566000000e-01 0.0000e+00 1.0000e+00
      -13  1    4    4    0    0 -4.2232006151e+00 +1.5780023191e+00 +9.2888019632e+00 1.0325624470e+01 1.0566000000e-01 0.0000e+00 -1.0000e+00
      -14  1    4    4    0    0 -8.3739755388e+00 -3.1529652224e+00 -5.1231318383e-01 8.9625398642e+00 0.0000000000e+00 0.0000e+00 1.0000e+00
<mgrwt>
<rscale>  0 0.81770697E+02</rscale>
<asrwt>0</asrwt>
<pdfrwt beam="1">  1        1 0.99074222E-02 0.81770697E+02</pdfrwt>
<pdfrwt beam="2">  1       -2 0.39934479E-02 0.81770697E+02</pdfrwt>
<totfact> 0.12888943E+05</totfact>
</mgrwt>
</event>
<event>
 8      1 +5.0320763e-08 7.94737000e+01 7.81860800e-03 1.33055200e-01
       -4 -1    0    0    0  501 -0.0000000000e+00 +0.0000000000e+00 +6.8786951141e+01 6.8798674023e+01 1.2700000000e+00 0.0000e+00 1.0000e+00
        3 -1    0    0  501    0 +0.0000000000e+00 -0.0000000000e+00 -2.2947222295e+01 2.2947444564e+01 1.0100000000e-01 0.0000e+00 -1.0000e+00
      -24  2    1    2    0    0 +0.0000000000e+00 +0.0000000000e+00 +4.5839728846e+01 9.1746118587e+01 7.9473703419e+01 0.0000e+00 0.0000e+00
       66  2    3    3    0    0 +2.4264004486e+01 -2.1622705229e+01 +1.4368870346e+01 4.6505546156e+01 3.0000301551e+01 0.0000e+00 0.0000e+00
       13  1    3    3    0    0 -2.4264004486e+01 +2.1622705229e+01 +3.1470858500e+01 4.5240572431e+01 1.0566000000e-01 0.0000e+00 -1.0000e+00
       13  1    4    4    0    0 -6.7527922258e-01 -1.8571210820e+01 +5.9077897366e+00 1.9500231202e+01 1.0566000000e-01 0.0000e+00 -1.0000e+00
      -13  1    4    4    0    0 +1.3782512633e+01 -4.2497408015e+00 +4.6158385092e+00 1.5143813276e+01 1.0566000000e-01 0.0000e+00 1.0000e+00
       14  1    4    4    0    0 +1.1156771075e+01 +1.1982463918e+00 +3.8452421006e+00 1.1861501678e+01 0.0000000000e+00 0.0000e+00 -1.0000e+00
<mgrwt>
<rscale>  0 0.79473703E+02</rscale>
<asrwt>0</asrwt>
<pdfrwt beam="1">  1        3 0.35303647E-02 0.79473703E+02</pdfrwt>
<pdfrwt beam="2">  1       -4 0.10586213E-01 0.79473703E+02</pdfrwt>
<totfact> 0.43971535E+04</totfact>
</mgrwt>
</event>
<event>
 8      1 +5.0320763e-08 8.06151300e+01 7.81860800e-03 1.32731500e-01
       -3 -1    0    0    0  501 -0.0000000000e+00 +0.0000000000e+00 +2.4301403810e+02 2.4301405909e+02 1.0100000000e-01 0.0000e+00 1.0000e+00
        4 -1    0    0  501    0 +0.0000000000e+00 -0.0000000000e+00 -6.6236240092e+00 6.7442786876e+00 1.2700000000e+00 0.0000e+00 -1.0000e+00
       24  2    1    2    0    0 -3.5527136788e-15 +0.0000000000e+00 +2.3639041409e+02 2.4975833778e+02 8.0615131425e+01 0.0000e+00 0.0000e+00
       66  2    3    3    0    0 +1.9219520613e+01 +2.3972474497e+01 +8.4434750593e+01 9.4727359132e+01 2.9999599238e+01 0.0000e+00 0.0000e+00
      -13  1    3    3    0    0 -1.9219520613e+01 -2.3972474497e+01 +1.5195566350e+02 1.5503097864e+02 1.0566000000e-01 0.0000e+00 1.0000e+00
       13  1    4    4    0    0 +5.2410379975e+00 +1.8915568344e+01 +5.0604897671e+01 5.4278301718e+01 1.0566000000e-01 0.0000e+00 -1.0000e+00
      -13  1    4    4    0    0 -2.0608266144e+00 +4.4252750201e+00 +1.4629545055e+01 1.5422866721e+01 1.0566000000e-01 0.0000e+00 1.0000e+00
      -14  1    4    4    0    0 +1.6039309230e+01 +6.3163113328e-01 +1.9200307867e+01 2.5026190694e+01 0.0000000000e+00 0.0000e+00 1.0000e+00
<mgrwt>
<rscale>  0 0.80615131E+02</rscale>
<asrwt>0</asrwt>
<pdfrwt beam="1">  1        4 0.10285553E-02 0.80615131E+02</pdfrwt>
<pdfrwt beam="2">  1       -3 0.37386841E-01 0.80615131E+02</pdfrwt>
<totfact> 0.32897509E+04</totfact>
</mgrwt>
</event>
<event>
 8      1 +5.0320763e-08 8.97648400e+01 7.81860800e-03 1.30342200e-01
        2 -1    0    0  501    0 +0.0000000000e+00 +0.0000000000e+00 +2.0590384635e+01 2.0590384793e+01 2.5500000000e-03 0.0000e+00 -1.0000e+00
       -1 -1    0    0    0  501 -0.0000000000e+00 -0.0000000000e+00 -9.7833597926e+01 9.7833598056e+01 5.0400000000e-03 0.0000e+00 1.0000e+00
       24  2    1    2    0    0 +0.0000000000e+00 +0.0000000000e+00 -7.7243213292e+01 1.1842398285e+02 8.9764835621e+01 0.0000e+00 0.0000e+00
       66  2    3    3    0    0 +3.0149638037e+01 +5.7183027084e+00 -9.3554654570e+00 4.3922592729e+01 2.9999495971e+01 0.0000e+00 0.0000e+00
      -13  1    3    3    0    0 -3.0149638037e+01 -5.7183027084e+00 -6.7887747835e+01 7.4501390119e+01 1.0566000000e-01 0.0000e+00 1.0000e+00
       13  1    4    4    0    0 +9.0030214050e-01 +2.6834286781e+00 +2.4770578905e+00 3.7627534125e+00 1.0566000000e-01 0.0000e+00 1.0000e+00
      -13  1    4    4    0    0 +1.4974961557e+01 +5.0440984280e+00 -1.8455341033e+01 2.4296155648e+01 1.0566000000e-01 0.0000e+00 -1.0000e+00
       14  1    4    4    0    0 +1.4274374339e+01 -2.0092243977e+00 +6.6228176853e+00 1.5863683669e+01 0.0000000000e+00 0.0000e+00 -1.0000e+00
<mgrwt>
<rscale>  0 0.89764836E+02</rscale>
<asrwt>0</asrwt>
<pdfrwt beam="1">  1        2 0.31677515E-02 0.89764836E+02</pdfrwt>
<pdfrwt beam="2">  1       -1 0.15051323E-01 0.89764836E+02</pdfrwt>
<totfact> 0.89412742E+04</totfact>
</mgrwt>
</event>
<event>
 8      1 +5.0320763e-08 8.03407700e+01 7.81860800e-03 1.32808700e-01
       -1 -1    0    0    0  501 -0.0000000000e+00 +0.0000000000e+00 +7.1201006714e+00 7.1201024552e+00 5.0400000000e-03 0.0000e+00 1.0000e+00
        2 -1    0    0  501    0 +0.0000000000e+00 -0.0000000000e+00 -2.2663440758e+02 2.2663440759e+02 2.5500000000e-03 0.0000e+00 -1.0000e+00
       24  2    1    2    0    0 +0.0000000000e+00 +0.0000000000e+00 -2.1951430690e+02 2.3375451004e+02 8.0340774397e+01 0.0000e+00 0.0000e+00
       66  2    3    3    0    0 -3.3967843944e+01 +6.4074744250e+00 -1.2616171665e+02 1.3420759939e+02 3.0000513894e+01 0.0000e+00 0.0000e+00
      -13  1    3    3    0    0 +3.3967843944e+01 -6.4074744250e+00 -9.3352590249e+01 9.9546910655e+01 1.0566000000e-01 0.0000e+00 1.0000e+00
       13  1    4    4    0    0 -4.1424808167e+00 +2.6198932095e-01 -4.3597025892e+01 4.3794298903e+01 1.0566000000e-01 0.0000e+00 -1.0000e+00
      -13  1    4    4    0    0 -2.7993687371e+01 +1.5281272015e+00 -4.8757357307e+01 5.6242979660e+01 1.0566000000e-01 0.0000e+00 1.0000e+00
      -14  1    4    4    0    0 -1.8316757570e+00 +4.6173579026e+00 -3.3807333455e+01 3.4170320827e+01 0.0000000000e+00 0.0000e+00 1.0000e+00
<mgrwt>
<rscale>  0 0.80340774E+02</rscale>
<asrwt>0</asrwt>
<pdfrwt beam="1">  1        2 0.34866827E-01 0.80340774E+02</pdfrwt>
<pdfrwt beam="2">  1       -1 0.10954004E-02 0.80340774E+02</pdfrwt>
<totfact> 0.22791523E+05</totfact>
</mgrwt>
</event>
<event>
 8      1 +5.0320763e-08 7.69458900e+01 7.81860800e-03 1.33794900e-01
       -1 -1    0    0    0  501 -0.0000000000e+00 +0.0000000000e+00 +1.5021683449e+01 1.5021684295e+01 5.0400000000e-03 0.0000e+00 1.0000e+00
        2 -1    0    0  501    0 +0.0000000000e+00 -0.0000000000e+00 -9.8535392791e+01 9.8535392824e+01 2.5500000000e-03 0.0000e+00 -1.0000e+00
       24  2    1    2    0    0 +0.0000000000e+00 +3.5527136788e-15 -8.3513709342e+01 1.1355707712e+02 7.6945890831e+01 0.0000e+00 0.0000e+00
       66  2    3    3    0    0 -1.5240977188e+01 +2.0292406947e+01 -7.8359518449e+01 8.7660243082e+01 3.0000582000e+01 0.0000e+00 0.0000e+00
      -13  1    3    3    0    0 +1.5240977188e+01 -2.0292406947e+01 -5.1541908928e+00 2.5896834037e+01 1.0566000000e-01 0.0000e+00 1.0000e+00
       13  1    4    4    0    0 -8.5888932280e-01 +1.1846762367e+01 -2.3320762271e+01 2.6171598851e+01 1.0566000000e-01 0.0000e+00 -1.0000e+00
      -13  1    4    4    0    0 -5.8237638897e+00 +1.5148049999e+01 -3.7396615340e+01 4.0766378887e+01 1.0566000000e-01 0.0000e+00 1.0000e+00
      -14  1    4    4    0    0 -8.5583239754e+00 -6.7024054194e+00 -1.7642140838e+01 2.0722265345e+01 0.0000000000e+00 0.0000e+00 1.0000e+00
<mgrwt>
<rscale>  0 0.76945891E+02</rscale>
<asrwt>0</asrwt>
<pdfrwt beam="1">  1        2 0.15159291E-01 0.76945891E+02</pdfrwt>
<pdfrwt beam="2">  1       -1 0.23110284E-02 0.76945891E+02</pdfrwt>
<totfact> 0.19589203E+05</totfact>
</mgrwt>
</event>
<event>
 8      1 +5.0320763e-08 7.31637900e+01 7.81860800e-03 1.34965300e-01
       -2 -1    0    0    0  501 -0.0000000000e+00 +0.0000000000e+00 +4.0562743129e+01 4.0562743209e+01 2.5500000000e-03 0.0000e+00 1.0000e+00
        1 -1    0    0  501    0 +0.0000000000e+00 -0.0000000000e+00 -3.2991731984e+01 3.2991732369e+01 5.0400000000e-03 0.0000e+00 -1.0000e+00
      -24  2    1    2    0    0 +3.5527136788e-15 +7.1054273576e-15 +7.5710111448e+00 7.3554475578e+01 7.3163793421e+01 0.0000e+00 0.0000e+00
       66  2    3    3    0    0 +2.4824840464e+01 +1.7601089483e+01 +4.4341158844e+00 4.2961627869e+01 2.9999483836e+01 0.0000e+00 0.0000e+00
       13  1    3    3    0    0 -2.4824840464e+01 -1.7601089483e+01 +3.1368952605e+00 3.0592847709e+01 1.0566000000e-01 0.0000e+00 -1.0000e+00
       13  1    4    4    0    0 +1.6558497875e+01 +1.6134656813e+01 -2.4607878668e+00 2.3250325661e+01 1.0566000000e-01 0.0000e+00 1.0000e+00
      -13  1    4    4    0    0 +2.4849246365e+00 -3.6740431711e+00 -4.2504169377e+00 6.1441559104e+00 1.0566000000e-01 0.0000e+00 -1.0000e+00
      -14  1    4    4    0    0 +5.7814179518e+00 +5.1404758413e+00 +1.1145320689e+01 1.3567146298e+01 0.0000000000e+00 0.0000e+00 1.0000e+00
<mgrwt>
<rscale>  0 0.73163793E+02</rscale>
<asrwt>0</asrwt>
<pdfrwt beam="1">  1        1 0.50756511E-02 0.73163793E+02</pdfrwt>
<pdfrwt beam="2">  1       -2 0.62404220E-02 0.73163793E+02</pdfrwt>
<totfact> 0.15827896E+05</totfact>
</mgrwt>
</event>
<event>
 8      1 +5.0320763e-08 7.74964300e+01 7.81860800e-03 1.33631000e-01
       -2 -1    0    0    0  501 -0.0000000000e+00 +0.0000000000e+00 +1.4062903694e+01 1.4062903925e+01 2.5500000000e-03 0.0000e+00 1.0000e+00
        1 -1    0    0  501    0 +0.0000000000e+00 -0.0000000000e+00 -1.0676488215e+02 1.0676488227e+02 5.0400000000e-03 0.0000e+00 -1.0000e+00
      -24  2    1    2    0    0 +0.0000000000e+00 +7.1054273576e-15 -9.2701978459e+01 1.2082778620e+02 7.7496432866e+01 0.0000e+00 0.0000e+00
       66  2    3    3    0    0 -1.6686081671e+01 +2.7974083669e+01 -6.0961980861e+01 7.5347974300e+01 2.9999657363e+01 0.0000e+00 0.0000e+00
       13  1    3    3    0    0 +1.6686081671e+01 -2.7974083669e+01 -3.1739997598e+01 4.5479811897e+01 1.0566000000e-01 0.0000e+00 -1.0000e+00
       13  1    4    4    0    0 -1.5661718807e+00 -5.2191424493e+00 -1.4766171673e+01 1.5739864427e+01 1.0566000000e-01 0.0000e+00 -1.0000e+00
      -13  1    4    4    0    0 -8.6779942681e-01 +4.8469410648e-01 -5.0482786055e+00 5.1462884817e+00 1.0566000000e-01 0.0000e+00 1.0000e+00
      -14  1    4    4    0    0 -1.4252110363e+01 +3.2708532012e+01 -4.1147530583e+01 5.4461821391e+01 0.0000000000e+00 0.0000e+00 1.0000e+00
<mgrwt>
<rscale>  0 0.77496433E+02</rscale>
<asrwt>0</asrwt>
<pdfrwt beam="1">  1        1 0.16425366E-01 0.77496433E+02</pdfrwt>
<pdfrwt beam="2">  1       -2 0.21635237E-02 0.77496433E+02</pdfrwt>
<totfact> 0.16190997E+05</totfact>
</mgrwt>
</event>
<event>
 8      1 +5.0320763e-08 7.69685400e+01 7.81860800e-03 1.33788100e-01
       -2 -1    0    0    0  501 -0.0000000000e+00 +0.0000000000e+00 +4.4620371954e+01 4.4620372026e+01 2.5500000000e-03 0.0000e+00 1.0000e+00
        1 -1    0    0  501    0 +0.0000000000e+00 -0.0000000000e+00 -3.3191987801e+01 3.3191988183e+01 5.0400000000e-03 0.0000e+00 -1.0000e+00
      -24  2    1    2    0    0 +3.5527136788e-15 -1.7763568394e-15 +1.1428384153e+01 7.7812360210e+01 7.6968535370e+01 0.0000e+00 0.0000e+00
       66  2    3    3    0    0 -1.0528008108e+01 +1.1666043052e+01 +3.5501585100e+01 4.9064044032e+01 2.9999705948e+01 0.0000e+00 0.0000e+00
       13  1    3    3    0    0 +1.0528008108e+01 -1.1666043052e+01 -2.4073200947e+01 2.8748316178e+01 1.0566000000e-01 0.0000e+00 -1.0000e+00
       13  1    4    4    0    0 -9.9268601112e+00 +1.2623992240e+01 +2.1283580805e+01 2.6662890085e+01 1.0566000000e-01 0.0000e+00 -1.0000e+00
      -13  1    4    4    0    0 -7.7479220313e+00 +1.2987500671e+00 +1.2415874012e+01 1.4692928199e+01 1.0566000000e-01 0.0000e+00 1.0000e+00
       14  1    4    4    0    0 +7.1467740345e+00 -2.2566992560e+00 +1.8021302831e+00 7.7082257485e+00 0.0000000000e+00 0.0000e+00 -1.0000e+00
<mgrwt>
<rscale>  0 0.76968535E+02</rscale>
<asrwt>0</asrwt>
<pdfrwt beam="1">  1        1 0.51064597E-02 0.76968535E+02</pdfrwt>
<pdfrwt beam="2">  1       -2 0.68646726E-02 0.76968535E+02</pdfrwt>
<totfact> 0.13737490E+05</totfact>
</mgrwt>
</event>
<event>
 8      1 +5.0320763e-08 7.76268800e+01 7.81860800e-03 1.33592400e-01
       -1 -1    0    0    0  501 -0.0000000000e+00 +0.0000000000e+00 +3.3088198933e+02 3.3088198937e+02 5.0400000000e-03 0.0000e+00 1.0000e+00
        2 -1    0    0  501    0 +0.0000000000e+00 -0.0000000000e+00 -4.5529310330e+00 4.5529317471e+00 2.5500000000e-03 0.0000e+00 -1.0000e+00
       24  2    1    2    0    0 +8.8817841970e-16 +0.0000000000e+00 +3.2632905830e+02 3.3543492112e+02 7.7626876884e+01 0.0000e+00 0.0000e+00
       66  2    3    3    0    0 -6.5237398058e+00 -3.1114230060e+01 +1.4901246466e+02 1.5529097857e+02 2.9998648428e+01 0.0000e+00 0.0000e+00
      -13  1    3    3    0    0 +6.5237398058e+00 +3.1114230060e+01 +1.7731659364e+02 1.8014394255e+02 1.0566000000e-01 0.0000e+00 1.0000e+00
       13  1    4    4    0    0 -4.8647467236e+00 -3.3565809976e+01 +1.2625566395e+02 1.3073191348e+02 1.0566000000e-01 0.0000e+00 -1.0000e+00
      -13  1    4    4    0    0 -5.1816401037e+00 +6.7075674411e-01 +1.1544132946e+01 1.2671916914e+01 1.0566000000e-01 0.0000e+00 1.0000e+00
       14  1    4    4    0    0 +3.5226470215e+00 +1.7808231721e+00 +1.1212667764e+01 1.1887148169e+01 0.0000000000e+00 0.0000e+00 -1.0000e+00
<mgrwt>
<rscale>  0 0.77626877E+02</rscale>
<asrwt>0</asrwt>
<pdfrwt beam="1">  1        2 0.70045103E-03 0.77626877E+02</pdfrwt>
<pdfrwt beam="2">  1       -1 0.50904918E-01 0.77626877E+02</pdfrwt>
<totfact> 0.89597110E+04</totfact>
</mgrwt>
</event>
<event>
 8      1 +5.0320763e-08 8.04957700e+01 7.81860800e-03 1.32765000e-01
        1 -1    0    0  501    0 +0.0000000000e+00 +0.0000000000e+00 +1.7432269689e+02 1.7432269696e+02 5.0400000000e-03 0.0000e+00 -1.0000e+00
       -2 -1    0    0    0  501 -0.0000000000e+00 -0.0000000000e+00 -9.2924921437e+00 9.2924924936e+00 2.5500000000e-03 0.0000e+00 1.0000e+00
      -24  2    1    2    0    0 +0.0000000000e+00 +1.7763568394e-15 +1.6503020475e+02 1.8361518946e+02 8.0495772066e+01 0.0000e+00 0.0000e+00
       66  2    3    3    0    0 -2.2603745561e+01 +1.1574869405e+01 +4.0180206985e+01 5.6208596141e+01 3.0000838849e+01 0.0000e+00 0.0000e+00
       13  1    3    3    0    0 +2.2603745561e+01 -1.1574869405e+01 +1.2484999776e+02 1.2740659332e+02 1.0566000000e-01 0.0000e+00 -1.0000e+00
       13  1    4    4    0    0 +4.3133345712e+00 -1.7327772785e+00 +1.4601122542e+00 4.8734447828e+00 1.0566000000e-01 0.0000e+00 -1.0000e+00
      -13  1    4    4    0    0 -1.0259957657e+01 +3.4413917408e+00 +2.6021474361e+01 2.8182231995e+01 1.0566000000e-01 0.0000e+00 1.0000e+00
      -14  1    4    4    0    0 -1.6657122476e+01 +9.8662549426e+00 +1.2698620369e+01 2.3152919363e+01 0.0000000000e+00 0.0000e+00 1.0000e+00
<mgrwt>
<rscale>  0 0.80495772E+02</rscale>
<asrwt>0</asrwt>
<pdfrwt beam="1">  1        1 0.26818875E-01 0.80495772E+02</pdfrwt>
<pdfrwt beam="2">  1       -2 0.14296143E-02 0.80495772E+02</pdfrwt>
<totfact> 0.15973772E+05</totfact>
</mgrwt>
</event>
<event>
 8      1 +5.0320763e-08 7.95554300e+01 7.81860800e-03 1.33031800e-01
       -2 -1    0    0    0  501 -0.0000000000e+00 +0.0000000000e+00 +1.5491277830e+01 1.5491278039e+01 2.5500000000e-03 0.0000e+00 1.0000e+00
        1 -1    0    0  501    0 +0.0000000000e+00 -0.0000000000e+00 -1.0213918859e+02 1.0213918872e+02 5.0400000000e-03 0.0000e+00 -1.0000e+00
      -24  2    1    2    0    0 +0.0000000000e+00 +0.0000000000e+00 -8.6647910764e+01 1.1763046676e+02 7.9555428915e+01 0.0000e+00 0.0000e+00
       66  2    3    3    0    0 +2.5676504208e+01 +2.1829908508e+01 -4.1585046804e+01 6.1358798521e+01 2.9995970803e+01 0.0000e+00 0.0000e+00
       13  1    3    3    0    0 -2.5676504208e+01 -2.1829908508e+01 -4.5062863960e+01 5.6271668237e+01 1.0566000000e-01 0.0000e+00 -1.0000e+00
       13  1    4    4    0    0 +1.6667191006e+01 +1.1181839151e+01 -9.1513781588e+00 2.2058732264e+01 1.0566000000e-01 0.0000e+00 -1.0000e+00
      -13  1    4    4    0    0 -4.2456203572e+00 -3.9128645659e-01 -3.1081366829e+00 5.2773170251e+00 1.0566000000e-01 0.0000e+00 1.0000e+00
       14  1    4    4    0    0 +1.3254933559e+01 +1.1039355814e+01 -2.9325531963e+01 3.4022749232e+01 0.0000000000e+00 0.0000e+00 -1.0000e+00
<mgrwt>
<rscale>  0 0.79555429E+02</rscale>
<asrwt>0</asrwt>
<pdfrwt beam="1">  1        1 0.15713721E-01 0.79555429E+02</pdfrwt>
<pdfrwt beam="2">  1       -2 0.23832736E-02 0.79555429E+02</pdfrwt>
<totfact> 0.14975282E+05</totfact>
</mgrwt>
</event>
<event>
 8      1 +5.0320763e-08 7.91133700e+01 7.81860800e-03 1.33158700e-01
       -1 -1    0    0    0  501 -0.0000000000e+00 +0.0000000000e+00 +9.0343416954e-01 9.0344822778e-01 5.0400000000e-03 0.0000e+00 1.0000e+00
        2 -1    0    0  501    0 +0.0000000000e+00 -0.0000000000e+00 -1.7319681868e+03 1.7319681868e+03 2.5500000000e-03 0.0000e+00 -1.0000e+00
       24  2    1    2    0    0 -1.7763568394e-15 +0.0000000000e+00 -1.7310647527e+03 1.7328716351e+03 7.9113372390e+01 0.0000e+00 0.0000e+00
       66  2    3    3    0    0 -9.4994018719e+00 -1.0538381858e+01 -1.6636054710e+03 1.6639364338e+03 2.9999940286e+01 0.0000e+00 0.0000e+00
      -13  1    3    3    0    0 +9.4994018719e+00 +1.0538381858e+01 -6.7459281624e+01 6.8935201236e+01 1.0566000000e-01 0.0000e+00 1.0000e+00
       13  1    4    4    0    0 -3.8957564598e+00 -1.4986719110e+00 -7.7842745215e+02 7.7843865035e+02 1.0566000000e-01 0.0000e+00 -1.0000e+00
      -13  1    4    4    0    0 -1.1764813609e+01 -1.1661163580e+01 -5.3716352915e+02 5.3741888857e+02 1.0566000000e-01 0.0000e+00 1.0000e+00
       14  1    4    4    0    0 +6.1611681967e+00 +2.6214536330e+00 -3.4801448974e+02 3.4807889491e+02 0.0000000000e+00 0.0000e+00 -1.0000e+00
<mgrwt>
<rscale>  0 0.79113372E+02</rscale>
<asrwt>0</asrwt>
<pdfrwt beam="1">  1        2 0.26645399E+00 0.79113372E+02</pdfrwt>
<pdfrwt beam="2">  1       -1 0.13899234E-03 0.79113372E+02</pdfrwt>
<totfact> 0.31899338E+05</totfact>
</mgrwt>
</event>
<event>
 8      1 +5.0320763e-08 7.98466100e+01 7.81860800e-03 1.32948700e-01
       -1 -1    0    0    0  501 -0.0000000000e+00 +0.0000000000e+00 +1.7656777354e+01 1.7656778073e+01 5.0400000000e-03 0.0000e+00 1.0000e+00
        4 -1    0    0  501    0 +0.0000000000e+00 -0.0000000000e+00 -9.0242293493e+01 9.0251229548e+01 1.2700000000e+00 0.0000e+00 -1.0000e+00
       24  2    1    2    0    0 +0.0000000000e+00 +0.0000000000e+00 -7.2585516140e+01 1.0790800762e+02 7.9846608917e+01 0.0000e+00 0.0000e+00
       66  2    3    3    0    0 +3.3124749790e+00 -3.0955345698e+01 -6.0832743423e+01 7.4631217686e+01 2.9999834386e+01 0.0000e+00 0.0000e+00
      -13  1    3    3    0    0 -3.3124749790e+00 +3.0955345698e+01 -1.1752772717e+01 3.3276789935e+01 1.0566000000e-01 0.0000e+00 1.0000e+00
       13  1    4    4    0    0 +5.8614749199e+00 -2.9165962094e+01 -4.6881524450e+01 5.5523857322e+01 1.0566000000e-01 0.0000e+00 -1.0000e+00
      -13  1    4    4    0    0 -4.4980921233e+00 +4.4107806068e+00 -4.9898642242e+00 8.0372711366e+00 1.0566000000e-01 0.0000e+00 1.0000e+00
      -14  1    4    4    0    0 +1.9490921825e+00 -6.2001642112e+00 -8.9613547483e+00 1.1070089228e+01 0.0000000000e+00 0.0000e+00 1.0000e+00
<mgrwt>
<rscale>  0 0.79846609E+02</rscale>
<asrwt>0</asrwt>
<pdfrwt beam="1">  1        4 0.13887629E-01 0.79846609E+02</pdfrwt>
<pdfrwt beam="2">  1       -1 0.27164276E-02 0.79846609E+02</pdfrwt>
<totfact> 0.56605926E+04</totfact>
</mgrwt>
</event>
<event>
 8      1 +5.0320763e-08 7.88671300e+01 7.81860800e-03 1.33229700e-01
        2 -1    0    0  501    0 +0.0000000000e+00 +0.0000000000e+00 +3.7030539846e+02 3.7030539847e+02 2.5500000000e-03 0.0000e+00 -1.0000e+00
       -1 -1    0    0    0  501 -0.0000000000e+00 -0.0000000000e+00 -4.1992518641e+00 4.1992548886e+00 5.0400000000e-03 0.0000e+00 1.0000e+00
       24  2    1    2    0    0 +1.7763568394e-15 -3.5527136788e-15 +3.6610614660e+02 3.7450465336e+02 7.8867133910e+01 0.0000e+00 0.0000e+00
       66  2    3    3    0    0 +3.6980856530e+00 -1.6051529040e+01 +3.4929778801e+02 3.5097043350e+02 2.9999551004e+01 0.0000e+00 0.0000e+00
      -13  1    3    3    0    0 -3.6980856530e+00 +1.6051529040e+01 +1.6808358594e+01 2.3534219865e+01 1.0566000000e-01 0.0000e+00 1.0000e+00
       13  1    4    4    0    0 +6.3871682878e+00 -1.1269405532e+01 +1.0422068997e+02 1.0502265852e+02 1.0566000000e-01 0.0000e+00 -1.0000e+00
      -13  1    4    4    0    0 -5.1355485985e+00 -5.6918016953e-01 +1.5898353563e+01 1.6717255622e+01 1.0566000000e-01 0.0000e+00 1.0000e+00
      -14  1    4    4    0    0 +2.4464659637e+00 -4.2129433381e+00 +2.2917874447e+02 2.2923051936e+02 0.0000000000e+00 0.0000e+00 1.0000e+00
<mgrwt>
<rscale>  0 0.78867134E+02</rscale>
<asrwt>0</asrwt>
<pdfrwt beam="1">  1        2 0.56970055E-01 0.78867134E+02</pdfrwt>
<pdfrwt beam="2">  1       -1 0.64603906E-03 0.78867134E+02</pdfrwt>
<totfact> 0.28539113E+05</totfact>
</mgrwt>
</event>
<event>
 8      1 +5.0320763e-08 8.37952900e+01 7.81860800e-03 1.31861300e-01
        1 -1    0    0  501    0 +0.0000000000e+00 +0.0000000000e+00 +6.2125046235e+01 6.2125046440e+01 5.0400000000e-03 0.0000e+00 -1.0000e+00
       -2 -1    0    0    0  501 -0.0000000000e+00 -0.0000000000e+00 -2.8256120423e+01 2.8256120538e+01 2.5500000000e-03 0.0000e+00 1.0000e+00
      -24  2    1    2    0    0 -1.7763568394e-15 -3.5527136788e-15 +3.3868925812e+01 9.0381166978e+01 8.3795293475e+01 0.0000e+00 0.0000e+00
       66  2    3    3    0    0 +1.5975911210e+01 +1.9435255828e+01 -9.4580839647e+00 4.0279272319e+01 3.0000091970e+01 0.0000e+00 0.0000e+00
       13  1    3    3    0    0 -1.5975911210e+01 -1.9435255828e+01 +4.3327009777e+01 5.0101894658e+01 1.0566000000e-01 0.0000e+00 -1.0000e+00
       13  1    4    4    0    0 +3.4651892792e+00 +6.2539109617e+00 -1.6729143846e+01 1.8193250312e+01 1.0566000000e-01 0.0000e+00 -1.0000e+00
      -13  1    4    4    0    0 +8.5026052588e+00 +3.3297655155e+00 -1.2269459893e-01 9.1327899667e+00 1.0566000000e-01 0.0000e+00 1.0000e+00
       14  1    4    4    0    0 +4.0081166718e+00 +9.8515793511e+00 +7.3937544807e+00 1.2953232040e+01 0.0000000000e+00 0.0000e+00 -1.0000e+00
<mgrwt>
<rscale>  0 0.83795293E+02</rscale>
<asrwt>0</asrwt>
<pdfrwt beam="1">  1        1 0.95576994E-02 0.83795293E+02</pdfrwt>
<pdfrwt beam="2">  1       -2 0.43470955E-02 0.83795293E+02</pdfrwt>
<totfact> 0.11976575E+05</totfact>
</mgrwt>
</event>
<event>
 8      1 +5.0320763e-08 8.04014100e+01 7.81860800e-03 1.32791600e-01
       -1 -1    0    0    0  501 -0.0000000000e+00 +0.0000000000e+00 +8.2837118577e+00 8.2837133910e+00 5.0400000000e-03 0.0000e+00 1.0000e+00
        2 -1    0    0  501    0 +0.0000000000e+00 -0.0000000000e+00 -1.9509328548e+02 1.9509328550e+02 2.5500000000e-03 0.0000e+00 -1.0000e+00
       24  2    1    2    0    0 +0.0000000000e+00 +0.0000000000e+00 -1.8680957362e+02 2.0337699889e+02 8.0401410930e+01 0.0000e+00 0.0000e+00
       66  2    3    3    0    0 +2.1448077643e+01 -1.9450333545e+01 -1.5434364928e+02 1.5987547113e+02 2.9997811370e+01 0.0000e+00 0.0000e+00
      -13  1    3    3    0    0 -2.1448077643e+01 +1.9450333545e+01 -3.2465924342e+01 4.3501527755e+01 1.0566000000e-01 0.0000e+00 1.0000e+00
       13  1    4    4    0    0 +1.4537514198e+00 +5.8960349553e+00 -3.7644599644e+01 3.8131400024e+01 1.0566000000e-01 0.0000e+00 -1.0000e+00
      -13  1    4    4    0    0 +1.7154254818e+01 -1.1765328754e+01 -7.1219963737e+01 7.4195591633e+01 1.0566000000e-01 0.0000e+00 1.0000e+00
      -14  1    4    4    0    0 +2.8400714054e+00 -1.3581039746e+01 -4.5479085899e+01 4.7548479475e+01 0.0000000000e+00 0.0000e+00 1.0000e+00
<mgrwt>
<rscale>  0 0.80401411E+02</rscale>
<asrwt>0</asrwt>
<pdfrwt beam="1">  1        2 0.30014348E-01 0.80401411E+02</pdfrwt>
<pdfrwt beam="2">  1       -1 0.12744175E-02 0.80401411E+02</pdfrwt>
<totfact> 0.21582426E+05</totfact>
</mgrwt>
</event>
<event>
 8      1 +5.0320763e-08 8.08765100e+01 7.81860800e-03 1.32658200e-01
       -1 -1    0    0    0  501 -0.0000000000e+00 +0.0000000000e+00 +4.2382029924e+01 4.2382030223e+01 5.0400000000e-03 0.0000e+00 1.0000e+00
        2 -1    0    0  501    0 +0.0000000000e+00 -0.0000000000e+00 -3.8583631563e+01 3.8583631647e+01 2.5500000000e-03 0.0000e+00 -1.0000e+00
       24  2    1    2    0    0 +0.0000000000e+00 +0.0000000000e+00 +3.7983983609e+00 8.0965661871e+01 8.0876514342e+01 0.0000e+00 0.0000e+00
       66  2    3    3    0    0 -1.6588518133e+01 +2.8988038491e+01 -7.8864910750e+00 4.5581581911e+01 2.9999975977e+01 0.0000e+00 0.0000e+00
      -13  1    3    3    0    0 +1.6588518133e+01 -2.8988038491e+01 +1.1684889436e+01 3.5384079959e+01 1.0566000000e-01 0.0000e+00 1.0000e+00
       13  1    4    4    0    0 +3.1386441144e+00 -3.2427630032e-01 +3.6031115214e+00 4.7905969009e+00 1.0566000000e-01 0.0000e+00 -1.0000e+00
      -13  1    4    4    0    0 -3.2454472960e+00 +1.9354729837e+01 -3.4607592530e+00 1.9928033366e+01 1.0566000000e-01 0.0000e+00 1.0000e+00
      -14  1    4    4    0    0 -1.6481714951e+01 +9.9575849547e+00 -8.0288433433e+00 2.0862951644e+01 0.0000000000e+00 0.0000e+00 1.0000e+00
<mgrwt>
<rscale>  0 0.80876514E+02</rscale>
<asrwt>0</asrwt>
<pdfrwt beam="1">  1        2 0.59359434E-02 0.80876514E+02</pdfrwt>
<pdfrwt beam="2">  1       -1 0.65203123E-02 0.80876514E+02</pdfrwt>
<totfact> 0.13729407E+05</totfact>
</mgrwt>
</event>
<event>
 8      1 +5.0320763e-08 8.03876700e+01 7.81860800e-03 1.32795500e-01
       -3 -1    0    0    0  501 -0.0000000000e+00 +0.0000000000e+00 +7.7977262810e+01 7.7977328221e+01 1.0100000000e-01 0.0000e+00 1.0000e+00
        4 -1    0    0  501    0 +0.0000000000e+00 -0.0000000000e+00 -2.0693464788e+01 2.0732399401e+01 1.2700000000e+00 0.0000e+00 -1.0000e+00
       24  2    1    2    0    0 +3.5527136788e-15 +5.5511151231e-17 +5.7283798023e+01 9.8709727622e+01 8.0387665791e+01 0.0000e+00 0.0000e+00
       66  2    3    3    0    0 -2.9892078078e+01 -2.9909935720e-01 +1.1243073786e+01 4.3815417857e+01 2.9995972090e+01 0.0000e+00 0.0000e+00
      -13  1    3    3    0    0 +2.9892078078e+01 +2.9909935720e-01 +4.6040724236e+01 5.4894309764e+01 1.0566000000e-01 0.0000e+00 1.0000e+00
       13  1    4    4    0    0 -7.6502031670e+00 +1.0018245944e+00 -4.9933812054e+00 9.1909891150e+00 1.0566000000e-01 0.0000e+00 -1.0000e+00
      -13  1    4    4    0    0 +3.2369013437e+00 -5.2979748594e-01 +6.6045297071e+00 7.3749028721e+00 1.0566000000e-01 0.0000e+00 1.0000e+00
       14  1    4    4    0    0 -2.5478776255e+01 -7.7112646566e-01 +9.6319252845e+00 2.7249525870e+01 0.0000000000e+00 0.0000e+00 -1.0000e+00
<mgrwt>
<rscale>  0 0.80387666E+02</rscale>
<asrwt>0</asrwt>
<pdfrwt beam="1">  1        4 0.31874003E-02 0.80387666E+02</pdfrwt>
<pdfrwt beam="2">  1       -3 0.11996527E-01 0.80387666E+02</pdfrwt>
<totfact> 0.43447030E+04</totfact>
</mgrwt>
</event>
<event>
 8      1 +5.0320763e-08 8.08756600e+01 7.81860800e-03 1.32658500e-01
        2 -1    0    0  501    0 +0.0000000000e+00 +0.0000000000e+00 +1.1612543528e+03 1.1612543528e+03 2.5500000000e-03 0.0000e+00 -1.0000e+00
       -1 -1    0    0    0  501 -0.0000000000e+00 -0.0000000000e+00 -1.4081435685e+00 1.4081525880e+00 5.0400000000e-03 0.0000e+00 1.0000e+00
       24  2    1    2    0    0 -4.4408920985e-16 +1.7763568394e-15 +1.1598462092e+03 1.1626625054e+03 8.0875659953e+01 0.0000e+00 0.0000e+00
       66  2    3    3    0    0 +2.6623284033e+00 +9.9356727582e+00 +1.1387543005e+03 1.1391958191e+03 2.9999197475e+01 0.0000e+00 0.0000e+00
      -13  1    3    3    0    0 -2.6623284033e+00 -9.9356727582e+00 +2.1091908728e+01 2.3466686249e+01 1.0566000000e-01 0.0000e+00 1.0000e+00
       13  1    4    4    0    0 +3.9813328254e+00 +2.4966802999e+00 +2.5506069874e+02 2.5510400943e+02 1.0566000000e-01 0.0000e+00 -1.0000e+00
      -13  1    4    4    0    0 +6.3240247024e+00 +8.7450933571e+00 +1.6319543376e+02 1.6355192053e+02 1.0566000000e-01 0.0000e+00 1.0000e+00
      -14  1    4    4    0    0 -7.6430291245e+00 -1.3061008988e+00 +7.2049816798e+02 7.2053988915e+02 0.0000000000e+00 0.0000e+00 1.0000e+00
<mgrwt>
<rscale>  0 0.80875660E+02</rscale>
<asrwt>0</asrwt>
<pdfrwt beam="1">  1        2 0.17865481E+00 0.80875660E+02</pdfrwt>
<pdfrwt beam="2">  1       -1 0.21663781E-03 0.80875660E+02</pdfrwt>
<totfact> 0.34167023E+05</totfact>
</mgrwt>
</event>
<event>
 8      1 +5.0320763e-08 8.55256500e+01 7.81860800e-03 1.31406400e-01
        4 -1    0    0  501    0 +0.0000000000e+00 +0.0000000000e+00 +2.1351154012e+01 2.1388891454e+01 1.2700000000e+00 0.0000e+00 -1.0000e+00
       -3 -1    0    0    0  501 -0.0000000000e+00 -0.0000000000e+00 -8.5552217529e+01 8.5552277147e+01 1.0100000000e-01 0.0000e+00 1.0000e+00
       24  2    1    2    0    0 +0.0000000000e+00 +0.0000000000e+00 -6.4201063517e+01 1.0694116860e+02 8.5525651035e+01 0.0000e+00 0.0000e+00
       66  2    3    3    0    0 +3.3382045913e+01 +1.4922409867e+01 -2.5640371213e+01 5.3800059650e+01 2.9999641277e+01 0.0000e+00 0.0000e+00
      -13  1    3    3    0    0 -3.3382045913e+01 -1.4922409867e+01 -3.8560692304e+01 5.3141108951e+01 1.0566000000e-01 0.0000e+00 1.0000e+00
       13  1    4    4    0    0 +3.0857559666e+01 +1.1588937764e+01 -7.4903950295e+00 3.3802509504e+01 1.0566000000e-01 0.0000e+00 -1.0000e+00
      -13  1    4    4    0    0 -1.3550439813e+00 +1.6404719049e+00 -1.0379346869e+00 2.3697604756e+00 1.0566000000e-01 0.0000e+00 1.0000e+00
       14  1    4    4    0    0 +3.8795302283e+00 +1.6930001988e+00 -1.7112041497e+01 1.7627789670e+01 0.0000000000e+00 0.0000e+00 -1.0000e+00
<mgrwt>
<rscale>  0 0.85525651E+02</rscale>
<asrwt>0</asrwt>
<pdfrwt beam="1">  1        4 0.32884210E-02 0.85525651E+02</pdfrwt>
<pdfrwt beam="2">  1       -3 0.13161902E-01 0.85525651E+02</pdfrwt>
<totfact> 0.36167135E+04</totfact>
</mgrwt>
</event>
<event>
 8      1 +5.0320763e-08 8.01456400e+01 7.81860800e-03 1.32863900e-01
        2 -1    0    0  501    0 +0.0000000000e+00 +0.0000000000e+00 +6.5106593508e+01 6.5106593558e+01 2.5500000000e-03 0.0000e+00 -1.0000e+00
       -1 -1    0    0    0  501 -0.0000000000e+00 -0.0000000000e+00 -2.4664644191e+01 2.4664644706e+01 5.0400000000e-03 0.0000e+00 1.0000e+00
       24  2    1    2    0    0 +3.5527136788e-15 -1.7763568394e-15 +4.0441949317e+01 8.9771238264e+01 8.0145642145e+01 0.0000e+00 0.0000e+00
       66  2    3    3    0    0 -3.1128442516e+01 -1.4607061854e+01 +2.0554443812e+01 5.0048823575e+01 3.0000889842e+01 0.0000e+00 0.0000e+00
      -13  1    3    3    0    0 +3.1128442516e+01 +1.4607061854e+01 +1.9887505505e+01 3.9722414689e+01 1.0566000000e-01 0.0000e+00 1.0000e+00
       13  1    4    4    0    0 -1.4265140347e+01 -7.2739516415e+00 +6.2146858162e+00 1.7176672712e+01 1.0566000000e-01 0.0000e+00 -1.0000e+00
      -13  1    4    4    0    0 -6.7143308205e+00 +4.4750170616e+00 -3.8394423453e+00 8.9364700876e+00 1.0566000000e-01 0.0000e+00 1.0000e+00
       14  1    4    4    0    0 -1.0148971349e+01 -1.1808127274e+01 +1.8179200341e+01 2.3935680776e+01 0.0000000000e+00 0.0000e+00 -1.0000e+00
<mgrwt>
<rscale>  0 0.80145642E+02</rscale>
<asrwt>0</asrwt>
<pdfrwt beam="1">  1        2 0.10016399E-01 0.80145642E+02</pdfrwt>
<pdfrwt beam="2">  1       -1 0.37945607E-02 0.80145642E+02</pdfrwt>
<totfact> 0.15788875E+05</totfact>
</mgrwt>
</event>
<event>
 8      1 +5.0320763e-08 8.10317900e+01 7.81860800e-03 1.32614900e-01
        3 -1    0    0  501    0 +0.0000000000e+00 +0.0000000000e+00 +7.5976728901e+00 7.5983441844e+00 1.0100000000e-01 0.0000e+00 -1.0000e+00
       -4 -1    0    0    0  501 -0.0000000000e+00 -0.0000000000e+00 -2.1599313551e+02 2.1599686916e+02 1.2700000000e+00 0.0000e+00 1.0000e+00
      -24  2    1    2    0    0 -3.5527136788e-15 -3.5527136788e-15 -2.0839546262e+02 2.2359521335e+02 8.1031787531e+01 0.0000e+00 0.0000e+00
       66  2    3    3    0    0 +1.0875612683e+01 +3.0899971634e+01 -1.5219287706e+02 1.5854270389e+02 3.0000498864e+01 0.0000e+00 0.0000e+00
       13  1    3    3    0    0 -1.0875612683e+01 -3.0899971634e+01 -5.6202585560e+01 6.5052509452e+01 1.0566000000e-01 0.0000e+00 -1.0000e+00
       13  1    4    4    0    0 -2.1862502183e+00 -7.5771092179e-02 -1.0596836480e+01 1.0820791963e+01 1.0566000000e-01 0.0000e+00 -1.0000e+00
      -13  1    4    4    0    0 -4.3699382147e+00 +1.9239758679e+01 -8.7284855008e+01 8.9486992082e+01 1.0566000000e-01 0.0000e+00 1.0000e+00
       14  1    4    4    0    0 +1.7431801116e+01 +1.1735984047e+01 -5.4311185572e+01 5.8234919850e+01 0.0000000000e+00 0.0000e+00 -1.0000e+00
<mgrwt>
<rscale>  0 0.81031788E+02</rscale>
<asrwt>0</asrwt>
<pdfrwt beam="1">  1        3 0.11689264E-02 0.81031788E+02</pdfrwt>
<pdfrwt beam="2">  1       -4 0.33238158E-01 0.81031788E+02</pdfrwt>
<totfact> 0.30837442E+04</totfact>
</mgrwt>
</event>
<event>
 8      1 +5.0320763e-08 7.92526500e+01 7.81860800e-03 1.33118600e-01
       -1 -1    0    0    0  501 -0.0000000000e+00 +0.0000000000e+00 +1.0639911243e+01 1.0639912437e+01 5.0400000000e-03 0.0000e+00 1.0000e+00
        2 -1    0    0  501    0 +0.0000000000e+00 -0.0000000000e+00 -1.4758071090e+02 1.4758071092e+02 2.5500000000e-03 0.0000e+00 -1.0000e+00
       24  2    1    2    0    0 +0.0000000000e+00 +3.5527136788e-15 -1.3694079966e+02 1.5822062336e+02 7.9252653238e+01 0.0000e+00 0.0000e+00
       66  2    3    3    0    0 -1.7390449754e+01 +2.5970663099e+01 -1.0473487245e+02 1.1334149685e+02 2.9999971968e+01 0.0000e+00 0.0000e+00
      -13  1    3    3    0    0 +1.7390449754e+01 -2.5970663099e+01 -3.2205927212e+01 4.4879126507e+01 1.0566000000e-01 0.0000e+00 1.0000e+00
       13  1    4    4    0    0 -1.7251936897e+00 +4.2226870412e-01 -1.8387992050e+00 2.5587009746e+00 1.0566000000e-01 0.0000e+00 -1.0000e+00
      -13  1    4    4    0    0 -5.3136593786e+00 +6.1123164281e+00 -3.2416578905e+00 8.7243852519e+00 1.0566000000e-01 0.0000e+00 1.0000e+00
       14  1    4    4    0    0 -1.0351596685e+01 +1.9436077966e+01 -9.9654415350e+01 1.0205841063e+02 0.0000000000e+00 0.0000e+00 -1.0000e+00
<mgrwt>
<rscale>  0 0.79252653E+02</rscale>
<asrwt>0</asrwt>
<pdfrwt beam="1">  1        2 0.22704723E-01 0.79252653E+02</pdfrwt>
<pdfrwt beam="2">  1       -1 0.16369096E-02 0.79252653E+02</pdfrwt>
<totfact> 0.20427982E+05</totfact>
</mgrwt>
</event>
<event>
 7      1 +5.0320763e-08 1.93433400e+02 7.81860800e-03 1.15540100e-01
        2 -1    0    0  501    0 +0.0000000000e+00 +0.0000000000e+00 +5.6773646818e+01 5.6773646875e+01 2.5500000000e-03 0.0000e+00 -1.0000e+00
       -1 -1    0    0    0  501 -0.0000000000e+00 -0.0000000000e+00 -1.6476170181e+02 1.6476170189e+02 5.0400000000e-03 0.0000e+00 1.0000e+00
       66  2    1    2    0    0 +1.9535332056e+00 -7.7455780007e+01 +6.4497284872e+00 8.3335379153e+01 2.9999537870e+01 0.0000e+00 0.0000e+00
      -13  1    1    2    0    0 -1.9535332056e+00 +7.7455780007e+01 -1.1443778348e+02 1.3819996961e+02 1.0566000000e-01 0.0000e+00 1.0000e+00
       13  1    3    3    0    0 +5.9975022026e+00 -4.5452488061e+01 +1.2153151017e+01 4.7430042666e+01 1.0566000000e-01 0.0000e+00 -1.0000e+00
      -13  1    3    3    0    0 -1.8626591049e+00 -2.9547799910e+00 +3.8965316598e+00 5.2339609043e+00 1.0566000000e-01 0.0000e+00 1.0000e+00
       14  1    3    3    0    0 -2.1813098921e+00 -2.9048511956e+01 -9.5999541901e+00 3.0671375583e+01 0.0000000000e+00 0.0000e+00 -1.0000e+00
<mgrwt>
<rscale>  0 0.19343343E+03</rscale>
<asrwt>0</asrwt>
<pdfrwt beam="1">  1        2 0.87344073E-02 0.19343343E+03</pdfrwt>
<pdfrwt beam="2">  1       -1 0.25347954E-01 0.19343343E+03</pdfrwt>
<totfact> 0.11377988E+04</totfact>
</mgrwt>
</event>
<event>
 8      1 +5.0320763e-08 7.97776300e+01 7.81860800e-03 1.32968400e-01
        4 -1    0    0  501    0 +0.0000000000e+00 +0.0000000000e+00 +3.8445837627e+01 3.8466808171e+01 1.2700000000e+00 0.0000e+00 -1.0000e+00
       -3 -1    0    0    0  501 -0.0000000000e+00 -0.0000000000e+00 -4.1364051605e+01 4.1364174912e+01 1.0100000000e-01 0.0000e+00 1.0000e+00
       24  2    1    2    0    0 +0.0000000000e+00 +0.0000000000e+00 -2.9182139775e+00 7.9830983083e+01 7.9777627736e+01 0.0000e+00 0.0000e+00
       66  2    3    3    0    0 -2.5007772955e+01 +2.1467669357e+01 +7.6526110628e+00 4.5218802541e+01 2.9998801832e+01 0.0000e+00 0.0000e+00
      -13  1    3    3    0    0 +2.5007772955e+01 -2.1467669357e+01 -1.0570825040e+01 3.4612180542e+01 1.0566000000e-01 0.0000e+00 1.0000e+00
       13  1    4    4    0    0 -2.1930084093e+00 +5.4453881148e+00 +3.1618049340e+00 6.6685614701e+00 1.0566000000e-01 0.0000e+00 -1.0000e+00
      -13  1    4    4    0    0 -1.6896374567e+01 -2.4171631478e+00 -3.7960702791e+00 1.7485750335e+01 1.0566000000e-01 0.0000e+00 1.0000e+00
      -14  1    4    4    0    0 -5.9183899786e+00 +1.8439444390e+01 +8.2868764079e+00 2.1064490736e+01 0.0000000000e+00 0.0000e+00 1.0000e+00
<mgrwt>
<rscale>  0 0.79777628E+02</rscale>
<asrwt>0</asrwt>
<pdfrwt beam="1">  1        4 0.59178571E-02 0.79777628E+02</pdfrwt>
<pdfrwt beam="2">  1       -3 0.63637200E-02 0.79777628E+02</pdfrwt>
<totfact> 0.45531091E+04</totfact>
</mgrwt>
</event>
<event>
 8      1 +5.0320763e-08 8.11176900e+01 7.81860800e-03 1.32590900e-01
       -2 -1    0    0    0  501 -0.0000000000e+00 +0.0000000000e+00 +4.6463946506e+01 4.6463946576e+01 2.5500000000e-03 0.0000e+00 1.0000e+00
        1 -1    0    0  501    0 +0.0000000000e+00 -0.0000000000e+00 -3.5404224334e+01 3.5404224693e+01 5.0400000000e-03 0.0000e+00 -1.0000e+00
      -24  2    1    2    0    0 +0.0000000000e+00 +3.5527136788e-15 +1.1059722172e+01 8.1868171268e+01 8.1117692351e+01 0.0000e+00 0.0000e+00
       66  2    3    3    0    0 -2.1365244817e+00 +3.1397510377e+01 +2.1771502699e+01 4.8624798984e+01 3.0000072529e+01 0.0000e+00 0.0000e+00
       13  1    3    3    0    0 +2.1365244817e+00 -3.1397510377e+01 -1.0711780527e+01 3.3243372284e+01 1.0566000000e-01 0.0000e+00 -1.0000e+00
       13  1    4    4    0    0 -8.4280370119e+00 +4.4987915549e+00 -2.6994763531e+00 9.9282057767e+00 1.0566000000e-01 0.0000e+00 -1.0000e+00
      -13  1    4    4    0    0 -9.3631090470e-01 +1.9393032763e+01 +1.4104042309e+01 2.3997949316e+01 1.0566000000e-01 0.0000e+00 1.0000e+00
      -14  1    4    4    0    0 +7.2278234348e+00 +7.5056860591e+00 +1.0366936743e+01 1.4698643892e+01 0.0000000000e+00 0.0000e+00 1.0000e+00
<mgrwt>
<rscale>  0 0.81117692E+02</rscale>
<asrwt>0</asrwt>
<pdfrwt beam="1">  1        1 0.54468038E-02 0.81117692E+02</pdfrwt>
<pdfrwt beam="2">  1       -2 0.71482995E-02 0.81117692E+02</pdfrwt>
<totfact> 0.11962971E+05</totfact>
</mgrwt>
</event>
<event>
 8      1 +5.0320763e-08 7.90175700e+01 7.81860800e-03 1.33186300e-01
       -1 -1    0    0    0  501 -0.0000000000e+00 +0.0000000000e+00 +1.4010082096e+01 1.4010083002e+01 5.0400000000e-03 0.0000e+00 1.0000e+00
        2 -1    0    0  501    0 +0.0000000000e+00 -0.0000000000e+00 -1.1141577562e+02 1.1141577565e+02 2.5500000000e-03 0.0000e+00 -1.0000e+00
       24  2    1    2    0    0 +8.8817841970e-16 +0.0000000000e+00 -9.7405693529e+01 1.2542585866e+02 7.9017573284e+01 0.0000e+00 0.0000e+00
       66  2    3    3    0    0 +7.7303387430e+00 +1.5177933012e+01 -1.0208907372e+02 1.0776027059e+02 2.9999485971e+01 0.0000e+00 0.0000e+00
      -13  1    3    3    0    0 -7.7303387430e+00 -1.5177933012e+01 +4.6833801875e+00 1.7665588063e+01 1.0566000000e-01 0.0000e+00 1.0000e+00
       13  1    4    4    0    0 +5.0359904879e+00 +4.0907943259e+00 -3.1895012842e+01 3.2548407129e+01 1.0566000000e-01 0.0000e+00 -1.0000e+00
      -13  1    4    4    0    0 +1.1132441401e+01 +3.6170854942e+00 -1.5806742879e+01 1.9669235966e+01 1.0566000000e-01 0.0000e+00 1.0000e+00
      -14  1    4    4    0    0 -8.4380931464e+00 +7.4700531915e+00 -5.4387317995e+01 5.5542627498e+01 0.0000000000e+00 0.0000e+00 1.0000e+00
<mgrwt>
<rscale>  0 0.79017573E+02</rscale>
<asrwt>0</asrwt>
<pdfrwt beam="1">  1        2 0.17140888E-01 0.79017573E+02</pdfrwt>
<pdfrwt beam="2">  1       -1 0.21553974E-02 0.79017573E+02</pdfrwt>
<totfact> 0.18894721E+05</totfact>
</mgrwt>
</event>
<event>
 8      1 +5.0320763e-08 8.00734100e+01 7.81860800e-03 1.32884300e-01
       -1 -1    0    0    0  501 -0.0000000000e+00 +0.0000000000e+00 +6.8379935007e+00 6.8379953581e+00 5.0400000000e-03 0.0000e+00 1.0000e+00
        2 -1    0    0  501    0 +0.0000000000e+00 -0.0000000000e+00 -2.3441638322e+02 2.3441638323e+02 2.5500000000e-03 0.0000e+00 -1.0000e+00
       24  2    1    2    0    0 -3.5527136788e-15 -3.5527136788e-15 -2.2757838972e+02 2.4125437859e+02 8.0073414580e+01 0.0000e+00 0.0000e+00
       66  2    3    3    0    0 -1.3750563041e+01 -2.3883231969e+01 -1.9187509856e+02 1.9615201816e+02 3.0001233738e+01 0.0000e+00 0.0000e+00
      -13  1    3    3    0    0 +1.3750563041e+01 +2.3883231969e+01 -3.5703291154e+01 4.5102360431e+01 1.0566000000e-01 0.0000e+00 1.0000e+00
       13  1    4    4    0    0 -5.6946916844e+00 -2.3018538056e+01 -1.2642230358e+02 1.2862695135e+02 1.0566000000e-01 0.0000e+00 -1.0000e+00
      -13  1    4    4    0    0 +2.9861544089e+00 -3.1926243051e+00 -9.6765898694e+00 1.0618734559e+01 1.0566000000e-01 0.0000e+00 1.0000e+00
      -14  1    4    4    0    0 -1.1042025766e+01 +2.3279303925e+00 -5.5776205115e+01 5.6906332249e+01 0.0000000000e+00 0.0000e+00 1.0000e+00
<mgrwt>
<rscale>  0 0.80073415E+02</rscale>
<asrwt>0</asrwt>
<pdfrwt beam="1">  1        2 0.36064053E-01 0.80073415E+02</pdfrwt>
<pdfrwt beam="2">  1       -1 0.10519993E-02 0.80073415E+02</pdfrwt>
<totfact> 0.23269840E+05</totfact>
</mgrwt>
</event>
<event>
 8      1 +5.0320763e-08 7.98412900e+01 7.81860800e-03 1.32950200e-01
        1 -1    0    0  501    0 +0.0000000000e+00 +0.0000000000e+00 +2.2224698120e+00 2.2224755267e+00 5.0400000000e-03 0.0000e+00 -1.0000e+00
       -2 -1    0    0    0  501 -0.0000000000e+00 -0.0000000000e+00 -7.1706524183e+02 7.1706524183e+02 2.5500000000e-03 0.0000e+00 1.0000e+00
      -24  2    1    2    0    0 +0.0000000000e+00 +0.0000000000e+00 -7.1484277202e+02 7.1928771736e+02 7.9841290323e+01 0.0000e+00 0.0000e+00
       66  2    3    3    0    0 -2.1102775052e+01 +1.0345193982e+01 -6.3275922458e+02 6.3390581016e+02 2.9999828482e+01 0.0000e+00 0.0000e+00
       13  1    3    3    0    0 +2.1102775052e+01 -1.0345193982e+01 -8.2083547437e+01 8.5381907202e+01 1.0566000000e-01 0.0000e+00 -1.0000e+00
       13  1    4    4    0    0 -1.0957108610e+01 +1.7785264286e+00 -1.0736679552e+02 1.0793915568e+02 1.0566000000e-01 0.0000e+00 -1.0000e+00
      -13  1    4    4    0    0 -3.8076559659e+00 +5.5898928017e+00 -4.3452382931e+01 4.3975742084e+01 1.0566000000e-01 0.0000e+00 1.0000e+00
      -14  1    4    4    0    0 -6.3380104766e+00 +2.9767747517e+00 -4.8194004613e+02 4.8199091239e+02 0.0000000000e+00 0.0000e+00 1.0000e+00
<mgrwt>
<rscale>  0 0.79841290E+02</rscale>
<asrwt>0</asrwt>
<pdfrwt beam="1">  1        1 0.34191944E-03 0.79841290E+02</pdfrwt>
<pdfrwt beam="2">  1       -2 0.11031755E+00 0.79841290E+02</pdfrwt>
<totfact> 0.37181129E+04</totfact>
</mgrwt>
</event>
<event>
 8      1 +5.0320763e-08 7.97788000e+01 7.81860800e-03 1.32968000e-01
        2 -1    0    0  501    0 +0.0000000000e+00 +0.0000000000e+00 +7.7676240964e+00 7.7676245149e+00 2.5500000000e-03 0.0000e+00 -1.0000e+00
       -1 -1    0    0    0  501 -0.0000000000e+00 -0.0000000000e+00 -2.0484566161e+02 2.0484566167e+02 5.0400000000e-03 0.0000e+00 1.0000e+00
       24  2    1    2    0    0 +0.0000000000e+00 +2.6645352591e-15 -1.9707803751e+02 2.1261328619e+02 7.9778797891e+01 0.0000e+00 0.0000e+00
       66  2    3    3    0    0 +3.0901149696e+01 +2.9865530128e+00 -1.5101700748e+02 1.5706663729e+02 2.9999857521e+01 0.0000e+00 0.0000e+00
      -13  1    3    3    0    0 -3.0901149696e+01 -2.9865530128e+00 -4.6061030033e+01 5.5546648892e+01 1.0566000000e-01 0.0000e+00 1.0000e+00
       13  1    4    4    0    0 +1.2135578052e+01 +9.3242732592e+00 -6.8049959689e+01 6.9749713291e+01 1.0566000000e-01 0.0000e+00 -1.0000e+00
      -13  1    4    4    0    0 +6.5370162483e+00 -1.1951690621e+01 -3.7355917338e+01 3.9762434713e+01 1.0566000000e-01 0.0000e+00 1.0000e+00
      -14  1    4    4    0    0 +1.2228555395e+01 +5.6139703744e+00 -4.5611130453e+01 4.7554489290e+01 0.0000000000e+00 0.0000e+00 1.0000e+00
<mgrwt>
<rscale>  0 0.79778798E+02</rscale>
<asrwt>0</asrwt>
<pdfrwt beam="1">  1        2 0.11950193E-02 0.79778798E+02</pdfrwt>
<pdfrwt beam="2">  1       -1 0.31514713E-01 0.79778798E+02</pdfrwt>
<totfact> 0.99579060E+04</totfact>
</mgrwt>
</event>
<event>
 8      1 +5.0320763e-08 7.96958100e+01 7.81860800e-03 1.32991700e-01
       -1 -1    0    0    0  501 -0.0000000000e+00 +0.0000000000e+00 +1.8510972297e+01 1.8510972983e+01 5.0400000000e-03 0.0000e+00 1.0000e+00
        2 -1    0    0  501    0 +0.0000000000e+00 -0.0000000000e+00 -8.5779145408e+01 8.5779145445e+01 2.5500000000e-03 0.0000e+00 -1.0000e+00
       24  2    1    2    0    0 +0.0000000000e+00 +0.0000000000e+00 -6.7268173111e+01 1.0429011843e+02 7.9695807218e+01 0.0000e+00 0.0000e+00
       66  2    3    3    0    0 +5.4367782114e+00 +2.8846876267e+01 -6.1359604063e+01 7.4346451653e+01 3.0011548360e+01 0.0000e+00 0.0000e+00
      -13  1    3    3    0    0 -5.4367782114e+00 -2.8846876267e+01 -5.9085690477e+00 2.9943666775e+01 1.0566000000e-01 0.0000e+00 1.0000e+00
       13  1    4    4    0    0 -2.1377020431e+00 +1.7711750297e+01 -4.6252648832e+01 4.9574131930e+01 1.0566000000e-01 0.0000e+00 -1.0000e+00
      -13  1    4    4    0    0 +7.8051542902e-01 +9.9528878929e+00 -2.3286642049e+00 1.0251976529e+01 1.0566000000e-01 0.0000e+00 1.0000e+00
       14  1    4    4    0    0 +6.7939648254e+00 +1.1822380777e+00 -1.2778291026e+01 1.4520343194e+01 0.0000000000e+00 0.0000e+00 -1.0000e+00
<mgrwt>
<rscale>  0 0.79695807E+02</rscale>
<asrwt>0</asrwt>
<pdfrwt beam="1">  1        2 0.13196791E-01 0.79695807E+02</pdfrwt>
<pdfrwt beam="2">  1       -1 0.28478420E-02 0.79695807E+02</pdfrwt>
<totfact> 0.17176771E+05</totfact>
</mgrwt>
</event>
<event>
 8      1 +5.0320763e-08 7.69740800e+01 7.81860800e-03 1.33786500e-01
        2 -1    0    0  501    0 +0.0000000000e+00 +0.0000000000e+00 +1.4381890880e+03 1.4381890880e+03 2.5500000000e-03 0.0000e+00 -1.0000e+00
       -1 -1    0    0    0  501 -0.0000000000e+00 -0.0000000000e+00 -1.0299364986e+00 1.0299488302e+00 5.0400000000e-03 0.0000e+00 1.0000e+00
       24  2    1    2    0    0 +1.7763568394e-15 +4.4408920985e-16 +1.4371591515e+03 1.4392190368e+03 7.6974081591e+01 0.0000e+00 0.0000e+00
       66  2    3    3    0    0 -1.3234469199e+01 +2.6758672943e+00 +1.3833654385e+03 1.3837565616e+03 2.9999563030e+01 0.0000e+00 0.0000e+00
      -13  1    3    3    0    0 +1.3234469199e+01 -2.6758672943e+00 +5.3793712960e+01 5.5462475232e+01 1.0566000000e-01 0.0000e+00 1.0000e+00
       13  1    4    4    0    0 -1.1686545681e+01 -1.0824849958e-01 +6.5456227833e+02 6.5466661321e+02 1.0566000000e-01 0.0000e+00 -1.0000e+00
      -13  1    4    4    0    0 -2.7941236900e+00 +4.9741478695e-01 +1.4157698055e+01 1.4439741235e+01 1.0566000000e-01 0.0000e+00 1.0000e+00
      -14  1    4    4    0    0 +1.2462001715e+00 +2.2867010069e+00 +7.1464546213e+02 7.1465020713e+02 0.0000000000e+00 0.0000e+00 1.0000e+00
<mgrwt>
<rscale>  0 0.76974082E+02</rscale>
<asrwt>0</asrwt>
<pdfrwt beam="1">  1        2 0.22125954E+00 0.76974082E+02</pdfrwt>
<pdfrwt beam="2">  1       -1 0.15845295E-03 0.76974082E+02</pdfrwt>
<totfact> 0.37288403E+05</totfact>
</mgrwt>
</event>
<event>
 8      1 +5.0320763e-08 8.09248300e+01 7.81860800e-03 1.32644700e-01
       -4 -1    0    0    0  501 -0.0000000000e+00 +0.0000000000e+00 +1.3012407765e+01 1.3074236339e+01 1.2700000000e+00 0.0000e+00 1.0000e+00
        3 -1    0    0  501    0 +0.0000000000e+00 -0.0000000000e+00 -1.2548957709e+02 1.2548961774e+02 1.0100000000e-01 0.0000e+00 -1.0000e+00
      -24  2    1    2    0    0 +4.4408920985e-16 +0.0000000000e+00 -1.1247716933e+02 1.3856385408e+02 8.0924829544e+01 0.0000e+00 0.0000e+00
       66  2    3    3    0    0 +1.2806391391e+00 -3.4294322538e+01 -5.3086055649e+01 6.9970442273e+01 2.9999881542e+01 0.0000e+00 0.0000e+00
       13  1    3    3    0    0 -1.2806391391e+00 +3.4294322538e+01 -5.9391113679e+01 6.8593411805e+01 1.0566000000e-01 0.0000e+00 -1.0000e+00
       13  1    4    4    0    0 +5.3829168565e+00 -9.3089143902e+00 -4.6988281734e+00 1.1735494504e+01 1.0566000000e-01 0.0000e+00 -1.0000e+00
      -13  1    4    4    0    0 +1.1757288237e+00 -1.7335531107e+01 -1.3144730826e+01 2.1787567316e+01 1.0566000000e-01 0.0000e+00 1.0000e+00
       14  1    4    4    0    0 -5.2780065411e+00 -7.6498770405e+00 -3.5242496650e+01 3.6447380453e+01 0.0000000000e+00 0.0000e+00 -1.0000e+00
<mgrwt>
<rscale>  0 0.80924830E+02</rscale>
<asrwt>0</asrwt>
<pdfrwt beam="1">  1        3 0.19306121E-01 0.80924830E+02</pdfrwt>
<pdfrwt beam="2">  1       -4 0.20071594E-02 0.80924830E+02</pdfrwt>
<totfact> 0.39622376E+04</totfact>
</mgrwt>
</event>
<event>
 8      1 +5.0320763e-08 8.11553500e+01 7.81860800e-03 1.32580400e-01
        1 -1    0    0  501    0 +0.0000000000e+00 +0.0000000000e+00 +2.8973071862e+01 2.8973072301e+01 5.0400000000e-03 0.0000e+00 -1.0000e+00
       -2 -1    0    0    0  501 -0.0000000000e+00 -0.0000000000e+00 -5.6830282500e+01 5.6830282557e+01 2.5500000000e-03 0.0000e+00 1.0000e+00
      -24  2    1    2    0    0 +0.0000000000e+00 +7.1054273576e-15 -2.7857210638e+01 8.5803354858e+01 8.1155354231e+01 0.0000e+00 0.0000e+00
       66  2    3    3    0    0 -1.4138292351e+01 -3.1944763225e+01 -1.8602590686e+01 4.9664478802e+01 3.0002414341e+01 0.0000e+00 0.0000e+00
       13  1    3    3    0    0 +1.4138292351e+01 +3.1944763225e+01 -9.2546199513e+00 3.6138876056e+01 1.0566000000e-01 0.0000e+00 -1.0000e+00
       13  1    4    4    0    0 -1.4414693981e+01 -1.9625482844e+01 -1.5986065961e+01 2.9129168344e+01 1.0566000000e-01 0.0000e+00 -1.0000e+00
      -13  1    4    4    0    0 -7.1855949568e+00 -2.3753204572e+00 +8.8225007476e-01 7.6200033719e+00 1.0566000000e-01 0.0000e+00 1.0000e+00
       14  1    4    4    0    0 +7.4619965872e+00 -9.9439599240e+00 -3.4987748000e+00 1.2915307087e+01 0.0000000000e+00 0.0000e+00 -1.0000e+00
<mgrwt>
<rscale>  0 0.81155354E+02</rscale>
<asrwt>0</asrwt>
<pdfrwt beam="1">  1        1 0.44573957E-02 0.81155354E+02</pdfrwt>
<pdfrwt beam="2">  1       -2 0.87431204E-02 0.81155354E+02</pdfrwt>
<totfact> 0.11532600E+05</totfact>
</mgrwt>
</event>
<event>
 8      1 +5.0320763e-08 7.47117400e+01 7.81860800e-03 1.34476600e-01
        2 -1    0    0  501    0 +0.0000000000e+00 +0.0000000000e+00 +4.9300130235e+00 4.9300136830e+00 2.5500000000e-03 0.0000e+00 -1.0000e+00
       -1 -1    0    0    0  501 -0.0000000000e+00 -0.0000000000e+00 -2.8305419209e+02 2.8305419213e+02 5.0400000000e-03 0.0000e+00 1.0000e+00
       24  2    1    2    0    0 +3.5527136788e-15 +0.0000000000e+00 -2.7812417906e+02 2.8798420581e+02 7.4711738161e+01 0.0000e+00 0.0000e+00
       66  2    3    3    0    0 +2.3152043784e+01 +2.8537834431e+00 -2.4211489585e+02 2.4507918451e+02 3.0000377960e+01 0.0000e+00 0.0000e+00
      -13  1    3    3    0    0 -2.3152043784e+01 -2.8537834431e+00 -3.6009283213e+01 4.2905021301e+01 1.0566000000e-01 0.0000e+00 1.0000e+00
       13  1    4    4    0    0 -1.5768381323e+00 -1.2100518806e+00 -1.1590610168e+02 1.1592319101e+02 1.0566000000e-01 0.0000e+00 -1.0000e+00
      -13  1    4    4    0    0 +6.6945460405e-01 +1.4391091705e+00 -2.6660693038e+01 2.6708105923e+01 1.0566000000e-01 0.0000e+00 1.0000e+00
       14  1    4    4    0    0 +2.4059427312e+01 +2.6247261531e+00 -9.9548101132e+01 1.0244788758e+02 0.0000000000e+00 0.0000e+00 -1.0000e+00
<mgrwt>
<rscale>  0 0.74711738E+02</rscale>
<asrwt>0</asrwt>
<pdfrwt beam="1">  1        2 0.75846382E-03 0.74711738E+02</pdfrwt>
<pdfrwt beam="2">  1       -1 0.43546786E-01 0.74711738E+02</pdfrwt>
<totfact> 0.10534562E+05</totfact>
</mgrwt>
</event>
<event>
 8      1 +5.0320763e-08 7.85223800e+01 7.81860800e-03 1.33329800e-01
        3 -1    0    0  501    0 +0.0000000000e+00 +0.0000000000e+00 +5.3386767852e+01 5.3386863391e+01 1.0100000000e-01 0.0000e+00 -1.0000e+00
       -2 -1    0    0    0  501 -0.0000000000e+00 -0.0000000000e+00 -2.8873017219e+01 2.8873017332e+01 2.5500000000e-03 0.0000e+00 1.0000e+00
      -24  2    1    2    0    0 +3.5527136788e-15 -3.5527136788e-15 +2.4513750633e+01 8.2259880722e+01 7.8522379016e+01 0.0000e+00 0.0000e+00
       66  2    3    3    0    0 +1.4134248223e+01 -2.7106692946e+01 -3.8290816533e-01 4.2833943084e+01 3.0000838091e+01 0.0000e+00 0.0000e+00
       13  1    3    3    0    0 -1.4134248223e+01 +2.7106692946e+01 +2.4896658798e+01 3.9425937638e+01 1.0566000000e-01 0.0000e+00 -1.0000e+00
       13  1    4    4    0    0 -5.1318098926e+00 +4.1352650802e-01 +5.8073376519e+00 7.7616242878e+00 1.0566000000e-01 0.0000e+00 -1.0000e+00
      -13  1    4    4    0    0 +2.8297321764e+00 -6.8938108146e+00 -4.3605414206e+00 8.6346683350e+00 1.0566000000e-01 0.0000e+00 1.0000e+00
       14  1    4    4    0    0 +1.6436325940e+01 -2.0626408639e+01 -1.8297043966e+00 2.6437650461e+01 0.0000000000e+00 0.0000e+00 -1.0000e+00
<mgrwt>
<rscale>  0 0.78522379E+02</rscale>
<asrwt>0</asrwt>
<pdfrwt beam="1">  1        3 0.82133698E-02 0.78522379E+02</pdfrwt>
<pdfrwt beam="2">  1       -2 0.44420027E-02 0.78522379E+02</pdfrwt>
<totfact> 0.75552752E+04</totfact>
</mgrwt>
</event>
<event>
 8      1 +5.0320763e-08 7.88679300e+01 7.81860800e-03 1.33229500e-01
        2 -1    0    0  501    0 +0.0000000000e+00 +0.0000000000e+00 +3.9288547779e+02 3.9288547780e+02 2.5500000000e-03 0.0000e+00 -1.0000e+00
       -1 -1    0    0    0  501 -0.0000000000e+00 -0.0000000000e+00 -3.9579900309e+00 3.9579932398e+00 5.0400000000e-03 0.0000e+00 1.0000e+00
       24  2    1    2    0    0 +0.0000000000e+00 +0.0000000000e+00 +3.8892748776e+02 3.9684347104e+02 7.8867926123e+01 0.0000e+00 0.0000e+00
       66  2    3    3    0    0 +3.1465074651e+01 -1.2066789416e+01 +2.2960002628e+02 2.3399105480e+02 2.9999722140e+01 0.0000e+00 0.0000e+00
      -13  1    3    3    0    0 -3.1465074651e+01 +1.2066789416e+01 +1.5932746148e+02 1.6285241624e+02 1.0566000000e-01 0.0000e+00 1.0000e+00
       13  1    4    4    0    0 +1.4815749201e+00 +1.7507233790e+00 +2.6246000254e+01 2.6346229141e+01 1.0566000000e-01 0.0000e+00 -1.0000e+00
      -13  1    4    4    0    0 -4.1422261725e-01 -1.7536375162e+00 +8.0263078514e+01 8.0283371637e+01 1.0566000000e-01 0.0000e+00 1.0000e+00
      -14  1    4    4    0    0 +3.0397722348e+01 -1.2063875279e+01 +1.2309094751e+02 1.2736145402e+02 0.0000000000e+00 0.0000e+00 1.0000e+00
<mgrwt>
<rscale>  0 0.78867926E+02</rscale>
<asrwt>0</asrwt>
<pdfrwt beam="1">  1        2 0.60443929E-01 0.78867926E+02</pdfrwt>
<pdfrwt beam="2">  1       -1 0.60892170E-03 0.78867926E+02</pdfrwt>
<totfact> 0.29140943E+05</totfact>
</mgrwt>
</event>
<event>
 8      1 +5.0320763e-08 8.01258200e+01 7.81860800e-03 1.32869500e-01
        1 -1    0    0  501    0 +0.0000000000e+00 +0.0000000000e+00 +1.6435070006e+02 1.6435070014e+02 5.0400000000e-03 0.0000e+00 -1.0000e+00
       -2 -1    0    0    0  501 -0.0000000000e+00 -0.0000000000e+00 -9.7659262302e+00 9.7659265631e+00 2.5500000000e-03 0.0000e+00 1.0000e+00
      -24  2    1    2    0    0 +3.5527136788e-15 +3.5527136788e-15 +1.5458477383e+02 1.7411662670e+02 8.0125822264e+01 0.0000e+00 0.0000e+00
       66  2    3    3    0    0 +2.8020556492e+01 +1.7834062249e+01 +6.8287616681e+01 8.1648167978e+01 3.0000322994e+01 0.0000e+00 0.0000e+00
       13  1    3    3    0    0 -2.8020556492e+01 -1.7834062249e+01 +8.6297157150e+01 9.2468458723e+01 1.0566000000e-01 0.0000e+00 -1.0000e+00
       13  1    4    4    0    0 +2.4370531171e-01 +2.0280157676e+00 +2.3263470934e+01 2.3353211431e+01 1.0566000000e-01 0.0000e+00 -1.0000e+00
      -13  1    4    4    0    0 +2.3032647051e+01 +4.3946201115e+00 +3.6117372082e+01 4.3061482165e+01 1.0566000000e-01 0.0000e+00 1.0000e+00
      -14  1    4    4    0    0 +4.7442041301e+00 +1.1411426370e+01 +8.9067736653e+00 1.5233474382e+01 0.0000000000e+00 0.0000e+00 1.0000e+00
<mgrwt>
<rscale>  0 0.80125822E+02</rscale>
<asrwt>0</asrwt>
<pdfrwt beam="1">  1        1 0.25284723E-01 0.80125822E+02</pdfrwt>
<pdfrwt beam="2">  1       -2 0.15024502E-02 0.80125822E+02</pdfrwt>
<totfact> 0.15992140E+05</totfact>
</mgrwt>
</event>
<event>
 8      1 +5.0320763e-08 8.08697300e+01 7.81860800e-03 1.32660100e-01
        2 -1    0    0  501    0 +0.0000000000e+00 +0.0000000000e+00 +6.6352078854e+01 6.6352078903e+01 2.5500000000e-03 0.0000e+00 -1.0000e+00
       -1 -1    0    0    0  501 -0.0000000000e+00 -0.0000000000e+00 -2.4640947763e+01 2.4640948279e+01 5.0400000000e-03 0.0000e+00 1.0000e+00
       24  2    1    2    0    0 +0.0000000000e+00 +3.5527136788e-15 +4.1711131091e+01 9.0993027182e+01 8.0869725725e+01 0.0000e+00 0.0000e+00
       66  2    3    3    0    0 +2.1691490580e+01 +2.5657485930e+01 +3.4226869735e+01 5.6571338090e+01 3.0000172226e+01 0.0000e+00 0.0000e+00
      -13  1    3    3    0    0 -2.1691490580e+01 -2.5657485930e+01 +7.4842613558e+00 3.4421689092e+01 1.0566000000e-01 0.0000e+00 1.0000e+00
       13  1    4    4    0    0 +1.2028047022e+01 +1.7201490170e+01 +2.1548520230e+01 3.0081806252e+01 1.0566000000e-01 0.0000e+00 -1.0000e+00
      -13  1    4    4    0    0 +9.1711325006e+00 +1.1216925701e+01 +1.0494836185e+00 1.4527273434e+01 1.0566000000e-01 0.0000e+00 1.0000e+00
       14  1    4    4    0    0 +4.9231105730e-01 -2.7609299408e+00 +1.1628865887e+01 1.1962258404e+01 0.0000000000e+00 0.0000e+00 -1.0000e+00
<mgrwt>
<rscale>  0 0.80869726E+02</rscale>
<asrwt>0</asrwt>
<pdfrwt beam="1">  1        2 0.10208012E-01 0.80869726E+02</pdfrwt>
<pdfrwt beam="2">  1       -1 0.37909151E-02 0.80869726E+02</pdfrwt>
<totfact> 0.15478038E+05</totfact>
</mgrwt>
</event>
<event>
 8      1 +5.0320763e-08 7.84959200e+01 7.81860800e-03 1.33337500e-01
        1 -1    0    0  501    0 +0.0000000000e+00 +0.0000000000e+00 +7.5504621097e+01 7.5504621266e+01 5.0400000000e-03 0.0000e+00 -1.0000e+00
       -2 -1    0    0    0  501 -0.0000000000e+00 -0.0000000000e+00 -2.0401432367e+01 2.0401432527e+01 2.5500000000e-03 0.0000e+00 1.0000e+00
      -24  2    1    2    0    0 -1.7763568394e-15 -1.7763568394e-15 +5.5103188730e+01 9.5906053792e+01 7.8495921842e+01 0.0000e+00 0.0000e+00
       66  2    3    3    0    0 +1.1562598008e+01 +8.8673567915e+00 -5.3006822494e+00 3.3769410155e+01 2.9999202335e+01 0.0000e+00 0.0000e+00
       13  1    3    3    0    0 -1.1562598008e+01 -8.8673567915e+00 +6.0403870979e+01 6.2136643637e+01 1.0566000000e-01 0.0000e+00 -1.0000e+00
       13  1    4    4    0    0 +1.2471738467e+01 -5.6754420470e-02 -3.7340201864e+00 1.3019276179e+01 1.0566000000e-01 0.0000e+00 -1.0000e+00
      -13  1    4    4    0    0 +3.9142416174e+00 -2.1544245669e+00 -6.3413069742e+00 7.7579746604e+00 1.0566000000e-01 0.0000e+00 1.0000e+00
       14  1    4    4    0    0 -4.8233820760e+00 +1.1078535779e+01 +4.7746449112e+00 1.2992159316e+01 0.0000000000e+00 0.0000e+00 -1.0000e+00
<mgrwt>
<rscale>  0 0.78495922E+02</rscale>
<asrwt>0</asrwt>
<pdfrwt beam="1">  1        1 0.11616096E-01 0.78495922E+02</pdfrwt>
<pdfrwt beam="2">  1       -2 0.31386819E-02 0.78495922E+02</pdfrwt>
<totfact> 0.14784044E+05</totfact>
</mgrwt>
</event>
<event>
 8      1 +5.0320763e-08 7.91206000e+01 7.81860800e-03 1.33156600e-01
       -4 -1    0    0    0  501 -0.0000000000e+00 +0.0000000000e+00 +1.1939313262e+02 1.1939988700e+02 1.2700000000e+00 0.0000e+00 1.0000e+00
        3 -1    0    0  501    0 +0.0000000000e+00 -0.0000000000e+00 -1.3104137888e+01 1.3104527111e+01 1.0100000000e-01 0.0000e+00 -1.0000e+00
      -24  2    1    2    0    0 -7.7715611724e-16 +0.0000000000e+00 +1.0628899473e+02 1.3250441411e+02 7.9120600093e+01 0.0000e+00 0.0000e+00
       66  2    3    3    0    0 -6.5378995331e-01 -3.3384686421e+01 +7.0318029125e+01 8.3424008051e+01 2.9999586174e+01 0.0000e+00 0.0000e+00
       13  1    3    3    0    0 +6.5378995331e-01 +3.3384686421e+01 +3.5970965605e+01 4.9080406063e+01 1.0566000000e-01 0.0000e+00 -1.0000e+00
       13  1    4    4    0    0 +3.8499089743e+00 +1.3478018934e+00 +2.6900488057e+00 4.8873198859e+00 1.0566000000e-01 0.0000e+00 -1.0000e+00
      -13  1    4    4    0    0 -4.0143904839e+00 -8.6178626154e+00 +3.7389940607e+01 3.8579809611e+01 1.0566000000e-01 0.0000e+00 1.0000e+00
      -14  1    4    4    0    0 -4.8930844371e-01 -2.6114625699e+01 +3.0238039712e+01 3.9956878554e+01 0.0000000000e+00 0.0000e+00 1.0000e+00
<mgrwt>
<rscale>  0 0.79120600E+02</rscale>
<asrwt>0</asrwt>
<pdfrwt beam="1">  1        3 0.20160545E-02 0.79120600E+02</pdfrwt>
<pdfrwt beam="2">  1       -4 0.18373427E-01 0.79120600E+02</pdfrwt>
<totfact> 0.39989884E+04</totfact>
</mgrwt>
</event>
<event>
 8      1 +5.0320763e-08 8.33639400e+01 7.81860800e-03 1.31976700e-01
        1 -1    0    0  501    0 +0.0000000000e+00 +0.0000000000e+00 +3.3272537083e+02 3.3272537087e+02 5.0400000000e-03 0.0000e+00 -1.0000e+00
       -2 -1    0    0    0  501 -0.0000000000e+00 -0.0000000000e+00 -5.2216830012e+00 5.2216836238e+00 2.5500000000e-03 0.0000e+00 1.0000e+00
      -24  2    1    2    0    0 -1.7763568394e-15 +7.1054273576e-15 +3.2750368783e+02 3.3794705449e+02 8.3363937637e+01 0.0000e+00 0.0000e+00
       66  2    3    3    0    0 -1.0016175693e+01 +3.3734538748e+01 +2.2080586526e+02 2.2559591126e+02 2.9999036068e+01 0.0000e+00 0.0000e+00
       13  1    3    3    0    0 +1.0016175693e+01 -3.3734538748e+01 +1.0669782257e+02 1.1235114323e+02 1.0566000000e-01 0.0000e+00 -1.0000e+00
       13  1    4    4    0    0 -2.8848174943e+00 +1.0861197275e+01 +1.2593272453e+02 1.2643318413e+02 1.0566000000e-01 0.0000e+00 -1.0000e+00
      -13  1    4    4    0    0 -5.3980151384e+00 +6.1201311795e+00 +1.1477318886e+01 1.4083131255e+01 1.0566000000e-01 0.0000e+00 1.0000e+00
      -14  1    4    4    0    0 -1.7333430605e+00 +1.6753210294e+01 +8.3395821842e+01 8.5079595873e+01 0.0000000000e+00 0.0000e+00 1.0000e+00
<mgrwt>
<rscale>  0 0.83363938E+02</rscale>
<asrwt>0</asrwt>
<pdfrwt beam="1">  1        1 0.51188546E-01 0.83363938E+02</pdfrwt>
<pdfrwt beam="2">  1       -2 0.80333547E-03 0.83363938E+02</pdfrwt>
<totfact> 0.16500261E+05</totfact>
</mgrwt>
</event>
<event>
 8      1 +5.0320763e-08 8.32116700e+01 7.81860800e-03 1.32017700e-01
       -3 -1    0    0    0  501 -0.0000000000e+00 +0.0000000000e+00 +2.5186602942e+00 2.5206845653e+00 1.0100000000e-01 0.0000e+00 1.0000e+00
        2 -1    0    0  501    0 +0.0000000000e+00 -0.0000000000e+00 -6.8701118474e+02 6.8701118475e+02 2.5500000000e-03 0.0000e+00 -1.0000e+00
       24  2    1    2    0    0 +4.4408920985e-16 +0.0000000000e+00 -6.8449252445e+02 6.8953186931e+02 8.3211674494e+01 0.0000e+00 0.0000e+00
       66  2    3    3    0    0 +2.1073322968e+00 +1.4869238858e+01 -6.5965002653e+02 6.6050264300e+02 3.0000813167e+01 0.0000e+00 0.0000e+00
      -13  1    3    3    0    0 -2.1073322968e+00 -1.4869238858e+01 -2.4842497916e+01 2.9029226313e+01 1.0566000000e-01 0.0000e+00 1.0000e+00
       13  1    4    4    0    0 +1.7167654926e+00 +1.1664708996e+01 -1.7523346231e+02 1.7562969623e+02 1.0566000000e-01 0.0000e+00 -1.0000e+00
      -13  1    4    4    0    0 +1.0559532885e+01 +1.5466358112e+00 -2.6421835008e+02 2.6443381686e+02 1.0566000000e-01 0.0000e+00 1.0000e+00
       14  1    4    4    0    0 -1.0168966081e+01 +1.6578940510e+00 -2.2019821414e+02 2.2043912991e+02 0.0000000000e+00 0.0000e+00 -1.0000e+00
<mgrwt>
<rscale>  0 0.83211674E+02</rscale>
<asrwt>0</asrwt>
<pdfrwt beam="1">  1        2 0.10569388E+00 0.83211674E+02</pdfrwt>
<pdfrwt beam="2">  1       -3 0.38764303E-03 0.83211674E+02</pdfrwt>
<totfact> 0.25409428E+05</totfact>
</mgrwt>
</event>
<event>
 8      1 +5.0320763e-08 7.91256600e+01 7.81860800e-03 1.33155100e-01
       -2 -1    0    0    0  501 -0.0000000000e+00 +0.0000000000e+00 +6.5848211993e+00 6.5848216931e+00 2.5500000000e-03 0.0000e+00 1.0000e+00
        1 -1    0    0  501    0 +0.0000000000e+00 -0.0000000000e+00 -2.3770080148e+02 2.3770080153e+02 5.0400000000e-03 0.0000e+00 -1.0000e+00
      -24  2    1    2    0    0 +0.0000000000e+00 +0.0000000000e+00 -2.3111598028e+02 2.4428562323e+02 7.9125655600e+01 0.0000e+00 0.0000e+00
       66  2    3    3    0    0 -3.1930454219e+01 +1.1110928772e+01 -1.2558338215e+02 1.3346979819e+02 2.9999908561e+01 0.0000e+00 0.0000e+00
       13  1    3    3    0    0 +3.1930454219e+01 -1.1110928772e+01 -1.0553259813e+02 1.1081582503e+02 1.0566000000e-01 0.0000e+00 -1.0000e+00
       13  1    4    4    0    0 -2.4840893392e+01 +3.1813039070e+00 -1.0953266207e+02 1.1235927155e+02 1.0566000000e-01 0.0000e+00 1.0000e+00
      -13  1    4    4    0    0 +1.4889124531e+00 +1.9643500500e+00 -6.5081219027e+00 6.9600536024e+00 1.0566000000e-01 0.0000e+00 -1.0000e+00
      -14  1    4    4    0    0 -8.5784732799e+00 +5.9652748146e+00 -9.5425981796e+00 1.4150473047e+01 0.0000000000e+00 0.0000e+00 1.0000e+00
<mgrwt>
<rscale>  0 0.79125656E+02</rscale>
<asrwt>0</asrwt>
<pdfrwt beam="1">  1        1 0.36569348E-01 0.79125656E+02</pdfrwt>
<pdfrwt beam="2">  1       -2 0.10130496E-02 0.79125656E+02</pdfrwt>
<totfact> 0.17753423E+05</totfact>
</mgrwt>
</event>
<event>
 8      1 +5.0320763e-08 7.85771200e+01 7.81860800e-03 1.33313900e-01
       -2 -1    0    0    0  501 -0.0000000000e+00 +0.0000000000e+00 +3.2996310805e+01 3.2996310904e+01 2.5500000000e-03 0.0000e+00 1.0000e+00
        1 -1    0    0  501    0 +0.0000000000e+00 -0.0000000000e+00 -4.6780714753e+01 4.6780715024e+01 5.0400000000e-03 0.0000e+00 -1.0000e+00
      -24  2    1    2    0    0 +3.5527136788e-15 +0.0000000000e+00 -1.3784403948e+01 7.9777025928e+01 7.8577121821e+01 0.0000e+00 0.0000e+00
       66  2    3    3    0    0 -2.5753758731e+01 -1.9549269196e+01 +1.2384263138e+00 4.4124163378e+01 2.9999634650e+01 0.0000e+00 0.0000e+00
       13  1    3    3    0    0 +2.5753758731e+01 +1.9549269196e+01 -1.5022830262e+01 3.5652862550e+01 1.0566000000e-01 0.0000e+00 -1.0000e+00
       13  1    4    4    0    0 +2.2969849439e-01 -3.3734502355e-01 -1.9635993399e+00 2.0083449570e+00 1.0566000000e-01 0.0000e+00 -1.0000e+00
      -13  1    4    4    0    0 +4.7274441446e+00 +1.4885779807e+00 +3.1459779929e-01 4.9673663400e+00 1.0566000000e-01 0.0000e+00 1.0000e+00
      -14  1    4    4    0    0 -3.0710901370e+01 -2.0700502154e+01 +2.8874278544e+00 3.7148452081e+01 0.0000000000e+00 0.0000e+00 1.0000e+00
<mgrwt>
<rscale>  0 0.78577122E+02</rscale>
<asrwt>0</asrwt>
<pdfrwt beam="1">  1        1 0.71970331E-02 0.78577122E+02</pdfrwt>
<pdfrwt beam="2">  1       -2 0.50763555E-02 0.78577122E+02</pdfrwt>
<totfact> 0.13687540E+05</totfact>
</mgrwt>
</event>
<event>
 8      1 +5.0320763e-08 8.05391000e+01 7.81860800e-03 1.32752800e-01
        1 -1    0    0  501    0 +0.0000000000e+00 +0.0000000000e+00 +1.1244923988e+02 1.1244923999e+02 5.0400000000e-03 0.0000e+00 -1.0000e+00
       -2 -1    0    0    0  501 -0.0000000000e+00 -0.0000000000e+00 -1.4421055299e+01 1.4421055525e+01 2.5500000000e-03 0.0000e+00 1.0000e+00
      -24  2    1    2    0    0 +0.0000000000e+00 +0.0000000000e+00 +9.8028184579e+01 1.2687029552e+02 8.0539101761e+01 0.0000e+00 0.0000e+00
       66  2    3    3    0    0 +1.9351789009e+01 -2.8690345065e+01 +5.2214414453e+01 6.9454789466e+01 2.9999917755e+01 0.0000e+00 0.0000e+00
       13  1    3    3    0    0 -1.9351789009e+01 +2.8690345065e+01 +4.5813770126e+01 5.7415506050e+01 1.0566000000e-01 0.0000e+00 -1.0000e+00
       13  1    4    4    0    0 +1.7049031283e+01 -5.2386944791e+00 +1.2319558927e+01 2.1677086606e+01 1.0566000000e-01 0.0000e+00 1.0000e+00
      -13  1    4    4    0    0 -4.1118959750e+00 -1.5471189714e+01 +2.5625875090e+01 3.0215261671e+01 1.0566000000e-01 0.0000e+00 -1.0000e+00
      -14  1    4    4    0    0 +6.4146537008e+00 -7.9804608713e+00 +1.4268980437e+01 1.7562441189e+01 0.0000000000e+00 0.0000e+00 1.0000e+00
<mgrwt>
<rscale>  0 0.80539102E+02</rscale>
<asrwt>0</asrwt>
<pdfrwt beam="1">  1        1 0.17299884E-01 0.80539102E+02</pdfrwt>
<pdfrwt beam="2">  1       -2 0.22186239E-02 0.80539102E+02</pdfrwt>
<totfact> 0.14727032E+05</totfact>
</mgrwt>
</event>
<event>
 8      1 +5.0320763e-08 8.02075600e+01 7.81860800e-03 1.32846300e-01
        2 -1    0    0  501    0 +0.0000000000e+00 +0.0000000000e+00 +1.3827561536e+02 1.3827561539e+02 2.5500000000e-03 0.0000e+00 -1.0000e+00
       -1 -1    0    0    0  501 -0.0000000000e+00 -0.0000000000e+00 -1.1631214098e+01 1.1631215190e+01 5.0400000000e-03 0.0000e+00 1.0000e+00
       24  2    1    2    0    0 +0.0000000000e+00 +0.0000000000e+00 +1.2664440126e+02 1.4990683057e+02 8.0207564989e+01 0.0000e+00 0.0000e+00
       66  2    3    3    0    0 -7.8494648852e+00 -2.7718801132e+01 +1.0763403152e+02 1.1539087257e+02 3.0000378263e+01 0.0000e+00 0.0000e+00
      -13  1    3    3    0    0 +7.8494648852e+00 +2.7718801132e+01 +1.9010369745e+01 3.4515958006e+01 1.0566000000e-01 0.0000e+00 1.0000e+00
       13  1    4    4    0    0 +6.6025615515e+00 -5.8258391244e-01 +7.7108105724e+00 1.0168627576e+01 1.0566000000e-01 0.0000e+00 -1.0000e+00
      -13  1    4    4    0    0 -3.1115500086e+00 -1.0877494506e+01 +5.4498768856e+01 5.5660835432e+01 1.0566000000e-01 0.0000e+00 1.0000e+00
      -14  1    4    4    0    0 -1.1340476428e+01 -1.6258722713e+01 +4.5424452091e+01 4.9561409561e+01 0.0000000000e+00 0.0000e+00 1.0000e+00
<mgrwt>
<rscale>  0 0.80207565E+02</rscale>
<asrwt>0</asrwt>
<pdfrwt beam="1">  1        2 0.21273172E-01 0.80207565E+02</pdfrwt>
<pdfrwt beam="2">  1       -1 0.17894176E-02 0.80207565E+02</pdfrwt>
<totfact> 0.19383824E+05</totfact>
</mgrwt>
</event>
<event>
 8      1 +5.0320763e-08 8.05150400e+01 7.81860800e-03 1.32759600e-01
       -2 -1    0    0    0  501 -0.0000000000e+00 +0.0000000000e+00 +1.3213060202e+01 1.3213060448e+01 2.5500000000e-03 0.0000e+00 1.0000e+00
        1 -1    0    0  501    0 +0.0000000000e+00 -0.0000000000e+00 -1.2265652818e+02 1.2265652828e+02 5.0400000000e-03 0.0000e+00 -1.0000e+00
      -24  2    1    2    0    0 -3.5527136788e-15 +0.0000000000e+00 -1.0944346798e+02 1.3586958873e+02 8.0515044925e+01 0.0000e+00 0.0000e+00
       66  2    3    3    0    0 +2.3874715532e+01 -4.3965521975e+00 -2.0553307071e+01 4.3724032230e+01 3.0000347498e+01 0.0000e+00 0.0000e+00
       13  1    3    3    0    0 -2.3874715532e+01 +4.3965521975e+00 -8.8890160907e+01 9.2145556502e+01 1.0566000000e-01 0.0000e+00 -1.0000e+00
       13  1    4    4    0    0 +1.5851758222e+01 -1.1536274158e+01 -7.3455250529e+00 2.0936374149e+01 1.0566000000e-01 0.0000e+00 -1.0000e+00
      -13  1    4    4    0    0 +3.5593884867e+00 +2.7498290470e+00 -1.5485340292e+01 1.6125685541e+01 1.0566000000e-01 0.0000e+00 1.0000e+00
       14  1    4    4    0    0 +4.4635688230e+00 +4.3898929133e+00 +2.2775582742e+00 6.6619725397e+00 0.0000000000e+00 0.0000e+00 -1.0000e+00
<mgrwt>
<rscale>  0 0.80515045E+02</rscale>
<asrwt>0</asrwt>
<pdfrwt beam="1">  1        1 0.18870234E-01 0.80515045E+02</pdfrwt>
<pdfrwt beam="2">  1       -2 0.20327786E-02 0.80515045E+02</pdfrwt>
<totfact> 0.14964601E+05</totfact>
</mgrwt>
</event>
<event>
 8      1 +5.0320763e-08 7.74634200e+01 7.81860800e-03 1.33640800e-01
        2 -1    0    0  501    0 +0.0000000000e+00 +0.0000000000e+00 +8.2102798709e+01 8.2102798748e+01 2.5500000000e-03 0.0000e+00 -1.0000e+00
       -1 -1    0    0    0  501 -0.0000000000e+00 -0.0000000000e+00 -1.8271548083e+01 1.8271548778e+01 5.0400000000e-03 0.0000e+00 1.0000e+00
       24  2    1    2    0    0 +0.0000000000e+00 +0.0000000000e+00 +6.3831250626e+01 1.0037434753e+02 7.7463417720e+01 0.0000e+00 0.0000e+00
       66  2    3    3    0    0 -3.0587901023e+01 +1.2161347237e+01 +3.7476853748e+01 5.8207020667e+01 3.0000410538e+01 0.0000e+00 0.0000e+00
      -13  1    3    3    0    0 +3.0587901023e+01 -1.2161347237e+01 +2.6354396878e+01 4.2167326859e+01 1.0566000000e-01 0.0000e+00 1.0000e+00
       13  1    4    4    0    0 -3.1845491955e+00 -5.4755166251e-01 +1.0924655922e+01 1.1392999493e+01 1.0566000000e-01 0.0000e+00 -1.0000e+00
      -13  1    4    4    0    0 -1.7791294125e+01 +1.1880947302e+01 +2.9755776213e+01 3.6648389289e+01 1.0566000000e-01 0.0000e+00 1.0000e+00
      -14  1    4    4    0    0 -9.6120577030e+00 +8.2795159780e-01 -3.2035783869e+00 1.0165631885e+01 0.0000000000e+00 0.0000e+00 1.0000e+00
<mgrwt>
<rscale>  0 0.77463418E+02</rscale>
<asrwt>0</asrwt>
<pdfrwt beam="1">  1        2 0.12631200E-01 0.77463418E+02</pdfrwt>
<pdfrwt beam="2">  1       -1 0.28110075E-02 0.77463418E+02</pdfrwt>
<totfact> 0.18328586E+05</totfact>
</mgrwt>
</event>
<event>
 8      1 +5.0320763e-08 7.88927000e+01 7.81860800e-03 1.33222300e-01
       -1 -1    0    0    0  501 -0.0000000000e+00 +0.0000000000e+00 +1.0355460923e+01 1.0355462149e+01 5.0400000000e-03 0.0000e+00 1.0000e+00
        2 -1    0    0  501    0 +0.0000000000e+00 -0.0000000000e+00 -1.5026025843e+02 1.5026025845e+02 2.5500000000e-03 0.0000e+00 -1.0000e+00
       24  2    1    2    0    0 +0.0000000000e+00 +0.0000000000e+00 -1.3990479751e+02 1.6061572060e+02 7.8892695090e+01 0.0000e+00 0.0000e+00
       66  2    3    3    0    0 -9.0536344695e+00 +1.3877569060e+01 -1.3991006751e+02 1.4404567498e+02 2.9996237591e+01 0.0000e+00 0.0000e+00
      -13  1    3    3    0    0 +9.0536344695e+00 -1.3877569060e+01 +5.2700017203e-03 1.6570045622e+01 1.0566000000e-01 0.0000e+00 1.0000e+00
       13  1    4    4    0    0 -5.1243224712e+00 +1.0719363031e+01 -4.7602634573e+01 4.9063075800e+01 1.0566000000e-01 0.0000e+00 -1.0000e+00
      -13  1    4    4    0    0 -1.0807115311e+01 -8.9014602426e-01 -7.6601544589e+01 7.7365327497e+01 1.0566000000e-01 0.0000e+00 1.0000e+00
       14  1    4    4    0    0 +6.8778033125e+00 +4.0483520535e+00 -1.5705888345e+01 1.7617271681e+01 0.0000000000e+00 0.0000e+00 -1.0000e+00
<mgrwt>
<rscale>  0 0.78892695E+02</rscale>
<asrwt>0</asrwt>
<pdfrwt beam="1">  1        2 0.23116961E-01 0.78892695E+02</pdfrwt>
<pdfrwt beam="2">  1       -1 0.15931480E-02 0.78892695E+02</pdfrwt>
<totfact> 0.20795680E+05</totfact>
</mgrwt>
</event>
<event>
 8      1 +5.0320763e-08 8.12934800e+01 7.81860800e-03 1.32542000e-01
       -2 -1    0    0    0  501 -0.0000000000e+00 +0.0000000000e+00 +8.9085011490e+01 8.9085011526e+01 2.5500000000e-03 0.0000e+00 1.0000e+00
        1 -1    0    0  501    0 +0.0000000000e+00 -0.0000000000e+00 -1.8545851448e+01 1.8545852132e+01 5.0400000000e-03 0.0000e+00 -1.0000e+00
      -24  2    1    2    0    0 +3.5527136788e-15 +3.3306690739e-16 +7.0539160042e+01 1.0763086366e+02 8.1293478905e+01 0.0000e+00 0.0000e+00
       66  2    3    3    0    0 +2.4233920438e+01 +6.1044448831e-01 +7.3701618046e+01 8.3183617455e+01 2.9998836111e+01 0.0000e+00 0.0000e+00
       13  1    3    3    0    0 -2.4233920438e+01 -6.1044448831e-01 -3.1624580039e+00 2.4447246204e+01 1.0566000000e-01 0.0000e+00 -1.0000e+00
       13  1    4    4    0    0 +2.4259518717e+01 +5.1255689984e+00 +6.2140292300e+01 6.6904579792e+01 1.0566000000e-01 0.0000e+00 -1.0000e+00
      -13  1    4    4    0    0 -5.2237870882e+00 -2.5191212430e+00 +4.8687875147e+00 7.5729901147e+00 1.0566000000e-01 0.0000e+00 1.0000e+00
      -14  1    4    4    0    0 +5.1981888093e+00 -1.9960032671e+00 +6.6925382314e+00 8.7060475486e+00 0.0000000000e+00 0.0000e+00 1.0000e+00
<mgrwt>
<rscale>  0 0.81293479E+02</rscale>
<asrwt>0</asrwt>
<pdfrwt beam="1">  1        1 0.28532079E-02 0.81293479E+02</pdfrwt>
<pdfrwt beam="2">  1       -2 0.13705387E-01 0.81293479E+02</pdfrwt>
<totfact> 0.10472642E+05</totfact>
</mgrwt>
</event>
<event>
 8      1 +5.0320763e-08 7.86763800e+01 7.81860800e-03 1.33285000e-01
        2 -1    0    0  501    0 +0.0000000000e+00 +0.0000000000e+00 +2.6736348856e+02 2.6736348857e+02 2.5500000000e-03 0.0000e+00 -1.0000e+00
       -1 -1    0    0    0  501 -0.0000000000e+00 -0.0000000000e+00 -5.7879736571e+00 5.7879758514e+00 5.0400000000e-03 0.0000e+00 1.0000e+00
       24  2    1    2    0    0 +3.5527136788e-15 +0.0000000000e+00 +2.6157551490e+02 2.7315146442e+02 7.8676378411e+01 0.0000e+00 0.0000e+00
       66  2    3    3    0    0 -2.2650967437e+01 -2.1637143280e+01 +1.0743148004e+02 1.1585675077e+02 3.0000525003e+01 0.0000e+00 0.0000e+00
      -13  1    3    3    0    0 +2.2650967437e+01 +2.1637143280e+01 +1.5414403486e+02 1.5729471365e+02 1.0566000000e-01 0.0000e+00 1.0000e+00
       13  1    4    4    0    0 +2.7273564927e-02 -9.5486848651e+00 +3.1320856912e+01 3.2744241757e+01 1.0566000000e-01 0.0000e+00 -1.0000e+00
      -13  1    4    4    0    0 -2.3358004254e+01 -1.6689819030e+01 +6.4225565551e+01 7.0349704024e+01 1.0566000000e-01 0.0000e+00 1.0000e+00
       14  1    4    4    0    0 +6.7976325185e-01 +4.6013606149e+00 +1.1885057577e+01 1.2762804989e+01 0.0000000000e+00 0.0000e+00 -1.0000e+00
<mgrwt>
<rscale>  0 0.78676378E+02</rscale>
<asrwt>0</asrwt>
<pdfrwt beam="1">  1        2 0.41132843E-01 0.78676378E+02</pdfrwt>
<pdfrwt beam="2">  1       -1 0.89045768E-03 0.78676378E+02</pdfrwt>
<totfact> 0.25547112E+05</totfact>
</mgrwt>
</event>
<event>
 8      1 +5.0320763e-08 7.99200900e+01 7.81860800e-03 1.32927800e-01
       -2 -1    0    0    0  501 -0.0000000000e+00 +0.0000000000e+00 +1.0617540340e+01 1.0617540646e+01 2.5500000000e-03 0.0000e+00 1.0000e+00
        1 -1    0    0  501    0 +0.0000000000e+00 -0.0000000000e+00 -1.5039314008e+02 1.5039314017e+02 5.0400000000e-03 0.0000e+00 -1.0000e+00
      -24  2    1    2    0    0 +0.0000000000e+00 +0.0000000000e+00 -1.3977559974e+02 1.6101068081e+02 7.9920091670e+01 0.0000e+00 0.0000e+00
       66  2    3    3    0    0 +2.0843907301e+01 +1.1221789848e+01 -2.9652034993e+01 4.8371399406e+01 3.0002534264e+01 0.0000e+00 0.0000e+00
       13  1    3    3    0    0 -2.0843907301e+01 -1.1221789848e+01 -1.1012356475e+02 1.1263928141e+02 1.0566000000e-01 0.0000e+00 -1.0000e+00
       13  1    4    4    0    0 +9.6800749962e+00 +2.6068600167e+00 -1.3487874363e+01 1.6805757642e+01 1.0566000000e-01 0.0000e+00 -1.0000e+00
      -13  1    4    4    0    0 +1.1304754685e+01 +5.2454118706e+00 +2.4049357676e+00 1.2692781581e+01 1.0566000000e-01 0.0000e+00 1.0000e+00
      -14  1    4    4    0    0 -1.4092238006e-01 +3.3695179609e+00 -1.8569096399e+01 1.8872860182e+01 0.0000000000e+00 0.0000e+00 1.0000e+00
<mgrwt>
<rscale>  0 0.79920092E+02</rscale>
<asrwt>0</asrwt>
<pdfrwt beam="1">  1        1 0.23137405E-01 0.79920092E+02</pdfrwt>
<pdfrwt beam="2">  1       -2 0.16334679E-02 0.79920092E+02</pdfrwt>
<totfact> 0.15838306E+05</totfact>
</mgrwt>
</event>
<event>
 7      1 +5.0320763e-08 1.14948700e+02 7.81860800e-03 1.25167100e-01
        2 -1    0    0  501    0 +0.0000000000e+00 +0.0000000000e+00 +1.7318274389e+03 1.7318274389e+03 2.5500000000e-03 0.0000e+00 -1.0000e+00
       -1 -1    0    0    0  501 -0.0000000000e+00 -0.0000000000e+00 -1.9074034176e+00 1.9074100762e+00 5.0400000000e-03 0.0000e+00 1.0000e+00
       66  2    1    2    0    0 -1.7321450385e+01 -2.7524789981e+01 +1.5657269996e+03 1.5663520216e+03 2.9999526087e+01 0.0000e+00 0.0000e+00
      -13  1    1    2    0    0 +1.7321450385e+01 +2.7524789981e+01 +1.6419303587e+02 1.6738282737e+02 1.0566000000e-01 0.0000e+00 1.0000e+00
       13  1    3    3    0    0 -8.9782828615e-01 -1.6639880787e+01 +9.2969831638e+02 9.2984765546e+02 1.0566000000e-01 0.0000e+00 -1.0000e+00
      -13  1    3    3    0    0 -1.1779267570e+01 -1.3732602807e+01 +3.9502927345e+02 3.9544338858e+02 1.0566000000e-01 0.0000e+00 1.0000e+00
      -14  1    3    3    0    0 -4.6443545288e+00 +2.8476936126e+00 +2.4099940978e+02 2.4106097756e+02 0.0000000000e+00 0.0000e+00 1.0000e+00
<mgrwt>
<rscale>  0 0.11494867E+03</rscale>
<asrwt>0</asrwt>
<pdfrwt beam="1">  1        2 0.26643397E+00 0.11494867E+03</pdfrwt>
<pdfrwt beam="2">  1       -1 0.29344832E-03 0.11494867E+03</pdfrwt>
<totfact> 0.11862660E+05</totfact>
</mgrwt>
</event>
<event>
 8      1 +5.0320763e-08 8.05056400e+01 7.81860800e-03 1.32762300e-01
        2 -1    0    0  501    0 +0.0000000000e+00 +0.0000000000e+00 +8.0272488965e+01 8.0272489006e+01 2.5500000000e-03 0.0000e+00 -1.0000e+00
       -1 -1    0    0    0  501 -0.0000000000e+00 -0.0000000000e+00 -2.0184867981e+01 2.0184868610e+01 5.0400000000e-03 0.0000e+00 1.0000e+00
       24  2    1    2    0    0 +0.0000000000e+00 +0.0000000000e+00 +6.0087620984e+01 1.0045735762e+02 8.0505642682e+01 0.0000e+00 0.0000e+00
       66  2    3    3    0    0 -2.3722036723e+01 -8.7152247619e+00 +4.6120472298e+00 3.9496381440e+01 3.0000049971e+01 0.0000e+00 0.0000e+00
      -13  1    3    3    0    0 +2.3722036723e+01 +8.7152247619e+00 +5.5475573754e+01 6.0960976176e+01 1.0566000000e-01 0.0000e+00 1.0000e+00
       13  1    4    4    0    0 -3.8426986299e+00 +9.0162353508e+00 -3.7031859317e+00 1.0477766114e+01 1.0566000000e-01 0.0000e+00 -1.0000e+00
      -13  1    4    4    0    0 -9.4628900181e+00 -4.5336502016e+00 +5.7464141801e-01 1.0509122154e+01 1.0566000000e-01 0.0000e+00 1.0000e+00
       14  1    4    4    0    0 -1.0416448075e+01 -1.3197809911e+01 +7.7405917435e+00 1.8509493172e+01 0.0000000000e+00 0.0000e+00 -1.0000e+00
<mgrwt>
<rscale>  0 0.80505643E+02</rscale>
<asrwt>0</asrwt>
<pdfrwt beam="1">  1        2 0.12349614E-01 0.80505643E+02</pdfrwt>
<pdfrwt beam="2">  1       -1 0.31053644E-02 0.80505643E+02</pdfrwt>
<totfact> 0.16428729E+05</totfact>
</mgrwt>
</event>
<event>
 8      1 +5.0320763e-08 7.93179500e+01 7.81860800e-03 1.33099800e-01
        3 -1    0    0  501    0 +0.0000000000e+00 +0.0000000000e+00 +9.0462478547e+01 9.0462534929e+01 1.0100000000e-01 0.0000e+00 -1.0000e+00
       -4 -1    0    0    0  501 -0.0000000000e+00 -0.0000000000e+00 -1.7358902216e+01 1.7405297646e+01 1.2700000000e+00 0.0000e+00 1.0000e+00
      -24  2    1    2    0    0 +0.0000000000e+00 +1.7763568394e-15 +7.3103576331e+01 1.0786783257e+02 7.9317945208e+01 0.0000e+00 0.0000e+00
       66  2    3    3    0    0 -2.7674209236e+01 +1.5703141280e+01 +2.5542972830e+01 5.0644824332e+01 3.0000071129e+01 0.0000e+00 0.0000e+00
       13  1    3    3    0    0 +2.7674209236e+01 -1.5703141280e+01 +4.7560603501e+01 5.7223008242e+01 1.0566000000e-01 0.0000e+00 -1.0000e+00
       13  1    4    4    0    0 -2.8641593996e+00 +1.2193707943e+01 +7.5867035095e+00 1.4644424080e+01 1.0566000000e-01 0.0000e+00 -1.0000e+00
      -13  1    4    4    0    0 -1.9208666342e+01 +8.9652490674e+00 +6.5796940205e+00 2.2195767410e+01 1.0566000000e-01 0.0000e+00 1.0000e+00
       14  1    4    4    0    0 -5.6013834946e+00 -5.4558157303e+00 +1.1376575300e+01 1.3804632842e+01 0.0000000000e+00 0.0000e+00 -1.0000e+00
<mgrwt>
<rscale>  0 0.79317945E+02</rscale>
<asrwt>0</asrwt>
<pdfrwt beam="1">  1        3 0.13917332E-01 0.79317945E+02</pdfrwt>
<pdfrwt beam="2">  1       -4 0.26748548E-02 0.79317945E+02</pdfrwt>
<totfact> 0.44292136E+04</totfact>
</mgrwt>
</event>
<event>
 8      1 +5.0320763e-08 8.31520000e+01 7.81860800e-03 1.32033700e-01
        1 -1    0    0  501    0 +0.0000000000e+00 +0.0000000000e+00 +7.0578594099e+00 7.0578612094e+00 5.0400000000e-03 0.0000e+00 -1.0000e+00
       -2 -1    0    0    0  501 -0.0000000000e+00 -0.0000000000e+00 -2.4491329391e+02 2.4491329393e+02 2.5500000000e-03 0.0000e+00 1.0000e+00
      -24  2    1    2    0    0 +0.0000000000e+00 -1.7763568394e-15 -2.3785543450e+02 2.5197115514e+02 8.3152001165e+01 0.0000e+00 0.0000e+00
       66  2    3    3    0    0 -2.5179634129e+01 +1.1889124560e+01 -2.0433216915e+02 2.0839150688e+02 3.0000325582e+01 0.0000e+00 0.0000e+00
       13  1    3    3    0    0 +2.5179634129e+01 -1.1889124560e+01 -3.3523265356e+01 4.3579648252e+01 1.0566000000e-01 0.0000e+00 -1.0000e+00
       13  1    4    4    0    0 +1.2049296486e+00 +3.8188639574e-01 -1.9411664719e+00 2.3188324615e+00 1.0566000000e-01 0.0000e+00 -1.0000e+00
      -13  1    4    4    0    0 -2.2413154204e+01 +5.9812995509e+00 -1.9345334757e+02 1.9483925240e+02 1.0566000000e-01 0.0000e+00 1.0000e+00
      -14  1    4    4    0    0 -3.9714095737e+00 +5.5259386131e+00 -8.9376551096e+00 1.1233422026e+01 0.0000000000e+00 0.0000e+00 1.0000e+00
<mgrwt>
<rscale>  0 0.83152001E+02</rscale>
<asrwt>0</asrwt>
<pdfrwt beam="1">  1        1 0.10858249E-02 0.83152001E+02</pdfrwt>
<pdfrwt beam="2">  1       -2 0.37678962E-01 0.83152001E+02</pdfrwt>
<totfact> 0.70464690E+04</totfact>
</mgrwt>
</event>
<event>
 8      1 +5.0320763e-08 8.14134800e+01 7.81860800e-03 1.32508700e-01
       -1 -1    0    0    0  501 -0.0000000000e+00 +0.0000000000e+00 +6.7936244448e+00 6.7936263143e+00 5.0400000000e-03 0.0000e+00 1.0000e+00
        2 -1    0    0  501    0 +0.0000000000e+00 -0.0000000000e+00 -2.4391083808e+02 2.4391083809e+02 2.5500000000e-03 0.0000e+00 -1.0000e+00
       24  2    1    2    0    0 +3.5527136788e-15 +1.7763568394e-15 -2.3711721364e+02 2.5070446441e+02 8.1413484582e+01 0.0000e+00 0.0000e+00
       66  2    3    3    0    0 -3.1991711788e+01 -1.4613924540e+01 -1.3696784188e+02 1.4455860137e+02 2.9999385099e+01 0.0000e+00 0.0000e+00
      -13  1    3    3    0    0 +3.1991711788e+01 +1.4613924540e+01 -1.0014937175e+02 1.0614586304e+02 1.0566000000e-01 0.0000e+00 1.0000e+00
       13  1    4    4    0    0 -4.7092874151e+00 -4.6614233213e+00 -2.6798019905e+01 2.7605276492e+01 1.0566000000e-01 0.0000e+00 -1.0000e+00
      -13  1    4    4    0    0 -1.9040191417e+01 -1.1746890126e+01 -3.6562713932e+01 4.2864455332e+01 1.0566000000e-01 0.0000e+00 1.0000e+00
       14  1    4    4    0    0 -8.2422329560e+00 +1.7943889067e+00 -7.3607108046e+01 7.4088869545e+01 0.0000000000e+00 0.0000e+00 -1.0000e+00
<mgrwt>
<rscale>  0 0.81413485E+02</rscale>
<asrwt>0</asrwt>
<pdfrwt beam="1">  1        2 0.37524738E-01 0.81413485E+02</pdfrwt>
<pdfrwt beam="2">  1       -1 0.10451733E-02 0.81413485E+02</pdfrwt>
<totfact> 0.22592728E+05</totfact>
</mgrwt>
</event>
<event>
 8      1 +5.0320763e-08 7.97017200e+01 7.81860800e-03 1.32990000e-01
        1 -1    0    0  501    0 +0.0000000000e+00 +0.0000000000e+00 +1.6340816590e+02 1.6340816598e+02 5.0400000000e-03 0.0000e+00 -1.0000e+00
       -2 -1    0    0    0  501 -0.0000000000e+00 -0.0000000000e+00 -9.7185534482e+00 9.7185537828e+00 2.5500000000e-03 0.0000e+00 1.0000e+00
      -24  2    1    2    0    0 +0.0000000000e+00 +0.0000000000e+00 +1.5368961246e+02 1.7312671976e+02 7.9701719678e+01 0.0000e+00 0.0000e+00
       66  2    3    3    0    0 +2.7658665911e+01 -1.5343944614e+01 +5.9447478395e+01 7.3718322570e+01 2.9999165969e+01 0.0000e+00 0.0000e+00
       13  1    3    3    0    0 -2.7658665911e+01 +1.5343944614e+01 +9.4242134061e+01 9.9408397194e+01 1.0566000000e-01 0.0000e+00 -1.0000e+00
       13  1    4    4    0    0 +3.8490913337e+00 -1.6191872715e+01 +1.2487146763e+01 2.0807023921e+01 1.0566000000e-01 0.0000e+00 -1.0000e+00
      -13  1    4    4    0    0 +2.1416448019e+00 +1.6253210109e+00 +4.8125463373e+00 5.5136264954e+00 1.0566000000e-01 0.0000e+00 1.0000e+00
      -14  1    4    4    0    0 +2.1667929775e+01 -7.7739290987e-01 +4.2147785294e+01 4.7397672155e+01 0.0000000000e+00 0.0000e+00 1.0000e+00
<mgrwt>
<rscale>  0 0.79701720E+02</rscale>
<asrwt>0</asrwt>
<pdfrwt beam="1">  1        1 0.25139719E-01 0.79701720E+02</pdfrwt>
<pdfrwt beam="2">  1       -2 0.14951620E-02 0.79701720E+02</pdfrwt>
<totfact> 0.16202541E+05</totfact>
</mgrwt>
</event>
<event>
 8      1 +5.0320763e-08 7.99112500e+01 7.81860800e-03 1.32930300e-01
       -2 -1    0    0    0  501 -0.0000000000e+00 +0.0000000000e+00 +9.5823461563e+02 9.5823461563e+02 2.5500000000e-03 0.0000e+00 1.0000e+00
        1 -1    0    0  501    0 +0.0000000000e+00 -0.0000000000e+00 -1.6660308859e+00 1.6660385093e+00 5.0400000000e-03 0.0000e+00 -1.0000e+00
      -24  2    1    2    0    0 -4.4408920985e-16 +3.5527136788e-15 +9.5656858474e+02 9.5990065414e+02 7.9911253927e+01 0.0000e+00 0.0000e+00
       66  2    3    3    0    0 +1.2207432272e+00 -2.5533766078e+01 +8.2084382510e+02 8.2178952147e+02 2.9999482757e+01 0.0000e+00 0.0000e+00
       13  1    3    3    0    0 -1.2207432272e+00 +2.5533766078e+01 +1.3572475964e+02 1.3811113267e+02 1.0566000000e-01 0.0000e+00 -1.0000e+00
       13  1    4    4    0    0 -2.7389803849e-01 +3.4614923088e-01 +7.0773316088e+00 7.0918704276e+00 1.0566000000e-01 0.0000e+00 -1.0000e+00
      -13  1    4    4    0    0 +7.9534531466e+00 +3.6201692607e+00 +1.7894998110e+02 1.7916324942e+02 1.0566000000e-01 0.0000e+00 1.0000e+00
      -14  1    4    4    0    0 -6.4588118810e+00 -2.9500084570e+01 +6.3481651240e+02 6.3553440163e+02 0.0000000000e+00 0.0000e+00 1.0000e+00
<mgrwt>
<rscale>  0 0.79911254E+02</rscale>
<asrwt>0</asrwt>
<pdfrwt beam="1">  1        1 0.25631183E-03 0.79911254E+02</pdfrwt>
<pdfrwt beam="2">  1       -2 0.14742140E+00 0.79911254E+02</pdfrwt>
<totfact> 0.27464084E+04</totfact>
</mgrwt>
</event>
<event>
 8      1 +5.0320763e-08 8.03023200e+01 7.81860800e-03 1.32819600e-01
       -1 -1    0    0    0  501 -0.0000000000e+00 +0.0000000000e+00 +3.7975120916e+01 3.7975121251e+01 5.0400000000e-03 0.0000e+00 1.0000e+00
        2 -1    0    0  501    0 +0.0000000000e+00 -0.0000000000e+00 -4.2451887780e+01 4.2451887857e+01 2.5500000000e-03 0.0000e+00 -1.0000e+00
       24  2    1    2    0    0 +8.8817841970e-16 +1.7763568394e-15 -4.4767668641e+00 8.0427009107e+01 8.0302318474e+01 0.0000e+00 0.0000e+00
       66  2    3    3    0    0 +6.8286483940e+00 +9.4854509500e+00 -3.5110969024e+01 4.7638753212e+01 3.0001107366e+01 0.0000e+00 0.0000e+00
      -13  1    3    3    0    0 -6.8286483940e+00 -9.4854509500e+00 +3.0634202160e+01 3.2788255895e+01 1.0566000000e-01 0.0000e+00 1.0000e+00
       13  1    4    4    0    0 -7.2997662430e+00 +4.0651867088e+00 -1.2470074362e+01 1.5010871021e+01 1.0566000000e-01 0.0000e+00 1.0000e+00
      -13  1    4    4    0    0 +1.0256620678e+01 -4.6340691712e+00 -1.7206578166e+01 2.0560893975e+01 1.0566000000e-01 0.0000e+00 -1.0000e+00
       14  1    4    4    0    0 +3.8717939586e+00 +1.0054333412e+01 -5.4343164957e+00 1.2066988216e+01 0.0000000000e+00 0.0000e+00 -1.0000e+00
<mgrwt>
<rscale>  0 0.80302318E+02</rscale>
<asrwt>0</asrwt>
<pdfrwt beam="1">  1        2 0.65310597E-02 0.80302318E+02</pdfrwt>
<pdfrwt beam="2">  1       -1 0.58423263E-02 0.80302318E+02</pdfrwt>
<totfact> 0.14282365E+05</totfact>
</mgrwt>
</event>
<event>
 8      1 +5.0320763e-08 7.65995500e+01 7.81860800e-03 1.33898800e-01
        4 -1    0    0  501    0 +0.0000000000e+00 +0.0000000000e+00 +1.9072815848e+02 1.9073238671e+02 1.2700000000e+00 0.0000e+00 -1.0000e+00
       -3 -1    0    0    0  501 -0.0000000000e+00 -0.0000000000e+00 -7.6883644677e+00 7.6890278441e+00 1.0100000000e-01 0.0000e+00 1.0000e+00
       24  2    1    2    0    0 +4.4408920985e-16 -7.1054273576e-15 +1.8303979402e+02 1.9842141455e+02 7.6599553254e+01 0.0000e+00 0.0000e+00
       66  2    3    3    0    0 -2.3628017953e+00 -2.5049568710e+01 +1.5853740859e+02 1.6330102474e+02 3.0000850541e+01 0.0000e+00 0.0000e+00
      -13  1    3    3    0    0 +2.3628017953e+00 +2.5049568710e+01 +2.4502385424e+01 3.5120389810e+01 1.0566000000e-01 0.0000e+00 1.0000e+00
       13  1    4    4    0    0 +2.3189341695e+00 -2.2829004466e+00 +6.6970315826e+01 6.7049410557e+01 1.0566000000e-01 0.0000e+00 -1.0000e+00
      -13  1    4    4    0    0 -6.8393348976e+00 -5.8517568015e+00 +5.7011229711e+01 5.7717510660e+01 1.0566000000e-01 0.0000e+00 1.0000e+00
      -14  1    4    4    0    0 +2.1575989328e+00 -1.6914911462e+01 +3.4555863055e+01 3.8534103524e+01 0.0000000000e+00 0.0000e+00 1.0000e+00
<mgrwt>
<rscale>  0 0.76599553E+02</rscale>
<asrwt>0</asrwt>
<pdfrwt beam="1">  1        4 0.29351182E-01 0.76599553E+02</pdfrwt>
<pdfrwt beam="2">  1       -3 0.11828786E-02 0.76599553E+02</pdfrwt>
<totfact> 0.37598062E+04</totfact>
</mgrwt>
</event>
<event>
 8      1 +5.0320763e-08 8.21176500e+01 7.81860800e-03 1.32314700e-01
       -4 -1    0    0    0  501 -0.0000000000e+00 +0.0000000000e+00 +1.1846431472e+01 1.1914312344e+01 1.2700000000e+00 0.0000e+00 1.0000e+00
        1 -1    0    0  501    0 +0.0000000000e+00 -0.0000000000e+00 -1.4186625095e+02 1.4186625104e+02 5.0400000000e-03 0.0000e+00 -1.0000e+00
      -24  2    1    2    0    0 +0.0000000000e+00 +1.7763568394e-15 -1.3001981948e+02 1.5378056339e+02 8.2117648637e+01 0.0000e+00 0.0000e+00
       66  2    3    3    0    0 +2.4186410522e+01 +1.5243854968e+01 -1.1334765730e+02 1.2068479743e+02 2.9996188881e+01 0.0000e+00 0.0000e+00
       13  1    3    3    0    0 -2.4186410522e+01 -1.5243854968e+01 -1.6672162177e+01 3.3095765952e+01 1.0566000000e-01 0.0000e+00 -1.0000e+00
       13  1    4    4    0    0 +3.3319932883e+00 +6.6673866696e+00 -2.1988444223e+01 2.3217645610e+01 1.0566000000e-01 0.0000e+00 -1.0000e+00
      -13  1    4    4    0    0 +8.7513114535e+00 +9.4802482441e+00 -1.3524267967e+01 1.8691643775e+01 1.0566000000e-01 0.0000e+00 1.0000e+00
      -14  1    4    4    0    0 +1.2103105781e+01 -9.0377994538e-01 -7.7834945113e+01 7.8775508050e+01 0.0000000000e+00 0.0000e+00 1.0000e+00
<mgrwt>
<rscale>  0 0.82117649E+02</rscale>
<asrwt>0</asrwt>
<pdfrwt beam="1">  1        1 0.21825576E-01 0.82117649E+02</pdfrwt>
<pdfrwt beam="2">  1       -4 0.18281869E-02 0.82117649E+02</pdfrwt>
<totfact> 0.10049966E+05</totfact>
</mgrwt>
</event>
<event>
 8      1 +5.0320763e-08 7.90738600e+01 7.81860800e-03 1.33170000e-01
       -1 -1    0    0    0  501 -0.0000000000e+00 +0.0000000000e+00 +2.7043492997e+00 2.7043539962e+00 5.0400000000e-03 0.0000e+00 1.0000e+00
        2 -1    0    0  501    0 +0.0000000000e+00 -0.0000000000e+00 -5.7801986524e+02 5.7801986524e+02 2.5500000000e-03 0.0000e+00 -1.0000e+00
       24  2    1    2    0    0 -3.5527136788e-15 -4.4408920985e-16 -5.7531551594e+02 5.8072421924e+02 7.9073863775e+01 0.0000e+00 0.0000e+00
       66  2    3    3    0    0 +2.9934793782e+01 +1.2208757382e+00 -4.4470951419e+02 4.4672600555e+02 2.9999826733e+01 0.0000e+00 0.0000e+00
      -13  1    3    3    0    0 -2.9934793782e+01 -1.2208757382e+00 -1.3060600175e+02 1.3399821369e+02 1.0566000000e-01 0.0000e+00 1.0000e+00
       13  1    4    4    0    0 -2.3073595135e+00 -2.6385123662e+00 -1.0736881985e+02 1.0742606897e+02 1.0566000000e-01 0.0000e+00 -1.0000e+00
      -13  1    4    4    0    0 +9.3605302207e-01 +4.9437352573e+00 -4.0738841067e+01 4.1048520669e+01 1.0566000000e-01 0.0000e+00 1.0000e+00
      -14  1    4    4    0    0 +3.1306100273e+01 -1.0843471529e+00 -2.9660185328e+02 2.9825141591e+02 0.0000000000e+00 0.0000e+00 1.0000e+00
<mgrwt>
<rscale>  0 0.79073864E+02</rscale>
<asrwt>0</asrwt>
<pdfrwt beam="1">  1        2 0.88926035E-01 0.79073864E+02</pdfrwt>
<pdfrwt beam="2">  1       -1 0.41605456E-03 0.79073864E+02</pdfrwt>
<totfact> 0.32803974E+05</totfact>
</mgrwt>
</event>
<event>
 8      1 +5.0320763e-08 7.14730300e+01 7.81860800e-03 1.35515400e-01
       -3 -1    0    0    0  501 -0.0000000000e+00 +0.0000000000e+00 +6.1935133326e+00 6.1943368008e+00 1.0100000000e-01 0.0000e+00 1.0000e+00
        4 -1    0    0  501    0 +0.0000000000e+00 -0.0000000000e+00 -2.0611820811e+02 2.0612212063e+02 1.2700000000e+00 0.0000e+00 -1.0000e+00
       24  2    1    2    0    0 +3.5527136788e-15 +0.0000000000e+00 -1.9992469478e+02 2.1231645743e+02 7.1473033485e+01 0.0000e+00 0.0000e+00
       66  2    3    3    0    0 -2.2666653845e+01 +1.7867423285e+01 -1.0032487783e+02 1.0861902877e+02 2.9999838136e+01 0.0000e+00 0.0000e+00
      -13  1    3    3    0    0 +2.2666653845e+01 -1.7867423285e+01 -9.9599816947e+01 1.0369742866e+02 1.0566000000e-01 0.0000e+00 1.0000e+00
       13  1    4    4    0    0 -8.0991487126e+00 +1.4428124062e+00 -4.2759041890e+01 4.3543366256e+01 1.0566000000e-01 0.0000e+00 -1.0000e+00
      -13  1    4    4    0    0 +2.5521585799e+00 +5.4906492308e+00 -2.8150890105e+00 6.6780710212e+00 1.0566000000e-01 0.0000e+00 1.0000e+00
      -14  1    4    4    0    0 -1.7119663712e+01 +1.0933961648e+01 -5.4750746928e+01 5.8397591493e+01 0.0000000000e+00 0.0000e+00 1.0000e+00
<mgrwt>
<rscale>  0 0.71473033E+02</rscale>
<asrwt>0</asrwt>
<pdfrwt beam="1">  1        4 0.31720801E-01 0.71473033E+02</pdfrwt>
<pdfrwt beam="2">  1       -3 0.95291371E-03 0.71473033E+02</pdfrwt>
<totfact> 0.43726750E+04</totfact>
</mgrwt>
</event>
<event>
 8      1 +5.0320763e-08 8.18012400e+01 7.81860800e-03 1.32401600e-01
       -2 -1    0    0    0  501 -0.0000000000e+00 +0.0000000000e+00 +3.2046709226e+01 3.2046709328e+01 2.5500000000e-03 0.0000e+00 1.0000e+00
        1 -1    0    0  501    0 +0.0000000000e+00 -0.0000000000e+00 -5.2200702607e+01 5.2200702850e+01 5.0400000000e-03 0.0000e+00 -1.0000e+00
      -24  2    1    2    0    0 -1.7763568394e-15 -1.7763568394e-15 -2.0153993381e+01 8.4247412178e+01 8.1801240880e+01 0.0000e+00 0.0000e+00
       66  2    3    3    0    0 -1.4099396486e+01 +1.1891903725e+01 +1.9684351633e+01 4.0346213414e+01 3.0002214621e+01 0.0000e+00 0.0000e+00
       13  1    3    3    0    0 +1.4099396486e+01 -1.1891903725e+01 -3.9838345014e+01 4.3901198764e+01 1.0566000000e-01 0.0000e+00 -1.0000e+00
       13  1    4    4    0    0 -4.8719793933e+00 -2.2883206298e+00 +6.4889060269e+00 8.4314684353e+00 1.0566000000e-01 0.0000e+00 -1.0000e+00
      -13  1    4    4    0    0 -2.1634159917e+00 +1.2666261268e+01 +1.8799462765e+01 2.2771594313e+01 1.0566000000e-01 0.0000e+00 1.0000e+00
       14  1    4    4    0    0 -7.0640011006e+00 +1.5139630862e+00 -5.6040171590e+00 9.1431506656e+00 0.0000000000e+00 0.0000e+00 -1.0000e+00
<mgrwt>
<rscale>  0 0.81801241E+02</rscale>
<asrwt>0</asrwt>
<pdfrwt beam="1">  1        1 0.80308774E-02 0.81801241E+02</pdfrwt>
<pdfrwt beam="2">  1       -2 0.49302630E-02 0.81801241E+02</pdfrwt>
<totfact> 0.12451145E+05</totfact>
</mgrwt>
</event>
<event>
 8      1 +5.0320763e-08 8.13820100e+01 7.81860800e-03 1.32517500e-01
       -2 -1    0    0    0  501 -0.0000000000e+00 +0.0000000000e+00 +8.8299980176e+00 8.8299983858e+00 2.5500000000e-03 0.0000e+00 1.0000e+00
        1 -1    0    0  501    0 +0.0000000000e+00 -0.0000000000e+00 -1.8751509233e+02 1.8751509240e+02 5.0400000000e-03 0.0000e+00 -1.0000e+00
      -24  2    1    2    0    0 -2.2204460493e-16 +0.0000000000e+00 -1.7868509431e+02 1.9634509078e+02 8.1382011190e+01 0.0000e+00 0.0000e+00
       66  2    3    3    0    0 -1.1498113286e+00 -2.8305134302e+01 -1.5173662056e+02 1.5724606144e+02 2.9996985278e+01 0.0000e+00 0.0000e+00
       13  1    3    3    0    0 +1.1498113286e+00 +2.8305134302e+01 -2.6948473755e+01 3.9099029345e+01 1.0566000000e-01 0.0000e+00 -1.0000e+00
       13  1    4    4    0    0 +1.1332170433e+01 -1.9887474917e+01 -7.5083851242e+01 7.8495386022e+01 1.0566000000e-01 0.0000e+00 -1.0000e+00
      -13  1    4    4    0    0 -6.9415131647e+00 -7.2196772468e-01 -1.7464391343e+01 1.8807497745e+01 1.0566000000e-01 0.0000e+00 1.0000e+00
      -14  1    4    4    0    0 -5.5404685965e+00 -7.6956916602e+00 -5.9188377972e+01 5.9943177671e+01 0.0000000000e+00 0.0000e+00 1.0000e+00
<mgrwt>
<rscale>  0 0.81382011E+02</rscale>
<asrwt>0</asrwt>
<pdfrwt beam="1">  1        1 0.28848473E-01 0.81382011E+02</pdfrwt>
<pdfrwt beam="2">  1       -2 0.13584614E-02 0.81382011E+02</pdfrwt>
<totfact> 0.15733640E+05</totfact>
</mgrwt>
</event>
<event>
 8      1 +5.0320763e-08 8.13600500e+01 7.81860800e-03 1.32523600e-01
       -1 -1    0    0    0  501 -0.0000000000e+00 +0.0000000000e+00 +2.8024844195e+00 2.8024889515e+00 5.0400000000e-03 0.0000e+00 1.0000e+00
        2 -1    0    0  501    0 +0.0000000000e+00 -0.0000000000e+00 -5.9049859497e+02 5.9049859498e+02 2.5500000000e-03 0.0000e+00 -1.0000e+00
       24  2    1    2    0    0 +0.0000000000e+00 +0.0000000000e+00 -5.8769611055e+02 5.9330108393e+02 8.1360050595e+01 0.0000e+00 0.0000e+00
       66  2    3    3    0    0 -1.6384090183e+01 -9.2588105772e+00 -5.5028215218e+02 5.5142054633e+02 3.0000132039e+01 0.0000e+00 0.0000e+00
      -13  1    3    3    0    0 +1.6384090183e+01 +9.2588105772e+00 -3.7413958370e+01 4.1880537597e+01 1.0566000000e-01 0.0000e+00 1.0000e+00
       13  1    4    4    0    0 -2.2290155287e+00 +6.2620407456e-01 -1.4125343010e+01 1.4314227920e+01 1.0566000000e-01 0.0000e+00 1.0000e+00
      -13  1    4    4    0    0 +5.6556208455e+00 +1.8144001125e+00 -4.2441694927e+01 4.2855416544e+01 1.0566000000e-01 0.0000e+00 -1.0000e+00
       14  1    4    4    0    0 -1.9810695500e+01 -1.1699414764e+01 -4.9371511425e+02 4.9425090187e+02 0.0000000000e+00 0.0000e+00 -1.0000e+00
<mgrwt>
<rscale>  0 0.81360051E+02</rscale>
<asrwt>0</asrwt>
<pdfrwt beam="1">  1        2 0.90845839E-01 0.81360051E+02</pdfrwt>
<pdfrwt beam="2">  1       -1 0.43115227E-03 0.81360051E+02</pdfrwt>
<totfact> 0.30644320E+05</totfact>
</mgrwt>
</event>
<event>
 8      1 +5.0320763e-08 7.92628600e+01 7.81860800e-03 1.33115600e-01
        2 -1    0    0  501    0 +0.0000000000e+00 +0.0000000000e+00 +2.0904108982e+01 2.0904109138e+01 2.5500000000e-03 0.0000e+00 -1.0000e+00
       -1 -1    0    0    0  501 -0.0000000000e+00 -0.0000000000e+00 -7.5135951963e+01 7.5135952132e+01 5.0400000000e-03 0.0000e+00 1.0000e+00
       24  2    1    2    0    0 -3.5527136788e-15 +0.0000000000e+00 -5.4231842981e+01 9.6040061270e+01 7.9262857479e+01 0.0000e+00 0.0000e+00
       66  2    3    3    0    0 -3.1360131808e+01 +7.7879023065e+00 -1.8362513726e+01 4.7762434624e+01 2.9999316018e+01 0.0000e+00 0.0000e+00
      -13  1    3    3    0    0 +3.1360131808e+01 -7.7879023065e+00 -3.5869329255e+01 4.8277626646e+01 1.0566000000e-01 0.0000e+00 1.0000e+00
       13  1    4    4    0    0 -6.0582784183e+00 -1.5053099150e+00 +3.0116722762e+00 6.9318128414e+00 1.0566000000e-01 0.0000e+00 -1.0000e+00
      -13  1    4    4    0    0 -8.4033912236e+00 +1.3968410006e+01 -5.5734783794e+00 1.7228124896e+01 1.0566000000e-01 0.0000e+00 1.0000e+00
      -14  1    4    4    0    0 -1.6898462166e+01 -4.6751977844e+00 -1.5800707623e+01 2.3602496887e+01 0.0000000000e+00 0.0000e+00 1.0000e+00
<mgrwt>
<rscale>  0 0.79262857E+02</rscale>
<asrwt>0</asrwt>
<pdfrwt beam="1">  1        2 0.32160168E-02 0.79262857E+02</pdfrwt>
<pdfrwt beam="2">  1       -1 0.11559377E-01 0.79262857E+02</pdfrwt>
<totfact> 0.12863057E+05</totfact>
</mgrwt>
</event>
<event>
 8      1 +5.0320763e-08 7.80342200e+01 7.81860800e-03 1.33472400e-01
        3 -1    0    0  501    0 +0.0000000000e+00 +0.0000000000e+00 +1.0951494485e+01 1.0951960211e+01 1.0100000000e-01 0.0000e+00 -1.0000e+00
       -4 -1    0    0    0  501 -0.0000000000e+00 -0.0000000000e+00 -1.3896413723e+02 1.3896994040e+02 1.2700000000e+00 0.0000e+00 1.0000e+00
      -24  2    1    2    0    0 +1.7763568394e-15 +1.7763568394e-15 -1.2801264274e+02 1.4992190062e+02 7.8034220582e+01 0.0000e+00 0.0000e+00
       66  2    3    3    0    0 -1.4045279548e+01 -9.2404528671e+00 -1.2858019715e+02 1.3309961989e+02 2.9999764488e+01 0.0000e+00 0.0000e+00
       13  1    3    3    0    0 +1.4045279548e+01 +9.2404528671e+00 +5.6755440443e-01 1.6822280725e+01 1.0566000000e-01 0.0000e+00 -1.0000e+00
       13  1    4    4    0    0 -1.4372822548e+01 -1.1648222913e+00 -7.3289285179e+01 7.4694479883e+01 1.0566000000e-01 0.0000e+00 -1.0000e+00
      -13  1    4    4    0    0 +7.7574200400e+00 -4.6419347284e+00 -4.0537016566e+01 4.1532950771e+01 1.0566000000e-01 0.0000e+00 1.0000e+00
      -14  1    4    4    0    0 -7.4298770402e+00 -3.4336958474e+00 -1.4753895404e+01 1.6872189236e+01 0.0000000000e+00 0.0000e+00 1.0000e+00
<mgrwt>
<rscale>  0 0.78034221E+02</rscale>
<asrwt>0</asrwt>
<pdfrwt beam="1">  1        3 0.16848842E-02 0.78034221E+02</pdfrwt>
<pdfrwt beam="2">  1       -4 0.21385206E-01 0.78034221E+02</pdfrwt>
<totfact> 0.39803572E+04</totfact>
</mgrwt>
</event>
<event>
 8      1 +5.0320763e-08 7.26491500e+01 7.81860800e-03 1.35130900e-01
       -2 -1    0    0    0  501 -0.0000000000e+00 +0.0000000000e+00 +3.6968058655e+02 3.6968058656e+02 2.5500000000e-03 0.0000e+00 1.0000e+00
        1 -1    0    0  501    0 +0.0000000000e+00 -0.0000000000e+00 -3.5692274782e+00 3.5692310367e+00 5.0400000000e-03 0.0000e+00 -1.0000e+00
      -24  2    1    2    0    0 +0.0000000000e+00 +1.7763568394e-15 +3.6611135907e+02 3.7324981759e+02 7.2649150674e+01 0.0000e+00 0.0000e+00
       66  2    3    3    0    0 +2.6207344321e+01 +1.4686961398e+01 +2.2612211324e+02 2.3007324184e+02 2.9999246404e+01 0.0000e+00 0.0000e+00
       13  1    3    3    0    0 -2.6207344321e+01 -1.4686961398e+01 +1.3998924583e+02 1.4317657575e+02 1.0566000000e-01 0.0000e+00 -1.0000e+00
       13  1    4    4    0    0 -3.7142721566e+00 -4.0649448114e+00 +1.8776580815e+01 1.9567594259e+01 1.0566000000e-01 0.0000e+00 -1.0000e+00
      -13  1    4    4    0    0 +4.5491876741e+00 +3.1246598355e+00 +5.4766314996e+01 5.5043791928e+01 1.0566000000e-01 0.0000e+00 1.0000e+00
       14  1    4    4    0    0 +2.5372428803e+01 +1.5627246374e+01 +1.5257921743e+02 1.5546185565e+02 0.0000000000e+00 0.0000e+00 -1.0000e+00
<mgrwt>
<rscale>  0 0.72649151E+02</rscale>
<asrwt>0</asrwt>
<pdfrwt beam="1">  1        1 0.54911258E-03 0.72649151E+02</pdfrwt>
<pdfrwt beam="2">  1       -2 0.56873896E-01 0.72649151E+02</pdfrwt>
<totfact> 0.79679114E+04</totfact>
</mgrwt>
</event>
<event>
 8      1 +5.0320763e-08 8.02671800e+01 7.81860800e-03 1.32829500e-01
       -2 -1    0    0    0  501 -0.0000000000e+00 +0.0000000000e+00 +3.8948669810e+00 3.8948678158e+00 2.5500000000e-03 0.0000e+00 1.0000e+00
        1 -1    0    0  501    0 +0.0000000000e+00 -0.0000000000e+00 -4.1354553665e+02 4.1354553668e+02 5.0400000000e-03 0.0000e+00 -1.0000e+00
      -24  2    1    2    0    0 +0.0000000000e+00 +3.5527136788e-15 -4.0965066967e+02 4.1744040449e+02 8.0267179756e+01 0.0000e+00 0.0000e+00
       66  2    3    3    0    0 -2.6973963276e+01 +2.0051041113e+01 -2.7453607665e+02 2.7820821226e+02 3.0001883964e+01 0.0000e+00 0.0000e+00
       13  1    3    3    0    0 +2.6973963276e+01 -2.0051041113e+01 -1.3511459302e+02 1.3923219224e+02 1.0566000000e-01 0.0000e+00 -1.0000e+00
       13  1    4    4    0    0 -1.5044218854e+00 +4.0878701604e+00 -7.6877273689e+01 7.7000651566e+01 1.0566000000e-01 0.0000e+00 -1.0000e+00
      -13  1    4    4    0    0 -1.2312881770e+00 -4.3841994497e+00 -4.9357890679e+01 4.9567628667e+01 1.0566000000e-01 0.0000e+00 1.0000e+00
      -14  1    4    4    0    0 -2.4238253214e+01 +2.0347370402e+01 -1.4830091228e+02 1.5163993202e+02 0.0000000000e+00 0.0000e+00 1.0000e+00
<mgrwt>
<rscale>  0 0.80267180E+02</rscale>
<asrwt>0</asrwt>
<pdfrwt beam="1">  1        1 0.63622356E-01 0.80267180E+02</pdfrwt>
<pdfrwt beam="2">  1       -2 0.59921070E-03 0.80267180E+02</pdfrwt>
<totfact> 0.18929103E+05</totfact>
</mgrwt>
</event>
<event>
 8      1 +5.0320763e-08 7.89886700e+01 7.81860800e-03 1.33194600e-01
        4 -1    0    0  501    0 +0.0000000000e+00 +0.0000000000e+00 +1.3814543299e+01 1.3872797358e+01 1.2700000000e+00 0.0000e+00 -1.0000e+00
       -1 -1    0    0    0  501 -0.0000000000e+00 -0.0000000000e+00 -1.1264348991e+02 1.1264349002e+02 5.0400000000e-03 0.0000e+00 1.0000e+00
       24  2    1    2    0    0 +0.0000000000e+00 +0.0000000000e+00 -9.8828946612e+01 1.2651628738e+02 7.8988671874e+01 0.0000e+00 0.0000e+00
       66  2    3    3    0    0 +1.2263772399e+00 +1.8832709908e+01 -1.1634992339e+01 3.7303217771e+01 2.9999700760e+01 0.0000e+00 0.0000e+00
      -13  1    3    3    0    0 -1.2263772399e+00 -1.8832709908e+01 -8.7193954273e+01 8.9213069611e+01 1.0566000000e-01 0.0000e+00 1.0000e+00
       13  1    4    4    0    0 -8.4840669471e+00 +4.8929835093e+00 -2.7297586956e+00 1.0167764069e+01 1.0566000000e-01 0.0000e+00 -1.0000e+00
      -13  1    4    4    0    0 +1.5267456225e+01 +1.2880607492e+01 -6.9009629571e+00 2.1133852529e+01 1.0566000000e-01 0.0000e+00 1.0000e+00
      -14  1    4    4    0    0 -5.5570120383e+00 +1.0591189070e+00 -2.0042706863e+00 6.0016011728e+00 0.0000000000e+00 0.0000e+00 1.0000e+00
<mgrwt>
<rscale>  0 0.78988672E+02</rscale>
<asrwt>0</asrwt>
<pdfrwt beam="1">  1        4 0.21303462E-02 0.78988672E+02</pdfrwt>
<pdfrwt beam="2">  1       -1 0.17329767E-01 0.78988672E+02</pdfrwt>
<totfact> 0.73148757E+04</totfact>
</mgrwt>
</event>
<event>
 8      1 +5.0320763e-08 7.86511000e+01 7.81860800e-03 1.33292400e-01
        1 -1    0    0  501    0 +0.0000000000e+00 +0.0000000000e+00 +4.9071382760e+00 4.9071408642e+00 5.0400000000e-03 0.0000e+00 -1.0000e+00
       -2 -1    0    0    0  501 -0.0000000000e+00 -0.0000000000e+00 -3.1515284743e+02 3.1515284744e+02 2.5500000000e-03 0.0000e+00 1.0000e+00
      -24  2    1    2    0    0 +0.0000000000e+00 +0.0000000000e+00 -3.1024570915e+02 3.2005998831e+02 7.8651103394e+01 0.0000e+00 0.0000e+00
       66  2    3    3    0    0 +4.6738033129e+00 +9.0827513046e+00 -3.0796732369e+02 3.0959370850e+02 3.0000851199e+01 0.0000e+00 0.0000e+00
       13  1    3    3    0    0 -4.6738033129e+00 -9.0827513046e+00 -2.2783854674e+00 1.0466279809e+01 1.0566000000e-01 0.0000e+00 -1.0000e+00
       13  1    4    4    0    0 -3.2516208386e+00 -4.5777721613e+00 -4.7420379954e+01 4.7751781485e+01 1.0566000000e-01 0.0000e+00 -1.0000e+00
      -13  1    4    4    0    0 +8.1154636100e-01 +1.6874044359e+00 -1.8574808159e+02 1.8575754876e+02 1.0566000000e-01 0.0000e+00 1.0000e+00
      -14  1    4    4    0    0 +7.1138777905e+00 +1.1973119030e+01 -7.4798862141e+01 7.6084378253e+01 0.0000000000e+00 0.0000e+00 1.0000e+00
<mgrwt>
<rscale>  0 0.78651103E+02</rscale>
<asrwt>0</asrwt>
<pdfrwt beam="1">  1        1 0.75494480E-03 0.78651103E+02</pdfrwt>
<pdfrwt beam="2">  1       -2 0.48485038E-01 0.78651103E+02</pdfrwt>
<totfact> 0.71448818E+04</totfact>
</mgrwt>
</event>
<event>
 8      1 +5.0320763e-08 8.03188800e+01 7.81860800e-03 1.32814900e-01
       -2 -1    0    0    0  501 -0.0000000000e+00 +0.0000000000e+00 +2.4092716858e+01 2.4092716993e+01 2.5500000000e-03 0.0000e+00 1.0000e+00
        1 -1    0    0  501    0 +0.0000000000e+00 -0.0000000000e+00 -6.6940594153e+01 6.6940594343e+01 5.0400000000e-03 0.0000e+00 -1.0000e+00
      -24  2    1    2    0    0 +2.2204460493e-16 +0.0000000000e+00 -4.2847877295e+01 9.1033311336e+01 8.0318884355e+01 0.0000e+00 0.0000e+00
       66  2    3    3    0    0 -8.5724867611e-01 +2.8050653159e+01 -1.5589917742e+00 4.1109797341e+01 3.0000182735e+01 0.0000e+00 0.0000e+00
       13  1    3    3    0    0 +8.5724867611e-01 -2.8050653159e+01 -4.1288885521e+01 4.9923513994e+01 1.0566000000e-01 0.0000e+00 -1.0000e+00
       13  1    4    4    0    0 +2.6581153217e-01 +2.8646616173e+00 +4.6366461792e+00 5.4577095726e+00 1.0566000000e-01 0.0000e+00 -1.0000e+00
      -13  1    4    4    0    0 -5.9540106347e+00 +6.0739990013e+00 -1.2354210480e+01 1.4999379558e+01 1.0566000000e-01 0.0000e+00 1.0000e+00
      -14  1    4    4    0    0 +4.8309504264e+00 +1.9111992540e+01 +6.1585725263e+00 2.0652708211e+01 0.0000000000e+00 0.0000e+00 1.0000e+00
<mgrwt>
<rscale>  0 0.80318884E+02</rscale>
<asrwt>0</asrwt>
<pdfrwt beam="1">  1        1 0.10298553E-01 0.80318884E+02</pdfrwt>
<pdfrwt beam="2">  1       -2 0.37065719E-02 0.80318884E+02</pdfrwt>
<totfact> 0.13623568E+05</totfact>
</mgrwt>
</event>
<event>
 8      1 +5.0320763e-08 8.11736200e+01 7.81860800e-03 1.32575300e-01
       -1 -1    0    0    0  501 -0.0000000000e+00 +0.0000000000e+00 +2.4327306601e+00 2.4327358809e+00 5.0400000000e-03 0.0000e+00 1.0000e+00
        2 -1    0    0  501    0 +0.0000000000e+00 -0.0000000000e+00 -6.7713506488e+02 6.7713506488e+02 2.5500000000e-03 0.0000e+00 -1.0000e+00
       24  2    1    2    0    0 -2.2204460493e-16 -3.5527136788e-15 -6.7470233422e+02 6.7956780076e+02 8.1173616623e+01 0.0000e+00 0.0000e+00
       66  2    3    3    0    0 -6.9778914713e-01 +2.7116137684e+01 -5.6916885523e+02 5.7060405365e+02 3.0000474183e+01 0.0000e+00 0.0000e+00
      -13  1    3    3    0    0 +6.9778914713e-01 -2.7116137684e+01 -1.0553347899e+02 1.0896374711e+02 1.0566000000e-01 0.0000e+00 1.0000e+00
       13  1    4    4    0    0 -6.7884424068e+00 +1.4040614467e+01 -2.8374022168e+02 2.8416851755e+02 1.0566000000e-01 0.0000e+00 -1.0000e+00
      -13  1    4    4    0    0 +1.0091390787e+01 +1.4896762372e+01 -2.6062596925e+02 2.6124635253e+02 1.0566000000e-01 0.0000e+00 1.0000e+00
      -14  1    4    4    0    0 -4.0007375275e+00 -1.8212391550e+00 -2.4802664301e+01 2.5189183576e+01 0.0000000000e+00 0.0000e+00 1.0000e+00
<mgrwt>
<rscale>  0 0.81173617E+02</rscale>
<asrwt>0</asrwt>
<pdfrwt beam="1">  1        2 0.10417447E+00 0.81173617E+02</pdfrwt>
<pdfrwt beam="2">  1       -1 0.37426720E-03 0.81173617E+02</pdfrwt>
<totfact> 0.31957599E+05</totfact>
</mgrwt>
</event>
<event>
 8      1 +5.0320763e-08 7.92031100e+01 7.81860800e-03 1.33132800e-01
       -1 -1    0    0    0  501 -0.0000000000e+00 +0.0000000000e+00 +3.6291835612e+01 3.6291835962e+01 5.0400000000e-03 0.0000e+00 1.0000e+00
        2 -1    0    0  501    0 +0.0000000000e+00 -0.0000000000e+00 -4.3213115308e+01 4.3213115383e+01 2.5500000000e-03 0.0000e+00 -1.0000e+00
       24  2    1    2    0    0 +0.0000000000e+00 +0.0000000000e+00 -6.9212796951e+00 7.9504951345e+01 7.9203113422e+01 0.0000e+00 0.0000e+00
       66  2    3    3    0    0 +4.4866066193e+00 +3.2593141049e+01 -1.2241591091e+01 4.6176894699e+01 3.0000109486e+01 0.0000e+00 0.0000e+00
      -13  1    3    3    0    0 -4.4866066193e+00 -3.2593141049e+01 +5.3203113960e+00 3.3328056646e+01 1.0566000000e-01 0.0000e+00 1.0000e+00
       13  1    4    4    0    0 -1.8501732239e+00 -1.8492247506e+00 -6.0971348958e+00 6.6354345080e+00 1.0566000000e-01 0.0000e+00 -1.0000e+00
      -13  1    4    4    0    0 +8.7096857855e-01 +1.3714004569e+00 +4.1653106237e+00 4.4721697313e+00 1.0566000000e-01 0.0000e+00 1.0000e+00
       14  1    4    4    0    0 +5.4658112647e+00 +3.3070965343e+01 -1.0309766819e+01 3.5069290460e+01 0.0000000000e+00 0.0000e+00 -1.0000e+00
<mgrwt>
<rscale>  0 0.79203113E+02</rscale>
<asrwt>0</asrwt>
<pdfrwt beam="1">  1        2 0.66481716E-02 0.79203113E+02</pdfrwt>
<pdfrwt beam="2">  1       -1 0.55833594E-02 0.79203113E+02</pdfrwt>
<totfact> 0.14890139E+05</totfact>
</mgrwt>
</event>
<event>
 8      1 +5.0320763e-08 8.11470900e+01 7.81860800e-03 1.32582700e-01
        1 -1    0    0  501    0 +0.0000000000e+00 +0.0000000000e+00 +7.0966134674e+01 7.0966134853e+01 5.0400000000e-03 0.0000e+00 -1.0000e+00
       -2 -1    0    0    0  501 -0.0000000000e+00 -0.0000000000e+00 -2.3197153794e+01 2.3197153934e+01 2.5500000000e-03 0.0000e+00 1.0000e+00
      -24  2    1    2    0    0 +3.5527136788e-15 +0.0000000000e+00 +4.7768980881e+01 9.4163288787e+01 8.1147085104e+01 0.0000e+00 0.0000e+00
       66  2    3    3    0    0 +1.6451150667e+01 -2.2597910132e+01 +2.6529262469e+00 4.1089986173e+01 3.0000717415e+01 0.0000e+00 0.0000e+00
       13  1    3    3    0    0 -1.6451150667e+01 +2.2597910132e+01 +4.5116054634e+01 5.3073302614e+01 1.0566000000e-01 0.0000e+00 -1.0000e+00
       13  1    4    4    0    0 +4.0010952370e-01 -4.4481471978e+00 -1.5449550515e+00 4.7269600454e+00 1.0566000000e-01 0.0000e+00 -1.0000e+00
      -13  1    4    4    0    0 +5.5923721760e+00 +6.1471159016e+00 -3.1840422800e+00 8.9000533559e+00 1.0566000000e-01 0.0000e+00 1.0000e+00
      -14  1    4    4    0    0 +1.0458668967e+01 -2.4296878836e+01 +7.3819235783e+00 2.7462972772e+01 0.0000000000e+00 0.0000e+00 1.0000e+00
<mgrwt>
<rscale>  0 0.81147085E+02</rscale>
<asrwt>0</asrwt>
<pdfrwt beam="1">  1        1 0.10917867E-01 0.81147085E+02</pdfrwt>
<pdfrwt beam="2">  1       -2 0.35687930E-02 0.81147085E+02</pdfrwt>
<totfact> 0.13369070E+05</totfact>
</mgrwt>
</event>
<event>
 8      1 +5.0320763e-08 7.89790200e+01 7.81860800e-03 1.33197400e-01
        1 -1    0    0  501    0 +0.0000000000e+00 +0.0000000000e+00 +1.2380065228e+02 1.2380065238e+02 5.0400000000e-03 0.0000e+00 -1.0000e+00
       -2 -1    0    0    0  501 -0.0000000000e+00 -0.0000000000e+00 -1.2596230283e+01 1.2596230541e+01 2.5500000000e-03 0.0000e+00 1.0000e+00
      -24  2    1    2    0    0 -3.5527136788e-15 +0.0000000000e+00 +1.1120442200e+02 1.3639688293e+02 7.8979023796e+01 0.0000e+00 0.0000e+00
       66  2    3    3    0    0 -2.8479613627e+01 -1.0819919259e+01 +3.8377089980e+01 5.7453925683e+01 2.9999891599e+01 0.0000e+00 0.0000e+00
       13  1    3    3    0    0 +2.8479613627e+01 +1.0819919259e+01 +7.2827332018e+01 7.8942957242e+01 1.0566000000e-01 0.0000e+00 -1.0000e+00
       13  1    4    4    0    0 -1.3618795057e+01 +8.0405401343e+00 +1.5912214071e+01 2.2435052599e+01 1.0566000000e-01 0.0000e+00 -1.0000e+00
      -13  1    4    4    0    0 -3.4168494388e+00 -1.3091717037e+01 +1.4943564041e+01 2.0159096838e+01 1.0566000000e-01 0.0000e+00 1.0000e+00
      -14  1    4    4    0    0 -1.1443969131e+01 -5.7687423565e+00 +7.5213118677e+00 1.4859776246e+01 0.0000000000e+00 0.0000e+00 1.0000e+00
<mgrwt>
<rscale>  0 0.78979024E+02</rscale>
<asrwt>0</asrwt>
<pdfrwt beam="1">  1        1 0.19046255E-01 0.78979024E+02</pdfrwt>
<pdfrwt beam="2">  1       -2 0.19378816E-02 0.78979024E+02</pdfrwt>
<totfact> 0.15784640E+05</totfact>
</mgrwt>
</event>
<event>
 8      1 +5.0320763e-08 8.05452000e+01 7.81860800e-03 1.32751100e-01
       -1 -1    0    0    0  501 -0.0000000000e+00 +0.0000000000e+00 +7.8858829218e+01 7.8858829379e+01 5.0400000000e-03 0.0000e+00 1.0000e+00
        2 -1    0    0  501    0 +0.0000000000e+00 -0.0000000000e+00 -2.0566908356e+01 2.0566908515e+01 2.5500000000e-03 0.0000e+00 -1.0000e+00
       24  2    1    2    0    0 +0.0000000000e+00 +3.5527136788e-15 +5.8291920861e+01 9.9425737893e+01 8.0545200465e+01 0.0000e+00 0.0000e+00
       66  2    3    3    0    0 +2.3934547001e+00 +2.6057611900e+01 +5.0845119904e+00 4.0131831915e+01 2.9999731788e+01 0.0000e+00 0.0000e+00
      -13  1    3    3    0    0 -2.3934547001e+00 -2.6057611900e+01 +5.3207408871e+01 5.9293905978e+01 1.0566000000e-01 0.0000e+00 1.0000e+00
       13  1    4    4    0    0 +4.2495971060e+00 -5.2910228712e-02 -6.7946031767e-01 4.3051951657e+00 1.0566000000e-01 0.0000e+00 -1.0000e+00
      -13  1    4    4    0    0 -1.4628683457e+00 -4.0512958183e+00 +3.5471648522e+00 5.5809071063e+00 1.0566000000e-01 0.0000e+00 1.0000e+00
       14  1    4    4    0    0 -3.9327406015e-01 +3.0161817947e+01 +2.2168074558e+00 3.0245729643e+01 0.0000000000e+00 0.0000e+00 -1.0000e+00
<mgrwt>
<rscale>  0 0.80545200E+02</rscale>
<asrwt>0</asrwt>
<pdfrwt beam="1">  1        2 0.31641398E-02 0.80545200E+02</pdfrwt>
<pdfrwt beam="2">  1       -1 0.12132127E-01 0.80545200E+02</pdfrwt>
<totfact> 0.12245044E+05</totfact>
</mgrwt>
</event>
<event>
 8      1 +5.0320763e-08 7.97723700e+01 7.81860800e-03 1.32969900e-01
        1 -1    0    0  501    0 +0.0000000000e+00 +0.0000000000e+00 +3.5917059449e+01 3.5917059802e+01 5.0400000000e-03 0.0000e+00 -1.0000e+00
       -2 -1    0    0    0  501 -0.0000000000e+00 -0.0000000000e+00 -4.4293929916e+01 4.4293929989e+01 2.5500000000e-03 0.0000e+00 1.0000e+00
      -24  2    1    2    0    0 -1.7763568394e-15 -1.7763568394e-15 -8.3768704671e+00 8.0210989792e+01 7.9772369430e+01 0.0000e+00 0.0000e+00
       66  2    3    3    0    0 +1.5861200795e+01 +7.7511296605e+00 -3.4286959648e+01 4.8858133668e+01 2.9997731946e+01 0.0000e+00 0.0000e+00
       13  1    3    3    0    0 -1.5861200795e+01 -7.7511296605e+00 +2.5910089181e+01 3.1352856123e+01 1.0566000000e-01 0.0000e+00 -1.0000e+00
       13  1    4    4    0    0 -1.6656993089e+00 -7.3550132264e+00 -1.2347409199e+01 1.4468602272e+01 1.0566000000e-01 0.0000e+00 -1.0000e+00
      -13  1    4    4    0    0 +1.6177721700e+01 +1.1256554549e+01 -1.0685862945e+01 2.2419356160e+01 1.0566000000e-01 0.0000e+00 1.0000e+00
      -14  1    4    4    0    0 +1.3491784044e+00 +3.8495883382e+00 -1.1253687505e+01 1.1970175237e+01 0.0000000000e+00 0.0000e+00 1.0000e+00
<mgrwt>
<rscale>  0 0.79772369E+02</rscale>
<asrwt>0</asrwt>
<pdfrwt beam="1">  1        1 0.55257015E-02 0.79772369E+02</pdfrwt>
<pdfrwt beam="2">  1       -2 0.68144508E-02 0.79772369E+02</pdfrwt>
<totfact> 0.12575682E+05</totfact>
</mgrwt>
</event>
<event>
 8      1 +5.0320763e-08 7.99888800e+01 7.81860800e-03 1.32908300e-01
       -1 -1    0    0    0  501 -0.0000000000e+00 +0.0000000000e+00 +3.6807035347e+00 3.6807069854e+00 5.0400000000e-03 0.0000e+00 1.0000e+00
        2 -1    0    0  501    0 +0.0000000000e+00 -0.0000000000e+00 -4.3457846653e+02 4.3457846653e+02 2.5500000000e-03 0.0000e+00 -1.0000e+00
       24  2    1    2    0    0 +0.0000000000e+00 +0.0000000000e+00 -4.3089776299e+02 4.3825917352e+02 7.9988880618e+01 0.0000e+00 0.0000e+00
       66  2    3    3    0    0 +9.4914489071e+00 +4.2944573750e+00 -4.2520059837e+02 4.2638488132e+02 2.9999803248e+01 0.0000e+00 0.0000e+00
      -13  1    3    3    0    0 -9.4914489071e+00 -4.2944573750e+00 -5.6971646182e+00 1.1874292199e+01 1.0566000000e-01 0.0000e+00 1.0000e+00
       13  1    4    4    0    0 -4.7792658951e+00 +2.7616839377e+00 -9.5361143627e+01 9.5520820550e+01 1.0566000000e-01 0.0000e+00 -1.0000e+00
      -13  1    4    4    0    0 +1.4305814158e+01 -6.1228382405e+00 -2.8077766141e+02 2.8120855566e+02 1.0566000000e-01 0.0000e+00 1.0000e+00
      -14  1    4    4    0    0 -3.5099356254e-02 +7.6556116779e+00 -4.9061793335e+01 4.9655505107e+01 0.0000000000e+00 0.0000e+00 1.0000e+00
<mgrwt>
<rscale>  0 0.79988881E+02</rscale>
<asrwt>0</asrwt>
<pdfrwt beam="1">  1        2 0.66858185E-01 0.79988881E+02</pdfrwt>
<pdfrwt beam="2">  1       -1 0.56626269E-03 0.79988881E+02</pdfrwt>
<totfact> 0.29084331E+05</totfact>
</mgrwt>
</event>
<event>
 8      1 +5.0320763e-08 8.20458400e+01 7.81860800e-03 1.32334400e-01
        3 -1    0    0  501    0 +0.0000000000e+00 +0.0000000000e+00 +2.1922645815e+01 2.1922878473e+01 1.0100000000e-01 0.0000e+00 -1.0000e+00
       -4 -1    0    0    0  501 -0.0000000000e+00 -0.0000000000e+00 -7.6740286742e+01 7.6750794844e+01 1.2700000000e+00 0.0000e+00 1.0000e+00
      -24  2    1    2    0    0 +3.5527136788e-15 +0.0000000000e+00 -5.4817640927e+01 9.8673673317e+01 8.2045841145e+01 0.0000e+00 0.0000e+00
       66  2    3    3    0    0 -2.9038799747e+01 -1.6232412687e+01 -4.6104690607e+01 6.4283707052e+01 3.0000156401e+01 0.0000e+00 0.0000e+00
       13  1    3    3    0    0 +2.9038799747e+01 +1.6232412687e+01 -8.7129503197e+00 3.4389966265e+01 1.0566000000e-01 0.0000e+00 -1.0000e+00
       13  1    4    4    0    0 -1.3974065344e+01 +4.1029302164e+00 -1.6609138219e+01 2.2090341215e+01 1.0566000000e-01 0.0000e+00 -1.0000e+00
      -13  1    4    4    0    0 -1.6802136157e+01 -2.1126709427e+01 -2.3130908290e+01 3.5548554303e+01 1.0566000000e-01 0.0000e+00 1.0000e+00
      -14  1    4    4    0    0 +1.7374017541e+00 +7.9136652432e-01 -6.3646440977e+00 6.6448115339e+00 0.0000000000e+00 0.0000e+00 1.0000e+00
<mgrwt>
<rscale>  0 0.82045841E+02</rscale>
<asrwt>0</asrwt>
<pdfrwt beam="1">  1        3 0.33727380E-02 0.82045841E+02</pdfrwt>
<pdfrwt beam="2">  1       -4 0.11809835E-01 0.82045841E+02</pdfrwt>
<totfact> 0.39646485E+04</totfact>
</mgrwt>
</event>
<event>
 8      1 +5.0320763e-08 7.86374200e+01 7.81860800e-03 1.33296300e-01
       -1 -1    0    0    0  501 -0.0000000000e+00 +0.0000000000e+00 +3.0668471192e+00 3.0668512606e+00 5.0400000000e-03 0.0000e+00 1.0000e+00
        2 -1    0    0  501    0 +0.0000000000e+00 -0.0000000000e+00 -5.0408771932e+02 5.0408771932e+02 2.5500000000e-03 0.0000e+00 -1.0000e+00
       24  2    1    2    0    0 +0.0000000000e+00 -3.5527136788e-15 -5.0102087220e+02 5.0715457058e+02 7.8637421667e+01 0.0000e+00 0.0000e+00
       66  2    3    3    0    0 +1.0925795722e+01 -8.0255610533e+00 -4.8521691985e+02 4.8633249777e+02 3.0000940605e+01 0.0000e+00 0.0000e+00
      -13  1    3    3    0    0 -1.0925795722e+01 +8.0255610533e+00 -1.5803952347e+01 2.0822072812e+01 1.0566000000e-01 0.0000e+00 1.0000e+00
       13  1    4    4    0    0 +2.8937819914e+00 -7.5420642383e-01 -1.6193825781e+02 1.6196590168e+02 1.0566000000e-01 0.0000e+00 -1.0000e+00
      -13  1    4    4    0    0 -3.5459290092e+00 +4.9218149888e+00 -3.0055564255e+01 3.0661800046e+01 1.0566000000e-01 0.0000e+00 1.0000e+00
      -14  1    4    4    0    0 +1.1577942739e+01 -1.2193169618e+01 -2.9322309779e+02 2.9370479604e+02 0.0000000000e+00 0.0000e+00 1.0000e+00
<mgrwt>
<rscale>  0 0.78637422E+02</rscale>
<asrwt>0</asrwt>
<pdfrwt beam="1">  1        2 0.77551891E-01 0.78637422E+02</pdfrwt>
<pdfrwt beam="2">  1       -1 0.47182336E-03 0.78637422E+02</pdfrwt>
<totfact> 0.31926901E+05</totfact>
</mgrwt>
</event>
<event>
 8      1 +5.0320763e-08 7.97948700e+01 7.81860800e-03 1.32963500e-01
       -4 -1    0    0    0  501 -0.0000000000e+00 +0.0000000000e+00 +1.2788470027e+01 1.2851376021e+01 1.2700000000e+00 0.0000e+00 1.0000e+00
        3 -1    0    0  501    0 +0.0000000000e+00 -0.0000000000e+00 -1.2413485339e+02 1.2413489447e+02 1.0100000000e-01 0.0000e+00 -1.0000e+00
      -24  2    1    2    0    0 +0.0000000000e+00 +0.0000000000e+00 -1.1134638336e+02 1.3698627050e+02 7.9794869616e+01 0.0000e+00 0.0000e+00
       66  2    3    3    0    0 +9.9522110526e+00 +2.5050621068e+01 -9.9846193456e+01 1.0768020197e+02 2.9986387366e+01 0.0000e+00 0.0000e+00
       13  1    3    3    0    0 -9.9522110526e+00 -2.5050621068e+01 -1.1500189903e+01 2.9306068528e+01 1.0566000000e-01 0.0000e+00 -1.0000e+00
       13  1    4    4    0    0 -5.8779450081e-01 -5.6413294539e+00 -9.4775304083e+00 1.1045580431e+01 1.0566000000e-01 0.0000e+00 -1.0000e+00
      -13  1    4    4    0    0 +9.5795383415e+00 +3.1239822702e+01 -8.3292700470e+01 8.9472784649e+01 1.0566000000e-01 0.0000e+00 1.0000e+00
      -14  1    4    4    0    0 +9.6046721192e-01 -5.4787218005e-01 -7.0759625782e+00 7.1618368872e+00 0.0000000000e+00 0.0000e+00 1.0000e+00
<mgrwt>
<rscale>  0 0.79794870E+02</rscale>
<asrwt>0</asrwt>
<pdfrwt beam="1">  1        3 0.19097703E-01 0.79794870E+02</pdfrwt>
<pdfrwt beam="2">  1       -4 0.19727957E-02 0.79794870E+02</pdfrwt>
<totfact> 0.41267405E+04</totfact>
</mgrwt>
</event>
<event>
 8      1 +5.0320763e-08 7.87387000e+01 7.81860800e-03 1.33266900e-01
       -2 -1    0    0    0  501 -0.0000000000e+00 +0.0000000000e+00 +1.9575956520e+02 1.9575956522e+02 2.5500000000e-03 0.0000e+00 1.0000e+00
        1 -1    0    0  501    0 +0.0000000000e+00 -0.0000000000e+00 -7.9175982985e+00 7.9175999026e+00 5.0400000000e-03 0.0000e+00 -1.0000e+00
      -24  2    1    2    0    0 +4.4408920985e-16 +0.0000000000e+00 +1.8784196691e+02 2.0367716512e+02 7.8738701169e+01 0.0000e+00 0.0000e+00
       66  2    3    3    0    0 +2.2446095511e+00 +3.3421407230e+01 +9.9151143364e+01 1.0887156361e+02 3.0000656656e+01 0.0000e+00 0.0000e+00
       13  1    3    3    0    0 -2.2446095511e+00 -3.3421407230e+01 +8.8690823542e+01 9.4805601511e+01 1.0566000000e-01 0.0000e+00 -1.0000e+00
       13  1    4    4    0    0 -4.8861233946e+00 -2.0139579116e+00 +8.8869699907e+00 1.0340194773e+01 1.0566000000e-01 0.0000e+00 -1.0000e+00
      -13  1    4    4    0    0 -2.3899922929e+00 +1.8575398070e+01 +5.7503463626e+01 6.0476581994e+01 1.0566000000e-01 0.0000e+00 1.0000e+00
       14  1    4    4    0    0 +9.5207252386e+00 +1.6859967072e+01 +3.2760709747e+01 3.8054786846e+01 0.0000000000e+00 0.0000e+00 -1.0000e+00
<mgrwt>
<rscale>  0 0.78738701E+02</rscale>
<asrwt>0</asrwt>
<pdfrwt beam="1">  1        1 0.12180922E-02 0.78738701E+02</pdfrwt>
<pdfrwt beam="2">  1       -2 0.30116856E-01 0.78738701E+02</pdfrwt>
<totfact> 0.89401688E+04</totfact>
</mgrwt>
</event>
<event>
 8      1 +5.0320763e-08 7.73692700e+01 7.81860800e-03 1.33668700e-01
        4 -1    0    0  501    0 +0.0000000000e+00 +0.0000000000e+00 +1.9506275543e+02 1.9506688969e+02 1.2700000000e+00 0.0000e+00 -1.0000e+00
       -3 -1    0    0    0  501 -0.0000000000e+00 -0.0000000000e+00 -7.6694019104e+00 7.6700669269e+00 1.0100000000e-01 0.0000e+00 1.0000e+00
       24  2    1    2    0    0 +3.5527136788e-15 +3.5527136788e-15 +1.8739335352e+02 2.0273695662e+02 7.7369274506e+01 0.0000e+00 0.0000e+00
       66  2    3    3    0    0 -2.2743521643e+01 -2.2269811918e+01 +1.2925074071e+02 1.3645131046e+02 2.9999897521e+01 0.0000e+00 0.0000e+00
      -13  1    3    3    0    0 +2.2743521643e+01 +2.2269811918e+01 +5.8142612803e+01 6.6285646162e+01 1.0566000000e-01 0.0000e+00 1.0000e+00
       13  1    4    4    0    0 -1.3724037906e+01 -1.4863716393e+01 +4.1508569536e+01 4.6176312005e+01 1.0566000000e-01 0.0000e+00 -1.0000e+00
      -13  1    4    4    0    0 -2.4766246680e+00 -8.7777467193e+00 +1.7675371868e+01 1.9890008595e+01 1.0566000000e-01 0.0000e+00 1.0000e+00
       14  1    4    4    0    0 -6.5428590690e+00 +1.3716511945e+00 +7.0066799311e+01 7.0384989859e+01 0.0000000000e+00 0.0000e+00 -1.0000e+00
<mgrwt>
<rscale>  0 0.77369275E+02</rscale>
<asrwt>0</asrwt>
<pdfrwt beam="1">  1        4 0.30018058E-01 0.77369275E+02</pdfrwt>
<pdfrwt beam="2">  1       -3 0.11799613E-02 0.77369275E+02</pdfrwt>
<totfact> 0.36303914E+04</totfact>
</mgrwt>
</event>
<event>
 8      1 +5.0320763e-08 7.87500400e+01 7.81860800e-03 1.33263700e-01
        2 -1    0    0  501    0 +0.0000000000e+00 +0.0000000000e+00 +2.5850718482e+01 2.5850718608e+01 2.5500000000e-03 0.0000e+00 -1.0000e+00
       -1 -1    0    0    0  501 -0.0000000000e+00 -0.0000000000e+00 -5.9974820316e+01 5.9974820528e+01 5.0400000000e-03 0.0000e+00 1.0000e+00
       24  2    1    2    0    0 +0.0000000000e+00 -1.7763568394e-15 -3.4124101835e+01 8.5825539136e+01 7.8750040266e+01 0.0000e+00 0.0000e+00
       66  2    3    3    0    0 +1.6101486456e+01 +5.9511302326e+00 +1.2017407212e+01 3.6594209291e+01 3.0000737665e+01 0.0000e+00 0.0000e+00
      -13  1    3    3    0    0 -1.6101486456e+01 -5.9511302326e+00 -4.6141509046e+01 4.9231329844e+01 1.0566000000e-01 0.0000e+00 1.0000e+00
       13  1    4    4    0    0 +1.0915234951e+01 -5.3710683191e+00 +1.8275461028e+00 1.2302106231e+01 1.0566000000e-01 0.0000e+00 1.0000e+00
      -13  1    4    4    0    0 +8.7949705349e+00 +1.4669454700e+01 +8.3907268300e+00 1.9051505680e+01 1.0566000000e-01 0.0000e+00 -1.0000e+00
       14  1    4    4    0    0 -3.6087190292e+00 -3.3472561482e+00 +1.7991342790e+00 5.2405973808e+00 0.0000000000e+00 0.0000e+00 -1.0000e+00
<mgrwt>
<rscale>  0 0.78750040E+02</rscale>
<asrwt>0</asrwt>
<pdfrwt beam="1">  1        2 0.39770337E-02 0.78750040E+02</pdfrwt>
<pdfrwt beam="2">  1       -1 0.92268954E-02 0.78750040E+02</pdfrwt>
<totfact> 0.13660132E+05</totfact>
</mgrwt>
</event>
<event>
 8      1 +5.0320763e-08 8.07737000e+01 7.81860800e-03 1.32687000e-01
        2 -1    0    0  501    0 +0.0000000000e+00 +0.0000000000e+00 +8.9877845428e+02 8.9877845428e+02 2.5500000000e-03 0.0000e+00 -1.0000e+00
       -1 -1    0    0    0  501 -0.0000000000e+00 -0.0000000000e+00 -1.8147905324e+00 1.8147975308e+00 5.0400000000e-03 0.0000e+00 1.0000e+00
       24  2    1    2    0    0 +0.0000000000e+00 +0.0000000000e+00 +8.9696366375e+02 9.0059325181e+02 8.0773703209e+01 0.0000e+00 0.0000e+00
       66  2    3    3    0    0 -4.3357092199e+00 -1.0196262756e+01 +8.7834368763e+02 8.7892583796e+02 3.0003881068e+01 0.0000e+00 0.0000e+00
      -13  1    3    3    0    0 +4.3357092199e+00 +1.0196262756e+01 +1.8619976116e+01 2.1667413856e+01 1.0566000000e-01 0.0000e+00 1.0000e+00
       13  1    4    4    0    0 -3.0972435442e+00 -2.0899173633e-01 +7.7899335790e+02 7.7899955032e+02 1.0566000000e-01 0.0000e+00 -1.0000e+00
      -13  1    4    4    0    0 -2.5261670795e+00 -6.5303144118e+00 +6.8025626584e+01 6.8385112142e+01 1.0566000000e-01 0.0000e+00 1.0000e+00
       14  1    4    4    0    0 +1.2877014038e+00 -3.4569566080e+00 +3.1324703150e+01 3.1541175491e+01 0.0000000000e+00 0.0000e+00 -1.0000e+00
<mgrwt>
<rscale>  0 0.80773703E+02</rscale>
<asrwt>0</asrwt>
<pdfrwt beam="1">  1        2 0.13827351E+00 0.80773703E+02</pdfrwt>
<pdfrwt beam="2">  1       -1 0.27919928E-03 0.80773703E+02</pdfrwt>
<totfact> 0.34078469E+05</totfact>
</mgrwt>
</event>
<event>
 8      1 +5.0320763e-08 8.02996600e+01 7.81860800e-03 1.32820300e-01
        2 -1    0    0  501    0 +0.0000000000e+00 +0.0000000000e+00 +3.6820452663e+01 3.6820452751e+01 2.5500000000e-03 0.0000e+00 -1.0000e+00
       -1 -1    0    0    0  501 -0.0000000000e+00 -0.0000000000e+00 -4.3780257752e+01 4.3780258042e+01 5.0400000000e-03 0.0000e+00 1.0000e+00
       24  2    1    2    0    0 +0.0000000000e+00 +0.0000000000e+00 -6.9598050885e+00 8.0600710793e+01 8.0299661852e+01 0.0000e+00 0.0000e+00
       66  2    3    3    0    0 -2.6193544761e+01 -1.0022534721e+01 +1.6280891800e+01 4.4176897906e+01 2.9999631354e+01 0.0000e+00 0.0000e+00
      -13  1    3    3    0    0 +2.6193544761e+01 +1.0022534721e+01 -2.3240696889e+01 3.6423812888e+01 1.0566000000e-01 0.0000e+00 1.0000e+00
       13  1    4    4    0    0 -1.5280314434e+01 +7.4935579756e+00 +8.5499553112e+00 1.9046110369e+01 1.0566000000e-01 0.0000e+00 -1.0000e+00
      -13  1    4    4    0    0 -7.1486793830e+00 -7.3816751313e+00 +9.7122331138e+00 1.4139709359e+01 1.0566000000e-01 0.0000e+00 1.0000e+00
      -14  1    4    4    0    0 -3.7645509438e+00 -1.0134417565e+01 -1.9812966246e+00 1.0991078177e+01 0.0000000000e+00 0.0000e+00 1.0000e+00
<mgrwt>
<rscale>  0 0.80299662E+02</rscale>
<asrwt>0</asrwt>
<pdfrwt beam="1">  1        2 0.56646850E-02 0.80299662E+02</pdfrwt>
<pdfrwt beam="2">  1       -1 0.67354243E-02 0.80299662E+02</pdfrwt>
<totfact> 0.13871780E+05</totfact>
</mgrwt>
</event>
<event>
 8      1 +5.0320763e-08 7.70742200e+01 7.81860800e-03 1.33756600e-01
        2 -1    0    0  501    0 +0.0000000000e+00 +0.0000000000e+00 +3.3782514415e+02 3.3782514416e+02 2.5500000000e-03 0.0000e+00 -1.0000e+00
       -1 -1    0    0    0  501 -0.0000000000e+00 -0.0000000000e+00 -4.3960857800e+00 4.3960886691e+00 5.0400000000e-03 0.0000e+00 1.0000e+00
       24  2    1    2    0    0 -6.6613381478e-16 -7.1054273576e-15 +3.3342905837e+02 3.4222123283e+02 7.7074218993e+01 0.0000e+00 0.0000e+00
       66  2    3    3    0    0 -5.2228296430e-01 -2.9524653361e+01 +2.5432820207e+02 2.5778821460e+02 2.9999188046e+01 0.0000e+00 0.0000e+00
      -13  1    3    3    0    0 +5.2228296430e-01 +2.9524653361e+01 +7.9100856298e+01 8.4433018226e+01 1.0566000000e-01 0.0000e+00 1.0000e+00
       13  1    4    4    0    0 +9.3563156640e+00 -4.0964747358e+00 +8.7875078708e+01 8.8466730300e+01 1.0566000000e-01 0.0000e+00 -1.0000e+00
      -13  1    4    4    0    0 -8.6695200130e+00 -1.2069457471e+01 +5.1898285835e+01 5.3984031134e+01 1.0566000000e-01 0.0000e+00 1.0000e+00
       14  1    4    4    0    0 -1.2090786152e+00 -1.3358721155e+01 +1.1455483753e+02 1.1533745317e+02 0.0000000000e+00 0.0000e+00 -1.0000e+00
<mgrwt>
<rscale>  0 0.77074219E+02</rscale>
<asrwt>0</asrwt>
<pdfrwt beam="1">  1        2 0.51973093E-01 0.77074219E+02</pdfrwt>
<pdfrwt beam="2">  1       -1 0.67632120E-03 0.77074219E+02</pdfrwt>
<totfact> 0.29330966E+05</totfact>
</mgrwt>
</event>
<event>
 8      1 +5.0320763e-08 7.93734800e+01 7.81860800e-03 1.33083900e-01
       -1 -1    0    0    0  501 -0.0000000000e+00 +0.0000000000e+00 +1.5318610753e+02 1.5318610761e+02 5.0400000000e-03 0.0000e+00 1.0000e+00
        2 -1    0    0  501    0 +0.0000000000e+00 -0.0000000000e+00 -1.0281855560e+01 1.0281855876e+01 2.5500000000e-03 0.0000e+00 -1.0000e+00
       24  2    1    2    0    0 +0.0000000000e+00 +0.0000000000e+00 +1.4290425197e+02 1.6346796349e+02 7.9373483330e+01 0.0000e+00 0.0000e+00
       66  2    3    3    0    0 -2.5911430107e+01 -1.1005948508e+01 +4.2332120175e+01 5.9029953307e+01 2.9999897937e+01 0.0000e+00 0.0000e+00
      -13  1    3    3    0    0 +2.5911430107e+01 +1.1005948508e+01 +1.0057213179e+02 1.0443801018e+02 1.0566000000e-01 0.0000e+00 1.0000e+00
       13  1    4    4    0    0 +2.8109386573e-01 -8.7119706675e-01 -7.3397799444e-01 1.1780856600e+00 1.0566000000e-01 0.0000e+00 -1.0000e+00
      -13  1    4    4    0    0 -1.6729802240e+01 -1.2506829649e+01 +9.5922272834e+00 2.2985409702e+01 1.0566000000e-01 0.0000e+00 1.0000e+00
      -14  1    4    4    0    0 -9.4627217325e+00 +2.3720782078e+00 +3.3473870886e+01 3.4866457946e+01 0.0000000000e+00 0.0000e+00 1.0000e+00
<mgrwt>
<rscale>  0 0.79373483E+02</rscale>
<asrwt>0</asrwt>
<pdfrwt beam="1">  1        2 0.15818240E-02 0.79373483E+02</pdfrwt>
<pdfrwt beam="2">  1       -1 0.23567092E-01 0.79373483E+02</pdfrwt>
<totfact> 0.10944748E+05</totfact>
</mgrwt>
</event>
<event>
 8      1 +5.0320763e-08 7.85478200e+01 7.81860800e-03 1.33322400e-01
        3 -1    0    0  501    0 +0.0000000000e+00 +0.0000000000e+00 +3.5765559207e+01 3.5765701816e+01 1.0100000000e-01 0.0000e+00 -1.0000e+00
       -4 -1    0    0    0  501 -0.0000000000e+00 -0.0000000000e+00 -4.3105619685e+01 4.3124324325e+01 1.2700000000e+00 0.0000e+00 1.0000e+00
      -24  2    1    2    0    0 +0.0000000000e+00 +0.0000000000e+00 -7.3400604785e+00 7.8890026141e+01 7.8547818153e+01 0.0000e+00 0.0000e+00
       66  2    3    3    0    0 -1.0488163839e+01 -1.6570418203e+01 -3.1539192026e+01 4.7742161497e+01 3.0000216843e+01 0.0000e+00 0.0000e+00
       13  1    3    3    0    0 +1.0488163839e+01 +1.6570418203e+01 +2.4199131548e+01 3.1147864643e+01 1.0566000000e-01 0.0000e+00 -1.0000e+00
       13  1    4    4    0    0 +1.9410333533e+00 -9.0821150777e-01 -5.4178867172e+00 5.8272737312e+00 1.0566000000e-01 0.0000e+00 -1.0000e+00
      -13  1    4    4    0    0 -1.3602659702e+01 -4.9197282057e+00 -2.7448927495e+01 3.1027259970e+01 1.0566000000e-01 0.0000e+00 1.0000e+00
       14  1    4    4    0    0 +1.1734625095e+00 -1.0742478490e+01 +1.3276221858e+00 1.0887627796e+01 0.0000000000e+00 0.0000e+00 -1.0000e+00
<mgrwt>
<rscale>  0 0.78547818E+02</rscale>
<asrwt>0</asrwt>
<pdfrwt beam="1">  1        3 0.55024142E-02 0.78547818E+02</pdfrwt>
<pdfrwt beam="2">  1       -4 0.66348066E-02 0.78547818E+02</pdfrwt>
<totfact> 0.47388533E+04</totfact>
</mgrwt>
</event>
<event>
 8      1 +5.0320763e-08 7.86489100e+01 7.81860800e-03 1.33293000e-01
       -1 -1    0    0    0  501 -0.0000000000e+00 +0.0000000000e+00 +3.0784622666e+01 3.0784623079e+01 5.0400000000e-03 0.0000e+00 1.0000e+00
        2 -1    0    0  501    0 +0.0000000000e+00 -0.0000000000e+00 -5.0233284879e+01 5.0233284944e+01 2.5500000000e-03 0.0000e+00 -1.0000e+00
       24  2    1    2    0    0 +0.0000000000e+00 +4.4408920985e-16 -1.9448662213e+01 8.1017908022e+01 7.8648909455e+01 0.0000e+00 0.0000e+00
       66  2    3    3    0    0 -1.2529704571e+01 -2.8030896227e+00 -4.3127544822e+01 5.4081845695e+01 3.0000168389e+01 0.0000e+00 0.0000e+00
      -13  1    3    3    0    0 +1.2529704571e+01 +2.8030896227e+00 +2.3678882609e+01 2.6936062327e+01 1.0566000000e-01 0.0000e+00 1.0000e+00
       13  1    4    4    0    0 -2.3100822892e+00 -5.4631105262e+00 -1.2140759906e+01 1.3512633790e+01 1.0566000000e-01 0.0000e+00 -1.0000e+00
      -13  1    4    4    0    0 -2.9126822691e-01 +1.0799072001e+01 -5.7114571486e+00 1.2220339604e+01 1.0566000000e-01 0.0000e+00 1.0000e+00
       14  1    4    4    0    0 -9.9283540549e+00 -8.1390510970e+00 -2.5275327767e+01 2.8348872300e+01 0.0000000000e+00 0.0000e+00 -1.0000e+00
<mgrwt>
<rscale>  0 0.78648909E+02</rscale>
<asrwt>0</asrwt>
<pdfrwt beam="1">  1        2 0.77281977E-02 0.78648909E+02</pdfrwt>
<pdfrwt beam="2">  1       -1 0.47360959E-02 0.78648909E+02</pdfrwt>
<totfact> 0.15671590E+05</totfact>
</mgrwt>
</event>
<event>
 8      1 +5.0320763e-08 8.03615700e+01 7.81860800e-03 1.32802800e-01
        2 -1    0    0  501    0 +0.0000000000e+00 +0.0000000000e+00 +3.3317997116e+01 3.3317997214e+01 2.5500000000e-03 0.0000e+00 -1.0000e+00
       -1 -1    0    0    0  501 -0.0000000000e+00 -0.0000000000e+00 -4.8457162054e+01 4.8457162316e+01 5.0400000000e-03 0.0000e+00 1.0000e+00
       24  2    1    2    0    0 +0.0000000000e+00 +1.7763568394e-15 -1.5139164938e+01 8.1775159530e+01 8.0361572914e+01 0.0000e+00 0.0000e+00
       66  2    3    3    0    0 -3.1689710438e+00 -1.1876961684e+01 +2.4266856189e+01 4.0496227115e+01 2.9999325074e+01 0.0000e+00 0.0000e+00
      -13  1    3    3    0    0 +3.1689710438e+00 +1.1876961684e+01 -3.9406021127e+01 4.1278932416e+01 1.0566000000e-01 0.0000e+00 1.0000e+00
       13  1    4    4    0    0 +3.8659776295e+00 +7.6294877588e-01 +8.5793473459e+00 9.4416226775e+00 1.0566000000e-01 0.0000e+00 -1.0000e+00
      -13  1    4    4    0    0 +1.5775954278e+00 -1.5882605343e+01 +4.5299813960e+00 1.6591499489e+01 1.0566000000e-01 0.0000e+00 1.0000e+00
       14  1    4    4    0    0 -8.6125441012e+00 +3.2426948834e+00 +1.1157527447e+01 1.4463104948e+01 0.0000000000e+00 0.0000e+00 -1.0000e+00
<mgrwt>
<rscale>  0 0.80361573E+02</rscale>
<asrwt>0</asrwt>
<pdfrwt beam="1">  1        2 0.51258458E-02 0.80361573E+02</pdfrwt>
<pdfrwt beam="2">  1       -1 0.74549480E-02 0.80361573E+02</pdfrwt>
<totfact> 0.13566302E+05</totfact>
</mgrwt>
</event>
<event>
 8      1 +5.0320763e-08 8.11887800e+01 7.81860800e-03 1.32571100e-01
       -3 -1    0    0    0  501 -0.0000000000e+00 +0.0000000000e+00 +3.6199841289e+01 3.6199982188e+01 1.0100000000e-01 0.0000e+00 1.0000e+00
        4 -1    0    0  501    0 +0.0000000000e+00 -0.0000000000e+00 -4.5502268312e+01 4.5519988153e+01 1.2700000000e+00 0.0000e+00 -1.0000e+00
       24  2    1    2    0    0 +4.4408920985e-16 +3.5527136788e-15 -9.3024270221e+00 8.1719970341e+01 8.1188782501e+01 0.0000e+00 0.0000e+00
       66  2    3    3    0    0 +2.0747595899e+00 +1.6094545124e+01 -3.6558813438e+01 4.9998356659e+01 2.9999163629e+01 0.0000e+00 0.0000e+00
      -13  1    3    3    0    0 -2.0747595899e+00 -1.6094545124e+01 +2.7256386416e+01 3.1721613682e+01 1.0566000000e-01 0.0000e+00 1.0000e+00
       13  1    4    4    0    0 +2.6258706614e+00 -3.9802545520e+00 -2.2506866794e+01 2.3006691199e+01 1.0566000000e-01 0.0000e+00 -1.0000e+00
      -13  1    4    4    0    0 +1.8057608718e+00 +1.9137418388e+01 -1.4895659323e+01 2.4318581076e+01 1.0566000000e-01 0.0000e+00 1.0000e+00
      -14  1    4    4    0    0 -2.3568719433e+00 +9.3738128855e-01 +8.4371267811e-01 2.6730843833e+00 0.0000000000e+00 0.0000e+00 1.0000e+00
<mgrwt>
<rscale>  0 0.81188783E+02</rscale>
<asrwt>0</asrwt>
<pdfrwt beam="1">  1        4 0.70034253E-02 0.81188783E+02</pdfrwt>
<pdfrwt beam="2">  1       -3 0.55692262E-02 0.81188783E+02</pdfrwt>
<totfact> 0.43058245E+04</totfact>
</mgrwt>
</event>
<event>
 8      1 +5.0320763e-08 8.10353900e+01 7.81860800e-03 1.32613900e-01
       -4 -1    0    0    0  501 -0.0000000000e+00 +0.0000000000e+00 +1.9576681720e+02 1.9577093660e+02 1.2700000000e+00 0.0000e+00 1.0000e+00
        3 -1    0    0  501    0 +0.0000000000e+00 -0.0000000000e+00 -8.3834488431e+00 8.3840572221e+00 1.0100000000e-01 0.0000e+00 -1.0000e+00
      -24  2    1    2    0    0 -1.7763568394e-15 +0.0000000000e+00 +1.8738336835e+02 2.0415499382e+02 8.1035392052e+01 0.0000e+00 0.0000e+00
       66  2    3    3    0    0 -1.4391169718e+01 +2.7356295492e+01 +6.5363896561e+01 7.8281107211e+01 3.0000335058e+01 0.0000e+00 0.0000e+00
       13  1    3    3    0    0 +1.4391169718e+01 -2.7356295492e+01 +1.2201947179e+02 1.2587388661e+02 1.0566000000e-01 0.0000e+00 -1.0000e+00
       13  1    4    4    0    0 +3.2213580557e+00 +7.6293249600e-01 +2.4140742789e+01 2.4366900504e+01 1.0566000000e-01 0.0000e+00 -1.0000e+00
      -13  1    4    4    0    0 -1.9894851308e+01 +2.4346885921e+01 +3.8523164980e+01 4.9725459945e+01 1.0566000000e-01 0.0000e+00 1.0000e+00
      -14  1    4    4    0    0 +2.2823235339e+00 +2.2464770745e+00 +2.6999887925e+00 4.1887467624e+00 0.0000000000e+00 0.0000e+00 1.0000e+00
<mgrwt>
<rscale>  0 0.81035392E+02</rscale>
<asrwt>0</asrwt>
<pdfrwt beam="1">  1        3 0.12898102E-02 0.81035392E+02</pdfrwt>
<pdfrwt beam="2">  1       -4 0.30125688E-01 0.81035392E+02</pdfrwt>
<totfact> 0.32063025E+04</totfact>
</mgrwt>
</event>
<event>
 8      1 +5.0320763e-08 7.98926000e+01 7.81860800e-03 1.32935600e-01
       -1 -1    0    0    0  501 -0.0000000000e+00 +0.0000000000e+00 +1.1949300248e+01 1.1949301311e+01 5.0400000000e-03 0.0000e+00 1.0000e+00
        2 -1    0    0  501    0 +0.0000000000e+00 -0.0000000000e+00 -1.3353976599e+02 1.3353976601e+02 2.5500000000e-03 0.0000e+00 -1.0000e+00
       24  2    1    2    0    0 +3.5527136788e-15 +0.0000000000e+00 -1.2159046574e+02 1.4548906733e+02 7.9892598854e+01 0.0000e+00 0.0000e+00
       66  2    3    3    0    0 +2.0734214986e+01 +1.7625049764e+01 -1.0742965308e+02 1.1481187988e+02 3.0001455803e+01 0.0000e+00 0.0000e+00
      -13  1    3    3    0    0 -2.0734214986e+01 -1.7625049764e+01 -1.4160812662e+01 3.0677187445e+01 1.0566000000e-01 0.0000e+00 1.0000e+00
       13  1    4    4    0    0 -6.6315694789e-01 -2.6349792879e+00 -9.6063164833e+00 9.9837554757e+00 1.0566000000e-01 0.0000e+00 -1.0000e+00
      -13  1    4    4    0    0 +1.5025085471e+01 +9.0906026431e-01 -2.4752519346e+01 2.8970294475e+01 1.0566000000e-01 0.0000e+00 1.0000e+00
      -14  1    4    4    0    0 +6.3722864628e+00 +1.9350968788e+01 -7.3070817252e+01 7.5857829930e+01 0.0000000000e+00 0.0000e+00 1.0000e+00
<mgrwt>
<rscale>  0 0.79892599E+02</rscale>
<asrwt>0</asrwt>
<pdfrwt beam="1">  1        2 0.20544578E-01 0.79892599E+02</pdfrwt>
<pdfrwt beam="2">  1       -1 0.18383541E-02 0.79892599E+02</pdfrwt>
<totfact> 0.19375474E+05</totfact>
</mgrwt>
</event>
<event>
 8      1 +5.0320763e-08 8.03644100e+01 7.81860800e-03 1.32802000e-01
       -1 -1    0    0    0  501 -0.0000000000e+00 +0.0000000000e+00 +2.2514925176e+01 2.2514925741e+01 5.0400000000e-03 0.0000e+00 1.0000e+00
        2 -1    0    0  501    0 +0.0000000000e+00 -0.0000000000e+00 -7.1712854631e+01 7.1712854676e+01 2.5500000000e-03 0.0000e+00 -1.0000e+00
       24  2    1    2    0    0 +1.3322676296e-15 +0.0000000000e+00 -4.9197929454e+01 9.4227780417e+01 8.0364409658e+01 0.0000e+00 0.0000e+00
       66  2    3    3    0    0 -3.8401512527e+00 -1.2423854593e+01 -6.5599422957e+01 7.3296486195e+01 2.9999861193e+01 0.0000e+00 0.0000e+00
      -13  1    3    3    0    0 +3.8401512527e+00 +1.2423854593e+01 +1.6401493503e+01 2.0931294221e+01 1.0566000000e-01 0.0000e+00 1.0000e+00
       13  1    4    4    0    0 +2.9145390664e+00 -1.4314902553e+01 -2.6144080421e+01 2.9948874405e+01 1.0566000000e-01 0.0000e+00 1.0000e+00
      -13  1    4    4    0    0 -1.3728066211e+00 +6.3086215609e+00 -4.9214939095e+00 8.1188404563e+00 1.0566000000e-01 0.0000e+00 -1.0000e+00
       14  1    4    4    0    0 -5.3818836981e+00 -4.4175736013e+00 -3.4533848627e+01 3.5228771334e+01 0.0000000000e+00 0.0000e+00 -1.0000e+00
<mgrwt>
<rscale>  0 0.80364410E+02</rscale>
<asrwt>0</asrwt>
<pdfrwt beam="1">  1        2 0.11032747E-01 0.80364410E+02</pdfrwt>
<pdfrwt beam="2">  1       -1 0.34638347E-02 0.80364410E+02</pdfrwt>
<totfact> 0.16044044E+05</totfact>
</mgrwt>
</event>
<event>
 8      1 +5.0320763e-08 7.50992200e+01 7.81860800e-03 1.34356400e-01
       -2 -1    0    0    0  501 -0.0000000000e+00 +0.0000000000e+00 +3.0258814645e+01 3.0258814752e+01 2.5500000000e-03 0.0000e+00 1.0000e+00
        1 -1    0    0  501    0 +0.0000000000e+00 -0.0000000000e+00 -4.6597109895e+01 4.6597110168e+01 5.0400000000e-03 0.0000e+00 -1.0000e+00
      -24  2    1    2    0    0 +0.0000000000e+00 +0.0000000000e+00 -1.6338295250e+01 7.6855924920e+01 7.5099223056e+01 0.0000e+00 0.0000e+00
       66  2    3    3    0    0 -1.7461859767e+01 -2.1863485880e+01 +5.4616208819e+00 4.1385147247e+01 2.9999542474e+01 0.0000e+00 0.0000e+00
       13  1    3    3    0    0 +1.7461859767e+01 +2.1863485880e+01 -2.1799916132e+01 3.5470777673e+01 1.0566000000e-01 0.0000e+00 -1.0000e+00
       13  1    4    4    0    0 -1.1844476582e+01 -4.2931811347e+00 -6.5994264829e+00 1.4222750215e+01 1.0566000000e-01 0.0000e+00 -1.0000e+00
      -13  1    4    4    0    0 -9.0654146359e+00 -4.5580957901e+00 +8.5026099199e+00 1.3238712900e+01 1.0566000000e-01 0.0000e+00 1.0000e+00
      -14  1    4    4    0    0 +3.4480314504e+00 -1.3012208955e+01 +3.5584374449e+00 1.3923684132e+01 0.0000000000e+00 0.0000e+00 1.0000e+00
<mgrwt>
<rscale>  0 0.75099223E+02</rscale>
<asrwt>0</asrwt>
<pdfrwt beam="1">  1        1 0.71687862E-02 0.75099223E+02</pdfrwt>
<pdfrwt beam="2">  1       -2 0.46552023E-02 0.75099223E+02</pdfrwt>
<totfact> 0.15508053E+05</totfact>
</mgrwt>
</event>
<event>
 8      1 +5.0320763e-08 7.57960100e+01 7.81860800e-03 1.34142400e-01
       -2 -1    0    0    0  501 -0.0000000000e+00 +0.0000000000e+00 +3.9835878904e+02 3.9835878905e+02 2.5500000000e-03 0.0000e+00 1.0000e+00
        1 -1    0    0  501    0 +0.0000000000e+00 -0.0000000000e+00 -3.6054384372e+00 3.6054419599e+00 5.0400000000e-03 0.0000e+00 -1.0000e+00
      -24  2    1    2    0    0 -5.5511151231e-16 +1.7763568394e-15 +3.9475335060e+02 4.0196423101e+02 7.5796010434e+01 0.0000e+00 0.0000e+00
       66  2    3    3    0    0 -1.4437378174e-01 +1.5289128190e+01 +3.7713900850e+02 3.7863925520e+02 3.0001259354e+01 0.0000e+00 0.0000e+00
       13  1    3    3    0    0 +1.4437378174e-01 -1.5289128190e+01 +1.7614342103e+01 2.3324975806e+01 1.0566000000e-01 0.0000e+00 -1.0000e+00
       13  1    4    4    0    0 -8.8524186927e+00 +1.0788633572e+00 +6.4977210753e+01 6.5586418900e+01 1.0566000000e-01 0.0000e+00 -1.0000e+00
      -13  1    4    4    0    0 +6.0986982514e+00 +5.4900975935e+00 +4.5396362490e+01 4.6132159968e+01 1.0566000000e-01 0.0000e+00 1.0000e+00
      -14  1    4    4    0    0 +2.6093466596e+00 +8.7201672397e+00 +2.6676543526e+02 2.6692067634e+02 0.0000000000e+00 0.0000e+00 1.0000e+00
<mgrwt>
<rscale>  0 0.75796010E+02</rscale>
<asrwt>0</asrwt>
<pdfrwt beam="1">  1        1 0.55468337E-03 0.75796010E+02</pdfrwt>
<pdfrwt beam="2">  1       -2 0.61285939E-01 0.75796010E+02</pdfrwt>
<totfact> 0.68104123E+04</totfact>
</mgrwt>
</event>
<event>
 8      1 +5.0320763e-08 7.93331700e+01 7.81860800e-03 1.33095500e-01
       -1 -1    0    0    0  501 -0.0000000000e+00 +0.0000000000e+00 +3.8168915013e+00 3.8168948289e+00 5.0400000000e-03 0.0000e+00 1.0000e+00
        2 -1    0    0  501    0 +0.0000000000e+00 -0.0000000000e+00 -4.1223006728e+02 4.1223006728e+02 2.5500000000e-03 0.0000e+00 -1.0000e+00
       24  2    1    2    0    0 +0.0000000000e+00 +0.0000000000e+00 -4.0841317577e+02 4.1604696211e+02 7.9333174252e+01 0.0000e+00 0.0000e+00
       66  2    3    3    0    0 +9.2644938016e+00 +2.8904059862e+01 -3.1368636837e+02 3.1657608835e+02 3.0000108205e+01 0.0000e+00 0.0000e+00
      -13  1    3    3    0    0 -9.2644938016e+00 -2.8904059862e+01 -9.4726807406e+01 9.9470873763e+01 1.0566000000e-01 0.0000e+00 1.0000e+00
       13  1    4    4    0    0 +8.7080260166e-01 +2.5651958767e+00 -5.0225131665e+00 5.7074801445e+00 1.0566000000e-01 0.0000e+00 -1.0000e+00
      -13  1    4    4    0    0 +1.0192266034e+01 +1.8592495538e+01 -1.0881135078e+02 1.1085794694e+02 1.0566000000e-01 0.0000e+00 1.0000e+00
       14  1    4    4    0    0 -1.7985748342e+00 +7.7463684467e+00 -1.9985250443e+02 2.0001066127e+02 0.0000000000e+00 0.0000e+00 -1.0000e+00
<mgrwt>
<rscale>  0 0.79333174E+02</rscale>
<asrwt>0</asrwt>
<pdfrwt beam="1">  1        2 0.63419975E-01 0.79333174E+02</pdfrwt>
<pdfrwt beam="2">  1       -1 0.58721466E-03 0.79333174E+02</pdfrwt>
<totfact> 0.29181982E+05</totfact>
</mgrwt>
</event>
<event>
 8      1 +5.0320763e-08 8.00027900e+01 7.81860800e-03 1.32904400e-01
       -1 -1    0    0    0  501 -0.0000000000e+00 +0.0000000000e+00 +9.7058815514e+00 9.7058828600e+00 5.0400000000e-03 0.0000e+00 1.0000e+00
        2 -1    0    0  501    0 +0.0000000000e+00 -0.0000000000e+00 -1.6485998206e+02 1.6485998208e+02 2.5500000000e-03 0.0000e+00 -1.0000e+00
       24  2    1    2    0    0 -3.5527136788e-15 +1.7763568394e-15 -1.5515410051e+02 1.7456586494e+02 8.0002789312e+01 0.0000e+00 0.0000e+00
       66  2    3    3    0    0 +1.9191430089e+01 -1.3476242111e+01 -1.4333308637e+02 1.4830434119e+02 2.9998064570e+01 0.0000e+00 0.0000e+00
      -13  1    3    3    0    0 -1.9191430089e+01 +1.3476242111e+01 -1.1821014141e+01 2.6261523750e+01 1.0566000000e-01 0.0000e+00 1.0000e+00
       13  1    4    4    0    0 +2.0471770839e+01 +1.7530551616e+00 -8.1730750208e+01 8.4273918251e+01 1.0566000000e-01 0.0000e+00 -1.0000e+00
      -13  1    4    4    0    0 -2.3034653478e+00 -5.9438161931e-01 -4.7198174379e+00 5.2865000520e+00 1.0566000000e-01 0.0000e+00 1.0000e+00
       14  1    4    4    0    0 +1.0231245980e+00 -1.4634915653e+01 -5.6882518726e+01 5.8743922892e+01 0.0000000000e+00 0.0000e+00 -1.0000e+00
<mgrwt>
<rscale>  0 0.80002789E+02</rscale>
<asrwt>0</asrwt>
<pdfrwt beam="1">  1        2 0.25363072E-01 0.80002789E+02</pdfrwt>
<pdfrwt beam="2">  1       -1 0.14932128E-02 0.80002789E+02</pdfrwt>
<totfact> 0.20655652E+05</totfact>
</mgrwt>
</event>
<event>
 8      1 +5.0320763e-08 7.66663600e+01 7.81860800e-03 1.33878700e-01
        3 -1    0    0  501    0 +0.0000000000e+00 +0.0000000000e+00 +3.3799962947e+01 3.3800113849e+01 1.0100000000e-01 0.0000e+00 -1.0000e+00
       -4 -1    0    0    0  501 -0.0000000000e+00 -0.0000000000e+00 -4.3453012233e+01 4.3471567399e+01 1.2700000000e+00 0.0000e+00 1.0000e+00
      -24  2    1    2    0    0 +3.5527136788e-15 +3.5527136788e-15 -9.6530492865e+00 7.7271681248e+01 7.6666363957e+01 0.0000e+00 0.0000e+00
       66  2    3    3    0    0 -2.5910384446e+01 -1.6813116913e+01 -1.5639205688e+01 4.5809415675e+01 2.9998148068e+01 0.0000e+00 0.0000e+00
       13  1    3    3    0    0 +2.5910384446e+01 +1.6813116913e+01 +5.9861564019e+00 3.1462265572e+01 1.0566000000e-01 0.0000e+00 -1.0000e+00
       13  1    4    4    0    0 -2.6470779943e+01 -4.8049595285e+00 -3.8026098851e+00 2.7170955685e+01 1.0566000000e-01 0.0000e+00 -1.0000e+00
      -13  1    4    4    0    0 +3.0882655948e+00 -6.8705086562e+00 -1.0205466682e+01 1.2684793566e+01 1.0566000000e-01 0.0000e+00 1.0000e+00
       14  1    4    4    0    0 -2.5278700971e+00 -5.1376487280e+00 -1.6311291216e+00 5.9536664243e+00 0.0000000000e+00 0.0000e+00 -1.0000e+00
<mgrwt>
<rscale>  0 0.76666364E+02</rscale>
<asrwt>0</asrwt>
<pdfrwt beam="1">  1        3 0.52000154E-02 0.76666364E+02</pdfrwt>
<pdfrwt beam="2">  1       -4 0.66883409E-02 0.76666364E+02</pdfrwt>
<totfact> 0.50709345E+04</totfact>
</mgrwt>
</event>
<event>
 7      1 +5.0320763e-08 1.11336800e+02 7.81860800e-03 1.25811400e-01
       -4 -1    0    0    0  501 -0.0000000000e+00 +0.0000000000e+00 +6.4132692200e+01 6.4145265677e+01 1.2700000000e+00 0.0000e+00 1.0000e+00
        3 -1    0    0  501    0 +0.0000000000e+00 -0.0000000000e+00 -4.8310090480e+01 4.8310196058e+01 1.0100000000e-01 0.0000e+00 -1.0000e+00
       66  2    1    2    0    0 -1.0084314355e+01 +2.8599515131e+01 +5.0686726030e+01 6.6247843427e+01 3.0000115021e+01 0.0000e+00 0.0000e+00
       13  1    1    2    0    0 +1.0084314355e+01 -2.8599515131e+01 -3.4864124310e+01 4.6207618308e+01 1.0566000000e-01 0.0000e+00 -1.0000e+00
       13  1    3    3    0    0 +4.6346145732e+00 -2.9532892246e-01 +1.6431850474e+00 4.9272804416e+00 1.0566000000e-01 0.0000e+00 -1.0000e+00
      -13  1    3    3    0    0 -1.2914183927e+01 +6.7975164053e+00 +2.0952732878e+01 2.5534497349e+01 1.0566000000e-01 0.0000e+00 1.0000e+00
       14  1    3    3    0    0 -1.8047450011e+00 +2.2097327648e+01 +2.8090808105e+01 3.5786065636e+01 0.0000000000e+00 0.0000e+00 -1.0000e+00
<mgrwt>
<rscale>  0 0.11133677E+03</rscale>
<asrwt>0</asrwt>
<pdfrwt beam="1">  1        3 0.74323359E-02 0.11133677E+03</pdfrwt>
<pdfrwt beam="2">  1       -4 0.98688193E-02 0.11133677E+03</pdfrwt>
<totfact> 0.16939626E+04</totfact>
</mgrwt>
</event>
<event>
 8      1 +5.0320763e-08 8.00179800e+01 7.81860800e-03 1.32900000e-01
        1 -1    0    0  501    0 +0.0000000000e+00 +0.0000000000e+00 +8.8552563132e+01 8.8552563276e+01 5.0400000000e-03 0.0000e+00 -1.0000e+00
       -2 -1    0    0    0  501 -0.0000000000e+00 -0.0000000000e+00 -1.8076486071e+01 1.8076486251e+01 2.5500000000e-03 0.0000e+00 1.0000e+00
      -24  2    1    2    0    0 +0.0000000000e+00 +0.0000000000e+00 +7.0476077061e+01 1.0662904953e+02 8.0017977761e+01 0.0000e+00 0.0000e+00
       66  2    3    3    0    0 +3.2704663094e+01 +5.6666400296e+00 +5.2157129813e+01 6.8717299506e+01 2.9999921063e+01 0.0000e+00 0.0000e+00
       13  1    3    3    0    0 -3.2704663094e+01 -5.6666400296e+00 +1.8318947249e+01 3.7911750021e+01 1.0566000000e-01 0.0000e+00 -1.0000e+00
       13  1    4    4    0    0 -5.6815133920e-01 +3.6137356966e+00 +8.9471285608e+00 9.6666517031e+00 1.0566000000e-01 0.0000e+00 -1.0000e+00
      -13  1    4    4    0    0 +1.9245154518e+01 -1.9636064378e+00 +7.9949666660e+00 2.0932328554e+01 1.0566000000e-01 0.0000e+00 1.0000e+00
       14  1    4    4    0    0 +1.4027659915e+01 +4.0165107708e+00 +3.5215034586e+01 3.8118319249e+01 0.0000000000e+00 0.0000e+00 -1.0000e+00
<mgrwt>
<rscale>  0 0.80017978E+02</rscale>
<asrwt>0</asrwt>
<pdfrwt beam="1">  1        1 0.13623471E-01 0.80017978E+02</pdfrwt>
<pdfrwt beam="2">  1       -2 0.27809979E-02 0.80017978E+02</pdfrwt>
<totfact> 0.14396517E+05</totfact>
</mgrwt>
</event>
<event>
 8      1 +5.0320763e-08 8.52231500e+01 7.81860800e-03 1.31485000e-01
       -1 -1    0    0    0  501 -0.0000000000e+00 +0.0000000000e+00 +2.9966415419e+02 2.9966415423e+02 5.0400000000e-03 0.0000e+00 1.0000e+00
        2 -1    0    0  501    0 +0.0000000000e+00 -0.0000000000e+00 -6.0592706423e+00 6.0592711789e+00 2.5500000000e-03 0.0000e+00 -1.0000e+00
       24  2    1    2    0    0 +0.0000000000e+00 +0.0000000000e+00 +2.9360488355e+02 3.0572342541e+02 8.5223149449e+01 0.0000e+00 0.0000e+00
       66  2    3    3    0    0 -5.8829589823e+00 +3.4066134123e+01 +2.1553668280e+02 2.2034329990e+02 2.9999957956e+01 0.0000e+00 0.0000e+00
      -13  1    3    3    0    0 +5.8829589823e+00 -3.4066134123e+01 +7.8068200745e+01 8.5380125510e+01 1.0566000000e-01 0.0000e+00 1.0000e+00
       13  1    4    4    0    0 +2.3428824450e+00 +9.6651774460e-01 +2.2008535935e+00 3.3582994621e+00 1.0566000000e-01 0.0000e+00 -1.0000e+00
      -13  1    4    4    0    0 -2.1212337127e+00 +5.3791732209e+00 +9.0732037737e+00 1.0759615595e+01 1.0566000000e-01 0.0000e+00 1.0000e+00
      -14  1    4    4    0    0 -6.1046077146e+00 +2.7720443158e+01 +2.0426262543e+02 2.0622538484e+02 0.0000000000e+00 0.0000e+00 1.0000e+00
<mgrwt>
<rscale>  0 0.85223149E+02</rscale>
<asrwt>0</asrwt>
<pdfrwt beam="1">  1        2 0.93219581E-03 0.85223149E+02</pdfrwt>
<pdfrwt beam="2">  1       -1 0.46102164E-01 0.85223149E+02</pdfrwt>
<totfact> 0.73508828E+04</totfact>
</mgrwt>
</event>
<event>
 8      1 +5.0320763e-08 8.01483600e+01 7.81860800e-03 1.32863100e-01
       -2 -1    0    0    0  501 -0.0000000000e+00 +0.0000000000e+00 +3.9505033811e+00 3.9505042041e+00 2.5500000000e-03 0.0000e+00 1.0000e+00
        1 -1    0    0  501    0 +0.0000000000e+00 -0.0000000000e+00 -4.0651525983e+02 4.0651525986e+02 5.0400000000e-03 0.0000e+00 -1.0000e+00
      -24  2    1    2    0    0 +1.7763568394e-15 -7.1054273576e-15 -4.0256475645e+02 4.1046576406e+02 8.0148364518e+01 0.0000e+00 0.0000e+00
       66  2    3    3    0    0 -1.2452552852e+01 +3.2072388420e+01 -2.3933680367e+02 2.4365125659e+02 3.0002084525e+01 0.0000e+00 0.0000e+00
       13  1    3    3    0    0 +1.2452552852e+01 -3.2072388420e+01 -1.6322795277e+02 1.6681450747e+02 1.0566000000e-01 0.0000e+00 -1.0000e+00
       13  1    4    4    0    0 +5.2562564989e+00 +7.8721733024e+00 -7.8046198792e+01 7.8618189084e+01 1.0566000000e-01 0.0000e+00 -1.0000e+00
      -13  1    4    4    0    0 -7.3240046037e+00 +5.2743887758e+00 -1.8115607338e+01 2.0239728597e+01 1.0566000000e-01 0.0000e+00 1.0000e+00
      -14  1    4    4    0    0 -1.0384804747e+01 +1.8925826342e+01 -1.4317499754e+02 1.4479333891e+02 0.0000000000e+00 0.0000e+00 1.0000e+00
<mgrwt>
<rscale>  0 0.80148365E+02</rscale>
<asrwt>0</asrwt>
<pdfrwt beam="1">  1        1 0.62540776E-01 0.80148365E+02</pdfrwt>
<pdfrwt beam="2">  1       -2 0.60777014E-03 0.80148365E+02</pdfrwt>
<totfact> 0.18950922E+05</totfact>
</mgrwt>
</event>
<event>
 8      1 +5.0320763e-08 7.81761100e+01 7.81860800e-03 1.33430800e-01
        2 -1    0    0  501    0 +0.0000000000e+00 +0.0000000000e+00 +2.4626943171e+02 2.4626943173e+02 2.5500000000e-03 0.0000e+00 -1.0000e+00
       -3 -1    0    0    0  501 -0.0000000000e+00 -0.0000000000e+00 -6.2036624371e+00 6.2044845583e+00 1.0100000000e-01 0.0000e+00 1.0000e+00
       24  2    1    2    0    0 +0.0000000000e+00 +3.5527136788e-15 +2.4006576927e+02 2.5247391628e+02 7.8176114165e+01 0.0000e+00 0.0000e+00
       66  2    3    3    0    0 -9.4792063807e+00 +2.3413266401e+01 +2.0794453495e+02 2.1161046984e+02 3.0000415498e+01 0.0000e+00 0.0000e+00
      -13  1    3    3    0    0 +9.4792063807e+00 -2.3413266401e+01 +3.2121234321e+01 4.0863446447e+01 1.0566000000e-01 0.0000e+00 1.0000e+00
       13  1    4    4    0    0 +1.6404381438e+00 -6.3672277343e-01 +2.3064028244e+01 2.3131299489e+01 1.0566000000e-01 0.0000e+00 -1.0000e+00
      -13  1    4    4    0    0 -3.1035565756e+00 +3.8086805741e+00 +4.1212267771e+00 6.4135626072e+00 1.0566000000e-01 0.0000e+00 1.0000e+00
      -14  1    4    4    0    0 -8.0160879489e+00 +2.0241308600e+01 +1.8075927993e+02 1.8206560774e+02 0.0000000000e+00 0.0000e+00 1.0000e+00
<mgrwt>
<rscale>  0 0.78176114E+02</rscale>
<asrwt>0</asrwt>
<pdfrwt beam="1">  1        2 0.37887601E-01 0.78176114E+02</pdfrwt>
<pdfrwt beam="2">  1       -3 0.95447453E-03 0.78176114E+02</pdfrwt>
<totfact> 0.20087639E+05</totfact>
</mgrwt>
</event>
<event>
 8      1 +5.0320763e-08 7.61370700e+01 7.81860800e-03 1.34038600e-01
        1 -1    0    0  501    0 +0.0000000000e+00 +0.0000000000e+00 +8.4435881705e+01 8.4435881855e+01 5.0400000000e-03 0.0000e+00 -1.0000e+00
       -2 -1    0    0    0  501 -0.0000000000e+00 -0.0000000000e+00 -1.7163475930e+01 1.7163476119e+01 2.5500000000e-03 0.0000e+00 1.0000e+00
      -24  2    1    2    0    0 +0.0000000000e+00 +0.0000000000e+00 +6.7272405775e+01 1.0159935797e+02 7.6137066939e+01 0.0000e+00 0.0000e+00
       66  2    3    3    0    0 -1.9832308221e+01 +2.2637813055e+01 +2.3748219695e+01 4.8682848573e+01 3.0004179329e+01 0.0000e+00 0.0000e+00
       13  1    3    3    0    0 +1.9832308221e+01 -2.2637813055e+01 +4.3524186081e+01 5.2916509402e+01 1.0566000000e-01 0.0000e+00 -1.0000e+00
       13  1    4    4    0    0 -1.6516199460e+01 +1.3219851525e+01 +8.8185470039e+00 2.2920018635e+01 1.0566000000e-01 0.0000e+00 -1.0000e+00
      -13  1    4    4    0    0 -7.0476144542e+00 +1.3144940410e+01 +7.6198945340e+00 1.6749098024e+01 1.0566000000e-01 0.0000e+00 1.0000e+00
       14  1    4    4    0    0 +3.7315056932e+00 -3.7269788797e+00 +7.3097781567e+00 9.0137319135e+00 0.0000000000e+00 0.0000e+00 -1.0000e+00
<mgrwt>
<rscale>  0 0.76137067E+02</rscale>
<asrwt>0</asrwt>
<pdfrwt beam="1">  1        1 0.12990136E-01 0.76137067E+02</pdfrwt>
<pdfrwt beam="2">  1       -2 0.26405347E-02 0.76137067E+02</pdfrwt>
<totfact> 0.16344323E+05</totfact>
</mgrwt>
</event>
<event>
 8      1 +5.0320763e-08 7.63439300e+01 7.81860800e-03 1.33975900e-01
       -2 -1    0    0    0  501 -0.0000000000e+00 +0.0000000000e+00 +2.9894898621e+01 2.9894898730e+01 2.5500000000e-03 0.0000e+00 1.0000e+00
        1 -1    0    0  501    0 +0.0000000000e+00 -0.0000000000e+00 -4.8740714928e+01 4.8740715189e+01 5.0400000000e-03 0.0000e+00 -1.0000e+00
      -24  2    1    2    0    0 -7.1054273576e-15 +0.0000000000e+00 -1.8845816307e+01 7.8635613919e+01 7.6343925653e+01 0.0000e+00 0.0000e+00
       66  2    3    3    0    0 -3.0527451333e+01 -8.6379038320e+00 -4.7605958231e+00 4.3923321173e+01 3.0000936699e+01 0.0000e+00 0.0000e+00
       13  1    3    3    0    0 +3.0527451333e+01 +8.6379038320e+00 -1.4085220484e+01 3.4712292745e+01 1.0566000000e-01 0.0000e+00 -1.0000e+00
       13  1    4    4    0    0 -8.3420874141e-01 -4.1743765018e+00 -5.8361573988e+00 7.2244875682e+00 1.0566000000e-01 0.0000e+00 -1.0000e+00
      -13  1    4    4    0    0 -8.0792672141e+00 -5.3355562322e+00 -8.6479783089e+00 1.2982350014e+01 1.0566000000e-01 0.0000e+00 1.0000e+00
       14  1    4    4    0    0 -2.1613975378e+01 +8.7202890202e-01 +9.7235398846e+00 2.3716483591e+01 0.0000000000e+00 0.0000e+00 -1.0000e+00
<mgrwt>
<rscale>  0 0.76343926E+02</rscale>
<asrwt>0</asrwt>
<pdfrwt beam="1">  1        1 0.74985716E-02 0.76343926E+02</pdfrwt>
<pdfrwt beam="2">  1       -2 0.45992152E-02 0.76343926E+02</pdfrwt>
<totfact> 0.14920265E+05</totfact>
</mgrwt>
</event>
<event>
 8      1 +5.0320763e-08 8.03871500e+01 7.81860800e-03 1.32795600e-01
       -2 -1    0    0    0  501 -0.0000000000e+00 +0.0000000000e+00 +4.6516016324e+02 4.6516016325e+02 2.5500000000e-03 0.0000e+00 1.0000e+00
        1 -1    0    0  501    0 +0.0000000000e+00 -0.0000000000e+00 -3.4730455496e+00 3.4730492066e+00 5.0400000000e-03 0.0000e+00 -1.0000e+00
      -24  2    1    2    0    0 -1.3322676296e-15 +0.0000000000e+00 +4.6168711769e+02 4.6863321245e+02 8.0387145572e+01 0.0000e+00 0.0000e+00
       66  2    3    3    0    0 -3.6400947187e+00 +9.5754852587e+00 +4.5563090310e+02 4.5673240968e+02 3.0000566348e+01 0.0000e+00 0.0000e+00
       13  1    3    3    0    0 +3.6400947187e+00 -9.5754852587e+00 +6.0562145860e+00 1.1900802773e+01 1.0566000000e-01 0.0000e+00 -1.0000e+00
       13  1    4    4    0    0 +1.7242202846e+00 +6.3861417542e+00 +1.1467954925e+02 1.1487021338e+02 1.0566000000e-01 0.0000e+00 -1.0000e+00
      -13  1    4    4    0    0 +4.0976177544e+00 +3.1690790586e-02 +2.8494578205e+02 2.8497526445e+02 1.0566000000e-01 0.0000e+00 1.0000e+00
       14  1    4    4    0    0 -9.4619327577e+00 +3.1576527139e+00 +5.6005571807e+01 5.6886931852e+01 0.0000000000e+00 0.0000e+00 -1.0000e+00
<mgrwt>
<rscale>  0 0.80387146E+02</rscale>
<asrwt>0</asrwt>
<pdfrwt beam="1">  1        1 0.53431485E-03 0.80387146E+02</pdfrwt>
<pdfrwt beam="2">  1       -2 0.71563121E-01 0.80387146E+02</pdfrwt>
<totfact> 0.52531948E+04</totfact>
</mgrwt>
</event>
<event>
 8      1 +5.0320763e-08 7.85520200e+01 7.81860800e-03 1.33321200e-01
       -1 -1    0    0    0  501 -0.0000000000e+00 +0.0000000000e+00 +5.2303445575e+00 5.2303469858e+00 5.0400000000e-03 0.0000e+00 1.0000e+00
        2 -1    0    0  501    0 +0.0000000000e+00 -0.0000000000e+00 -2.9493360997e+02 2.9493360999e+02 2.5500000000e-03 0.0000e+00 -1.0000e+00
       24  2    1    2    0    0 -3.5527136788e-15 -3.5527136788e-15 -2.8970326542e+02 3.0016395697e+02 7.8552015069e+01 0.0000e+00 0.0000e+00
       66  2    3    3    0    0 +7.2792770818e+00 +2.2567768335e+01 -2.5665713995e+02 2.5949026013e+02 3.0000259529e+01 0.0000e+00 0.0000e+00
      -13  1    3    3    0    0 -7.2792770818e+00 -2.2567768335e+01 -3.3046125470e+01 4.0673696845e+01 1.0566000000e-01 0.0000e+00 1.0000e+00
       13  1    4    4    0    0 +1.5418580787e+00 +5.1802631998e-01 -8.9984371660e+01 8.9999133244e+01 1.0566000000e-01 0.0000e+00 -1.0000e+00
      -13  1    4    4    0    0 -7.1772953899e+00 +5.7532122783e+00 -7.0395975603e+01 7.0994489686e+01 1.0566000000e-01 0.0000e+00 1.0000e+00
      -14  1    4    4    0    0 +1.2914714393e+01 +1.6296529737e+01 -9.6276792685e+01 9.8496637196e+01 0.0000000000e+00 0.0000e+00 1.0000e+00
<mgrwt>
<rscale>  0 0.78552015E+02</rscale>
<asrwt>0</asrwt>
<pdfrwt beam="1">  1        2 0.45374389E-01 0.78552015E+02</pdfrwt>
<pdfrwt beam="2">  1       -1 0.80466881E-03 0.78552015E+02</pdfrwt>
<totfact> 0.26579773E+05</totfact>
</mgrwt>
</event>
<event>
 8      1 +5.0320763e-08 5.43414400e+01 7.81860800e-03 1.42323900e-01
       -2 -1    0    0    0  501 -0.0000000000e+00 +0.0000000000e+00 +4.9018516624e+00 4.9018523256e+00 2.5500000000e-03 0.0000e+00 1.0000e+00
        1 -1    0    0  501    0 +0.0000000000e+00 -0.0000000000e+00 -1.5060593816e+02 1.5060593824e+02 5.0400000000e-03 0.0000e+00 -1.0000e+00
      -24  2    1    2    0    0 +0.0000000000e+00 +0.0000000000e+00 -1.4570408649e+02 1.5550779057e+02 5.4341440041e+01 0.0000e+00 0.0000e+00
       66  2    3    3    0    0 -1.0468307108e+01 +1.0800617978e+01 -6.2353224104e+01 7.0810587380e+01 2.9999598773e+01 0.0000e+00 0.0000e+00
       13  1    3    3    0    0 +1.0468307108e+01 -1.0800617978e+01 -8.3350862390e+01 8.4697203186e+01 1.0566000000e-01 0.0000e+00 -1.0000e+00
       13  1    4    4    0    0 +1.5324339024e+00 +4.6423635767e+00 -5.0273130523e+01 5.0510382199e+01 1.0566000000e-01 0.0000e+00 -1.0000e+00
      -13  1    4    4    0    0 -6.8664305996e+00 +5.2206445581e+00 -1.8600840362e+00 8.8246289123e+00 1.0566000000e-01 0.0000e+00 1.0000e+00
      -14  1    4    4    0    0 -5.1343104105e+00 +9.3760984300e-01 -1.0220009545e+01 1.1475576269e+01 0.0000000000e+00 0.0000e+00 1.0000e+00
<mgrwt>
<rscale>  0 0.54341440E+02</rscale>
<asrwt>0</asrwt>
<pdfrwt beam="1">  1        1 0.23170141E-01 0.54341440E+02</pdfrwt>
<pdfrwt beam="2">  1       -2 0.75413119E-03 0.54341440E+02</pdfrwt>
<totfact> 0.43302136E+05</totfact>
</mgrwt>
</event>
<event>
 8      1 +5.0320763e-08 8.04301800e+01 7.81860800e-03 1.32783500e-01
       -3 -1    0    0    0  501 -0.0000000000e+00 +0.0000000000e+00 +1.0369520321e+01 1.0370012183e+01 1.0100000000e-01 0.0000e+00 1.0000e+00
        4 -1    0    0  501    0 +0.0000000000e+00 -0.0000000000e+00 -1.5591682884e+02 1.5592200106e+02 1.2700000000e+00 0.0000e+00 -1.0000e+00
       24  2    1    2    0    0 +3.5527136788e-15 +0.0000000000e+00 -1.4554730852e+02 1.6629201325e+02 8.0430184958e+01 0.0000e+00 0.0000e+00
       66  2    3    3    0    0 +2.1142202849e+01 -1.8146093530e+01 -1.2538409364e+02 1.3189957440e+02 3.0000888935e+01 0.0000e+00 0.0000e+00
      -13  1    3    3    0    0 -2.1142202849e+01 +1.8146093530e+01 -2.0163214883e+01 3.4392438851e+01 1.0566000000e-01 0.0000e+00 1.0000e+00
       13  1    4    4    0    0 +9.3596339743e+00 -3.0503888523e-01 -5.3740207647e+01 5.4550131795e+01 1.0566000000e-01 0.0000e+00 -1.0000e+00
      -13  1    4    4    0    0 -5.0281578046e+00 -8.1336939787e+00 -2.7847375956e+01 2.9443621725e+01 1.0566000000e-01 0.0000e+00 1.0000e+00
      -14  1    4    4    0    0 +1.6810726679e+01 -9.7073606663e+00 -4.3796510034e+01 4.7905820876e+01 0.0000000000e+00 0.0000e+00 1.0000e+00
<mgrwt>
<rscale>  0 0.80430185E+02</rscale>
<asrwt>0</asrwt>
<pdfrwt beam="1">  1        4 0.23993581E-01 0.80430185E+02</pdfrwt>
<pdfrwt beam="2">  1       -3 0.15953514E-02 0.80430185E+02</pdfrwt>
<totfact> 0.35437329E+04</totfact>
</mgrwt>
</event>
<event>
 8      1 +5.0320763e-08 8.06149400e+01 7.81860800e-03 1.32731500e-01
        2 -1    0    0  501    0 +0.0000000000e+00 +0.0000000000e+00 +3.0489712414e+00 3.0489723077e+00 2.5500000000e-03 0.0000e+00 -1.0000e+00
       -1 -1    0    0    0  501 -0.0000000000e+00 -0.0000000000e+00 -5.3286559862e+02 5.3286559864e+02 5.0400000000e-03 0.0000e+00 1.0000e+00
       24  2    1    2    0    0 +0.0000000000e+00 +7.1054273576e-15 -5.2981662738e+02 5.3591457095e+02 8.0614940993e+01 0.0000e+00 0.0000e+00
       66  2    3    3    0    0 +2.9137155601e+01 +1.8283272214e+01 -3.3318881478e+02 3.3630054406e+02 3.0000296050e+01 0.0000e+00 0.0000e+00
      -13  1    3    3    0    0 -2.9137155601e+01 -1.8283272214e+01 -1.9662781260e+02 1.9961402689e+02 1.0566000000e-01 0.0000e+00 1.0000e+00
       13  1    4    4    0    0 +1.8699359835e+01 +8.3324083115e-01 -1.1712844475e+02 1.1861468746e+02 1.0566000000e-01 0.0000e+00 -1.0000e+00
      -13  1    4    4    0    0 +1.0901363021e+01 +2.0608719161e+01 -1.9391829555e+02 1.9531481136e+02 1.0566000000e-01 0.0000e+00 1.0000e+00
      -14  1    4    4    0    0 -4.6356725511e-01 -3.1586877783e+00 -2.2142074480e+01 2.2371045245e+01 0.0000000000e+00 0.0000e+00 1.0000e+00
<mgrwt>
<rscale>  0 0.80614941E+02</rscale>
<asrwt>0</asrwt>
<pdfrwt beam="1">  1        2 0.46907301E-03 0.80614941E+02</pdfrwt>
<pdfrwt beam="2">  1       -1 0.81979249E-01 0.80614941E+02</pdfrwt>
<totfact> 0.62860077E+04</totfact>
</mgrwt>
</event>
<event>
 8      1 +5.0320763e-08 8.08574700e+01 7.81860800e-03 1.32663600e-01
       -1 -1    0    0    0  501 -0.0000000000e+00 +0.0000000000e+00 +8.8299030164e+00 8.8299044548e+00 5.0400000000e-03 0.0000e+00 1.0000e+00
        2 -1    0    0  501    0 +0.0000000000e+00 -0.0000000000e+00 -1.8510761922e+02 1.8510761924e+02 2.5500000000e-03 0.0000e+00 -1.0000e+00
       24  2    1    2    0    0 +0.0000000000e+00 -1.1102230246e-15 -1.7627771621e+02 1.9393752369e+02 8.0857466359e+01 0.0000e+00 0.0000e+00
       66  2    3    3    0    0 -2.2789243623e+01 +1.3207007357e+00 -1.6347282161e+02 1.6776367482e+02 3.0003221630e+01 0.0000e+00 0.0000e+00
      -13  1    3    3    0    0 +2.2789243623e+01 -1.3207007357e+00 -1.2804894596e+01 2.6173848876e+01 1.0566000000e-01 0.0000e+00 1.0000e+00
       13  1    4    4    0    0 -6.8701051335e+00 -4.6780436760e+00 -4.5927756277e+01 4.6673894179e+01 1.0566000000e-01 0.0000e+00 -1.0000e+00
      -13  1    4    4    0    0 +1.4406591848e+00 -3.9917950176e+00 -4.1403858653e+00 5.9299144596e+00 1.0566000000e-01 0.0000e+00 1.0000e+00
       14  1    4    4    0    0 -1.7359797674e+01 +9.9905394294e+00 -1.1340467947e+02 1.1515986618e+02 0.0000000000e+00 0.0000e+00 -1.0000e+00
<mgrwt>
<rscale>  0 0.80857466E+02</rscale>
<asrwt>0</asrwt>
<pdfrwt beam="1">  1        2 0.28478092E-01 0.80857466E+02</pdfrwt>
<pdfrwt beam="2">  1       -1 0.13584469E-02 0.80857466E+02</pdfrwt>
<totfact> 0.20881237E+05</totfact>
</mgrwt>
</event>
<event>
 8      1 +5.0320763e-08 7.97924200e+01 7.81860800e-03 1.32964200e-01
        2 -1    0    0  501    0 +0.0000000000e+00 +0.0000000000e+00 +1.1116384376e+02 1.1116384379e+02 2.5500000000e-03 0.0000e+00 -1.0000e+00
       -1 -1    0    0    0  501 -0.0000000000e+00 -0.0000000000e+00 -1.4318571929e+01 1.4318572816e+01 5.0400000000e-03 0.0000e+00 1.0000e+00
       24  2    1    2    0    0 +0.0000000000e+00 -1.7763568394e-15 +9.6845271829e+01 1.2548241660e+02 7.9792419445e+01 0.0000e+00 0.0000e+00
       66  2    3    3    0    0 +2.0399394117e+01 +8.6480400631e+00 +9.6355245683e+01 1.0331994456e+02 2.9995894661e+01 0.0000e+00 0.0000e+00
      -13  1    3    3    0    0 -2.0399394117e+01 -8.6480400631e+00 +4.9002614574e-01 2.2162472040e+01 1.0566000000e-01 0.0000e+00 1.0000e+00
       13  1    4    4    0    0 +5.7443796802e+00 -4.6038577255e-01 +4.7783178307e+01 4.8129545459e+01 1.0566000000e-01 0.0000e+00 -1.0000e+00
      -13  1    4    4    0    0 -4.1970193369e+00 -1.3489264269e+00 +1.1341982851e+01 1.2169071980e+01 1.0566000000e-01 0.0000e+00 1.0000e+00
      -14  1    4    4    0    0 +1.8852033774e+01 +1.0457352262e+01 +3.7230084525e+01 4.3021327124e+01 0.0000000000e+00 0.0000e+00 1.0000e+00
<mgrwt>
<rscale>  0 0.79792419E+02</rscale>
<asrwt>0</asrwt>
<pdfrwt beam="1">  1        2 0.17102130E-01 0.79792419E+02</pdfrwt>
<pdfrwt beam="2">  1       -1 0.22028572E-02 0.79792419E+02</pdfrwt>
<totfact> 0.18396789E+05</totfact>
</mgrwt>
</event>
<event>
 8      1 +5.0320763e-08 8.08617800e+01 7.81860800e-03 1.32662300e-01
       -2 -1    0    0    0  501 -0.0000000000e+00 +0.0000000000e+00 +9.4317542799e+02 9.4317542799e+02 2.5500000000e-03 0.0000e+00 1.0000e+00
        1 -1    0    0  501    0 +0.0000000000e+00 -0.0000000000e+00 -1.7331383343e+00 1.7331456625e+00 5.0400000000e-03 0.0000e+00 -1.0000e+00
      -24  2    1    2    0    0 -3.5527136788e-15 -1.7763568394e-15 +9.4144228965e+02 9.4490857365e+02 8.0861782174e+01 0.0000e+00 0.0000e+00
       66  2    3    3    0    0 +2.0665806008e+01 +1.2202256868e+01 +8.3105315237e+02 8.3194068705e+02 2.9999901429e+01 0.0000e+00 0.0000e+00
       13  1    3    3    0    0 -2.0665806008e+01 -1.2202256868e+01 +1.1038913728e+02 1.1296788660e+02 1.0566000000e-01 0.0000e+00 -1.0000e+00
       13  1    4    4    0    0 -2.3061622330e+00 -2.9232641753e+00 +1.2180336367e+02 1.2186030700e+02 1.0566000000e-01 0.0000e+00 -1.0000e+00
      -13  1    4    4    0    0 +5.2813555616e+00 -2.3340356831e+00 +3.1217889307e+02 3.1223230595e+02 1.0566000000e-01 0.0000e+00 1.0000e+00
       14  1    4    4    0    0 +1.7690612679e+01 +1.7459556727e+01 +3.9707089564e+02 3.9784807410e+02 0.0000000000e+00 0.0000e+00 -1.0000e+00
<mgrwt>
<rscale>  0 0.80861782E+02</rscale>
<asrwt>0</asrwt>
<pdfrwt beam="1">  1        1 0.26663671E-03 0.80861782E+02</pdfrwt>
<pdfrwt beam="2">  1       -2 0.14510419E+00 0.80861782E+02</pdfrwt>
<totfact> 0.27118454E+04</totfact>
</mgrwt>
</event>
<event>
 8      1 +5.0320763e-08 7.82090400e+01 7.81860800e-03 1.33421200e-01
        1 -1    0    0  501    0 +0.0000000000e+00 +0.0000000000e+00 +1.3477692318e+02 1.3477692328e+02 5.0400000000e-03 0.0000e+00 -1.0000e+00
       -4 -1    0    0    0  501 -0.0000000000e+00 -0.0000000000e+00 -1.1307345848e+01 1.1378443220e+01 1.2700000000e+00 0.0000e+00 1.0000e+00
      -24  2    1    2    0    0 -2.9143354396e-16 +7.1054273576e-15 +1.2346957734e+02 1.4615536650e+02 7.8209044418e+01 0.0000e+00 0.0000e+00
       66  2    3    3    0    0 +2.8019425249e-02 -3.1880409686e+01 +5.2518835182e+01 6.8371176055e+01 3.0000472653e+01 0.0000e+00 0.0000e+00
       13  1    3    3    0    0 -2.8019425249e-02 +3.1880409686e+01 +7.0950742154e+01 7.7784190444e+01 1.0566000000e-01 0.0000e+00 -1.0000e+00
       13  1    4    4    0    0 +2.7140803932e+00 -9.1497919634e-02 +9.6553684797e-05 2.7176770034e+00 1.0566000000e-01 0.0000e+00 -1.0000e+00
      -13  1    4    4    0    0 +7.8626264584e-01 -3.1899326544e+01 +3.3288778222e+01 4.6112245255e+01 1.0566000000e-01 0.0000e+00 1.0000e+00
       14  1    4    4    0    0 -3.4723236138e+00 +1.1041477767e-01 +1.9229960406e+01 1.9541253796e+01 0.0000000000e+00 0.0000e+00 -1.0000e+00
<mgrwt>
<rscale>  0 0.78209044E+02</rscale>
<asrwt>0</asrwt>
<pdfrwt beam="1">  1        1 0.20734912E-01 0.78209044E+02</pdfrwt>
<pdfrwt beam="2">  1       -4 0.17455209E-02 0.78209044E+02</pdfrwt>
<totfact> 0.11351025E+05</totfact>
</mgrwt>
</event>
<event>
 8      1 +5.0320763e-08 8.13043200e+01 7.81860800e-03 1.32539000e-01
       -2 -1    0    0    0  501 -0.0000000000e+00 +0.0000000000e+00 +3.6134047973e+00 3.6134056971e+00 2.5500000000e-03 0.0000e+00 1.0000e+00
        1 -1    0    0  501    0 +0.0000000000e+00 -0.0000000000e+00 -4.5735204763e+02 4.5735204766e+02 5.0400000000e-03 0.0000e+00 -1.0000e+00
      -24  2    1    2    0    0 +0.0000000000e+00 +0.0000000000e+00 -4.5373864283e+02 4.6096545336e+02 8.1304324528e+01 0.0000e+00 0.0000e+00
       66  2    3    3    0    0 +9.4750559164e+00 -2.9869586251e+01 -3.4762037298e+02 3.5031705876e+02 3.0002484481e+01 0.0000e+00 0.0000e+00
       13  1    3    3    0    0 -9.4750559164e+00 +2.9869586251e+01 -1.0611826985e+02 1.1064839460e+02 1.0566000000e-01 0.0000e+00 -1.0000e+00
       13  1    4    4    0    0 -2.8883238176e+00 +1.5028951491e+00 -1.9531066114e+01 1.9800879169e+01 1.0566000000e-01 0.0000e+00 -1.0000e+00
      -13  1    4    4    0    0 +1.0387164631e+01 -2.1015986983e+01 -1.2666635796e+02 1.2881747669e+02 1.0566000000e-01 0.0000e+00 1.0000e+00
       14  1    4    4    0    0 +1.9762151035e+00 -1.0356494417e+01 -2.0142294891e+02 2.0169870289e+02 0.0000000000e+00 0.0000e+00 -1.0000e+00
<mgrwt>
<rscale>  0 0.81304325E+02</rscale>
<asrwt>0</asrwt>
<pdfrwt beam="1">  1        1 0.70361808E-01 0.81304325E+02</pdfrwt>
<pdfrwt beam="2">  1       -2 0.55590886E-03 0.81304325E+02</pdfrwt>
<totfact> 0.18578777E+05</totfact>
</mgrwt>
</event>
<event>
 8      1 +5.0320763e-08 8.10561300e+01 7.81860800e-03 1.32608100e-01
        2 -1    0    0  501    0 +0.0000000000e+00 +0.0000000000e+00 +9.1580440800e+02 9.1580440800e+02 2.5500000000e-03 0.0000e+00 -1.0000e+00
       -1 -1    0    0    0  501 -0.0000000000e+00 -0.0000000000e+00 -1.7935278984e+00 1.7935349798e+00 5.0400000000e-03 0.0000e+00 1.0000e+00
       24  2    1    2    0    0 +3.3306690739e-16 +3.5527136788e-15 +9.1401088010e+02 9.1759794298e+02 8.1056128844e+01 0.0000e+00 0.0000e+00
       66  2    3    3    0    0 -4.6626725037e-01 -2.8666606871e+01 +7.4639821557e+02 7.4755086648e+02 3.0000166703e+01 0.0000e+00 0.0000e+00
      -13  1    3    3    0    0 +4.6626725037e-01 +2.8666606871e+01 +1.6761266452e+02 1.7004707650e+02 1.0566000000e-01 0.0000e+00 1.0000e+00
       13  1    4    4    0    0 +3.8228045592e-01 -1.3925266985e+01 +4.6165439927e+02 4.6186454154e+02 1.0566000000e-01 0.0000e+00 -1.0000e+00
      -13  1    4    4    0    0 -8.1285741381e+00 -4.4456027970e+00 +7.6127718056e+01 7.6689488994e+01 1.0566000000e-01 0.0000e+00 1.0000e+00
      -14  1    4    4    0    0 +7.2800264319e+00 -1.0295737089e+01 +2.0861609824e+02 2.0899683594e+02 0.0000000000e+00 0.0000e+00 1.0000e+00
<mgrwt>
<rscale>  0 0.81056129E+02</rscale>
<asrwt>0</asrwt>
<pdfrwt beam="1">  1        2 0.14089322E+00 0.81056129E+02</pdfrwt>
<pdfrwt beam="2">  1       -1 0.27592746E-03 0.81056129E+02</pdfrwt>
<totfact> 0.33837463E+05</totfact>
</mgrwt>
</event>
<event>
 8      1 +5.0320763e-08 7.96432100e+01 7.81860800e-03 1.33006700e-01
        1 -1    0    0  501    0 +0.0000000000e+00 +0.0000000000e+00 +2.3247577848e+01 2.3247578395e+01 5.0400000000e-03 0.0000e+00 -1.0000e+00
       -2 -1    0    0    0  501 -0.0000000000e+00 -0.0000000000e+00 -6.8211852337e+01 6.8211852384e+01 2.5500000000e-03 0.0000e+00 1.0000e+00
      -24  2    1    2    0    0 +0.0000000000e+00 +0.0000000000e+00 -4.4964274488e+01 9.1459430779e+01 7.9643213761e+01 0.0000e+00 0.0000e+00
       66  2    3    3    0    0 -8.2909869077e+00 +3.3035225650e+01 -2.8841879724e+01 5.3776419028e+01 2.9999710330e+01 0.0000e+00 0.0000e+00
       13  1    3    3    0    0 +8.2909869077e+00 -3.3035225650e+01 -1.6122394764e+01 3.7683011751e+01 1.0566000000e-01 0.0000e+00 -1.0000e+00
       13  1    4    4    0    0 -1.4643288062e+00 +1.8171336185e+01 -1.8709873097e+01 2.6123021130e+01 1.0566000000e-01 0.0000e+00 -1.0000e+00
      -13  1    4    4    0    0 -1.0473319109e+01 +1.7934092646e+01 -9.5225860638e+00 2.2847601659e+01 1.0566000000e-01 0.0000e+00 1.0000e+00
       14  1    4    4    0    0 +3.6466610072e+00 -3.0702031815e+00 -6.0942056399e-01 4.8057962400e+00 0.0000000000e+00 0.0000e+00 -1.0000e+00
<mgrwt>
<rscale>  0 0.79643214E+02</rscale>
<asrwt>0</asrwt>
<pdfrwt beam="1">  1        1 0.35765505E-02 0.79643214E+02</pdfrwt>
<pdfrwt beam="2">  1       -2 0.10494131E-01 0.79643214E+02</pdfrwt>
<totfact> 0.11682415E+05</totfact>
</mgrwt>
</event>
<event>
 8      1 +5.0320763e-08 7.96634600e+01 7.81860800e-03 1.33000900e-01
       -1 -1    0    0    0  501 -0.0000000000e+00 +0.0000000000e+00 +1.6893709044e+01 1.6893709796e+01 5.0400000000e-03 0.0000e+00 1.0000e+00
        2 -1    0    0  501    0 +0.0000000000e+00 -0.0000000000e+00 -9.3914653949e+01 9.3914653983e+01 2.5500000000e-03 0.0000e+00 -1.0000e+00
       24  2    1    2    0    0 +0.0000000000e+00 +0.0000000000e+00 -7.7020944904e+01 1.1080836378e+02 7.9663464208e+01 0.0000e+00 0.0000e+00
       66  2    3    3    0    0 +1.8683650807e+01 +3.4746042285e+00 -8.3495341841e+01 9.0731494956e+01 2.9993005614e+01 0.0000e+00 0.0000e+00
      -13  1    3    3    0    0 -1.8683650807e+01 -3.4746042285e+00 +6.4743969368e+00 2.0076868824e+01 1.0566000000e-01 0.0000e+00 1.0000e+00
       13  1    4    4    0    0 +1.3050418869e+01 +5.2412582086e+00 -3.8633546164e+01 4.1113820955e+01 1.0566000000e-01 0.0000e+00 -1.0000e+00
      -13  1    4    4    0    0 +1.0441312346e+01 -8.0783219263e+00 -2.9812401254e+01 3.2604765315e+01 1.0566000000e-01 0.0000e+00 1.0000e+00
      -14  1    4    4    0    0 -4.8080804080e+00 +6.3116679461e+00 -1.5049394423e+01 1.7012908686e+01 0.0000000000e+00 0.0000e+00 1.0000e+00
<mgrwt>
<rscale>  0 0.79663464E+02</rscale>
<asrwt>0</asrwt>
<pdfrwt beam="1">  1        2 0.14448408E-01 0.79663464E+02</pdfrwt>
<pdfrwt beam="2">  1       -1 0.25990323E-02 0.79663464E+02</pdfrwt>
<totfact> 0.17618789E+05</totfact>
</mgrwt>
</event>
<event>
 8      1 +5.0320763e-08 8.03232300e+01 7.81860800e-03 1.32813700e-01
       -2 -1    0    0    0  501 -0.0000000000e+00 +0.0000000000e+00 +6.2234694209e+01 6.2234694261e+01 2.5500000000e-03 0.0000e+00 1.0000e+00
        1 -1    0    0  501    0 +0.0000000000e+00 -0.0000000000e+00 -2.5917303496e+01 2.5917303986e+01 5.0400000000e-03 0.0000e+00 -1.0000e+00
      -24  2    1    2    0    0 +7.1054273576e-15 +0.0000000000e+00 +3.6317390713e+01 8.8151998247e+01 8.0323234040e+01 0.0000e+00 0.0000e+00
       66  2    3    3    0    0 +2.5877669880e+01 +1.6772382103e+01 +3.7813537603e+01 5.7277798348e+01 2.9998599262e+01 0.0000e+00 0.0000e+00
       13  1    3    3    0    0 -2.5877669880e+01 -1.6772382103e+01 -1.4961468903e+00 3.0874199899e+01 1.0566000000e-01 0.0000e+00 -1.0000e+00
       13  1    4    4    0    0 +1.3703908517e+01 +2.7884723494e+00 +5.6486637979e+00 1.5082813180e+01 1.0566000000e-01 0.0000e+00 -1.0000e+00
      -13  1    4    4    0    0 -8.2946205230e-02 +1.0921308665e+00 -2.7763141156e+00 2.9864216056e+00 1.0566000000e-01 0.0000e+00 1.0000e+00
      -14  1    4    4    0    0 +1.2256707569e+01 +1.2891778887e+01 +3.4941187921e+01 3.9208563562e+01 0.0000000000e+00 0.0000e+00 1.0000e+00
<mgrwt>
<rscale>  0 0.80323234E+02</rscale>
<asrwt>0</asrwt>
<pdfrwt beam="1">  1        1 0.39872775E-02 0.80323234E+02</pdfrwt>
<pdfrwt beam="2">  1       -2 0.95745684E-02 0.80323234E+02</pdfrwt>
<totfact> 0.11638369E+05</totfact>
</mgrwt>
</event>
<event>
 8      1 +5.0320763e-08 7.97588300e+01 7.81860800e-03 1.32973700e-01
       -3 -1    0    0    0  501 -0.0000000000e+00 +0.0000000000e+00 +6.7638151995e+01 6.7638227404e+01 1.0100000000e-01 0.0000e+00 1.0000e+00
        4 -1    0    0  501    0 +0.0000000000e+00 -0.0000000000e+00 -2.3489713319e+01 2.3524020316e+01 1.2700000000e+00 0.0000e+00 -1.0000e+00
       24  2    1    2    0    0 +8.8817841970e-16 +1.7763568394e-15 +4.4148438676e+01 9.1162247719e+01 7.9758828801e+01 0.0000e+00 0.0000e+00
       66  2    3    3    0    0 +7.0961103554e+00 -8.4077983184e+00 -1.1860275538e+01 3.4083065116e+01 2.9999055604e+01 0.0000e+00 0.0000e+00
      -13  1    3    3    0    0 -7.0961103554e+00 +8.4077983184e+00 +5.6008714214e+01 5.7079182603e+01 1.0566000000e-01 0.0000e+00 1.0000e+00
       13  1    4    4    0    0 -1.1139314176e-01 +5.9964893195e+00 -1.1994596874e+00 6.1172019885e+00 1.0566000000e-01 0.0000e+00 -1.0000e+00
      -13  1    4    4    0    0 -3.2586015299e+00 -3.5296355026e-01 +3.9631152326e+00 5.1439783807e+00 1.0566000000e-01 0.0000e+00 1.0000e+00
      -14  1    4    4    0    0 +1.0466105027e+01 -1.4051324088e+01 -1.4623931083e+01 2.2821884746e+01 0.0000000000e+00 0.0000e+00 1.0000e+00
<mgrwt>
<rscale>  0 0.79758829E+02</rscale>
<asrwt>0</asrwt>
<pdfrwt beam="1">  1        4 0.36173580E-02 0.79758829E+02</pdfrwt>
<pdfrwt beam="2">  1       -3 0.10405892E-01 0.79758829E+02</pdfrwt>
<totfact> 0.44976499E+04</totfact>
</mgrwt>
</event>
<event>
 8      1 +5.0320763e-08 7.28077800e+01 7.81860800e-03 1.35079700e-01
        4 -1    0    0  501    0 +0.0000000000e+00 +0.0000000000e+00 +2.0261287549e+01 2.0301051036e+01 1.2700000000e+00 0.0000e+00 -1.0000e+00
       -3 -1    0    0    0  501 -0.0000000000e+00 -0.0000000000e+00 -6.5323487485e+01 6.5323565566e+01 1.0100000000e-01 0.0000e+00 1.0000e+00
       24  2    1    2    0    0 -3.5527136788e-15 +1.7763568394e-15 -4.5062199936e+01 8.5624616601e+01 7.2807781899e+01 0.0000e+00 0.0000e+00
       66  2    3    3    0    0 -2.5605344649e+01 +1.2972341324e+01 -1.5228923801e+01 4.4224727193e+01 2.9999851019e+01 0.0000e+00 0.0000e+00
      -13  1    3    3    0    0 +2.5605344649e+01 -1.2972341324e+01 -2.9833276135e+01 4.1399889408e+01 1.0566000000e-01 0.0000e+00 1.0000e+00
       13  1    4    4    0    0 -1.2479282104e+01 +1.4701466673e+01 -9.6537557076e+00 2.1565522657e+01 1.0566000000e-01 0.0000e+00 -1.0000e+00
      -13  1    4    4    0    0 -1.4216173004e+01 -6.7471827363e+00 -7.1548594700e+00 1.7286619907e+01 1.0566000000e-01 0.0000e+00 1.0000e+00
      -14  1    4    4    0    0 +1.0901104584e+00 +5.0180573869e+00 +1.5796913769e+00 5.3725846290e+00 0.0000000000e+00 0.0000e+00 1.0000e+00
<mgrwt>
<rscale>  0 0.72807782E+02</rscale>
<asrwt>0</asrwt>
<pdfrwt beam="1">  1        4 0.31211296E-02 0.72807782E+02</pdfrwt>
<pdfrwt beam="2">  1       -3 0.10049793E-01 0.72807782E+02</pdfrwt>
<totfact> 0.58115640E+04</totfact>
</mgrwt>
</event>
<event>
 8      1 +5.0320763e-08 8.13905200e+01 7.81860800e-03 1.32515100e-01
       -2 -1    0    0    0  501 -0.0000000000e+00 +0.0000000000e+00 +3.2732347970e+01 3.2732348069e+01 2.5500000000e-03 0.0000e+00 1.0000e+00
        1 -1    0    0  501    0 +0.0000000000e+00 -0.0000000000e+00 -5.0595338161e+01 5.0595338412e+01 5.0400000000e-03 0.0000e+00 -1.0000e+00
      -24  2    1    2    0    0 -2.2204460493e-16 +3.5527136788e-15 -1.7862990191e+01 8.3327686481e+01 8.1390521044e+01 0.0000e+00 0.0000e+00
       66  2    3    3    0    0 -4.2066233571e-01 -1.5978447291e+01 -4.2214039846e+01 5.4199134887e+01 3.0000555457e+01 0.0000e+00 0.0000e+00
       13  1    3    3    0    0 +4.2066233571e-01 +1.5978447291e+01 +2.4351049656e+01 2.9128551594e+01 1.0566000000e-01 0.0000e+00 -1.0000e+00
       13  1    4    4    0    0 -2.1276853776e+00 +3.0185787220e-01 -8.2197711713e-01 2.3032528428e+00 1.0566000000e-01 0.0000e+00 -1.0000e+00
      -13  1    4    4    0    0 +7.8436928604e+00 -8.7991522930e-01 -3.1752641210e+01 3.2719094675e+01 1.0566000000e-01 0.0000e+00 1.0000e+00
      -14  1    4    4    0    0 -6.1366698185e+00 -1.5400389934e+01 -9.6394215188e+00 1.9176787369e+01 0.0000000000e+00 0.0000e+00 1.0000e+00
<mgrwt>
<rscale>  0 0.81390521E+02</rscale>
<asrwt>0</asrwt>
<pdfrwt beam="1">  1        1 0.77838983E-02 0.81390521E+02</pdfrwt>
<pdfrwt beam="2">  1       -2 0.50357458E-02 0.81390521E+02</pdfrwt>
<totfact> 0.12564162E+05</totfact>
</mgrwt>
</event>
<event>
 8      1 +5.0320763e-08 7.99073600e+01 7.81860800e-03 1.32931500e-01
        3 -1    0    0  501    0 +0.0000000000e+00 +0.0000000000e+00 +1.0158805701e+01 1.0159307765e+01 1.0100000000e-01 0.0000e+00 -1.0000e+00
       -4 -1    0    0    0  501 -0.0000000000e+00 -0.0000000000e+00 -1.5708789563e+02 1.5709302930e+02 1.2700000000e+00 0.0000e+00 1.0000e+00
      -24  2    1    2    0    0 +1.7763568394e-15 +3.5527136788e-15 -1.4692908993e+02 1.6725233706e+02 7.9907363773e+01 0.0000e+00 0.0000e+00
       66  2    3    3    0    0 +9.6670196459e+00 +3.1634285088e+01 -1.0298125738e+02 1.1224686087e+02 3.0000652334e+01 0.0000e+00 0.0000e+00
       13  1    3    3    0    0 -9.6670196459e+00 -3.1634285088e+01 -4.3947832545e+01 5.5005476193e+01 1.0566000000e-01 0.0000e+00 -1.0000e+00
       13  1    4    4    0    0 -2.0362713731e+00 -2.3855967718e+00 -2.8034855567e+00 4.2081074564e+00 1.0566000000e-01 0.0000e+00 -1.0000e+00
      -13  1    4    4    0    0 +9.2820259334e+00 +3.4588188350e+01 -9.9016818739e+01 1.0529406601e+02 1.0566000000e-01 0.0000e+00 1.0000e+00
      -14  1    4    4    0    0 +2.4212650856e+00 -5.6830649021e-01 -1.1609530878e+00 2.7446874055e+00 0.0000000000e+00 0.0000e+00 1.0000e+00
<mgrwt>
<rscale>  0 0.79907364E+02</rscale>
<asrwt>0</asrwt>
<pdfrwt beam="1">  1        3 0.15629345E-02 0.79907364E+02</pdfrwt>
<pdfrwt beam="2">  1       -4 0.24173867E-01 0.79907364E+02</pdfrwt>
<totfact> 0.35971782E+04</totfact>
</mgrwt>
</event>
<event>
 8      1 +5.0320763e-08 8.15076500e+01 7.81860800e-03 1.32482700e-01
        4 -1    0    0  501    0 +0.0000000000e+00 +0.0000000000e+00 +3.4546877916e+01 3.4570213678e+01 1.2700000000e+00 0.0000e+00 -1.0000e+00
       -3 -1    0    0    0  501 -0.0000000000e+00 -0.0000000000e+00 -4.8047935766e+01 4.8048041921e+01 1.0100000000e-01 0.0000e+00 1.0000e+00
       24  2    1    2    0    0 -3.5527136788e-15 -1.7763568394e-15 -1.3501057850e+01 8.2618255599e+01 8.1507653599e+01 0.0000e+00 0.0000e+00
       66  2    3    3    0    0 -1.5432695042e+01 +1.0447823021e+01 +2.2642818313e+01 4.1952348130e+01 2.9999620170e+01 0.0000e+00 0.0000e+00
      -13  1    3    3    0    0 +1.5432695042e+01 -1.0447823021e+01 -3.6143876163e+01 4.0665907469e+01 1.0566000000e-01 0.0000e+00 1.0000e+00
       13  1    4    4    0    0 -2.9793960502e+00 +8.7886756759e+00 +1.7714297740e+01 1.9998128147e+01 1.0566000000e-01 0.0000e+00 -1.0000e+00
      -13  1    4    4    0    0 -8.7322677568e+00 -7.4876241484e+00 +3.0719875353e+00 1.1906522877e+01 1.0566000000e-01 0.0000e+00 1.0000e+00
      -14  1    4    4    0    0 -3.7210312350e+00 +9.1467714940e+00 +1.8565330377e+00 1.0047697106e+01 0.0000000000e+00 0.0000e+00 1.0000e+00
<mgrwt>
<rscale>  0 0.81507654E+02</rscale>
<asrwt>0</asrwt>
<pdfrwt beam="1">  1        4 0.53179904E-02 0.81507654E+02</pdfrwt>
<pdfrwt beam="2">  1       -3 0.73920096E-02 0.81507654E+02</pdfrwt>
<totfact> 0.42859017E+04</totfact>
</mgrwt>
</event>
<event>
 8      1 +5.0320763e-08 8.07490200e+01 7.81860800e-03 1.32693900e-01
       -4 -1    0    0    0  501 -0.0000000000e+00 +0.0000000000e+00 +3.4499230089e+01 3.4522598059e+01 1.2700000000e+00 0.0000e+00 1.0000e+00
        3 -1    0    0  501    0 +0.0000000000e+00 -0.0000000000e+00 -4.7222555687e+01 4.7222663697e+01 1.0100000000e-01 0.0000e+00 -1.0000e+00
      -24  2    1    2    0    0 +0.0000000000e+00 +0.0000000000e+00 -1.2723325598e+01 8.1745261756e+01 8.0749023556e+01 0.0000e+00 0.0000e+00
       66  2    3    3    0    0 +2.9378547492e+01 +1.7325660063e+01 -2.3567088771e-01 4.5424052613e+01 3.0000191095e+01 0.0000e+00 0.0000e+00
       13  1    3    3    0    0 -2.9378547492e+01 -1.7325660063e+01 -1.2487654711e+01 3.6321209142e+01 1.0566000000e-01 0.0000e+00 -1.0000e+00
       13  1    4    4    0    0 +1.7244265996e+00 +6.8427158373e+00 -2.7993542375e+00 7.5923616425e+00 1.0566000000e-01 0.0000e+00 -1.0000e+00
      -13  1    4    4    0    0 +1.9345355748e+01 +1.3474311254e+00 -8.5728749515e+00 2.1202917456e+01 1.0566000000e-01 0.0000e+00 1.0000e+00
      -14  1    4    4    0    0 +8.3087651440e+00 +9.1355131002e+00 +1.1136558301e+01 1.6628773515e+01 0.0000000000e+00 0.0000e+00 1.0000e+00
<mgrwt>
<rscale>  0 0.80749024E+02</rscale>
<asrwt>0</asrwt>
<pdfrwt beam="1">  1        3 0.72650283E-02 0.80749024E+02</pdfrwt>
<pdfrwt beam="2">  1       -4 0.53106850E-02 0.80749024E+02</pdfrwt>
<totfact> 0.44022215E+04</totfact>
</mgrwt>
</event>
<event>
 8      1 +5.0320763e-08 7.55572200e+01 7.81860800e-03 1.34215400e-01
       -2 -1    0    0    0  501 -0.0000000000e+00 +0.0000000000e+00 +1.1122228840e+02 1.1122228842e+02 2.5500000000e-03 0.0000e+00 1.0000e+00
        1 -1    0    0  501    0 +0.0000000000e+00 -0.0000000000e+00 -1.2832170625e+01 1.2832171614e+01 5.0400000000e-03 0.0000e+00 -1.0000e+00
      -24  2    1    2    0    0 +4.4408920985e-16 +0.0000000000e+00 +9.8390117770e+01 1.2405446004e+02 7.5557221896e+01 0.0000e+00 0.0000e+00
       66  2    3    3    0    0 +2.9416890930e+00 -9.8645411412e+00 +1.0639007434e+02 1.1101708393e+02 2.9999704991e+01 0.0000e+00 0.0000e+00
       13  1    3    3    0    0 -2.9416890930e+00 +9.8645411412e+00 -7.9999565699e+00 1.3037376109e+01 1.0566000000e-01 0.0000e+00 -1.0000e+00
       13  1    4    4    0    0 +4.4039206691e+00 -1.7717997565e+01 +5.0607826745e+01 5.3800420508e+01 1.0566000000e-01 0.0000e+00 -1.0000e+00
      -13  1    4    4    0    0 +2.2417501394e+00 +8.5368680402e+00 +3.5003511307e+01 3.6099314779e+01 1.0566000000e-01 0.0000e+00 1.0000e+00
      -14  1    4    4    0    0 -3.7039817155e+00 -6.8341161660e-01 +2.0778736288e+01 2.1117348643e+01 0.0000000000e+00 0.0000e+00 1.0000e+00
<mgrwt>
<rscale>  0 0.75557222E+02</rscale>
<asrwt>0</asrwt>
<pdfrwt beam="1">  1        1 0.19741802E-02 0.75557222E+02</pdfrwt>
<pdfrwt beam="2">  1       -2 0.17111121E-01 0.75557222E+02</pdfrwt>
<totfact> 0.11953485E+05</totfact>
</mgrwt>
</event>
<event>
 8      1 +5.0320763e-08 8.08122500e+01 7.81860800e-03 1.32676200e-01
       -2 -1    0    0    0  501 -0.0000000000e+00 +0.0000000000e+00 +3.8644180493e+01 3.8644180577e+01 2.5500000000e-03 0.0000e+00 1.0000e+00
        1 -1    0    0  501    0 +0.0000000000e+00 -0.0000000000e+00 -4.2248408035e+01 4.2248408335e+01 5.0400000000e-03 0.0000e+00 -1.0000e+00
      -24  2    1    2    0    0 -3.5527136788e-15 +0.0000000000e+00 -3.6042275415e+00 8.0892588913e+01 8.0812254546e+01 0.0000e+00 0.0000e+00
       66  2    3    3    0    0 -3.0774760238e+01 +1.2981565332e+01 +7.8585840860e+00 4.5579501812e+01 3.0002112183e+01 0.0000e+00 0.0000e+00
       13  1    3    3    0    0 +3.0774760238e+01 -1.2981565332e+01 -1.1462811627e+01 3.5313087101e+01 1.0566000000e-01 0.0000e+00 -1.0000e+00
       13  1    4    4    0    0 -1.2292558200e+01 +1.7266013213e+00 +1.3889631135e+01 1.8628503867e+01 1.0566000000e-01 0.0000e+00 -1.0000e+00
      -13  1    4    4    0    0 -1.1134284235e+01 +8.9985336410e-01 +2.7605884021e+00 1.1507129697e+01 1.0566000000e-01 0.0000e+00 1.0000e+00
       14  1    4    4    0    0 -7.3479178028e+00 +1.0355110646e+01 -8.7916354516e+00 1.5443868248e+01 0.0000000000e+00 0.0000e+00 -1.0000e+00
<mgrwt>
<rscale>  0 0.80812255E+02</rscale>
<asrwt>0</asrwt>
<pdfrwt beam="1">  1        1 0.64997551E-02 0.80812255E+02</pdfrwt>
<pdfrwt beam="2">  1       -2 0.59452586E-02 0.80812255E+02</pdfrwt>
<totfact> 0.12451547E+05</totfact>
</mgrwt>
</event>
<event>
 8      1 +5.0320763e-08 7.55545000e+01 7.81860800e-03 1.34216200e-01
       -1 -1    0    0    0  501 -0.0000000000e+00 +0.0000000000e+00 +6.1825083796e+00 6.1825104339e+00 5.0400000000e-03 0.0000e+00 1.0000e+00
        2 -1    0    0  501    0 +0.0000000000e+00 -0.0000000000e+00 -2.3083193675e+02 2.3083193676e+02 2.5500000000e-03 0.0000e+00 -1.0000e+00
       24  2    1    2    0    0 +8.8817841970e-16 -3.5527136788e-15 -2.2464942837e+02 2.3701444719e+02 7.5554500285e+01 0.0000e+00 0.0000e+00
       66  2    3    3    0    0 +2.9580155432e+00 +2.9275374715e+01 -1.6803925587e+02 1.7321381855e+02 3.0000633399e+01 0.0000e+00 0.0000e+00
      -13  1    3    3    0    0 -2.9580155432e+00 -2.9275374715e+01 -5.6610172497e+01 6.3800628640e+01 1.0566000000e-01 0.0000e+00 1.0000e+00
       13  1    4    4    0    0 -8.5822665835e+00 +2.1279244576e+01 -1.1911615226e+02 1.2130593738e+02 1.0566000000e-01 0.0000e+00 -1.0000e+00
      -13  1    4    4    0    0 +6.4604219595e+00 -1.4045036236e+00 -1.6809300101e+01 1.8063040061e+01 1.0566000000e-01 0.0000e+00 1.0000e+00
      -14  1    4    4    0    0 +5.0798601673e+00 +9.4006337632e+00 -3.2113803506e+01 3.3844841115e+01 0.0000000000e+00 0.0000e+00 1.0000e+00
<mgrwt>
<rscale>  0 0.75554500E+02</rscale>
<asrwt>0</asrwt>
<pdfrwt beam="1">  1        2 0.35512599E-01 0.75554500E+02</pdfrwt>
<pdfrwt beam="2">  1       -1 0.95115547E-03 0.75554500E+02</pdfrwt>
<totfact> 0.26954516E+05</totfact>
</mgrwt>
</event>
<event>
 8      1 +5.0320763e-08 7.99703200e+01 7.81860800e-03 1.32913600e-01
        2 -1    0    0  501    0 +0.0000000000e+00 +0.0000000000e+00 +4.2563373869e+02 4.2563373870e+02 2.5500000000e-03 0.0000e+00 -1.0000e+00
       -1 -1    0    0    0  501 -0.0000000000e+00 -0.0000000000e+00 -3.7563099813e+00 3.7563133625e+00 5.0400000000e-03 0.0000e+00 1.0000e+00
       24  2    1    2    0    0 +0.0000000000e+00 +0.0000000000e+00 +4.2187742871e+02 4.2939005206e+02 7.9970319209e+01 0.0000e+00 0.0000e+00
       66  2    3    3    0    0 -1.7069158372e+01 +2.4149730611e+01 +3.3456238687e+02 3.3720277880e+02 2.9985957797e+01 0.0000e+00 0.0000e+00
      -13  1    3    3    0    0 +1.7069158372e+01 -2.4149730611e+01 +8.7315041835e+01 9.2187273258e+01 1.0566000000e-01 0.0000e+00 1.0000e+00
       13  1    4    4    0    0 -1.2099315115e+01 +1.6638825456e+01 +2.1038200950e+02 2.1138553646e+02 1.0566000000e-01 0.0000e+00 -1.0000e+00
      -13  1    4    4    0    0 -5.8636777301e+00 +3.2235289807e+00 +1.3670632388e+01 1.5220749309e+01 1.0566000000e-01 0.0000e+00 1.0000e+00
      -14  1    4    4    0    0 +8.9383447360e-01 +4.2873761742e+00 +1.1050974498e+02 1.1059649303e+02 0.0000000000e+00 0.0000e+00 1.0000e+00
<mgrwt>
<rscale>  0 0.79970319E+02</rscale>
<asrwt>0</asrwt>
<pdfrwt beam="1">  1        2 0.65482176E-01 0.79970319E+02</pdfrwt>
<pdfrwt beam="2">  1       -1 0.57789355E-03 0.79970319E+02</pdfrwt>
<totfact> 0.28895959E+05</totfact>
</mgrwt>
</event>
<event>
 8      1 +5.0320763e-08 8.04903700e+01 7.81860800e-03 1.32766600e-01
        2 -1    0    0  501    0 +0.0000000000e+00 +0.0000000000e+00 +1.7536585317e+02 1.7536585319e+02 2.5500000000e-03 0.0000e+00 -1.0000e+00
       -1 -1    0    0    0  501 -0.0000000000e+00 -0.0000000000e+00 -9.2359761673e+00 9.2359775424e+00 5.0400000000e-03 0.0000e+00 1.0000e+00
       24  2    1    2    0    0 -1.1102230246e-16 +0.0000000000e+00 +1.6612987700e+02 1.8460183073e+02 8.0490371327e+01 0.0000e+00 0.0000e+00
       66  2    3    3    0    0 -6.1561063238e-01 +2.3125008920e+01 +1.5378170993e+02 1.5837906566e+02 2.9999485244e+01 0.0000e+00 0.0000e+00
      -13  1    3    3    0    0 +6.1561063238e-01 -2.3125008920e+01 +1.2348167069e+01 2.6222765072e+01 1.0566000000e-01 0.0000e+00 1.0000e+00
       13  1    4    4    0    0 -9.8169160741e+00 +1.4987951747e+01 +6.0601454243e+01 6.3194603878e+01 1.0566000000e-01 0.0000e+00 -1.0000e+00
      -13  1    4    4    0    0 -4.1281440312e+00 +8.8778493214e-01 +2.2665259909e+01 2.3055474535e+01 1.0566000000e-01 0.0000e+00 1.0000e+00
      -14  1    4    4    0    0 +1.3329449473e+01 +7.2492722411e+00 +7.0514995782e+01 7.2128987248e+01 0.0000000000e+00 0.0000e+00 1.0000e+00
<mgrwt>
<rscale>  0 0.80490371E+02</rscale>
<asrwt>0</asrwt>
<pdfrwt beam="1">  1        2 0.26979359E-01 0.80490371E+02</pdfrwt>
<pdfrwt beam="2">  1       -1 0.14209197E-02 0.80490371E+02</pdfrwt>
<totfact> 0.20749375E+05</totfact>
</mgrwt>
</event>
<event>
 8      1 +5.0320763e-08 8.08718200e+01 7.81860800e-03 1.32659500e-01
        1 -1    0    0  501    0 +0.0000000000e+00 +0.0000000000e+00 +9.0466963340e+01 9.0466963480e+01 5.0400000000e-03 0.0000e+00 -1.0000e+00
       -2 -1    0    0    0  501 -0.0000000000e+00 -0.0000000000e+00 -1.8073591689e+01 1.8073591869e+01 2.5500000000e-03 0.0000e+00 1.0000e+00
      -24  2    1    2    0    0 +0.0000000000e+00 -1.7763568394e-15 +7.2393371651e+01 1.0854055535e+02 8.0871823873e+01 0.0000e+00 0.0000e+00
       66  2    3    3    0    0 +2.0700033663e+01 -6.2065951537e+00 +4.4460031079e+00 3.7239298187e+01 2.9999752811e+01 0.0000e+00 0.0000e+00
       13  1    3    3    0    0 -2.0700033663e+01 +6.2065951537e+00 +6.7947368543e+01 7.1301257163e+01 1.0566000000e-01 0.0000e+00 -1.0000e+00
       13  1    4    4    0    0 +7.7967640137e+00 +8.6273499091e+00 +3.3132571301e+00 1.2091713377e+01 1.0566000000e-01 0.0000e+00 -1.0000e+00
      -13  1    4    4    0    0 +1.1685704920e+01 -1.4626719342e+01 +6.3629043940e+00 1.9773576676e+01 1.0566000000e-01 0.0000e+00 1.0000e+00
      -14  1    4    4    0    0 +1.2175647300e+00 -2.0722572064e-01 -5.2301584161e+00 5.3740081344e+00 0.0000000000e+00 0.0000e+00 1.0000e+00
<mgrwt>
<rscale>  0 0.80871824E+02</rscale>
<asrwt>0</asrwt>
<pdfrwt beam="1">  1        1 0.13917994E-01 0.80871824E+02</pdfrwt>
<pdfrwt beam="2">  1       -2 0.27805526E-02 0.80871824E+02</pdfrwt>
<totfact> 0.14037060E+05</totfact>
</mgrwt>
</event>
<event>
 8      1 +5.0320763e-08 8.11178400e+01 7.81860800e-03 1.32590900e-01
        1 -1    0    0  501    0 +0.0000000000e+00 +0.0000000000e+00 +3.5254398679e+01 3.5254399039e+01 5.0400000000e-03 0.0000e+00 -1.0000e+00
       -2 -1    0    0    0  501 -0.0000000000e+00 -0.0000000000e+00 -4.6661583184e+01 4.6661583254e+01 2.5500000000e-03 0.0000e+00 1.0000e+00
      -24  2    1    2    0    0 +0.0000000000e+00 +3.5527136788e-15 -1.1407184505e+01 8.1915982292e+01 8.1117842036e+01 0.0000e+00 0.0000e+00
       66  2    3    3    0    0 -2.4474638106e+01 -2.4828273875e+01 -9.7291858908e+00 4.7012143858e+01 3.0000558628e+01 0.0000e+00 0.0000e+00
       13  1    3    3    0    0 +2.4474638106e+01 +2.4828273875e+01 -1.6779986144e+00 3.4903838434e+01 1.0566000000e-01 0.0000e+00 -1.0000e+00
       13  1    4    4    0    0 -1.2052637977e+01 -2.9345848083e+01 -2.9659237704e+00 3.1863031082e+01 1.0566000000e-01 0.0000e+00 -1.0000e+00
      -13  1    4    4    0    0 -7.9400464799e-01 +1.2096882356e+00 -5.0709630301e-01 1.5369123932e+00 1.0566000000e-01 0.0000e+00 1.0000e+00
       14  1    4    4    0    0 -1.1627995482e+01 +3.3078859719e+00 -6.2561658174e+00 1.3612200383e+01 0.0000000000e+00 0.0000e+00 -1.0000e+00
<mgrwt>
<rscale>  0 0.81117842E+02</rscale>
<asrwt>0</asrwt>
<pdfrwt beam="1">  1        1 0.54237537E-02 0.81117842E+02</pdfrwt>
<pdfrwt beam="2">  1       -2 0.71787052E-02 0.81117842E+02</pdfrwt>
<totfact> 0.11954266E+05</totfact>
</mgrwt>
</event>
<event>
 8      1 +5.0320763e-08 7.67297700e+01 7.81860800e-03 1.33859700e-01
        1 -1    0    0  501    0 +0.0000000000e+00 +0.0000000000e+00 +1.9091630466e+01 1.9091631132e+01 5.0400000000e-03 0.0000e+00 -1.0000e+00
       -2 -1    0    0    0  501 -0.0000000000e+00 -0.0000000000e+00 -7.7094737699e+01 7.7094737741e+01 2.5500000000e-03 0.0000e+00 1.0000e+00
      -24  2    1    2    0    0 +0.0000000000e+00 +0.0000000000e+00 -5.8003107232e+01 9.6186368872e+01 7.6729766768e+01 0.0000e+00 0.0000e+00
       66  2    3    3    0    0 +3.1158797368e+00 -2.6077969162e+01 -5.7433485466e+01 6.9916522753e+01 2.9999095301e+01 0.0000e+00 0.0000e+00
       13  1    3    3    0    0 -3.1158797368e+00 +2.6077969162e+01 -5.6962176634e-01 2.6269846120e+01 1.0566000000e-01 0.0000e+00 -1.0000e+00
       13  1    4    4    0    0 +5.5746850690e+00 -9.9971798687e+00 -3.5454540767e+00 1.1983410516e+01 1.0566000000e-01 0.0000e+00 -1.0000e+00
      -13  1    4    4    0    0 -6.2882447154e+00 -1.4184355032e+01 -3.1189318627e+01 3.4835652853e+01 1.0566000000e-01 0.0000e+00 1.0000e+00
       14  1    4    4    0    0 +3.8294393832e+00 -1.8964342616e+00 -2.2698712763e+01 2.3097459384e+01 0.0000000000e+00 0.0000e+00 -1.0000e+00
<mgrwt>
<rscale>  0 0.76729767E+02</rscale>
<asrwt>0</asrwt>
<pdfrwt beam="1">  1        1 0.29371740E-02 0.76729767E+02</pdfrwt>
<pdfrwt beam="2">  1       -2 0.11860729E-01 0.76729767E+02</pdfrwt>
<totfact> 0.12526966E+05</totfact>
</mgrwt>
</event>
<event>
 8      1 +5.0320763e-08 8.01502000e+01 7.81860800e-03 1.32862600e-01
       -1 -1    0    0    0  501 -0.0000000000e+00 +0.0000000000e+00 +1.2516099104e+00 1.2516200579e+00 5.0400000000e-03 0.0000e+00 1.0000e+00
        2 -1    0    0  501    0 +0.0000000000e+00 -0.0000000000e+00 -1.2831529699e+03 1.2831529699e+03 2.5500000000e-03 0.0000e+00 -1.0000e+00
       24  2    1    2    0    0 +0.0000000000e+00 -7.1054273576e-15 -1.2819013600e+03 1.2844045900e+03 8.0150196309e+01 0.0000e+00 0.0000e+00
       66  2    3    3    0    0 -1.2863847241e+00 -2.1704541760e+01 -1.1591818122e+03 1.1597737732e+03 2.9999821541e+01 0.0000e+00 0.0000e+00
      -13  1    3    3    0    0 +1.2863847241e+00 +2.1704541760e+01 -1.2271954779e+02 1.2463081678e+02 1.0566000000e-01 0.0000e+00 1.0000e+00
       13  1    4    4    0    0 +5.5181673525e+00 -7.6764524449e+00 -1.4259447485e+02 1.4290756983e+02 1.0566000000e-01 0.0000e+00 -1.0000e+00
      -13  1    4    4    0    0 -3.0000301444e+00 -1.3753311562e+01 -3.7011171999e+02 3.7037933284e+02 1.0566000000e-01 0.0000e+00 1.0000e+00
       14  1    4    4    0    0 -3.8045219321e+00 -2.7477775390e-01 -6.4647561738e+02 6.4648687053e+02 0.0000000000e+00 0.0000e+00 -1.0000e+00
<mgrwt>
<rscale>  0 0.80150196E+02</rscale>
<asrwt>0</asrwt>
<pdfrwt beam="1">  1        2 0.19740710E+00 0.80150196E+02</pdfrwt>
<pdfrwt beam="2">  1       -1 0.19255718E-03 0.80150196E+02</pdfrwt>
<totfact> 0.34532713E+05</totfact>
</mgrwt>
</event>
<event>
 8      1 +5.0320763e-08 8.00177500e+01 7.81860800e-03 1.32900100e-01
        2 -1    0    0  501    0 +0.0000000000e+00 +0.0000000000e+00 +4.2095904394e+00 4.2095912117e+00 2.5500000000e-03 0.0000e+00 -1.0000e+00
       -1 -1    0    0    0  501 -0.0000000000e+00 -0.0000000000e+00 -3.8025315076e+02 3.8025315079e+02 5.0400000000e-03 0.0000e+00 1.0000e+00
       24  2    1    2    0    0 +0.0000000000e+00 -4.4408920985e-16 -3.7604356032e+02 3.8446274200e+02 8.0017752602e+01 0.0000e+00 0.0000e+00
       66  2    3    3    0    0 -3.4180386055e+01 -2.8065988657e+00 -2.0252382147e+02 2.0758626894e+02 2.9999750045e+01 0.0000e+00 0.0000e+00
      -13  1    3    3    0    0 +3.4180386055e+01 +2.8065988657e+00 -1.7351973885e+02 1.7687647306e+02 1.0566000000e-01 0.0000e+00 1.0000e+00
       13  1    4    4    0    0 -3.0109565199e+00 -1.1205270376e+00 -5.0003175682e+01 5.0106388638e+01 1.0566000000e-01 0.0000e+00 1.0000e+00
      -13  1    4    4    0    0 -1.9566227091e+01 -6.9990427100e+00 -4.9688942379e+01 5.3859316745e+01 1.0566000000e-01 0.0000e+00 -1.0000e+00
       14  1    4    4    0    0 -1.1603202444e+01 +5.3129708819e+00 -1.0283170341e+02 1.0362056356e+02 0.0000000000e+00 0.0000e+00 -1.0000e+00
<mgrwt>
<rscale>  0 0.80017753E+02</rscale>
<asrwt>0</asrwt>
<pdfrwt beam="1">  1        2 0.64762966E-03 0.80017753E+02</pdfrwt>
<pdfrwt beam="2">  1       -1 0.58500458E-01 0.80017753E+02</pdfrwt>
<totfact> 0.77710515E+04</totfact>
</mgrwt>
</event>
<event>
 8      1 +5.0320763e-08 8.07276200e+01 7.81860800e-03 1.32699900e-01
        2 -1    0    0  501    0 +0.0000000000e+00 +0.0000000000e+00 +1.6672960225e+02 1.6672960227e+02 2.5500000000e-03 0.0000e+00 -1.0000e+00
       -1 -1    0    0    0  501 -0.0000000000e+00 -0.0000000000e+00 -9.7717323807e+00 9.7717336804e+00 5.0400000000e-03 0.0000e+00 1.0000e+00
       24  2    1    2    0    0 +3.5527136788e-15 +8.8817841970e-16 +1.5695786987e+02 1.7650133595e+02 8.0727620293e+01 0.0000e+00 0.0000e+00
       66  2    3    3    0    0 -3.1875743913e+01 -5.3002493436e+00 +1.1749372318e+02 1.2549559381e+02 3.0003556233e+01 0.0000e+00 0.0000e+00
      -13  1    3    3    0    0 +3.1875743913e+01 +5.3002493436e+00 +3.9464146694e+01 5.1005742142e+01 1.0566000000e-01 0.0000e+00 1.0000e+00
       13  1    4    4    0    0 -2.2183103755e+01 -4.4185422363e+00 +5.7250941642e+01 6.1557250512e+01 1.0566000000e-01 0.0000e+00 -1.0000e+00
      -13  1    4    4    0    0 -8.5396458855e+00 +8.3834053278e+00 +3.7131631182e+01 3.9012513826e+01 1.0566000000e-01 0.0000e+00 1.0000e+00
      -14  1    4    4    0    0 -1.1529942726e+00 -9.2651124352e+00 +2.3111150352e+01 2.4925829471e+01 0.0000000000e+00 0.0000e+00 1.0000e+00
<mgrwt>
<rscale>  0 0.80727620E+02</rscale>
<asrwt>0</asrwt>
<pdfrwt beam="1">  1        2 0.25650709E-01 0.80727620E+02</pdfrwt>
<pdfrwt beam="2">  1       -1 0.15033435E-02 0.80727620E+02</pdfrwt>
<totfact> 0.20243471E+05</totfact>
</mgrwt>
</event>
<event>
 8      1 +5.0320763e-08 7.72551100e+01 7.81860800e-03 1.33702700e-01
        1 -1    0    0  501    0 +0.0000000000e+00 +0.0000000000e+00 +1.1454507878e+02 1.1454507889e+02 5.0400000000e-03 0.0000e+00 -1.0000e+00
       -2 -1    0    0    0  501 -0.0000000000e+00 -0.0000000000e+00 -1.3026206491e+01 1.3026206740e+01 2.5500000000e-03 0.0000e+00 1.0000e+00
      -24  2    1    2    0    0 +1.7763568394e-15 +3.5527136788e-15 +1.0151887229e+02 1.2757128563e+02 7.7255106542e+01 0.0000e+00 0.0000e+00
       66  2    3    3    0    0 -1.4426827159e+01 -2.9427438507e+01 +6.0680513148e+01 7.5208224029e+01 3.0000746770e+01 0.0000e+00 0.0000e+00
       13  1    3    3    0    0 +1.4426827159e+01 +2.9427438507e+01 +4.0838359143e+01 5.2363061604e+01 1.0566000000e-01 0.0000e+00 -1.0000e+00
       13  1    4    4    0    0 -2.5332529197e+00 -1.7999141596e+01 +1.5598572386e+01 2.3952308721e+01 1.0566000000e-01 0.0000e+00 -1.0000e+00
      -13  1    4    4    0    0 -1.0736462293e+01 -1.3244616980e+01 +4.5890538979e+01 4.8955533225e+01 1.0566000000e-01 0.0000e+00 1.0000e+00
       14  1    4    4    0    0 -1.1571119470e+00 +1.8163200690e+00 -8.0859821743e-01 2.3003820831e+00 0.0000000000e+00 0.0000e+00 -1.0000e+00
<mgrwt>
<rscale>  0 0.77255107E+02</rscale>
<asrwt>0</asrwt>
<pdfrwt beam="1">  1        1 0.17622320E-01 0.77255107E+02</pdfrwt>
<pdfrwt beam="2">  1       -2 0.20040318E-02 0.77255107E+02</pdfrwt>
<totfact> 0.16522720E+05</totfact>
</mgrwt>
</event>
<event>
 8      1 +5.0320763e-08 8.00015700e+01 7.81860800e-03 1.32904700e-01
       -2 -1    0    0    0  501 -0.0000000000e+00 +0.0000000000e+00 +1.1454734812e+01 1.1454735095e+01 2.5500000000e-03 0.0000e+00 1.0000e+00
        1 -1    0    0  501    0 +0.0000000000e+00 -0.0000000000e+00 -1.3968571976e+02 1.3968571985e+02 5.0400000000e-03 0.0000e+00 -1.0000e+00
      -24  2    1    2    0    0 +0.0000000000e+00 -7.1054273576e-15 -1.2823098495e+02 1.5114045495e+02 8.0001572613e+01 0.0000e+00 0.0000e+00
       66  2    3    3    0    0 +1.6557115012e+00 -3.3248176859e+01 -5.6979496603e+01 7.2495884883e+01 3.0013457762e+01 0.0000e+00 0.0000e+00
       13  1    3    3    0    0 -1.6557115012e+00 +3.3248176859e+01 -7.1251488346e+01 7.8644570064e+01 1.0566000000e-01 0.0000e+00 -1.0000e+00
       13  1    4    4    0    0 -2.1169337502e-01 -2.2889787631e+01 -3.5389600000e+01 4.2147623232e+01 1.0566000000e-01 0.0000e+00 -1.0000e+00
      -13  1    4    4    0    0 -2.5596217383e+00 -5.0866444294e+00 +1.7947280387e+00 5.9714175673e+00 1.0566000000e-01 0.0000e+00 1.0000e+00
       14  1    4    4    0    0 +4.4270266145e+00 -5.2717447978e+00 -2.3384624642e+01 2.4376844084e+01 0.0000000000e+00 0.0000e+00 -1.0000e+00
<mgrwt>
<rscale>  0 0.80001573E+02</rscale>
<asrwt>0</asrwt>
<pdfrwt beam="1">  1        1 0.21490110E-01 0.80001573E+02</pdfrwt>
<pdfrwt beam="2">  1       -2 0.17622670E-02 0.80001573E+02</pdfrwt>
<totfact> 0.15582941E+05</totfact>
</mgrwt>
</event>
<event>
 8      1 +5.0320763e-08 8.04788500e+01 7.81860800e-03 1.32769800e-01
        3 -1    0    0  501    0 +0.0000000000e+00 +0.0000000000e+00 +2.0649036646e+01 2.0649283654e+01 1.0100000000e-01 0.0000e+00 -1.0000e+00
       -4 -1    0    0    0  501 -0.0000000000e+00 -0.0000000000e+00 -7.8390571477e+01 7.8400858392e+01 1.2700000000e+00 0.0000e+00 1.0000e+00
      -24  2    1    2    0    0 +8.8817841970e-16 -8.8817841970e-16 -5.7741534831e+01 9.9050142045e+01 8.0478853089e+01 0.0000e+00 0.0000e+00
       66  2    3    3    0    0 -6.6846671073e+00 +7.8819615708e+00 -7.3584407193e+01 8.0134067896e+01 2.9999896051e+01 0.0000e+00 0.0000e+00
       13  1    3    3    0    0 +6.6846671073e+00 -7.8819615708e+00 +1.5842872362e+01 1.8916074150e+01 1.0566000000e-01 0.0000e+00 -1.0000e+00
       13  1    4    4    0    0 +3.3283489444e+00 -3.2579115281e+00 -3.0359557633e+01 3.0714911654e+01 1.0566000000e-01 0.0000e+00 -1.0000e+00
      -13  1    4    4    0    0 +3.3017360980e+00 +7.6212051667e+00 -2.6403832378e+01 2.7679554869e+01 1.0566000000e-01 0.0000e+00 1.0000e+00
       14  1    4    4    0    0 -1.3314752150e+01 +3.5186679323e+00 -1.6821017182e+01 2.1739601373e+01 0.0000000000e+00 0.0000e+00 -1.0000e+00
<mgrwt>
<rscale>  0 0.80478853E+02</rscale>
<asrwt>0</asrwt>
<pdfrwt beam="1">  1        3 0.31767991E-02 0.80478853E+02</pdfrwt>
<pdfrwt beam="2">  1       -4 0.12063883E-01 0.80478853E+02</pdfrwt>
<totfact> 0.41665073E+04</totfact>
</mgrwt>
</event>
<event>
 8      1 +5.0320763e-08 8.77209600e+01 7.81860800e-03 1.30846600e-01
        1 -1    0    0  501    0 +0.0000000000e+00 +0.0000000000e+00 +1.2721670362e+02 1.2721670372e+02 5.0400000000e-03 0.0000e+00 -1.0000e+00
       -4 -1    0    0    0  501 -0.0000000000e+00 -0.0000000000e+00 -1.5091930151e+01 1.5145271727e+01 1.2700000000e+00 0.0000e+00 1.0000e+00
      -24  2    1    2    0    0 -4.4408920985e-16 +0.0000000000e+00 +1.1212477347e+02 1.4236197545e+02 8.7720962305e+01 0.0000e+00 0.0000e+00
       66  2    3    3    0    0 -5.6270625512e-01 +2.0031631109e+01 +8.8316683708e+00 3.7142872581e+01 3.0000195568e+01 0.0000e+00 0.0000e+00
       13  1    3    3    0    0 +5.6270625512e-01 -2.0031631109e+01 +1.0329310510e+02 1.0521910286e+02 1.0566000000e-01 0.0000e+00 -1.0000e+00
       13  1    4    4    0    0 -6.9420321422e+00 +8.3509136056e+00 +4.4981086170e+00 1.1754731536e+01 1.0566000000e-01 0.0000e+00 -1.0000e+00
      -13  1    4    4    0    0 +2.1837380413e+00 +1.6421173153e+01 -1.6871820568e+00 1.6651768281e+01 1.0566000000e-01 0.0000e+00 1.0000e+00
      -14  1    4    4    0    0 +4.1955878457e+00 -4.7404556491e+00 +6.0207418106e+00 8.7363727646e+00 0.0000000000e+00 0.0000e+00 1.0000e+00
<mgrwt>
<rscale>  0 0.87720962E+02</rscale>
<asrwt>0</asrwt>
<pdfrwt beam="1">  1        1 0.19571801E-01 0.87720962E+02</pdfrwt>
<pdfrwt beam="2">  1       -4 0.23264261E-02 0.87720962E+02</pdfrwt>
<totfact> 0.81016754E+04</totfact>
</mgrwt>
</event>
<event>
 8      1 +5.0320763e-08 7.81670500e+01 7.81860800e-03 1.33433500e-01
        1 -1    0    0  501    0 +0.0000000000e+00 +0.0000000000e+00 +2.4639650005e+01 2.4639650520e+01 5.0400000000e-03 0.0000e+00 -1.0000e+00
       -2 -1    0    0    0  501 -0.0000000000e+00 -0.0000000000e+00 -6.1994469358e+01 6.1994469410e+01 2.5500000000e-03 0.0000e+00 1.0000e+00
      -24  2    1    2    0    0 +0.0000000000e+00 +0.0000000000e+00 -3.7354819353e+01 8.6634119930e+01 7.8167053208e+01 0.0000e+00 0.0000e+00
       66  2    3    3    0    0 -1.6164490627e+01 -1.2301790508e+01 -5.0710574387e+01 6.2323378200e+01 3.0000271811e+01 0.0000e+00 0.0000e+00
       13  1    3    3    0    0 +1.6164490627e+01 +1.2301790508e+01 +1.3355755034e+01 2.4310741730e+01 1.0566000000e-01 0.0000e+00 -1.0000e+00
       13  1    4    4    0    0 -1.8063432613e+01 -9.0737745384e+00 -1.3567434243e+01 2.4345583134e+01 1.0566000000e-01 0.0000e+00 -1.0000e+00
      -13  1    4    4    0    0 -9.8774172180e-01 -4.5087805579e+00 -2.5466721824e+01 2.5881843449e+01 1.0566000000e-01 0.0000e+00 1.0000e+00
       14  1    4    4    0    0 +2.8866837077e+00 +1.2807645888e+00 -1.1676418320e+01 1.2095951618e+01 0.0000000000e+00 0.0000e+00 -1.0000e+00
<mgrwt>
<rscale>  0 0.78167053E+02</rscale>
<asrwt>0</asrwt>
<pdfrwt beam="1">  1        1 0.37907155E-02 0.78167053E+02</pdfrwt>
<pdfrwt beam="2">  1       -2 0.95376106E-02 0.78167053E+02</pdfrwt>
<totfact> 0.12477380E+05</totfact>
</mgrwt>
</event>
<event>
 8      1 +5.0320763e-08 8.00408600e+01 7.81860800e-03 1.32893600e-01
       -3 -1    0    0    0  501 -0.0000000000e+00 +0.0000000000e+00 +3.5403552429e+01 3.5403696496e+01 1.0100000000e-01 0.0000e+00 1.0000e+00
        4 -1    0    0  501    0 +0.0000000000e+00 -0.0000000000e+00 -4.5218909899e+01 4.5236740736e+01 1.2700000000e+00 0.0000e+00 -1.0000e+00
       24  2    1    2    0    0 +0.0000000000e+00 +0.0000000000e+00 -9.8153574697e+00 8.0640437232e+01 8.0040857534e+01 0.0000e+00 0.0000e+00
       66  2    3    3    0    0 +9.5908974435e+00 -4.3073394757e+00 -3.8594501159e+01 5.0000777269e+01 3.0000062010e+01 0.0000e+00 0.0000e+00
      -13  1    3    3    0    0 -9.5908974435e+00 +4.3073394757e+00 +2.8779143690e+01 3.0639659963e+01 1.0566000000e-01 0.0000e+00 1.0000e+00
       13  1    4    4    0    0 -7.1520290548e+00 -5.9373115005e+00 -4.2720753929e+00 1.0230590386e+01 1.0566000000e-01 0.0000e+00 1.0000e+00
      -13  1    4    4    0    0 +1.2457326800e+01 +5.2272307421e+00 -1.7936121081e+01 2.2454944571e+01 1.0566000000e-01 0.0000e+00 -1.0000e+00
      -14  1    4    4    0    0 +4.2855996986e+00 -3.5972587173e+00 -1.6386304686e+01 1.7315242311e+01 0.0000000000e+00 0.0000e+00 1.0000e+00
<mgrwt>
<rscale>  0 0.80040858E+02</rscale>
<asrwt>0</asrwt>
<pdfrwt beam="1">  1        4 0.69598787E-02 0.80040858E+02</pdfrwt>
<pdfrwt beam="2">  1       -3 0.54467205E-02 0.80040858E+02</pdfrwt>
<totfact> 0.44838632E+04</totfact>
</mgrwt>
</event>
<event>
 8      1 +5.0320763e-08 8.09336500e+01 7.81860800e-03 1.32642300e-01
        2 -1    0    0  501    0 +0.0000000000e+00 +0.0000000000e+00 +2.5588682689e+02 2.5588682690e+02 2.5500000000e-03 0.0000e+00 -1.0000e+00
       -1 -1    0    0    0  501 -0.0000000000e+00 -0.0000000000e+00 -6.3995618167e+00 6.3995638013e+00 5.0400000000e-03 0.0000e+00 1.0000e+00
       24  2    1    2    0    0 -3.5527136788e-15 +0.0000000000e+00 +2.4948726507e+02 2.6228639070e+02 8.0933647606e+01 0.0000e+00 0.0000e+00
       66  2    3    3    0    0 -2.4876632800e+01 -1.7153103320e+00 +2.2104558063e+02 2.2446140258e+02 2.9999723000e+01 0.0000e+00 0.0000e+00
      -13  1    3    3    0    0 +2.4876632800e+01 +1.7153103320e+00 +2.8441684439e+01 3.7824988127e+01 1.0566000000e-01 0.0000e+00 1.0000e+00
       13  1    4    4    0    0 -8.5940367120e+00 +7.7425783321e+00 +1.6040337961e+02 1.6081996251e+02 1.0566000000e-01 0.0000e+00 -1.0000e+00
      -13  1    4    4    0    0 -1.4310230171e+01 -7.7494682385e+00 +5.5992488188e+01 5.8309577627e+01 1.0566000000e-01 0.0000e+00 1.0000e+00
       14  1    4    4    0    0 -1.9723659170e+00 -1.7084204256e+00 +4.6497128368e+00 5.3318624444e+00 0.0000000000e+00 0.0000e+00 -1.0000e+00
<mgrwt>
<rscale>  0 0.80933648E+02</rscale>
<asrwt>0</asrwt>
<pdfrwt beam="1">  1        2 0.39367196E-01 0.80933648E+02</pdfrwt>
<pdfrwt beam="2">  1       -1 0.98454834E-03 0.80933648E+02</pdfrwt>
<totfact> 0.23345116E+05</totfact>
</mgrwt>
</event>
<event>
 8      1 +5.0320763e-08 8.02627900e+01 7.81860800e-03 1.32830700e-01
       -1 -1    0    0    0  501 -0.0000000000e+00 +0.0000000000e+00 +3.2797374973e+01 3.2797375360e+01 5.0400000000e-03 0.0000e+00 1.0000e+00
        2 -1    0    0  501    0 +0.0000000000e+00 -0.0000000000e+00 -4.9105422845e+01 4.9105422911e+01 2.5500000000e-03 0.0000e+00 -1.0000e+00
       24  2    1    2    0    0 +0.0000000000e+00 +0.0000000000e+00 -1.6308047872e+01 8.1902798271e+01 8.0262792995e+01 0.0000e+00 0.0000e+00
       66  2    3    3    0    0 +7.2497496608e+00 -3.3752045856e+01 -9.7030693262e+00 4.6754592411e+01 3.0001381428e+01 0.0000e+00 0.0000e+00
      -13  1    3    3    0    0 -7.2497496608e+00 +3.3752045856e+01 -6.6049785453e+00 3.5148205860e+01 1.0566000000e-01 0.0000e+00 1.0000e+00
       13  1    4    4    0    0 +1.7785468880e+01 -1.8801578913e+01 -3.9137449677e+00 2.6175386083e+01 1.0566000000e-01 0.0000e+00 -1.0000e+00
      -13  1    4    4    0    0 -7.9957265798e+00 -1.0146032542e+01 -7.4296704511e+00 1.4902509417e+01 1.0566000000e-01 0.0000e+00 1.0000e+00
      -14  1    4    4    0    0 -2.5399926389e+00 -4.8044344003e+00 +1.6403460926e+00 5.6766969107e+00 0.0000000000e+00 0.0000e+00 1.0000e+00
<mgrwt>
<rscale>  0 0.80262793E+02</rscale>
<asrwt>0</asrwt>
<pdfrwt beam="1">  1        2 0.75546805E-02 0.80262793E+02</pdfrwt>
<pdfrwt beam="2">  1       -1 0.50457500E-02 0.80262793E+02</pdfrwt>
<totfact> 0.14751307E+05</totfact>
</mgrwt>
</event>
<event>
 8      1 +5.0320763e-08 8.85332600e+01 7.81860800e-03 1.30644300e-01
        2 -1    0    0  501    0 +0.0000000000e+00 +0.0000000000e+00 +1.5040142847e+03 1.5040142847e+03 2.5500000000e-03 0.0000e+00 -1.0000e+00
       -1 -1    0    0    0  501 -0.0000000000e+00 -0.0000000000e+00 -1.3028646937e+00 1.3028744420e+00 5.0400000000e-03 0.0000e+00 1.0000e+00
       24  2    1    2    0    0 +5.3290705182e-15 +0.0000000000e+00 +1.5027114200e+03 1.5053171591e+03 8.8533258138e+01 0.0000e+00 0.0000e+00
       66  2    3    3    0    0 -1.5910804084e+01 -1.6591753234e+01 +1.3771634810e+03 1.3776819911e+03 2.9999588581e+01 0.0000e+00 0.0000e+00
      -13  1    3    3    0    0 +1.5910804084e+01 +1.6591753234e+01 +1.2554793903e+02 1.2763516804e+02 1.0566000000e-01 0.0000e+00 1.0000e+00
       13  1    4    4    0    0 -4.9544110409e+00 -4.3236755634e+00 +7.9525550323e+02 7.9528269624e+02 1.0566000000e-01 0.0000e+00 -1.0000e+00
      -13  1    4    4    0    0 +8.5058953721e-01 +3.2822432938e+00 +1.6443624415e+02 1.6447123207e+02 1.0566000000e-01 0.0000e+00 1.0000e+00
      -14  1    4    4    0    0 -1.1806982581e+01 -1.5550320964e+01 +4.1747173360e+02 4.1792806280e+02 0.0000000000e+00 0.0000e+00 1.0000e+00
<mgrwt>
<rscale>  0 0.88533258E+02</rscale>
<asrwt>0</asrwt>
<pdfrwt beam="1">  1        2 0.23138667E+00 0.88533258E+02</pdfrwt>
<pdfrwt beam="2">  1       -1 0.20044160E-03 0.88533258E+02</pdfrwt>
<totfact> 0.25489126E+05</totfact>
</mgrwt>
</event>
<event>
 8      1 +5.0320763e-08 7.92534500e+01 7.81860800e-03 1.33118300e-01
        1 -1    0    0  501    0 +0.0000000000e+00 +0.0000000000e+00 +2.0539716064e+02 2.0539716070e+02 5.0400000000e-03 0.0000e+00 -1.0000e+00
       -2 -1    0    0    0  501 -0.0000000000e+00 -0.0000000000e+00 -7.6450780273e+00 7.6450784526e+00 2.5500000000e-03 0.0000e+00 1.0000e+00
      -24  2    1    2    0    0 +0.0000000000e+00 +0.0000000000e+00 +1.9775208261e+02 2.1304223915e+02 7.9253450942e+01 0.0000e+00 0.0000e+00
       66  2    3    3    0    0 -2.1112291528e+01 -1.8765846774e+01 +1.6366436559e+02 1.6877182607e+02 3.0000314209e+01 0.0000e+00 0.0000e+00
       13  1    3    3    0    0 +2.1112291528e+01 +1.8765846774e+01 +3.4087717023e+01 4.4270413084e+01 1.0566000000e-01 0.0000e+00 -1.0000e+00
       13  1    4    4    0    0 -4.2555863192e+00 +4.1661437289e+00 +2.9487495195e+01 3.0083056783e+01 1.0566000000e-01 0.0000e+00 1.0000e+00
      -13  1    4    4    0    0 -9.6992918348e-01 -9.5367003606e+00 +1.5640033298e+01 1.8344242202e+01 1.0566000000e-01 0.0000e+00 -1.0000e+00
      -14  1    4    4    0    0 -1.5886776025e+01 -1.3395290143e+01 +1.1853683709e+02 1.2034452708e+02 0.0000000000e+00 0.0000e+00 1.0000e+00
<mgrwt>
<rscale>  0 0.79253451E+02</rscale>
<asrwt>0</asrwt>
<pdfrwt beam="1">  1        1 0.31599563E-01 0.79253451E+02</pdfrwt>
<pdfrwt beam="2">  1       -2 0.11761659E-02 0.79253451E+02</pdfrwt>
<totfact> 0.17182408E+05</totfact>
</mgrwt>
</event>
<event>
 8      1 +5.0320763e-08 7.59085900e+01 7.81860800e-03 1.34108000e-01
        3 -1    0    0  501    0 +0.0000000000e+00 +0.0000000000e+00 +3.0506155050e+02 3.0506156722e+02 1.0100000000e-01 0.0000e+00 -1.0000e+00
       -4 -1    0    0    0  501 -0.0000000000e+00 -0.0000000000e+00 -4.6353452310e+00 4.8061757574e+00 1.2700000000e+00 0.0000e+00 1.0000e+00
      -24  2    1    2    0    0 -1.7763568394e-15 +0.0000000000e+00 +3.0042620527e+02 3.0986774298e+02 7.5908585320e+01 0.0000e+00 0.0000e+00
       66  2    3    3    0    0 +1.4685858451e+01 +2.6774591767e+01 +2.1306955670e+02 2.1732721987e+02 2.9998855040e+01 0.0000e+00 0.0000e+00
       13  1    3    3    0    0 -1.4685858451e+01 -2.6774591767e+01 +8.7356648573e+01 9.2540523106e+01 1.0566000000e-01 0.0000e+00 -1.0000e+00
       13  1    4    4    0    0 -5.1037060929e+00 +3.8647494771e-01 +4.4017734113e+01 4.4314436240e+01 1.0566000000e-01 0.0000e+00 -1.0000e+00
      -13  1    4    4    0    0 +1.5676800750e+01 +8.2229855688e+00 +9.6375095876e+01 9.7987498399e+01 1.0566000000e-01 0.0000e+00 1.0000e+00
       14  1    4    4    0    0 +4.1127637941e+00 +1.8165131250e+01 +7.2676726709e+01 7.5025285235e+01 0.0000000000e+00 0.0000e+00 -1.0000e+00
<mgrwt>
<rscale>  0 0.75908585E+02</rscale>
<asrwt>0</asrwt>
<pdfrwt beam="1">  1        3 0.46932634E-01 0.75908585E+02</pdfrwt>
<pdfrwt beam="2">  1       -4 0.72647415E-03 0.75908585E+02</pdfrwt>
<totfact> 0.34983509E+04</totfact>
</mgrwt>
</event>
<event>
 8      1 +5.0320763e-08 1.02344900e+02 7.81860800e-03 1.27544100e-01
       -3 -1    0    0    0  501 -0.0000000000e+00 +0.0000000000e+00 +4.9332416617e+00 4.9342754577e+00 1.0100000000e-01 0.0000e+00 1.0000e+00
        2 -1    0    0  501    0 +0.0000000000e+00 -0.0000000000e+00 -5.3075462499e+02 5.3075462499e+02 2.5500000000e-03 0.0000e+00 -1.0000e+00
       24  2    1    2    0    0 +8.8817841970e-16 +0.0000000000e+00 -5.2582138333e+02 5.3568890045e+02 1.0234486262e+02 0.0000e+00 0.0000e+00
       66  2    3    3    0    0 -7.7754309725e+00 -8.6074180927e+00 -5.2268340120e+02 5.2367211765e+02 3.0000065692e+01 0.0000e+00 0.0000e+00
      -13  1    3    3    0    0 +7.7754309725e+00 +8.6074180927e+00 -3.1379821262e+00 1.2016782801e+01 1.0566000000e-01 0.0000e+00 1.0000e+00
       13  1    4    4    0    0 -1.4053246517e+01 +2.2766766313e-01 -2.3453862670e+02 2.3495940958e+02 1.0566000000e-01 0.0000e+00 -1.0000e+00
      -13  1    4    4    0    0 +7.1485055507e+00 -1.1934944832e+01 -2.6221028392e+02 2.6257910846e+02 1.0566000000e-01 0.0000e+00 1.0000e+00
      -14  1    4    4    0    0 -8.7069000614e-01 +3.0998590760e+00 -2.5934490577e+01 2.6133599615e+01 0.0000000000e+00 0.0000e+00 1.0000e+00
<mgrwt>
<rscale>  0 0.10234486E+03</rscale>
<asrwt>0</asrwt>
<pdfrwt beam="1">  1        2 0.81654513E-01 0.10234486E+03</pdfrwt>
<pdfrwt beam="2">  1       -3 0.75904094E-03 0.10234486E+03</pdfrwt>
<totfact> 0.13261232E+05</totfact>
</mgrwt>
</event>
<event>
 8      1 +5.0320763e-08 7.88302300e+01 7.81860800e-03 1.33240400e-01
       -2 -1    0    0    0  501 -0.0000000000e+00 +0.0000000000e+00 +4.9533505856e+00 4.9533512420e+00 2.5500000000e-03 0.0000e+00 1.0000e+00
        1 -1    0    0  501    0 +0.0000000000e+00 -0.0000000000e+00 -3.1363643544e+02 3.1363643548e+02 5.0400000000e-03 0.0000e+00 -1.0000e+00
      -24  2    1    2    0    0 +7.1054273576e-15 +0.0000000000e+00 -3.0868308486e+02 3.1858978672e+02 7.8830231059e+01 0.0000e+00 0.0000e+00
       66  2    3    3    0    0 +2.7501310281e+01 -1.4461113521e+01 -1.2389645149e+02 1.3120900621e+02 3.0000445785e+01 0.0000e+00 0.0000e+00
       13  1    3    3    0    0 -2.7501310281e+01 +1.4461113521e+01 -1.8478663337e+02 1.8738078052e+02 1.0566000000e-01 0.0000e+00 -1.0000e+00
       13  1    4    4    0    0 -4.1997711616e+00 -1.4268595561e+00 -3.7117549772e+00 5.7846603227e+00 1.0566000000e-01 0.0000e+00 -1.0000e+00
      -13  1    4    4    0    0 +5.1138684774e+00 +1.4986960447e+00 -1.3311129155e+01 1.4338586543e+01 1.0566000000e-01 0.0000e+00 1.0000e+00
       14  1    4    4    0    0 +2.6587212965e+01 -1.4532950009e+01 -1.0687356736e+02 1.1108575934e+02 0.0000000000e+00 0.0000e+00 -1.0000e+00
<mgrwt>
<rscale>  0 0.78830231E+02</rscale>
<asrwt>0</asrwt>
<pdfrwt beam="1">  1        1 0.48251744E-01 0.78830231E+02</pdfrwt>
<pdfrwt beam="2">  1       -2 0.76205423E-03 0.78830231E+02</pdfrwt>
<totfact> 0.18913243E+05</totfact>
</mgrwt>
</event>
<event>
 7      1 +5.0320763e-08 1.14619300e+02 7.81860800e-03 1.25224700e-01
        2 -1    0    0  501    0 +0.0000000000e+00 +0.0000000000e+00 +1.4164707746e+02 1.4164707749e+02 2.5500000000e-03 0.0000e+00 -1.0000e+00
       -1 -1    0    0    0  501 -0.0000000000e+00 -0.0000000000e+00 -2.3187179802e+01 2.3187180350e+01 5.0400000000e-03 0.0000e+00 1.0000e+00
       66  2    1    2    0    0 -5.1635257406e+00 +3.1719914305e+01 +1.2458801093e+02 1.3211759698e+02 3.0001199999e+01 0.0000e+00 0.0000e+00
      -13  1    1    2    0    0 +5.1635257406e+00 -3.1719914305e+01 -6.1281132704e+00 3.2716660861e+01 1.0566000000e-01 0.0000e+00 1.0000e+00
       13  1    3    3    0    0 -5.6980924933e-01 +1.0861305935e+01 +1.1306065731e+01 1.5688560659e+01 1.0566000000e-01 0.0000e+00 -1.0000e+00
      -13  1    3    3    0    0 -1.0634982179e+01 +1.1405360008e+01 +6.1584965895e+01 6.3528767273e+01 1.0566000000e-01 0.0000e+00 1.0000e+00
      -14  1    3    3    0    0 +6.0412656879e+00 +9.4532483616e+00 +5.1696979306e+01 5.2900269045e+01 0.0000000000e+00 0.0000e+00 1.0000e+00
<mgrwt>
<rscale>  0 0.11461931E+03</rscale>
<asrwt>0</asrwt>
<pdfrwt beam="1">  1        2 0.21791858E-01 0.11461931E+03</pdfrwt>
<pdfrwt beam="2">  1       -1 0.35672584E-02 0.11461931E+03</pdfrwt>
<totfact> 0.74075472E+04</totfact>
</mgrwt>
</event>
<event>
 8      1 +5.0320763e-08 8.01951800e+01 7.81860800e-03 1.32849800e-01
       -2 -1    0    0    0  501 -0.0000000000e+00 +0.0000000000e+00 +7.0977594200e+02 7.0977594200e+02 2.5500000000e-03 0.0000e+00 1.0000e+00
        1 -1    0    0  501    0 +0.0000000000e+00 -0.0000000000e+00 -2.2652425883e+00 2.2652481951e+00 5.0400000000e-03 0.0000e+00 -1.0000e+00
      -24  2    1    2    0    0 +0.0000000000e+00 +0.0000000000e+00 +7.0751069941e+02 7.1204119020e+02 8.0195179150e+01 0.0000e+00 0.0000e+00
       66  2    3    3    0    0 -2.5517378292e+00 +2.1855358617e+01 +6.3903118161e+02 6.4011328471e+02 2.9999968692e+01 0.0000e+00 0.0000e+00
       13  1    3    3    0    0 +2.5517378292e+00 -2.1855358617e+01 +6.8479517799e+01 7.1927905490e+01 1.0566000000e-01 0.0000e+00 -1.0000e+00
       13  1    4    4    0    0 -2.7130505015e+00 -6.0265305812e+00 +2.0003117047e+02 2.0014035085e+02 1.0566000000e-01 0.0000e+00 -1.0000e+00
      -13  1    4    4    0    0 -1.4925182416e+00 +1.1551518674e+01 +1.2410337296e+02 1.2464880079e+02 1.0566000000e-01 0.0000e+00 1.0000e+00
      -14  1    4    4    0    0 +1.6538309138e+00 +1.6330370524e+01 +3.1489663818e+02 3.1532413307e+02 0.0000000000e+00 0.0000e+00 1.0000e+00
<mgrwt>
<rscale>  0 0.80195179E+02</rscale>
<asrwt>0</asrwt>
<pdfrwt beam="1">  1        1 0.34849950E-03 0.80195179E+02</pdfrwt>
<pdfrwt beam="2">  1       -2 0.10919623E+00 0.80195179E+02</pdfrwt>
<totfact> 0.37116861E+04</totfact>
</mgrwt>
</event>
<event>
 8      1 +5.0320763e-08 7.51849000e+01 7.81860800e-03 1.34329900e-01
       -1 -1    0    0    0  501 -0.0000000000e+00 +0.0000000000e+00 +2.3492281142e+00 2.3492335206e+00 5.0400000000e-03 0.0000e+00 1.0000e+00
        2 -1    0    0  501    0 +0.0000000000e+00 -0.0000000000e+00 -6.0155536580e+02 6.0155536581e+02 2.5500000000e-03 0.0000e+00 -1.0000e+00
       24  2    1    2    0    0 +0.0000000000e+00 +0.0000000000e+00 -5.9920613769e+02 6.0390459933e+02 7.5184903052e+01 0.0000e+00 0.0000e+00
       66  2    3    3    0    0 -1.3314956724e+01 +2.6762978906e+01 -4.2980205943e+02 4.3188338550e+02 2.9998387758e+01 0.0000e+00 0.0000e+00
      -13  1    3    3    0    0 +1.3314956724e+01 -2.6762978906e+01 -1.6940407826e+02 1.7202121383e+02 1.0566000000e-01 0.0000e+00 1.0000e+00
       13  1    4    4    0    0 -1.0755653500e+01 +1.0438643253e+01 -8.3774254429e+01 8.5104560538e+01 1.0566000000e-01 0.0000e+00 -1.0000e+00
      -13  1    4    4    0    0 +5.0765644577e+00 +3.4922287309e+00 -5.0600812999e+01 5.0974705574e+01 1.0566000000e-01 0.0000e+00 1.0000e+00
       14  1    4    4    0    0 -7.6358676817e+00 +1.2832106923e+01 -2.9542699200e+02 2.9580411939e+02 0.0000000000e+00 0.0000e+00 -1.0000e+00
<mgrwt>
<rscale>  0 0.75184903E+02</rscale>
<asrwt>0</asrwt>
<pdfrwt beam="1">  1        2 0.92546857E-01 0.75184903E+02</pdfrwt>
<pdfrwt beam="2">  1       -1 0.36142061E-03 0.75184903E+02</pdfrwt>
<totfact> 0.37810106E+05</totfact>
</mgrwt>
</event>
<event>
 8      1 +5.0320763e-08 7.88134600e+01 7.81860800e-03 1.33245300e-01
       -4 -1    0    0    0  501 -0.0000000000e+00 +0.0000000000e+00 +5.8503797731e+02 5.8503935577e+02 1.2700000000e+00 0.0000e+00 1.0000e+00
        3 -1    0    0  501    0 +0.0000000000e+00 -0.0000000000e+00 -2.6526833816e+00 2.6546054553e+00 1.0100000000e-01 0.0000e+00 -1.0000e+00
      -24  2    1    2    0    0 +0.0000000000e+00 +0.0000000000e+00 +5.8238529393e+02 5.8769396122e+02 7.8813459966e+01 0.0000e+00 0.0000e+00
       66  2    3    3    0    0 -2.9239712115e+01 +1.1111099703e+01 +4.2683377202e+02 4.2902857610e+02 3.0000547979e+01 0.0000e+00 0.0000e+00
       13  1    3    3    0    0 +2.9239712115e+01 -1.1111099703e+01 +1.5555152191e+02 1.5866538512e+02 1.0566000000e-01 0.0000e+00 -1.0000e+00
       13  1    4    4    0    0 -1.3910703419e+01 +2.0255059647e+01 +2.5163074271e+02 2.5282764277e+02 1.0566000000e-01 0.0000e+00 -1.0000e+00
      -13  1    4    4    0    0 -1.2737735711e+01 -9.5679450928e+00 +1.5759527059e+02 1.5839847209e+02 1.0566000000e-01 0.0000e+00 1.0000e+00
       14  1    4    4    0    0 -2.5912729846e+00 +4.2398514922e-01 +1.7607758716e+01 1.7802461237e+01 0.0000000000e+00 0.0000e+00 -1.0000e+00
<mgrwt>
<rscale>  0 0.78813460E+02</rscale>
<asrwt>0</asrwt>
<pdfrwt beam="1">  1        3 0.40825389E-03 0.78813460E+02</pdfrwt>
<pdfrwt beam="2">  1       -4 0.90029276E-01 0.78813460E+02</pdfrwt>
<totfact> 0.18514182E+04</totfact>
</mgrwt>
</event>
<event>
 8      1 +5.0320763e-08 8.03998700e+01 7.81860800e-03 1.32792000e-01
       -4 -1    0    0    0  501 -0.0000000000e+00 +0.0000000000e+00 +1.1099911087e+02 1.1100637600e+02 1.2700000000e+00 0.0000e+00 1.0000e+00
        3 -1    0    0  501    0 +0.0000000000e+00 -0.0000000000e+00 -1.4554679826e+01 1.4555030259e+01 1.0100000000e-01 0.0000e+00 -1.0000e+00
      -24  2    1    2    0    0 +0.0000000000e+00 +0.0000000000e+00 +9.6444431042e+01 1.2556140626e+02 8.0399866066e+01 0.0000e+00 0.0000e+00
       66  2    3    3    0    0 +5.7505720929e+00 -3.4119844855e+01 +5.5501773026e+01 7.1955946635e+01 2.9999642577e+01 0.0000e+00 0.0000e+00
       13  1    3    3    0    0 -5.7505720929e+00 +3.4119844855e+01 +4.0942658016e+01 5.3605459627e+01 1.0566000000e-01 0.0000e+00 -1.0000e+00
       13  1    4    4    0    0 -3.3763608807e+00 +2.1343799943e+00 +4.1136169954e+00 5.7348408502e+00 1.0566000000e-01 0.0000e+00 -1.0000e+00
      -13  1    4    4    0    0 +1.4254605389e+01 -1.9516094318e+01 +2.7598742330e+01 3.6684785054e+01 1.0566000000e-01 0.0000e+00 1.0000e+00
       14  1    4    4    0    0 -5.1276724155e+00 -1.6738130531e+01 +2.3789413701e+01 2.9536320731e+01 0.0000000000e+00 0.0000e+00 -1.0000e+00
<mgrwt>
<rscale>  0 0.80399866E+02</rscale>
<asrwt>0</asrwt>
<pdfrwt beam="1">  1        3 0.22392120E-02 0.80399866E+02</pdfrwt>
<pdfrwt beam="2">  1       -4 0.17081607E-01 0.80399866E+02</pdfrwt>
<totfact> 0.38990126E+04</totfact>
</mgrwt>
</event>
<event>
 8      1 +5.0320763e-08 7.71172400e+01 7.81860800e-03 1.33743700e-01
       -1 -1    0    0    0  501 -0.0000000000e+00 +0.0000000000e+00 +2.6358574162e+01 2.6358574644e+01 5.0400000000e-03 0.0000e+00 1.0000e+00
        2 -1    0    0  501    0 +0.0000000000e+00 -0.0000000000e+00 -5.6405443954e+01 5.6405444011e+01 2.5500000000e-03 0.0000e+00 -1.0000e+00
       24  2    1    2    0    0 +0.0000000000e+00 -5.5511151231e-17 -3.0046869792e+01 8.2764018655e+01 7.7117238019e+01 0.0000e+00 0.0000e+00
       66  2    3    3    0    0 -3.2117762276e+01 +2.3154970228e-01 -2.4017253165e+01 5.0084182217e+01 2.9999876498e+01 0.0000e+00 0.0000e+00
      -13  1    3    3    0    0 +3.2117762276e+01 -2.3154970228e-01 -6.0296166265e+00 3.2679836438e+01 1.0566000000e-01 0.0000e+00 1.0000e+00
       13  1    4    4    0    0 -3.0230043592e+01 -4.6805234335e-01 -2.1751660925e+01 3.7245409457e+01 1.0566000000e-01 0.0000e+00 -1.0000e+00
      -13  1    4    4    0    0 -1.1205469854e+00 +1.0335188895e+00 -7.4409446299e+00 7.5962232630e+00 1.0566000000e-01 0.0000e+00 1.0000e+00
      -14  1    4    4    0    0 -7.6717169879e-01 -3.3391684384e-01 +5.1753523898e+00 5.2425494974e+00 0.0000000000e+00 0.0000e+00 1.0000e+00
<mgrwt>
<rscale>  0 0.77117238E+02</rscale>
<asrwt>0</asrwt>
<pdfrwt beam="1">  1        2 0.86777606E-02 0.77117238E+02</pdfrwt>
<pdfrwt beam="2">  1       -1 0.40551653E-02 0.77117238E+02</pdfrwt>
<totfact> 0.16959069E+05</totfact>
</mgrwt>
</event>
<event>
 8      1 +5.0320763e-08 7.86449900e+01 7.81860800e-03 1.33294100e-01
        2 -1    0    0  501    0 +0.0000000000e+00 +0.0000000000e+00 +1.7752847712e+02 1.7752847713e+02 2.5500000000e-03 0.0000e+00 -1.0000e+00
       -1 -1    0    0    0  501 -0.0000000000e+00 -0.0000000000e+00 -8.7099179478e+00 8.7099194060e+00 5.0400000000e-03 0.0000e+00 1.0000e+00
       24  2    1    2    0    0 +0.0000000000e+00 +0.0000000000e+00 +1.6881855917e+02 1.8623839654e+02 7.8644989836e+01 0.0000e+00 0.0000e+00
       66  2    3    3    0    0 -1.8371793771e+01 -9.9497249031e+00 +1.5900746336e+02 1.6315618267e+02 3.0000778473e+01 0.0000e+00 0.0000e+00
      -13  1    3    3    0    0 +1.8371793771e+01 +9.9497249031e+00 +9.8110958117e+00 2.3082213868e+01 1.0566000000e-01 0.0000e+00 1.0000e+00
       13  1    4    4    0    0 -6.6402397686e+00 -1.4362217598e+01 +4.5867848702e+01 4.8520478018e+01 1.0566000000e-01 0.0000e+00 -1.0000e+00
      -13  1    4    4    0    0 -1.1963662047e+00 +7.2939662360e+00 +5.2892385034e+01 5.3406448994e+01 1.0566000000e-01 0.0000e+00 1.0000e+00
       14  1    4    4    0    0 -1.0535187798e+01 -2.8814735416e+00 +6.0247229621e+01 6.1229255660e+01 0.0000000000e+00 0.0000e+00 -1.0000e+00
<mgrwt>
<rscale>  0 0.78644990E+02</rscale>
<asrwt>0</asrwt>
<pdfrwt beam="1">  1        2 0.27312073E-01 0.78644990E+02</pdfrwt>
<pdfrwt beam="2">  1       -1 0.13399875E-02 0.78644990E+02</pdfrwt>
<totfact> 0.22152537E+05</totfact>
</mgrwt>
</event>
<event>
 8      1 +5.0320763e-08 7.28266900e+01 7.81860800e-03 1.35073600e-01
       -1 -1    0    0    0  501 -0.0000000000e+00 +0.0000000000e+00 +6.8150474865e+00 6.8150493501e+00 5.0400000000e-03 0.0000e+00 1.0000e+00
        2 -1    0    0  501    0 +0.0000000000e+00 -0.0000000000e+00 -1.9455937235e+02 1.9455937237e+02 2.5500000000e-03 0.0000e+00 -1.0000e+00
       24  2    1    2    0    0 +0.0000000000e+00 +0.0000000000e+00 -1.8774432487e+02 2.0137442172e+02 7.2826686066e+01 0.0000e+00 0.0000e+00
       66  2    3    3    0    0 +6.3955821918e+00 -2.4051460005e+01 -1.5726703362e+02 1.6202658003e+02 3.0005275747e+01 0.0000e+00 0.0000e+00
      -13  1    3    3    0    0 -6.3955821918e+00 +2.4051460005e+01 -3.0477291249e+01 3.9347841693e+01 1.0566000000e-01 0.0000e+00 1.0000e+00
       13  1    4    4    0    0 +8.3960676864e+00 -1.3952239784e+01 -7.2986273587e+01 7.4780787932e+01 1.0566000000e-01 0.0000e+00 -1.0000e+00
      -13  1    4    4    0    0 -9.4703411527e+00 +5.8988754411e-02 -4.5187609161e+01 4.6169492383e+01 1.0566000000e-01 0.0000e+00 1.0000e+00
      -14  1    4    4    0    0 +7.4698556581e+00 -1.0158208975e+01 -3.9093150869e+01 4.1076299712e+01 0.0000000000e+00 0.0000e+00 1.0000e+00
<mgrwt>
<rscale>  0 0.72826686E+02</rscale>
<asrwt>0</asrwt>
<pdfrwt beam="1">  1        2 0.29932207E-01 0.72826686E+02</pdfrwt>
<pdfrwt beam="2">  1       -1 0.10484691E-02 0.72826686E+02</pdfrwt>
<totfact> 0.27960586E+05</totfact>
</mgrwt>
</event>
<event>
 8      1 +5.0320763e-08 8.00649400e+01 7.81860800e-03 1.32886700e-01
        2 -1    0    0  501    0 +0.0000000000e+00 +0.0000000000e+00 +3.2285435635e+02 3.2285435636e+02 2.5500000000e-03 0.0000e+00 -1.0000e+00
       -1 -1    0    0    0  501 -0.0000000000e+00 -0.0000000000e+00 -4.9638425167e+00 4.9638450753e+00 5.0400000000e-03 0.0000e+00 1.0000e+00
       24  2    1    2    0    0 +3.5527136788e-15 -3.5527136788e-15 +3.1789051383e+02 3.2781820143e+02 8.0064938688e+01 0.0000e+00 0.0000e+00
       66  2    3    3    0    0 +2.3528735753e+01 -1.8610780004e+01 +2.5028696253e+02 2.5385730737e+02 3.0000105877e+01 0.0000e+00 0.0000e+00
      -13  1    3    3    0    0 -2.3528735753e+01 +1.8610780004e+01 +6.7603551299e+01 7.3960894064e+01 1.0566000000e-01 0.0000e+00 1.0000e+00
       13  1    4    4    0    0 +1.1446784302e+01 -1.1571493532e+01 +1.5830553919e+02 1.5914013710e+02 1.0566000000e-01 0.0000e+00 -1.0000e+00
      -13  1    4    4    0    0 -1.7225530654e+00 -8.5398724324e+00 +3.4903139160e+01 3.5974114270e+01 1.0566000000e-01 0.0000e+00 1.0000e+00
      -14  1    4    4    0    0 +1.3804504517e+01 +1.5005859609e+00 +5.7078284185e+01 5.8743056004e+01 0.0000000000e+00 0.0000e+00 1.0000e+00
<mgrwt>
<rscale>  0 0.80064939E+02</rscale>
<asrwt>0</asrwt>
<pdfrwt beam="1">  1        2 0.49669900E-01 0.80064939E+02</pdfrwt>
<pdfrwt beam="2">  1       -1 0.76366829E-03 0.80064939E+02</pdfrwt>
<totfact> 0.26124357E+05</totfact>
</mgrwt>
</event>
<event>
 8      1 +5.0320763e-08 8.09218500e+01 7.81860800e-03 1.32645600e-01
       -1 -1    0    0    0  501 -0.0000000000e+00 +0.0000000000e+00 +9.4584836126e+00 9.4584849554e+00 5.0400000000e-03 0.0000e+00 1.0000e+00
        2 -1    0    0  501    0 +0.0000000000e+00 -0.0000000000e+00 -1.7308124686e+02 1.7308124688e+02 2.5500000000e-03 0.0000e+00 -1.0000e+00
       24  2    1    2    0    0 -7.1054273576e-15 -7.1054273576e-15 -1.6362276325e+02 1.8253973183e+02 8.0921845291e+01 0.0000e+00 0.0000e+00
       66  2    3    3    0    0 -2.7702098787e+01 -1.5346489956e+01 -1.2613811885e+02 1.3346804182e+02 2.9999535483e+01 0.0000e+00 0.0000e+00
      -13  1    3    3    0    0 +2.7702098787e+01 +1.5346489956e+01 -3.7484644396e+01 4.9071690012e+01 1.0566000000e-01 0.0000e+00 1.0000e+00
       13  1    4    4    0    0 -8.7321037959e+00 +1.0829598391e+00 -6.1702714168e+01 6.2327028955e+01 1.0566000000e-01 0.0000e+00 -1.0000e+00
      -13  1    4    4    0    0 +1.8052574941e-01 -3.2620513886e+00 -7.5859196249e-01 3.3556213447e+00 1.0566000000e-01 0.0000e+00 1.0000e+00
       14  1    4    4    0    0 -1.9150520740e+01 -1.3167398406e+01 -6.3676812721e+01 6.7785391522e+01 0.0000000000e+00 0.0000e+00 -1.0000e+00
<mgrwt>
<rscale>  0 0.80921845E+02</rscale>
<asrwt>0</asrwt>
<pdfrwt beam="1">  1        2 0.26627882E-01 0.80921845E+02</pdfrwt>
<pdfrwt beam="2">  1       -1 0.14551516E-02 0.80921845E+02</pdfrwt>
<totfact> 0.20367734E+05</totfact>
</mgrwt>
</event>
<event>
 8      1 +5.0320763e-08 5.85804400e+01 7.81860800e-03 1.40388700e-01
       -1 -1    0    0    0  501 -0.0000000000e+00 +0.0000000000e+00 +1.3286234161e+00 1.3286329754e+00 5.0400000000e-03 0.0000e+00 1.0000e+00
        2 -1    0    0  501    0 +0.0000000000e+00 -0.0000000000e+00 -6.4571630484e+02 6.4571630484e+02 2.5500000000e-03 0.0000e+00 -1.0000e+00
       24  2    1    2    0    0 -1.7763568394e-15 +0.0000000000e+00 -6.4438768142e+02 6.4704493782e+02 5.8580436907e+01 0.0000e+00 0.0000e+00
       66  2    3    3    0    0 +8.9487942398e+00 +1.3802272838e+01 -5.6145910720e+02 5.6250061074e+02 3.0000406273e+01 0.0000e+00 0.0000e+00
      -13  1    3    3    0    0 -8.9487942398e+00 -1.3802272838e+01 -8.2928574226e+01 8.4544327078e+01 1.0566000000e-01 0.0000e+00 1.0000e+00
       13  1    4    4    0    0 +1.1912133243e+01 -1.6803692921e-01 -3.2074903129e+02 3.2097021574e+02 1.0566000000e-01 0.0000e+00 -1.0000e+00
      -13  1    4    4    0    0 +2.9967786416e+00 +9.2459824490e+00 -7.2527052552e+01 7.3175497194e+01 1.0566000000e-01 0.0000e+00 1.0000e+00
       14  1    4    4    0    0 -5.9601176448e+00 +4.7243273183e+00 -1.6818302336e+02 1.6835489781e+02 0.0000000000e+00 0.0000e+00 -1.0000e+00
<mgrwt>
<rscale>  0 0.58580437E+02</rscale>
<asrwt>0</asrwt>
<pdfrwt beam="1">  1        2 0.99340719E-01 0.58580437E+02</pdfrwt>
<pdfrwt beam="2">  1       -1 0.20440486E-03 0.58580437E+02</pdfrwt>
<totfact> 0.72796932E+05</totfact>
</mgrwt>
</event>
<event>
 8      1 +5.0320763e-08 7.71737500e+01 7.81860800e-03 1.33726900e-01
        4 -1    0    0  501    0 +0.0000000000e+00 +0.0000000000e+00 +4.7344102976e+01 4.7361133713e+01 1.2700000000e+00 0.0000e+00 -1.0000e+00
       -3 -1    0    0    0  501 -0.0000000000e+00 -0.0000000000e+00 -3.1435162821e+01 3.1435325075e+01 1.0100000000e-01 0.0000e+00 1.0000e+00
       24  2    1    2    0    0 +1.7763568394e-15 -1.7763568394e-15 +1.5908940155e+01 7.8796458788e+01 7.7173749038e+01 0.0000e+00 0.0000e+00
       66  2    3    3    0    0 +7.5043225993e+00 -1.1554981679e+01 +3.9498206480e+01 5.1478019794e+01 3.0000762449e+01 0.0000e+00 0.0000e+00
      -13  1    3    3    0    0 -7.5043225993e+00 +1.1554981679e+01 -2.3589266325e+01 2.7318438994e+01 1.0566000000e-01 0.0000e+00 1.0000e+00
       13  1    4    4    0    0 +5.3955738903e+00 +6.7351783689e+00 +1.6171357116e+01 1.8330270055e+01 1.0566000000e-01 0.0000e+00 -1.0000e+00
      -13  1    4    4    0    0 +1.5714464997e+00 -7.2658361313e+00 +2.0423909237e+01 2.1734973001e+01 1.0566000000e-01 0.0000e+00 1.0000e+00
      -14  1    4    4    0    0 +5.3730220934e-01 -1.1024323917e+01 +2.9029401258e+00 1.1412776738e+01 0.0000000000e+00 0.0000e+00 1.0000e+00
<mgrwt>
<rscale>  0 0.77173749E+02</rscale>
<asrwt>0</asrwt>
<pdfrwt beam="1">  1        4 0.72869916E-02 0.77173749E+02</pdfrwt>
<pdfrwt beam="2">  1       -3 0.48361997E-02 0.77173749E+02</pdfrwt>
<totfact> 0.49535006E+04</totfact>
</mgrwt>
</event>
<event>
 8      1 +5.0320763e-08 8.05026100e+01 7.81860800e-03 1.32763100e-01
       -2 -1    0    0    0  501 -0.0000000000e+00 +0.0000000000e+00 +1.6621104824e+02 1.6621104825e+02 2.5500000000e-03 0.0000e+00 1.0000e+00
        1 -1    0    0  501    0 +0.0000000000e+00 -0.0000000000e+00 -9.7476530221e+00 9.7476543251e+00 5.0400000000e-03 0.0000e+00 -1.0000e+00
      -24  2    1    2    0    0 -1.7763568394e-15 +0.0000000000e+00 +1.5646339521e+02 1.7595870258e+02 8.0502614690e+01 0.0000e+00 0.0000e+00
       66  2    3    3    0    0 -8.5125666304e+00 -2.7112211818e+01 +1.3247526819e+02 1.3877030086e+02 2.9999398309e+01 0.0000e+00 0.0000e+00
       13  1    3    3    0    0 +8.5125666304e+00 +2.7112211818e+01 +2.3988127026e+01 3.7188401721e+01 1.0566000000e-01 0.0000e+00 -1.0000e+00
       13  1    4    4    0    0 -4.9536788093e+00 -1.5364299474e+01 +3.0907121470e+01 3.4869212117e+01 1.0566000000e-01 0.0000e+00 1.0000e+00
      -13  1    4    4    0    0 +3.9254647333e+00 -1.3459457469e+01 +5.8729680696e+01 6.0380069786e+01 1.0566000000e-01 0.0000e+00 -1.0000e+00
      -14  1    4    4    0    0 -7.4843525545e+00 +1.7115451247e+00 +4.2838466021e+01 4.3521018955e+01 0.0000000000e+00 0.0000e+00 1.0000e+00
<mgrwt>
<rscale>  0 0.80502615E+02</rscale>
<asrwt>0</asrwt>
<pdfrwt beam="1">  1        1 0.14996390E-02 0.80502615E+02</pdfrwt>
<pdfrwt beam="2">  1       -2 0.25570931E-01 0.80502615E+02</pdfrwt>
<totfact> 0.89799904E+04</totfact>
</mgrwt>
</event>
<event>
 8      1 +5.0320763e-08 7.30453700e+01 7.81860800e-03 1.35003300e-01
       -1 -1    0    0    0  501 -0.0000000000e+00 +0.0000000000e+00 +2.7145106867e+01 2.7145107335e+01 5.0400000000e-03 0.0000e+00 1.0000e+00
        2 -1    0    0  501    0 +0.0000000000e+00 -0.0000000000e+00 -4.9139850341e+01 4.9139850408e+01 2.5500000000e-03 0.0000e+00 -1.0000e+00
       24  2    1    2    0    0 +0.0000000000e+00 +3.5527136788e-15 -2.1994743475e+01 7.6284957742e+01 7.3045369718e+01 0.0000e+00 0.0000e+00
       66  2    3    3    0    0 -2.4593306650e+00 +2.9597657513e+01 -1.9438243685e+01 4.6475286614e+01 3.0000621840e+01 0.0000e+00 0.0000e+00
      -13  1    3    3    0    0 +2.4593306650e+00 -2.9597657513e+01 -2.5564997901e+00 2.9809671128e+01 1.0566000000e-01 0.0000e+00 1.0000e+00
       13  1    4    4    0    0 -8.9920803911e+00 +2.0121415280e+01 -1.3057792856e+00 2.2078158578e+01 1.0566000000e-01 0.0000e+00 -1.0000e+00
      -13  1    4    4    0    0 -2.8409891771e+00 +1.8021212937e-01 -1.6957734295e+00 3.3151934296e+00 1.0566000000e-01 0.0000e+00 1.0000e+00
       14  1    4    4    0    0 +9.3737389033e+00 +9.2960301030e+00 -1.6436690970e+01 2.1081934606e+01 0.0000000000e+00 0.0000e+00 -1.0000e+00
<mgrwt>
<rscale>  0 0.73045370E+02</rscale>
<asrwt>0</asrwt>
<pdfrwt beam="1">  1        2 0.75599770E-02 0.73045370E+02</pdfrwt>
<pdfrwt beam="2">  1       -1 0.41761703E-02 0.73045370E+02</pdfrwt>
<totfact> 0.19067073E+05</totfact>
</mgrwt>
</event>
<event>
 8      1 +5.0320763e-08 8.03216300e+01 7.81860800e-03 1.32814100e-01
        1 -1    0    0  501    0 +0.0000000000e+00 +0.0000000000e+00 +1.4754576156e+02 1.4754576165e+02 5.0400000000e-03 0.0000e+00 -1.0000e+00
       -2 -1    0    0    0  501 -0.0000000000e+00 -0.0000000000e+00 -1.0931463518e+01 1.0931463816e+01 2.5500000000e-03 0.0000e+00 1.0000e+00
      -24  2    1    2    0    0 +0.0000000000e+00 -1.7763568394e-15 +1.3661429804e+02 1.5847722546e+02 8.0321631959e+01 0.0000e+00 0.0000e+00
       66  2    3    3    0    0 +2.4184873222e+01 +8.9540434637e+00 +3.2456142528e+01 5.1173844755e+01 3.0004636509e+01 0.0000e+00 0.0000e+00
       13  1    3    3    0    0 -2.4184873222e+01 -8.9540434637e+00 +1.0415815551e+02 1.0730338071e+02 1.0566000000e-01 0.0000e+00 -1.0000e+00
       13  1    4    4    0    0 +5.8636051806e+00 +7.8294143335e+00 +2.4167376042e+01 2.6072108148e+01 1.0566000000e-01 0.0000e+00 -1.0000e+00
      -13  1    4    4    0    0 +3.8364036146e+00 +6.7258347533e+00 +5.0281831597e+00 9.2330187775e+00 1.0566000000e-01 0.0000e+00 1.0000e+00
      -14  1    4    4    0    0 +1.4484864427e+01 -5.6012056231e+00 +3.2605833271e+00 1.5868717829e+01 0.0000000000e+00 0.0000e+00 1.0000e+00
<mgrwt>
<rscale>  0 0.80321632E+02</rscale>
<asrwt>0</asrwt>
<pdfrwt beam="1">  1        1 0.22699349E-01 0.80321632E+02</pdfrwt>
<pdfrwt beam="2">  1       -2 0.16817635E-02 0.80321632E+02</pdfrwt>
<totfact> 0.15572575E+05</totfact>
</mgrwt>
</event>
<event>
 8      1 +5.0320763e-08 8.57162200e+01 7.81860800e-03 1.31357000e-01
        4 -1    0    0  501    0 +0.0000000000e+00 +0.0000000000e+00 +3.7495767236e+01 3.7517268832e+01 1.2700000000e+00 0.0000e+00 -1.0000e+00
       -3 -1    0    0    0  501 -0.0000000000e+00 -0.0000000000e+00 -4.8962422707e+01 4.8962526878e+01 1.0100000000e-01 0.0000e+00 1.0000e+00
       24  2    1    2    0    0 +8.8817841970e-16 +0.0000000000e+00 -1.1466655471e+01 8.6479795710e+01 8.5716222959e+01 0.0000e+00 0.0000e+00
       66  2    3    3    0    0 -2.3439264654e+00 -1.0896048914e+01 +2.9802792251e+01 4.3731739000e+01 3.0000678273e+01 0.0000e+00 0.0000e+00
      -13  1    3    3    0    0 +2.3439264654e+00 +1.0896048914e+01 -4.1269447721e+01 4.2748056710e+01 1.0566000000e-01 0.0000e+00 1.0000e+00
       13  1    4    4    0    0 +4.1283271121e+00 -7.1271330228e+00 +2.3895556706e+01 2.5275440732e+01 1.0566000000e-01 0.0000e+00 -1.0000e+00
      -13  1    4    4    0    0 -6.0965429386e+00 -9.5379781579e+00 +5.6923442434e+00 1.2671022459e+01 1.0566000000e-01 0.0000e+00 1.0000e+00
      -14  1    4    4    0    0 -3.7571063889e-01 +5.7690622662e+00 +2.1489130110e-01 5.7852758091e+00 0.0000000000e+00 0.0000e+00 1.0000e+00
<mgrwt>
<rscale>  0 0.85716223E+02</rscale>
<asrwt>0</asrwt>
<pdfrwt beam="1">  1        4 0.57715005E-02 0.85716223E+02</pdfrwt>
<pdfrwt beam="2">  1       -3 0.75326989E-02 0.85716223E+02</pdfrwt>
<totfact> 0.37061748E+04</totfact>
</mgrwt>
</event>
<event>
 8      1 +5.0320763e-08 7.92524100e+01 7.81860800e-03 1.33118600e-01
       -1 -1    0    0    0  501 -0.0000000000e+00 +0.0000000000e+00 +5.4415505073e+01 5.4415505306e+01 5.0400000000e-03 0.0000e+00 1.0000e+00
        2 -1    0    0  501    0 +0.0000000000e+00 -0.0000000000e+00 -2.8856408396e+01 2.8856408509e+01 2.5500000000e-03 0.0000e+00 -1.0000e+00
       24  2    1    2    0    0 +0.0000000000e+00 +0.0000000000e+00 +2.5559096676e+01 8.3271913815e+01 7.9252408212e+01 0.0000e+00 0.0000e+00
       66  2    3    3    0    0 +1.3885739849e+01 -3.0191048273e+01 +7.3175901484e+00 4.5363116796e+01 2.9999201204e+01 0.0000e+00 0.0000e+00
      -13  1    3    3    0    0 -1.3885739849e+01 +3.0191048273e+01 +1.8241506528e+01 3.7908797019e+01 1.0566000000e-01 0.0000e+00 1.0000e+00
       13  1    4    4    0    0 -2.1672768459e+00 +1.5386711192e+00 -5.3293414341e-01 2.7128915526e+00 1.0566000000e-01 0.0000e+00 -1.0000e+00
      -13  1    4    4    0    0 -1.0621695317e+00 -4.0698451611e+00 -5.9743580296e+00 7.3072540431e+00 1.0566000000e-01 0.0000e+00 1.0000e+00
       14  1    4    4    0    0 +1.7115186226e+01 -2.7659874231e+01 +1.3824882321e+01 3.5342971200e+01 0.0000000000e+00 0.0000e+00 -1.0000e+00
<mgrwt>
<rscale>  0 0.79252408E+02</rscale>
<asrwt>0</asrwt>
<pdfrwt beam="1">  1        2 0.44394475E-02 0.79252408E+02</pdfrwt>
<pdfrwt beam="2">  1       -1 0.83716161E-02 0.79252408E+02</pdfrwt>
<totfact> 0.13708993E+05</totfact>
</mgrwt>
</event>
<event>
 8      1 +5.0320763e-08 7.89594200e+01 7.81860800e-03 1.33203100e-01
       -2 -1    0    0    0  501 -0.0000000000e+00 +0.0000000000e+00 +3.7096686755e+00 3.7096695519e+00 2.5500000000e-03 0.0000e+00 1.0000e+00
        1 -1    0    0  501    0 +0.0000000000e+00 -0.0000000000e+00 -4.2015809405e+02 4.2015809408e+02 5.0400000000e-03 0.0000e+00 -1.0000e+00
      -24  2    1    2    0    0 +0.0000000000e+00 +0.0000000000e+00 -4.1644842537e+02 4.2386776363e+02 7.8959420272e+01 0.0000e+00 0.0000e+00
       66  2    3    3    0    0 -2.6990650623e+01 -1.9075524899e+01 -2.7575989040e+02 2.7934909387e+02 3.0000470393e+01 0.0000e+00 0.0000e+00
       13  1    3    3    0    0 +2.6990650623e+01 +1.9075524899e+01 -1.4068853498e+02 1.4451866976e+02 1.0566000000e-01 0.0000e+00 -1.0000e+00
       13  1    4    4    0    0 -2.7820878251e+01 -2.4300544448e+01 -2.5952771489e+02 2.6214340291e+02 1.0566000000e-01 0.0000e+00 -1.0000e+00
      -13  1    4    4    0    0 +1.1492747626e+00 +2.5544337309e+00 -5.9441992060e+00 6.5719580341e+00 1.0566000000e-01 0.0000e+00 1.0000e+00
       14  1    4    4    0    0 -3.1904713547e-01 +2.6705858178e+00 -1.0287976296e+01 1.0633732927e+01 0.0000000000e+00 0.0000e+00 -1.0000e+00
<mgrwt>
<rscale>  0 0.78959420E+02</rscale>
<asrwt>0</asrwt>
<pdfrwt beam="1">  1        1 0.64639669E-01 0.78959420E+02</pdfrwt>
<pdfrwt beam="2">  1       -2 0.57071866E-03 0.78959420E+02</pdfrwt>
<totfact> 0.19811991E+05</totfact>
</mgrwt>
</event>
<event>
 8      1 +5.0320763e-08 8.02166200e+01 7.81860800e-03 1.32843800e-01
       -1 -1    0    0    0  501 -0.0000000000e+00 +0.0000000000e+00 +8.7884284064e+00 8.7884298516e+00 5.0400000000e-03 0.0000e+00 1.0000e+00
        2 -1    0    0  501    0 +0.0000000000e+00 -0.0000000000e+00 -1.8304484173e+02 1.8304484174e+02 2.5500000000e-03 0.0000e+00 -1.0000e+00
       24  2    1    2    0    0 +0.0000000000e+00 +0.0000000000e+00 -1.7425641332e+02 1.9183327160e+02 8.0216622392e+01 0.0000e+00 0.0000e+00
       66  2    3    3    0    0 -1.7833245110e+01 -1.1835890477e+01 -1.6401713703e+02 1.6810634854e+02 3.0000170767e+01 0.0000e+00 0.0000e+00
      -13  1    3    3    0    0 +1.7833245110e+01 +1.1835890477e+01 -1.0239276287e+01 2.3726923051e+01 1.0566000000e-01 0.0000e+00 1.0000e+00
       13  1    4    4    0    0 -9.9835558814e+00 -9.7674686068e+00 -3.6232641934e+01 3.8831563663e+01 1.0566000000e-01 0.0000e+00 -1.0000e+00
      -13  1    4    4    0    0 -3.2782278044e+00 +9.0836631706e-01 -3.5403005703e+00 4.9108857722e+00 1.0566000000e-01 0.0000e+00 1.0000e+00
       14  1    4    4    0    0 -4.5714614244e+00 -2.9767881874e+00 -1.2424419453e+02 1.2436389911e+02 0.0000000000e+00 0.0000e+00 -1.0000e+00
<mgrwt>
<rscale>  0 0.80216622E+02</rscale>
<asrwt>0</asrwt>
<pdfrwt beam="1">  1        2 0.28160742E-01 0.80216622E+02</pdfrwt>
<pdfrwt beam="2">  1       -1 0.13520662E-02 0.80216622E+02</pdfrwt>
<totfact> 0.21243799E+05</totfact>
</mgrwt>
</event>
<event>
 8      1 +5.0320763e-08 7.25177300e+01 7.81860800e-03 1.35173500e-01
       -1 -1    0    0    0  501 -0.0000000000e+00 +0.0000000000e+00 +2.0946422225e+00 2.0946482859e+00 5.0400000000e-03 0.0000e+00 1.0000e+00
        2 -1    0    0  501    0 +0.0000000000e+00 -0.0000000000e+00 -6.2765058794e+02 6.2765058794e+02 2.5500000000e-03 0.0000e+00 -1.0000e+00
       24  2    1    2    0    0 +1.7763568394e-15 +0.0000000000e+00 -6.2555594571e+02 6.2974523623e+02 7.2517731164e+01 0.0000e+00 0.0000e+00
       66  2    3    3    0    0 -8.3567198575e+00 -2.6294779159e+01 -4.6977167331e+02 4.7153651059e+02 3.0000093166e+01 0.0000e+00 0.0000e+00
      -13  1    3    3    0    0 +8.3567198575e+00 +2.6294779159e+01 -1.5578427240e+02 1.5820872564e+02 1.0566000000e-01 0.0000e+00 1.0000e+00
       13  1    4    4    0    0 -1.0289211650e+01 -6.6376893323e-01 -1.1197025623e+02 1.1244402122e+02 1.0566000000e-01 0.0000e+00 -1.0000e+00
      -13  1    4    4    0    0 +2.8094602351e+00 -1.7660238623e+00 -1.1528530772e+01 1.1997086850e+01 1.0566000000e-01 0.0000e+00 1.0000e+00
      -14  1    4    4    0    0 -8.7696844265e-01 -2.3864986363e+01 -3.4627288632e+02 3.4709540251e+02 0.0000000000e+00 0.0000e+00 1.0000e+00
<mgrwt>
<rscale>  0 0.72517731E+02</rscale>
<asrwt>0</asrwt>
<pdfrwt beam="1">  1        2 0.96561479E-01 0.72517731E+02</pdfrwt>
<pdfrwt beam="2">  1       -1 0.32225362E-03 0.72517731E+02</pdfrwt>
<totfact> 0.41980774E+05</totfact>
</mgrwt>
</event>
<event>
 8      1 +5.0320763e-08 7.92789800e+01 7.81860800e-03 1.33111000e-01
        2 -1    0    0  501    0 +0.0000000000e+00 +0.0000000000e+00 +1.1858376063e+03 1.1858376063e+03 2.5500000000e-03 0.0000e+00 -1.0000e+00
       -1 -1    0    0    0  501 -0.0000000000e+00 -0.0000000000e+00 -1.3250411380e+00 1.3250507232e+00 5.0400000000e-03 0.0000e+00 1.0000e+00
       24  2    1    2    0    0 +1.7763568394e-15 +1.7763568394e-15 +1.1845125652e+03 1.1871626571e+03 7.9278983410e+01 0.0000e+00 0.0000e+00
       66  2    3    3    0    0 +1.3696185133e+01 +8.9148725637e+00 +1.1229012941e+03 1.1234208315e+03 2.9999797287e+01 0.0000e+00 0.0000e+00
      -13  1    3    3    0    0 -1.3696185133e+01 -8.9148725637e+00 +6.1611271073e+01 6.3741825572e+01 1.0566000000e-01 0.0000e+00 1.0000e+00
       13  1    4    4    0    0 -1.7730682001e+00 +1.8283408079e+00 +3.9346551942e+02 3.9347377643e+02 1.0566000000e-01 0.0000e+00 -1.0000e+00
      -13  1    4    4    0    0 +8.4036671095e+00 +1.0633267824e+01 +2.0301774174e+02 2.0346966022e+02 1.0566000000e-01 0.0000e+00 1.0000e+00
       14  1    4    4    0    0 +7.0655862236e+00 -3.5467360685e+00 +5.2641803296e+02 5.2647739483e+02 0.0000000000e+00 0.0000e+00 -1.0000e+00
<mgrwt>
<rscale>  0 0.79278983E+02</rscale>
<asrwt>0</asrwt>
<pdfrwt beam="1">  1        2 0.18243756E+00 0.79278983E+02</pdfrwt>
<pdfrwt beam="2">  1       -1 0.20385210E-03 0.79278983E+02</pdfrwt>
<totfact> 0.35915514E+05</totfact>
</mgrwt>
</event>
<event>
 8      1 +5.0320763e-08 8.09382600e+01 7.81860800e-03 1.32641000e-01
       -4 -1    0    0    0  501 -0.0000000000e+00 +0.0000000000e+00 +7.8020917479e+01 7.8031253125e+01 1.2700000000e+00 0.0000e+00 1.0000e+00
        3 -1    0    0  501    0 +0.0000000000e+00 -0.0000000000e+00 -2.0984458053e+01 2.0984701112e+01 1.0100000000e-01 0.0000e+00 -1.0000e+00
      -24  2    1    2    0    0 +0.0000000000e+00 -1.7763568394e-15 +5.7036459426e+01 9.9015954237e+01 8.0938257268e+01 0.0000e+00 0.0000e+00
       66  2    3    3    0    0 -1.0091024038e+01 +1.4009275897e+01 +6.9553641890e+01 7.7690392153e+01 2.9999989257e+01 0.0000e+00 0.0000e+00
       13  1    3    3    0    0 +1.0091024038e+01 -1.4009275897e+01 -1.2517182464e+01 2.1325562084e+01 1.0566000000e-01 0.0000e+00 -1.0000e+00
       13  1    4    4    0    0 -4.2782366138e-01 +3.4288247241e+00 +4.5372555979e+01 4.5504064348e+01 1.0566000000e-01 0.0000e+00 -1.0000e+00
      -13  1    4    4    0    0 +1.6222365074e+00 +8.8484084214e+00 +6.3453670463e+00 1.1009124846e+01 1.0566000000e-01 0.0000e+00 1.0000e+00
       14  1    4    4    0    0 -1.1285436884e+01 +1.7320427520e+00 +1.7835718864e+01 2.1177202959e+01 0.0000000000e+00 0.0000e+00 -1.0000e+00
<mgrwt>
<rscale>  0 0.80938257E+02</rscale>
<asrwt>0</asrwt>
<pdfrwt beam="1">  1        3 0.32284019E-02 0.80938257E+02</pdfrwt>
<pdfrwt beam="2">  1       -4 0.12006969E-01 0.80938257E+02</pdfrwt>
<totfact> 0.41050177E+04</totfact>
</mgrwt>
</event>
<event>
 8      1 +5.0320763e-08 7.91401800e+01 7.81860800e-03 1.33150900e-01
       -2 -1    0    0    0  501 -0.0000000000e+00 +0.0000000000e+00 +6.2765094464e+01 6.2765094516e+01 2.5500000000e-03 0.0000e+00 1.0000e+00
        1 -1    0    0  501    0 +0.0000000000e+00 -0.0000000000e+00 -2.4946859319e+01 2.4946859828e+01 5.0400000000e-03 0.0000e+00 -1.0000e+00
      -24  2    1    2    0    0 +0.0000000000e+00 -8.8817841970e-16 +3.7818235145e+01 8.7711954344e+01 7.9140179588e+01 0.0000e+00 0.0000e+00
       66  2    3    3    0    0 -8.8980231200e+00 -7.6691770552e+00 +5.6851224357e+01 6.5345530077e+01 2.9999758299e+01 0.0000e+00 0.0000e+00
       13  1    3    3    0    0 +8.8980231200e+00 +7.6691770552e+00 -1.9032989211e+01 2.2366424267e+01 1.0566000000e-01 0.0000e+00 -1.0000e+00
       13  1    4    4    0    0 -1.0603250386e+01 -6.3685244511e+00 +7.7107519073e+00 1.4575797798e+01 1.0566000000e-01 0.0000e+00 -1.0000e+00
      -13  1    4    4    0    0 +4.4675966860e+00 -1.7358824011e+00 +6.7072153165e+00 8.2444289794e+00 1.0566000000e-01 0.0000e+00 1.0000e+00
      -14  1    4    4    0    0 -2.7623694196e+00 +4.3522979706e-01 +4.2433257133e+01 4.2525303299e+01 0.0000000000e+00 0.0000e+00 1.0000e+00
<mgrwt>
<rscale>  0 0.79140180E+02</rscale>
<asrwt>0</asrwt>
<pdfrwt beam="1">  1        1 0.38379785E-02 0.79140180E+02</pdfrwt>
<pdfrwt beam="2">  1       -2 0.96561681E-02 0.79140180E+02</pdfrwt>
<totfact> 0.12064513E+05</totfact>
</mgrwt>
</event>
<event>
 8      1 +5.0320763e-08 8.00832100e+01 7.81860800e-03 1.32881500e-01
       -2 -1    0    0    0  501 -0.0000000000e+00 +0.0000000000e+00 +7.5972947062e+00 7.5972951342e+00 2.5500000000e-03 0.0000e+00 1.0000e+00
        1 -1    0    0  501    0 +0.0000000000e+00 -0.0000000000e+00 -2.1103958646e+02 2.1103958652e+02 5.0400000000e-03 0.0000e+00 -1.0000e+00
      -24  2    1    2    0    0 +8.8817841970e-16 -3.5527136788e-15 -2.0344229175e+02 2.1863688165e+02 8.0083206388e+01 0.0000e+00 0.0000e+00
       66  2    3    3    0    0 +6.8347728663e+00 -2.8057506574e+01 -6.4852520630e+01 7.7070382724e+01 3.0000944415e+01 0.0000e+00 0.0000e+00
       13  1    3    3    0    0 -6.8347728663e+00 +2.8057506574e+01 -1.3858977112e+02 1.4156649893e+02 1.0566000000e-01 0.0000e+00 -1.0000e+00
       13  1    4    4    0    0 -7.5467318862e-01 -8.2928901145e+00 -3.1788476207e+01 3.2861222462e+01 1.0566000000e-01 0.0000e+00 -1.0000e+00
      -13  1    4    4    0    0 +1.2379573738e+01 -1.9435357077e+01 -2.0814571001e+01 3.1052286238e+01 1.0566000000e-01 0.0000e+00 1.0000e+00
      -14  1    4    4    0    0 -4.7901276828e+00 -3.2925938259e-01 -1.2249473422e+01 1.3156874023e+01 0.0000000000e+00 0.0000e+00 1.0000e+00
<mgrwt>
<rscale>  0 0.80083206E+02</rscale>
<asrwt>0</asrwt>
<pdfrwt beam="1">  1        1 0.32467624E-01 0.80083206E+02</pdfrwt>
<pdfrwt beam="2">  1       -2 0.11688148E-02 0.80083206E+02</pdfrwt>
<totfact> 0.16802664E+05</totfact>
</mgrwt>
</event>
<event>
 8      1 +5.0320763e-08 8.13061800e+01 7.81860800e-03 1.32538500e-01
        3 -1    0    0  501    0 +0.0000000000e+00 +0.0000000000e+00 +5.4790194864e+01 5.4790287956e+01 1.0100000000e-01 0.0000e+00 -1.0000e+00
       -2 -1    0    0    0  501 -0.0000000000e+00 -0.0000000000e+00 -3.0163606598e+01 3.0163606705e+01 2.5500000000e-03 0.0000e+00 1.0000e+00
      -24  2    1    2    0    0 +8.8817841970e-16 -7.1054273576e-15 +2.4626588267e+01 8.4953894661e+01 8.1306182843e+01 0.0000e+00 0.0000e+00
       66  2    3    3    0    0 -5.5629990104e+00 +3.4673936623e+01 +1.4187747862e+01 4.8317718660e+01 3.0001348439e+01 0.0000e+00 0.0000e+00
       13  1    3    3    0    0 +5.5629990104e+00 -3.4673936623e+01 +1.0438840405e+01 3.6636176001e+01 1.0566000000e-01 0.0000e+00 -1.0000e+00
       13  1    4    4    0    0 -8.6562284033e+00 +1.0792058356e+01 +9.7563130574e+00 1.6929135307e+01 1.0566000000e-01 0.0000e+00 1.0000e+00
      -13  1    4    4    0    0 -3.0631630451e+00 -1.2462816226e+00 +4.4150543624e+00 5.5172506543e+00 1.0566000000e-01 0.0000e+00 -1.0000e+00
      -14  1    4    4    0    0 +6.1563924380e+00 +2.5128159890e+01 +1.6380442388e-02 2.5871332699e+01 0.0000000000e+00 0.0000e+00 1.0000e+00
<mgrwt>
<rscale>  0 0.81306183E+02</rscale>
<asrwt>0</asrwt>
<pdfrwt beam="1">  1        3 0.84292808E-02 0.81306183E+02</pdfrwt>
<pdfrwt beam="2">  1       -2 0.46405549E-02 0.81306183E+02</pdfrwt>
<totfact> 0.68505563E+04</totfact>
</mgrwt>
</event>
<event>
 8      1 +5.0320763e-08 7.98133600e+01 7.81860800e-03 1.32958200e-01
       -2 -1    0    0    0  501 -0.0000000000e+00 +0.0000000000e+00 +4.6557719997e+01 4.6557720067e+01 2.5500000000e-03 0.0000e+00 1.0000e+00
        1 -1    0    0  501    0 +0.0000000000e+00 -0.0000000000e+00 -3.4205783432e+01 3.4205783803e+01 5.0400000000e-03 0.0000e+00 -1.0000e+00
      -24  2    1    2    0    0 +3.5527136788e-15 -7.1054273576e-15 +1.2351936565e+01 8.0763503870e+01 7.9813364924e+01 0.0000e+00 0.0000e+00
       66  2    3    3    0    0 -1.1639396627e+01 +3.1880070755e+01 +1.1850714446e+01 4.6821246243e+01 2.9999586692e+01 0.0000e+00 0.0000e+00
       13  1    3    3    0    0 +1.1639396627e+01 -3.1880070755e+01 +5.0122211960e-01 3.3942257627e+01 1.0566000000e-01 0.0000e+00 -1.0000e+00
       13  1    4    4    0    0 +8.4908923668e+00 +1.2383875990e+01 +9.2470779700e+00 1.7634490430e+01 1.0566000000e-01 0.0000e+00 -1.0000e+00
      -13  1    4    4    0    0 -1.9838433735e+01 +1.8073563263e+01 +4.0455185402e+00 2.7140274987e+01 1.0566000000e-01 0.0000e+00 1.0000e+00
       14  1    4    4    0    0 -2.9185525908e-01 +1.4226315017e+00 -1.4418820644e+00 2.0464808256e+00 0.0000000000e+00 0.0000e+00 -1.0000e+00
<mgrwt>
<rscale>  0 0.79813365E+02</rscale>
<asrwt>0</asrwt>
<pdfrwt beam="1">  1        1 0.52624283E-02 0.79813365E+02</pdfrwt>
<pdfrwt beam="2">  1       -2 0.71627262E-02 0.79813365E+02</pdfrwt>
<totfact> 0.12455022E+05</totfact>
</mgrwt>
</event>
<event>
 8      1 +5.0320763e-08 9.20072600e+01 7.81860800e-03 1.29806200e-01
        1 -1    0    0  501    0 +0.0000000000e+00 +0.0000000000e+00 +5.2472393547e+00 5.2472417752e+00 5.0400000000e-03 0.0000e+00 -1.0000e+00
       -2 -1    0    0    0  501 -0.0000000000e+00 -0.0000000000e+00 -4.0332324816e+02 4.0332324817e+02 2.5500000000e-03 0.0000e+00 1.0000e+00
      -24  2    1    2    0    0 +0.0000000000e+00 -3.5527136788e-15 -3.9807600880e+02 4.0857048994e+02 9.2007263116e+01 0.0000e+00 0.0000e+00
       66  2    3    3    0    0 -2.3803064678e+01 +2.4710785238e+01 -3.2078140446e+02 3.2400290857e+02 2.9999441934e+01 0.0000e+00 0.0000e+00
       13  1    3    3    0    0 +2.3803064678e+01 -2.4710785238e+01 -7.7294604340e+01 8.4567581373e+01 1.0566000000e-01 0.0000e+00 -1.0000e+00
       13  1    4    4    0    0 -9.9915778134e+00 +5.4684545191e-02 -6.4036376725e+01 6.4811290110e+01 1.0566000000e-01 0.0000e+00 -1.0000e+00
      -13  1    4    4    0    0 -1.1329760266e+01 +4.6945622611e+00 -1.5454314015e+02 1.5502901572e+02 1.0566000000e-01 0.0000e+00 1.0000e+00
       14  1    4    4    0    0 -2.4817265980e+00 +1.9961538431e+01 -1.0220188758e+02 1.0416260274e+02 0.0000000000e+00 0.0000e+00 -1.0000e+00
<mgrwt>
<rscale>  0 0.92007263E+02</rscale>
<asrwt>0</asrwt>
<pdfrwt beam="1">  1        1 0.80726810E-03 0.92007263E+02</pdfrwt>
<pdfrwt beam="2">  1       -2 0.62049706E-01 0.92007263E+02</pdfrwt>
<totfact> 0.40867252E+04</totfact>
</mgrwt>
</event>
<event>
 8      1 +5.0320763e-08 7.98206000e+01 7.81860800e-03 1.32956100e-01
       -1 -1    0    0    0  501 -0.0000000000e+00 +0.0000000000e+00 +1.5444045411e+01 1.5444046234e+01 5.0400000000e-03 0.0000e+00 1.0000e+00
        2 -1    0    0  501    0 +0.0000000000e+00 -0.0000000000e+00 -1.0313567281e+02 1.0313567284e+02 2.5500000000e-03 0.0000e+00 -1.0000e+00
       24  2    1    2    0    0 -3.5527136788e-15 +0.0000000000e+00 -8.7691627398e+01 1.1857971908e+02 7.9820600475e+01 0.0000e+00 0.0000e+00
       66  2    3    3    0    0 -2.0528629510e+01 +1.9828638095e+01 -7.8227533691e+01 8.8510137236e+01 2.9998297416e+01 0.0000e+00 0.0000e+00
      -13  1    3    3    0    0 +2.0528629510e+01 -1.9828638095e+01 -9.4640937077e+00 3.0069581839e+01 1.0566000000e-01 0.0000e+00 1.0000e+00
       13  1    4    4    0    0 -1.9382844362e+01 +5.7523179401e+00 -2.3045311853e+01 3.0657484888e+01 1.0566000000e-01 0.0000e+00 -1.0000e+00
      -13  1    4    4    0    0 -5.6061724317e+00 +7.7609311082e+00 -3.3041421346e+01 3.4400696354e+01 1.0566000000e-01 0.0000e+00 1.0000e+00
      -14  1    4    4    0    0 +4.4603872835e+00 +6.3153890464e+00 -2.2140800492e+01 2.3451955994e+01 0.0000000000e+00 0.0000e+00 1.0000e+00
<mgrwt>
<rscale>  0 0.79820600E+02</rscale>
<asrwt>0</asrwt>
<pdfrwt beam="1">  1        2 0.15867026E-01 0.79820600E+02</pdfrwt>
<pdfrwt beam="2">  1       -1 0.23760071E-02 0.79820600E+02</pdfrwt>
<totfact> 0.17988352E+05</totfact>
</mgrwt>
</event>
<event>
 8      1 +5.0320763e-08 7.88250600e+01 7.81860800e-03 1.33241900e-01
        1 -1    0    0  501    0 +0.0000000000e+00 +0.0000000000e+00 +7.1219346588e+01 7.1219346767e+01 5.0400000000e-03 0.0000e+00 -1.0000e+00
       -2 -1    0    0    0  501 -0.0000000000e+00 -0.0000000000e+00 -2.1810750417e+01 2.1810750566e+01 2.5500000000e-03 0.0000e+00 1.0000e+00
      -24  2    1    2    0    0 +0.0000000000e+00 +0.0000000000e+00 +4.9408596172e+01 9.3030097333e+01 7.8825057146e+01 0.0000e+00 0.0000e+00
       66  2    3    3    0    0 -1.6933475964e+01 +2.3287221726e+01 +7.6074429459e+00 4.2271995723e+01 3.0000185505e+01 0.0000e+00 0.0000e+00
       13  1    3    3    0    0 +1.6933475964e+01 -2.3287221726e+01 +4.1801153226e+01 5.0758101609e+01 1.0566000000e-01 0.0000e+00 -1.0000e+00
       13  1    4    4    0    0 -6.2826526966e+00 +5.6283418652e+00 -3.9941722357e+00 9.3335166439e+00 1.0566000000e-01 0.0000e+00 -1.0000e+00
      -13  1    4    4    0    0 -1.5144295283e+01 +1.9366048924e+01 +5.5379507625e+00 2.5200666523e+01 1.0566000000e-01 0.0000e+00 1.0000e+00
       14  1    4    4    0    0 +4.4934720155e+00 -1.7071690632e+00 +6.0636644190e+00 7.7378125559e+00 0.0000000000e+00 0.0000e+00 -1.0000e+00
<mgrwt>
<rscale>  0 0.78825057E+02</rscale>
<asrwt>0</asrwt>
<pdfrwt beam="1">  1        1 0.10956823E-01 0.78825057E+02</pdfrwt>
<pdfrwt beam="2">  1       -2 0.33555001E-02 0.78825057E+02</pdfrwt>
<totfact> 0.14482608E+05</totfact>
</mgrwt>
</event>
<event>
 8      1 +5.0320763e-08 8.10680600e+01 7.81860800e-03 1.32604700e-01
        2 -1    0    0  501    0 +0.0000000000e+00 +0.0000000000e+00 +3.2130663585e+02 3.2130663586e+02 2.5500000000e-03 0.0000e+00 -1.0000e+00
       -1 -1    0    0    0  501 -0.0000000000e+00 -0.0000000000e+00 -5.1135177274e+00 5.1135202111e+00 5.0400000000e-03 0.0000e+00 1.0000e+00
       24  2    1    2    0    0 -1.7763568394e-15 +0.0000000000e+00 +3.1619311812e+02 3.2642015607e+02 8.1068059934e+01 0.0000e+00 0.0000e+00
       66  2    3    3    0    0 -1.2512722038e+01 +1.2212065942e+00 +3.1119516118e+02 3.1289054795e+02 3.0000118208e+01 0.0000e+00 0.0000e+00
      -13  1    3    3    0    0 +1.2512722038e+01 -1.2212065942e+00 +4.9979569374e+00 1.3529608122e+01 1.0566000000e-01 0.0000e+00 1.0000e+00
       13  1    4    4    0    0 +7.0730320800e+00 -7.6105758413e-01 +1.5485853750e+02 1.5502188488e+02 1.0566000000e-01 0.0000e+00 -1.0000e+00
      -13  1    4    4    0    0 -8.0023458078e+00 -1.3432800620e+00 +3.4689055275e+01 3.5625603990e+01 1.0566000000e-01 0.0000e+00 1.0000e+00
       14  1    4    4    0    0 -1.1583408310e+01 +3.3255442404e+00 +1.2164756841e+02 1.2224305908e+02 0.0000000000e+00 0.0000e+00 -1.0000e+00
<mgrwt>
<rscale>  0 0.81068060E+02</rscale>
<asrwt>0</asrwt>
<pdfrwt beam="1">  1        2 0.49431786E-01 0.81068060E+02</pdfrwt>
<pdfrwt beam="2">  1       -1 0.78669530E-03 0.81068060E+02</pdfrwt>
<totfact> 0.25241739E+05</totfact>
</mgrwt>
</event>
<event>
 8      1 +5.0320763e-08 7.80171100e+01 7.81860800e-03 1.33477500e-01
        4 -1    0    0  501    0 +0.0000000000e+00 +0.0000000000e+00 +2.6654928371e+02 2.6655230921e+02 1.2700000000e+00 0.0000e+00 -1.0000e+00
       -3 -1    0    0    0  501 -0.0000000000e+00 -0.0000000000e+00 -5.7067637080e+00 5.7076574020e+00 1.0100000000e-01 0.0000e+00 1.0000e+00
       24  2    1    2    0    0 +3.5527136788e-15 +0.0000000000e+00 +2.6084252000e+02 2.7225996661e+02 7.8017108250e+01 0.0000e+00 0.0000e+00
       66  2    3    3    0    0 +1.8380829502e+01 +2.7646137947e+01 +1.4382298726e+02 1.5062220092e+02 2.9997198339e+01 0.0000e+00 0.0000e+00
      -13  1    3    3    0    0 -1.8380829502e+01 -2.7646137947e+01 +1.1701953274e+02 1.2163776569e+02 1.0566000000e-01 0.0000e+00 1.0000e+00
       13  1    4    4    0    0 +1.0079703020e+01 +1.1804650501e+01 +4.5924023313e+01 4.8476564108e+01 1.0566000000e-01 0.0000e+00 -1.0000e+00
      -13  1    4    4    0    0 +1.4508355991e+01 +1.6480054323e+01 +6.3592848821e+01 6.7276639105e+01 1.0566000000e-01 0.0000e+00 1.0000e+00
      -14  1    4    4    0    0 -6.2072295093e+00 -6.3856687771e-01 +3.4306115129e+01 3.4868997707e+01 0.0000000000e+00 0.0000e+00 1.0000e+00
<mgrwt>
<rscale>  0 0.78017108E+02</rscale>
<asrwt>0</asrwt>
<pdfrwt beam="1">  1        4 0.41018675E-01 0.78017108E+02</pdfrwt>
<pdfrwt beam="2">  1       -3 0.87803407E-03 0.78017108E+02</pdfrwt>
<totfact> 0.31036791E+04</totfact>
</mgrwt>
</event>
<event>
 8      1 +5.0320763e-08 7.72679200e+01 7.81860800e-03 1.33698800e-01
        2 -1    0    0  501    0 +0.0000000000e+00 +0.0000000000e+00 +3.6080331003e+01 3.6080331094e+01 2.5500000000e-03 0.0000e+00 -1.0000e+00
       -1 -1    0    0    0  501 -0.0000000000e+00 -0.0000000000e+00 -4.1368322159e+01 4.1368322466e+01 5.0400000000e-03 0.0000e+00 1.0000e+00
       24  2    1    2    0    0 +0.0000000000e+00 +0.0000000000e+00 -5.2879911552e+00 7.7448653559e+01 7.7267917583e+01 0.0000e+00 0.0000e+00
       66  2    3    3    0    0 -1.6000700253e+01 +2.1146047734e+01 +1.6324271791e+01 4.3239315403e+01 2.9999646725e+01 0.0000e+00 0.0000e+00
      -13  1    3    3    0    0 +1.6000700253e+01 -2.1146047734e+01 -2.1612262946e+01 3.4209338156e+01 1.0566000000e-01 0.0000e+00 1.0000e+00
       13  1    4    4    0    0 -9.8676477071e+00 -1.6739497210e+00 +1.6522520485e+01 1.9317800758e+01 1.0566000000e-01 0.0000e+00 -1.0000e+00
      -13  1    4    4    0    0 -4.8498354929e+00 +1.3071332206e+01 -1.4136357461e+00 1.4013927358e+01 1.0566000000e-01 0.0000e+00 1.0000e+00
       14  1    4    4    0    0 -1.2832170533e+00 +9.7486652495e+00 +1.2153870523e+00 9.9075872865e+00 0.0000000000e+00 0.0000e+00 -1.0000e+00
<mgrwt>
<rscale>  0 0.77267918E+02</rscale>
<asrwt>0</asrwt>
<pdfrwt beam="1">  1        2 0.55508202E-02 0.77267918E+02</pdfrwt>
<pdfrwt beam="2">  1       -1 0.63643573E-02 0.77267918E+02</pdfrwt>
<totfact> 0.15369444E+05</totfact>
</mgrwt>
</event>
<event>
 8      1 +5.0320763e-08 7.97019400e+01 7.81860800e-03 1.32989900e-01
       -4 -1    0    0    0  501 -0.0000000000e+00 +0.0000000000e+00 +6.9526927692e+00 7.0677320792e+00 1.2700000000e+00 0.0000e+00 1.0000e+00
        3 -1    0    0  501    0 +0.0000000000e+00 -0.0000000000e+00 -2.2648302856e+02 2.2648305108e+02 1.0100000000e-01 0.0000e+00 -1.0000e+00
      -24  2    1    2    0    0 +3.5527136788e-15 +0.0000000000e+00 -2.1953033579e+02 2.3355078316e+02 7.9701944657e+01 0.0000e+00 0.0000e+00
       66  2    3    3    0    0 +2.4726599698e+01 -2.3184101599e+01 -1.1186655549e+02 1.2067736710e+02 2.9999889902e+01 0.0000e+00 0.0000e+00
       13  1    3    3    0    0 -2.4726599698e+01 +2.3184101599e+01 -1.0766378030e+02 1.1287341606e+02 1.0566000000e-01 0.0000e+00 -1.0000e+00
       13  1    4    4    0    0 +7.2109046049e+00 +3.4503059064e+00 -6.5261911202e+00 1.0320081911e+01 1.0566000000e-01 0.0000e+00 -1.0000e+00
      -13  1    4    4    0    0 +4.0726114091e+00 -1.8560985875e+00 -1.0463027305e+01 1.1380569849e+01 1.0566000000e-01 0.0000e+00 1.0000e+00
       14  1    4    4    0    0 +1.3443083684e+01 -2.4778308918e+01 -9.4877337063e+01 9.8976715342e+01 0.0000000000e+00 0.0000e+00 -1.0000e+00
<mgrwt>
<rscale>  0 0.79701945E+02</rscale>
<asrwt>0</asrwt>
<pdfrwt beam="1">  1        3 0.34843595E-01 0.79701945E+02</pdfrwt>
<pdfrwt beam="2">  1       -4 0.10787683E-02 0.79701945E+02</pdfrwt>
<totfact> 0.34845403E+04</totfact>
</mgrwt>
</event>
<event>
 8      1 +5.0320763e-08 8.03394400e+01 7.81860800e-03 1.32809100e-01
        2 -1    0    0  501    0 +0.0000000000e+00 +0.0000000000e+00 +1.2149789185e+01 1.2149789453e+01 2.5500000000e-03 0.0000e+00 -1.0000e+00
       -1 -1    0    0    0  501 -0.0000000000e+00 -0.0000000000e+00 -1.3280941161e+02 1.3280941170e+02 5.0400000000e-03 0.0000e+00 1.0000e+00
       24  2    1    2    0    0 +0.0000000000e+00 +0.0000000000e+00 -1.2065962242e+02 1.4495920116e+02 8.0339439360e+01 0.0000e+00 0.0000e+00
       66  2    3    3    0    0 +2.6962772699e+01 -6.2806387410e+00 -3.1390126070e+01 5.1495348905e+01 2.9999890158e+01 0.0000e+00 0.0000e+00
      -13  1    3    3    0    0 -2.6962772699e+01 +6.2806387410e+00 -8.9269496351e+01 9.3463852250e+01 1.0566000000e-01 0.0000e+00 1.0000e+00
       13  1    4    4    0    0 -9.4289467251e-01 -7.0396872583e+00 -1.4148228264e-01 7.1047468872e+00 1.0566000000e-01 0.0000e+00 -1.0000e+00
      -13  1    4    4    0    0 +1.7062819832e+00 -2.7527518979e+00 -9.8868572504e+00 1.0404333306e+01 1.0566000000e-01 0.0000e+00 1.0000e+00
       14  1    4    4    0    0 +2.6199385389e+01 +3.5118004152e+00 -2.1361786537e+01 3.3986268712e+01 0.0000000000e+00 0.0000e+00 -1.0000e+00
<mgrwt>
<rscale>  0 0.80339439E+02</rscale>
<asrwt>0</asrwt>
<pdfrwt beam="1">  1        2 0.18691984E-02 0.80339439E+02</pdfrwt>
<pdfrwt beam="2">  1       -1 0.20432216E-01 0.80339439E+02</pdfrwt>
<totfact> 0.10998943E+05</totfact>
</mgrwt>
</event>
<event>
 8      1 +5.0320763e-08 8.17646100e+01 7.81860800e-03 1.32411700e-01
        4 -1    0    0  501    0 +0.0000000000e+00 +0.0000000000e+00 +2.3477442808e+01 2.3511767709e+01 1.2700000000e+00 0.0000e+00 -1.0000e+00
       -3 -1    0    0    0  501 -0.0000000000e+00 -0.0000000000e+00 -7.1120846203e+01 7.1120917919e+01 1.0100000000e-01 0.0000e+00 1.0000e+00
       24  2    1    2    0    0 +3.5527136788e-15 +0.0000000000e+00 -4.7643403395e+01 9.4632685628e+01 8.1764609105e+01 0.0000e+00 0.0000e+00
       66  2    3    3    0    0 -2.2960449998e+01 +3.7198782328e+00 +3.8244850626e+00 3.8152826701e+01 2.9999862351e+01 0.0000e+00 0.0000e+00
      -13  1    3    3    0    0 +2.2960449998e+01 -3.7198782328e+00 -5.1467888457e+01 5.6479858927e+01 1.0566000000e-01 0.0000e+00 1.0000e+00
       13  1    4    4    0    0 -9.2805510369e+00 -3.1639293913e+00 +1.4495098239e+00 9.9121803608e+00 1.0566000000e-01 0.0000e+00 -1.0000e+00
      -13  1    4    4    0    0 -6.0509742793e+00 +5.9015719035e+00 -1.0355084320e+01 1.3367190280e+01 1.0566000000e-01 0.0000e+00 1.0000e+00
      -14  1    4    4    0    0 -7.6289246819e+00 +9.8223572054e-01 +1.2730059559e+01 1.4873456060e+01 0.0000000000e+00 0.0000e+00 1.0000e+00
<mgrwt>
<rscale>  0 0.81764609E+02</rscale>
<asrwt>0</asrwt>
<pdfrwt beam="1">  1        4 0.36154269E-02 0.81764609E+02</pdfrwt>
<pdfrwt beam="2">  1       -3 0.10941691E-01 0.81764609E+02</pdfrwt>
<totfact> 0.41782293E+04</totfact>
</mgrwt>
</event>
<event>
 8      1 +5.0320763e-08 1.04127900e+02 7.81860800e-03 1.27184700e-01
       -2 -1    0    0    0  501 -0.0000000000e+00 +0.0000000000e+00 +3.9334114312e+01 3.9334114395e+01 2.5500000000e-03 0.0000e+00 1.0000e+00
        1 -1    0    0  501    0 +0.0000000000e+00 -0.0000000000e+00 -6.8913574278e+01 6.8913574462e+01 5.0400000000e-03 0.0000e+00 -1.0000e+00
      -24  2    1    2    0    0 +3.5527136788e-15 +1.7763568394e-15 -2.9579459965e+01 1.0824768886e+02 1.0412789103e+02 0.0000e+00 0.0000e+00
       66  2    3    3    0    0 -2.7155671310e+01 -1.4294461354e+01 +2.2002758724e+01 4.8226871147e+01 2.9999126644e+01 0.0000e+00 0.0000e+00
       13  1    3    3    0    0 +2.7155671310e+01 +1.4294461354e+01 -5.1582218689e+01 6.0020817711e+01 1.0566000000e-01 0.0000e+00 -1.0000e+00
       13  1    4    4    0    0 -9.1710689326e+00 +4.8334556641e+00 +4.1273815486e+00 1.1158729386e+01 1.0566000000e-01 0.0000e+00 -1.0000e+00
      -13  1    4    4    0    0 -1.8131099773e+01 -1.9770485529e+01 +2.0878775241e+01 3.3993283111e+01 1.0566000000e-01 0.0000e+00 1.0000e+00
      -14  1    4    4    0    0 +1.4649739544e-01 +6.4256851068e-01 -3.0033980658e+00 3.0748586503e+00 0.0000000000e+00 0.0000e+00 1.0000e+00
<mgrwt>
<rscale>  0 0.10412789E+03</rscale>
<asrwt>0</asrwt>
<pdfrwt beam="1">  1        1 0.10602088E-01 0.10412789E+03</pdfrwt>
<pdfrwt beam="2">  1       -2 0.60514022E-02 0.10412789E+03</pdfrwt>
<totfact> 0.66118487E+04</totfact>
</mgrwt>
</event>
<event>
 8      1 +5.0320763e-08 8.03856100e+01 7.81860800e-03 1.32796100e-01
        2 -1    0    0  501    0 +0.0000000000e+00 +0.0000000000e+00 +1.5032748292e+01 1.5032748509e+01 2.5500000000e-03 0.0000e+00 -1.0000e+00
       -1 -1    0    0    0  501 -0.0000000000e+00 -0.0000000000e+00 -1.0746282743e+02 1.0746282754e+02 5.0400000000e-03 0.0000e+00 1.0000e+00
       24  2    1    2    0    0 +0.0000000000e+00 +0.0000000000e+00 -9.2430079134e+01 1.2249557605e+02 8.0385612045e+01 0.0000e+00 0.0000e+00
       66  2    3    3    0    0 +1.8790204804e+01 -2.2176422691e+01 -2.4063826667e+01 4.8206807316e+01 2.9999383291e+01 0.0000e+00 0.0000e+00
      -13  1    3    3    0    0 -1.8790204804e+01 +2.2176422691e+01 -6.8366252467e+01 7.4288768736e+01 1.0566000000e-01 0.0000e+00 1.0000e+00
       13  1    4    4    0    0 +1.3954736606e+01 -1.9313254785e+01 -3.8472511632e+00 2.4136051659e+01 1.0566000000e-01 0.0000e+00 -1.0000e+00
      -13  1    4    4    0    0 +3.8241852682e+00 -2.5250216499e+00 -2.1736237995e+01 2.2214304704e+01 1.0566000000e-01 0.0000e+00 1.0000e+00
      -14  1    4    4    0    0 +1.0112829298e+00 -3.3814625687e-01 +1.5196624911e+00 1.8564509533e+00 0.0000000000e+00 0.0000e+00 1.0000e+00
<mgrwt>
<rscale>  0 0.80385612E+02</rscale>
<asrwt>0</asrwt>
<pdfrwt beam="1">  1        2 0.23127306E-02 0.80385612E+02</pdfrwt>
<pdfrwt beam="2">  1       -1 0.16532742E-01 0.80385612E+02</pdfrwt>
<totfact> 0.11530033E+05</totfact>
</mgrwt>
</event>
<event>
 8      1 +5.0320763e-08 7.97251400e+01 7.81860800e-03 1.32983300e-01
       -2 -1    0    0    0  501 -0.0000000000e+00 +0.0000000000e+00 +2.6962554274e+00 2.6962566333e+00 2.5500000000e-03 0.0000e+00 1.0000e+00
        1 -1    0    0  501    0 +0.0000000000e+00 -0.0000000000e+00 -5.8934487277e+02 5.8934487280e+02 5.0400000000e-03 0.0000e+00 -1.0000e+00
      -24  2    1    2    0    0 +0.0000000000e+00 +0.0000000000e+00 -5.8664861735e+02 5.9204112943e+02 7.9725144721e+01 0.0000e+00 0.0000e+00
       66  2    3    3    0    0 +1.9271340026e+01 +2.0768662299e+00 -5.4426759814e+02 5.4543791202e+02 2.9993325341e+01 0.0000e+00 0.0000e+00
       13  1    3    3    0    0 -1.9271340026e+01 -2.0768662299e+00 -4.2381019209e+01 4.6603217410e+01 1.0566000000e-01 0.0000e+00 -1.0000e+00
       13  1    4    4    0    0 +1.2042697087e+00 +5.0236104076e+00 -3.6954951607e+02 3.6958563678e+02 1.0566000000e-01 0.0000e+00 -1.0000e+00
      -13  1    4    4    0    0 +1.0337014956e+01 -1.4730108271e+00 -1.3222595764e+02 1.3263762165e+02 1.0566000000e-01 0.0000e+00 1.0000e+00
       14  1    4    4    0    0 +7.7300553622e+00 -1.4737333506e+00 -4.2492124430e+01 4.3214653585e+01 0.0000000000e+00 0.0000e+00 -1.0000e+00
<mgrwt>
<rscale>  0 0.79725145E+02</rscale>
<asrwt>0</asrwt>
<pdfrwt beam="1">  1        1 0.90668340E-01 0.79725145E+02</pdfrwt>
<pdfrwt beam="2">  1       -2 0.41480909E-03 0.79725145E+02</pdfrwt>
<totfact> 0.20093268E+05</totfact>
</mgrwt>
</event>
<event>
 8      1 +5.0320763e-08 7.92798200e+01 7.81860800e-03 1.33110800e-01
       -1 -1    0    0    0  501 -0.0000000000e+00 +0.0000000000e+00 +3.9178213849e+00 3.9178246267e+00 5.0400000000e-03 0.0000e+00 1.0000e+00
        2 -1    0    0  501    0 +0.0000000000e+00 -0.0000000000e+00 -4.0107034017e+02 4.0107034017e+02 2.5500000000e-03 0.0000e+00 -1.0000e+00
       24  2    1    2    0    0 +0.0000000000e+00 +0.0000000000e+00 -3.9715251878e+02 4.0498816480e+02 7.9279823755e+01 0.0000e+00 0.0000e+00
       66  2    3    3    0    0 +2.2829647695e+01 -2.4938330049e+01 -2.4349639087e+02 2.4765625473e+02 3.0000250301e+01 0.0000e+00 0.0000e+00
      -13  1    3    3    0    0 -2.2829647695e+01 +2.4938330049e+01 -1.5365612791e+02 1.5733191007e+02 1.0566000000e-01 0.0000e+00 1.0000e+00
       13  1    4    4    0    0 +1.8905408726e+01 -2.1428608651e+01 -2.1295476657e+02 2.1486354627e+02 1.0566000000e-01 0.0000e+00 -1.0000e+00
      -13  1    4    4    0    0 +6.6089620445e+00 -3.3897908160e-01 -2.5031938818e+01 2.5892130293e+01 1.0566000000e-01 0.0000e+00 1.0000e+00
       14  1    4    4    0    0 -2.6847230757e+00 -3.1707423164e+00 -5.5096854883e+00 6.9005781649e+00 0.0000000000e+00 0.0000e+00 -1.0000e+00
<mgrwt>
<rscale>  0 0.79279824E+02</rscale>
<asrwt>0</asrwt>
<pdfrwt beam="1">  1        2 0.61703097E-01 0.79279824E+02</pdfrwt>
<pdfrwt beam="2">  1       -1 0.60274232E-03 0.79279824E+02</pdfrwt>
<totfact> 0.28955663E+05</totfact>
</mgrwt>
</event>
<event>
 8      1 +5.0320763e-08 7.85671800e+01 7.81860800e-03 1.33316700e-01
        4 -1    0    0  501    0 +0.0000000000e+00 +0.0000000000e+00 +1.8451312075e+02 1.8451749139e+02 1.2700000000e+00 0.0000e+00 -1.0000e+00
       -3 -1    0    0    0  501 -0.0000000000e+00 -0.0000000000e+00 -8.3610313325e+00 8.3616413427e+00 1.0100000000e-01 0.0000e+00 1.0000e+00
       24  2    1    2    0    0 +0.0000000000e+00 +0.0000000000e+00 +1.7615208942e+02 1.9287913273e+02 7.8567176592e+01 0.0000e+00 0.0000e+00
       66  2    3    3    0    0 +2.1983008270e+01 -3.9052835301e+00 +1.6241323617e+02 1.6666327599e+02 3.0001406448e+01 0.0000e+00 0.0000e+00
      -13  1    3    3    0    0 -2.1983008270e+01 +3.9052835301e+00 +1.3738853244e+01 2.6215856738e+01 1.0566000000e-01 0.0000e+00 1.0000e+00
       13  1    4    4    0    0 +1.6642158363e+01 -9.7264498371e+00 +1.3268501790e+02 1.3407792660e+02 1.0566000000e-01 0.0000e+00 -1.0000e+00
      -13  1    4    4    0    0 +6.9936536360e+00 +2.6836363700e+00 +9.7550612506e+00 1.2299816234e+01 1.0566000000e-01 0.0000e+00 1.0000e+00
      -14  1    4    4    0    0 -1.6528037291e+00 +3.1375299370e+00 +1.9973157022e+01 2.0285533163e+01 0.0000000000e+00 0.0000e+00 1.0000e+00
<mgrwt>
<rscale>  0 0.78567177E+02</rscale>
<asrwt>0</asrwt>
<pdfrwt beam="1">  1        4 0.28394390E-01 0.78567177E+02</pdfrwt>
<pdfrwt beam="2">  1       -3 0.12863615E-02 0.78567177E+02</pdfrwt>
<totfact> 0.35594513E+04</totfact>
</mgrwt>
</event>
<event>
 8      1 +5.0320763e-08 8.01045800e+01 7.81860800e-03 1.32875500e-01
       -2 -1    0    0    0  501 -0.0000000000e+00 +0.0000000000e+00 +3.7684074848e+02 3.7684074849e+02 2.5500000000e-03 0.0000e+00 1.0000e+00
        1 -1    0    0  501    0 +0.0000000000e+00 -0.0000000000e+00 -4.2569317153e+00 4.2569346989e+00 5.0400000000e-03 0.0000e+00 -1.0000e+00
      -24  2    1    2    0    0 +0.0000000000e+00 +0.0000000000e+00 +3.7258381677e+02 3.8109768319e+02 8.0104579245e+01 0.0000e+00 0.0000e+00
       66  2    3    3    0    0 -6.1423498249e+00 +1.3608781678e+01 +3.6004186472e+02 3.6159796203e+02 3.0000239853e+01 0.0000e+00 0.0000e+00
       13  1    3    3    0    0 +6.1423498249e+00 -1.3608781678e+01 +1.2541952041e+01 1.9499721156e+01 1.0566000000e-01 0.0000e+00 -1.0000e+00
       13  1    4    4    0    0 +3.6143102442e+00 +1.0662823009e+01 +1.6666345068e+02 1.6704333567e+02 1.0566000000e-01 0.0000e+00 -1.0000e+00
      -13  1    4    4    0    0 +7.5779973523e-01 +8.9612441558e+00 +6.7950773728e+01 6.8543394805e+01 1.0566000000e-01 0.0000e+00 1.0000e+00
      -14  1    4    4    0    0 -1.0514459804e+01 -6.0152854867e+00 +1.2542764031e+02 1.2601123156e+02 0.0000000000e+00 0.0000e+00 1.0000e+00
<mgrwt>
<rscale>  0 0.80104579E+02</rscale>
<asrwt>0</asrwt>
<pdfrwt beam="1">  1        1 0.65491293E-03 0.80104579E+02</pdfrwt>
<pdfrwt beam="2">  1       -2 0.57975489E-01 0.80104579E+02</pdfrwt>
<totfact> 0.61220862E+04</totfact>
</mgrwt>
</event>
<event>
 8      1 +5.0320763e-08 7.98009200e+01 7.81860800e-03 1.32961700e-01
       -2 -1    0    0    0  501 -0.0000000000e+00 +0.0000000000e+00 +7.1817638342e+00 7.1817642869e+00 2.5500000000e-03 0.0000e+00 1.0000e+00
        1 -1    0    0  501    0 +0.0000000000e+00 -0.0000000000e+00 -2.2167905517e+02 2.2167905523e+02 5.0400000000e-03 0.0000e+00 -1.0000e+00
      -24  2    1    2    0    0 +0.0000000000e+00 +0.0000000000e+00 -2.1449729134e+02 2.2886081952e+02 7.9800919283e+01 0.0000e+00 0.0000e+00
       66  2    3    3    0    0 +3.2662605690e+01 +6.0270519497e+00 -9.8298619061e+01 1.0800837325e+02 3.0000316949e+01 0.0000e+00 0.0000e+00
       13  1    3    3    0    0 -3.2662605690e+01 -6.0270519497e+00 -1.1619867228e+02 1.2085244627e+02 1.0566000000e-01 0.0000e+00 -1.0000e+00
       13  1    4    4    0    0 -1.8793962893e+00 +4.8994597318e+00 -9.2559208987e+00 1.0640492084e+01 1.0566000000e-01 0.0000e+00 -1.0000e+00
      -13  1    4    4    0    0 +1.6041693278e+00 +5.4082346799e+00 -8.0620940732e+00 9.8402686175e+00 1.0566000000e-01 0.0000e+00 1.0000e+00
       14  1    4    4    0    0 +3.2937832652e+01 -4.2806424620e+00 -8.0980604089e+01 8.7527612548e+01 0.0000000000e+00 0.0000e+00 -1.0000e+00
<mgrwt>
<rscale>  0 0.79800919E+02</rscale>
<asrwt>0</asrwt>
<pdfrwt beam="1">  1        1 0.34104465E-01 0.79800919E+02</pdfrwt>
<pdfrwt beam="2">  1       -2 0.11048869E-02 0.79800919E+02</pdfrwt>
<totfact> 0.17124140E+05</totfact>
</mgrwt>
</event>
<event>
 8      1 +5.0320763e-08 8.00030000e+01 7.81860800e-03 1.32904300e-01
        2 -1    0    0  501    0 +0.0000000000e+00 +0.0000000000e+00 +1.4362245778e+02 1.4362245780e+02 2.5500000000e-03 0.0000e+00 -1.0000e+00
       -1 -1    0    0    0  501 -0.0000000000e+00 -0.0000000000e+00 -1.1141155260e+01 1.1141156400e+01 5.0400000000e-03 0.0000e+00 1.0000e+00
       24  2    1    2    0    0 +0.0000000000e+00 +0.0000000000e+00 +1.3248130252e+02 1.5476361420e+02 8.0003004715e+01 0.0000e+00 0.0000e+00
       66  2    3    3    0    0 +2.8645702688e+01 -1.6942051746e+01 +5.8900450030e+01 7.4006184717e+01 3.0000716038e+01 0.0000e+00 0.0000e+00
      -13  1    3    3    0    0 -2.8645702688e+01 +1.6942051746e+01 +7.3580852485e+01 8.0757429481e+01 1.0566000000e-01 0.0000e+00 1.0000e+00
       13  1    4    4    0    0 -3.8054901267e-01 -2.6832040001e+00 +1.2452703325e+00 2.9843363573e+00 1.0566000000e-01 0.0000e+00 -1.0000e+00
      -13  1    4    4    0    0 +7.8156137102e+00 +7.1190870600e+00 +9.4343845520e+00 1.4169826892e+01 1.0566000000e-01 0.0000e+00 1.0000e+00
       14  1    4    4    0    0 +2.1210637990e+01 -2.1377934806e+01 +4.8220795146e+01 5.6852021468e+01 0.0000000000e+00 0.0000e+00 -1.0000e+00
<mgrwt>
<rscale>  0 0.80003005E+02</rscale>
<asrwt>0</asrwt>
<pdfrwt beam="1">  1        2 0.22095761E-01 0.80003005E+02</pdfrwt>
<pdfrwt beam="2">  1       -1 0.17140241E-02 0.80003005E+02</pdfrwt>
<totfact> 0.19751374E+05</totfact>
</mgrwt>
</event>
<event>
 8      1 +5.0320763e-08 7.99523500e+01 7.81860800e-03 1.32918700e-01
       -1 -1    0    0    0  501 -0.0000000000e+00 +0.0000000000e+00 +7.0453242231e+01 7.0453242411e+01 5.0400000000e-03 0.0000e+00 1.0000e+00
        2 -1    0    0  501    0 +0.0000000000e+00 -0.0000000000e+00 -2.2683051160e+01 2.2683051303e+01 2.5500000000e-03 0.0000e+00 -1.0000e+00
       24  2    1    2    0    0 +0.0000000000e+00 -8.8817841970e-16 +4.7770191071e+01 9.3136293714e+01 7.9952348633e+01 0.0000e+00 0.0000e+00
       66  2    3    3    0    0 +2.2829991724e+01 +7.3673110324e+00 -1.3883715935e+00 3.8436556592e+01 2.9999258542e+01 0.0000e+00 0.0000e+00
      -13  1    3    3    0    0 -2.2829991724e+01 -7.3673110324e+00 +4.9158562664e+01 5.4699737122e+01 1.0566000000e-01 0.0000e+00 1.0000e+00
       13  1    4    4    0    0 +2.8215557336e+00 -3.5482083638e+00 +2.4526832257e+00 5.1553640407e+00 1.0566000000e-01 0.0000e+00 -1.0000e+00
      -13  1    4    4    0    0 -5.4654345390e+00 +3.2039944594e+00 +3.1055555657e-01 6.3438288112e+00 1.0566000000e-01 0.0000e+00 1.0000e+00
       14  1    4    4    0    0 +2.5473870529e+01 +7.7115249368e+00 -4.1516103757e+00 2.6937363741e+01 0.0000000000e+00 0.0000e+00 -1.0000e+00
<mgrwt>
<rscale>  0 0.79952349E+02</rscale>
<asrwt>0</asrwt>
<pdfrwt beam="1">  1        2 0.34897002E-02 0.79952349E+02</pdfrwt>
<pdfrwt beam="2">  1       -1 0.10838960E-01 0.79952349E+02</pdfrwt>
<totfact> 0.12754496E+05</totfact>
</mgrwt>
</event>
<event>
 8      1 +5.0320763e-08 7.87980600e+01 7.81860800e-03 1.33249700e-01
       -1 -1    0    0    0  501 -0.0000000000e+00 +0.0000000000e+00 +3.4758867701e+00 3.4758904241e+00 5.0400000000e-03 0.0000e+00 1.0000e+00
        2 -1    0    0  501    0 +0.0000000000e+00 -0.0000000000e+00 -4.4658614861e+02 4.4658614862e+02 2.5500000000e-03 0.0000e+00 -1.0000e+00
       24  2    1    2    0    0 +0.0000000000e+00 +0.0000000000e+00 -4.4311026184e+02 4.5006203904e+02 7.8798063671e+01 0.0000e+00 0.0000e+00
       66  2    3    3    0    0 -3.0407706256e+01 -1.2933992701e+01 -2.9110493150e+02 2.9450642718e+02 3.0000628954e+01 0.0000e+00 0.0000e+00
      -13  1    3    3    0    0 +3.0407706256e+01 +1.2933992701e+01 -1.5200533034e+02 1.5555561187e+02 1.0566000000e-01 0.0000e+00 1.0000e+00
       13  1    4    4    0    0 -1.5543201632e+01 -6.0349015629e+00 -8.1126062694e+01 8.2821859229e+01 1.0566000000e-01 0.0000e+00 -1.0000e+00
      -13  1    4    4    0    0 +7.3145065178e-01 +5.9611310124e+00 -3.1766653577e+01 3.2329576962e+01 1.0566000000e-01 0.0000e+00 1.0000e+00
       14  1    4    4    0    0 -1.5595955276e+01 -1.2860222151e+01 -1.7821221523e+02 1.7935499098e+02 0.0000000000e+00 0.0000e+00 -1.0000e+00
<mgrwt>
<rscale>  0 0.78798064E+02</rscale>
<asrwt>0</asrwt>
<pdfrwt beam="1">  1        2 0.68705516E-01 0.78798064E+02</pdfrwt>
<pdfrwt beam="2">  1       -1 0.53475245E-03 0.78798064E+02</pdfrwt>
<totfact> 0.30524551E+05</totfact>
</mgrwt>
</event>
<event>
 8      1 +5.0320763e-08 8.05022400e+01 7.81860800e-03 1.32763200e-01
        1 -1    0    0  501    0 +0.0000000000e+00 +0.0000000000e+00 +5.2239565783e+02 5.2239565786e+02 5.0400000000e-03 0.0000e+00 -1.0000e+00
       -2 -1    0    0    0  501 -0.0000000000e+00 -0.0000000000e+00 -3.1013895030e+00 3.1013905513e+00 2.5500000000e-03 0.0000e+00 1.0000e+00
      -24  2    1    2    0    0 +0.0000000000e+00 +0.0000000000e+00 +5.1929426833e+02 5.2549704841e+02 8.0502240750e+01 0.0000e+00 0.0000e+00
       66  2    3    3    0    0 +3.2683196569e+01 -2.6292951264e+00 +3.6905895367e+02 3.7172525169e+02 3.0000782151e+01 0.0000e+00 0.0000e+00
       13  1    3    3    0    0 -3.2683196569e+01 +2.6292951264e+00 +1.5023531466e+02 1.5377179672e+02 1.0566000000e-01 0.0000e+00 -1.0000e+00
       13  1    4    4    0    0 +2.5899667858e+01 -8.1206380121e-01 +3.3650557072e+02 3.3750179634e+02 1.0566000000e-01 0.0000e+00 -1.0000e+00
      -13  1    4    4    0    0 +3.5685718797e+00 -1.3687039765e+00 +2.9565116078e+01 2.9811328528e+01 1.0566000000e-01 0.0000e+00 1.0000e+00
       14  1    4    4    0    0 +3.2149568311e+00 -4.4852734873e-01 +2.9882668717e+00 4.4121268233e+00 0.0000000000e+00 0.0000e+00 -1.0000e+00
<mgrwt>
<rscale>  0 0.80502241E+02</rscale>
<asrwt>0</asrwt>
<pdfrwt beam="1">  1        1 0.80368576E-01 0.80502241E+02</pdfrwt>
<pdfrwt beam="2">  1       -2 0.47713685E-03 0.80502241E+02</pdfrwt>
<totfact> 0.19384525E+05</totfact>
</mgrwt>
</event>
<event>
 8      1 +5.0320763e-08 7.99420400e+01 7.81860800e-03 1.32921600e-01
        4 -1    0    0  501    0 +0.0000000000e+00 +0.0000000000e+00 +8.1790015569e+01 8.1799874980e+01 1.2700000000e+00 0.0000e+00 -1.0000e+00
       -3 -1    0    0    0  501 -0.0000000000e+00 -0.0000000000e+00 -1.9527686084e+01 1.9527947275e+01 1.0100000000e-01 0.0000e+00 1.0000e+00
       24  2    1    2    0    0 -1.3322676296e-15 +0.0000000000e+00 +6.2262329486e+01 1.0132782226e+02 7.9942040818e+01 0.0000e+00 0.0000e+00
       66  2    3    3    0    0 +3.0377266563e+00 -1.4222129468e+01 +7.4948316765e+01 8.2029060970e+01 3.0000331796e+01 0.0000e+00 0.0000e+00
      -13  1    3    3    0    0 -3.0377266563e+00 +1.4222129468e+01 -1.2685987280e+01 1.9298761285e+01 1.0566000000e-01 0.0000e+00 1.0000e+00
       13  1    4    4    0    0 +7.3733118242e+00 -1.8020875953e+00 +5.9299422741e+00 9.6326853145e+00 1.0566000000e-01 0.0000e+00 -1.0000e+00
      -13  1    4    4    0    0 +5.6945687935e+00 -9.8315540008e+00 +4.0102251490e+01 4.1680802613e+01 1.0566000000e-01 0.0000e+00 1.0000e+00
      -14  1    4    4    0    0 -1.0030153961e+01 -2.5884878723e+00 +2.8916123001e+01 3.0715573043e+01 0.0000000000e+00 0.0000e+00 1.0000e+00
<mgrwt>
<rscale>  0 0.79942041E+02</rscale>
<asrwt>0</asrwt>
<pdfrwt beam="1">  1        4 0.12587014E-01 0.79942041E+02</pdfrwt>
<pdfrwt beam="2">  1       -3 0.30042843E-02 0.79942041E+02</pdfrwt>
<totfact> 0.42142463E+04</totfact>
</mgrwt>
</event>
<event>
 8      1 +5.0320763e-08 7.88400600e+01 7.81860800e-03 1.33237600e-01
        2 -1    0    0  501    0 +0.0000000000e+00 +0.0000000000e+00 +2.3488023466e+02 2.3488023467e+02 2.5500000000e-03 0.0000e+00 -1.0000e+00
       -1 -1    0    0    0  501 -0.0000000000e+00 -0.0000000000e+00 -6.6158765507e+00 6.6158784704e+00 5.0400000000e-03 0.0000e+00 1.0000e+00
       24  2    1    2    0    0 +0.0000000000e+00 +0.0000000000e+00 +2.2826435811e+02 2.4149611314e+02 7.8840062663e+01 0.0000e+00 0.0000e+00
       66  2    3    3    0    0 +1.0276715472e+01 -1.2157213010e+01 +2.2168470333e+02 2.2427079079e+02 2.9997853294e+01 0.0000e+00 0.0000e+00
      -13  1    3    3    0    0 -1.0276715472e+01 +1.2157213010e+01 +6.5796547761e+00 1.7225322351e+01 1.0566000000e-01 0.0000e+00 1.0000e+00
       13  1    4    4    0    0 -2.4612120185e+00 +1.5129616617e+00 +1.1832920693e+02 1.1836451746e+02 1.0566000000e-01 0.0000e+00 -1.0000e+00
      -13  1    4    4    0    0 +8.7114309008e+00 -1.6152637261e+01 +8.0291875628e+01 8.2362571444e+01 1.0566000000e-01 0.0000e+00 1.0000e+00
      -14  1    4    4    0    0 +4.0264965897e+00 +2.4824625895e+00 +2.3063620777e+01 2.3543701889e+01 0.0000000000e+00 0.0000e+00 1.0000e+00
<mgrwt>
<rscale>  0 0.78840063E+02</rscale>
<asrwt>0</asrwt>
<pdfrwt beam="1">  1        2 0.36135426E-01 0.78840063E+02</pdfrwt>
<pdfrwt beam="2">  1       -1 0.10178272E-02 0.78840063E+02</pdfrwt>
<totfact> 0.24256444E+05</totfact>
</mgrwt>
</event>
<event>
 8      1 +5.0320763e-08 8.03855900e+01 7.81860800e-03 1.32796100e-01
        2 -1    0    0  501    0 +0.0000000000e+00 +0.0000000000e+00 +1.0186747344e+02 1.0186747348e+02 2.5500000000e-03 0.0000e+00 -1.0000e+00
       -1 -1    0    0    0  501 -0.0000000000e+00 -0.0000000000e+00 -1.5858454077e+01 1.5858454878e+01 5.0400000000e-03 0.0000e+00 1.0000e+00
       24  2    1    2    0    0 +0.0000000000e+00 +0.0000000000e+00 +8.6009019367e+01 1.1772592835e+02 8.0385588226e+01 0.0000e+00 0.0000e+00
       66  2    3    3    0    0 +3.2141112606e+01 +1.2475369187e+01 +5.3170875119e+01 7.0112476079e+01 2.9998856396e+01 0.0000e+00 0.0000e+00
      -13  1    3    3    0    0 -3.2141112606e+01 -1.2475369187e+01 +3.2838144248e+01 4.7613452276e+01 1.0566000000e-01 0.0000e+00 1.0000e+00
       13  1    4    4    0    0 +8.3283277899e+00 +7.9178404030e+00 +3.8588950756e+01 4.0263774350e+01 1.0566000000e-01 0.0000e+00 -1.0000e+00
      -13  1    4    4    0    0 +1.7677065005e+01 -6.4208773399e-01 +7.8168451895e+00 1.9339212409e+01 1.0566000000e-01 0.0000e+00 1.0000e+00
      -14  1    4    4    0    0 +6.1357198112e+00 +5.1996165178e+00 +6.7650791730e+00 1.0509489319e+01 0.0000000000e+00 0.0000e+00 1.0000e+00
<mgrwt>
<rscale>  0 0.80385588E+02</rscale>
<asrwt>0</asrwt>
<pdfrwt beam="1">  1        2 0.15671919E-01 0.80385588E+02</pdfrwt>
<pdfrwt beam="2">  1       -1 0.24397622E-02 0.80385588E+02</pdfrwt>
<totfact> 0.17590211E+05</totfact>
</mgrwt>
</event>
<event>
 8      1 +5.0320763e-08 7.95017000e+01 7.81860800e-03 1.33047200e-01
       -1 -1    0    0    0  501 -0.0000000000e+00 +0.0000000000e+00 +3.6904612497e+00 3.6904646913e+00 5.0400000000e-03 0.0000e+00 1.0000e+00
        2 -1    0    0  501    0 +0.0000000000e+00 -0.0000000000e+00 -4.2816579395e+02 4.2816579396e+02 2.5500000000e-03 0.0000e+00 -1.0000e+00
       24  2    1    2    0    0 +0.0000000000e+00 -3.5527136788e-15 -4.2447533270e+02 4.3185625865e+02 7.9501698492e+01 0.0000e+00 0.0000e+00
       66  2    3    3    0    0 -2.2797813825e+01 +2.3442530544e+01 -2.9480394173e+02 2.9812528484e+02 3.0000480874e+01 0.0000e+00 0.0000e+00
      -13  1    3    3    0    0 +2.2797813825e+01 -2.3442530544e+01 -1.2967139097e+02 1.3373097380e+02 1.0566000000e-01 0.0000e+00 1.0000e+00
       13  1    4    4    0    0 -7.4470005984e+00 +1.9561537707e+01 -2.0705645984e+02 2.0811174955e+02 1.0566000000e-01 0.0000e+00 -1.0000e+00
      -13  1    4    4    0    0 -1.3567855403e+01 +6.9573062603e+00 -8.0609628390e+01 8.2039101432e+01 1.0566000000e-01 0.0000e+00 1.0000e+00
      -14  1    4    4    0    0 -1.7829578238e+00 -3.0763134227e+00 -7.1378534938e+00 7.9744338592e+00 0.0000000000e+00 0.0000e+00 1.0000e+00
<mgrwt>
<rscale>  0 0.79501698E+02</rscale>
<asrwt>0</asrwt>
<pdfrwt beam="1">  1        2 0.65871621E-01 0.79501698E+02</pdfrwt>
<pdfrwt beam="2">  1       -1 0.56776388E-03 0.79501698E+02</pdfrwt>
<totfact> 0.29402174E+05</totfact>
</mgrwt>
</event>
<event>
 8      1 +5.0320763e-08 7.72255700e+01 7.81860800e-03 1.33711400e-01
        1 -1    0    0  501    0 +0.0000000000e+00 +0.0000000000e+00 +1.1930392243e+02 1.1930392254e+02 5.0400000000e-03 0.0000e+00 -1.0000e+00
       -2 -1    0    0    0  501 -0.0000000000e+00 -0.0000000000e+00 -1.2497049863e+01 1.2497050123e+01 2.5500000000e-03 0.0000e+00 1.0000e+00
      -24  2    1    2    0    0 +3.5527136788e-15 +1.7763568394e-15 +1.0680687257e+02 1.3180097266e+02 7.7225568088e+01 0.0000e+00 0.0000e+00
       66  2    3    3    0    0 -2.7897717840e+01 +1.5742661244e+01 +4.9543995116e+01 6.6187236737e+01 3.0000480181e+01 0.0000e+00 0.0000e+00
       13  1    3    3    0    0 +2.7897717840e+01 -1.5742661244e+01 +5.7262877450e+01 6.5613735922e+01 1.0566000000e-01 0.0000e+00 -1.0000e+00
       13  1    4    4    0    0 -9.4517753787e+00 +1.4471968639e+01 +2.8131119990e+01 3.3017344079e+01 1.0566000000e-01 0.0000e+00 1.0000e+00
      -13  1    4    4    0    0 +1.6105980361e+00 -3.0732405278e+00 -5.4445255361e-02 3.4717375616e+00 1.0566000000e-01 0.0000e+00 -1.0000e+00
      -14  1    4    4    0    0 -2.0056540497e+01 +4.3439331331e+00 +2.1467320382e+01 2.9698155097e+01 0.0000000000e+00 0.0000e+00 1.0000e+00
<mgrwt>
<rscale>  0 0.77225568E+02</rscale>
<asrwt>0</asrwt>
<pdfrwt beam="1">  1        1 0.18354451E-01 0.77225568E+02</pdfrwt>
<pdfrwt beam="2">  1       -2 0.19226230E-02 0.77225568E+02</pdfrwt>
<totfact> 0.16655433E+05</totfact>
</mgrwt>
</event>
<event>
 8      1 +5.0320763e-08 7.94214500e+01 7.81860800e-03 1.33070100e-01
       -2 -1    0    0    0  501 -0.0000000000e+00 +0.0000000000e+00 +7.3277468563e+01 7.3277468607e+01 2.5500000000e-03 0.0000e+00 1.0000e+00
        1 -1    0    0  501    0 +0.0000000000e+00 -0.0000000000e+00 -2.1520143721e+01 2.1520144311e+01 5.0400000000e-03 0.0000e+00 -1.0000e+00
      -24  2    1    2    0    0 +0.0000000000e+00 +0.0000000000e+00 +5.1757324842e+01 9.4797612918e+01 7.9421450126e+01 0.0000e+00 0.0000e+00
       66  2    3    3    0    0 -1.1301999555e+00 -2.4424096267e+01 +5.7847899496e+01 6.9599992117e+01 2.9999426596e+01 0.0000e+00 0.0000e+00
       13  1    3    3    0    0 +1.1301999555e+00 +2.4424096267e+01 -6.0905746544e+00 2.5197620801e+01 1.0566000000e-01 0.0000e+00 -1.0000e+00
       13  1    4    4    0    0 +1.6582562398e+00 -9.6514782725e+00 +7.5854654032e+00 1.2387546005e+01 1.0566000000e-01 0.0000e+00 -1.0000e+00
      -13  1    4    4    0    0 -2.6840437550e+00 -1.2924228753e+01 +9.1574622249e+00 1.6065804001e+01 1.0566000000e-01 0.0000e+00 1.0000e+00
      -14  1    4    4    0    0 -1.0441244034e-01 -1.8483892410e+00 +4.1104971868e+01 4.1146642111e+01 0.0000000000e+00 0.0000e+00 1.0000e+00
<mgrwt>
<rscale>  0 0.79421450E+02</rscale>
<asrwt>0</asrwt>
<pdfrwt beam="1">  1        1 0.33107915E-02 0.79421450E+02</pdfrwt>
<pdfrwt beam="2">  1       -2 0.11273456E-01 0.79421450E+02</pdfrwt>
<totfact> 0.11596795E+05</totfact>
</mgrwt>
</event>
<event>
 8      1 +5.0320763e-08 8.09604800e+01 7.81860800e-03 1.32634800e-01
       -2 -1    0    0    0  501 -0.0000000000e+00 +0.0000000000e+00 +1.4342578261e+02 1.4342578264e+02 2.5500000000e-03 0.0000e+00 1.0000e+00
        1 -1    0    0  501    0 +0.0000000000e+00 -0.0000000000e+00 -1.1425071541e+01 1.1425072652e+01 5.0400000000e-03 0.0000e+00 -1.0000e+00
      -24  2    1    2    0    0 -8.8817841970e-16 +0.0000000000e+00 +1.3200071107e+02 1.5485085529e+02 8.0960482087e+01 0.0000e+00 0.0000e+00
       66  2    3    3    0    0 -5.6272800592e+00 +2.2585270882e+01 +1.2485682957e+02 1.3050322812e+02 3.0001731936e+01 0.0000e+00 0.0000e+00
       13  1    3    3    0    0 +5.6272800592e+00 -2.2585270882e+01 +7.1438815074e+00 2.4347627167e+01 1.0566000000e-01 0.0000e+00 -1.0000e+00
       13  1    4    4    0    0 -6.9119201052e+00 -4.2772538825e+00 +1.7966173885e+01 1.9719637634e+01 1.0566000000e-01 0.0000e+00 -1.0000e+00
      -13  1    4    4    0    0 +1.1983962670e+00 -6.0657146287e-01 +9.4317425339e+00 9.5274872771e+00 1.0566000000e-01 0.0000e+00 1.0000e+00
      -14  1    4    4    0    0 +8.6243779044e-02 +2.7469096227e+01 +9.7458913148e+01 1.0125610321e+02 0.0000000000e+00 0.0000e+00 1.0000e+00
<mgrwt>
<rscale>  0 0.80960482E+02</rscale>
<asrwt>0</asrwt>
<pdfrwt beam="1">  1        1 0.17577035E-02 0.80960482E+02</pdfrwt>
<pdfrwt beam="2">  1       -2 0.22065504E-01 0.80960482E+02</pdfrwt>
<totfact> 0.92990269E+04</totfact>
</mgrwt>
</event>
<event>
 8      1 +5.0320763e-08 8.55350800e+01 7.81860800e-03 1.31403900e-01
       -2 -1    0    0    0  501 -0.0000000000e+00 +0.0000000000e+00 +4.4532853073e+02 4.4532853073e+02 2.5500000000e-03 0.0000e+00 1.0000e+00
        1 -1    0    0  501    0 +0.0000000000e+00 -0.0000000000e+00 -4.1072190766e+00 4.1072221689e+00 5.0400000000e-03 0.0000e+00 -1.0000e+00
      -24  2    1    2    0    0 +3.5527136788e-15 +0.0000000000e+00 +4.4122131165e+02 4.4943575290e+02 8.5535081301e+01 0.0000e+00 0.0000e+00
       66  2    3    3    0    0 +2.5040986201e+01 +2.0966072232e+01 +3.4465033859e+02 3.4749169385e+02 2.9999903807e+01 0.0000e+00 0.0000e+00
       13  1    3    3    0    0 -2.5040986201e+01 -2.0966072232e+01 +9.6570973060e+01 1.0194405906e+02 1.0566000000e-01 0.0000e+00 -1.0000e+00
       13  1    4    4    0    0 +1.1766042662e+01 -4.7335596339e-01 +7.4273564931e+01 7.5201312737e+01 1.0566000000e-01 0.0000e+00 -1.0000e+00
      -13  1    4    4    0    0 +1.4593403583e+01 +8.7217104052e+00 +2.0303381431e+02 2.0374439029e+02 1.0566000000e-01 0.0000e+00 1.0000e+00
      -14  1    4    4    0    0 -1.3184600436e+00 +1.2717717790e+01 +6.7342959351e+01 6.8545990815e+01 0.0000000000e+00 0.0000e+00 1.0000e+00
<mgrwt>
<rscale>  0 0.85535081E+02</rscale>
<asrwt>0</asrwt>
<pdfrwt beam="1">  1        1 0.63188026E-03 0.85535081E+02</pdfrwt>
<pdfrwt beam="2">  1       -2 0.68512064E-01 0.85535081E+02</pdfrwt>
<totfact> 0.46157113E+04</totfact>
</mgrwt>
</event>
<event>
 8      1 +5.0320763e-08 7.94718900e+01 7.81860800e-03 1.33055700e-01
       -1 -1    0    0    0  501 -0.0000000000e+00 +0.0000000000e+00 +2.7829492815e+00 2.7829538453e+00 5.0400000000e-03 0.0000e+00 1.0000e+00
        2 -1    0    0  501    0 +0.0000000000e+00 -0.0000000000e+00 -5.6736363070e+02 5.6736363071e+02 2.5500000000e-03 0.0000e+00 -1.0000e+00
       24  2    1    2    0    0 +0.0000000000e+00 +0.0000000000e+00 -5.6458068142e+02 5.7014658456e+02 7.9471894681e+01 0.0000e+00 0.0000e+00
       66  2    3    3    0    0 +1.4733694189e+01 -1.8770557752e+01 -4.9701034763e+02 4.9848643694e+02 3.0000443046e+01 0.0000e+00 0.0000e+00
      -13  1    3    3    0    0 -1.4733694189e+01 +1.8770557752e+01 -6.7570333792e+01 7.1660147611e+01 1.0566000000e-01 0.0000e+00 1.0000e+00
       13  1    4    4    0    0 +5.3160093815e+00 -1.8640942746e+01 -2.7996592598e+02 2.8063619791e+02 1.0566000000e-01 0.0000e+00 -1.0000e+00
      -13  1    4    4    0    0 +1.3578137655e+01 +1.0172001586e+00 -1.3303371078e+02 1.3372875490e+02 1.0566000000e-01 0.0000e+00 1.0000e+00
      -14  1    4    4    0    0 -4.1604528478e+00 -1.1468151645e+00 -8.4010710868e+01 8.4121484138e+01 0.0000000000e+00 0.0000e+00 1.0000e+00
<mgrwt>
<rscale>  0 0.79471895E+02</rscale>
<asrwt>0</asrwt>
<pdfrwt beam="1">  1        2 0.87286621E-01 0.79471895E+02</pdfrwt>
<pdfrwt beam="2">  1       -1 0.42814685E-03 0.79471895E+02</pdfrwt>
<totfact> 0.32203902E+05</totfact>
</mgrwt>
</event>
<event>
 8      1 +5.0320763e-08 7.83512500e+01 7.81860800e-03 1.33379700e-01
       -3 -1    0    0    0  501 -0.0000000000e+00 +0.0000000000e+00 +9.9238664743e+00 9.9243804240e+00 1.0100000000e-01 0.0000e+00 1.0000e+00
        4 -1    0    0  501    0 +0.0000000000e+00 -0.0000000000e+00 -1.5460285255e+02 1.5460806873e+02 1.2700000000e+00 0.0000e+00 -1.0000e+00
       24  2    1    2    0    0 -3.5527136788e-15 -3.5527136788e-15 -1.4467898607e+02 1.6453244915e+02 7.8351246402e+01 0.0000e+00 0.0000e+00
       66  2    3    3    0    0 -1.3023746202e+01 +3.0678744712e+01 -8.8417831198e+01 9.9140308537e+01 3.0004742306e+01 0.0000e+00 0.0000e+00
      -13  1    3    3    0    0 +1.3023746202e+01 -3.0678744712e+01 -5.6261154874e+01 6.5392140613e+01 1.0566000000e-01 0.0000e+00 1.0000e+00
       13  1    4    4    0    0 +7.5074940497e+00 +2.0491893513e+00 -1.9087625542e+01 2.0613351420e+01 1.0566000000e-01 0.0000e+00 -1.0000e+00
      -13  1    4    4    0    0 -1.0252433768e+01 +1.0039171324e+01 -3.8497309039e+01 4.1084684815e+01 1.0566000000e-01 0.0000e+00 1.0000e+00
       14  1    4    4    0    0 -1.0278806484e+01 +1.8590384037e+01 -3.0832896616e+01 3.7442272302e+01 0.0000000000e+00 0.0000e+00 -1.0000e+00
<mgrwt>
<rscale>  0 0.78351246E+02</rscale>
<asrwt>0</asrwt>
<pdfrwt beam="1">  1        4 0.23791703E-01 0.78351246E+02</pdfrwt>
<pdfrwt beam="2">  1       -3 0.15267910E-02 0.78351246E+02</pdfrwt>
<totfact> 0.38107419E+04</totfact>
</mgrwt>
</event>
<event>
 8      1 +5.0320763e-08 8.03864600e+01 7.81860800e-03 1.32795800e-01
        2 -1    0    0  501    0 +0.0000000000e+00 +0.0000000000e+00 +4.3141180902e+01 4.3141180978e+01 2.5500000000e-03 0.0000e+00 -1.0000e+00
       -1 -1    0    0    0  501 -0.0000000000e+00 -0.0000000000e+00 -3.7446717642e+01 3.7446717982e+01 5.0400000000e-03 0.0000e+00 1.0000e+00
       24  2    1    2    0    0 -3.5527136788e-15 +0.0000000000e+00 +5.6944632600e+00 8.0587898959e+01 8.0386457484e+01 0.0000e+00 0.0000e+00
       66  2    3    3    0    0 +2.7152375538e+01 +5.3583562631e+00 +2.4054139478e+01 4.7375666964e+01 2.9998145193e+01 0.0000e+00 0.0000e+00
      -13  1    3    3    0    0 -2.7152375538e+01 -5.3583562631e+00 -1.8359676218e+01 3.3212231995e+01 1.0566000000e-01 0.0000e+00 1.0000e+00
       13  1    4    4    0    0 +1.6807745141e+01 +7.9636308288e+00 +1.0744517913e+00 1.8630226069e+01 1.0566000000e-01 0.0000e+00 -1.0000e+00
      -13  1    4    4    0    0 +3.8868395878e-02 +3.1086955491e-01 -1.7579372022e+00 1.7887587526e+00 1.0566000000e-01 0.0000e+00 1.0000e+00
       14  1    4    4    0    0 +1.0305762002e+01 -2.9161441206e+00 +2.4737624889e+01 2.6956682143e+01 0.0000000000e+00 0.0000e+00 -1.0000e+00
<mgrwt>
<rscale>  0 0.80386457E+02</rscale>
<asrwt>0</asrwt>
<pdfrwt beam="1">  1        2 0.66371048E-02 0.80386457E+02</pdfrwt>
<pdfrwt beam="2">  1       -1 0.57610335E-02 0.80386457E+02</pdfrwt>
<totfact> 0.14289220E+05</totfact>
</mgrwt>
</event>
<event>
 8      1 +5.0320763e-08 8.18947700e+01 7.81860800e-03 1.32375900e-01
        1 -1    0    0  501    0 +0.0000000000e+00 +0.0000000000e+00 +1.6113317937e+01 1.6113318725e+01 5.0400000000e-03 0.0000e+00 -1.0000e+00
       -2 -1    0    0    0  501 -0.0000000000e+00 -0.0000000000e+00 -1.0405604585e+02 1.0405604589e+02 2.5500000000e-03 0.0000e+00 1.0000e+00
      -24  2    1    2    0    0 +0.0000000000e+00 +5.5511151231e-17 -8.7942727917e+01 1.2016936461e+02 8.1894766606e+01 0.0000e+00 0.0000e+00
       66  2    3    3    0    0 -3.2461782910e+01 +1.6418186159e-01 -7.0783192097e+01 8.3450770697e+01 2.9999609017e+01 0.0000e+00 0.0000e+00
       13  1    3    3    0    0 +3.2461782910e+01 -1.6418186159e-01 -1.7159535820e+01 3.6718593913e+01 1.0566000000e-01 0.0000e+00 -1.0000e+00
       13  1    4    4    0    0 +2.4501597103e+00 -1.0919407834e+00 +1.4527988521e+00 3.0524425991e+00 1.0566000000e-01 0.0000e+00 -1.0000e+00
      -13  1    4    4    0    0 -1.0815157298e+01 -4.8749556405e-01 -2.7518276261e+01 2.9571472261e+01 1.0566000000e-01 0.0000e+00 1.0000e+00
       14  1    4    4    0    0 -2.4096785323e+01 +1.7436182090e+00 -4.4717714688e+01 5.0826855837e+01 0.0000000000e+00 0.0000e+00 -1.0000e+00
<mgrwt>
<rscale>  0 0.81894767E+02</rscale>
<asrwt>0</asrwt>
<pdfrwt beam="1">  1        1 0.24789721E-02 0.81894767E+02</pdfrwt>
<pdfrwt beam="2">  1       -2 0.16008622E-01 0.81894767E+02</pdfrwt>
<totfact> 0.98954599E+04</totfact>
</mgrwt>
</event>
<event>
 8      1 +5.0320763e-08 7.92224200e+01 7.81860800e-03 1.33127300e-01
       -4 -1    0    0    0  501 -0.0000000000e+00 +0.0000000000e+00 +3.7544426699e+01 3.7565900444e+01 1.2700000000e+00 0.0000e+00 1.0000e+00
        3 -1    0    0  501    0 +0.0000000000e+00 -0.0000000000e+00 -4.1768950953e+01 4.1769073066e+01 1.0100000000e-01 0.0000e+00 -1.0000e+00
      -24  2    1    2    0    0 -3.5527136788e-15 +0.0000000000e+00 -4.2245242540e+00 7.9334973510e+01 7.9222417387e+01 0.0000e+00 0.0000e+00
       66  2    3    3    0    0 -1.8443856616e+01 +2.4218118577e+01 +1.2595266974e+01 4.4555530511e+01 2.9997690490e+01 0.0000e+00 0.0000e+00
       13  1    3    3    0    0 +1.8443856616e+01 -2.4218118577e+01 -1.6819791228e+01 3.4779442998e+01 1.0566000000e-01 0.0000e+00 -1.0000e+00
       13  1    4    4    0    0 -5.5741455349e-01 -3.6595432834e+00 +1.1509422574e+00 3.8779891881e+00 1.0566000000e-01 0.0000e+00 -1.0000e+00
      -13  1    4    4    0    0 -6.0447072205e+00 -1.8982097270e+00 +4.8059200288e+00 7.9529690625e+00 1.0566000000e-01 0.0000e+00 1.0000e+00
       14  1    4    4    0    0 -1.1841734842e+01 +2.9775871587e+01 +6.6384046883e+00 3.2724572261e+01 0.0000000000e+00 0.0000e+00 -1.0000e+00
<mgrwt>
<rscale>  0 0.79222417E+02</rscale>
<asrwt>0</asrwt>
<pdfrwt beam="1">  1        3 0.64260123E-02 0.79222417E+02</pdfrwt>
<pdfrwt beam="2">  1       -4 0.57792027E-02 0.79222417E+02</pdfrwt>
<totfact> 0.46461339E+04</totfact>
</mgrwt>
</event>
<event>
 8      1 +5.0320763e-08 8.01067900e+01 7.81860800e-03 1.32874900e-01
        4 -1    0    0  501    0 +0.0000000000e+00 +0.0000000000e+00 +2.1870581325e+01 2.1907424027e+01 1.2700000000e+00 0.0000e+00 -1.0000e+00
       -3 -1    0    0    0  501 -0.0000000000e+00 -0.0000000000e+00 -7.3272776216e+01 7.3272845826e+01 1.0100000000e-01 0.0000e+00 1.0000e+00
       24  2    1    2    0    0 +0.0000000000e+00 +0.0000000000e+00 -5.1402194891e+01 9.5180269852e+01 8.0106792031e+01 0.0000e+00 0.0000e+00
       66  2    3    3    0    0 -8.4020444679e+00 +8.9357785475e+00 +8.9267032472e+00 3.3617053529e+01 2.9999629458e+01 0.0000e+00 0.0000e+00
      -13  1    3    3    0    0 +8.4020444679e+00 -8.9357785475e+00 -6.0328898138e+01 6.1563216324e+01 1.0566000000e-01 0.0000e+00 1.0000e+00
       13  1    4    4    0    0 -7.8822193137e+00 +2.8299347578e+00 +9.2545596791e+00 1.2481824824e+01 1.0566000000e-01 0.0000e+00 -1.0000e+00
      -13  1    4    4    0    0 -1.6130782663e+00 -1.4507889890e-01 -9.6900643371e+00 9.8250486142e+00 1.0566000000e-01 0.0000e+00 1.0000e+00
       14  1    4    4    0    0 +1.0932531122e+00 +6.2509226886e+00 +9.3622079051e+00 1.1310180091e+01 0.0000000000e+00 0.0000e+00 -1.0000e+00
<mgrwt>
<rscale>  0 0.80106792E+02</rscale>
<asrwt>0</asrwt>
<pdfrwt beam="1">  1        4 0.33683855E-02 0.80106792E+02</pdfrwt>
<pdfrwt beam="2">  1       -3 0.11272758E-01 0.80106792E+02</pdfrwt>
<totfact> 0.44138410E+04</totfact>
</mgrwt>
</event>
<event>
 8      1 +5.0320763e-08 8.22853400e+01 7.81860800e-03 1.32268800e-01
        1 -1    0    0  501    0 +0.0000000000e+00 +0.0000000000e+00 +1.9817329619e+00 1.9817393708e+00 5.0400000000e-03 0.0000e+00 -1.0000e+00
       -2 -1    0    0    0  501 -0.0000000000e+00 -0.0000000000e+00 -8.5415969142e+02 8.5415969143e+02 2.5500000000e-03 0.0000e+00 1.0000e+00
      -24  2    1    2    0    0 +1.7763568394e-15 -3.5527136788e-15 -8.5217795846e+02 8.5614143080e+02 8.2285336733e+01 0.0000e+00 0.0000e+00
       66  2    3    3    0    0 +8.4681196603e+00 -2.7105718078e+01 -7.0737452375e+02 7.0857966450e+02 2.9999918284e+01 0.0000e+00 0.0000e+00
       13  1    3    3    0    0 -8.4681196603e+00 +2.7105718078e+01 -1.4480343471e+02 1.4756176630e+02 1.0566000000e-01 0.0000e+00 -1.0000e+00
       13  1    4    4    0    0 +2.3430079119e+00 -3.3060292870e+00 -8.6215455983e+01 8.6310691865e+01 1.0566000000e-01 0.0000e+00 -1.0000e+00
      -13  1    4    4    0    0 +1.0780982824e+01 -6.2682877196e+00 -4.4576761536e+02 4.4594203557e+02 1.0566000000e-01 0.0000e+00 1.0000e+00
       14  1    4    4    0    0 -4.6558710760e+00 -1.7531401072e+01 -1.7539145241e+02 1.7632693707e+02 0.0000000000e+00 0.0000e+00 -1.0000e+00
<mgrwt>
<rscale>  0 0.82285337E+02</rscale>
<asrwt>0</asrwt>
<pdfrwt beam="1">  1        1 0.30488317E-03 0.82285337E+02</pdfrwt>
<pdfrwt beam="2">  1       -2 0.13140889E+00 0.82285337E+02</pdfrwt>
<totfact> 0.28871347E+04</totfact>
</mgrwt>
</event>
<event>
 8      1 +5.0320763e-08 7.97154300e+01 7.81860800e-03 1.32986100e-01
        1 -1    0    0  501    0 +0.0000000000e+00 +0.0000000000e+00 +6.1657646643e+01 6.1657646849e+01 5.0400000000e-03 0.0000e+00 -1.0000e+00
       -2 -1    0    0    0  501 -0.0000000000e+00 -0.0000000000e+00 -2.5765454264e+01 2.5765454390e+01 2.5500000000e-03 0.0000e+00 1.0000e+00
      -24  2    1    2    0    0 -3.5527136788e-15 +1.7763568394e-15 +3.5892192379e+01 8.7423101239e+01 7.9715426088e+01 0.0000e+00 0.0000e+00
       66  2    3    3    0    0 +3.1805417666e+01 +1.2521898570e+01 +2.2085007110e+01 5.0558049146e+01 2.9999770961e+01 0.0000e+00 0.0000e+00
       13  1    3    3    0    0 -3.1805417666e+01 -1.2521898570e+01 +1.3807185269e+01 3.6865052092e+01 1.0566000000e-01 0.0000e+00 -1.0000e+00
       13  1    4    4    0    0 +2.2994722872e+01 +1.5165003266e+01 +1.3974361753e+01 3.0887352662e+01 1.0566000000e-01 0.0000e+00 1.0000e+00
      -13  1    4    4    0    0 -1.3707940034e+00 +2.7429398118e-01 +8.9379328273e+00 9.0472161823e+00 1.0566000000e-01 0.0000e+00 -1.0000e+00
      -14  1    4    4    0    0 +1.0181488797e+01 -2.9173986773e+00 -8.2728747023e-01 1.0623480302e+01 0.0000000000e+00 0.0000e+00 1.0000e+00
<mgrwt>
<rscale>  0 0.79715426E+02</rscale>
<asrwt>0</asrwt>
<pdfrwt beam="1">  1        1 0.94857919E-02 0.79715426E+02</pdfrwt>
<pdfrwt beam="2">  1       -2 0.39639160E-02 0.79715426E+02</pdfrwt>
<totfact> 0.13730374E+05</totfact>
</mgrwt>
</event>
<event>
 8      1 +5.0320763e-08 7.94075600e+01 7.81860800e-03 1.33074100e-01
       -2 -1    0    0    0  501 -0.0000000000e+00 +0.0000000000e+00 +8.2307608366e+02 8.2307608366e+02 2.5500000000e-03 0.0000e+00 1.0000e+00
        1 -1    0    0  501    0 +0.0000000000e+00 -0.0000000000e+00 -1.9152387847e+00 1.9152454161e+00 5.0400000000e-03 0.0000e+00 -1.0000e+00
      -24  2    1    2    0    0 +1.7763568394e-15 +2.2204460493e-15 +8.2116084487e+02 8.2499132908e+02 7.9407555692e+01 0.0000e+00 0.0000e+00
       66  2    3    3    0    0 +1.4115322170e+01 -3.6686277502e+00 +7.8869349265e+02 7.8939861530e+02 3.0000789017e+01 0.0000e+00 0.0000e+00
       13  1    3    3    0    0 -1.4115322170e+01 +3.6686277502e+00 +3.2467352217e+01 3.5592713770e+01 1.0566000000e-01 0.0000e+00 -1.0000e+00
       13  1    4    4    0    0 +6.1670326343e+00 +8.8589409101e+00 +1.1159858020e+02 1.1211943360e+02 1.0566000000e-01 0.0000e+00 -1.0000e+00
      -13  1    4    4    0    0 +5.1777646429e+00 -3.5470281138e+00 +2.3092109082e+02 2.3100638953e+02 1.0566000000e-01 0.0000e+00 1.0000e+00
       14  1    4    4    0    0 +2.7705248927e+00 -8.9805405465e+00 +4.4617382164e+02 4.4627279217e+02 0.0000000000e+00 0.0000e+00 -1.0000e+00
<mgrwt>
<rscale>  0 0.79407556E+02</rscale>
<asrwt>0</asrwt>
<pdfrwt beam="1">  1        1 0.29465320E-03 0.79407556E+02</pdfrwt>
<pdfrwt beam="2">  1       -2 0.12662685E+00 0.79407556E+02</pdfrwt>
<totfact> 0.32897516E+04</totfact>
</mgrwt>
</event>
<event>
 8      1 +5.0320763e-08 7.91763200e+01 7.81860800e-03 1.33140500e-01
        2 -1    0    0  501    0 +0.0000000000e+00 +0.0000000000e+00 +1.1729356085e+03 1.1729356085e+03 2.5500000000e-03 0.0000e+00 -1.0000e+00
       -1 -1    0    0    0  501 -0.0000000000e+00 -0.0000000000e+00 -1.3361490748e+00 1.3361585803e+00 5.0400000000e-03 0.0000e+00 1.0000e+00
       24  2    1    2    0    0 +0.0000000000e+00 +8.8817841970e-16 +1.1715994594e+03 1.1742717671e+03 7.9176319962e+01 0.0000e+00 0.0000e+00
       66  2    3    3    0    0 -2.0095507732e+01 -5.9359113050e+00 +1.0652130069e+03 1.0658413612e+03 2.9999878515e+01 0.0000e+00 0.0000e+00
      -13  1    3    3    0    0 +2.0095507732e+01 +5.9359113050e+00 +1.0638645251e+02 1.0843040587e+02 1.0566000000e-01 0.0000e+00 1.0000e+00
       13  1    4    4    0    0 -3.5438376057e+00 -1.0494531367e+01 +6.3659414559e+02 6.3669051457e+02 1.0566000000e-01 0.0000e+00 -1.0000e+00
      -13  1    4    4    0    0 +1.4276328203e-01 -5.8306490170e-01 +1.4137954132e+02 1.4138085519e+02 1.0566000000e-01 0.0000e+00 1.0000e+00
      -14  1    4    4    0    0 -1.6694433408e+01 +5.1416849633e+00 +2.8723931999e+02 2.8776999145e+02 0.0000000000e+00 0.0000e+00 1.0000e+00
<mgrwt>
<rscale>  0 0.79176320E+02</rscale>
<asrwt>0</asrwt>
<pdfrwt beam="1">  1        2 0.18045203E+00 0.79176320E+02</pdfrwt>
<pdfrwt beam="2">  1       -1 0.20556168E-03 0.79176320E+02</pdfrwt>
<totfact> 0.36073342E+05</totfact>
</mgrwt>
</event>
<event>
 8      1 +5.0320763e-08 8.40268600e+01 7.81860800e-03 1.31799700e-01
        2 -1    0    0  501    0 +0.0000000000e+00 +0.0000000000e+00 +2.0842412417e+02 2.0842412419e+02 2.5500000000e-03 0.0000e+00 -1.0000e+00
       -1 -1    0    0    0  501 -0.0000000000e+00 -0.0000000000e+00 -8.4689241341e+00 8.4689256338e+00 5.0400000000e-03 0.0000e+00 1.0000e+00
       24  2    1    2    0    0 +8.3266726847e-17 +3.5527136788e-15 +1.9995520004e+02 2.1689304982e+02 8.4026859031e+01 0.0000e+00 0.0000e+00
       66  2    3    3    0    0 -2.4122855714e-01 +2.7530585442e+01 +1.7519619719e+02 1.7986588801e+02 3.0000647203e+01 0.0000e+00 0.0000e+00
      -13  1    3    3    0    0 +2.4122855714e-01 -2.7530585442e+01 +2.4759002847e+01 3.7027161814e+01 1.0566000000e-01 0.0000e+00 1.0000e+00
       13  1    4    4    0    0 +3.2432887367e+00 +5.5758445584e+00 +4.7471269120e+01 4.7907635302e+01 1.0566000000e-01 0.0000e+00 -1.0000e+00
      -13  1    4    4    0    0 +8.2349776895e-01 +1.5106150544e+01 +2.7331581446e+01 3.1239405263e+01 1.0566000000e-01 0.0000e+00 1.0000e+00
      -14  1    4    4    0    0 -4.3080150628e+00 +6.8485903391e+00 +1.0039334662e+02 1.0071884744e+02 0.0000000000e+00 0.0000e+00 1.0000e+00
<mgrwt>
<rscale>  0 0.84026859E+02</rscale>
<asrwt>0</asrwt>
<pdfrwt beam="1">  1        2 0.32065250E-01 0.84026859E+02</pdfrwt>
<pdfrwt beam="2">  1       -1 0.13029115E-02 0.84026859E+02</pdfrwt>
<totfact> 0.19653636E+05</totfact>
</mgrwt>
</event>
<event>
 8      1 +5.0320763e-08 8.19672600e+01 7.81860800e-03 1.32356000e-01
        1 -1    0    0  501    0 +0.0000000000e+00 +0.0000000000e+00 +6.4680212274e+01 6.4680212471e+01 5.0400000000e-03 0.0000e+00 -1.0000e+00
       -2 -1    0    0    0  501 -0.0000000000e+00 -0.0000000000e+00 -2.5968653563e+01 2.5968653688e+01 2.5500000000e-03 0.0000e+00 1.0000e+00
      -24  2    1    2    0    0 +1.3877787808e-16 +7.1054273576e-15 +3.8711558711e+01 9.0648866159e+01 8.1967262721e+01 0.0000e+00 0.0000e+00
       66  2    3    3    0    0 -1.0010213378e-01 -3.2898035160e+01 +7.2148831286e+00 4.5103916114e+01 3.0000299538e+01 0.0000e+00 0.0000e+00
       13  1    3    3    0    0 +1.0010213378e-01 +3.2898035160e+01 +3.1496675583e+01 4.5544950045e+01 1.0566000000e-01 0.0000e+00 -1.0000e+00
       13  1    4    4    0    0 +3.8851487765e+00 -8.1505870116e+00 -9.3425461387e+00 1.2993105173e+01 1.0566000000e-01 0.0000e+00 -1.0000e+00
      -13  1    4    4    0    0 -7.7838647893e-01 -1.8779547270e+01 +6.3111266992e+00 1.9827222837e+01 1.0566000000e-01 0.0000e+00 1.0000e+00
       14  1    4    4    0    0 -3.2068644314e+00 -5.9679008781e+00 +1.0246302568e+01 1.2283588103e+01 0.0000000000e+00 0.0000e+00 -1.0000e+00
<mgrwt>
<rscale>  0 0.81967263E+02</rscale>
<asrwt>0</asrwt>
<pdfrwt beam="1">  1        1 0.99508018E-02 0.81967263E+02</pdfrwt>
<pdfrwt beam="2">  1       -2 0.39951775E-02 0.81967263E+02</pdfrwt>
<totfact> 0.12812846E+05</totfact>
</mgrwt>
</event>
<event>
 8      1 +5.0320763e-08 8.23482200e+01 7.81860800e-03 1.32251700e-01
       -1 -1    0    0    0  501 -0.0000000000e+00 +0.0000000000e+00 +1.6311449395e+00 1.6311527259e+00 5.0400000000e-03 0.0000e+00 1.0000e+00
        2 -1    0    0  501    0 +0.0000000000e+00 -0.0000000000e+00 -1.0393333615e+03 1.0393333615e+03 2.5500000000e-03 0.0000e+00 -1.0000e+00
       24  2    1    2    0    0 +4.4408920985e-16 +0.0000000000e+00 -1.0377022165e+03 1.0409645142e+03 8.2348221773e+01 0.0000e+00 0.0000e+00
       66  2    3    3    0    0 -3.6990665911e+00 -1.5671635559e+01 -9.9061636717e+02 9.9120135887e+02 3.0001060927e+01 0.0000e+00 0.0000e+00
      -13  1    3    3    0    0 +3.6990665911e+00 +1.5671635559e+01 -4.7085849364e+01 4.9763155338e+01 1.0566000000e-01 0.0000e+00 1.0000e+00
       13  1    4    4    0    0 -5.7070688426e+00 -1.6705854404e+01 -6.7295418223e+02 6.7318570896e+02 1.0566000000e-01 0.0000e+00 -1.0000e+00
      -13  1    4    4    0    0 -4.9390842988e+00 +2.5422872731e+00 -2.2952610809e+02 2.2959334319e+02 1.0566000000e-01 0.0000e+00 1.0000e+00
      -14  1    4    4    0    0 +6.9470865503e+00 -1.5080684277e+00 -8.8136076859e+01 8.8422306722e+01 0.0000000000e+00 0.0000e+00 1.0000e+00
<mgrwt>
<rscale>  0 0.82348222E+02</rscale>
<asrwt>0</asrwt>
<pdfrwt beam="1">  1        2 0.15989691E+00 0.82348222E+02</pdfrwt>
<pdfrwt beam="2">  1       -1 0.25094681E-03 0.82348222E+02</pdfrwt>
<totfact> 0.32713583E+05</totfact>
</mgrwt>
</event>
<event>
 8      1 +5.0320763e-08 7.72287300e+01 7.81860800e-03 1.33710500e-01
       -3 -1    0    0    0  501 -0.0000000000e+00 +0.0000000000e+00 +2.5354917833e+00 2.5375026272e+00 1.0100000000e-01 0.0000e+00 1.0000e+00
        2 -1    0    0  501    0 +0.0000000000e+00 -0.0000000000e+00 -5.8784473503e+02 5.8784473504e+02 2.5500000000e-03 0.0000e+00 -1.0000e+00
       24  2    1    2    0    0 +0.0000000000e+00 +0.0000000000e+00 -5.8530924325e+02 5.9038223767e+02 7.7228727283e+01 0.0000e+00 0.0000e+00
       66  2    3    3    0    0 +4.5542138998e+00 -9.9148042121e+00 -5.7317657393e+02 5.7406485321e+02 3.0000442913e+01 0.0000e+00 0.0000e+00
      -13  1    3    3    0    0 -4.5542138998e+00 +9.9148042121e+00 -1.2132669318e+01 1.6317384461e+01 1.0566000000e-01 0.0000e+00 1.0000e+00
       13  1    4    4    0    0 +5.7413920764e+00 -8.7082315998e+00 -1.3794831949e+02 1.3834213709e+02 1.0566000000e-01 0.0000e+00 -1.0000e+00
      -13  1    4    4    0    0 -6.8076224635e+00 -5.9361650807e+00 -9.8237011026e+01 9.8651423096e+01 1.0566000000e-01 0.0000e+00 1.0000e+00
      -14  1    4    4    0    0 +5.6204442868e+00 +4.7295924683e+00 -3.3699124342e+02 3.3707129302e+02 0.0000000000e+00 0.0000e+00 1.0000e+00
<mgrwt>
<rscale>  0 0.77228727E+02</rscale>
<asrwt>0</asrwt>
<pdfrwt beam="1">  1        2 0.90437543E-01 0.77228727E+02</pdfrwt>
<pdfrwt beam="2">  1       -3 0.39023148E-03 0.77228727E+02</pdfrwt>
<totfact> 0.29524230E+05</totfact>
</mgrwt>
</event>
<event>
 8      1 +5.0320763e-08 7.99225600e+01 7.81860800e-03 1.32927100e-01
        1 -1    0    0  501    0 +0.0000000000e+00 +0.0000000000e+00 +7.3752932035e+01 7.3752932207e+01 5.0400000000e-03 0.0000e+00 -1.0000e+00
       -2 -1    0    0    0  501 -0.0000000000e+00 -0.0000000000e+00 -2.1652072211e+01 2.1652072361e+01 2.5500000000e-03 0.0000e+00 1.0000e+00
      -24  2    1    2    0    0 +0.0000000000e+00 +3.5527136788e-15 +5.2100859824e+01 9.5405004569e+01 7.9922558157e+01 0.0000e+00 0.0000e+00
       66  2    3    3    0    0 -1.8568292940e+01 +2.1593865241e+01 +6.8370873879e+00 4.1927001821e+01 3.0000853304e+01 0.0000e+00 0.0000e+00
       13  1    3    3    0    0 +1.8568292940e+01 -2.1593865241e+01 +4.5263772436e+01 5.3478002748e+01 1.0566000000e-01 0.0000e+00 -1.0000e+00
       13  1    4    4    0    0 -8.4445124378e+00 +5.8644324119e-01 -2.2905703833e+00 8.7699248972e+00 1.0566000000e-01 0.0000e+00 1.0000e+00
      -13  1    4    4    0    0 -1.1791929225e+01 +8.7299007529e+00 -3.8965007424e+00 1.5180732659e+01 1.0566000000e-01 0.0000e+00 -1.0000e+00
       14  1    4    4    0    0 +1.6681487220e+00 +1.2277521247e+01 +1.3024158514e+01 1.7976344264e+01 0.0000000000e+00 0.0000e+00 -1.0000e+00
<mgrwt>
<rscale>  0 0.79922558E+02</rscale>
<asrwt>0</asrwt>
<pdfrwt beam="1">  1        1 0.11346605E-01 0.79922558E+02</pdfrwt>
<pdfrwt beam="2">  1       -2 0.33310881E-02 0.79922558E+02</pdfrwt>
<totfact> 0.14023154E+05</totfact>
</mgrwt>
</event>
<event>
 8      1 +5.0320763e-08 7.95482100e+01 7.81860800e-03 1.33033800e-01
        1 -1    0    0  501    0 +0.0000000000e+00 +0.0000000000e+00 +3.1049349393e+01 3.1049349802e+01 5.0400000000e-03 0.0000e+00 -1.0000e+00
       -2 -1    0    0    0  501 -0.0000000000e+00 -0.0000000000e+00 -5.0950483132e+01 5.0950483196e+01 2.5500000000e-03 0.0000e+00 1.0000e+00
      -24  2    1    2    0    0 +0.0000000000e+00 +0.0000000000e+00 -1.9901133739e+01 8.1999832998e+01 7.9548208576e+01 0.0000e+00 0.0000e+00
       66  2    3    3    0    0 +2.5944547916e+01 +1.4913590257e+01 -2.8254659469e+01 5.0930116278e+01 3.0000270357e+01 0.0000e+00 0.0000e+00
       13  1    3    3    0    0 -2.5944547916e+01 -1.4913590257e+01 +8.3535257296e+00 3.1069716720e+01 1.0566000000e-01 0.0000e+00 -1.0000e+00
       13  1    4    4    0    0 +1.1869300108e+01 +4.4787219249e+00 -1.6225883739e+01 2.0596837191e+01 1.0566000000e-01 0.0000e+00 -1.0000e+00
      -13  1    4    4    0    0 +1.2273846927e+01 -3.9265315832e-01 -1.4581586412e+01 1.9063979680e+01 1.0566000000e-01 0.0000e+00 1.0000e+00
       14  1    4    4    0    0 +1.8014008806e+00 +1.0827521490e+01 +2.5528106823e+00 1.1269299407e+01 0.0000000000e+00 0.0000e+00 -1.0000e+00
<mgrwt>
<rscale>  0 0.79548209E+02</rscale>
<asrwt>0</asrwt>
<pdfrwt beam="1">  1        1 0.47768230E-02 0.79548209E+02</pdfrwt>
<pdfrwt beam="2">  1       -2 0.78385359E-02 0.79548209E+02</pdfrwt>
<totfact> 0.12367240E+05</totfact>
</mgrwt>
</event>
<event>
 8      1 +5.0320763e-08 7.58037200e+01 7.81860800e-03 1.34140000e-01
        2 -1    0    0  501    0 +0.0000000000e+00 +0.0000000000e+00 +2.1987911777e+02 2.1987911779e+02 2.5500000000e-03 0.0000e+00 -1.0000e+00
       -1 -1    0    0    0  501 -0.0000000000e+00 -0.0000000000e+00 -6.5333655887e+00 6.5333675326e+00 5.0400000000e-03 0.0000e+00 1.0000e+00
       24  2    1    2    0    0 +2.6645352591e-15 +1.7763568394e-15 +2.1334575218e+02 2.2641248532e+02 7.5803717151e+01 0.0000e+00 0.0000e+00
       66  2    3    3    0    0 -5.0974948539e+00 +1.2765728095e+01 +2.0957721712e+02 2.1215901949e+02 2.9998189074e+01 0.0000e+00 0.0000e+00
      -13  1    3    3    0    0 +5.0974948539e+00 -1.2765728095e+01 +3.7685350638e+00 1.4253465830e+01 1.0566000000e-01 0.0000e+00 1.0000e+00
       13  1    4    4    0    0 +7.3766800358e+00 +1.3791362750e+01 +1.0296390211e+02 1.0414505940e+02 1.0566000000e-01 0.0000e+00 -1.0000e+00
      -13  1    4    4    0    0 -1.0058880199e+01 -2.0648983027e+00 +1.0317841830e+02 1.0368819626e+02 1.0566000000e-01 0.0000e+00 1.0000e+00
       14  1    4    4    0    0 -2.4152946908e+00 +1.0392636480e+00 +3.4348967078e+00 4.3257638362e+00 0.0000000000e+00 0.0000e+00 -1.0000e+00
<mgrwt>
<rscale>  0 0.75803717E+02</rscale>
<asrwt>0</asrwt>
<pdfrwt beam="1">  1        2 0.33827558E-01 0.75803717E+02</pdfrwt>
<pdfrwt beam="2">  1       -1 0.10051333E-02 0.75803717E+02</pdfrwt>
<totfact> 0.26270122E+05</totfact>
</mgrwt>
</event>
<event>
 8      1 +5.0320763e-08 8.02627600e+01 7.81860800e-03 1.32830700e-01
       -2 -1    0    0    0  501 -0.0000000000e+00 +0.0000000000e+00 +5.2717363478e+00 5.2717369646e+00 2.5500000000e-03 0.0000e+00 1.0000e+00
        1 -1    0    0  501    0 +0.0000000000e+00 -0.0000000000e+00 -3.0550231665e+02 3.0550231669e+02 5.0400000000e-03 0.0000e+00 -1.0000e+00
      -24  2    1    2    0    0 -7.1054273576e-15 +0.0000000000e+00 -3.0023058030e+02 3.1077405365e+02 8.0262762706e+01 0.0000e+00 0.0000e+00
       66  2    3    3    0    0 -3.3764639614e+01 +6.1685671182e+00 -1.5667874658e+02 1.6317580760e+02 3.0000207479e+01 0.0000e+00 0.0000e+00
       13  1    3    3    0    0 +3.3764639614e+01 -6.1685671182e+00 -1.4355183372e+02 1.4759824605e+02 1.0566000000e-01 0.0000e+00 -1.0000e+00
       13  1    4    4    0    0 -1.3677746243e+01 +1.1876434307e+01 -6.8695080907e+01 7.1043337048e+01 1.0566000000e-01 0.0000e+00 -1.0000e+00
      -13  1    4    4    0    0 -1.6605738687e+01 +1.2025320247e+00 -7.6461701730e+01 7.8253432104e+01 1.0566000000e-01 0.0000e+00 1.0000e+00
       14  1    4    4    0    0 -3.4811546843e+00 -6.9103992131e+00 -1.1521963940e+01 1.3879038449e+01 0.0000000000e+00 0.0000e+00 -1.0000e+00
<mgrwt>
<rscale>  0 0.80262763E+02</rscale>
<asrwt>0</asrwt>
<pdfrwt beam="1">  1        1 0.47000343E-01 0.80262763E+02</pdfrwt>
<pdfrwt beam="2">  1       -2 0.81103665E-03 0.80262763E+02</pdfrwt>
<totfact> 0.17948145E+05</totfact>
</mgrwt>
</event>
<event>
 8      1 +5.0320763e-08 7.89044500e+01 7.81860800e-03 1.33219000e-01
       -1 -1    0    0    0  501 -0.0000000000e+00 +0.0000000000e+00 +2.5866519888e+01 2.5866520379e+01 5.0400000000e-03 0.0000e+00 1.0000e+00
        2 -1    0    0  501    0 +0.0000000000e+00 -0.0000000000e+00 -6.0173460049e+01 6.0173460103e+01 2.5500000000e-03 0.0000e+00 -1.0000e+00
       24  2    1    2    0    0 +0.0000000000e+00 +3.5527136788e-15 -3.4306940161e+01 8.6039980482e+01 7.8904449166e+01 0.0000e+00 0.0000e+00
       66  2    3    3    0    0 -6.0170518690e+00 -3.1270180367e+01 -3.1821950702e+01 5.4099169127e+01 3.0000907658e+01 0.0000e+00 0.0000e+00
      -13  1    3    3    0    0 +6.0170518690e+00 +3.1270180367e+01 -2.4849894586e+00 3.1940811356e+01 1.0566000000e-01 0.0000e+00 1.0000e+00
       13  1    4    4    0    0 -2.9733074891e-01 -8.4967335652e+00 -1.5260416716e+01 1.7469240660e+01 1.0566000000e-01 0.0000e+00 -1.0000e+00
      -13  1    4    4    0    0 -2.7559822138e+00 -1.8852032214e+01 -2.2130387337e+01 2.9202050686e+01 1.0566000000e-01 0.0000e+00 1.0000e+00
      -14  1    4    4    0    0 -2.9637389063e+00 -3.9214145883e+00 +5.5688533509e+00 7.4278777805e+00 0.0000000000e+00 0.0000e+00 1.0000e+00
<mgrwt>
<rscale>  0 0.78904449E+02</rscale>
<asrwt>0</asrwt>
<pdfrwt beam="1">  1        2 0.92574554E-02 0.78904449E+02</pdfrwt>
<pdfrwt beam="2">  1       -1 0.39794647E-02 0.78904449E+02</pdfrwt>
<totfact> 0.16171418E+05</totfact>
</mgrwt>
</event>
<event>
 8      1 +5.0320763e-08 8.12874700e+01 7.81860800e-03 1.32543700e-01
        1 -1    0    0  501    0 +0.0000000000e+00 +0.0000000000e+00 +2.3943807836e+01 2.3943808367e+01 5.0400000000e-03 0.0000e+00 -1.0000e+00
       -2 -1    0    0    0  501 -0.0000000000e+00 -0.0000000000e+00 -6.8991249991e+01 6.8991250038e+01 2.5500000000e-03 0.0000e+00 1.0000e+00
      -24  2    1    2    0    0 +0.0000000000e+00 +8.8817841970e-16 -4.5047442154e+01 9.2935058405e+01 8.1287471581e+01 0.0000e+00 0.0000e+00
       66  2    3    3    0    0 +1.0339556088e+01 -6.6203313647e+00 -6.3195346429e+01 7.1024038321e+01 3.0000450024e+01 0.0000e+00 0.0000e+00
       13  1    3    3    0    0 -1.0339556088e+01 +6.6203313647e+00 +1.8147904275e+01 2.1911020083e+01 1.0566000000e-01 0.0000e+00 -1.0000e+00
       13  1    4    4    0    0 -2.3397396566e+00 -5.5754346278e+00 +1.2316890472e-01 6.0486517146e+00 1.0566000000e-01 0.0000e+00 -1.0000e+00
      -13  1    4    4    0    0 +5.2223515734e+00 +1.3481791902e+00 -1.3380970236e+01 1.4427476272e+01 1.0566000000e-01 0.0000e+00 1.0000e+00
       14  1    4    4    0    0 +7.4569441714e+00 -2.3930759271e+00 -4.9937545098e+01 5.0547910334e+01 0.0000000000e+00 0.0000e+00 -1.0000e+00
<mgrwt>
<rscale>  0 0.81287472E+02</rscale>
<asrwt>0</asrwt>
<pdfrwt beam="1">  1        1 0.36836628E-02 0.81287472E+02</pdfrwt>
<pdfrwt beam="2">  1       -2 0.10614038E-01 0.81287472E+02</pdfrwt>
<totfact> 0.11066639E+05</totfact>
</mgrwt>
</event>
<event>
 8      1 +5.0320763e-08 8.03403800e+01 7.81860800e-03 1.32808800e-01
        3 -1    0    0  501    0 +0.0000000000e+00 +0.0000000000e+00 +9.8284288961e+01 9.8284340856e+01 1.0100000000e-01 0.0000e+00 -1.0000e+00
       -4 -1    0    0    0  501 -0.0000000000e+00 -0.0000000000e+00 -1.6389429097e+01 1.6438560950e+01 1.2700000000e+00 0.0000e+00 1.0000e+00
      -24  2    1    2    0    0 +0.0000000000e+00 -1.7763568394e-15 +8.1894859864e+01 1.1472290181e+02 8.0340376690e+01 0.0000e+00 0.0000e+00
       66  2    3    3    0    0 -2.8064793782e+01 +1.4428144284e+01 +2.6502277071e+01 5.0972188948e+01 2.9999822644e+01 0.0000e+00 0.0000e+00
       13  1    3    3    0    0 +2.8064793782e+01 -1.4428144284e+01 +5.5392582793e+01 6.3750712858e+01 1.0566000000e-01 0.0000e+00 -1.0000e+00
       13  1    4    4    0    0 -9.5388274967e+00 -1.3380595541e+00 +9.1304856913e+00 1.3272398667e+01 1.0566000000e-01 0.0000e+00 -1.0000e+00
      -13  1    4    4    0    0 -2.3155270181e+00 +1.0905216941e+01 +1.7530641239e+01 2.0775465534e+01 1.0566000000e-01 0.0000e+00 1.0000e+00
      -14  1    4    4    0    0 -1.6210439267e+01 +4.8609868970e+00 -1.5884985877e-01 1.6924324746e+01 0.0000000000e+00 0.0000e+00 1.0000e+00
<mgrwt>
<rscale>  0 0.80340377E+02</rscale>
<asrwt>0</asrwt>
<pdfrwt beam="1">  1        3 0.15120689E-01 0.80340377E+02</pdfrwt>
<pdfrwt beam="2">  1       -4 0.25258610E-02 0.80340377E+02</pdfrwt>
<totfact> 0.42242516E+04</totfact>
</mgrwt>
</event>
<event>
 8      1 +5.0320763e-08 7.97466900e+01 7.81860800e-03 1.32977200e-01
        4 -1    0    0  501    0 +0.0000000000e+00 +0.0000000000e+00 +1.2984977791e+01 1.3046936354e+01 1.2700000000e+00 0.0000e+00 -1.0000e+00
       -3 -1    0    0    0  501 -0.0000000000e+00 -0.0000000000e+00 -1.2211762185e+02 1.2211766361e+02 1.0100000000e-01 0.0000e+00 1.0000e+00
       24  2    1    2    0    0 +0.0000000000e+00 +6.6613381478e-16 -1.0913264406e+02 1.3516459997e+02 7.9746693259e+01 0.0000e+00 0.0000e+00
       66  2    3    3    0    0 -3.0729877630e+01 -1.1831184605e+00 -3.6810510159e+01 5.6575622599e+01 3.0001037746e+01 0.0000e+00 0.0000e+00
      -13  1    3    3    0    0 +3.0729877630e+01 +1.1831184605e+00 -7.2322133897e+01 7.8588977368e+01 1.0566000000e-01 0.0000e+00 1.0000e+00
       13  1    4    4    0    0 -1.8289669827e+01 -7.3987916672e+00 -1.2195373369e+01 2.3194663959e+01 1.0566000000e-01 0.0000e+00 -1.0000e+00
      -13  1    4    4    0    0 -6.3510760060e+00 +7.6853153632e+00 -2.3394574594e+00 1.0241311630e+01 1.0566000000e-01 0.0000e+00 1.0000e+00
      -14  1    4    4    0    0 -6.0891317970e+00 -1.4696421564e+00 -2.2275679330e+01 2.3139647010e+01 0.0000000000e+00 0.0000e+00 1.0000e+00
<mgrwt>
<rscale>  0 0.79746693E+02</rscale>
<asrwt>0</asrwt>
<pdfrwt beam="1">  1        4 0.20029630E-02 0.79746693E+02</pdfrwt>
<pdfrwt beam="2">  1       -3 0.18787359E-01 0.79746693E+02</pdfrwt>
<totfact> 0.41480637E+04</totfact>
</mgrwt>
</event>
<event>
 8      1 +5.0320763e-08 7.87783200e+01 7.81860800e-03 1.33255500e-01
        1 -1    0    0  501    0 +0.0000000000e+00 +0.0000000000e+00 +1.4734060612e+02 1.4734060621e+02 5.0400000000e-03 0.0000e+00 -1.0000e+00
       -2 -1    0    0    0  501 -0.0000000000e+00 -0.0000000000e+00 -1.0530064364e+01 1.0530064672e+01 2.5500000000e-03 0.0000e+00 1.0000e+00
      -24  2    1    2    0    0 +3.5527136788e-15 -5.3290705182e-15 +1.3681054176e+02 1.5787067088e+02 7.8778324354e+01 0.0000e+00 0.0000e+00
       66  2    3    3    0    0 -1.7523049606e+01 +1.5433614561e+01 +2.9694845455e+01 4.8239300897e+01 2.9999876308e+01 0.0000e+00 0.0000e+00
       13  1    3    3    0    0 +1.7523049606e+01 -1.5433614561e+01 +1.0711569630e+02 1.0963136998e+02 1.0566000000e-01 0.0000e+00 -1.0000e+00
       13  1    4    4    0    0 -1.0431359437e+01 +1.4778015329e+00 +8.3290684191e+00 1.3430625519e+01 1.0566000000e-01 0.0000e+00 -1.0000e+00
      -13  1    4    4    0    0 -3.2564614953e+00 -5.6637691560e+00 +1.6676565726e+00 6.7435202233e+00 1.0566000000e-01 0.0000e+00 1.0000e+00
      -14  1    4    4    0    0 -3.8352286739e+00 +1.9619582184e+01 +1.9698120463e+01 2.8065155154e+01 0.0000000000e+00 0.0000e+00 1.0000e+00
<mgrwt>
<rscale>  0 0.78778324E+02</rscale>
<asrwt>0</asrwt>
<pdfrwt beam="1">  1        1 0.22667785E-01 0.78778324E+02</pdfrwt>
<pdfrwt beam="2">  1       -2 0.16200099E-02 0.78778324E+02</pdfrwt>
<totfact> 0.16396760E+05</totfact>
</mgrwt>
</event>
<event>
 8      1 +5.0320763e-08 7.88995600e+01 7.81860800e-03 1.33220400e-01
       -1 -1    0    0    0  501 -0.0000000000e+00 +0.0000000000e+00 +4.0059871395e+01 4.0059871712e+01 5.0400000000e-03 0.0000e+00 1.0000e+00
        2 -1    0    0  501    0 +0.0000000000e+00 -0.0000000000e+00 -3.8848981377e+01 3.8848981461e+01 2.5500000000e-03 0.0000e+00 -1.0000e+00
       24  2    1    2    0    0 +2.7755575616e-16 +0.0000000000e+00 +1.2108900180e+00 7.8908853173e+01 7.8899561814e+01 0.0000e+00 0.0000e+00
       66  2    3    3    0    0 +2.6072799193e-01 -3.0210840240e+01 -1.4343276011e+01 4.4927886560e+01 3.0000376281e+01 0.0000e+00 0.0000e+00
      -13  1    3    3    0    0 -2.6072799193e-01 +3.0210840240e+01 +1.5554166029e+01 3.3980966613e+01 1.0566000000e-01 0.0000e+00 1.0000e+00
       13  1    4    4    0    0 +3.1426108493e+00 +1.7707149718e+00 -1.0088392540e+01 1.0714395109e+01 1.0566000000e-01 0.0000e+00 -1.0000e+00
      -13  1    4    4    0    0 -1.0649593250e+00 -8.5348475844e+00 +3.7331701584e+00 9.3768590221e+00 1.0566000000e-01 0.0000e+00 1.0000e+00
       14  1    4    4    0    0 -1.8169235324e+00 -2.3446707627e+01 -7.9880536292e+00 2.4836632430e+01 0.0000000000e+00 0.0000e+00 -1.0000e+00
<mgrwt>
<rscale>  0 0.78899562E+02</rscale>
<asrwt>0</asrwt>
<pdfrwt beam="1">  1        2 0.59767664E-02 0.78899562E+02</pdfrwt>
<pdfrwt beam="2">  1       -1 0.61630572E-02 0.78899562E+02</pdfrwt>
<totfact> 0.14723450E+05</totfact>
</mgrwt>
</event>
<event>
 8      1 +5.0320763e-08 8.93015700e+01 7.81860800e-03 1.30455200e-01
       -2 -1    0    0    0  501 -0.0000000000e+00 +0.0000000000e+00 +1.6979636091e+01 1.6979636282e+01 2.5500000000e-03 0.0000e+00 1.0000e+00
        1 -1    0    0  501    0 +0.0000000000e+00 -0.0000000000e+00 -1.1741668958e+02 1.1741668969e+02 5.0400000000e-03 0.0000e+00 -1.0000e+00
      -24  2    1    2    0    0 +0.0000000000e+00 -1.7763568394e-15 -1.0043705349e+02 1.3439632597e+02 8.9301571772e+01 0.0000e+00 0.0000e+00
       66  2    3    3    0    0 -3.8515433088e+01 -7.7788782367e+00 -4.8339327902e+01 6.9141949045e+01 2.9999482714e+01 0.0000e+00 0.0000e+00
       13  1    3    3    0    0 +3.8515433088e+01 +7.7788782367e+00 -5.2097725590e+01 6.5254376928e+01 1.0566000000e-01 0.0000e+00 -1.0000e+00
       13  1    4    4    0    0 -1.0092757990e+01 +2.4637599818e+00 -1.9730914013e+01 2.2299193011e+01 1.0566000000e-01 0.0000e+00 -1.0000e+00
      -13  1    4    4    0    0 -3.0315908619e+01 -6.2336898605e+00 -2.8971705802e+01 4.2394387669e+01 1.0566000000e-01 0.0000e+00 1.0000e+00
      -14  1    4    4    0    0 +1.8932335213e+00 -4.0089483580e+00 +3.6329191258e-01 4.4483683657e+00 0.0000000000e+00 0.0000e+00 1.0000e+00
<mgrwt>
<rscale>  0 0.89301572E+02</rscale>
<asrwt>0</asrwt>
<pdfrwt beam="1">  1        1 0.18064106E-01 0.89301572E+02</pdfrwt>
<pdfrwt beam="2">  1       -2 0.26122518E-02 0.89301572E+02</pdfrwt>
<totfact> 0.11216149E+05</totfact>
</mgrwt>
</event>
<event>
 8      1 +5.0320763e-08 8.05355200e+01 7.81860800e-03 1.32753900e-01
        3 -1    0    0  501    0 +0.0000000000e+00 +0.0000000000e+00 +1.9740733964e+02 1.9740736548e+02 1.0100000000e-01 0.0000e+00 -1.0000e+00
       -4 -1    0    0    0  501 -0.0000000000e+00 -0.0000000000e+00 -8.1627833233e+00 8.2609885355e+00 1.2700000000e+00 0.0000e+00 1.0000e+00
      -24  2    1    2    0    0 +0.0000000000e+00 +3.5527136788e-15 +1.8924455632e+02 2.0566835401e+02 8.0535518542e+01 0.0000e+00 0.0000e+00
       66  2    3    3    0    0 +2.9160649051e+01 -1.7629114200e+01 +9.1286838494e+01 1.0195309590e+02 3.0000296009e+01 0.0000e+00 0.0000e+00
       13  1    3    3    0    0 -2.9160649051e+01 +1.7629114200e+01 +9.7957717823e+01 1.0371525811e+02 1.0566000000e-01 0.0000e+00 -1.0000e+00
       13  1    4    4    0    0 +7.3219102061e+00 -6.1326398680e+00 +2.0061075339e+01 2.2218855700e+01 1.0566000000e-01 0.0000e+00 -1.0000e+00
      -13  1    4    4    0    0 +1.9724221062e+01 +1.9570705443e+00 +2.7239322833e+01 3.3687785532e+01 1.0566000000e-01 0.0000e+00 1.0000e+00
       14  1    4    4    0    0 +2.1145177822e+00 -1.3453544877e+01 +4.3986440322e+01 4.6046454667e+01 0.0000000000e+00 0.0000e+00 -1.0000e+00
<mgrwt>
<rscale>  0 0.80535519E+02</rscale>
<asrwt>0</asrwt>
<pdfrwt beam="1">  1        3 0.30370408E-01 0.80535519E+02</pdfrwt>
<pdfrwt beam="2">  1       -4 0.12636814E-02 0.80535519E+02</pdfrwt>
<totfact> 0.35559038E+04</totfact>
</mgrwt>
</event>
<event>
 8      1 +5.0320763e-08 8.03102700e+01 7.81860800e-03 1.32817300e-01
        2 -1    0    0  501    0 +0.0000000000e+00 +0.0000000000e+00 +8.0819477063e+01 8.0819477104e+01 2.5500000000e-03 0.0000e+00 -1.0000e+00
       -1 -1    0    0    0  501 -0.0000000000e+00 -0.0000000000e+00 -1.9951065452e+01 1.9951066089e+01 5.0400000000e-03 0.0000e+00 1.0000e+00
       24  2    1    2    0    0 +0.0000000000e+00 +2.2204460493e-16 +6.0868411611e+01 1.0077054319e+02 8.0310266113e+01 0.0000e+00 0.0000e+00
       66  2    3    3    0    0 +1.9730794075e+01 -1.8552684419e+00 +7.0194749437e+01 7.8867621079e+01 3.0000875824e+01 0.0000e+00 0.0000e+00
      -13  1    3    3    0    0 -1.9730794075e+01 +1.8552684419e+00 -9.3263378261e+00 2.1902922114e+01 1.0566000000e-01 0.0000e+00 1.0000e+00
       13  1    4    4    0    0 +1.2162488251e+01 -8.2204617787e+00 +1.9484917339e+01 2.4396214461e+01 1.0566000000e-01 0.0000e+00 1.0000e+00
      -13  1    4    4    0    0 -1.5557624722e+00 +8.6518347632e+00 +3.5629118490e+01 3.6697682352e+01 1.0566000000e-01 0.0000e+00 -1.0000e+00
       14  1    4    4    0    0 +9.1240682963e+00 -2.2866414264e+00 +1.5080713609e+01 1.7773724265e+01 0.0000000000e+00 0.0000e+00 -1.0000e+00
<mgrwt>
<rscale>  0 0.80310266E+02</rscale>
<asrwt>0</asrwt>
<pdfrwt beam="1">  1        2 0.12433766E-01 0.80310266E+02</pdfrwt>
<pdfrwt beam="2">  1       -1 0.30693947E-02 0.80310266E+02</pdfrwt>
<totfact> 0.16565739E+05</totfact>
</mgrwt>
</event>
<event>
 8      1 +5.0320763e-08 7.59020000e+01 7.81860800e-03 1.34110000e-01
       -1 -1    0    0    0  501 -0.0000000000e+00 +0.0000000000e+00 +3.9336079172e+00 3.9336111460e+00 5.0400000000e-03 0.0000e+00 1.0000e+00
        2 -1    0    0  501    0 +0.0000000000e+00 -0.0000000000e+00 -3.6614680373e+02 3.6614680374e+02 2.5500000000e-03 0.0000e+00 -1.0000e+00
       24  2    1    2    0    0 +0.0000000000e+00 +0.0000000000e+00 -3.6221319582e+02 3.7008041489e+02 7.5902004325e+01 0.0000e+00 0.0000e+00
       66  2    3    3    0    0 -2.0878737959e+01 -2.1485788841e+01 -2.6452971337e+02 2.6790588417e+02 3.0000544926e+01 0.0000e+00 0.0000e+00
      -13  1    3    3    0    0 +2.0878737959e+01 +2.1485788841e+01 -9.7683482447e+01 1.0217453072e+02 1.0566000000e-01 0.0000e+00 1.0000e+00
       13  1    4    4    0    0 -6.3239786997e+00 -2.1385651506e+01 -1.4517599876e+02 1.4687893170e+02 1.0566000000e-01 0.0000e+00 -1.0000e+00
      -13  1    4    4    0    0 -1.5983599867e+01 -2.0341109803e+00 -1.1430264530e+02 1.1543274647e+02 1.0566000000e-01 0.0000e+00 1.0000e+00
      -14  1    4    4    0    0 +1.4288406075e+00 +1.9339736458e+00 -5.0510693124e+00 5.5942059975e+00 0.0000000000e+00 0.0000e+00 1.0000e+00
<mgrwt>
<rscale>  0 0.75902004E+02</rscale>
<asrwt>0</asrwt>
<pdfrwt beam="1">  1        2 0.56330251E-01 0.75902004E+02</pdfrwt>
<pdfrwt beam="2">  1       -1 0.60517099E-03 0.75902004E+02</pdfrwt>
<totfact> 0.31411011E+05</totfact>
</mgrwt>
</event>
<event>
 8      1 +5.0320763e-08 7.97572900e+01 7.81860800e-03 1.32974200e-01
       -2 -1    0    0    0  501 -0.0000000000e+00 +0.0000000000e+00 +1.1763503385e+01 1.1763503662e+01 2.5500000000e-03 0.0000e+00 1.0000e+00
        1 -1    0    0  501    0 +0.0000000000e+00 -0.0000000000e+00 -1.3518986767e+02 1.3518986777e+02 5.0400000000e-03 0.0000e+00 -1.0000e+00
      -24  2    1    2    0    0 +7.1054273576e-15 +2.5951463201e-15 -1.2342636429e+02 1.4695337143e+02 7.9757294167e+01 0.0000e+00 0.0000e+00
       66  2    3    3    0    0 +3.3667529674e+01 +6.2853397995e-02 -5.8994302155e+01 7.4255308871e+01 3.0000278396e+01 0.0000e+00 0.0000e+00
       13  1    3    3    0    0 -3.3667529674e+01 -6.2853397995e-02 -6.4432062131e+01 7.2698062556e+01 1.0566000000e-01 0.0000e+00 -1.0000e+00
       13  1    4    4    0    0 +1.7650871554e+01 -1.2492942505e+01 -2.9233094036e+01 3.6362230818e+01 1.0566000000e-01 0.0000e+00 -1.0000e+00
      -13  1    4    4    0    0 -9.2239769918e-01 +2.6203954854e+00 -8.5335672323e+00 8.9749776467e+00 1.0566000000e-01 0.0000e+00 1.0000e+00
       14  1    4    4    0    0 +1.6939055819e+01 +9.9354004179e+00 -2.1227640886e+01 2.8918100406e+01 0.0000000000e+00 0.0000e+00 -1.0000e+00
<mgrwt>
<rscale>  0 0.79757294E+02</rscale>
<asrwt>0</asrwt>
<pdfrwt beam="1">  1        1 0.20798440E-01 0.79757294E+02</pdfrwt>
<pdfrwt beam="2">  1       -2 0.18097699E-02 0.79757294E+02</pdfrwt>
<totfact> 0.15618273E+05</totfact>
</mgrwt>
</event>
<event>
 8      1 +5.0320763e-08 8.01847400e+01 7.81860800e-03 1.32852800e-01
        2 -1    0    0  501    0 +0.0000000000e+00 +0.0000000000e+00 +4.5840390619e+02 4.5840390620e+02 2.5500000000e-03 0.0000e+00 -1.0000e+00
       -1 -1    0    0    0  501 -0.0000000000e+00 -0.0000000000e+00 -3.5065085230e+00 3.5065121450e+00 5.0400000000e-03 0.0000e+00 1.0000e+00
       24  2    1    2    0    0 -3.5527136788e-15 +0.0000000000e+00 +4.5489739767e+02 4.6191041834e+02 8.0184737755e+01 0.0000e+00 0.0000e+00
       66  2    3    3    0    0 +3.1400051052e+01 +3.2800160726e+00 +3.3914232330e+02 3.4192721069e+02 2.9999670813e+01 0.0000e+00 0.0000e+00
      -13  1    3    3    0    0 -3.1400051052e+01 -3.2800160726e+00 +1.1575507437e+02 1.1998320765e+02 1.0566000000e-01 0.0000e+00 1.0000e+00
       13  1    4    4    0    0 +2.8522510156e+01 -4.2636338157e+00 +2.1465634847e+02 2.1658502086e+02 1.0566000000e-01 0.0000e+00 -1.0000e+00
      -13  1    4    4    0    0 +7.6687662173e+00 +4.1818570173e+00 +7.0108580641e+01 7.0650705212e+01 1.0566000000e-01 0.0000e+00 1.0000e+00
      -14  1    4    4    0    0 -4.7912253206e+00 +3.3617928709e+00 +5.4377394185e+01 5.4691484618e+01 0.0000000000e+00 0.0000e+00 1.0000e+00
<mgrwt>
<rscale>  0 0.80184738E+02</rscale>
<asrwt>0</asrwt>
<pdfrwt beam="1">  1        2 0.70523685E-01 0.80184738E+02</pdfrwt>
<pdfrwt beam="2">  1       -1 0.53946308E-03 0.80184738E+02</pdfrwt>
<totfact> 0.29423461E+05</totfact>
</mgrwt>
</event>
<event>
 8      1 +5.0320763e-08 7.87999500e+01 7.81860800e-03 1.33249200e-01
       -2 -1    0    0    0  501 -0.0000000000e+00 +0.0000000000e+00 +4.5776309049e+00 4.5776316151e+00 2.5500000000e-03 0.0000e+00 1.0000e+00
        1 -1    0    0  501    0 +0.0000000000e+00 -0.0000000000e+00 -3.3911818656e+02 3.3911818660e+02 5.0400000000e-03 0.0000e+00 -1.0000e+00
      -24  2    1    2    0    0 +4.4408920985e-16 -3.5527136788e-15 -3.3454055566e+02 3.4369581821e+02 7.8799949739e+01 0.0000e+00 0.0000e+00
       66  2    3    3    0    0 +7.6533325394e-01 +2.7892992858e+01 -2.7385119368e+02 2.7689900237e+02 2.9999607476e+01 0.0000e+00 0.0000e+00
       13  1    3    3    0    0 -7.6533325394e-01 -2.7892992858e+01 -6.0689361978e+01 6.6796815844e+01 1.0566000000e-01 0.0000e+00 -1.0000e+00
       13  1    4    4    0    0 -7.5947599119e+00 +1.2008377021e+01 -1.1648126277e+02 1.1734469412e+02 1.0566000000e-01 0.0000e+00 -1.0000e+00
      -13  1    4    4    0    0 +7.9703483347e+00 +1.8119520670e+00 -1.0523671243e+02 1.0555371349e+02 1.0566000000e-01 0.0000e+00 1.0000e+00
      -14  1    4    4    0    0 +3.8974483115e-01 +1.4072663770e+01 -5.2133218472e+01 5.4000594764e+01 0.0000000000e+00 0.0000e+00 1.0000e+00
<mgrwt>
<rscale>  0 0.78799950E+02</rscale>
<asrwt>0</asrwt>
<pdfrwt beam="1">  1        1 0.52172009E-01 0.78799950E+02</pdfrwt>
<pdfrwt beam="2">  1       -2 0.70425123E-03 0.78799950E+02</pdfrwt>
<totfact> 0.19206597E+05</totfact>
</mgrwt>
</event>
<event>
 8      1 +5.0320763e-08 7.60493000e+01 7.81860800e-03 1.34065200e-01
        1 -1    0    0  501    0 +0.0000000000e+00 +0.0000000000e+00 +2.9803618222e+00 2.9803660837e+00 5.0400000000e-03 0.0000e+00 -1.0000e+00
       -2 -1    0    0    0  501 -0.0000000000e+00 -0.0000000000e+00 -4.8513333820e+02 4.8513333820e+02 2.5500000000e-03 0.0000e+00 1.0000e+00
      -24  2    1    2    0    0 -4.4408920985e-16 +3.5527136788e-15 -4.8215297637e+02 4.8811370429e+02 7.6049297736e+01 0.0000e+00 0.0000e+00
       66  2    3    3    0    0 +3.6662114081e+00 +2.9448489354e+01 -3.5725926293e+02 3.5974273618e+02 3.0000010867e+01 0.0000e+00 0.0000e+00
       13  1    3    3    0    0 -3.6662114081e+00 -2.9448489354e+01 -1.2489371344e+02 1.2837096810e+02 1.0566000000e-01 0.0000e+00 -1.0000e+00
       13  1    4    4    0    0 +3.0132600078e+00 +7.7752028058e+00 -1.2806528198e+02 1.2833651518e+02 1.0566000000e-01 0.0000e+00 -1.0000e+00
      -13  1    4    4    0    0 +6.4202215180e-02 -2.2834989695e+00 -9.8922758390e+01 9.8949187874e+01 1.0566000000e-01 0.0000e+00 1.0000e+00
       14  1    4    4    0    0 +5.8874918517e-01 +2.3956785518e+01 -1.3027122256e+02 1.3245703313e+02 0.0000000000e+00 0.0000e+00 -1.0000e+00
<mgrwt>
<rscale>  0 0.76049298E+02</rscale>
<asrwt>0</asrwt>
<pdfrwt beam="1">  1        1 0.45851792E-03 0.76049298E+02</pdfrwt>
<pdfrwt beam="2">  1       -2 0.74635836E-01 0.76049298E+02</pdfrwt>
<totfact> 0.58747867E+04</totfact>
</mgrwt>
</event>
<event>
 8      1 +5.0320763e-08 7.83570400e+01 7.81860800e-03 1.33378000e-01
       -3 -1    0    0    0  501 -0.0000000000e+00 +0.0000000000e+00 +1.0726369474e+02 1.0726374230e+02 1.0100000000e-01 0.0000e+00 1.0000e+00
        4 -1    0    0  501    0 +0.0000000000e+00 -0.0000000000e+00 -1.4278149948e+01 1.4334520080e+01 1.2700000000e+00 0.0000e+00 -1.0000e+00
       24  2    1    2    0    0 +0.0000000000e+00 +2.2204460493e-16 +9.2985544797e+01 1.2159826238e+02 7.8357040983e+01 0.0000e+00 0.0000e+00
       66  2    3    3    0    0 +2.2002491489e+01 +1.3843657847e+00 +1.4297793644e+01 3.9880458649e+01 2.9999966310e+01 0.0000e+00 0.0000e+00
      -13  1    3    3    0    0 -2.2002491489e+01 -1.3843657847e+00 +7.8687751152e+01 8.1717803726e+01 1.0566000000e-01 0.0000e+00 1.0000e+00
       13  1    4    4    0    0 +1.3252609370e+01 +8.2768739803e+00 -4.7417493298e+00 1.6328920624e+01 1.0566000000e-01 0.0000e+00 -1.0000e+00
      -13  1    4    4    0    0 +6.7113178888e+00 -2.9192754625e+00 +1.7253586478e+01 1.8741968078e+01 1.0566000000e-01 0.0000e+00 1.0000e+00
       14  1    4    4    0    0 +2.0385642305e+00 -3.9732327331e+00 +1.7859564957e+00 4.8095699473e+00 0.0000000000e+00 0.0000e+00 -1.0000e+00
<mgrwt>
<rscale>  0 0.78357041E+02</rscale>
<asrwt>0</asrwt>
<pdfrwt beam="1">  1        4 0.22015528E-02 0.78357041E+02</pdfrwt>
<pdfrwt beam="2">  1       -3 0.16502139E-01 0.78357041E+02</pdfrwt>
<totfact> 0.44606762E+04</totfact>
</mgrwt>
</event>
<event>
 8      1 +5.0320763e-08 8.23915800e+01 7.81860800e-03 1.32239800e-01
       -1 -1    0    0    0  501 -0.0000000000e+00 +0.0000000000e+00 +9.3450229587e+00 9.3450243178e+00 5.0400000000e-03 0.0000e+00 1.0000e+00
        2 -1    0    0  501    0 +0.0000000000e+00 -0.0000000000e+00 -1.8160393115e+02 1.8160393117e+02 2.5500000000e-03 0.0000e+00 -1.0000e+00
       24  2    1    2    0    0 -3.5527136788e-15 -7.1054273576e-15 -1.7225890819e+02 1.9094895549e+02 8.2391578148e+01 0.0000e+00 0.0000e+00
       66  2    3    3    0    0 +1.0796724311e+01 +3.3911370138e+01 -1.0503352205e+02 1.1488441719e+02 2.9997304512e+01 0.0000e+00 0.0000e+00
      -13  1    3    3    0    0 -1.0796724311e+01 -3.3911370138e+01 -6.7225386137e+01 7.6064538293e+01 1.0566000000e-01 0.0000e+00 1.0000e+00
       13  1    4    4    0    0 +8.3108954137e+00 +2.7614533173e+01 -7.8628010167e+01 8.3749678040e+01 1.0566000000e-01 0.0000e+00 -1.0000e+00
      -13  1    4    4    0    0 -4.1369693833e+00 +8.3048315241e+00 -1.7965744960e+01 2.0220383239e+01 1.0566000000e-01 0.0000e+00 1.0000e+00
      -14  1    4    4    0    0 +6.6227982810e+00 -2.0079945588e+00 -8.4397669267e+00 1.0914355913e+01 0.0000000000e+00 0.0000e+00 1.0000e+00
<mgrwt>
<rscale>  0 0.82391578E+02</rscale>
<asrwt>0</asrwt>
<pdfrwt beam="1">  1        2 0.27939064E-01 0.82391578E+02</pdfrwt>
<pdfrwt beam="2">  1       -1 0.14376961E-02 0.82391578E+02</pdfrwt>
<totfact> 0.19737761E+05</totfact>
</mgrwt>
</event>
<event>
 8      1 +5.0320763e-08 7.75241500e+01 7.81860800e-03 1.33622800e-01
       -2 -1    0    0    0  501 -0.0000000000e+00 +0.0000000000e+00 +7.1708657380e+00 7.1708661914e+00 2.5500000000e-03 0.0000e+00 1.0000e+00
        1 -1    0    0  501    0 +0.0000000000e+00 -0.0000000000e+00 -2.0952816041e+02 2.0952816047e+02 5.0400000000e-03 0.0000e+00 -1.0000e+00
      -24  2    1    2    0    0 +0.0000000000e+00 +0.0000000000e+00 -2.0235729467e+02 2.1669902666e+02 7.7524147524e+01 0.0000e+00 0.0000e+00
       66  2    3    3    0    0 +2.5581023793e+01 -1.3059767218e+01 -7.1150748574e+01 8.2385530687e+01 3.0000005765e+01 0.0000e+00 0.0000e+00
       13  1    3    3    0    0 -2.5581023793e+01 +1.3059767218e+01 -1.3120654610e+02 1.3431349598e+02 1.0566000000e-01 0.0000e+00 -1.0000e+00
       13  1    4    4    0    0 +7.5825844935e+00 -4.2001498646e+00 -2.7165352240e+00 9.0844688422e+00 1.0566000000e-01 0.0000e+00 -1.0000e+00
      -13  1    4    4    0    0 +6.1440732365e+00 +3.2510243682e+00 -8.3116958040e+00 1.0835785461e+01 1.0566000000e-01 0.0000e+00 1.0000e+00
      -14  1    4    4    0    0 +1.1854366062e+01 -1.2110641722e+01 -6.0122517546e+01 6.2465276384e+01 0.0000000000e+00 0.0000e+00 1.0000e+00
<mgrwt>
<rscale>  0 0.77524148E+02</rscale>
<asrwt>0</asrwt>
<pdfrwt beam="1">  1        1 0.32235097E-01 0.77524148E+02</pdfrwt>
<pdfrwt beam="2">  1       -2 0.11032103E-02 0.77524148E+02</pdfrwt>
<totfact> 0.18286101E+05</totfact>
</mgrwt>
</event>
<event>
 8      1 +5.0320763e-08 8.09852800e+01 7.81860800e-03 1.32627800e-01
        2 -1    0    0  501    0 +0.0000000000e+00 +0.0000000000e+00 +5.2134749442e+01 5.2134749504e+01 2.5500000000e-03 0.0000e+00 -1.0000e+00
       -1 -1    0    0    0  501 -0.0000000000e+00 -0.0000000000e+00 -3.1450306668e+01 3.1450307072e+01 5.0400000000e-03 0.0000e+00 1.0000e+00
       24  2    1    2    0    0 +0.0000000000e+00 +0.0000000000e+00 +2.0684442774e+01 8.3585056576e+01 8.0985279588e+01 0.0000e+00 0.0000e+00
       66  2    3    3    0    0 -2.1777837406e+01 -2.4522463570e+01 +2.4185408630e+01 5.0601828299e+01 2.9999760248e+01 0.0000e+00 0.0000e+00
      -13  1    3    3    0    0 +2.1777837406e+01 +2.4522463570e+01 -3.5009658561e+00 3.2983228277e+01 1.0566000000e-01 0.0000e+00 1.0000e+00
       13  1    4    4    0    0 -2.2070025656e+01 -2.9356652507e+01 +2.4166322090e+01 4.3965001606e+01 1.0566000000e-01 0.0000e+00 -1.0000e+00
      -13  1    4    4    0    0 +2.0720820653e+00 +2.0086961303e+00 -1.1361307097e+00 3.1032791132e+00 1.0566000000e-01 0.0000e+00 1.0000e+00
       14  1    4    4    0    0 -1.7798938161e+00 +2.8254928072e+00 +1.1552172501e+00 3.5335475793e+00 0.0000000000e+00 0.0000e+00 -1.0000e+00
<mgrwt>
<rscale>  0 0.80985280E+02</rscale>
<asrwt>0</asrwt>
<pdfrwt beam="1">  1        2 0.80207306E-02 0.80985280E+02</pdfrwt>
<pdfrwt beam="2">  1       -1 0.48385088E-02 0.80985280E+02</pdfrwt>
<totfact> 0.14583559E+05</totfact>
</mgrwt>
</event>
<event>
 8      1 +5.0320763e-08 7.86361200e+01 7.81860800e-03 1.33296700e-01
       -2 -1    0    0    0  501 -0.0000000000e+00 +0.0000000000e+00 +1.9209822893e+01 1.9209823063e+01 2.5500000000e-03 0.0000e+00 1.0000e+00
        1 -1    0    0  501    0 +0.0000000000e+00 -0.0000000000e+00 -8.0474959320e+01 8.0474959477e+01 5.0400000000e-03 0.0000e+00 -1.0000e+00
      -24  2    1    2    0    0 +0.0000000000e+00 +0.0000000000e+00 -6.1265136426e+01 9.9684782540e+01 7.8636117203e+01 0.0000e+00 0.0000e+00
       66  2    3    3    0    0 +2.0066440569e+01 +2.0833386533e+01 -1.3430718738e+01 4.3784561511e+01 3.0000193155e+01 0.0000e+00 0.0000e+00
       13  1    3    3    0    0 -2.0066440569e+01 -2.0833386533e+01 -4.7834417688e+01 5.5900221029e+01 1.0566000000e-01 0.0000e+00 -1.0000e+00
       13  1    4    4    0    0 +1.2728920817e+01 +1.5056861853e+01 -7.6497262453e+00 2.1148616732e+01 1.0566000000e-01 0.0000e+00 -1.0000e+00
      -13  1    4    4    0    0 +6.3392422686e+00 +1.2047865948e+01 +6.0803919893e-01 1.3627837031e+01 1.0566000000e-01 0.0000e+00 1.0000e+00
       14  1    4    4    0    0 +9.9827748281e-01 -6.2713412678e+00 -6.3890316917e+00 9.0081077473e+00 0.0000000000e+00 0.0000e+00 -1.0000e+00
<mgrwt>
<rscale>  0 0.78636117E+02</rscale>
<asrwt>0</asrwt>
<pdfrwt beam="1">  1        1 0.12380763E-01 0.78636117E+02</pdfrwt>
<pdfrwt beam="2">  1       -2 0.29553574E-02 0.78636117E+02</pdfrwt>
<totfact> 0.14862025E+05</totfact>
</mgrwt>
</event>
<event>
 8      1 +5.0320763e-08 7.95244400e+01 7.81860800e-03 1.33040600e-01
        3 -1    0    0  501    0 +0.0000000000e+00 +0.0000000000e+00 +5.0204213743e+01 5.0204315338e+01 1.0100000000e-01 0.0000e+00 -1.0000e+00
       -4 -1    0    0    0  501 -0.0000000000e+00 -0.0000000000e+00 -3.1471141090e+01 3.1496755730e+01 1.2700000000e+00 0.0000e+00 1.0000e+00
      -24  2    1    2    0    0 +2.2204460493e-16 -3.5527136788e-15 +1.8733072652e+01 8.1701071068e+01 7.9524442800e+01 0.0000e+00 0.0000e+00
       66  2    3    3    0    0 -1.2783456714e+00 +1.9402295361e+01 -1.8085013900e+01 4.0063757341e+01 2.9999228183e+01 0.0000e+00 0.0000e+00
       13  1    3    3    0    0 +1.2783456714e+00 -1.9402295361e+01 +3.6818086552e+01 4.1637313727e+01 1.0566000000e-01 0.0000e+00 -1.0000e+00
       13  1    4    4    0    0 +4.2996667148e+00 +1.3655105061e+01 +3.0219105622e+00 1.4631887628e+01 1.0566000000e-01 0.0000e+00 -1.0000e+00
      -13  1    4    4    0    0 -4.6297686872e-01 +7.1609159296e+00 -1.7766555217e+01 1.9161281608e+01 1.0566000000e-01 0.0000e+00 1.0000e+00
      -14  1    4    4    0    0 -5.1150355175e+00 -1.4137256287e+00 -3.3403692452e+00 6.2705881058e+00 0.0000000000e+00 0.0000e+00 1.0000e+00
<mgrwt>
<rscale>  0 0.79524443E+02</rscale>
<asrwt>0</asrwt>
<pdfrwt beam="1">  1        3 0.77237459E-02 0.79524443E+02</pdfrwt>
<pdfrwt beam="2">  1       -4 0.48449198E-02 0.79524443E+02</pdfrwt>
<totfact> 0.45964399E+04</totfact>
</mgrwt>
</event>
<event>
 8      1 +5.0320763e-08 8.14206400e+01 7.81860800e-03 1.32506800e-01
        4 -1    0    0  501    0 +0.0000000000e+00 +0.0000000000e+00 +1.6096920505e+02 1.6097421493e+02 1.2700000000e+00 0.0000e+00 -1.0000e+00
       -3 -1    0    0    0  501 -0.0000000000e+00 -0.0000000000e+00 -1.0293016046e+01 1.0293511564e+01 1.0100000000e-01 0.0000e+00 1.0000e+00
       24  2    1    2    0    0 +0.0000000000e+00 +0.0000000000e+00 +1.5067618900e+02 1.7126772650e+02 8.1420637481e+01 0.0000e+00 0.0000e+00
       66  2    3    3    0    0 -9.9762609546e+00 -3.1406881180e+01 +1.1149494158e+02 1.2007105393e+02 3.0000300445e+01 0.0000e+00 0.0000e+00
      -13  1    3    3    0    0 +9.9762609546e+00 +3.1406881180e+01 +3.9181247421e+01 5.1196672564e+01 1.0566000000e-01 0.0000e+00 1.0000e+00
       13  1    4    4    0    0 +1.8086267517e+00 -1.2232045360e+01 +2.4921336237e+01 2.7820464199e+01 1.0566000000e-01 0.0000e+00 -1.0000e+00
      -13  1    4    4    0    0 +3.9765901492e+00 -5.2230586500e-01 +3.4532419782e+01 3.4764712752e+01 1.0566000000e-01 0.0000e+00 1.0000e+00
       14  1    4    4    0    0 -1.5761477856e+01 -1.8652529956e+01 +5.2041185560e+01 5.7485876982e+01 0.0000000000e+00 0.0000e+00 -1.0000e+00
<mgrwt>
<rscale>  0 0.81420637E+02</rscale>
<asrwt>0</asrwt>
<pdfrwt beam="1">  1        4 0.24770906E-01 0.81420637E+02</pdfrwt>
<pdfrwt beam="2">  1       -3 0.15835814E-02 0.81420637E+02</pdfrwt>
<totfact> 0.33942358E+04</totfact>
</mgrwt>
</event>
<event>
 8      1 +5.0320763e-08 8.02413300e+01 7.81860800e-03 1.32836800e-01
       -1 -1    0    0    0  501 -0.0000000000e+00 +0.0000000000e+00 +1.2749130182e+01 1.2749131179e+01 5.0400000000e-03 0.0000e+00 1.0000e+00
        2 -1    0    0  501    0 +0.0000000000e+00 -0.0000000000e+00 -1.2625706743e+02 1.2625706745e+02 2.5500000000e-03 0.0000e+00 -1.0000e+00
       24  2    1    2    0    0 +0.0000000000e+00 +0.0000000000e+00 -1.1350793724e+02 1.3900619863e+02 8.0241332494e+01 0.0000e+00 0.0000e+00
       66  2    3    3    0    0 +2.1077755936e+01 -1.6701649279e+01 -1.0216203913e+02 1.0981788844e+02 2.9994491120e+01 0.0000e+00 0.0000e+00
      -13  1    3    3    0    0 -2.1077755936e+01 +1.6701649279e+01 -1.1345898113e+01 2.9188310194e+01 1.0566000000e-01 0.0000e+00 1.0000e+00
       13  1    4    4    0    0 +1.1939142148e+01 -1.0833373561e+01 -4.9533755858e+01 5.2091354670e+01 1.0566000000e-01 0.0000e+00 -1.0000e+00
      -13  1    4    4    0    0 +1.4021566529e+01 -3.9084667675e+00 -4.9520673291e+01 5.1615779444e+01 1.0566000000e-01 0.0000e+00 1.0000e+00
      -14  1    4    4    0    0 -4.8829527412e+00 -1.9598089509e+00 -3.1076099814e+00 6.1107543228e+00 0.0000000000e+00 0.0000e+00 1.0000e+00
<mgrwt>
<rscale>  0 0.80241332E+02</rscale>
<asrwt>0</asrwt>
<pdfrwt beam="1">  1        2 0.19424163E-01 0.80241332E+02</pdfrwt>
<pdfrwt beam="2">  1       -1 0.19614048E-02 0.80241332E+02</pdfrwt>
<totfact> 0.18824177E+05</totfact>
</mgrwt>
</event>
<event>
 8      1 +5.0320763e-08 7.73594000e+01 7.81860800e-03 1.33671700e-01
        2 -1    0    0  501    0 +0.0000000000e+00 +0.0000000000e+00 +1.7133827155e+02 1.7133827157e+02 2.5500000000e-03 0.0000e+00 -1.0000e+00
       -1 -1    0    0    0  501 -0.0000000000e+00 -0.0000000000e+00 -8.7319605875e+00 8.7319620420e+00 5.0400000000e-03 0.0000e+00 1.0000e+00
       24  2    1    2    0    0 -1.7763568394e-15 +0.0000000000e+00 +1.6260631096e+02 1.8007023361e+02 7.7359399350e+01 0.0000e+00 0.0000e+00
       66  2    3    3    0    0 +9.6719995118e+00 -3.1146131080e+01 +1.0293835818e+02 1.1207093355e+02 2.9999325086e+01 0.0000e+00 0.0000e+00
      -13  1    3    3    0    0 -9.6719995118e+00 +3.1146131080e+01 +5.9667952783e+01 6.7999300063e+01 1.0566000000e-01 0.0000e+00 1.0000e+00
       13  1    4    4    0    0 +9.6859655781e-02 -5.7886439827e+00 +2.7458843663e+01 2.8062734013e+01 1.0566000000e-01 0.0000e+00 -1.0000e+00
      -13  1    4    4    0    0 -6.5238165822e+00 -1.6742812897e-01 +1.9237722756e+01 2.0314757095e+01 1.0566000000e-01 0.0000e+00 1.0000e+00
       14  1    4    4    0    0 +1.6098956438e+01 -2.5190058968e+01 +5.6241791758e+01 6.3693442436e+01 0.0000000000e+00 0.0000e+00 -1.0000e+00
<mgrwt>
<rscale>  0 0.77359399E+02</rscale>
<asrwt>0</asrwt>
<pdfrwt beam="1">  1        2 0.26359732E-01 0.77359399E+02</pdfrwt>
<pdfrwt beam="2">  1       -1 0.13433788E-02 0.77359399E+02</pdfrwt>
<totfact> 0.22863990E+05</totfact>
</mgrwt>
</event>
<event>
 8      1 +5.0320763e-08 8.06989900e+01 7.81860800e-03 1.32707900e-01
       -2 -1    0    0    0  501 -0.0000000000e+00 +0.0000000000e+00 +1.1284836510e+01 1.1284836799e+01 2.5500000000e-03 0.0000e+00 1.0000e+00
        1 -1    0    0  501    0 +0.0000000000e+00 -0.0000000000e+00 -1.4427164114e+02 1.4427164123e+02 5.0400000000e-03 0.0000e+00 -1.0000e+00
      -24  2    1    2    0    0 +7.1054273576e-15 -3.5527136788e-15 -1.3298680463e+02 1.5555647803e+02 8.0698994111e+01 0.0000e+00 0.0000e+00
       66  2    3    3    0    0 -3.2361845503e+01 +8.9615121853e+00 -5.8269136799e+01 7.3639820410e+01 2.9998885007e+01 0.0000e+00 0.0000e+00
       13  1    3    3    0    0 +3.2361845503e+01 -8.9615121853e+00 -7.4717667832e+01 8.1916657618e+01 1.0566000000e-01 0.0000e+00 -1.0000e+00
       13  1    4    4    0    0 -2.0632760745e+01 +1.6535772933e+01 -4.0768100694e+01 4.8592096072e+01 1.0566000000e-01 0.0000e+00 -1.0000e+00
      -13  1    4    4    0    0 +1.5113749970e+00 -2.2791505558e+00 -3.7539416077e-01 2.7624022968e+00 1.0566000000e-01 0.0000e+00 1.0000e+00
       14  1    4    4    0    0 -1.3240459756e+01 -5.2951101916e+00 -1.7125641944e+01 2.2285322041e+01 0.0000000000e+00 0.0000e+00 -1.0000e+00
<mgrwt>
<rscale>  0 0.80698994E+02</rscale>
<asrwt>0</asrwt>
<pdfrwt beam="1">  1        1 0.22195636E-01 0.80698994E+02</pdfrwt>
<pdfrwt beam="2">  1       -2 0.17361288E-02 0.80698994E+02</pdfrwt>
<totfact> 0.15315148E+05</totfact>
</mgrwt>
</event>
<event>
 8      1 +5.0320763e-08 7.92026600e+01 7.81860800e-03 1.33133000e-01
        2 -1    0    0  501    0 +0.0000000000e+00 +0.0000000000e+00 +6.4640260324e+02 6.4640260324e+02 2.5500000000e-03 0.0000e+00 -1.0000e+00
       -1 -1    0    0    0  501 -0.0000000000e+00 -0.0000000000e+00 -2.4261408075e+00 2.4261460425e+00 5.0400000000e-03 0.0000e+00 1.0000e+00
       24  2    1    2    0    0 +1.7763568394e-15 +0.0000000000e+00 +6.4397646243e+02 6.4882874929e+02 7.9202662423e+01 0.0000e+00 0.0000e+00
       66  2    3    3    0    0 +1.3499690778e+01 +1.2462464983e+01 +6.0176141279e+02 6.0278880723e+02 2.9999891847e+01 0.0000e+00 0.0000e+00
      -13  1    3    3    0    0 -1.3499690778e+01 -1.2462464983e+01 +4.2215049641e+01 4.6039942059e+01 1.0566000000e-01 0.0000e+00 1.0000e+00
       13  1    4    4    0    0 -5.5350021035e+00 +5.2898252772e-01 +1.2741566784e+02 1.2753697364e+02 1.0566000000e-01 0.0000e+00 -1.0000e+00
      -13  1    4    4    0    0 +7.9859967399e+00 -4.3942404189e+00 +1.1210589080e+02 1.1247589701e+02 1.0566000000e-01 0.0000e+00 1.0000e+00
      -14  1    4    4    0    0 +1.1048696141e+01 +1.6327722874e+01 +3.6223985415e+02 3.6277593657e+02 0.0000000000e+00 0.0000e+00 1.0000e+00
<mgrwt>
<rscale>  0 0.79202662E+02</rscale>
<asrwt>0</asrwt>
<pdfrwt beam="1">  1        2 0.99446655E-01 0.79202662E+02</pdfrwt>
<pdfrwt beam="2">  1       -1 0.37325246E-03 0.79202662E+02</pdfrwt>
<totfact> 0.33676394E+05</totfact>
</mgrwt>
</event>
<event>
 8      1 +5.0320763e-08 8.21629300e+01 7.81860800e-03 1.32302300e-01
        1 -1    0    0  501    0 +0.0000000000e+00 +0.0000000000e+00 +4.6687973272e+01 4.6687973544e+01 5.0400000000e-03 0.0000e+00 -1.0000e+00
       -2 -1    0    0    0  501 -0.0000000000e+00 -0.0000000000e+00 -3.6148214022e+01 3.6148214112e+01 2.5500000000e-03 0.0000e+00 1.0000e+00
      -24  2    1    2    0    0 +0.0000000000e+00 +0.0000000000e+00 +1.0539759250e+01 8.2836187656e+01 8.2162932398e+01 0.0000e+00 0.0000e+00
       66  2    3    3    0    0 -1.1943294402e+01 -1.1940167825e+01 -2.5629364967e+01 4.2918439729e+01 2.9998637158e+01 0.0000e+00 0.0000e+00
       13  1    3    3    0    0 +1.1943294402e+01 +1.1940167825e+01 +3.6169124217e+01 3.9917747926e+01 1.0566000000e-01 0.0000e+00 -1.0000e+00
       13  1    4    4    0    0 -1.2458964400e-01 +2.6658771917e+00 -5.3141874411e+00 5.9476193537e+00 1.0566000000e-01 0.0000e+00 1.0000e+00
      -13  1    4    4    0    0 -7.9348083652e+00 -2.5066953105e+00 +4.2269583822e+00 9.3339727004e+00 1.0566000000e-01 0.0000e+00 -1.0000e+00
      -14  1    4    4    0    0 -3.8838963931e+00 -1.2099349706e+01 -2.4542135908e+01 2.7636847675e+01 0.0000000000e+00 0.0000e+00 1.0000e+00
<mgrwt>
<rscale>  0 0.82162932E+02</rscale>
<asrwt>0</asrwt>
<pdfrwt beam="1">  1        1 0.71827651E-02 0.82162932E+02</pdfrwt>
<pdfrwt beam="2">  1       -2 0.55612637E-02 0.82162932E+02</pdfrwt>
<totfact> 0.12079338E+05</totfact>
</mgrwt>
</event>
<event>
 8      1 +5.0320763e-08 7.87961000e+01 7.81860800e-03 1.33250300e-01
       -1 -1    0    0    0  501 -0.0000000000e+00 +0.0000000000e+00 +1.3758569709e+01 1.3758570633e+01 5.0400000000e-03 0.0000e+00 1.0000e+00
        2 -1    0    0  501    0 +0.0000000000e+00 -0.0000000000e+00 -1.1281741371e+02 1.1281741373e+02 2.5500000000e-03 0.0000e+00 -1.0000e+00
       24  2    1    2    0    0 +1.7763568394e-15 +0.0000000000e+00 -9.9058843996e+01 1.2657598437e+02 7.8796099171e+01 0.0000e+00 0.0000e+00
       66  2    3    3    0    0 -5.8707926487e+00 -2.6566532658e+01 -8.8617676119e+01 9.7433643787e+01 2.9999592613e+01 0.0000e+00 0.0000e+00
      -13  1    3    3    0    0 +5.8707926487e+00 +2.6566532658e+01 -1.0441167877e+01 2.9142340580e+01 1.0566000000e-01 0.0000e+00 1.0000e+00
       13  1    4    4    0    0 +2.6741957396e+00 -8.5593231016e+00 -2.4048364188e+01 2.5666092788e+01 1.0566000000e-01 0.0000e+00 -1.0000e+00
      -13  1    4    4    0    0 +7.1156957463e+00 +2.2254676024e-01 -1.1770771615e+01 1.3756630455e+01 1.0566000000e-01 0.0000e+00 1.0000e+00
       14  1    4    4    0    0 -1.5660684135e+01 -1.8229756317e+01 -5.2798540316e+01 5.8010920545e+01 0.0000000000e+00 0.0000e+00 -1.0000e+00
<mgrwt>
<rscale>  0 0.78796099E+02</rscale>
<asrwt>0</asrwt>
<pdfrwt beam="1">  1        2 0.17356525E-01 0.78796099E+02</pdfrwt>
<pdfrwt beam="2">  1       -1 0.21167032E-02 0.78796099E+02</pdfrwt>
<totfact> 0.19106083E+05</totfact>
</mgrwt>
</event>
<event>
 8      1 +5.0320763e-08 7.99792900e+01 7.81860800e-03 1.32911000e-01
        1 -1    0    0  501    0 +0.0000000000e+00 +0.0000000000e+00 +3.4196012869e+02 3.4196012873e+02 5.0400000000e-03 0.0000e+00 -1.0000e+00
       -2 -1    0    0    0  501 -0.0000000000e+00 -0.0000000000e+00 -4.6764858025e+00 4.6764864977e+00 2.5500000000e-03 0.0000e+00 1.0000e+00
      -24  2    1    2    0    0 +3.5527136788e-15 +1.7763568394e-15 +3.3728364289e+02 3.4663661522e+02 7.9979292664e+01 0.0000e+00 0.0000e+00
       66  2    3    3    0    0 -3.1337446928e+01 -9.7679683653e+00 +1.4829571027e+02 1.5481925776e+02 2.9998935027e+01 0.0000e+00 0.0000e+00
       13  1    3    3    0    0 +3.1337446928e+01 +9.7679683653e+00 +1.8898793262e+02 1.9181735746e+02 1.0566000000e-01 0.0000e+00 -1.0000e+00
       13  1    4    4    0    0 -3.8498578893e+00 +4.1960591091e+00 +1.0059517779e+01 1.1559990476e+01 1.0566000000e-01 0.0000e+00 -1.0000e+00
      -13  1    4    4    0    0 +2.9898427746e+00 -4.9736897930e+00 +1.9600069996e+01 2.0441395693e+01 1.0566000000e-01 0.0000e+00 1.0000e+00
       14  1    4    4    0    0 -3.0477431813e+01 -8.9903376814e+00 +1.1863612250e+02 1.2281787159e+02 0.0000000000e+00 0.0000e+00 -1.0000e+00
<mgrwt>
<rscale>  0 0.79979293E+02</rscale>
<asrwt>0</asrwt>
<pdfrwt beam="1">  1        1 0.52609249E-01 0.79979293E+02</pdfrwt>
<pdfrwt beam="2">  1       -2 0.71945943E-03 0.79979293E+02</pdfrwt>
<totfact> 0.18498665E+05</totfact>
</mgrwt>
</event>
<event>
 8      1 +5.0320763e-08 8.11198100e+01 7.81860800e-03 1.32590300e-01
        2 -1    0    0  501    0 +0.0000000000e+00 +0.0000000000e+00 +1.4895464862e+03 1.4895464862e+03 2.5500000000e-03 0.0000e+00 -1.0000e+00
       -1 -1    0    0    0  501 -0.0000000000e+00 -0.0000000000e+00 -1.1044281868e+00 1.1044396866e+00 5.0400000000e-03 0.0000e+00 1.0000e+00
       24  2    1    2    0    0 -1.7763568394e-15 -1.7763568394e-15 +1.4884420580e+03 1.4906509259e+03 8.1119805167e+01 0.0000e+00 0.0000e+00
       66  2    3    3    0    0 -1.5856341016e+01 +8.6010653054e+00 +1.3974271354e+03 1.3978655328e+03 3.0000784383e+01 0.0000e+00 0.0000e+00
      -13  1    3    3    0    0 +1.5856341016e+01 -8.6010653054e+00 +9.1014922576e+01 9.2785393087e+01 1.0566000000e-01 0.0000e+00 1.0000e+00
       13  1    4    4    0    0 -1.0825996572e+01 +1.0354556146e+01 +5.7276491639e+02 5.7296080114e+02 1.0566000000e-01 0.0000e+00 -1.0000e+00
      -13  1    4    4    0    0 +4.0918787978e+00 +6.5074365388e+00 +3.2733262682e+02 3.2742289161e+02 1.0566000000e-01 0.0000e+00 1.0000e+00
       14  1    4    4    0    0 -9.1222232413e+00 -8.2609273793e+00 +4.9732959222e+02 4.9748184005e+02 0.0000000000e+00 0.0000e+00 -1.0000e+00
<mgrwt>
<rscale>  0 0.81119805E+02</rscale>
<asrwt>0</asrwt>
<pdfrwt beam="1">  1        2 0.22916177E+00 0.81119805E+02</pdfrwt>
<pdfrwt beam="2">  1       -1 0.16991234E-03 0.81119805E+02</pdfrwt>
<totfact> 0.32154176E+05</totfact>
</mgrwt>
</event>
<event>
 8      1 +5.0320763e-08 8.23160800e+01 7.81860800e-03 1.32260400e-01
        3 -1    0    0  501    0 +0.0000000000e+00 +0.0000000000e+00 +6.2419014112e+00 6.2427184965e+00 1.0100000000e-01 0.0000e+00 -1.0000e+00
       -4 -1    0    0    0  501 -0.0000000000e+00 -0.0000000000e+00 -2.7130485978e+02 2.7130783225e+02 1.2700000000e+00 0.0000e+00 1.0000e+00
      -24  2    1    2    0    0 +0.0000000000e+00 -8.8817841970e-16 -2.6506295837e+02 2.7755055075e+02 8.2316075712e+01 0.0000e+00 0.0000e+00
       66  2    3    3    0    0 -3.3454054227e+01 +4.6540747214e+00 -1.8901732170e+02 1.9434127136e+02 3.0002461487e+01 0.0000e+00 0.0000e+00
       13  1    3    3    0    0 +3.3454054227e+01 -4.6540747214e+00 -7.6045636666e+01 8.3209279385e+01 1.0566000000e-01 0.0000e+00 -1.0000e+00
       13  1    4    4    0    0 -4.0774757982e+00 +8.2381318643e+00 -4.5610832884e+01 4.6527968642e+01 1.0566000000e-01 0.0000e+00 -1.0000e+00
      -13  1    4    4    0    0 -2.3912654410e+00 -8.3453412718e-01 -8.1196175859e-01 2.6617745118e+00 1.0566000000e-01 0.0000e+00 1.0000e+00
      -14  1    4    4    0    0 -2.6985312988e+01 -2.7495230157e+00 -1.4259452706e+02 1.4515152821e+02 0.0000000000e+00 0.0000e+00 1.0000e+00
<mgrwt>
<rscale>  0 0.82316076E+02</rscale>
<asrwt>0</asrwt>
<pdfrwt beam="1">  1        3 0.96035709E-03 0.82316076E+02</pdfrwt>
<pdfrwt beam="2">  1       -4 0.41749364E-01 0.82316076E+02</pdfrwt>
<totfact> 0.26714485E+04</totfact>
</mgrwt>
</event>
<event>
 8      1 +5.0320763e-08 8.04049800e+01 7.81860800e-03 1.32790600e-01
       -2 -1    0    0    0  501 -0.0000000000e+00 +0.0000000000e+00 +2.4412978726e+02 2.4412978727e+02 2.5500000000e-03 0.0000e+00 1.0000e+00
        1 -1    0    0  501    0 +0.0000000000e+00 -0.0000000000e+00 -6.6204132865e+00 6.6204152049e+00 5.0400000000e-03 0.0000e+00 -1.0000e+00
      -24  2    1    2    0    0 +3.5527136788e-15 +0.0000000000e+00 +2.3750937397e+02 2.5075020247e+02 8.0404983163e+01 0.0000e+00 0.0000e+00
       66  2    3    3    0    0 -3.1903509208e+01 +1.3316922119e+01 +1.3052822240e+02 1.3832177071e+02 3.0002018166e+01 0.0000e+00 0.0000e+00
       13  1    3    3    0    0 +3.1903509208e+01 -1.3316922119e+01 +1.0698115157e+02 1.1242843177e+02 1.0566000000e-01 0.0000e+00 -1.0000e+00
       13  1    4    4    0    0 -1.1652273974e+01 -1.4697391805e-01 +6.6341420642e+01 6.7357199667e+01 1.0566000000e-01 0.0000e+00 -1.0000e+00
      -13  1    4    4    0    0 -9.2731719474e+00 +1.5137392476e+01 +4.9252037787e+01 5.2353669968e+01 1.0566000000e-01 0.0000e+00 1.0000e+00
      -14  1    4    4    0    0 -1.0978063287e+01 -1.6734964383e+00 +1.4934763973e+01 1.8610901074e+01 0.0000000000e+00 0.0000e+00 1.0000e+00
<mgrwt>
<rscale>  0 0.80404983E+02</rscale>
<asrwt>0</asrwt>
<pdfrwt beam="1">  1        1 0.10185252E-02 0.80404983E+02</pdfrwt>
<pdfrwt beam="2">  1       -2 0.37558431E-01 0.80404983E+02</pdfrwt>
<totfact> 0.76975730E+04</totfact>
</mgrwt>
</event>
<event>
 8      1 +5.0320763e-08 7.89067400e+01 7.81860800e-03 1.33218300e-01
        1 -1    0    0  501    0 +0.0000000000e+00 +0.0000000000e+00 +9.6852451705e+00 9.6852464819e+00 5.0400000000e-03 0.0000e+00 -1.0000e+00
       -2 -1    0    0    0  501 -0.0000000000e+00 -0.0000000000e+00 -1.6071543557e+02 1.6071543559e+02 2.5500000000e-03 0.0000e+00 1.0000e+00
      -24  2    1    2    0    0 -8.8817841970e-16 +0.0000000000e+00 -1.5103019040e+02 1.7040068207e+02 7.8906742668e+01 0.0000e+00 0.0000e+00
       66  2    3    3    0    0 +3.4479103194e+00 +2.8341519104e+01 -1.2529642550e+02 1.3196414203e+02 3.0003512239e+01 0.0000e+00 0.0000e+00
       13  1    3    3    0    0 -3.4479103194e+00 -2.8341519104e+01 -2.5733764894e+01 3.8436540041e+01 1.0566000000e-01 0.0000e+00 -1.0000e+00
       13  1    4    4    0    0 +2.3792539483e-01 +7.7869345325e-01 +1.2064261667e+00 1.4593149485e+00 1.0566000000e-01 0.0000e+00 -1.0000e+00
      -13  1    4    4    0    0 +6.6766495264e+00 +2.7801202771e+01 -1.1213300630e+02 1.1572081399e+02 1.0566000000e-01 0.0000e+00 1.0000e+00
      -14  1    4    4    0    0 -3.4666646018e+00 -2.3837712015e-01 -1.4369845366e+01 1.4784013087e+01 0.0000000000e+00 0.0000e+00 1.0000e+00
<mgrwt>
<rscale>  0 0.78906743E+02</rscale>
<asrwt>0</asrwt>
<pdfrwt beam="1">  1        1 0.14900379E-02 0.78906743E+02</pdfrwt>
<pdfrwt beam="2">  1       -2 0.24725450E-01 0.78906743E+02</pdfrwt>
<totfact> 0.95668761E+04</totfact>
</mgrwt>
</event>
<event>
 8      1 +5.0320763e-08 8.00757900e+01 7.81860800e-03 1.32883700e-01
       -1 -1    0    0    0  501 -0.0000000000e+00 +0.0000000000e+00 +2.2696849072e+00 2.2696905031e+00 5.0400000000e-03 0.0000e+00 1.0000e+00
        2 -1    0    0  501    0 +0.0000000000e+00 -0.0000000000e+00 -7.0627904868e+02 7.0627904868e+02 2.5500000000e-03 0.0000e+00 -1.0000e+00
       24  2    1    2    0    0 +3.5527136788e-15 -4.4408920985e-16 -7.0400936377e+02 7.0854873918e+02 8.0075786132e+01 0.0000e+00 0.0000e+00
       66  2    3    3    0    0 -2.4416895741e+01 +2.7461066831e+00 -6.1467308702e+02 6.1589504306e+02 2.9999570817e+01 0.0000e+00 0.0000e+00
      -13  1    3    3    0    0 +2.4416895741e+01 -2.7461066831e+00 -8.9336276743e+01 9.2653696127e+01 1.0566000000e-01 0.0000e+00 1.0000e+00
       13  1    4    4    0    0 -2.4437623141e+00 +5.1170198873e+00 -2.6546370106e+01 2.7145474698e+01 1.0566000000e-01 0.0000e+00 1.0000e+00
      -13  1    4    4    0    0 -1.4453329126e+01 -4.5689183901e+00 -5.1125029618e+02 5.1147497519e+02 1.0566000000e-01 0.0000e+00 -1.0000e+00
       14  1    4    4    0    0 -7.5198043012e+00 +2.1980051858e+00 -7.6876420742e+01 7.7274593170e+01 0.0000000000e+00 0.0000e+00 -1.0000e+00
<mgrwt>
<rscale>  0 0.80075786E+02</rscale>
<asrwt>0</asrwt>
<pdfrwt beam="1">  1        2 0.10865814E+00 0.80075786E+02</pdfrwt>
<pdfrwt beam="2">  1       -1 0.34918329E-03 0.80075786E+02</pdfrwt>
<totfact> 0.33437219E+05</totfact>
</mgrwt>
</event>
<event>
 8      1 +5.0320763e-08 7.59557700e+01 7.81860800e-03 1.34093700e-01
        3 -1    0    0  501    0 +0.0000000000e+00 +0.0000000000e+00 +4.0060316023e+01 4.0060443343e+01 1.0100000000e-01 0.0000e+00 -1.0000e+00
       -4 -1    0    0    0  501 -0.0000000000e+00 -0.0000000000e+00 -3.5982314230e+01 3.6004719654e+01 1.2700000000e+00 0.0000e+00 1.0000e+00
      -24  2    1    2    0    0 -3.5527136788e-15 +3.5527136788e-15 +4.0780017926e+00 7.6065162997e+01 7.5955769519e+01 0.0000e+00 0.0000e+00
       66  2    3    3    0    0 -1.5368239433e+01 +2.7586543182e+01 -3.1471437751e+00 4.3670502318e+01 3.0000135180e+01 0.0000e+00 0.0000e+00
       13  1    3    3    0    0 +1.5368239433e+01 -2.7586543182e+01 +7.2251455677e+00 3.2394660679e+01 1.0566000000e-01 0.0000e+00 -1.0000e+00
       13  1    4    4    0    0 -1.9820243345e-01 +2.3554410216e+00 +9.6845487906e+00 9.9694049935e+00 1.0566000000e-01 0.0000e+00 -1.0000e+00
      -13  1    4    4    0    0 -6.5110369830e+00 +6.4810844359e+00 +3.6039342612e-01 9.1945149691e+00 1.0566000000e-01 0.0000e+00 1.0000e+00
       14  1    4    4    0    0 -8.6590000164e+00 +1.8750017724e+01 -1.3192085992e+01 2.4506582356e+01 0.0000000000e+00 0.0000e+00 -1.0000e+00
<mgrwt>
<rscale>  0 0.75955770E+02</rscale>
<asrwt>0</asrwt>
<pdfrwt beam="1">  1        3 0.61631467E-02 0.75955770E+02</pdfrwt>
<pdfrwt beam="2">  1       -4 0.55390123E-02 0.75955770E+02</pdfrwt>
<totfact> 0.52401066E+04</totfact>
</mgrwt>
</event>
<event>
 8      1 +5.0320763e-08 7.84537300e+01 7.81860800e-03 1.33349800e-01
       -1 -1    0    0    0  501 -0.0000000000e+00 +0.0000000000e+00 +3.6851391477e+01 3.6851391822e+01 5.0400000000e-03 0.0000e+00 1.0000e+00
        2 -1    0    0  501    0 +0.0000000000e+00 -0.0000000000e+00 -4.1755468470e+01 4.1755468548e+01 2.5500000000e-03 0.0000e+00 -1.0000e+00
       24  2    1    2    0    0 +8.8817841970e-16 +0.0000000000e+00 -4.9040769923e+00 7.8606860370e+01 7.8453734940e+01 0.0000e+00 0.0000e+00
       66  2    3    3    0    0 +7.4420798894e+00 +1.1919460743e+01 -3.3269429162e+01 4.6951490127e+01 3.0002156770e+01 0.0000e+00 0.0000e+00
      -13  1    3    3    0    0 -7.4420798894e+00 -1.1919460743e+01 +2.8365352170e+01 3.1655370243e+01 1.0566000000e-01 0.0000e+00 1.0000e+00
       13  1    4    4    0    0 -3.9757559543e+00 +1.2073598920e+01 -3.6174559770e+00 1.3216488871e+01 1.0566000000e-01 0.0000e+00 1.0000e+00
      -13  1    4    4    0    0 +1.1030216488e+01 +1.4260206571e+00 -3.0064966056e+01 3.2056396533e+01 1.0566000000e-01 0.0000e+00 -1.0000e+00
       14  1    4    4    0    0 +3.8761935567e-01 -1.5801588339e+00 +4.1299287096e-01 1.6786047232e+00 0.0000000000e+00 0.0000e+00 -1.0000e+00
<mgrwt>
<rscale>  0 0.78453735E+02</rscale>
<asrwt>0</asrwt>
<pdfrwt beam="1">  1        2 0.64239183E-02 0.78453735E+02</pdfrwt>
<pdfrwt beam="2">  1       -1 0.56694449E-02 0.78453735E+02</pdfrwt>
<totfact> 0.15176753E+05</totfact>
</mgrwt>
</event>
<event>
 8      1 +5.0320763e-08 7.45054100e+01 7.81860800e-03 1.34540900e-01
       -2 -1    0    0    0  501 -0.0000000000e+00 +0.0000000000e+00 +4.9781326762e+02 4.9781326763e+02 2.5500000000e-03 0.0000e+00 1.0000e+00
        3 -1    0    0  501    0 +0.0000000000e+00 -0.0000000000e+00 -2.7868000553e+00 2.7886296900e+00 1.0100000000e-01 0.0000e+00 -1.0000e+00
      -24  2    1    2    0    0 -1.7763568394e-15 -1.7763568394e-15 +4.9502646757e+02 5.0060189732e+02 7.4505409249e+01 0.0000e+00 0.0000e+00
       66  2    3    3    0    0 +1.5686434026e+01 +1.2773166505e+01 +4.4735459136e+02 4.4881544214e+02 2.9999211585e+01 0.0000e+00 0.0000e+00
       13  1    3    3    0    0 -1.5686434026e+01 -1.2773166505e+01 +4.7671876204e+01 5.1786455178e+01 1.0566000000e-01 0.0000e+00 -1.0000e+00
       13  1    4    4    0    0 +6.0643581328e+00 +8.9741082607e+00 +4.9910984466e+01 5.1072777416e+01 1.0566000000e-01 0.0000e+00 -1.0000e+00
      -13  1    4    4    0    0 +9.6630966733e+00 +3.7431832473e+00 +3.9751095403e+02 3.9764601921e+02 1.0566000000e-01 0.0000e+00 1.0000e+00
      -14  1    4    4    0    0 -4.1020779906e-02 +5.5874997360e-02 -6.7347129510e-02 9.6645514988e-02 0.0000000000e+00 0.0000e+00 1.0000e+00
<mgrwt>
<rscale>  0 0.74505409E+02</rscale>
<asrwt>0</asrwt>
<pdfrwt beam="1">  1        3 0.42888007E-03 0.74505409E+02</pdfrwt>
<pdfrwt beam="2">  1       -2 0.76586644E-01 0.74505409E+02</pdfrwt>
<totfact> 0.50201205E+04</totfact>
</mgrwt>
</event>
<event>
 8      1 +5.0320763e-08 7.94176600e+01 7.81860800e-03 1.33071200e-01
        2 -1    0    0  501    0 +0.0000000000e+00 +0.0000000000e+00 +6.5521079121e+01 6.5521079171e+01 2.5500000000e-03 0.0000e+00 -1.0000e+00
       -1 -1    0    0    0  501 -0.0000000000e+00 -0.0000000000e+00 -2.4065401740e+01 2.4065402268e+01 5.0400000000e-03 0.0000e+00 1.0000e+00
       24  2    1    2    0    0 +0.0000000000e+00 +0.0000000000e+00 +4.1455677381e+01 8.9586481439e+01 7.9417658423e+01 0.0000e+00 0.0000e+00
       66  2    3    3    0    0 +9.3722876919e+00 -9.1542429735e+00 +5.9128287636e+01 6.7587111942e+01 3.0003722452e+01 0.0000e+00 0.0000e+00
      -13  1    3    3    0    0 -9.3722876919e+00 +9.1542429735e+00 -1.7672610254e+01 2.1999369496e+01 1.0566000000e-01 0.0000e+00 1.0000e+00
       13  1    4    4    0    0 -3.3320566403e+00 +2.1718090842e+00 +3.9569670308e+01 3.9769200752e+01 1.0566000000e-01 0.0000e+00 -1.0000e+00
      -13  1    4    4    0    0 +4.8417096359e+00 -5.7278142911e-01 +1.0078413520e+00 4.9796725786e+00 1.0566000000e-01 0.0000e+00 1.0000e+00
       14  1    4    4    0    0 +7.8626346963e+00 -1.0753270629e+01 +1.8550775976e+01 2.2838238612e+01 0.0000000000e+00 0.0000e+00 -1.0000e+00
<mgrwt>
<rscale>  0 0.79417658E+02</rscale>
<asrwt>0</asrwt>
<pdfrwt beam="1">  1        2 0.10080166E-01 0.79417658E+02</pdfrwt>
<pdfrwt beam="2">  1       -1 0.37023696E-02 0.79417658E+02</pdfrwt>
<totfact> 0.16208900E+05</totfact>
</mgrwt>
</event>
<event>
 8      1 +5.0320763e-08 4.94904800e+01 7.81860800e-03 1.44810900e-01
       -2 -1    0    0    0  501 -0.0000000000e+00 +0.0000000000e+00 +2.4923247578e+00 2.4923260623e+00 2.5500000000e-03 0.0000e+00 1.0000e+00
        1 -1    0    0  501    0 +0.0000000000e+00 -0.0000000000e+00 -2.4568495039e+02 2.4568495044e+02 5.0400000000e-03 0.0000e+00 -1.0000e+00
      -24  2    1    2    0    0 -3.5527136788e-15 +4.4408920985e-16 -2.4319262563e+02 2.4817727650e+02 4.9490477984e+01 0.0000e+00 0.0000e+00
       66  2    3    3    0    0 -1.5067738830e+01 +3.3036917894e+00 -1.5296019679e+02 1.5663573668e+02 2.9999684551e+01 0.0000e+00 0.0000e+00
       13  1    3    3    0    0 +1.5067738830e+01 -3.3036917894e+00 -9.0232428845e+01 9.1541539818e+01 1.0566000000e-01 0.0000e+00 -1.0000e+00
       13  1    4    4    0    0 +5.5162789937e+00 -8.4822587527e-01 -7.4470953951e+00 9.3069444466e+00 1.0566000000e-01 0.0000e+00 1.0000e+00
      -13  1    4    4    0    0 +4.0137554824e-01 +1.1773920756e+00 -1.9979441196e+01 2.0018406254e+01 1.0566000000e-01 0.0000e+00 -1.0000e+00
       14  1    4    4    0    0 -2.0985393372e+01 +2.9745255890e+00 -1.2553366020e+02 1.2731038598e+02 0.0000000000e+00 0.0000e+00 -1.0000e+00
<mgrwt>
<rscale>  0 0.49490478E+02</rscale>
<asrwt>0</asrwt>
<pdfrwt beam="1">  1        1 0.37797666E-01 0.49490478E+02</pdfrwt>
<pdfrwt beam="2">  1       -2 0.38343487E-03 0.49490478E+02</pdfrwt>
<totfact> 0.59679892E+05</totfact>
</mgrwt>
</event>
<event>
 8      1 +5.0320763e-08 8.11598000e+01 7.81860800e-03 1.32579200e-01
        2 -1    0    0  501    0 +0.0000000000e+00 +0.0000000000e+00 +6.1888585045e+01 6.1888585098e+01 2.5500000000e-03 0.0000e+00 -1.0000e+00
       -1 -1    0    0    0  501 -0.0000000000e+00 -0.0000000000e+00 -2.6607947103e+01 2.6607947580e+01 5.0400000000e-03 0.0000e+00 1.0000e+00
       24  2    1    2    0    0 +0.0000000000e+00 +0.0000000000e+00 +3.5280637942e+01 8.8496532678e+01 8.1159798437e+01 0.0000e+00 0.0000e+00
       66  2    3    3    0    0 +6.2421642052e+00 -2.6201827126e+01 +4.4480943718e+01 6.0033273042e+01 2.9998985973e+01 0.0000e+00 0.0000e+00
      -13  1    3    3    0    0 -6.2421642052e+00 +2.6201827126e+01 -9.2003057761e+00 2.8463259636e+01 1.0566000000e-01 0.0000e+00 1.0000e+00
       13  1    4    4    0    0 -4.0716208776e+00 -4.0615108505e+00 +7.0690498542e+00 9.1135392047e+00 1.0566000000e-01 0.0000e+00 -1.0000e+00
      -13  1    4    4    0    0 -1.2014975970e+00 -1.6155752079e+01 +3.3747593220e+01 3.7434785078e+01 1.0566000000e-01 0.0000e+00 1.0000e+00
      -14  1    4    4    0    0 +1.1515282680e+01 -5.9845641968e+00 +3.6643006442e+00 1.3484948759e+01 0.0000000000e+00 0.0000e+00 1.0000e+00
<mgrwt>
<rscale>  0 0.81159798E+02</rscale>
<asrwt>0</asrwt>
<pdfrwt beam="1">  1        2 0.95213207E-02 0.81159798E+02</pdfrwt>
<pdfrwt beam="2">  1       -1 0.40935304E-02 0.81159798E+02</pdfrwt>
<totfact> 0.15076569E+05</totfact>
</mgrwt>
</event>
<event>
 8      1 +5.0320763e-08 7.73339900e+01 7.81860800e-03 1.33679200e-01
        2 -1    0    0  501    0 +0.0000000000e+00 +0.0000000000e+00 +3.7733420333e+02 3.7733420334e+02 2.5500000000e-03 0.0000e+00 -1.0000e+00
       -3 -1    0    0    0  501 -0.0000000000e+00 -0.0000000000e+00 -3.9617161103e+00 3.9630033483e+00 1.0100000000e-01 0.0000e+00 1.0000e+00
       24  2    1    2    0    0 -3.5527136788e-15 -3.5527136788e-15 +3.7337248722e+02 3.8129720669e+02 7.7333987448e+01 0.0000e+00 0.0000e+00
       66  2    3    3    0    0 +2.6658881055e+01 -1.5900822037e+01 +2.6776056114e+02 2.7121804347e+02 2.9999615338e+01 0.0000e+00 0.0000e+00
      -13  1    3    3    0    0 -2.6658881055e+01 +1.5900822037e+01 +1.0561192608e+02 1.1007916322e+02 1.0566000000e-01 0.0000e+00 1.0000e+00
       13  1    4    4    0    0 +2.3310842910e+01 -1.1441436206e+01 +1.3296005238e+02 1.3547209511e+02 1.0566000000e-01 0.0000e+00 -1.0000e+00
      -13  1    4    4    0    0 +1.6433705308e+00 +1.4158920537e+00 +1.1503206069e+02 1.1505256002e+02 1.0566000000e-01 0.0000e+00 1.0000e+00
      -14  1    4    4    0    0 +1.7046676132e+00 -5.8752778848e+00 +1.9768448069e+01 2.0693388339e+01 0.0000000000e+00 0.0000e+00 1.0000e+00
<mgrwt>
<rscale>  0 0.77333987E+02</rscale>
<asrwt>0</asrwt>
<pdfrwt beam="1">  1        2 0.58051410E-01 0.77333987E+02</pdfrwt>
<pdfrwt beam="2">  1       -3 0.60959491E-03 0.77333987E+02</pdfrwt>
<totfact> 0.24799998E+05</totfact>
</mgrwt>
</event>
<event>
 8      1 +5.0320763e-08 7.91338600e+01 7.81860800e-03 1.33152800e-01
        1 -1    0    0  501    0 +0.0000000000e+00 +0.0000000000e+00 +9.1454397570e+01 9.1454397709e+01 5.0400000000e-03 0.0000e+00 -1.0000e+00
       -2 -1    0    0    0  501 -0.0000000000e+00 -0.0000000000e+00 -1.7118280403e+01 1.7118280593e+01 2.5500000000e-03 0.0000e+00 1.0000e+00
      -24  2    1    2    0    0 +0.0000000000e+00 -8.8817841970e-16 +7.4336117167e+01 1.0857267830e+02 7.9133862273e+01 0.0000e+00 0.0000e+00
       66  2    3    3    0    0 +3.3145941017e+01 +4.3885771239e+00 +3.4997879894e+01 5.6944961998e+01 2.9999401407e+01 0.0000e+00 0.0000e+00
       13  1    3    3    0    0 -3.3145941017e+01 -4.3885771239e+00 +3.9338237273e+01 5.1627716305e+01 1.0566000000e-01 0.0000e+00 -1.0000e+00
       13  1    4    4    0    0 +1.8642425977e+01 -1.1084803360e+01 +1.5085738767e+01 2.6419757569e+01 1.0566000000e-01 0.0000e+00 -1.0000e+00
      -13  1    4    4    0    0 +4.6718204674e+00 +8.9929957799e+00 +1.4178522275e+01 1.7428182278e+01 1.0566000000e-01 0.0000e+00 1.0000e+00
       14  1    4    4    0    0 +9.8316945728e+00 +6.4803847036e+00 +5.7336188527e+00 1.3097022151e+01 0.0000000000e+00 0.0000e+00 -1.0000e+00
<mgrwt>
<rscale>  0 0.79133862E+02</rscale>
<asrwt>0</asrwt>
<pdfrwt beam="1">  1        1 0.14069907E-01 0.79133862E+02</pdfrwt>
<pdfrwt beam="2">  1       -2 0.26335817E-02 0.79133862E+02</pdfrwt>
<totfact> 0.14915299E+05</totfact>
</mgrwt>
</event>
<event>
 8      1 +5.0320763e-08 7.99650500e+01 7.81860800e-03 1.32915100e-01
       -1 -1    0    0    0  501 -0.0000000000e+00 +0.0000000000e+00 +1.1213393287e+01 1.1213394420e+01 5.0400000000e-03 0.0000e+00 1.0000e+00
        2 -1    0    0  501    0 +0.0000000000e+00 -0.0000000000e+00 -1.4256186712e+02 1.4256186714e+02 2.5500000000e-03 0.0000e+00 -1.0000e+00
       24  2    1    2    0    0 +3.5527136788e-15 -3.5527136788e-15 -1.3134847383e+02 1.5377526156e+02 7.9965051681e+01 0.0000e+00 0.0000e+00
       66  2    3    3    0    0 +1.9099796425e+01 -1.7348731564e+01 -1.1853777698e+02 1.2496717540e+02 2.9996827261e+01 0.0000e+00 0.0000e+00
      -13  1    3    3    0    0 -1.9099796425e+01 +1.7348731564e+01 -1.2810696850e+01 2.8808086160e+01 1.0566000000e-01 0.0000e+00 1.0000e+00
       13  1    4    4    0    0 +1.1401508586e+01 -7.1105215779e+00 -4.8942040151e+01 5.0753210473e+01 1.0566000000e-01 0.0000e+00 -1.0000e+00
      -13  1    4    4    0    0 +2.2044033482e+00 +7.1051701125e+00 -1.6868111347e+01 1.8436029423e+01 1.0566000000e-01 0.0000e+00 1.0000e+00
      -14  1    4    4    0    0 +5.4938844906e+00 -1.7343380099e+01 -5.2727625484e+01 5.5777935506e+01 0.0000000000e+00 0.0000e+00 1.0000e+00
<mgrwt>
<rscale>  0 0.79965052E+02</rscale>
<asrwt>0</asrwt>
<pdfrwt beam="1">  1        2 0.21932594E-01 0.79965052E+02</pdfrwt>
<pdfrwt beam="2">  1       -1 0.17251376E-02 0.79965052E+02</pdfrwt>
<totfact> 0.19729773E+05</totfact>
</mgrwt>
</event>
<event>
 8      1 +5.0320763e-08 7.87605300e+01 7.81860800e-03 1.33260600e-01
       -1 -1    0    0    0  501 -0.0000000000e+00 +0.0000000000e+00 +9.9164633508e+00 9.9164646316e+00 5.0400000000e-03 0.0000e+00 1.0000e+00
        2 -1    0    0  501    0 +0.0000000000e+00 -0.0000000000e+00 -1.5638690629e+02 1.5638690632e+02 2.5500000000e-03 0.0000e+00 -1.0000e+00
       24  2    1    2    0    0 +0.0000000000e+00 +3.5527136788e-15 -1.4647044294e+02 1.6630337095e+02 7.8760526485e+01 0.0000e+00 0.0000e+00
       66  2    3    3    0    0 -1.7605687734e+01 +2.8251901231e+01 -9.4481529984e+01 1.0457016758e+02 3.0000504578e+01 0.0000e+00 0.0000e+00
      -13  1    3    3    0    0 +1.7605687734e+01 -2.8251901231e+01 -5.1988912960e+01 6.1733203372e+01 1.0566000000e-01 0.0000e+00 1.0000e+00
       13  1    4    4    0    0 +5.1638669607e-01 +3.1634492354e+00 -6.4363028617e+00 7.1910517206e+00 1.0566000000e-01 0.0000e+00 -1.0000e+00
      -13  1    4    4    0    0 -1.1657526829e+01 -3.0064876926e+00 -1.8240716097e+01 2.1855703782e+01 1.0566000000e-01 0.0000e+00 1.0000e+00
      -14  1    4    4    0    0 -6.4645476012e+00 +2.8094939688e+01 -6.9804511025e+01 7.5523412073e+01 0.0000000000e+00 0.0000e+00 1.0000e+00
<mgrwt>
<rscale>  0 0.78760526E+02</rscale>
<asrwt>0</asrwt>
<pdfrwt beam="1">  1        2 0.24059522E-01 0.78760526E+02</pdfrwt>
<pdfrwt beam="2">  1       -1 0.15256100E-02 0.78760526E+02</pdfrwt>
<totfact> 0.21159986E+05</totfact>
</mgrwt>
</event>
<event>
 8      1 +5.0320763e-08 8.04319200e+01 7.81860800e-03 1.32783000e-01
       -1 -1    0    0    0  501 -0.0000000000e+00 +0.0000000000e+00 +1.9073138558e+00 1.9073205147e+00 5.0400000000e-03 0.0000e+00 1.0000e+00
        2 -1    0    0  501    0 +0.0000000000e+00 -0.0000000000e+00 -8.4795721913e+02 8.4795721914e+02 2.5500000000e-03 0.0000e+00 -1.0000e+00
       24  2    1    2    0    0 +0.0000000000e+00 -1.7763568394e-15 -8.4604990528e+02 8.4986453965e+02 8.0431918649e+01 0.0000e+00 0.0000e+00
       66  2    3    3    0    0 -1.6026801264e+01 -8.5362113779e+00 -7.9334017798e+02 7.9411463581e+02 2.9994858459e+01 0.0000e+00 0.0000e+00
      -13  1    3    3    0    0 +1.6026801264e+01 +8.5362113779e+00 -5.2709727293e+01 5.5749903846e+01 1.0566000000e-01 0.0000e+00 1.0000e+00
       13  1    4    4    0    0 +4.1111870508e+00 +8.0460339212e-01 -3.5790878167e+02 3.5793331279e+02 1.0566000000e-01 0.0000e+00 -1.0000e+00
      -13  1    4    4    0    0 -7.8050417497e+00 -8.8005105287e+00 -2.8563148925e+02 2.8587361976e+02 1.0566000000e-01 0.0000e+00 1.0000e+00
      -14  1    4    4    0    0 -1.2332946565e+01 -5.4030424128e-01 -1.4979990706e+02 1.5030770325e+02 0.0000000000e+00 0.0000e+00 1.0000e+00
<mgrwt>
<rscale>  0 0.80431919E+02</rscale>
<asrwt>0</asrwt>
<pdfrwt beam="1">  1        2 0.13045466E+00 0.80431919E+02</pdfrwt>
<pdfrwt beam="2">  1       -1 0.29343409E-03 0.80431919E+02</pdfrwt>
<totfact> 0.34201619E+05</totfact>
</mgrwt>
</event>
<event>
 8      1 +5.0320763e-08 7.81464500e+01 7.81860800e-03 1.33439500e-01
       -2 -1    0    0    0  501 -0.0000000000e+00 +0.0000000000e+00 +1.7975725361e+02 1.7975725363e+02 2.5500000000e-03 0.0000e+00 1.0000e+00
        1 -1    0    0  501    0 +0.0000000000e+00 -0.0000000000e+00 -8.4932130418e+00 8.4932145372e+00 5.0400000000e-03 0.0000e+00 -1.0000e+00
      -24  2    1    2    0    0 +0.0000000000e+00 +8.8817841970e-16 +1.7126404057e+02 1.8825046816e+02 7.8146446961e+01 0.0000e+00 0.0000e+00
       66  2    3    3    0    0 +2.7800437754e+01 -4.2538395797e+00 +1.4127204145e+02 1.4713489124e+02 2.9998783897e+01 0.0000e+00 0.0000e+00
       13  1    3    3    0    0 -2.7800437754e+01 +4.2538395797e+00 +2.9991999120e+01 4.1115576924e+01 1.0566000000e-01 0.0000e+00 -1.0000e+00
       13  1    4    4    0    0 -2.7899975938e+00 -1.4495848661e+00 +7.3417007965e+00 7.9873097773e+00 1.0566000000e-01 0.0000e+00 -1.0000e+00
      -13  1    4    4    0    0 -6.3076304725e-02 +5.0361381130e+00 +3.2758031734e+01 3.3143121049e+01 1.0566000000e-01 0.0000e+00 1.0000e+00
      -14  1    4    4    0    0 +3.0653511653e+01 -7.8403928266e+00 +1.0117230892e+02 1.0600446041e+02 0.0000000000e+00 0.0000e+00 1.0000e+00
<mgrwt>
<rscale>  0 0.78146447E+02</rscale>
<asrwt>0</asrwt>
<pdfrwt beam="1">  1        1 0.13066484E-02 0.78146447E+02</pdfrwt>
<pdfrwt beam="2">  1       -2 0.27654960E-01 0.78146447E+02</pdfrwt>
<totfact> 0.94214937E+04</totfact>
</mgrwt>
</event>
<event>
 8      1 +5.0320763e-08 7.87089100e+01 7.81860800e-03 1.33275600e-01
       -1 -1    0    0    0  501 -0.0000000000e+00 +0.0000000000e+00 +5.9912189537e+00 5.9912210736e+00 5.0400000000e-03 0.0000e+00 1.0000e+00
        2 -1    0    0  501    0 +0.0000000000e+00 -0.0000000000e+00 -2.5850711212e+02 2.5850711214e+02 2.5500000000e-03 0.0000e+00 -1.0000e+00
       24  2    1    2    0    0 -8.8817841970e-16 +0.0000000000e+00 -2.5251589317e+02 2.6449833321e+02 7.8708906531e+01 0.0000e+00 0.0000e+00
       66  2    3    3    0    0 +6.8779106579e+00 +3.2853189990e+01 -1.5197606553e+02 1.5850349440e+02 2.9999924947e+01 0.0000e+00 0.0000e+00
      -13  1    3    3    0    0 -6.8779106579e+00 -3.2853189990e+01 -1.0053982764e+02 1.0599483881e+02 1.0566000000e-01 0.0000e+00 1.0000e+00
       13  1    4    4    0    0 +8.3099198677e+00 +9.6159449544e+00 -3.4794292360e+01 3.7042882049e+01 1.0566000000e-01 0.0000e+00 1.0000e+00
      -13  1    4    4    0    0 +6.4210851464e+00 +5.2140706373e+00 -6.7902042555e+01 6.8404059926e+01 1.0566000000e-01 0.0000e+00 -1.0000e+00
       14  1    4    4    0    0 -7.8530943563e+00 +1.8023174398e+01 -4.9279730614e+01 5.3056552430e+01 0.0000000000e+00 0.0000e+00 -1.0000e+00
<mgrwt>
<rscale>  0 0.78708907E+02</rscale>
<asrwt>0</asrwt>
<pdfrwt beam="1">  1        2 0.39770316E-01 0.78708907E+02</pdfrwt>
<pdfrwt beam="2">  1       -1 0.92172636E-03 0.78708907E+02</pdfrwt>
<totfact> 0.25211161E+05</totfact>
</mgrwt>
</event>
<event>
 8      1 +5.0320763e-08 7.94579300e+01 7.81860800e-03 1.33059700e-01
        2 -1    0    0  501    0 +0.0000000000e+00 +0.0000000000e+00 +2.6396798035e+03 2.6396798035e+03 2.5500000000e-03 0.0000e+00 -1.0000e+00
       -1 -1    0    0    0  501 -0.0000000000e+00 -0.0000000000e+00 -5.9793719597e-01 5.9795843662e-01 5.0400000000e-03 0.0000e+00 1.0000e+00
       24  2    1    2    0    0 +0.0000000000e+00 +0.0000000000e+00 +2.6390818663e+03 2.6402777619e+03 7.9457933076e+01 0.0000e+00 0.0000e+00
       66  2    3    3    0    0 +1.0099781813e+01 +2.4360371348e+00 +2.5856566921e+03 2.5858516627e+03 3.0005874362e+01 0.0000e+00 0.0000e+00
      -13  1    3    3    0    0 -1.0099781813e+01 -2.4360371348e+00 +5.3425174198e+01 5.4426099178e+01 1.0566000000e-01 0.0000e+00 1.0000e+00
       13  1    4    4    0    0 +3.5882298625e+00 -5.5399281099e+00 +2.0604290173e+02 2.0614862288e+02 1.0566000000e-01 0.0000e+00 -1.0000e+00
      -13  1    4    4    0    0 +9.9238206292e+00 -1.6251363570e+00 +9.5968138095e+02 9.5973407118e+02 1.0566000000e-01 0.0000e+00 1.0000e+00
       14  1    4    4    0    0 -3.4122686785e+00 +9.6011016017e+00 +1.4199324094e+03 1.4199689687e+03 0.0000000000e+00 0.0000e+00 -1.0000e+00
<mgrwt>
<rscale>  0 0.79457933E+02</rscale>
<asrwt>0</asrwt>
<pdfrwt beam="1">  1        2 0.40610451E+00 0.79457933E+02</pdfrwt>
<pdfrwt beam="2">  1       -1 0.91991990E-04 0.79457933E+02</pdfrwt>
<totfact> 0.19429040E+05</totfact>
</mgrwt>
</event>
<event>
 8      1 +5.0320763e-08 9.51835900e+01 7.81860800e-03 1.29076300e-01
        3 -1    0    0  501    0 +0.0000000000e+00 +0.0000000000e+00 +1.3485297484e+02 1.3485301266e+02 1.0100000000e-01 0.0000e+00 -1.0000e+00
       -4 -1    0    0    0  501 -0.0000000000e+00 -0.0000000000e+00 -1.6768892334e+01 1.6816915594e+01 1.2700000000e+00 0.0000e+00 1.0000e+00
      -24  2    1    2    0    0 +0.0000000000e+00 +0.0000000000e+00 +1.1808408251e+02 1.5166992826e+02 9.5183594153e+01 0.0000e+00 0.0000e+00
       66  2    3    3    0    0 +1.2952125769e+01 -2.4715281248e+01 +1.3055621271e+01 4.2997983751e+01 2.9996244278e+01 0.0000e+00 0.0000e+00
       13  1    3    3    0    0 -1.2952125769e+01 +2.4715281248e+01 +1.0502846123e+02 1.0867194450e+02 1.0566000000e-01 0.0000e+00 -1.0000e+00
       13  1    4    4    0    0 -5.4340214571e+00 -5.3850170035e+00 +1.2580161066e+01 1.4724082783e+01 1.0566000000e-01 0.0000e+00 -1.0000e+00
      -13  1    4    4    0    0 +1.1347122071e+01 -1.3446583137e+01 -4.0339448845e+00 1.8051361520e+01 1.0566000000e-01 0.0000e+00 1.0000e+00
       14  1    4    4    0    0 +7.0390251551e+00 -5.8836811074e+00 +4.5094050903e+00 1.0222539448e+01 0.0000000000e+00 0.0000e+00 -1.0000e+00
<mgrwt>
<rscale>  0 0.95183594E+02</rscale>
<asrwt>0</asrwt>
<pdfrwt beam="1">  1        3 0.20746639E-01 0.95183594E+02</pdfrwt>
<pdfrwt beam="2">  1       -4 0.25839836E-02 0.95183594E+02</pdfrwt>
<totfact> 0.24906199E+04</totfact>
</mgrwt>
</event>
<event>
 8      1 +5.0320763e-08 8.63671700e+01 7.81860800e-03 1.31189500e-01
        2 -1    0    0  501    0 +0.0000000000e+00 +0.0000000000e+00 +2.1348400482e+02 2.1348400483e+02 2.5500000000e-03 0.0000e+00 -1.0000e+00
       -1 -1    0    0    0  501 -0.0000000000e+00 -0.0000000000e+00 -8.7351826441e+00 8.7351840981e+00 5.0400000000e-03 0.0000e+00 1.0000e+00
       24  2    1    2    0    0 +0.0000000000e+00 +0.0000000000e+00 +2.0474882217e+02 2.2221918893e+02 8.6367168227e+01 0.0000e+00 0.0000e+00
       66  2    3    3    0    0 +2.6423063800e+01 +2.4488225367e+01 +8.3838994771e+01 9.6056401197e+01 3.0000061408e+01 0.0000e+00 0.0000e+00
      -13  1    3    3    0    0 -2.6423063800e+01 -2.4488225367e+01 +1.2090982740e+02 1.2616278773e+02 1.0566000000e-01 0.0000e+00 1.0000e+00
       13  1    4    4    0    0 +1.7480587904e+01 +1.3767472054e+01 +5.6492184855e+01 6.0716491615e+01 1.0566000000e-01 0.0000e+00 -1.0000e+00
      -13  1    4    4    0    0 +1.1076975630e+01 +7.9271105642e-02 +1.0270235642e+01 1.5106110591e+01 1.0566000000e-01 0.0000e+00 1.0000e+00
       14  1    4    4    0    0 -2.1344997342e+00 +1.0641482207e+01 +1.7076574274e+01 2.0233798991e+01 0.0000000000e+00 0.0000e+00 -1.0000e+00
<mgrwt>
<rscale>  0 0.86367168E+02</rscale>
<asrwt>0</asrwt>
<pdfrwt beam="1">  1        2 0.32843691E-01 0.86367168E+02</pdfrwt>
<pdfrwt beam="2">  1       -1 0.13438745E-02 0.86367168E+02</pdfrwt>
<totfact> 0.18427619E+05</totfact>
</mgrwt>
</event>
<event>
 8      1 +5.0320763e-08 7.99169500e+01 7.81860800e-03 1.32928700e-01
        1 -1    0    0  501    0 +0.0000000000e+00 +0.0000000000e+00 +2.3745495297e+02 2.3745495302e+02 5.0400000000e-03 0.0000e+00 -1.0000e+00
       -2 -1    0    0    0  501 -0.0000000000e+00 -0.0000000000e+00 -6.7241369498e+00 6.7241374333e+00 2.5500000000e-03 0.0000e+00 1.0000e+00
      -24  2    1    2    0    0 +7.1054273576e-15 +0.0000000000e+00 +2.3073081602e+02 2.4417909045e+02 7.9916949109e+01 0.0000e+00 0.0000e+00
       66  2    3    3    0    0 -2.3953785482e+01 +2.2801463747e+01 +1.5973764028e+02 1.6586093960e+02 3.0000782902e+01 0.0000e+00 0.0000e+00
       13  1    3    3    0    0 +2.3953785482e+01 -2.2801463747e+01 +7.0993175733e+01 7.8318150850e+01 1.0566000000e-01 0.0000e+00 -1.0000e+00
       13  1    4    4    0    0 +4.3245809397e+00 +2.3458242883e+00 +5.5890353373e+00 7.4467020843e+00 1.0566000000e-01 0.0000e+00 -1.0000e+00
      -13  1    4    4    0    0 -2.4554760624e+00 -1.2611315689e+00 +1.0680583297e+01 1.1032036943e+01 1.0566000000e-01 0.0000e+00 1.0000e+00
      -14  1    4    4    0    0 -2.5822890359e+01 +2.1716771028e+01 +1.4346802165e+02 1.4738220058e+02 0.0000000000e+00 0.0000e+00 1.0000e+00
<mgrwt>
<rscale>  0 0.79916949E+02</rscale>
<asrwt>0</asrwt>
<pdfrwt beam="1">  1        1 0.36531525E-01 0.79916949E+02</pdfrwt>
<pdfrwt beam="2">  1       -2 0.10344828E-02 0.79916949E+02</pdfrwt>
<totfact> 0.17288800E+05</totfact>
</mgrwt>
</event>
<event>
 8      1 +5.0320763e-08 7.97138900e+01 7.81860800e-03 1.32986500e-01
       -2 -1    0    0    0  501 -0.0000000000e+00 +0.0000000000e+00 +1.6026753279e+01 1.6026753482e+01 2.5500000000e-03 0.0000e+00 1.0000e+00
        1 -1    0    0  501    0 +0.0000000000e+00 -0.0000000000e+00 -9.9120271294e+01 9.9120271422e+01 5.0400000000e-03 0.0000e+00 -1.0000e+00
      -24  2    1    2    0    0 -1.7763568394e-15 -3.5527136788e-15 -8.3093518015e+01 1.1514702490e+02 7.9713892191e+01 0.0000e+00 0.0000e+00
       66  2    3    3    0    0 +1.5387752975e+01 +3.0550747259e+01 -4.6651219402e+01 6.5165194286e+01 3.0000586243e+01 0.0000e+00 0.0000e+00
       13  1    3    3    0    0 -1.5387752975e+01 -3.0550747259e+01 -3.6442298613e+01 4.9981830618e+01 1.0566000000e-01 0.0000e+00 -1.0000e+00
       13  1    4    4    0    0 -4.6771353709e+00 -1.4420945201e+00 -6.6054729586e+00 8.2218409693e+00 1.0566000000e-01 0.0000e+00 -1.0000e+00
      -13  1    4    4    0    0 +9.5877622464e+00 +2.6984036901e+01 -3.1163882556e+01 4.2323305310e+01 1.0566000000e-01 0.0000e+00 1.0000e+00
      -14  1    4    4    0    0 +1.0477126099e+01 +5.0088048789e+00 -8.8818638871e+00 1.4620048007e+01 0.0000000000e+00 0.0000e+00 1.0000e+00
<mgrwt>
<rscale>  0 0.79713892E+02</rscale>
<asrwt>0</asrwt>
<pdfrwt beam="1">  1        1 0.15249272E-01 0.79713892E+02</pdfrwt>
<pdfrwt beam="2">  1       -2 0.24656544E-02 0.79713892E+02</pdfrwt>
<totfact> 0.14820126E+05</totfact>
</mgrwt>
</event>
<event>
 8      1 +5.0320763e-08 8.00062100e+01 7.81860800e-03 1.32903400e-01
       -1 -1    0    0    0  501 -0.0000000000e+00 +0.0000000000e+00 +8.0272817141e+01 8.0272817299e+01 5.0400000000e-03 0.0000e+00 1.0000e+00
        2 -1    0    0  501    0 +0.0000000000e+00 -0.0000000000e+00 -1.9935122855e+01 1.9935123018e+01 2.5500000000e-03 0.0000e+00 -1.0000e+00
       24  2    1    2    0    0 +0.0000000000e+00 +2.2204460493e-16 +6.0337694286e+01 1.0020794032e+02 8.0006211951e+01 0.0000e+00 0.0000e+00
       66  2    3    3    0    0 -1.6109125305e+01 +7.0425614342e-01 -3.6181094478e+00 3.4250712585e+01 3.0000345028e+01 0.0000e+00 0.0000e+00
      -13  1    3    3    0    0 +1.6109125305e+01 -7.0425614342e-01 +6.3955803734e+01 6.5957227732e+01 1.0566000000e-01 0.0000e+00 1.0000e+00
       13  1    4    4    0    0 -8.2119753696e+00 -1.7447838383e+00 -5.8435126903e+00 1.0229301770e+01 1.0566000000e-01 0.0000e+00 -1.0000e+00
      -13  1    4    4    0    0 -1.2304595743e+01 +8.1488932600e-01 +9.3569700431e+00 1.5480024982e+01 1.0566000000e-01 0.0000e+00 1.0000e+00
       14  1    4    4    0    0 +4.4074458074e+00 +1.6341506557e+00 -7.1315668005e+00 8.5413858326e+00 0.0000000000e+00 0.0000e+00 -1.0000e+00
<mgrwt>
<rscale>  0 0.80006212E+02</rscale>
<asrwt>0</asrwt>
<pdfrwt beam="1">  1        2 0.30669420E-02 0.80006212E+02</pdfrwt>
<pdfrwt beam="2">  1       -1 0.12349664E-01 0.80006212E+02</pdfrwt>
<totfact> 0.12404798E+05</totfact>
</mgrwt>
</event>
<event>
 8      1 +5.0320763e-08 7.86183500e+01 7.81860800e-03 1.33301900e-01
        1 -1    0    0  501    0 +0.0000000000e+00 +0.0000000000e+00 +1.5861821160e+02 1.5861821168e+02 5.0400000000e-03 0.0000e+00 -1.0000e+00
       -2 -1    0    0    0  501 -0.0000000000e+00 -0.0000000000e+00 -9.7417021082e+00 9.7417024420e+00 2.5500000000e-03 0.0000e+00 1.0000e+00
      -24  2    1    2    0    0 +0.0000000000e+00 -8.3266726847e-16 +1.4887650950e+02 1.6835991413e+02 7.8618354122e+01 0.0000e+00 0.0000e+00
       66  2    3    3    0    0 +3.2075219937e+01 +1.6561924559e-01 +6.3963935587e+01 7.7590957232e+01 3.0002073674e+01 0.0000e+00 0.0000e+00
       13  1    3    3    0    0 -3.2075219937e+01 -1.6561924559e-01 +8.4912573908e+01 9.0768956893e+01 1.0566000000e-01 0.0000e+00 -1.0000e+00
       13  1    4    4    0    0 +6.0708541460e+00 -7.0003534067e+00 +3.8929195679e+00 1.0051179268e+01 1.0566000000e-01 0.0000e+00 1.0000e+00
      -13  1    4    4    0    0 +1.2478304408e+01 -3.7224764182e+00 +3.1786682364e+01 3.4350680508e+01 1.0566000000e-01 0.0000e+00 -1.0000e+00
       14  1    4    4    0    0 +1.3526061383e+01 +1.0888449070e+01 +2.8284333655e+01 3.3189097457e+01 0.0000000000e+00 0.0000e+00 -1.0000e+00
<mgrwt>
<rscale>  0 0.78618354E+02</rscale>
<asrwt>0</asrwt>
<pdfrwt beam="1">  1        1 0.24402799E-01 0.78618354E+02</pdfrwt>
<pdfrwt beam="2">  1       -2 0.14987236E-02 0.78618354E+02</pdfrwt>
<totfact> 0.16711320E+05</totfact>
</mgrwt>
</event>
<event>
 8      1 +5.0320763e-08 8.10105600e+01 7.81860800e-03 1.32620800e-01
       -1 -1    0    0    0  501 -0.0000000000e+00 +0.0000000000e+00 +1.7322423576e+00 1.7322496895e+00 5.0400000000e-03 0.0000e+00 1.0000e+00
        2 -1    0    0  501    0 +0.0000000000e+00 -0.0000000000e+00 -9.4713888403e+02 9.4713888403e+02 2.5500000000e-03 0.0000e+00 -1.0000e+00
       24  2    1    2    0    0 +3.5527136788e-15 +0.0000000000e+00 -9.4540664167e+02 9.4887113372e+02 8.1010556685e+01 0.0000e+00 0.0000e+00
       66  2    3    3    0    0 -2.4433097033e+01 +1.4487123478e+01 -7.7604508132e+02 7.7714401802e+02 3.0000058865e+01 0.0000e+00 0.0000e+00
      -13  1    3    3    0    0 +2.4433097033e+01 -1.4487123478e+01 -1.6936156035e+02 1.7172711570e+02 1.0566000000e-01 0.0000e+00 1.0000e+00
       13  1    4    4    0    0 -1.1717355035e+01 +2.0089017174e+00 -2.9871528702e+02 2.9895177865e+02 1.0566000000e-01 0.0000e+00 -1.0000e+00
      -13  1    4    4    0    0 -1.0462202400e+01 -4.6269523489e+00 -1.9760210339e+02 1.9793299067e+02 1.0566000000e-01 0.0000e+00 1.0000e+00
       14  1    4    4    0    0 -2.2535395988e+00 +1.7105174109e+01 -2.7972769091e+02 2.8025924870e+02 0.0000000000e+00 0.0000e+00 -1.0000e+00
<mgrwt>
<rscale>  0 0.81010557E+02</rscale>
<asrwt>0</asrwt>
<pdfrwt beam="1">  1        2 0.14571326E+00 0.81010557E+02</pdfrwt>
<pdfrwt beam="2">  1       -1 0.26650015E-03 0.81010557E+02</pdfrwt>
<totfact> 0.33988866E+05</totfact>
</mgrwt>
</event>
<event>
 8      1 +5.0320763e-08 7.72325700e+01 7.81860800e-03 1.33709400e-01
       -2 -1    0    0    0  501 -0.0000000000e+00 +0.0000000000e+00 +8.1498520538e+00 8.1498524528e+00 2.5500000000e-03 0.0000e+00 1.0000e+00
        1 -1    0    0  501    0 +0.0000000000e+00 -0.0000000000e+00 -1.8297476385e+02 1.8297476392e+02 5.0400000000e-03 0.0000e+00 -1.0000e+00
      -24  2    1    2    0    0 +3.5527136788e-15 -1.7763568394e-15 -1.7482491180e+02 1.9112461638e+02 7.7232565664e+01 0.0000e+00 0.0000e+00
       66  2    3    3    0    0 -3.0929488473e+01 +1.0751632393e+01 -1.0486508929e+02 1.1388072480e+02 2.9998361165e+01 0.0000e+00 0.0000e+00
       13  1    3    3    0    0 +3.0929488473e+01 -1.0751632393e+01 -6.9959822510e+01 7.7243891577e+01 1.0566000000e-01 0.0000e+00 -1.0000e+00
       13  1    4    4    0    0 -1.4965966053e+00 +6.4026200012e+00 -3.3122431184e+00 7.3631150194e+00 1.0566000000e-01 0.0000e+00 -1.0000e+00
      -13  1    4    4    0    0 -2.0650217312e+01 -1.7394709462e+00 -7.6997263572e+01 7.9737362609e+01 1.0566000000e-01 0.0000e+00 1.0000e+00
       14  1    4    4    0    0 -8.7826745559e+00 +6.0884833377e+00 -2.4555582600e+01 2.6780247171e+01 0.0000000000e+00 0.0000e+00 -1.0000e+00
<mgrwt>
<rscale>  0 0.77232566E+02</rscale>
<asrwt>0</asrwt>
<pdfrwt beam="1">  1        1 0.28149961E-01 0.77232566E+02</pdfrwt>
<pdfrwt beam="2">  1       -2 0.12538236E-02 0.77232566E+02</pdfrwt>
<totfact> 0.17995420E+05</totfact>
</mgrwt>
</event>
<event>
 8      1 +5.0320763e-08 7.92697200e+01 7.81860800e-03 1.33113700e-01
        1 -1    0    0  501    0 +0.0000000000e+00 +0.0000000000e+00 +1.3844282056e+02 1.3844282065e+02 5.0400000000e-03 0.0000e+00 -1.0000e+00
       -2 -1    0    0    0  501 -0.0000000000e+00 -0.0000000000e+00 -1.1347082431e+01 1.1347082717e+01 2.5500000000e-03 0.0000e+00 1.0000e+00
      -24  2    1    2    0    0 +0.0000000000e+00 +0.0000000000e+00 +1.2709573813e+02 1.4978990337e+02 7.9269719949e+01 0.0000e+00 0.0000e+00
       66  2    3    3    0    0 +1.6924738280e+01 +2.9257495166e+01 +6.6492229596e+01 8.0397942741e+01 3.0002746727e+01 0.0000e+00 0.0000e+00
       13  1    3    3    0    0 -1.6924738280e+01 -2.9257495166e+01 +6.0603508534e+01 6.9391960628e+01 1.0566000000e-01 0.0000e+00 -1.0000e+00
       13  1    4    4    0    0 +8.8875849823e-02 -1.5812197891e+00 +1.1884828788e+01 1.1990349214e+01 1.0566000000e-01 0.0000e+00 -1.0000e+00
      -13  1    4    4    0    0 -3.5665949350e+00 +1.4873670069e+01 +2.0167472367e+01 2.5311751549e+01 1.0566000000e-01 0.0000e+00 1.0000e+00
      -14  1    4    4    0    0 +2.0402457365e+01 +1.5965044886e+01 +3.4439928441e+01 4.3095841978e+01 0.0000000000e+00 0.0000e+00 1.0000e+00
<mgrwt>
<rscale>  0 0.79269720E+02</rscale>
<asrwt>0</asrwt>
<pdfrwt beam="1">  1        1 0.21298896E-01 0.79269720E+02</pdfrwt>
<pdfrwt beam="2">  1       -2 0.17457050E-02 0.79269720E+02</pdfrwt>
<totfact> 0.15944998E+05</totfact>
</mgrwt>
</event>
<event>
 8      1 +5.0320763e-08 7.90143600e+01 7.81860800e-03 1.33187200e-01
       -1 -1    0    0    0  501 -0.0000000000e+00 +0.0000000000e+00 +1.6215511667e+01 1.6215512450e+01 5.0400000000e-03 0.0000e+00 1.0000e+00
        2 -1    0    0  501    0 +0.0000000000e+00 -0.0000000000e+00 -9.6254585652e+01 9.6254585686e+01 2.5500000000e-03 0.0000e+00 -1.0000e+00
       24  2    1    2    0    0 +3.5527136788e-15 +0.0000000000e+00 -8.0039073986e+01 1.1247009814e+02 7.9014363316e+01 0.0000e+00 0.0000e+00
       66  2    3    3    0    0 +1.7132857368e+01 +4.0779158509e+00 -8.6873394239e+01 9.3578743059e+01 2.9997171979e+01 0.0000e+00 0.0000e+00
      -13  1    3    3    0    0 -1.7132857368e+01 -4.0779158509e+00 +6.8343202530e+00 1.8891355077e+01 1.0566000000e-01 0.0000e+00 1.0000e+00
       13  1    4    4    0    0 +8.9862716001e+00 +7.2790405970e+00 -2.3536762121e+01 2.6224565668e+01 1.0566000000e-01 0.0000e+00 -1.0000e+00
      -13  1    4    4    0    0 +1.3002043157e+01 -9.6318782612e-01 -2.1261991410e+01 2.4941216887e+01 1.0566000000e-01 0.0000e+00 1.0000e+00
      -14  1    4    4    0    0 -4.8554573889e+00 -2.2379369200e+00 -4.2074640707e+01 4.2412960505e+01 0.0000000000e+00 0.0000e+00 1.0000e+00
<mgrwt>
<rscale>  0 0.79014363E+02</rscale>
<asrwt>0</asrwt>
<pdfrwt beam="1">  1        2 0.14808397E-01 0.79014363E+02</pdfrwt>
<pdfrwt beam="2">  1       -1 0.24946942E-02 0.79014363E+02</pdfrwt>
<totfact> 0.18131198E+05</totfact>
</mgrwt>
</event>
<event>
 8      1 +5.0320763e-08 8.19643600e+01 7.81860800e-03 1.32356800e-01
        2 -1    0    0  501    0 +0.0000000000e+00 +0.0000000000e+00 +4.2393834318e+01 4.2393834395e+01 2.5500000000e-03 0.0000e+00 -1.0000e+00
       -1 -1    0    0    0  501 -0.0000000000e+00 -0.0000000000e+00 -3.9617533238e+01 3.9617533558e+01 5.0400000000e-03 0.0000e+00 1.0000e+00
       24  2    1    2    0    0 -3.5527136788e-15 -7.1054273576e-15 +2.7763010806e+00 8.2011367953e+01 8.1964361925e+01 0.0000e+00 0.0000e+00
       66  2    3    3    0    0 +1.4675703340e+01 +2.3415511101e+01 +2.3858334703e+01 4.7253264806e+01 2.9999807856e+01 0.0000e+00 0.0000e+00
      -13  1    3    3    0    0 -1.4675703340e+01 -2.3415511101e+01 -2.1082033623e+01 3.4758103147e+01 1.0566000000e-01 0.0000e+00 1.0000e+00
       13  1    4    4    0    0 +1.4312622905e+01 +1.2928584795e+01 +1.1688387285e+01 2.2552805603e+01 1.0566000000e-01 0.0000e+00 -1.0000e+00
      -13  1    4    4    0    0 -5.2005937234e+00 -3.5830530153e+00 +4.3473161757e+00 7.6677745111e+00 1.0566000000e-01 0.0000e+00 1.0000e+00
      -14  1    4    4    0    0 +5.5636741589e+00 +1.4069979322e+01 +7.8226312428e+00 1.7032684692e+01 0.0000000000e+00 0.0000e+00 1.0000e+00
<mgrwt>
<rscale>  0 0.81964362E+02</rscale>
<asrwt>0</asrwt>
<pdfrwt beam="1">  1        2 0.65221283E-02 0.81964362E+02</pdfrwt>
<pdfrwt beam="2">  1       -1 0.60950052E-02 0.81964362E+02</pdfrwt>
<totfact> 0.13492463E+05</totfact>
</mgrwt>
</event>
<event>
 8      1 +5.0320763e-08 8.05246000e+01 7.81860800e-03 1.32756900e-01
       -4 -1    0    0    0  501 -0.0000000000e+00 +0.0000000000e+00 +2.4089328016e+02 2.4089662788e+02 1.2700000000e+00 0.0000e+00 1.0000e+00
        3 -1    0    0  501    0 +0.0000000000e+00 -0.0000000000e+00 -6.7272290170e+00 6.7279871616e+00 1.0100000000e-01 0.0000e+00 -1.0000e+00
      -24  2    1    2    0    0 -3.5527136788e-15 +3.5527136788e-15 +2.3416605114e+02 2.4762461504e+02 8.0524595428e+01 0.0000e+00 0.0000e+00
       66  2    3    3    0    0 +1.4718683011e+01 -2.9916497811e+01 +1.0406087570e+02 1.1331525457e+02 3.0000743251e+01 0.0000e+00 0.0000e+00
       13  1    3    3    0    0 -1.4718683011e+01 +2.9916497811e+01 +1.3010517544e+02 1.3430936048e+02 1.0566000000e-01 0.0000e+00 -1.0000e+00
       13  1    4    4    0    0 -3.5320559306e+00 -3.1741539007e+00 +4.1505067080e+01 4.1775979096e+01 1.0566000000e-01 0.0000e+00 -1.0000e+00
      -13  1    4    4    0    0 -4.7800005994e-01 +6.6371799570e-01 +5.2452408982e+00 5.3096818879e+00 1.0566000000e-01 0.0000e+00 1.0000e+00
      -14  1    4    4    0    0 +1.8728739001e+01 -2.7406061906e+01 +5.7310567719e+01 6.6229593582e+01 0.0000000000e+00 0.0000e+00 1.0000e+00
<mgrwt>
<rscale>  0 0.80524595E+02</rscale>
<asrwt>0</asrwt>
<pdfrwt beam="1">  1        3 0.10350183E-02 0.80524595E+02</pdfrwt>
<pdfrwt beam="2">  1       -4 0.37069982E-01 0.80524595E+02</pdfrwt>
<totfact> 0.29921588E+04</totfact>
</mgrwt>
</event>
<event>
 8      1 +5.0320763e-08 7.97635400e+01 7.81860800e-03 1.32972400e-01
       -2 -1    0    0    0  501 -0.0000000000e+00 +0.0000000000e+00 +3.1623321414e+01 3.1623321517e+01 2.5500000000e-03 0.0000e+00 1.0000e+00
        1 -1    0    0  501    0 +0.0000000000e+00 -0.0000000000e+00 -5.0296920095e+01 5.0296920347e+01 5.0400000000e-03 0.0000e+00 -1.0000e+00
      -24  2    1    2    0    0 +2.2204460493e-16 -3.5527136788e-15 -1.8673598681e+01 8.1920241864e+01 7.9763542670e+01 0.0000e+00 0.0000e+00
       66  2    3    3    0    0 -1.6267772517e+00 +2.1108170046e+01 +1.6980812182e+01 4.0453997460e+01 2.9999611351e+01 0.0000e+00 0.0000e+00
       13  1    3    3    0    0 +1.6267772517e+00 -2.1108170046e+01 -3.5654410863e+01 4.1466244404e+01 1.0566000000e-01 0.0000e+00 -1.0000e+00
       13  1    4    4    0    0 -2.5780981083e+00 -4.0554858502e+00 -3.4053492493e-01 4.8187844327e+00 1.0566000000e-01 0.0000e+00 1.0000e+00
      -13  1    4    4    0    0 +2.3571665733e+00 +4.7676454703e+00 -3.5686271125e+00 6.4056959878e+00 1.0566000000e-01 0.0000e+00 -1.0000e+00
      -14  1    4    4    0    0 -1.4058457167e+00 +2.0396010426e+01 +2.0889974220e+01 2.9229517040e+01 0.0000000000e+00 0.0000e+00 1.0000e+00
<mgrwt>
<rscale>  0 0.79763543E+02</rscale>
<asrwt>0</asrwt>
<pdfrwt beam="1">  1        1 0.77379878E-02 0.79763543E+02</pdfrwt>
<pdfrwt beam="2">  1       -2 0.48651264E-02 0.79763543E+02</pdfrwt>
<totfact> 0.13278187E+05</totfact>
</mgrwt>
</event>
<event>
 8      1 +5.0320763e-08 8.04701000e+01 7.81860800e-03 1.32772300e-01
       -1 -1    0    0    0  501 -0.0000000000e+00 +0.0000000000e+00 +7.4194214009e+01 7.4194214181e+01 5.0400000000e-03 0.0000e+00 1.0000e+00
        2 -1    0    0  501    0 +0.0000000000e+00 -0.0000000000e+00 -2.1819211901e+01 2.1819212050e+01 2.5500000000e-03 0.0000e+00 -1.0000e+00
       24  2    1    2    0    0 -3.5527136788e-15 -3.5527136788e-15 +5.2375002108e+01 9.6013426231e+01 8.0470101099e+01 0.0000e+00 0.0000e+00
       66  2    3    3    0    0 -1.8695317078e+01 +2.3457141731e+01 +9.1486441331e+00 4.3398964658e+01 3.0000334416e+01 0.0000e+00 0.0000e+00
      -13  1    3    3    0    0 +1.8695317078e+01 -2.3457141731e+01 +4.3226357975e+01 5.2614461573e+01 1.0566000000e-01 0.0000e+00 1.0000e+00
       13  1    4    4    0    0 -2.0128971989e+01 +9.0271369040e+00 +9.6258016468e+00 2.4069315225e+01 1.0566000000e-01 0.0000e+00 1.0000e+00
      -13  1    4    4    0    0 +4.9019623537e+00 +1.4113138480e+01 +1.9745394201e+00 1.5070497093e+01 1.0566000000e-01 0.0000e+00 -1.0000e+00
       14  1    4    4    0    0 -3.4683074434e+00 +3.1686634712e-01 -2.4516969338e+00 4.2591523404e+00 0.0000000000e+00 0.0000e+00 -1.0000e+00
<mgrwt>
<rscale>  0 0.80470101E+02</rscale>
<asrwt>0</asrwt>
<pdfrwt beam="1">  1        2 0.33568018E-02 0.80470101E+02</pdfrwt>
<pdfrwt beam="2">  1       -1 0.11414495E-01 0.80470101E+02</pdfrwt>
<totfact> 0.12425028E+05</totfact>
</mgrwt>
</event>
<event>
 8      1 +5.0320763e-08 8.45724100e+01 7.81860800e-03 1.31655500e-01
        2 -1    0    0  501    0 +0.0000000000e+00 +0.0000000000e+00 +8.3501286115e+02 8.3501286115e+02 2.5500000000e-03 0.0000e+00 -1.0000e+00
       -1 -1    0    0    0  501 -0.0000000000e+00 -0.0000000000e+00 -2.1414287255e+00 2.1414346565e+00 5.0400000000e-03 0.0000e+00 1.0000e+00
       24  2    1    2    0    0 +0.0000000000e+00 +1.7763568394e-15 +8.3287143242e+02 8.3715429581e+02 8.4572407114e+01 0.0000e+00 0.0000e+00
       66  2    3    3    0    0 -1.6477429780e+01 +8.5495003966e+00 +7.8525672842e+02 7.8604880833e+02 2.9999998303e+01 0.0000e+00 0.0000e+00
      -13  1    3    3    0    0 +1.6477429780e+01 -8.5495003966e+00 +4.7614704001e+01 5.1105487478e+01 1.0566000000e-01 0.0000e+00 1.0000e+00
       13  1    4    4    0    0 -3.8297409896e+00 -2.3808806568e+00 +3.4653663561e+01 3.4946002218e+01 1.0566000000e-01 0.0000e+00 -1.0000e+00
      -13  1    4    4    0    0 +6.2163388590e+00 +2.5067553881e+00 +1.9986743986e+02 1.9997982742e+02 1.0566000000e-01 0.0000e+00 1.0000e+00
       14  1    4    4    0    0 -1.8864027649e+01 +8.4236256654e+00 +5.5073562500e+02 5.5112297870e+02 0.0000000000e+00 0.0000e+00 -1.0000e+00
<mgrwt>
<rscale>  0 0.84572407E+02</rscale>
<asrwt>0</asrwt>
<pdfrwt beam="1">  1        2 0.12846347E+00 0.84572407E+02</pdfrwt>
<pdfrwt beam="2">  1       -1 0.32945115E-03 0.84572407E+02</pdfrwt>
<totfact> 0.29941120E+05</totfact>
</mgrwt>
</event>
<event>
 8      1 +5.0320763e-08 8.12234200e+01 7.81860800e-03 1.32561500e-01
        1 -1    0    0  501    0 +0.0000000000e+00 +0.0000000000e+00 +1.1490862739e+01 1.1490863844e+01 5.0400000000e-03 0.0000e+00 -1.0000e+00
       -2 -1    0    0    0  501 -0.0000000000e+00 -0.0000000000e+00 -1.4353237688e+02 1.4353237690e+02 2.5500000000e-03 0.0000e+00 1.0000e+00
      -24  2    1    2    0    0 -3.8857805862e-16 +0.0000000000e+00 -1.3204151414e+02 1.5502324074e+02 8.1223418513e+01 0.0000e+00 0.0000e+00
       66  2    3    3    0    0 +2.3624153454e-01 -3.1584564981e+01 -1.0412124663e+02 1.1286647311e+02 2.9999436642e+01 0.0000e+00 0.0000e+00
       13  1    3    3    0    0 -2.3624153454e-01 +3.1584564981e+01 -2.7920267510e+01 4.2156767629e+01 1.0566000000e-01 0.0000e+00 -1.0000e+00
       13  1    4    4    0    0 -3.1434394137e-01 -8.5089320528e+00 -5.6461848286e+01 5.7100369638e+01 1.0566000000e-01 0.0000e+00 -1.0000e+00
      -13  1    4    4    0    0 +5.3169418057e+00 -5.9559906662e+00 -2.8658620935e+01 2.9750149797e+01 1.0566000000e-01 0.0000e+00 1.0000e+00
       14  1    4    4    0    0 -4.7663563298e+00 -1.7119642262e+01 -1.9000777405e+01 2.6015953679e+01 0.0000000000e+00 0.0000e+00 -1.0000e+00
<mgrwt>
<rscale>  0 0.81223419E+02</rscale>
<asrwt>0</asrwt>
<pdfrwt beam="1">  1        1 0.17678252E-02 0.81223419E+02</pdfrwt>
<pdfrwt beam="2">  1       -2 0.22081903E-01 0.81223419E+02</pdfrwt>
<totfact> 0.92195507E+04</totfact>
</mgrwt>
</event>
<event>
 8      1 +5.0320763e-08 7.97388700e+01 7.81860800e-03 1.32979400e-01
       -4 -1    0    0    0  501 -0.0000000000e+00 +0.0000000000e+00 +7.2515124576e+00 7.3618837890e+00 1.2700000000e+00 0.0000e+00 1.0000e+00
        3 -1    0    0  501    0 +0.0000000000e+00 -0.0000000000e+00 -2.1749442894e+02 2.1749445239e+02 1.0100000000e-01 0.0000e+00 -1.0000e+00
      -24  2    1    2    0    0 +0.0000000000e+00 -2.2204460493e-15 -2.1024291649e+02 2.2485633618e+02 7.9738873766e+01 0.0000e+00 0.0000e+00
       66  2    3    3    0    0 -3.3996953093e+01 +3.6137649651e+00 -1.1549455981e+02 1.2412841367e+02 3.0000293632e+01 0.0000e+00 0.0000e+00
       13  1    3    3    0    0 +3.3996953093e+01 -3.6137649651e+00 -9.4748356676e+01 1.0072792251e+02 1.0566000000e-01 0.0000e+00 -1.0000e+00
       13  1    4    4    0    0 -1.9050245581e+01 -9.0199691603e+00 -3.6626769069e+01 4.2258763314e+01 1.0566000000e-01 0.0000e+00 -1.0000e+00
      -13  1    4    4    0    0 -1.3100872423e+01 +7.0632122071e+00 -4.2487925241e+01 4.5019515549e+01 1.0566000000e-01 0.0000e+00 1.0000e+00
       14  1    4    4    0    0 -1.8458350892e+00 +5.5705219184e+00 -3.6379865499e+01 3.6850134807e+01 0.0000000000e+00 0.0000e+00 -1.0000e+00
<mgrwt>
<rscale>  0 0.79738874E+02</rscale>
<asrwt>0</asrwt>
<pdfrwt beam="1">  1        3 0.33460732E-01 0.79738874E+02</pdfrwt>
<pdfrwt beam="2">  1       -4 0.11243928E-02 0.79738874E+02</pdfrwt>
<totfact> 0.35321261E+04</totfact>
</mgrwt>
</event>
<event>
 8      1 +5.0320763e-08 7.70925500e+01 7.81860800e-03 1.33751100e-01
        3 -1    0    0  501    0 +0.0000000000e+00 +0.0000000000e+00 +3.3498309428e+00 3.3513532111e+00 1.0100000000e-01 0.0000e+00 -1.0000e+00
       -4 -1    0    0    0  501 -0.0000000000e+00 -0.0000000000e+00 -4.4332662156e+02 4.4332844065e+02 1.2700000000e+00 0.0000e+00 1.0000e+00
      -24  2    1    2    0    0 +1.7763568394e-15 +0.0000000000e+00 -4.3997679062e+02 4.4667979386e+02 7.7092554483e+01 0.0000e+00 0.0000e+00
       66  2    3    3    0    0 -4.6626124697e+00 +2.1316781814e+01 -3.9449104915e+02 3.9623072070e+02 2.9990848938e+01 0.0000e+00 0.0000e+00
       13  1    3    3    0    0 +4.6626124697e+00 -2.1316781814e+01 -4.5485741465e+01 5.0449073159e+01 1.0566000000e-01 0.0000e+00 -1.0000e+00
       13  1    4    4    0    0 +5.4938227193e+00 +7.1181488699e+00 -6.1758386063e+01 6.2409610995e+01 1.0566000000e-01 0.0000e+00 -1.0000e+00
      -13  1    4    4    0    0 -1.2349910834e+01 -4.8187721151e-02 -1.7237131062e+02 1.7281320119e+02 1.0566000000e-01 0.0000e+00 1.0000e+00
       14  1    4    4    0    0 +2.1934756454e+00 +1.4246820666e+01 -1.6036135247e+02 1.6100790851e+02 0.0000000000e+00 0.0000e+00 -1.0000e+00
<mgrwt>
<rscale>  0 0.77092554E+02</rscale>
<asrwt>0</asrwt>
<pdfrwt beam="1">  1        3 0.51547698E-03 0.77092554E+02</pdfrwt>
<pdfrwt beam="2">  1       -4 0.68222699E-01 0.77092554E+02</pdfrwt>
<totfact> 0.23961106E+04</totfact>
</mgrwt>
</event>
<event>
 8      1 +5.0320763e-08 8.04946700e+01 7.81860800e-03 1.32765300e-01
        3 -1    0    0  501    0 +0.0000000000e+00 +0.0000000000e+00 +1.0434071700e+02 1.0434076589e+02 1.0100000000e-01 0.0000e+00 -1.0000e+00
       -4 -1    0    0    0  501 -0.0000000000e+00 -0.0000000000e+00 -1.5494727598e+01 1.5546687214e+01 1.2700000000e+00 0.0000e+00 1.0000e+00
      -24  2    1    2    0    0 -3.5527136788e-15 +0.0000000000e+00 +8.8845989406e+01 1.1988745310e+02 8.0494668007e+01 0.0000e+00 0.0000e+00
       66  2    3    3    0    0 -1.6325209343e+01 +1.3098524169e+01 +9.4510079818e+00 3.7779852753e+01 2.9998532076e+01 0.0000e+00 0.0000e+00
       13  1    3    3    0    0 +1.6325209343e+01 -1.3098524169e+01 +7.9394981424e+01 8.2107600348e+01 1.0566000000e-01 0.0000e+00 -1.0000e+00
       13  1    4    4    0    0 -1.6368491389e+01 +2.4838664212e+00 +2.9031490182e+00 1.6808823308e+01 1.0566000000e-01 0.0000e+00 -1.0000e+00
      -13  1    4    4    0    0 -7.7768668781e+00 +7.7646306937e+00 +6.2489142119e+00 1.2642359001e+01 1.0566000000e-01 0.0000e+00 1.0000e+00
       14  1    4    4    0    0 +7.8201489239e+00 +2.8500270541e+00 +2.9894475168e-01 8.3286704441e+00 0.0000000000e+00 0.0000e+00 -1.0000e+00
<mgrwt>
<rscale>  0 0.80494668E+02</rscale>
<asrwt>0</asrwt>
<pdfrwt beam="1">  1        3 0.16052447E-01 0.80494668E+02</pdfrwt>
<pdfrwt beam="2">  1       -4 0.23883956E-02 0.80494668E+02</pdfrwt>
<totfact> 0.41620272E+04</totfact>
</mgrwt>
</event>
<event>
 7      1 +5.0320763e-08 1.41029700e+02 7.81860800e-03 1.21195000e-01
        1 -1    0    0  501    0 +0.0000000000e+00 +0.0000000000e+00 +3.3228889682e+01 3.3228890064e+01 5.0400000000e-03 0.0000e+00 -1.0000e+00
       -2 -1    0    0    0  501 -0.0000000000e+00 -0.0000000000e+00 -1.4963918613e+02 1.4963918616e+02 2.5500000000e-03 0.0000e+00 1.0000e+00
       66  2    1    2    0    0 -3.1402694955e+01 +3.8962850973e+01 -1.1923618154e+02 1.3274592745e+02 2.9999687668e+01 0.0000e+00 0.0000e+00
       13  1    1    2    0    0 +3.1402694955e+01 -3.8962850973e+01 +2.8258850908e+00 5.0122148766e+01 1.0566000000e-01 0.0000e+00 -1.0000e+00
       13  1    3    3    0    0 -2.5927043626e+01 +2.1212513871e+01 -6.4862846060e+01 7.3002618439e+01 1.0566000000e-01 0.0000e+00 -1.0000e+00
      -13  1    3    3    0    0 -2.6448248250e+00 +1.9007311860e+01 -3.3222566747e+01 3.8366953329e+01 1.0566000000e-01 0.0000e+00 1.0000e+00
       14  1    3    3    0    0 -2.8308265041e+00 -1.2569747585e+00 -2.1150768736e+01 2.1376355685e+01 0.0000000000e+00 0.0000e+00 -1.0000e+00
<mgrwt>
<rscale>  0 0.14102970E+03</rscale>
<asrwt>0</asrwt>
<pdfrwt beam="1">  1        1 0.51121370E-02 0.14102970E+03</pdfrwt>
<pdfrwt beam="2">  1       -2 0.23021413E-01 0.14102970E+03</pdfrwt>
<totfact> 0.21579415E+04</totfact>
</mgrwt>
</event>
<event>
 8      1 +5.0320763e-08 7.86060300e+01 7.81860800e-03 1.33305500e-01
       -3 -1    0    0    0  501 -0.0000000000e+00 +0.0000000000e+00 +2.9781651272e+02 2.9781652984e+02 1.0100000000e-01 0.0000e+00 1.0000e+00
        4 -1    0    0  501    0 +0.0000000000e+00 -0.0000000000e+00 -5.1077176385e+00 5.2632384968e+00 1.2700000000e+00 0.0000e+00 -1.0000e+00
       24  2    1    2    0    0 +0.0000000000e+00 +0.0000000000e+00 +2.9270879508e+02 3.0307976834e+02 7.8606025601e+01 0.0000e+00 0.0000e+00
       66  2    3    3    0    0 -2.0119097084e+01 -2.6763241128e+01 +1.7745659578e+02 1.8306256228e+02 3.0000152996e+01 0.0000e+00 0.0000e+00
      -13  1    3    3    0    0 +2.0119097084e+01 +2.6763241128e+01 +1.1525219930e+02 1.2001720606e+02 1.0566000000e-01 0.0000e+00 1.0000e+00
       13  1    4    4    0    0 -8.0730486180e+00 -1.0943698610e+01 +3.0609191933e+01 3.3494364423e+01 1.0566000000e-01 0.0000e+00 -1.0000e+00
      -13  1    4    4    0    0 -1.2033822675e+01 -2.0002692688e+01 +1.0787064325e+02 1.1036760142e+02 1.0566000000e-01 0.0000e+00 1.0000e+00
      -14  1    4    4    0    0 -1.2225790154e-02 +4.1831501701e+00 +3.8976760596e+01 3.9200596442e+01 0.0000000000e+00 0.0000e+00 1.0000e+00
<mgrwt>
<rscale>  0 0.78606026E+02</rscale>
<asrwt>0</asrwt>
<pdfrwt beam="1">  1        4 0.79797405E-03 0.78606026E+02</pdfrwt>
<pdfrwt beam="2">  1       -3 0.45818008E-01 0.78606026E+02</pdfrwt>
<totfact> 0.32249250E+04</totfact>
</mgrwt>
</event>
<event>
 8      1 +5.0320763e-08 8.06922400e+01 7.81860800e-03 1.32709800e-01
       -3 -1    0    0    0  501 -0.0000000000e+00 +0.0000000000e+00 +5.4447958943e+01 5.4448052620e+01 1.0100000000e-01 0.0000e+00 1.0000e+00
        4 -1    0    0  501    0 +0.0000000000e+00 -0.0000000000e+00 -2.9875637450e+01 2.9902618833e+01 1.2700000000e+00 0.0000e+00 -1.0000e+00
       24  2    1    2    0    0 +8.8817841970e-16 -8.8817841970e-16 +2.4572321493e+01 8.4350671453e+01 8.0692235011e+01 0.0000e+00 0.0000e+00
       66  2    3    3    0    0 +7.8301588699e+00 +7.1315467983e+00 -2.0634572265e+01 3.7919596137e+01 2.9998997499e+01 0.0000e+00 0.0000e+00
      -13  1    3    3    0    0 -7.8301588699e+00 -7.1315467983e+00 +4.5206893758e+01 4.6431075316e+01 1.0566000000e-01 0.0000e+00 1.0000e+00
       13  1    4    4    0    0 -1.6382301390e+00 -1.8601894878e+00 +4.6885607838e+00 5.3045140379e+00 1.0566000000e-01 0.0000e+00 1.0000e+00
      -13  1    4    4    0    0 -3.0633942767e+00 +3.8850758739e+00 -1.4219401317e+00 5.1489102551e+00 1.0566000000e-01 0.0000e+00 -1.0000e+00
       14  1    4    4    0    0 +1.2531783286e+01 +5.1066604122e+00 -2.3901192918e+01 2.7466171844e+01 0.0000000000e+00 0.0000e+00 -1.0000e+00
<mgrwt>
<rscale>  0 0.80692235E+02</rscale>
<asrwt>0</asrwt>
<pdfrwt beam="1">  1        4 0.45994665E-02 0.80692235E+02</pdfrwt>
<pdfrwt beam="2">  1       -3 0.83766299E-02 0.80692235E+02</pdfrwt>
<totfact> 0.44018641E+04</totfact>
</mgrwt>
</event>
<event>
 8      1 +5.0320763e-08 7.97069000e+01 7.81860800e-03 1.32988500e-01
        1 -1    0    0  501    0 +0.0000000000e+00 +0.0000000000e+00 +1.1791621639e+01 1.1791622716e+01 5.0400000000e-03 0.0000e+00 -1.0000e+00
       -2 -1    0    0    0  501 -0.0000000000e+00 -0.0000000000e+00 -1.3469712615e+02 1.3469712617e+02 2.5500000000e-03 0.0000e+00 1.0000e+00
      -24  2    1    2    0    0 -3.5527136788e-15 +0.0000000000e+00 -1.2290550451e+02 1.4648874889e+02 7.9706903792e+01 0.0000e+00 0.0000e+00
       66  2    3    3    0    0 +1.9984700243e+01 -8.6464477073e+00 -1.1864484560e+02 1.2430060611e+02 2.9998199751e+01 0.0000e+00 0.0000e+00
       13  1    3    3    0    0 -1.9984700243e+01 +8.6464477073e+00 -4.2606589064e+00 2.2188142782e+01 1.0566000000e-01 0.0000e+00 -1.0000e+00
       13  1    4    4    0    0 +1.6995298671e+01 -1.0251970337e+01 -3.7037149172e+01 4.2020288618e+01 1.0566000000e-01 0.0000e+00 -1.0000e+00
      -13  1    4    4    0    0 +3.7442384341e+00 -2.0358350107e-01 -1.0575928409e+01 1.1221505846e+01 1.0566000000e-01 0.0000e+00 1.0000e+00
      -14  1    4    4    0    0 -7.5483686155e-01 +1.8091061306e+00 -7.1031768023e+01 7.1058811643e+01 0.0000000000e+00 0.0000e+00 1.0000e+00
<mgrwt>
<rscale>  0 0.79706904E+02</rscale>
<asrwt>0</asrwt>
<pdfrwt beam="1">  1        1 0.18140958E-02 0.79706904E+02</pdfrwt>
<pdfrwt beam="2">  1       -2 0.20722634E-01 0.79706904E+02</pdfrwt>
<totfact> 0.98710521E+04</totfact>
</mgrwt>
</event>
<event>
 8      1 +5.0320763e-08 7.84137200e+01 7.81860800e-03 1.33361400e-01
        2 -1    0    0  501    0 +0.0000000000e+00 +0.0000000000e+00 +8.0314269870e+01 8.0314269911e+01 2.5500000000e-03 0.0000e+00 -1.0000e+00
       -1 -1    0    0    0  501 -0.0000000000e+00 -0.0000000000e+00 -1.9139538086e+01 1.9139538749e+01 5.0400000000e-03 0.0000e+00 1.0000e+00
       24  2    1    2    0    0 +0.0000000000e+00 +0.0000000000e+00 +6.1174731784e+01 9.9453808660e+01 7.8413724870e+01 0.0000e+00 0.0000e+00
       66  2    3    3    0    0 +7.2679491393e+00 -1.8786778745e+01 +6.8962758173e+01 7.7856802863e+01 3.0000893266e+01 0.0000e+00 0.0000e+00
      -13  1    3    3    0    0 -7.2679491393e+00 +1.8786778745e+01 -7.7880263890e+00 2.1597005797e+01 1.0566000000e-01 0.0000e+00 1.0000e+00
       13  1    4    4    0    0 +7.5792332818e+00 -1.3471058453e+01 +2.4301623628e+01 2.8800942137e+01 1.0566000000e-01 0.0000e+00 -1.0000e+00
      -13  1    4    4    0    0 +5.9015055359e+00 -2.7075448581e+00 +4.0751591244e+01 4.1265747536e+01 1.0566000000e-01 0.0000e+00 1.0000e+00
      -14  1    4    4    0    0 -6.2127896784e+00 -2.6081754348e+00 +3.9095433014e+00 7.7901131900e+00 0.0000000000e+00 0.0000e+00 1.0000e+00
<mgrwt>
<rscale>  0 0.78413725E+02</rscale>
<asrwt>0</asrwt>
<pdfrwt beam="1">  1        2 0.12356042E-01 0.78413725E+02</pdfrwt>
<pdfrwt beam="2">  1       -1 0.29445444E-02 0.78413725E+02</pdfrwt>
<totfact> 0.17638330E+05</totfact>
</mgrwt>
</event>
<event>
 8      1 +5.0320763e-08 7.99146500e+01 7.81860800e-03 1.32929400e-01
       -1 -1    0    0    0  501 -0.0000000000e+00 +0.0000000000e+00 +1.2912326040e+00 1.2912424401e+00 5.0400000000e-03 0.0000e+00 1.0000e+00
        2 -1    0    0  501    0 +0.0000000000e+00 -0.0000000000e+00 -1.2364789232e+03 1.2364789232e+03 2.5500000000e-03 0.0000e+00 -1.0000e+00
       24  2    1    2    0    0 +0.0000000000e+00 +3.5527136788e-15 -1.2351876906e+03 1.2377701656e+03 7.9914654195e+01 0.0000e+00 0.0000e+00
       66  2    3    3    0    0 +1.1941902480e+01 -1.7597257590e+01 -1.1219566719e+03 1.1225592839e+03 3.0004995778e+01 0.0000e+00 0.0000e+00
      -13  1    3    3    0    0 -1.1941902480e+01 +1.7597257590e+01 -1.1323101866e+02 1.1521088169e+02 1.0566000000e-01 0.0000e+00 1.0000e+00
       13  1    4    4    0    0 -1.6157729916e+00 -1.7452031735e+01 -4.8028163473e+02 4.8060133578e+02 1.0566000000e-01 0.0000e+00 -1.0000e+00
      -13  1    4    4    0    0 -1.9987733941e+00 -2.5383158100e+00 -1.3400257141e+02 1.3404155494e+02 1.0566000000e-01 0.0000e+00 1.0000e+00
      -14  1    4    4    0    0 +1.5556448865e+01 +2.3930899552e+00 -5.0767246577e+02 5.0791639320e+02 0.0000000000e+00 0.0000e+00 1.0000e+00
<mgrwt>
<rscale>  0 0.79914654E+02</rscale>
<asrwt>0</asrwt>
<pdfrwt beam="1">  1        2 0.19022658E+00 0.79914654E+02</pdfrwt>
<pdfrwt beam="2">  1       -1 0.19865292E-03 0.79914654E+02</pdfrwt>
<totfact> 0.35003935E+05</totfact>
</mgrwt>
</event>
<event>
 8      1 +5.0320763e-08 6.88812200e+01 7.81860800e-03 1.36393900e-01
        1 -1    0    0  501    0 +0.0000000000e+00 +0.0000000000e+00 +8.4135698996e+01 8.4135699147e+01 5.0400000000e-03 0.0000e+00 -1.0000e+00
       -2 -1    0    0    0  501 -0.0000000000e+00 -0.0000000000e+00 -1.4098124426e+01 1.4098124656e+01 2.5500000000e-03 0.0000e+00 1.0000e+00
      -24  2    1    2    0    0 -1.7763568394e-15 +2.2204460493e-15 +7.0037574571e+01 9.8233823804e+01 6.8881218683e+01 0.0000e+00 0.0000e+00
       66  2    3    3    0    0 -1.0847414388e+01 -3.3862745883e+00 +5.3132208029e+00 3.2519393203e+01 3.0002455974e+01 0.0000e+00 0.0000e+00
       13  1    3    3    0    0 +1.0847414388e+01 +3.3862745883e+00 +6.4724353768e+01 6.5714430601e+01 1.0566000000e-01 0.0000e+00 -1.0000e+00
       13  1    4    4    0    0 +1.7338334934e+00 -9.4910806175e+00 +3.6020355495e+00 1.0299155985e+01 1.0566000000e-01 0.0000e+00 1.0000e+00
      -13  1    4    4    0    0 +7.0027412797e-01 +2.9175298021e+00 +6.9661891345e+00 7.5855994551e+00 1.0566000000e-01 0.0000e+00 -1.0000e+00
      -14  1    4    4    0    0 -1.3281522010e+01 +3.1872762271e+00 -5.2550038811e+00 1.4634637762e+01 0.0000000000e+00 0.0000e+00 1.0000e+00
<mgrwt>
<rscale>  0 0.68881219E+02</rscale>
<asrwt>0</asrwt>
<pdfrwt beam="1">  1        1 0.12943954E-01 0.68881219E+02</pdfrwt>
<pdfrwt beam="2">  1       -2 0.21689422E-02 0.68881219E+02</pdfrwt>
<totfact> 0.21356921E+05</totfact>
</mgrwt>
</event>
<event>
 8      1 +5.0320763e-08 7.97427600e+01 7.81860800e-03 1.32978300e-01
       -1 -1    0    0    0  501 -0.0000000000e+00 +0.0000000000e+00 +4.5940732428e+00 4.5940760074e+00 5.0400000000e-03 0.0000e+00 1.0000e+00
        2 -1    0    0  501    0 +0.0000000000e+00 -0.0000000000e+00 -3.4603851174e+02 3.4603851175e+02 2.5500000000e-03 0.0000e+00 -1.0000e+00
       24  2    1    2    0    0 +0.0000000000e+00 -3.5527136788e-15 -3.4144443850e+02 3.5063258776e+02 7.9742755259e+01 0.0000e+00 0.0000e+00
       66  2    3    3    0    0 +2.7288830756e+01 -7.3002585901e+00 -2.7987514564e+02 2.8289217850e+02 2.9998557448e+01 0.0000e+00 0.0000e+00
      -13  1    3    3    0    0 -2.7288830756e+01 +7.3002585901e+00 -6.1569292852e+01 6.7740409253e+01 1.0566000000e-01 0.0000e+00 1.0000e+00
       13  1    4    4    0    0 -8.7438032358e-01 +3.3310117357e+00 -4.2684225681e+01 4.2823059981e+01 1.0566000000e-01 0.0000e+00 -1.0000e+00
      -13  1    4    4    0    0 +1.7073988557e+01 -1.6227504792e+01 -1.2566850967e+02 1.2785710181e+02 1.0566000000e-01 0.0000e+00 1.0000e+00
      -14  1    4    4    0    0 +1.1089222522e+01 +5.5962344665e+00 -1.1152241029e+02 1.1221201671e+02 0.0000000000e+00 0.0000e+00 1.0000e+00
<mgrwt>
<rscale>  0 0.79742755E+02</rscale>
<asrwt>0</asrwt>
<pdfrwt beam="1">  1        2 0.53236673E-01 0.79742755E+02</pdfrwt>
<pdfrwt beam="2">  1       -1 0.70678099E-03 0.79742755E+02</pdfrwt>
<totfact> 0.27067318E+05</totfact>
</mgrwt>
</event>
<event>
 8      1 +5.0320763e-08 8.06740900e+01 7.81860800e-03 1.32714900e-01
       -1 -1    0    0    0  501 -0.0000000000e+00 +0.0000000000e+00 +3.5262630538e+02 3.5262630541e+02 5.0400000000e-03 0.0000e+00 1.0000e+00
        2 -1    0    0  501    0 +0.0000000000e+00 -0.0000000000e+00 -4.6141680233e+00 4.6141687280e+00 2.5500000000e-03 0.0000e+00 -1.0000e+00
       24  2    1    2    0    0 +0.0000000000e+00 +0.0000000000e+00 +3.4801213735e+02 3.5724047414e+02 8.0674088895e+01 0.0000e+00 0.0000e+00
       66  2    3    3    0    0 -2.8624086482e+01 -1.9718050887e+01 +1.9890750354e+02 2.0413808080e+02 3.0000353513e+01 0.0000e+00 0.0000e+00
      -13  1    3    3    0    0 +2.8624086482e+01 +1.9718050887e+01 +1.4910463381e+02 1.5310239334e+02 1.0566000000e-01 0.0000e+00 1.0000e+00
       13  1    4    4    0    0 -1.6185091070e+01 -1.0866218515e+01 +1.0109583397e+02 1.0295829587e+02 1.0566000000e-01 0.0000e+00 -1.0000e+00
      -13  1    4    4    0    0 -9.0920473715e+00 -1.3944380131e+01 +4.4340031096e+01 4.7362016261e+01 1.0566000000e-01 0.0000e+00 1.0000e+00
      -14  1    4    4    0    0 -3.3469480399e+00 +5.0925477589e+00 +5.3471638473e+01 5.3817768672e+01 0.0000000000e+00 0.0000e+00 1.0000e+00
<mgrwt>
<rscale>  0 0.80674089E+02</rscale>
<asrwt>0</asrwt>
<pdfrwt beam="1">  1        2 0.70987204E-03 0.80674089E+02</pdfrwt>
<pdfrwt beam="2">  1       -1 0.54250203E-01 0.80674089E+02</pdfrwt>
<totfact> 0.78879055E+04</totfact>
</mgrwt>
</event>
<event>
 8      1 +5.0320763e-08 7.92917300e+01 7.81860800e-03 1.33107300e-01
       -1 -1    0    0    0  501 -0.0000000000e+00 +0.0000000000e+00 +4.2759946280e+00 4.2759975983e+00 5.0400000000e-03 0.0000e+00 1.0000e+00
        2 -1    0    0  501    0 +0.0000000000e+00 -0.0000000000e+00 -3.6758562286e+02 3.6758562287e+02 2.5500000000e-03 0.0000e+00 -1.0000e+00
       24  2    1    2    0    0 -4.4408920985e-16 +0.0000000000e+00 -3.6330962824e+02 3.7186162047e+02 7.9291732296e+01 0.0000e+00 0.0000e+00
       66  2    3    3    0    0 -2.8311769020e+00 -1.3953601342e+01 -3.5230462888e+02 3.5386607303e+02 2.9998792532e+01 0.0000e+00 0.0000e+00
      -13  1    3    3    0    0 +2.8311769020e+00 +1.3953601342e+01 -1.1004999354e+01 1.7995547446e+01 1.0566000000e-01 0.0000e+00 1.0000e+00
       13  1    4    4    0    0 -4.1385341616e+00 +4.1760019962e+00 -3.1735575443e+01 3.2275755149e+01 1.0566000000e-01 0.0000e+00 1.0000e+00
      -13  1    4    4    0    0 +6.7531116512e+00 -3.6475213355e+00 -1.8168922272e+02 1.8185129569e+02 1.0566000000e-01 0.0000e+00 -1.0000e+00
      -14  1    4    4    0    0 -5.4457543916e+00 -1.4482082003e+01 -1.3887983072e+02 1.3973902218e+02 0.0000000000e+00 0.0000e+00 1.0000e+00
<mgrwt>
<rscale>  0 0.79291732E+02</rscale>
<asrwt>0</asrwt>
<pdfrwt beam="1">  1        2 0.56551609E-01 0.79291732E+02</pdfrwt>
<pdfrwt beam="2">  1       -1 0.65784585E-03 0.79291732E+02</pdfrwt>
<totfact> 0.28068471E+05</totfact>
</mgrwt>
</event>
<event>
 8      1 +5.0320763e-08 8.15753700e+01 7.81860800e-03 1.32463900e-01
       -1 -1    0    0    0  501 -0.0000000000e+00 +0.0000000000e+00 +2.4951544872e+00 2.4951595774e+00 5.0400000000e-03 0.0000e+00 1.0000e+00
        2 -1    0    0  501    0 +0.0000000000e+00 -0.0000000000e+00 -6.6674563563e+02 6.6674563564e+02 2.5500000000e-03 0.0000e+00 -1.0000e+00
       24  2    1    2    0    0 +0.0000000000e+00 +3.5527136788e-15 -6.6425048115e+02 6.6924079522e+02 8.1575365632e+01 0.0000e+00 0.0000e+00
       66  2    3    3    0    0 -9.9241593225e+00 +2.1619559092e+01 -5.9068769551e+02 5.9192722029e+02 2.9999770275e+01 0.0000e+00 0.0000e+00
      -13  1    3    3    0    0 +9.9241593225e+00 -2.1619559092e+01 -7.3562785635e+01 7.7313574927e+01 1.0566000000e-01 0.0000e+00 1.0000e+00
       13  1    4    4    0    0 -9.8638764509e+00 +2.1595529856e+01 -3.7880972478e+02 3.7955300252e+02 1.0566000000e-01 0.0000e+00 -1.0000e+00
      -13  1    4    4    0    0 +3.0469715426e+00 +2.5222064641e-02 -2.0191335944e+02 2.0193637750e+02 1.0566000000e-01 0.0000e+00 1.0000e+00
       14  1    4    4    0    0 -3.1072544141e+00 -1.1928285695e-03 -9.9646112895e+00 1.0437840273e+01 0.0000000000e+00 0.0000e+00 -1.0000e+00
<mgrwt>
<rscale>  0 0.81575366E+02</rscale>
<asrwt>0</asrwt>
<pdfrwt beam="1">  1        2 0.10257611E+00 0.81575366E+02</pdfrwt>
<pdfrwt beam="2">  1       -1 0.38387085E-03 0.81575366E+02</pdfrwt>
<totfact> 0.31430652E+05</totfact>
</mgrwt>
</event>
<event>
 8      1 +5.0320763e-08 7.99832300e+01 7.81860800e-03 1.32909900e-01
       -2 -1    0    0    0  501 -0.0000000000e+00 +0.0000000000e+00 +1.5471844704e+02 1.5471844706e+02 2.5500000000e-03 0.0000e+00 1.0000e+00
        1 -1    0    0  501    0 +0.0000000000e+00 -0.0000000000e+00 -1.0337028442e+01 1.0337029671e+01 5.0400000000e-03 0.0000e+00 -1.0000e+00
      -24  2    1    2    0    0 +0.0000000000e+00 +0.0000000000e+00 +1.4438141860e+02 1.6505547673e+02 7.9983225509e+01 0.0000e+00 0.0000e+00
       66  2    3    3    0    0 +3.2383647866e+01 -1.1323633941e+01 +8.6508798177e+01 9.7778610774e+01 2.9999320461e+01 0.0000e+00 0.0000e+00
       13  1    3    3    0    0 -3.2383647866e+01 +1.1323633941e+01 +5.7872620422e+01 6.7276865959e+01 1.0566000000e-01 0.0000e+00 -1.0000e+00
       13  1    4    4    0    0 +5.8109079236e-01 +2.0239491185e+00 +3.2685889301e+01 3.2753817488e+01 1.0566000000e-01 0.0000e+00 -1.0000e+00
      -13  1    4    4    0    0 +1.9373118649e+01 -4.1085691336e+00 +2.1793708755e+01 2.9447834757e+01 1.0566000000e-01 0.0000e+00 1.0000e+00
       14  1    4    4    0    0 +1.2429438424e+01 -9.2390139254e+00 +3.2029200121e+01 3.5576958530e+01 0.0000000000e+00 0.0000e+00 -1.0000e+00
<mgrwt>
<rscale>  0 0.79983226E+02</rscale>
<asrwt>0</asrwt>
<pdfrwt beam="1">  1        1 0.15903122E-02 0.79983226E+02</pdfrwt>
<pdfrwt beam="2">  1       -2 0.23802837E-01 0.79983226E+02</pdfrwt>
<totfact> 0.93593227E+04</totfact>
</mgrwt>
</event>
<event>
 8      1 +5.0320763e-08 7.93838000e+01 7.81860800e-03 1.33080900e-01
       -1 -1    0    0    0  501 -0.0000000000e+00 +0.0000000000e+00 +1.0582184664e+00 1.0582304684e+00 5.0400000000e-03 0.0000e+00 1.0000e+00
        2 -1    0    0  501    0 +0.0000000000e+00 -0.0000000000e+00 -1.4887645397e+03 1.4887645397e+03 2.5500000000e-03 0.0000e+00 -1.0000e+00
       24  2    1    2    0    0 +3.5527136788e-15 -2.8865798640e-15 -1.4877063212e+03 1.4898227702e+03 7.9383803640e+01 0.0000e+00 0.0000e+00
       66  2    3    3    0    0 -1.3324355925e+01 +1.2096853549e+00 -1.4371711623e+03 1.4375464347e+03 2.9996671841e+01 0.0000e+00 0.0000e+00
      -13  1    3    3    0    0 +1.3324355925e+01 -1.2096853549e+00 -5.0535158895e+01 5.2276335450e+01 1.0566000000e-01 0.0000e+00 1.0000e+00
       13  1    4    4    0    0 -7.6206266669e+00 -9.8670740182e-01 -7.4568527689e+02 7.4572487613e+02 1.0566000000e-01 0.0000e+00 -1.0000e+00
      -13  1    4    4    0    0 +2.6176464552e+00 -7.4469932369e+00 -3.6861565069e+02 3.6870017477e+02 1.0566000000e-01 0.0000e+00 1.0000e+00
      -14  1    4    4    0    0 -8.3213757134e+00 +9.6433859936e+00 -3.2287023475e+02 3.2312138381e+02 0.0000000000e+00 0.0000e+00 1.0000e+00
<mgrwt>
<rscale>  0 0.79383804E+02</rscale>
<asrwt>0</asrwt>
<pdfrwt beam="1">  1        2 0.22903902E+00 0.79383804E+02</pdfrwt>
<pdfrwt beam="2">  1       -1 0.16280496E-03 0.79383804E+02</pdfrwt>
<totfact> 0.34021202E+05</totfact>
</mgrwt>
</event>
<event>
 8      1 +5.0320763e-08 8.05708800e+01 7.81860800e-03 1.32743900e-01
       -1 -1    0    0    0  501 -0.0000000000e+00 +0.0000000000e+00 +5.6861940053e+00 5.6861962389e+00 5.0400000000e-03 0.0000e+00 1.0000e+00
        2 -1    0    0  501    0 +0.0000000000e+00 -0.0000000000e+00 -2.8541343416e+02 2.8541343417e+02 2.5500000000e-03 0.0000e+00 -1.0000e+00
       24  2    1    2    0    0 +0.0000000000e+00 +0.0000000000e+00 -2.7972724015e+02 2.9109963041e+02 8.0570875262e+01 0.0000e+00 0.0000e+00
       66  2    3    3    0    0 -1.6948791931e+01 -2.9278704267e+01 -1.8716138650e+02 1.9254531798e+02 2.9996846642e+01 0.0000e+00 0.0000e+00
      -13  1    3    3    0    0 +1.6948791931e+01 +2.9278704267e+01 -9.2565853656e+01 9.8554312430e+01 1.0566000000e-01 0.0000e+00 1.0000e+00
       13  1    4    4    0    0 -8.3640146494e-01 +3.2961940746e+00 -5.1719827442e+01 5.1831613687e+01 1.0566000000e-01 0.0000e+00 -1.0000e+00
      -13  1    4    4    0    0 -2.1978883513e+00 -2.8248459772e+00 -3.1595607805e+01 3.1797862579e+01 1.0566000000e-01 0.0000e+00 1.0000e+00
      -14  1    4    4    0    0 -1.3914502115e+01 -2.9750052364e+01 -1.0384595125e+02 1.0891584171e+02 0.0000000000e+00 0.0000e+00 1.0000e+00
<mgrwt>
<rscale>  0 0.80570875E+02</rscale>
<asrwt>0</asrwt>
<pdfrwt beam="1">  1        2 0.43909748E-01 0.80570875E+02</pdfrwt>
<pdfrwt beam="2">  1       -1 0.87479947E-03 0.80570875E+02</pdfrwt>
<totfact> 0.24575362E+05</totfact>
</mgrwt>
</event>
<event>
 8      1 +5.0320763e-08 7.96162300e+01 7.81860800e-03 1.33014400e-01
       -1 -1    0    0    0  501 -0.0000000000e+00 +0.0000000000e+00 +2.1439737167e+00 2.1439796406e+00 5.0400000000e-03 0.0000e+00 1.0000e+00
        2 -1    0    0  501    0 +0.0000000000e+00 -0.0000000000e+00 -7.3913388888e+02 7.3913388889e+02 2.5500000000e-03 0.0000e+00 -1.0000e+00
       24  2    1    2    0    0 +0.0000000000e+00 +1.7763568394e-15 -7.3698991516e+02 7.4127786853e+02 7.9616225184e+01 0.0000e+00 0.0000e+00
       66  2    3    3    0    0 -1.5168133546e+01 -1.1942395634e+01 -6.8315804137e+02 6.8408892826e+02 3.0000986447e+01 0.0000e+00 0.0000e+00
      -13  1    3    3    0    0 +1.5168133546e+01 +1.1942395634e+01 -5.3831873792e+01 5.7188940266e+01 1.0566000000e-01 0.0000e+00 1.0000e+00
       13  1    4    4    0    0 -1.2973477365e+01 -1.0396095006e+01 -2.9713385258e+02 2.9759860117e+02 1.0566000000e-01 0.0000e+00 -1.0000e+00
      -13  1    4    4    0    0 +5.4052402674e+00 -6.7996912078e+00 -2.5108514417e+02 2.5123537413e+02 1.0566000000e-01 0.0000e+00 1.0000e+00
       14  1    4    4    0    0 -7.5998964479e+00 +5.2533905801e+00 -1.3493904462e+02 1.3525495296e+02 0.0000000000e+00 0.0000e+00 -1.0000e+00
<mgrwt>
<rscale>  0 0.79616225E+02</rscale>
<asrwt>0</asrwt>
<pdfrwt beam="1">  1        2 0.11371270E+00 0.79616225E+02</pdfrwt>
<pdfrwt beam="2">  1       -1 0.32984315E-03 0.79616225E+02</pdfrwt>
<totfact> 0.34277097E+05</totfact>
</mgrwt>
</event>
<event>
 8      1 +5.0320763e-08 7.48397200e+01 7.81860800e-03 1.34436800e-01
        2 -1    0    0  501    0 +0.0000000000e+00 +0.0000000000e+00 +3.8284144753e+02 3.8284144754e+02 2.5500000000e-03 0.0000e+00 -1.0000e+00
       -1 -1    0    0    0  501 -0.0000000000e+00 -0.0000000000e+00 -3.6575070369e+00 3.6575105094e+00 5.0400000000e-03 0.0000e+00 1.0000e+00
       24  2    1    2    0    0 +0.0000000000e+00 +0.0000000000e+00 +3.7918394049e+02 3.8649895804e+02 7.4839721032e+01 0.0000e+00 0.0000e+00
       66  2    3    3    0    0 +2.0001248242e+01 +5.7005336548e+00 +3.4159432197e+02 3.4353924902e+02 2.9999813300e+01 0.0000e+00 0.0000e+00
      -13  1    3    3    0    0 -2.0001248242e+01 -5.7005336548e+00 +3.7589618517e+01 4.2959709025e+01 1.0566000000e-01 0.0000e+00 1.0000e+00
       13  1    4    4    0    0 -1.3875974895e+00 +1.5914027020e+00 +1.1621285468e+02 1.1623208139e+02 1.0566000000e-01 0.0000e+00 -1.0000e+00
      -13  1    4    4    0    0 +2.3784651022e+01 +6.2841176076e+00 +2.1571987473e+02 2.1711811366e+02 1.0566000000e-01 0.0000e+00 1.0000e+00
      -14  1    4    4    0    0 -2.3958052905e+00 -2.1749866548e+00 +9.6615925631e+00 1.0189053970e+01 0.0000000000e+00 0.0000e+00 1.0000e+00
<mgrwt>
<rscale>  0 0.74839721E+02</rscale>
<asrwt>0</asrwt>
<pdfrwt beam="1">  1        2 0.58898691E-01 0.74839721E+02</pdfrwt>
<pdfrwt beam="2">  1       -1 0.56269359E-03 0.74839721E+02</pdfrwt>
<totfact> 0.33098132E+05</totfact>
</mgrwt>
</event>
<event>
 8      1 +5.0320763e-08 7.99744600e+01 7.81860800e-03 1.32912400e-01
       -2 -1    0    0    0  501 -0.0000000000e+00 +0.0000000000e+00 +5.4245722857e+01 5.4245722917e+01 2.5500000000e-03 0.0000e+00 1.0000e+00
        1 -1    0    0  501    0 +0.0000000000e+00 -0.0000000000e+00 -2.9476583686e+01 2.9476584117e+01 5.0400000000e-03 0.0000e+00 -1.0000e+00
      -24  2    1    2    0    0 +0.0000000000e+00 +0.0000000000e+00 +2.4769139170e+01 8.3722307034e+01 7.9974461173e+01 0.0000e+00 0.0000e+00
       66  2    3    3    0    0 -1.2929703720e+01 +2.4072650234e+01 +3.5935458556e+01 5.4203371074e+01 2.9999642107e+01 0.0000e+00 0.0000e+00
       13  1    3    3    0    0 +1.2929703720e+01 -2.4072650234e+01 -1.1166319386e+01 2.9518935960e+01 1.0566000000e-01 0.0000e+00 -1.0000e+00
       13  1    4    4    0    0 -5.7271382723e-01 -2.1222532844e+00 -7.2831389056e-01 2.3180951856e+00 1.0566000000e-01 0.0000e+00 -1.0000e+00
      -13  1    4    4    0    0 -2.3496816869e+00 +2.6552691600e+01 +2.5517473835e+01 3.6901477886e+01 1.0566000000e-01 0.0000e+00 1.0000e+00
      -14  1    4    4    0    0 -1.0007308205e+01 -3.5778808142e-01 +1.1146298612e+01 1.4983798002e+01 0.0000000000e+00 0.0000e+00 1.0000e+00
<mgrwt>
<rscale>  0 0.79974461E+02</rscale>
<asrwt>0</asrwt>
<pdfrwt beam="1">  1        1 0.45348590E-02 0.79974461E+02</pdfrwt>
<pdfrwt beam="2">  1       -2 0.83454959E-02 0.79974461E+02</pdfrwt>
<totfact> 0.12068124E+05</totfact>
</mgrwt>
</event>
<event>
 8      1 +5.0320763e-08 7.99898100e+01 7.81860800e-03 1.32908000e-01
       -1 -1    0    0    0  501 -0.0000000000e+00 +0.0000000000e+00 +2.3727456046e+02 2.3727456051e+02 5.0400000000e-03 0.0000e+00 1.0000e+00
        2 -1    0    0  501    0 +0.0000000000e+00 -0.0000000000e+00 -6.7415248561e+00 6.7415253384e+00 2.5500000000e-03 0.0000e+00 -1.0000e+00
       24  2    1    2    0    0 +0.0000000000e+00 +0.0000000000e+00 +2.3053303560e+02 2.4401608585e+02 7.9989809661e+01 0.0000e+00 0.0000e+00
       66  2    3    3    0    0 -3.2276542895e+01 -6.1550399648e+00 +1.0072660569e+02 1.1011545049e+02 2.9998393381e+01 0.0000e+00 0.0000e+00
      -13  1    3    3    0    0 +3.2276542895e+01 +6.1550399648e+00 +1.2980642991e+02 1.3390063536e+02 1.0566000000e-01 0.0000e+00 1.0000e+00
       13  1    4    4    0    0 -4.6677750595e+00 -6.4546092352e+00 +7.9182957583e+00 1.1232126964e+01 1.0566000000e-01 0.0000e+00 -1.0000e+00
      -13  1    4    4    0    0 -1.7528381579e+01 -7.0429313863e+00 +7.3569355856e+01 7.5955963087e+01 1.0566000000e-01 0.0000e+00 1.0000e+00
       14  1    4    4    0    0 -1.0080386257e+01 +7.3425006567e+00 +1.9238954076e+01 2.2927360444e+01 0.0000000000e+00 0.0000e+00 -1.0000e+00
<mgrwt>
<rscale>  0 0.79989810E+02</rscale>
<asrwt>0</asrwt>
<pdfrwt beam="1">  1        2 0.10371579E-02 0.79989810E+02</pdfrwt>
<pdfrwt beam="2">  1       -1 0.36503773E-01 0.79989810E+02</pdfrwt>
<totfact> 0.94326907E+04</totfact>
</mgrwt>
</event>
<event>
 8      1 +5.0320763e-08 7.81042800e+01 7.81860800e-03 1.33451900e-01
       -1 -1    0    0    0  501 -0.0000000000e+00 +0.0000000000e+00 +4.5418620246e+00 4.5418648210e+00 5.0400000000e-03 0.0000e+00 1.0000e+00
        2 -1    0    0  501    0 +0.0000000000e+00 -0.0000000000e+00 -3.3578055820e+02 3.3578055821e+02 2.5500000000e-03 0.0000e+00 -1.0000e+00
       24  2    1    2    0    0 -1.7763568394e-15 -7.1054273576e-15 -3.3123869618e+02 3.4032242303e+02 7.8104275002e+01 0.0000e+00 0.0000e+00
       66  2    3    3    0    0 -1.5311371780e+01 -2.7543739076e+01 -2.3681403215e+02 2.4077784002e+02 2.9999779159e+01 0.0000e+00 0.0000e+00
      -13  1    3    3    0    0 +1.5311371780e+01 +2.7543739076e+01 -9.4424664026e+01 9.9544583020e+01 1.0566000000e-01 0.0000e+00 1.0000e+00
       13  1    4    4    0    0 -8.8866899519e+00 -2.5918202724e+01 -1.4088358369e+02 1.4352324483e+02 1.0566000000e-01 0.0000e+00 -1.0000e+00
      -13  1    4    4    0    0 -1.0694888197e+01 +1.0856713527e+00 -5.7939689333e+01 5.8928584574e+01 1.0566000000e-01 0.0000e+00 1.0000e+00
      -14  1    4    4    0    0 +4.2702063693e+00 -2.7112077042e+00 -3.7990759135e+01 3.8326010611e+01 0.0000000000e+00 0.0000e+00 1.0000e+00
<mgrwt>
<rscale>  0 0.78104275E+02</rscale>
<asrwt>0</asrwt>
<pdfrwt beam="1">  1        2 0.51658528E-01 0.78104275E+02</pdfrwt>
<pdfrwt beam="2">  1       -1 0.69874849E-03 0.78104275E+02</pdfrwt>
<totfact> 0.28270628E+05</totfact>
</mgrwt>
</event>
<event>
 8      1 +5.0320763e-08 7.76267100e+01 7.81860800e-03 1.33592500e-01
        3 -1    0    0  501    0 +0.0000000000e+00 +0.0000000000e+00 +4.8454655637e+01 4.8454760900e+01 1.0100000000e-01 0.0000e+00 -1.0000e+00
       -4 -1    0    0    0  501 -0.0000000000e+00 -0.0000000000e+00 -3.1069060727e+01 3.1095006584e+01 1.2700000000e+00 0.0000e+00 1.0000e+00
      -24  2    1    2    0    0 +3.5527136788e-15 -3.5527136788e-15 +1.7385594910e+01 7.9549767484e+01 7.7626713163e+01 0.0000e+00 0.0000e+00
       66  2    3    3    0    0 -2.2575233715e+01 +2.1265106757e+01 -1.6143093532e+00 4.3178714864e+01 2.9999157988e+01 0.0000e+00 0.0000e+00
       13  1    3    3    0    0 +2.2575233715e+01 -2.1265106757e+01 +1.8999904263e+01 3.6371052620e+01 1.0566000000e-01 0.0000e+00 -1.0000e+00
       13  1    4    4    0    0 -8.6490643412e-01 +1.4868964231e+01 +1.2492207914e+00 1.4946768115e+01 1.0566000000e-01 0.0000e+00 -1.0000e+00
      -13  1    4    4    0    0 -7.3770039358e+00 +4.5402052315e+00 +6.6568401548e+00 1.0925124049e+01 1.0566000000e-01 0.0000e+00 1.0000e+00
      -14  1    4    4    0    0 -1.4333323345e+01 +1.8559372941e+00 -9.5203702994e+00 1.7306822700e+01 0.0000000000e+00 0.0000e+00 1.0000e+00
<mgrwt>
<rscale>  0 0.77626713E+02</rscale>
<asrwt>0</asrwt>
<pdfrwt beam="1">  1        3 0.74545836E-02 0.77626713E+02</pdfrwt>
<pdfrwt beam="2">  1       -4 0.47831313E-02 0.77626713E+02</pdfrwt>
<totfact> 0.49264114E+04</totfact>
</mgrwt>
</event>
<event>
 8      1 +5.0320763e-08 8.09523200e+01 7.81860800e-03 1.32637000e-01
       -2 -1    0    0    0  501 -0.0000000000e+00 +0.0000000000e+00 +5.6383118126e+01 5.6383118184e+01 2.5500000000e-03 0.0000e+00 1.0000e+00
        1 -1    0    0  501    0 +0.0000000000e+00 -0.0000000000e+00 -2.9056916855e+01 2.9056917292e+01 5.0400000000e-03 0.0000e+00 -1.0000e+00
      -24  2    1    2    0    0 -8.8817841970e-16 +7.1054273576e-15 +2.7326201271e+01 8.5440035476e+01 8.0952321685e+01 0.0000e+00 0.0000e+00
       66  2    3    3    0    0 -5.5479627562e+00 +3.3853558126e+01 +2.2410849692e+01 5.0784370229e+01 2.9999379779e+01 0.0000e+00 0.0000e+00
       13  1    3    3    0    0 +5.5479627562e+00 -3.3853558126e+01 +4.9153515789e+00 3.4655665247e+01 1.0566000000e-01 0.0000e+00 -1.0000e+00
       13  1    4    4    0    0 +7.3956848184e-01 +3.3803702108e+01 +2.6108656848e+01 4.2718969606e+01 1.0566000000e-01 0.0000e+00 -1.0000e+00
      -13  1    4    4    0    0 -2.6827492566e+00 +1.5711212404e+00 -8.4591979127e-01 3.2237105724e+00 1.0566000000e-01 0.0000e+00 1.0000e+00
       14  1    4    4    0    0 -3.6047819815e+00 -1.5212652228e+00 -2.8518873643e+00 4.8416900511e+00 0.0000000000e+00 0.0000e+00 -1.0000e+00
<mgrwt>
<rscale>  0 0.80952322E+02</rscale>
<asrwt>0</asrwt>
<pdfrwt beam="1">  1        1 0.44702950E-02 0.80952322E+02</pdfrwt>
<pdfrwt beam="2">  1       -2 0.86743258E-02 0.80952322E+02</pdfrwt>
<totfact> 0.11622514E+05</totfact>
</mgrwt>
</event>
<event>
 8      1 +5.0320763e-08 7.88280700e+01 7.81860800e-03 1.33241000e-01
        4 -1    0    0  501    0 +0.0000000000e+00 +0.0000000000e+00 +6.3296901361e+01 6.3309640829e+01 1.2700000000e+00 0.0000e+00 -1.0000e+00
       -3 -1    0    0    0  501 -0.0000000000e+00 -0.0000000000e+00 -2.4533545913e+01 2.4533753812e+01 1.0100000000e-01 0.0000e+00 1.0000e+00
       24  2    1    2    0    0 +0.0000000000e+00 -8.8817841970e-16 +3.8763355448e+01 8.7843394641e+01 7.8828067694e+01 0.0000e+00 0.0000e+00
       66  2    3    3    0    0 +1.3886738058e+01 -7.9177060567e+00 +5.5255856511e+01 6.4875039922e+01 3.0000492713e+01 0.0000e+00 0.0000e+00
      -13  1    3    3    0    0 -1.3886738058e+01 +7.9177060567e+00 -1.6492501064e+01 2.2968354718e+01 1.0566000000e-01 0.0000e+00 1.0000e+00
       13  1    4    4    0    0 +1.6437451265e+01 -8.6299659615e+00 +4.4105892152e+01 4.7854017628e+01 1.0566000000e-01 0.0000e+00 -1.0000e+00
      -13  1    4    4    0    0 +2.4467901767e+00 +3.9474716247e+00 +9.9031197212e+00 1.0938567486e+01 1.0566000000e-01 0.0000e+00 1.0000e+00
      -14  1    4    4    0    0 -4.9975033839e+00 -3.2352117199e+00 +1.2468446382e+00 6.0824548084e+00 0.0000000000e+00 0.0000e+00 1.0000e+00
<mgrwt>
<rscale>  0 0.78828068E+02</rscale>
<asrwt>0</asrwt>
<pdfrwt beam="1">  1        4 0.97414934E-02 0.78828068E+02</pdfrwt>
<pdfrwt beam="2">  1       -3 0.37744139E-02 0.78828068E+02</pdfrwt>
<totfact> 0.45456499E+04</totfact>
</mgrwt>
</event>
<event>
 8      1 +5.0320763e-08 8.01805200e+01 7.81860800e-03 1.32854000e-01
        4 -1    0    0  501    0 +0.0000000000e+00 +0.0000000000e+00 +3.7004859169e+01 3.7026645840e+01 1.2700000000e+00 0.0000e+00 -1.0000e+00
       -3 -1    0    0    0  501 -0.0000000000e+00 -0.0000000000e+00 -4.3409118514e+01 4.3409236013e+01 1.0100000000e-01 0.0000e+00 1.0000e+00
       24  2    1    2    0    0 -8.8817841970e-16 +7.1054273576e-15 -6.4042593453e+00 8.0435881852e+01 8.0180524765e+01 0.0000e+00 0.0000e+00
       66  2    3    3    0    0 +5.0020050774e+00 -3.3477063596e+01 +2.9275937059e+00 4.5324224426e+01 2.9999677883e+01 0.0000e+00 0.0000e+00
      -13  1    3    3    0    0 -5.0020050774e+00 +3.3477063596e+01 -9.3318530512e+00 3.5111657426e+01 1.0566000000e-01 0.0000e+00 1.0000e+00
       13  1    4    4    0    0 -2.5351267387e+00 +3.0209966488e+00 +5.3240535991e-01 3.9809430838e+00 1.0566000000e-01 0.0000e+00 -1.0000e+00
      -13  1    4    4    0    0 +1.1184251279e-01 -5.8534059464e+00 +7.3795036827e+00 9.4203560739e+00 1.0566000000e-01 0.0000e+00 1.0000e+00
       14  1    4    4    0    0 +7.4252893033e+00 -3.0644654298e+01 -4.9843153367e+00 3.1922925268e+01 0.0000000000e+00 0.0000e+00 -1.0000e+00
<mgrwt>
<rscale>  0 0.80180525E+02</rscale>
<asrwt>0</asrwt>
<pdfrwt beam="1">  1        4 0.56961602E-02 0.80180525E+02</pdfrwt>
<pdfrwt beam="2">  1       -3 0.66783456E-02 0.80180525E+02</pdfrwt>
<totfact> 0.44910934E+04</totfact>
</mgrwt>
</event>
<event>
 8      1 +5.0320763e-08 8.06661400e+01 7.81860800e-03 1.32717200e-01
       -4 -1    0    0    0  501 -0.0000000000e+00 +0.0000000000e+00 +3.6662249002e+02 3.6662468969e+02 1.2700000000e+00 0.0000e+00 1.0000e+00
        3 -1    0    0  501    0 +0.0000000000e+00 -0.0000000000e+00 -4.4354485796e+00 4.4365983706e+00 1.0100000000e-01 0.0000e+00 -1.0000e+00
      -24  2    1    2    0    0 +1.7763568394e-15 +0.0000000000e+00 +3.6218704144e+02 3.7106128806e+02 8.0666142265e+01 0.0000e+00 0.0000e+00
       66  2    3    3    0    0 -5.4137284782e+00 +1.6260154213e+01 +3.4522007522e+02 3.4694510723e+02 3.0005099983e+01 0.0000e+00 0.0000e+00
       13  1    3    3    0    0 +5.4137284782e+00 -1.6260154213e+01 +1.6966966227e+01 2.4116180834e+01 1.0566000000e-01 0.0000e+00 -1.0000e+00
       13  1    4    4    0    0 -8.5563423989e+00 +1.1763871379e+01 +8.2636767378e+01 8.3907366493e+01 1.0566000000e-01 0.0000e+00 -1.0000e+00
      -13  1    4    4    0    0 -1.1617259892e+00 -1.2503498547e+00 +3.9435106749e+00 4.2983046090e+00 1.0566000000e-01 0.0000e+00 1.0000e+00
      -14  1    4    4    0    0 +4.3043399098e+00 +5.7466326885e+00 +2.5863979716e+02 2.5873943612e+02 0.0000000000e+00 0.0000e+00 1.0000e+00
<mgrwt>
<rscale>  0 0.80666142E+02</rscale>
<asrwt>0</asrwt>
<pdfrwt beam="1">  1        3 0.68246635E-03 0.80666142E+02</pdfrwt>
<pdfrwt beam="2">  1       -4 0.56417603E-01 0.80666142E+02</pdfrwt>
<totfact> 0.23982470E+04</totfact>
</mgrwt>
</event>
<event>
 8      1 +5.0320763e-08 8.16096300e+01 7.81860800e-03 1.32454500e-01
       -2 -1    0    0    0  501 -0.0000000000e+00 +0.0000000000e+00 +4.8010212782e+01 4.8010212850e+01 2.5500000000e-03 0.0000e+00 1.0000e+00
        1 -1    0    0  501    0 +0.0000000000e+00 -0.0000000000e+00 -3.4680803916e+01 3.4680804282e+01 5.0400000000e-03 0.0000e+00 -1.0000e+00
      -24  2    1    2    0    0 -8.8817841970e-16 +3.5527136788e-15 +1.3329408866e+01 8.2691017132e+01 8.1609626721e+01 0.0000e+00 0.0000e+00
       66  2    3    3    0    0 -1.3593450634e+00 +1.9445135092e+01 +3.7373732814e+01 5.1737797980e+01 3.0000712285e+01 0.0000e+00 0.0000e+00
       13  1    3    3    0    0 +1.3593450634e+00 -1.9445135092e+01 -2.4044323948e+01 3.0953219152e+01 1.0566000000e-01 0.0000e+00 -1.0000e+00
       13  1    4    4    0    0 +4.2537636054e-01 +1.3566587372e+00 +6.4334204269e+00 6.5895015291e+00 1.0566000000e-01 0.0000e+00 -1.0000e+00
      -13  1    4    4    0    0 -8.0536429073e+00 -4.3510782817e+00 +5.6303863582e+00 1.0747346690e+01 1.0566000000e-01 0.0000e+00 1.0000e+00
      -14  1    4    4    0    0 +6.2689214834e+00 +2.2439554637e+01 +2.5309926029e+01 3.4400949761e+01 0.0000000000e+00 0.0000e+00 1.0000e+00
<mgrwt>
<rscale>  0 0.81609627E+02</rscale>
<asrwt>0</asrwt>
<pdfrwt beam="1">  1        1 0.53355084E-02 0.81609627E+02</pdfrwt>
<pdfrwt beam="2">  1       -2 0.73861866E-02 0.81609627E+02</pdfrwt>
<totfact> 0.11716922E+05</totfact>
</mgrwt>
</event>
<event>
 8      1 +5.0320763e-08 8.02479500e+01 7.81860800e-03 1.32834900e-01
        1 -1    0    0  501    0 +0.0000000000e+00 +0.0000000000e+00 +1.5978967690e+02 1.5978967698e+02 5.0400000000e-03 0.0000e+00 -1.0000e+00
       -2 -1    0    0    0  501 -0.0000000000e+00 -0.0000000000e+00 -1.0075328026e+01 1.0075328349e+01 2.5500000000e-03 0.0000e+00 1.0000e+00
      -24  2    1    2    0    0 -3.5527136788e-15 +0.0000000000e+00 +1.4971434887e+02 1.6986500533e+02 8.0247951851e+01 0.0000e+00 0.0000e+00
       66  2    3    3    0    0 +2.1332245774e+01 -2.5332046635e+01 +6.4733521692e+01 7.8659032667e+01 3.0000621543e+01 0.0000e+00 0.0000e+00
       13  1    3    3    0    0 -2.1332245774e+01 +2.5332046635e+01 +8.4980827180e+01 9.1205972659e+01 1.0566000000e-01 0.0000e+00 -1.0000e+00
       13  1    4    4    0    0 -9.4624958600e-01 -1.0997127626e+00 +3.5346647302e+00 3.8222735681e+00 1.0566000000e-01 0.0000e+00 -1.0000e+00
      -13  1    4    4    0    0 +1.9919550697e+01 -2.2621549104e+01 +2.6841529491e+01 4.0360895100e+01 1.0566000000e-01 0.0000e+00 1.0000e+00
      -14  1    4    4    0    0 +2.3589446630e+00 -1.6107847684e+00 +3.4357327471e+01 3.4475863999e+01 0.0000000000e+00 0.0000e+00 1.0000e+00
<mgrwt>
<rscale>  0 0.80247952E+02</rscale>
<asrwt>0</asrwt>
<pdfrwt beam="1">  1        1 0.24583024E-01 0.80247952E+02</pdfrwt>
<pdfrwt beam="2">  1       -2 0.15500507E-02 0.80247952E+02</pdfrwt>
<totfact> 0.15843493E+05</totfact>
</mgrwt>
</event>
<event>
 8      1 +5.0320763e-08 8.02698800e+01 7.81860800e-03 1.32828700e-01
       -1 -1    0    0    0  501 -0.0000000000e+00 +0.0000000000e+00 +4.4159909616e+00 4.4159938377e+00 5.0400000000e-03 0.0000e+00 1.0000e+00
        2 -1    0    0  501    0 +0.0000000000e+00 -0.0000000000e+00 -3.6476816852e+02 3.6476816852e+02 2.5500000000e-03 0.0000e+00 -1.0000e+00
       24  2    1    2    0    0 -8.8817841970e-16 +0.0000000000e+00 -3.6035217755e+02 3.6918416236e+02 8.0269881469e+01 0.0000e+00 0.0000e+00
       66  2    3    3    0    0 -6.0025459463e+00 +9.1166643696e+00 -3.5600678889e+02 3.5743521800e+02 2.9999286668e+01 0.0000e+00 0.0000e+00
      -13  1    3    3    0    0 +6.0025459463e+00 -9.1166643696e+00 -4.3453886646e+00 1.1748944367e+01 1.0566000000e-01 0.0000e+00 1.0000e+00
       13  1    4    4    0    0 -7.5926150314e+00 +1.1298250010e+00 -2.2698560641e+02 2.2711539135e+02 1.0566000000e-01 0.0000e+00 -1.0000e+00
      -13  1    4    4    0    0 -5.3485496780e+00 +8.7200160229e+00 -5.2940615924e+01 5.3919992967e+01 1.0566000000e-01 0.0000e+00 1.0000e+00
       14  1    4    4    0    0 +6.9386187631e+00 -7.3317665428e-01 -7.6080566560e+01 7.6399833680e+01 0.0000000000e+00 0.0000e+00 -1.0000e+00
<mgrwt>
<rscale>  0 0.80269881E+02</rscale>
<asrwt>0</asrwt>
<pdfrwt beam="1">  1        2 0.56118156E-01 0.80269881E+02</pdfrwt>
<pdfrwt beam="2">  1       -1 0.67938373E-03 0.80269881E+02</pdfrwt>
<totfact> 0.27109048E+05</totfact>
</mgrwt>
</event>
<event>
 8      1 +5.0320763e-08 7.64640400e+01 7.81860800e-03 1.33939600e-01
        2 -1    0    0  501    0 +0.0000000000e+00 +0.0000000000e+00 +7.6392000666e+02 7.6392000667e+02 2.5500000000e-03 0.0000e+00 -1.0000e+00
       -1 -1    0    0    0  501 -0.0000000000e+00 -0.0000000000e+00 -1.9134005172e+00 1.9134071550e+00 5.0400000000e-03 0.0000e+00 1.0000e+00
       24  2    1    2    0    0 +1.7763568394e-15 -3.5527136788e-15 +7.6200660614e+02 7.6583341382e+02 7.6464043293e+01 0.0000e+00 0.0000e+00
       66  2    3    3    0    0 -3.4371748711e+00 +2.0426409131e+01 +6.8848649525e+02 6.8945101905e+02 3.0000019422e+01 0.0000e+00 0.0000e+00
      -13  1    3    3    0    0 +3.4371748711e+00 -2.0426409131e+01 +7.3520110895e+01 7.6382394772e+01 1.0566000000e-01 0.0000e+00 1.0000e+00
       13  1    4    4    0    0 -1.2348409460e+01 +4.7675309150e+00 +1.5586985616e+02 1.5643092978e+02 1.0566000000e-01 0.0000e+00 1.0000e+00
      -13  1    4    4    0    0 +1.0151758804e+01 +1.0010060693e+01 +4.3390623543e+02 4.3414040566e+02 1.0566000000e-01 0.0000e+00 -1.0000e+00
      -14  1    4    4    0    0 -1.2405242148e+00 +5.6488175227e+00 +9.8710403661e+01 9.8879683609e+01 0.0000000000e+00 0.0000e+00 1.0000e+00
<mgrwt>
<rscale>  0 0.76464043E+02</rscale>
<asrwt>0</asrwt>
<pdfrwt beam="1">  1        2 0.11752636E+00 0.76464043E+02</pdfrwt>
<pdfrwt beam="2">  1       -1 0.29436930E-03 0.76464043E+02</pdfrwt>
<totfact> 0.38313102E+05</totfact>
</mgrwt>
</event>
<event>
 8      1 +5.0320763e-08 8.19960000e+01 7.81860800e-03 1.32348100e-01
       -3 -1    0    0    0  501 -0.0000000000e+00 +0.0000000000e+00 +8.6082625333e+00 8.6088550251e+00 1.0100000000e-01 0.0000e+00 1.0000e+00
        4 -1    0    0  501    0 +0.0000000000e+00 -0.0000000000e+00 -1.9520254298e+02 1.9520667428e+02 1.2700000000e+00 0.0000e+00 -1.0000e+00
       24  2    1    2    0    0 +4.4408920985e-16 +0.0000000000e+00 -1.8659428044e+02 2.0381552931e+02 8.1996002908e+01 0.0000e+00 0.0000e+00
       66  2    3    3    0    0 +3.9480866804e+00 -1.1458722599e+01 -1.8875311093e+02 1.9150450071e+02 2.9989117907e+01 0.0000e+00 0.0000e+00
      -13  1    3    3    0    0 -3.9480866804e+00 +1.1458722599e+01 +2.1588304896e+00 1.2311028599e+01 1.0566000000e-01 0.0000e+00 1.0000e+00
       13  1    4    4    0    0 +1.4227714203e+00 -4.5360299095e-01 -3.6880732280e+01 3.6911104180e+01 1.0566000000e-01 0.0000e+00 -1.0000e+00
      -13  1    4    4    0    0 +6.4243184824e+00 +6.6968418917e+00 -3.0679882666e+01 3.2052861397e+01 1.0566000000e-01 0.0000e+00 1.0000e+00
       14  1    4    4    0    0 -3.8990032223e+00 -1.7701961500e+01 -1.2119249599e+02 1.2254053513e+02 0.0000000000e+00 0.0000e+00 -1.0000e+00
<mgrwt>
<rscale>  0 0.81996003E+02</rscale>
<asrwt>0</asrwt>
<pdfrwt beam="1">  1        4 0.30038679E-01 0.81996003E+02</pdfrwt>
<pdfrwt beam="2">  1       -3 0.13243959E-02 0.81996003E+02</pdfrwt>
<totfact> 0.31108473E+04</totfact>
</mgrwt>
</event>
<event>
 8      1 +5.0320763e-08 7.98922900e+01 7.81860800e-03 1.32935700e-01
        1 -1    0    0  501    0 +0.0000000000e+00 +0.0000000000e+00 +2.3767475648e+01 2.3767476182e+01 5.0400000000e-03 0.0000e+00 -1.0000e+00
       -2 -1    0    0    0  501 -0.0000000000e+00 -0.0000000000e+00 -6.7137731679e+01 6.7137731727e+01 2.5500000000e-03 0.0000e+00 1.0000e+00
      -24  2    1    2    0    0 +0.0000000000e+00 +0.0000000000e+00 -4.3370256031e+01 9.0905207909e+01 7.9892288219e+01 0.0000e+00 0.0000e+00
       66  2    3    3    0    0 +1.0968898264e+01 -2.0898284191e+01 -5.3081929699e+01 6.5383006188e+01 3.0003186937e+01 0.0000e+00 0.0000e+00
       13  1    3    3    0    0 -1.0968898264e+01 +2.0898284191e+01 +9.7116736674e+00 2.5522201721e+01 1.0566000000e-01 0.0000e+00 -1.0000e+00
       13  1    4    4    0    0 +4.9517567992e+00 +3.8237077971e+00 -1.5545053166e+01 1.6757102335e+01 1.0566000000e-01 0.0000e+00 -1.0000e+00
      -13  1    4    4    0    0 -4.1122597454e+00 -3.6735702581e+00 -1.5734426898e+01 1.6673006702e+01 1.0566000000e-01 0.0000e+00 1.0000e+00
      -14  1    4    4    0    0 +1.0129401210e+01 -2.1048421730e+01 -2.1802449635e+01 3.1952897150e+01 0.0000000000e+00 0.0000e+00 1.0000e+00
<mgrwt>
<rscale>  0 0.79892288E+02</rscale>
<asrwt>0</asrwt>
<pdfrwt beam="1">  1        1 0.36565348E-02 0.79892288E+02</pdfrwt>
<pdfrwt beam="2">  1       -2 0.10328882E-01 0.79892288E+02</pdfrwt>
<totfact> 0.11626556E+05</totfact>
</mgrwt>
</event>
<event>
 8      1 +5.0320763e-08 7.84867200e+01 7.81860800e-03 1.33340200e-01
        2 -1    0    0  501    0 +0.0000000000e+00 +0.0000000000e+00 +1.5076809169e+02 1.5076809171e+02 2.5500000000e-03 0.0000e+00 -1.0000e+00
       -1 -1    0    0    0  501 -0.0000000000e+00 -0.0000000000e+00 -1.0214635280e+01 1.0214636524e+01 5.0400000000e-03 0.0000e+00 1.0000e+00
       24  2    1    2    0    0 +3.5527136788e-15 +0.0000000000e+00 +1.4055345641e+02 1.6098272824e+02 7.8486716593e+01 0.0000e+00 0.0000e+00
       66  2    3    3    0    0 -1.9691188088e+01 +1.5760405759e+01 +1.2579695917e+02 1.3176118391e+02 3.0000022858e+01 0.0000e+00 0.0000e+00
      -13  1    3    3    0    0 +1.9691188088e+01 -1.5760405759e+01 +1.4756497247e+01 2.9221544330e+01 1.0566000000e-01 0.0000e+00 1.0000e+00
       13  1    4    4    0    0 -1.8700049996e+01 +9.6154970617e+00 +6.7584072302e+01 7.0779712111e+01 1.0566000000e-01 0.0000e+00 1.0000e+00
      -13  1    4    4    0    0 -6.5295936429e+00 +5.8379538992e+00 +5.1654194360e+01 5.2391643016e+01 1.0566000000e-01 0.0000e+00 -1.0000e+00
      -14  1    4    4    0    0 +5.5384555504e+00 +3.0695479835e-01 +6.5586925043e+00 8.5898287816e+00 0.0000000000e+00 0.0000e+00 1.0000e+00
<mgrwt>
<rscale>  0 0.78486717E+02</rscale>
<asrwt>0</asrwt>
<pdfrwt beam="1">  1        2 0.23195090E-01 0.78486717E+02</pdfrwt>
<pdfrwt beam="2">  1       -1 0.15714825E-02 0.78486717E+02</pdfrwt>
<totfact> 0.21104684E+05</totfact>
</mgrwt>
</event>
<event>
 8      1 +5.0320763e-08 7.16149900e+01 7.81860800e-03 1.35468600e-01
       -1 -1    0    0    0  501 -0.0000000000e+00 +0.0000000000e+00 +2.6233845066e+00 2.6233893479e+00 5.0400000000e-03 0.0000e+00 1.0000e+00
        2 -1    0    0  501    0 +0.0000000000e+00 -0.0000000000e+00 -4.8874855788e+02 4.8874855789e+02 2.5500000000e-03 0.0000e+00 -1.0000e+00
       24  2    1    2    0    0 +3.5527136788e-15 +0.0000000000e+00 -4.8612517338e+02 4.9137194724e+02 7.1614986852e+01 0.0000e+00 0.0000e+00
       66  2    3    3    0    0 -2.1324604467e+01 -1.4768252568e+01 -3.8245775888e+02 3.8450855766e+02 3.0000892431e+01 0.0000e+00 0.0000e+00
      -13  1    3    3    0    0 +2.1324604467e+01 +1.4768252568e+01 -1.0366741450e+02 1.0686338958e+02 1.0566000000e-01 0.0000e+00 1.0000e+00
       13  1    4    4    0    0 -6.6302636147e+00 -5.4141974752e+00 -4.3577451930e+01 4.4410352516e+01 1.0566000000e-01 0.0000e+00 -1.0000e+00
      -13  1    4    4    0    0 -5.4518055459e+00 +7.4739714966e+00 -8.8254124212e+01 8.8737726127e+01 1.0566000000e-01 0.0000e+00 1.0000e+00
      -14  1    4    4    0    0 -9.2425353068e+00 -1.6828026590e+01 -2.5062618273e+02 2.5136047901e+02 0.0000000000e+00 0.0000e+00 1.0000e+00
<mgrwt>
<rscale>  0 0.71614987E+02</rscale>
<asrwt>0</asrwt>
<pdfrwt beam="1">  1        2 0.75192013E-01 0.71614987E+02</pdfrwt>
<pdfrwt beam="2">  1       -1 0.40359838E-03 0.71614987E+02</pdfrwt>
<totfact> 0.40276129E+05</totfact>
</mgrwt>
</event>
<event>
 8      1 +5.0320763e-08 9.31538600e+01 7.81860800e-03 1.29538900e-01
        1 -1    0    0  501    0 +0.0000000000e+00 +0.0000000000e+00 +7.4044633402e+00 7.4044650555e+00 5.0400000000e-03 0.0000e+00 -1.0000e+00
       -2 -1    0    0    0  501 -0.0000000000e+00 -0.0000000000e+00 -2.9298680318e+02 2.9298680319e+02 2.5500000000e-03 0.0000e+00 1.0000e+00
      -24  2    1    2    0    0 +0.0000000000e+00 +7.1054273576e-15 -2.8558233984e+02 3.0039126825e+02 9.3153857733e+01 0.0000e+00 0.0000e+00
       66  2    3    3    0    0 -3.4939798934e+01 +2.1775780137e+01 -1.3531611031e+02 1.4458714426e+02 3.0000307093e+01 0.0000e+00 0.0000e+00
       13  1    3    3    0    0 +3.4939798934e+01 -2.1775780137e+01 -1.5026622953e+02 1.5580412399e+02 1.0566000000e-01 0.0000e+00 -1.0000e+00
       13  1    4    4    0    0 +4.4617925292e-01 -4.4503167023e-01 +9.7838572212e-01 1.1685596990e+00 1.0566000000e-01 0.0000e+00 -1.0000e+00
      -13  1    4    4    0    0 -1.4150343002e+01 +1.4073366576e+00 -5.6555522595e+01 5.8315959253e+01 1.0566000000e-01 0.0000e+00 1.0000e+00
       14  1    4    4    0    0 -2.1235635185e+01 +2.0813475150e+01 -7.9738973439e+01 8.5102625310e+01 0.0000000000e+00 0.0000e+00 -1.0000e+00
<mgrwt>
<rscale>  0 0.93153858E+02</rscale>
<asrwt>0</asrwt>
<pdfrwt beam="1">  1        1 0.11391486E-02 0.93153858E+02</pdfrwt>
<pdfrwt beam="2">  1       -2 0.45074884E-01 0.93153858E+02</pdfrwt>
<totfact> 0.47927089E+04</totfact>
</mgrwt>
</event>
<event>
 8      1 +5.0320763e-08 7.80386100e+01 7.81860800e-03 1.33471200e-01
       -4 -1    0    0    0  501 -0.0000000000e+00 +0.0000000000e+00 +8.3889229540e+01 8.3898842261e+01 1.2700000000e+00 0.0000e+00 1.0000e+00
        3 -1    0    0  501    0 +0.0000000000e+00 -0.0000000000e+00 -1.8142990502e+01 1.8143271628e+01 1.0100000000e-01 0.0000e+00 -1.0000e+00
      -24  2    1    2    0    0 +0.0000000000e+00 +0.0000000000e+00 +6.5746239038e+01 1.0204211389e+02 7.8038612619e+01 0.0000e+00 0.0000e+00
       66  2    3    3    0    0 +1.8171962374e+01 -2.0398537811e+01 +6.2520465852e+01 7.4533254625e+01 3.0001280527e+01 0.0000e+00 0.0000e+00
       13  1    3    3    0    0 -1.8171962374e+01 +2.0398537811e+01 +3.2257731855e+00 2.7508859265e+01 1.0566000000e-01 0.0000e+00 -1.0000e+00
       13  1    4    4    0    0 +6.7339934338e+00 +4.6942181143e+00 +2.1194501948e+01 2.2728845728e+01 1.0566000000e-01 0.0000e+00 -1.0000e+00
      -13  1    4    4    0    0 +1.0122738971e+01 -1.9105791265e+01 +4.0093246617e+01 4.5551955968e+01 1.0566000000e-01 0.0000e+00 1.0000e+00
       14  1    4    4    0    0 +1.3152299696e+00 -5.9869646605e+00 +1.2327172865e+00 6.2524529289e+00 0.0000000000e+00 0.0000e+00 -1.0000e+00
<mgrwt>
<rscale>  0 0.78038613E+02</rscale>
<asrwt>0</asrwt>
<pdfrwt beam="1">  1        3 0.27912556E-02 0.78038613E+02</pdfrwt>
<pdfrwt beam="2">  1       -4 0.12910194E-01 0.78038613E+02</pdfrwt>
<totfact> 0.44803949E+04</totfact>
</mgrwt>
</event>
<event>
 8      1 +5.0320763e-08 8.18015100e+01 7.81860800e-03 1.32401500e-01
        1 -1    0    0  501    0 +0.0000000000e+00 +0.0000000000e+00 +6.2248932779e+01 6.2248932983e+01 5.0400000000e-03 0.0000e+00 -1.0000e+00
       -2 -1    0    0    0  501 -0.0000000000e+00 -0.0000000000e+00 -2.6873903896e+01 2.6873904017e+01 2.5500000000e-03 0.0000e+00 1.0000e+00
      -24  2    1    2    0    0 +0.0000000000e+00 +0.0000000000e+00 +3.5375028882e+01 8.9122837000e+01 8.1801512251e+01 0.0000e+00 0.0000e+00
       66  2    3    3    0    0 -1.6731155854e+01 -2.9403928447e+01 +8.7123721468e+00 4.6048122694e+01 3.0000026515e+01 0.0000e+00 0.0000e+00
       13  1    3    3    0    0 +1.6731155854e+01 +2.9403928447e+01 +2.6662656736e+01 4.3074714306e+01 1.0566000000e-01 0.0000e+00 -1.0000e+00
       13  1    4    4    0    0 +2.6118043229e+00 -3.0994160523e+00 -5.2975344938e+00 6.6710521985e+00 1.0566000000e-01 0.0000e+00 -1.0000e+00
      -13  1    4    4    0    0 -1.1787715221e+01 -1.4089406599e+01 -1.2602048369e+00 1.8413606076e+01 1.0566000000e-01 0.0000e+00 1.0000e+00
       14  1    4    4    0    0 -7.5552449561e+00 -1.2215105795e+01 +1.5270111478e+01 2.0963464420e+01 0.0000000000e+00 0.0000e+00 -1.0000e+00
<mgrwt>
<rscale>  0 0.81801512E+02</rscale>
<asrwt>0</asrwt>
<pdfrwt beam="1">  1        1 0.95767588E-02 0.81801512E+02</pdfrwt>
<pdfrwt beam="2">  1       -2 0.41344468E-02 0.81801512E+02</pdfrwt>
<totfact> 0.12805964E+05</totfact>
</mgrwt>
</event>
<event>
 8      1 +5.0320763e-08 7.81158100e+01 7.81860800e-03 1.33448500e-01
        2 -1    0    0  501    0 +0.0000000000e+00 +0.0000000000e+00 +7.0336084925e+01 7.0336084971e+01 2.5500000000e-03 0.0000e+00 -1.0000e+00
       -1 -1    0    0    0  501 -0.0000000000e+00 -0.0000000000e+00 -2.1689005984e+01 2.1689006569e+01 5.0400000000e-03 0.0000e+00 1.0000e+00
       24  2    1    2    0    0 +0.0000000000e+00 +0.0000000000e+00 +4.8647078942e+01 9.2025091541e+01 7.8115806233e+01 0.0000e+00 0.0000e+00
       66  2    3    3    0    0 +5.1853839359e+00 +8.9839806564e+00 +6.5184885066e+01 7.2503044761e+01 3.0000369057e+01 0.0000e+00 0.0000e+00
      -13  1    3    3    0    0 -5.1853839359e+00 -8.9839806564e+00 -1.6537806125e+01 1.9522046779e+01 1.0566000000e-01 0.0000e+00 1.0000e+00
       13  1    4    4    0    0 -4.2534189800e+00 +1.1478917875e+01 +4.0676782145e+01 4.2479040695e+01 1.0566000000e-01 0.0000e+00 -1.0000e+00
      -13  1    4    4    0    0 +3.9959017289e+00 +9.9489918258e-01 -5.4035140474e-01 4.1545395276e+00 1.0566000000e-01 0.0000e+00 1.0000e+00
       14  1    4    4    0    0 +5.4429011870e+00 -3.4898364012e+00 +2.5048454326e+01 2.5869464539e+01 0.0000000000e+00 0.0000e+00 -1.0000e+00
<mgrwt>
<rscale>  0 0.78115806E+02</rscale>
<asrwt>0</asrwt>
<pdfrwt beam="1">  1        2 0.10820936E-01 0.78115806E+02</pdfrwt>
<pdfrwt beam="2">  1       -1 0.33367702E-02 0.78115806E+02</pdfrwt>
<totfact> 0.17240853E+05</totfact>
</mgrwt>
</event>
<event>
 8      1 +5.0320763e-08 7.98965800e+01 7.81860800e-03 1.32934500e-01
       -3 -1    0    0    0  501 -0.0000000000e+00 +0.0000000000e+00 +1.6531959171e+02 1.6531962256e+02 1.0100000000e-01 0.0000e+00 1.0000e+00
        4 -1    0    0  501    0 +0.0000000000e+00 -0.0000000000e+00 -9.6089792129e+00 9.6925425722e+00 1.2700000000e+00 0.0000e+00 -1.0000e+00
       24  2    1    2    0    0 +0.0000000000e+00 -7.1054273576e-15 +1.5571061250e+02 1.7501216513e+02 7.9896577529e+01 0.0000e+00 0.0000e+00
       66  2    3    3    0    0 -1.4423207978e+01 +2.9299637955e+01 +6.5746534219e+01 7.9304045013e+01 3.0000451347e+01 0.0000e+00 0.0000e+00
      -13  1    3    3    0    0 +1.4423207978e+01 -2.9299637955e+01 +8.9964078277e+01 9.5708120120e+01 1.0566000000e-01 0.0000e+00 1.0000e+00
       13  1    4    4    0    0 -1.1918138153e+01 +1.3467084571e+01 +1.3720004156e+01 2.2619771483e+01 1.0566000000e-01 0.0000e+00 -1.0000e+00
      -13  1    4    4    0    0 -2.6600982145e+00 -6.8147572329e-01 +8.0096342303e-01 2.8623832925e+00 1.0566000000e-01 0.0000e+00 1.0000e+00
      -14  1    4    4    0    0 +1.5502839036e-01 +1.6514029108e+01 +5.1225566640e+01 5.3821890238e+01 0.0000000000e+00 0.0000e+00 1.0000e+00
<mgrwt>
<rscale>  0 0.79896578E+02</rscale>
<asrwt>0</asrwt>
<pdfrwt beam="1">  1        4 0.14851077E-02 0.79896578E+02</pdfrwt>
<pdfrwt beam="2">  1       -3 0.25433826E-01 0.79896578E+02</pdfrwt>
<totfact> 0.38353260E+04</totfact>
</mgrwt>
</event>
<event>
 8      1 +5.0320763e-08 8.09736300e+01 7.81860800e-03 1.32631100e-01
       -3 -1    0    0    0  501 -0.0000000000e+00 +0.0000000000e+00 +2.4087612862e+02 2.4087614979e+02 1.0100000000e-01 0.0000e+00 1.0000e+00
        4 -1    0    0  501    0 +0.0000000000e+00 -0.0000000000e+00 -6.7441311868e+00 6.8626675182e+00 1.2700000000e+00 0.0000e+00 -1.0000e+00
       24  2    1    2    0    0 -3.5527136788e-15 +0.0000000000e+00 +2.3413199743e+02 2.4773881731e+02 8.0973633866e+01 0.0000e+00 0.0000e+00
       66  2    3    3    0    0 +2.1003936345e+01 +2.6786628417e+01 +1.5710086698e+02 1.6352186518e+02 3.0000486354e+01 0.0000e+00 0.0000e+00
      -13  1    3    3    0    0 -2.1003936345e+01 -2.6786628417e+01 +7.7031130447e+01 8.4216952129e+01 1.0566000000e-01 0.0000e+00 1.0000e+00
       13  1    4    4    0    0 -3.8782445636e+00 +6.4727597668e+00 +5.1368526657e+01 5.1919881499e+01 1.0566000000e-01 0.0000e+00 -1.0000e+00
      -13  1    4    4    0    0 +2.0387047700e+01 +8.5484452595e+00 +7.9275059125e+01 8.2299780034e+01 1.0566000000e-01 0.0000e+00 1.0000e+00
       14  1    4    4    0    0 +4.4951332088e+00 +1.1765423390e+01 +2.6457281203e+01 2.9302203650e+01 0.0000000000e+00 0.0000e+00 -1.0000e+00
<mgrwt>
<rscale>  0 0.80973634E+02</rscale>
<asrwt>0</asrwt>
<pdfrwt beam="1">  1        4 0.10469344E-02 0.80973634E+02</pdfrwt>
<pdfrwt beam="2">  1       -3 0.37057923E-01 0.80973634E+02</pdfrwt>
<totfact> 0.32622042E+04</totfact>
</mgrwt>
</event>
<event>
 8      1 +5.0320763e-08 7.96849600e+01 7.81860800e-03 1.32994800e-01
        2 -1    0    0  501    0 +0.0000000000e+00 +0.0000000000e+00 +2.5547200658e+02 2.5547200660e+02 2.5500000000e-03 0.0000e+00 -1.0000e+00
       -1 -1    0    0    0  501 -0.0000000000e+00 -0.0000000000e+00 -6.2136863042e+00 6.2136883482e+00 5.0400000000e-03 0.0000e+00 1.0000e+00
       24  2    1    2    0    0 +0.0000000000e+00 +3.5527136788e-15 +2.4925832028e+02 2.6168569494e+02 7.9684959121e+01 0.0000e+00 0.0000e+00
       66  2    3    3    0    0 -9.5515752097e+00 -2.1157589531e+01 +2.2474963090e+02 2.2792827794e+02 3.0000451846e+01 0.0000e+00 0.0000e+00
      -13  1    3    3    0    0 +9.5515752097e+00 +2.1157589531e+01 +2.4508689382e+01 3.3757417007e+01 1.0566000000e-01 0.0000e+00 1.0000e+00
       13  1    4    4    0    0 -9.1952324192e+00 -2.0908966852e+01 +1.1034073978e+02 1.1268019885e+02 1.0566000000e-01 0.0000e+00 -1.0000e+00
      -13  1    4    4    0    0 +2.4373798127e+00 -5.8255064110e+00 +3.2890141696e+01 3.3491042536e+01 1.0566000000e-01 0.0000e+00 1.0000e+00
       14  1    4    4    0    0 -2.7937226032e+00 +5.5768837316e+00 +8.1518749419e+01 8.1757036547e+01 0.0000000000e+00 0.0000e+00 -1.0000e+00
<mgrwt>
<rscale>  0 0.79684959E+02</rscale>
<asrwt>0</asrwt>
<pdfrwt beam="1">  1        2 0.39303394E-01 0.79684959E+02</pdfrwt>
<pdfrwt beam="2">  1       -1 0.95595169E-03 0.79684959E+02</pdfrwt>
<totfact> 0.24305062E+05</totfact>
</mgrwt>
</event>
<event>
 8      1 +5.0320763e-08 8.41285500e+01 7.81860800e-03 1.31772700e-01
       -1 -1    0    0    0  501 -0.0000000000e+00 +0.0000000000e+00 +1.5490846403e+01 1.5490847223e+01 5.0400000000e-03 0.0000e+00 1.0000e+00
        4 -1    0    0  501    0 +0.0000000000e+00 -0.0000000000e+00 -1.1419293205e+02 1.1419999401e+02 1.2700000000e+00 0.0000e+00 -1.0000e+00
       24  2    1    2    0    0 +0.0000000000e+00 +3.5527136788e-15 -9.8702085650e+01 1.2969084123e+02 8.4128547991e+01 0.0000e+00 0.0000e+00
       66  2    3    3    0    0 +4.0654657263e+00 -1.6203681438e+01 -1.0602765380e+02 1.1144906455e+02 2.9999055247e+01 0.0000e+00 0.0000e+00
      -13  1    3    3    0    0 -4.0654657263e+00 +1.6203681438e+01 +7.3255681463e+00 1.8241776679e+01 1.0566000000e-01 0.0000e+00 1.0000e+00
       13  1    4    4    0    0 +3.9118448289e+00 +2.0751206162e-01 -5.3708931672e+00 6.6485523740e+00 1.0566000000e-01 0.0000e+00 -1.0000e+00
      -13  1    4    4    0    0 +5.3609560641e-01 -1.8103294490e+01 -3.7750874973e+01 4.1870710468e+01 1.0566000000e-01 0.0000e+00 1.0000e+00
      -14  1    4    4    0    0 -3.8247470894e-01 +1.6921009906e+00 -6.2905885657e+01 6.2929801707e+01 0.0000000000e+00 0.0000e+00 1.0000e+00
<mgrwt>
<rscale>  0 0.84128548E+02</rscale>
<asrwt>0</asrwt>
<pdfrwt beam="1">  1        4 0.17572690E-01 0.84128548E+02</pdfrwt>
<pdfrwt beam="2">  1       -1 0.23832074E-02 0.84128548E+02</pdfrwt>
<totfact> 0.46016722E+04</totfact>
</mgrwt>
</event>
<event>
 8      1 +5.0320763e-08 8.03405900e+01 7.81860800e-03 1.32808800e-01
       -1 -1    0    0    0  501 -0.0000000000e+00 +0.0000000000e+00 +5.0844390645e+00 5.0844415625e+00 5.0400000000e-03 0.0000e+00 1.0000e+00
        2 -1    0    0  501    0 +0.0000000000e+00 -0.0000000000e+00 -3.1737072394e+02 3.1737072395e+02 2.5500000000e-03 0.0000e+00 -1.0000e+00
       24  2    1    2    0    0 -3.5527136788e-15 +3.5527136788e-15 -3.1228628488e+02 3.2245516552e+02 8.0340587778e+01 0.0000e+00 0.0000e+00
       66  2    3    3    0    0 -2.0185388782e+01 -2.1306189811e+01 -2.5122327869e+02 2.5470484793e+02 3.0000335953e+01 0.0000e+00 0.0000e+00
      -13  1    3    3    0    0 +2.0185388782e+01 +2.1306189811e+01 -6.1063006188e+01 6.7750317588e+01 1.0566000000e-01 0.0000e+00 1.0000e+00
       13  1    4    4    0    0 -8.9669752161e+00 -1.1762248674e+01 -1.0594264265e+02 1.0697014460e+02 1.0566000000e-01 0.0000e+00 -1.0000e+00
      -13  1    4    4    0    0 -1.2731563124e+01 -1.5285231999e+01 -1.2599525171e+02 1.2755604899e+02 1.0566000000e-01 0.0000e+00 1.0000e+00
       14  1    4    4    0    0 +1.5131495581e+00 +5.7412908619e+00 -1.9285384328e+01 2.0178654341e+01 0.0000000000e+00 0.0000e+00 -1.0000e+00
<mgrwt>
<rscale>  0 0.80340588E+02</rscale>
<asrwt>0</asrwt>
<pdfrwt beam="1">  1        2 0.48826250E-01 0.80340588E+02</pdfrwt>
<pdfrwt beam="2">  1       -1 0.78222184E-03 0.80340588E+02</pdfrwt>
<totfact> 0.25730629E+05</totfact>
</mgrwt>
</event>
<event>
 8      1 +5.0320763e-08 7.19240900e+01 7.81860800e-03 1.35367000e-01
        2 -1    0    0  501    0 +0.0000000000e+00 +0.0000000000e+00 +7.7659443563e+02 7.7659443564e+02 2.5500000000e-03 0.0000e+00 -1.0000e+00
       -1 -1    0    0    0  501 -0.0000000000e+00 -0.0000000000e+00 -1.6653037335e+00 1.6653113602e+00 5.0400000000e-03 0.0000e+00 1.0000e+00
       24  2    1    2    0    0 +0.0000000000e+00 +1.7763568394e-15 +7.7492913190e+02 7.7825974700e+02 7.1924087273e+01 0.0000e+00 0.0000e+00
       66  2    3    3    0    0 +2.1003826804e+01 +6.3583336750e+00 +6.7149733923e+02 6.7252547608e+02 3.0004170321e+01 0.0000e+00 0.0000e+00
      -13  1    3    3    0    0 -2.1003826804e+01 -6.3583336750e+00 +1.0343179267e+02 1.0573427092e+02 1.0566000000e-01 0.0000e+00 1.0000e+00
       13  1    4    4    0    0 -8.3357357432e-01 -2.7906906848e+00 +1.1616556044e+01 1.1976574542e+01 1.0566000000e-01 0.0000e+00 -1.0000e+00
      -13  1    4    4    0    0 +1.0165408649e+01 -4.8906975476e+00 +2.8643740069e+02 2.8665946720e+02 1.0566000000e-01 0.0000e+00 1.0000e+00
       14  1    4    4    0    0 +1.1671991729e+01 +1.4039721907e+01 +3.7344338249e+02 3.7388943434e+02 0.0000000000e+00 0.0000e+00 -1.0000e+00
<mgrwt>
<rscale>  0 0.71924087E+02</rscale>
<asrwt>0</asrwt>
<pdfrwt beam="1">  1        2 0.11947634E+00 0.71924087E+02</pdfrwt>
<pdfrwt beam="2">  1       -1 0.25620059E-03 0.71924087E+02</pdfrwt>
<totfact> 0.45000706E+05</totfact>
</mgrwt>
</event>
<event>
 8      1 +5.0320763e-08 7.74372200e+01 7.81860800e-03 1.33648600e-01
        2 -1    0    0  501    0 +0.0000000000e+00 +0.0000000000e+00 +1.0804452589e+03 1.0804452589e+03 2.5500000000e-03 0.0000e+00 -1.0000e+00
       -1 -1    0    0    0  501 -0.0000000000e+00 -0.0000000000e+00 -1.3875074964e+00 1.3875166501e+00 5.0400000000e-03 0.0000e+00 1.0000e+00
       24  2    1    2    0    0 +1.7763568394e-15 -1.7763568394e-15 +1.0790577514e+03 1.0818327756e+03 7.7437222296e+01 0.0000e+00 0.0000e+00
       66  2    3    3    0    0 +5.3944528351e+00 -8.7467747804e+00 +1.0572413219e+03 1.0577169312e+03 3.0004792025e+01 0.0000e+00 0.0000e+00
      -13  1    3    3    0    0 -5.3944528351e+00 +8.7467747804e+00 +2.1816429525e+01 2.4115844412e+01 1.0566000000e-01 0.0000e+00 1.0000e+00
       13  1    4    4    0    0 -3.3723573870e+00 -8.6039363013e+00 +6.5885268023e+02 6.5891749554e+02 1.0566000000e-01 0.0000e+00 -1.0000e+00
      -13  1    4    4    0    0 -4.0430712794e+00 -2.8859240999e+00 +1.1965660231e+02 1.1975971202e+02 1.0566000000e-01 0.0000e+00 1.0000e+00
       14  1    4    4    0    0 +1.2809881501e+01 +2.7430856208e+00 +2.7873203938e+02 2.7903972363e+02 0.0000000000e+00 0.0000e+00 -1.0000e+00
<mgrwt>
<rscale>  0 0.77437222E+02</rscale>
<asrwt>0</asrwt>
<pdfrwt beam="1">  1        2 0.16622233E+00 0.77437222E+02</pdfrwt>
<pdfrwt beam="2">  1       -1 0.21346342E-03 0.77437222E+02</pdfrwt>
<totfact> 0.38372344E+05</totfact>
</mgrwt>
</event>
<event>
 8      1 +5.0320763e-08 7.99946000e+01 7.81860800e-03 1.32906700e-01
       -1 -1    0    0    0  501 -0.0000000000e+00 +0.0000000000e+00 +3.0676658234e+01 3.0676658648e+01 5.0400000000e-03 0.0000e+00 1.0000e+00
        4 -1    0    0  501    0 +0.0000000000e+00 -0.0000000000e+00 -5.2128996371e+01 5.2144464353e+01 1.2700000000e+00 0.0000e+00 -1.0000e+00
       24  2    1    2    0    0 -1.7763568394e-15 +0.0000000000e+00 -2.1452338137e+01 8.2821123001e+01 7.9994597340e+01 0.0000e+00 0.0000e+00
       66  2    3    3    0    0 -8.2081449253e+00 -2.4363535931e+01 +1.1386508748e+01 4.1115529192e+01 2.9997977150e+01 0.0000e+00 0.0000e+00
      -13  1    3    3    0    0 +8.2081449253e+00 +2.4363535931e+01 -3.2838846885e+01 4.1705593809e+01 1.0566000000e-01 0.0000e+00 1.0000e+00
       13  1    4    4    0    0 +2.8003130950e+00 -2.1328712241e+01 -3.1775918005e+00 2.1745435682e+01 1.0566000000e-01 0.0000e+00 -1.0000e+00
      -13  1    4    4    0    0 -4.3810848914e+00 -4.0767210525e+00 +5.8157489983e+00 8.3455173484e+00 1.0566000000e-01 0.0000e+00 1.0000e+00
       14  1    4    4    0    0 -6.6273731289e+00 +1.0418973624e+00 +8.7483515505e+00 1.1024576162e+01 0.0000000000e+00 0.0000e+00 -1.0000e+00
<mgrwt>
<rscale>  0 0.79994597E+02</rscale>
<asrwt>0</asrwt>
<pdfrwt beam="1">  1        4 0.80230571E-02 0.79994597E+02</pdfrwt>
<pdfrwt beam="2">  1       -1 0.47194862E-02 0.79994597E+02</pdfrwt>
<totfact> 0.63934081E+04</totfact>
</mgrwt>
</event>
<event>
 8      1 +5.0320763e-08 7.89902300e+01 7.81860800e-03 1.33194200e-01
       -1 -1    0    0    0  501 -0.0000000000e+00 +0.0000000000e+00 +3.1073020435e+01 3.1073020844e+01 5.0400000000e-03 0.0000e+00 1.0000e+00
        2 -1    0    0  501    0 +0.0000000000e+00 -0.0000000000e+00 -5.0199949224e+01 5.0199949289e+01 2.5500000000e-03 0.0000e+00 -1.0000e+00
       24  2    1    2    0    0 +0.0000000000e+00 +0.0000000000e+00 -1.9126928789e+01 8.1272970133e+01 7.8990228948e+01 0.0000e+00 0.0000e+00
       66  2    3    3    0    0 -7.7719468386e+00 +3.1873545238e+01 -1.9300472570e+01 4.8464932624e+01 3.0000256817e+01 0.0000e+00 0.0000e+00
      -13  1    3    3    0    0 +7.7719468386e+00 -3.1873545238e+01 +1.7354378099e-01 3.2808037509e+01 1.0566000000e-01 0.0000e+00 1.0000e+00
       13  1    4    4    0    0 -6.8152056715e+00 -1.4005131755e+00 -2.4257633415e+00 7.3691218828e+00 1.0566000000e-01 0.0000e+00 -1.0000e+00
      -13  1    4    4    0    0 -2.7566179490e+00 -9.5400744891e-01 -2.7948733066e+00 4.0412316891e+00 1.0566000000e-01 0.0000e+00 1.0000e+00
      -14  1    4    4    0    0 +1.7998767820e+00 +3.4228065863e+01 -1.4079835922e+01 3.7054579052e+01 0.0000000000e+00 0.0000e+00 1.0000e+00
<mgrwt>
<rscale>  0 0.78990229E+02</rscale>
<asrwt>0</asrwt>
<pdfrwt beam="1">  1        2 0.77230691E-02 0.78990229E+02</pdfrwt>
<pdfrwt beam="2">  1       -1 0.47804647E-02 0.78990229E+02</pdfrwt>
<totfact> 0.15484983E+05</totfact>
</mgrwt>
</event>
<event>
 8      1 +5.0320763e-08 7.89915300e+01 7.81860800e-03 1.33193800e-01
       -1 -1    0    0    0  501 -0.0000000000e+00 +0.0000000000e+00 +8.3849716852e+00 8.3849731999e+00 5.0400000000e-03 0.0000e+00 1.0000e+00
        2 -1    0    0  501    0 +0.0000000000e+00 -0.0000000000e+00 -1.8603704409e+02 1.8603704411e+02 2.5500000000e-03 0.0000e+00 -1.0000e+00
       24  2    1    2    0    0 +8.8817841970e-16 +0.0000000000e+00 -1.7765207241e+02 1.9442201731e+02 7.8991531092e+01 0.0000e+00 0.0000e+00
       66  2    3    3    0    0 +6.1802355659e+00 +1.1025409302e+01 -1.7879084891e+02 1.8173095991e+02 3.0003652667e+01 0.0000e+00 0.0000e+00
      -13  1    3    3    0    0 -6.1802355659e+00 -1.1025409302e+01 +1.1387765055e+00 1.2691057399e+01 1.0566000000e-01 0.0000e+00 1.0000e+00
       13  1    4    4    0    0 +5.4933763934e+00 +1.5336785596e+00 -1.6252355672e+02 1.6262363607e+02 1.0566000000e-01 0.0000e+00 -1.0000e+00
      -13  1    4    4    0    0 +1.4096333919e+00 +6.5540303364e+00 -8.8984846375e+00 1.1141659339e+01 1.0566000000e-01 0.0000e+00 1.0000e+00
       14  1    4    4    0    0 -7.2277421948e-01 +2.9377004062e+00 -7.3688075557e+00 7.9656645072e+00 0.0000000000e+00 0.0000e+00 -1.0000e+00
<mgrwt>
<rscale>  0 0.78991531E+02</rscale>
<asrwt>0</asrwt>
<pdfrwt beam="1">  1        2 0.28621081E-01 0.78991531E+02</pdfrwt>
<pdfrwt beam="2">  1       -1 0.12899959E-02 0.78991531E+02</pdfrwt>
<totfact> 0.22247846E+05</totfact>
</mgrwt>
</event>
<event>
 8      1 +5.0320763e-08 7.95929000e+01 7.81860800e-03 1.33021100e-01
       -1 -1    0    0    0  501 -0.0000000000e+00 +0.0000000000e+00 +1.2153789392e+01 1.2153790437e+01 5.0400000000e-03 0.0000e+00 1.0000e+00
        2 -1    0    0  501    0 +0.0000000000e+00 -0.0000000000e+00 -1.3030974225e+02 1.3030974228e+02 2.5500000000e-03 0.0000e+00 -1.0000e+00
       24  2    1    2    0    0 -3.5527136788e-15 +0.0000000000e+00 -1.1815595286e+02 1.4246353271e+02 7.9592895142e+01 0.0000e+00 0.0000e+00
       66  2    3    3    0    0 -2.8780731310e+01 -9.9043708672e+00 -9.5158236363e+01 1.0431470331e+02 3.0000672014e+01 0.0000e+00 0.0000e+00
      -13  1    3    3    0    0 +2.8780731310e+01 +9.9043708672e+00 -2.2997716496e+01 3.8148829406e+01 1.0566000000e-01 0.0000e+00 1.0000e+00
       13  1    4    4    0    0 -1.9882483532e+01 -7.4874183187e+00 -3.0526037029e+01 3.7191728720e+01 1.0566000000e-01 0.0000e+00 -1.0000e+00
      -13  1    4    4    0    0 -5.0019040690e+00 -7.5269588567e+00 -1.8994883362e+01 2.1035467951e+01 1.0566000000e-01 0.0000e+00 1.0000e+00
       14  1    4    4    0    0 -3.8963437093e+00 +5.1100063082e+00 -4.5637315973e+01 4.6087506636e+01 0.0000000000e+00 0.0000e+00 -1.0000e+00
<mgrwt>
<rscale>  0 0.79592895E+02</rscale>
<asrwt>0</asrwt>
<pdfrwt beam="1">  1        2 0.20047652E-01 0.79592895E+02</pdfrwt>
<pdfrwt beam="2">  1       -1 0.18698139E-02 0.79592895E+02</pdfrwt>
<totfact> 0.19422452E+05</totfact>
</mgrwt>
</event>
<event>
 8      1 +5.0320763e-08 8.34590100e+01 7.81860800e-03 1.31951200e-01
       -1 -1    0    0    0  501 -0.0000000000e+00 +0.0000000000e+00 +4.2659917384e+01 4.2659917681e+01 5.0400000000e-03 0.0000e+00 1.0000e+00
        2 -1    0    0  501    0 +0.0000000000e+00 -0.0000000000e+00 -4.0819382729e+01 4.0819382809e+01 2.5500000000e-03 0.0000e+00 -1.0000e+00
       24  2    1    2    0    0 +3.5527136788e-15 +0.0000000000e+00 +1.8405346541e+00 8.3479300490e+01 8.3459008157e+01 0.0000e+00 0.0000e+00
       66  2    3    3    0    0 +2.7883915654e+01 +1.5760314300e+01 +1.8205157156e+01 4.7511088237e+01 2.9999591653e+01 0.0000e+00 0.0000e+00
      -13  1    3    3    0    0 -2.7883915654e+01 -1.5760314300e+01 -1.6364622502e+01 3.5968212253e+01 1.0566000000e-01 0.0000e+00 1.0000e+00
       13  1    4    4    0    0 +3.7092785019e+00 +6.5669146640e+00 -7.6655796543e+00 1.0754319629e+01 1.0566000000e-01 0.0000e+00 -1.0000e+00
      -13  1    4    4    0    0 +1.3400608405e+01 +3.2073941592e+00 +1.4044568395e+01 1.9675485975e+01 1.0566000000e-01 0.0000e+00 1.0000e+00
       14  1    4    4    0    0 +1.0774028747e+01 +5.9860054771e+00 +1.1826168416e+01 1.7081282634e+01 0.0000000000e+00 0.0000e+00 -1.0000e+00
<mgrwt>
<rscale>  0 0.83459008E+02</rscale>
<asrwt>0</asrwt>
<pdfrwt beam="1">  1        2 0.62799051E-02 0.83459008E+02</pdfrwt>
<pdfrwt beam="2">  1       -1 0.65630642E-02 0.83459008E+02</pdfrwt>
<totfact> 0.12730480E+05</totfact>
</mgrwt>
</event>
<event>
 8      1 +5.0320763e-08 7.95794900e+01 7.81860800e-03 1.33024900e-01
        2 -1    0    0  501    0 +0.0000000000e+00 +0.0000000000e+00 +7.8896043366e+01 7.8896043408e+01 2.5500000000e-03 0.0000e+00 -1.0000e+00
       -1 -1    0    0    0  501 -0.0000000000e+00 -0.0000000000e+00 -2.0067213489e+01 2.0067214122e+01 5.0400000000e-03 0.0000e+00 1.0000e+00
       24  2    1    2    0    0 +0.0000000000e+00 +0.0000000000e+00 +5.8828829877e+01 9.8963257530e+01 7.9579489294e+01 0.0000e+00 0.0000e+00
       66  2    3    3    0    0 +2.3183416008e+01 +1.1217799431e+01 +6.1454035294e+01 7.3074791577e+01 3.0000281803e+01 0.0000e+00 0.0000e+00
      -13  1    3    3    0    0 -2.3183416008e+01 -1.1217799431e+01 -2.6252054169e+00 2.5888465953e+01 1.0566000000e-01 0.0000e+00 1.0000e+00
       13  1    4    4    0    0 -5.9470880848e-01 +3.3543843617e-01 -9.1285641666e-01 1.1448442621e+00 1.0566000000e-01 0.0000e+00 -1.0000e+00
      -13  1    4    4    0    0 +8.0246549911e+00 -5.6311385781e+00 +3.4732509627e+01 3.6089655006e+01 1.0566000000e-01 0.0000e+00 1.0000e+00
       14  1    4    4    0    0 +1.5753469825e+01 +1.6513499573e+01 +2.7634382084e+01 3.5840292310e+01 0.0000000000e+00 0.0000e+00 -1.0000e+00
<mgrwt>
<rscale>  0 0.79579489E+02</rscale>
<asrwt>0</asrwt>
<pdfrwt beam="1">  1        2 0.12137853E-01 0.79579489E+02</pdfrwt>
<pdfrwt beam="2">  1       -1 0.30872637E-02 0.79579489E+02</pdfrwt>
<totfact> 0.16874395E+05</totfact>
</mgrwt>
</event>
<event>
 8      1 +5.0320763e-08 8.08904100e+01 7.81860800e-03 1.32654300e-01
        1 -1    0    0  501    0 +0.0000000000e+00 +0.0000000000e+00 +6.6666628398e+01 6.6666628589e+01 5.0400000000e-03 0.0000e+00 -1.0000e+00
       -2 -1    0    0    0  501 -0.0000000000e+00 -0.0000000000e+00 -2.4537235414e+01 2.4537235547e+01 2.5500000000e-03 0.0000e+00 1.0000e+00
      -24  2    1    2    0    0 -3.5527136788e-15 +0.0000000000e+00 +4.2129392984e+01 9.1203864136e+01 8.0890414019e+01 0.0000e+00 0.0000e+00
       66  2    3    3    0    0 +1.6062026633e+01 +1.2778235588e+01 -7.8386555942e+00 3.7184524571e+01 2.9999539025e+01 0.0000e+00 0.0000e+00
       13  1    3    3    0    0 -1.6062026633e+01 -1.2778235588e+01 +4.9968048578e+01 5.4019339565e+01 1.0566000000e-01 0.0000e+00 -1.0000e+00
       13  1    4    4    0    0 -9.8420198427e-01 -6.0894411991e-01 +1.5613671727e+00 1.9464064248e+00 1.0566000000e-01 0.0000e+00 -1.0000e+00
      -13  1    4    4    0    0 -8.0745413216e-01 +1.5838110595e+01 -5.6156540869e+00 1.6823925352e+01 1.0566000000e-01 0.0000e+00 1.0000e+00
      -14  1    4    4    0    0 +1.7853682749e+01 -2.4509308874e+00 -3.7843686800e+00 1.8414192794e+01 0.0000000000e+00 0.0000e+00 1.0000e+00
<mgrwt>
<rscale>  0 0.80890414E+02</rscale>
<asrwt>0</asrwt>
<pdfrwt beam="1">  1        1 0.10256404E-01 0.80890414E+02</pdfrwt>
<pdfrwt beam="2">  1       -2 0.37749594E-02 0.80890414E+02</pdfrwt>
<totfact> 0.13352144E+05</totfact>
</mgrwt>
</event>
<event>
 8      1 +5.0320763e-08 8.02755800e+01 7.81860800e-03 1.32827100e-01
        2 -1    0    0  501    0 +0.0000000000e+00 +0.0000000000e+00 +4.3053717824e+02 4.3053717825e+02 2.5500000000e-03 0.0000e+00 -1.0000e+00
       -1 -1    0    0    0  501 -0.0000000000e+00 -0.0000000000e+00 -3.7419333212e+00 3.7419367154e+00 5.0400000000e-03 0.0000e+00 1.0000e+00
       24  2    1    2    0    0 -1.7763568394e-15 +0.0000000000e+00 +4.2679524492e+02 4.3427911496e+02 8.0275579149e+01 0.0000e+00 0.0000e+00
       66  2    3    3    0    0 -1.1248320326e+01 -1.1978072340e+01 +4.0750879703e+02 4.0894184669e+02 3.0000256556e+01 0.0000e+00 0.0000e+00
      -13  1    3    3    0    0 +1.1248320326e+01 +1.1978072340e+01 +1.9286447887e+01 2.5337268268e+01 1.0566000000e-01 0.0000e+00 1.0000e+00
       13  1    4    4    0    0 +4.3771442158e+00 -1.0010539082e+01 +1.5513160677e+02 1.5551590551e+02 1.0566000000e-01 0.0000e+00 -1.0000e+00
      -13  1    4    4    0    0 -1.7638592981e+01 -4.3727673474e+00 +2.3882988448e+02 2.3952028294e+02 1.0566000000e-01 0.0000e+00 1.0000e+00
      -14  1    4    4    0    0 +2.0131284398e+00 +2.4052340894e+00 +1.3547305784e+01 1.3905658242e+01 0.0000000000e+00 0.0000e+00 1.0000e+00
<mgrwt>
<rscale>  0 0.80275579E+02</rscale>
<asrwt>0</asrwt>
<pdfrwt beam="1">  1        2 0.66236527E-01 0.80275579E+02</pdfrwt>
<pdfrwt beam="2">  1       -1 0.57568198E-03 0.80275579E+02</pdfrwt>
<totfact> 0.28722338E+05</totfact>
</mgrwt>
</event>
<event>
 8      1 +5.0320763e-08 7.85134400e+01 7.81860800e-03 1.33332400e-01
        1 -1    0    0  501    0 +0.0000000000e+00 +0.0000000000e+00 +1.0450754579e+02 1.0450754591e+02 5.0400000000e-03 0.0000e+00 -1.0000e+00
       -2 -1    0    0    0  501 -0.0000000000e+00 -0.0000000000e+00 -1.4746210169e+01 1.4746210389e+01 2.5500000000e-03 0.0000e+00 1.0000e+00
      -24  2    1    2    0    0 +0.0000000000e+00 +0.0000000000e+00 +8.9761335621e+01 1.1925375630e+02 7.8513444832e+01 0.0000e+00 0.0000e+00
       66  2    3    3    0    0 +3.0739260796e+01 -1.3109440504e+01 +4.7378447577e+01 6.5280800595e+01 3.0001767398e+01 0.0000e+00 0.0000e+00
       13  1    3    3    0    0 -3.0739260796e+01 +1.3109440504e+01 +4.2382888044e+01 5.3972955705e+01 1.0566000000e-01 0.0000e+00 -1.0000e+00
       13  1    4    4    0    0 +8.2888718891e+00 +7.9445314961e+00 +1.6247722025e+01 1.9895240962e+01 1.0566000000e-01 0.0000e+00 -1.0000e+00
      -13  1    4    4    0    0 +1.0852204689e+01 -7.8115940617e+00 +5.8871630012e+00 1.4610311449e+01 1.0566000000e-01 0.0000e+00 1.0000e+00
       14  1    4    4    0    0 +1.1598184218e+01 -1.3242377938e+01 +2.5243562550e+01 3.0775248185e+01 0.0000000000e+00 0.0000e+00 -1.0000e+00
<mgrwt>
<rscale>  0 0.78513445E+02</rscale>
<asrwt>0</asrwt>
<pdfrwt beam="1">  1        1 0.16078084E-01 0.78513445E+02</pdfrwt>
<pdfrwt beam="2">  1       -2 0.22686478E-02 0.78513445E+02</pdfrwt>
<totfact> 0.15577064E+05</totfact>
</mgrwt>
</event>
<event>
 8      1 +5.0320763e-08 7.96703600e+01 7.81860800e-03 1.32999000e-01
        2 -1    0    0  501    0 +0.0000000000e+00 +0.0000000000e+00 +2.9504470988e+02 2.9504470989e+02 2.5500000000e-03 0.0000e+00 -1.0000e+00
       -1 -1    0    0    0  501 -0.0000000000e+00 -0.0000000000e+00 -5.3783081978e+00 5.3783105593e+00 5.0400000000e-03 0.0000e+00 1.0000e+00
       24  2    1    2    0    0 -8.8817841970e-16 +0.0000000000e+00 +2.8966640168e+02 3.0042302045e+02 7.9670364333e+01 0.0000e+00 0.0000e+00
       66  2    3    3    0    0 -6.0030969451e+00 +1.9770371550e+01 +2.6807378277e+02 2.7053728606e+02 2.9999422986e+01 0.0000e+00 0.0000e+00
      -13  1    3    3    0    0 +6.0030969451e+00 -1.9770371550e+01 +2.1592618914e+01 2.9885734386e+01 1.0566000000e-01 0.0000e+00 1.0000e+00
       13  1    4    4    0    0 +9.2161346984e+00 +1.0431748680e+01 +1.1657993727e+02 1.1740805533e+02 1.0566000000e-01 0.0000e+00 1.0000e+00
      -13  1    4    4    0    0 -9.3602979229e+00 -6.3143926601e-01 +4.2479922221e+01 4.3503664773e+01 1.0566000000e-01 0.0000e+00 -1.0000e+00
       14  1    4    4    0    0 -5.8589337206e+00 +9.9700621360e+00 +1.0901392327e+02 1.0962556596e+02 0.0000000000e+00 0.0000e+00 -1.0000e+00
<mgrwt>
<rscale>  0 0.79670364E+02</rscale>
<asrwt>0</asrwt>
<pdfrwt beam="1">  1        2 0.45391508E-01 0.79670364E+02</pdfrwt>
<pdfrwt beam="2">  1       -1 0.82743195E-03 0.79670364E+02</pdfrwt>
<totfact> 0.25617004E+05</totfact>
</mgrwt>
</event>
<event>
 8      1 +5.0320763e-08 8.21885500e+01 7.81860800e-03 1.32295300e-01
       -1 -1    0    0    0  501 -0.0000000000e+00 +0.0000000000e+00 +3.5735135511e+01 3.5735135867e+01 5.0400000000e-03 0.0000e+00 1.0000e+00
        2 -1    0    0  501    0 +0.0000000000e+00 -0.0000000000e+00 -4.7257118873e+01 4.7257118942e+01 2.5500000000e-03 0.0000e+00 -1.0000e+00
       24  2    1    2    0    0 +8.8817841970e-16 -7.1054273576e-15 -1.1521983362e+01 8.2992254809e+01 8.2188553082e+01 0.0000e+00 0.0000e+00
       66  2    3    3    0    0 +6.3814669613e+00 +3.4298528976e+01 -1.3784117069e+01 4.8031696698e+01 2.9998829874e+01 0.0000e+00 0.0000e+00
      -13  1    3    3    0    0 -6.3814669613e+00 -3.4298528976e+01 +2.2621337070e+00 3.4960558111e+01 1.0566000000e-01 0.0000e+00 1.0000e+00
       13  1    4    4    0    0 +4.1653706295e+00 +2.0906735986e+01 -5.1798837815e+00 2.1938192316e+01 1.0566000000e-01 0.0000e+00 -1.0000e+00
      -13  1    4    4    0    0 -3.1707775453e+00 +1.1197463476e+01 -1.3968100734e+01 1.8181199649e+01 1.0566000000e-01 0.0000e+00 1.0000e+00
      -14  1    4    4    0    0 +5.3868738770e+00 +2.1943295136e+00 +5.3638674469e+00 7.9123047318e+00 0.0000000000e+00 0.0000e+00 1.0000e+00
<mgrwt>
<rscale>  0 0.82188553E+02</rscale>
<asrwt>0</asrwt>
<pdfrwt beam="1">  1        2 0.72703260E-02 0.82188553E+02</pdfrwt>
<pdfrwt beam="2">  1       -1 0.54977132E-02 0.82188553E+02</pdfrwt>
<totfact> 0.13705864E+05</totfact>
</mgrwt>
</event>
<event>
 8      1 +5.0320763e-08 7.91624400e+01 7.81860800e-03 1.33144500e-01
       -1 -1    0    0    0  501 -0.0000000000e+00 +0.0000000000e+00 +2.0593662384e+01 2.0593663001e+01 5.0400000000e-03 0.0000e+00 1.0000e+00
        4 -1    0    0  501    0 +0.0000000000e+00 -0.0000000000e+00 -7.6050612312e+01 7.6061215695e+01 1.2700000000e+00 0.0000e+00 -1.0000e+00
       24  2    1    2    0    0 -3.5527136788e-15 -1.7763568394e-15 -5.5456949928e+01 9.6654878696e+01 7.9162442360e+01 0.0000e+00 0.0000e+00
       66  2    3    3    0    0 +2.3403470599e+01 -4.6156776564e+00 -6.1113935765e+01 7.2138770337e+01 3.0001035394e+01 0.0000e+00 0.0000e+00
      -13  1    3    3    0    0 -2.3403470599e+01 +4.6156776564e+00 +5.6569858367e+00 2.4516108359e+01 1.0566000000e-01 0.0000e+00 1.0000e+00
       13  1    4    4    0    0 +5.2811457850e+00 +6.6196627333e+00 -1.6426562383e+01 1.8481167476e+01 1.0566000000e-01 0.0000e+00 -1.0000e+00
      -13  1    4    4    0    0 -1.0585448194e+00 -2.5287756160e+00 +1.3295629929e+00 3.0486267463e+00 1.0566000000e-01 0.0000e+00 1.0000e+00
       14  1    4    4    0    0 +1.9180869633e+01 -8.7065647738e+00 -4.6016936375e+01 5.0608976114e+01 0.0000000000e+00 0.0000e+00 -1.0000e+00
<mgrwt>
<rscale>  0 0.79162442E+02</rscale>
<asrwt>0</asrwt>
<pdfrwt beam="1">  1        4 0.11703921E-01 0.79162442E+02</pdfrwt>
<pdfrwt beam="2">  1       -1 0.31682561E-02 0.79162442E+02</pdfrwt>
<totfact> 0.60575874E+04</totfact>
</mgrwt>
</event>
<event>
 7      1 +5.0320763e-08 1.15332200e+02 7.81860800e-03 1.25100200e-01
       -1 -1    0    0    0  501 -0.0000000000e+00 +0.0000000000e+00 +1.3031866993e+02 1.3031867003e+02 5.0400000000e-03 0.0000e+00 1.0000e+00
        2 -1    0    0  501    0 +0.0000000000e+00 -0.0000000000e+00 -2.5517284863e+01 2.5517284990e+01 2.5500000000e-03 0.0000e+00 -1.0000e+00
       66  2    1    2    0    0 +9.7370229320e+00 -3.2872719110e+01 -1.2706392077e-02 4.5557080297e+01 3.0000368772e+01 0.0000e+00 0.0000e+00
      -13  1    1    2    0    0 -9.7370229320e+00 +3.2872719110e+01 +1.0481409146e+02 1.1027887472e+02 1.0566000000e-01 0.0000e+00 1.0000e+00
       13  1    3    3    0    0 +1.0227399096e+01 -2.7072346570e+01 -1.1931733552e+01 3.1303179881e+01 1.0566000000e-01 0.0000e+00 -1.0000e+00
      -13  1    3    3    0    0 +1.1320321017e+00 -3.9596748034e+00 +1.0796285112e+01 1.1555581227e+01 1.0566000000e-01 0.0000e+00 1.0000e+00
      -14  1    3    3    0    0 -1.6224082658e+00 -1.8406977361e+00 +1.1227420480e+00 2.6983191885e+00 0.0000000000e+00 0.0000e+00 1.0000e+00
<mgrwt>
<rscale>  0 0.11533219E+03</rscale>
<asrwt>0</asrwt>
<pdfrwt beam="1">  1        2 0.39257361E-02 0.11533219E+03</pdfrwt>
<pdfrwt beam="2">  1       -1 0.20049026E-01 0.11533219E+03</pdfrwt>
<totfact> 0.44457736E+04</totfact>
</mgrwt>
</event>
<event>
 8      1 +5.0320763e-08 8.02576100e+01 7.81860800e-03 1.32832200e-01
       -1 -1    0    0    0  501 -0.0000000000e+00 +0.0000000000e+00 +6.7816807180e+00 6.7816825908e+00 5.0400000000e-03 0.0000e+00 1.0000e+00
        2 -1    0    0  501    0 +0.0000000000e+00 -0.0000000000e+00 -2.3745158153e+02 2.3745158154e+02 2.5500000000e-03 0.0000e+00 -1.0000e+00
       24  2    1    2    0    0 +3.5527136788e-15 +0.0000000000e+00 -2.3066990081e+02 2.4423326413e+02 8.0257611285e+01 0.0000e+00 0.0000e+00
       66  2    3    3    0    0 +3.1756795898e+01 +1.3872789381e+00 -1.7242944995e+02 1.7788283151e+02 2.9999465127e+01 0.0000e+00 0.0000e+00
      -13  1    3    3    0    0 -3.1756795898e+01 -1.3872789381e+00 -5.8240450856e+01 6.6350432617e+01 1.0566000000e-01 0.0000e+00 1.0000e+00
       13  1    4    4    0    0 -2.5530297481e+00 -4.1604017072e-01 -5.7843558235e+01 5.7901463226e+01 1.0566000000e-01 0.0000e+00 -1.0000e+00
      -13  1    4    4    0    0 +4.6166766661e+00 -1.2922265538e+00 -8.3348617571e+00 9.6158534437e+00 1.0566000000e-01 0.0000e+00 1.0000e+00
       14  1    4    4    0    0 +2.9693148980e+01 +3.0955456626e+00 -1.0625102996e+02 1.1036551484e+02 0.0000000000e+00 0.0000e+00 -1.0000e+00
<mgrwt>
<rscale>  0 0.80257611E+02</rscale>
<asrwt>0</asrwt>
<pdfrwt beam="1">  1        2 0.36531006E-01 0.80257611E+02</pdfrwt>
<pdfrwt beam="2">  1       -1 0.10433358E-02 0.80257611E+02</pdfrwt>
<totfact> 0.23235772E+05</totfact>
</mgrwt>
</event>
<event>
 8      1 +5.0320763e-08 7.88231100e+01 7.81860800e-03 1.33242500e-01
       -1 -1    0    0    0  501 -0.0000000000e+00 +0.0000000000e+00 +1.9397839152e+02 1.9397839158e+02 5.0400000000e-03 0.0000e+00 1.0000e+00
        2 -1    0    0  501    0 +0.0000000000e+00 -0.0000000000e+00 -8.0074423582e+00 8.0074427642e+00 2.5500000000e-03 0.0000e+00 -1.0000e+00
       24  2    1    2    0    0 +0.0000000000e+00 -3.5527136788e-15 +1.8597094916e+02 2.0198583435e+02 7.8823114285e+01 0.0000e+00 0.0000e+00
       66  2    3    3    0    0 -8.1493763339e+00 +2.9472026322e+01 +7.0139300413e+01 8.2186023473e+01 3.0000138695e+01 0.0000e+00 0.0000e+00
      -13  1    3    3    0    0 +8.1493763339e+00 -2.9472026322e+01 +1.1583164874e+02 1.1979981087e+02 1.0566000000e-01 0.0000e+00 1.0000e+00
       13  1    4    4    0    0 -3.9228795764e+00 +1.7129898648e+01 +1.6572045292e+01 2.4155046286e+01 1.0566000000e-01 0.0000e+00 -1.0000e+00
      -13  1    4    4    0    0 +5.6079363854e+00 -1.0381818918e+00 +1.4435426543e+01 1.5521580965e+01 1.0566000000e-01 0.0000e+00 1.0000e+00
      -14  1    4    4    0    0 -9.8344331429e+00 +1.3380309565e+01 +3.9131828578e+01 4.2509396222e+01 0.0000000000e+00 0.0000e+00 1.0000e+00
<mgrwt>
<rscale>  0 0.78823114E+02</rscale>
<asrwt>0</asrwt>
<pdfrwt beam="1">  1        2 0.12319143E-02 0.78823114E+02</pdfrwt>
<pdfrwt beam="2">  1       -1 0.29842828E-01 0.78823114E+02</pdfrwt>
<totfact> 0.10438115E+05</totfact>
</mgrwt>
</event>
<event>
 8      1 +5.0320763e-08 8.06408500e+01 7.81860800e-03 1.32724300e-01
        4 -1    0    0  501    0 +0.0000000000e+00 +0.0000000000e+00 +8.6482067160e+00 8.7409598673e+00 1.2700000000e+00 0.0000e+00 -1.0000e+00
       -3 -1    0    0    0  501 -0.0000000000e+00 -0.0000000000e+00 -1.8693602293e+02 1.8693605022e+02 1.0100000000e-01 0.0000e+00 1.0000e+00
       24  2    1    2    0    0 +0.0000000000e+00 -3.5527136788e-15 -1.7828781622e+02 1.9567701009e+02 8.0640851090e+01 0.0000e+00 0.0000e+00
       66  2    3    3    0    0 +1.0970727802e+01 -2.5757742111e+01 -5.1569679827e+01 6.5902916364e+01 2.9999072662e+01 0.0000e+00 0.0000e+00
      -13  1    3    3    0    0 -1.0970727802e+01 +2.5757742111e+01 -1.2671813639e+02 1.2977409372e+02 1.0566000000e-01 0.0000e+00 1.0000e+00
       13  1    4    4    0    0 -2.5391982554e+00 +3.6661038163e-01 +2.0046092653e+00 3.2575379191e+00 1.0566000000e-01 0.0000e+00 -1.0000e+00
      -13  1    4    4    0    0 +3.0180033733e+00 -1.0667423554e+01 -8.8820096576e+00 1.4205756905e+01 1.0566000000e-01 0.0000e+00 1.0000e+00
      -14  1    4    4    0    0 +1.0491922684e+01 -1.5456928939e+01 -4.4692279435e+01 4.8439621540e+01 0.0000000000e+00 0.0000e+00 1.0000e+00
<mgrwt>
<rscale>  0 0.80640851E+02</rscale>
<asrwt>0</asrwt>
<pdfrwt beam="1">  1        4 0.13379602E-02 0.80640851E+02</pdfrwt>
<pdfrwt beam="2">  1       -3 0.28759432E-01 0.80640851E+02</pdfrwt>
<totfact> 0.36062513E+04</totfact>
</mgrwt>
</event>
<event>
 8      1 +5.0320763e-08 8.07958500e+01 7.81860800e-03 1.32680800e-01
       -1 -1    0    0    0  501 -0.0000000000e+00 +0.0000000000e+00 +6.6280890874e+00 6.6280910036e+00 5.0400000000e-03 0.0000e+00 1.0000e+00
        2 -1    0    0  501    0 +0.0000000000e+00 -0.0000000000e+00 -2.4622359908e+02 2.4622359909e+02 2.5500000000e-03 0.0000e+00 -1.0000e+00
       24  2    1    2    0    0 +0.0000000000e+00 -8.8817841970e-16 -2.3959550999e+02 2.5285169009e+02 8.0795846280e+01 0.0000e+00 0.0000e+00
       66  2    3    3    0    0 -1.8684635027e+01 -2.1362520736e+00 -2.2805352857e+02 2.3078570591e+02 2.9999183299e+01 0.0000e+00 0.0000e+00
      -13  1    3    3    0    0 +1.8684635027e+01 +2.1362520736e+00 -1.1541981419e+01 2.2065984187e+01 1.0566000000e-01 0.0000e+00 1.0000e+00
       13  1    4    4    0    0 -1.2878728941e+01 -9.7110604515e+00 -1.7876531277e+02 1.7949154456e+02 1.0566000000e-01 0.0000e+00 -1.0000e+00
      -13  1    4    4    0    0 +2.2141004721e+00 -9.7356456933e-01 -1.0383654667e+01 1.0662153495e+01 1.0566000000e-01 0.0000e+00 1.0000e+00
       14  1    4    4    0    0 -8.0200065579e+00 +8.5483729472e+00 -3.8904561134e+01 4.0632007855e+01 0.0000000000e+00 0.0000e+00 -1.0000e+00
<mgrwt>
<rscale>  0 0.80795846E+02</rscale>
<asrwt>0</asrwt>
<pdfrwt beam="1">  1        2 0.37880547E-01 0.80795846E+02</pdfrwt>
<pdfrwt beam="2">  1       -1 0.10197064E-02 0.80795846E+02</pdfrwt>
<totfact> 0.23128425E+05</totfact>
</mgrwt>
</event>
<event>
 8      1 +5.0320763e-08 7.88778300e+01 7.81860800e-03 1.33226600e-01
       -1 -1    0    0    0  501 -0.0000000000e+00 +0.0000000000e+00 +3.3823652154e+00 3.3823689704e+00 5.0400000000e-03 0.0000e+00 1.0000e+00
        2 -1    0    0  501    0 +0.0000000000e+00 -0.0000000000e+00 -4.5986372878e+02 4.5986372878e+02 2.5500000000e-03 0.0000e+00 -1.0000e+00
       24  2    1    2    0    0 +1.7763568394e-15 +1.7763568394e-15 -4.5648136356e+02 4.6324609776e+02 7.8877828353e+01 0.0000e+00 0.0000e+00
       66  2    3    3    0    0 +1.3755186147e+01 +1.5523147685e+01 -4.1750251385e+02 4.1909255714e+02 3.0000818625e+01 0.0000e+00 0.0000e+00
      -13  1    3    3    0    0 -1.3755186147e+01 -1.5523147685e+01 -3.8978849708e+01 4.4153540612e+01 1.0566000000e-01 0.0000e+00 1.0000e+00
       13  1    4    4    0    0 +4.4104186749e+00 +7.1624468612e+00 -2.6447015376e+02 2.6460390366e+02 1.0566000000e-01 0.0000e+00 -1.0000e+00
      -13  1    4    4    0    0 +1.0134303269e+01 +7.2401620334e+00 -5.2885586545e+01 5.4332499273e+01 1.0566000000e-01 0.0000e+00 1.0000e+00
      -14  1    4    4    0    0 -7.8953579639e-01 +1.1205387900e+00 -1.0014677355e+02 1.0015615421e+02 0.0000000000e+00 0.0000e+00 1.0000e+00
<mgrwt>
<rscale>  0 0.78877828E+02</rscale>
<asrwt>0</asrwt>
<pdfrwt beam="1">  1        2 0.70748216E-01 0.78877828E+02</pdfrwt>
<pdfrwt beam="2">  1       -1 0.52036454E-03 0.78877828E+02</pdfrwt>
<totfact> 0.30743792E+05</totfact>
</mgrwt>
</event>
<event>
 8      1 +5.0320763e-08 7.96554700e+01 7.81860800e-03 1.33003200e-01
       -1 -1    0    0    0  501 -0.0000000000e+00 +0.0000000000e+00 +1.0590900603e+02 1.0590900615e+02 5.0400000000e-03 0.0000e+00 1.0000e+00
        2 -1    0    0  501    0 +0.0000000000e+00 -0.0000000000e+00 -1.4977466920e+01 1.4977467137e+01 2.5500000000e-03 0.0000e+00 -1.0000e+00
       24  2    1    2    0    0 +0.0000000000e+00 -8.8817841970e-16 +9.0931539108e+01 1.2088647328e+02 7.9655474504e+01 0.0000e+00 0.0000e+00
       66  2    3    3    0    0 +1.8305077466e+01 -3.5452760396e+00 +8.4442609043e+00 3.6318115888e+01 3.0000919256e+01 0.0000e+00 0.0000e+00
      -13  1    3    3    0    0 -1.8305077466e+01 +3.5452760396e+00 +8.2487278204e+01 8.4568357397e+01 1.0566000000e-01 0.0000e+00 1.0000e+00
       13  1    4    4    0    0 +1.0155731314e+01 -7.8070106879e+00 -2.9539189534e+00 1.3146295890e+01 1.0566000000e-01 0.0000e+00 -1.0000e+00
      -13  1    4    4    0    0 -4.7034362484e+00 +5.3708929756e+00 +2.8048544638e+00 7.6711913349e+00 1.0566000000e-01 0.0000e+00 1.0000e+00
       14  1    4    4    0    0 +1.2852782400e+01 -1.1091583273e+00 +8.5933253939e+00 1.5500628663e+01 0.0000000000e+00 0.0000e+00 -1.0000e+00
<mgrwt>
<rscale>  0 0.79655475E+02</rscale>
<asrwt>0</asrwt>
<pdfrwt beam="1">  1        2 0.23042257E-02 0.79655475E+02</pdfrwt>
<pdfrwt beam="2">  1       -1 0.16293693E-01 0.79655475E+02</pdfrwt>
<totfact> 0.11833645E+05</totfact>
</mgrwt>
</event>
<event>
 8      1 +5.0320763e-08 8.11071200e+01 7.81860800e-03 1.32593900e-01
        3 -1    0    0  501    0 +0.0000000000e+00 +0.0000000000e+00 +2.0681010889e+01 2.0681257515e+01 1.0100000000e-01 0.0000e+00 -1.0000e+00
       -4 -1    0    0    0  501 -0.0000000000e+00 -0.0000000000e+00 -7.9496633917e+01 7.9506777724e+01 1.2700000000e+00 0.0000e+00 1.0000e+00
      -24  2    1    2    0    0 +0.0000000000e+00 +0.0000000000e+00 -5.8815623028e+01 1.0018803524e+02 8.1107119865e+01 0.0000e+00 0.0000e+00
       66  2    3    3    0    0 -2.2244743222e+01 -1.7431005163e+01 -5.8947025442e+01 7.1926807866e+01 3.0000755646e+01 0.0000e+00 0.0000e+00
       13  1    3    3    0    0 +2.2244743222e+01 +1.7431005163e+01 +1.3140241373e-01 2.8261227373e+01 1.0566000000e-01 0.0000e+00 -1.0000e+00
       13  1    4    4    0    0 -1.5513429555e+00 -7.9148489427e+00 -4.6954514147e+00 9.3332698865e+00 1.0566000000e-01 0.0000e+00 1.0000e+00
      -13  1    4    4    0    0 -1.8292363252e+01 +2.5306537991e+00 -2.7115184530e+01 3.2806388983e+01 1.0566000000e-01 0.0000e+00 -1.0000e+00
       14  1    4    4    0    0 -2.4010370145e+00 -1.2046810019e+01 -2.7136389497e+01 2.9787148996e+01 0.0000000000e+00 0.0000e+00 -1.0000e+00
<mgrwt>
<rscale>  0 0.81107120E+02</rscale>
<asrwt>0</asrwt>
<pdfrwt beam="1">  1        3 0.31817181E-02 0.81107120E+02</pdfrwt>
<pdfrwt beam="2">  1       -4 0.12234030E-01 0.81107120E+02</pdfrwt>
<totfact> 0.40693209E+04</totfact>
</mgrwt>
</event>
<event>
 8      1 +5.0320763e-08 7.76127200e+01 7.81860800e-03 1.33596600e-01
       -1 -1    0    0    0  501 -0.0000000000e+00 +0.0000000000e+00 +2.1000195338e+00 2.1000255817e+00 5.0400000000e-03 0.0000e+00 1.0000e+00
        2 -1    0    0  501    0 +0.0000000000e+00 -0.0000000000e+00 -7.1710347686e+02 7.1710347686e+02 2.5500000000e-03 0.0000e+00 -1.0000e+00
       24  2    1    2    0    0 +0.0000000000e+00 +0.0000000000e+00 -7.1500345732e+02 7.1920350244e+02 7.7612717659e+01 0.0000e+00 0.0000e+00
       66  2    3    3    0    0 +1.5517295234e+01 +1.9064867645e+01 -6.1505206534e+02 6.1627368386e+02 2.9999245197e+01 0.0000e+00 0.0000e+00
      -13  1    3    3    0    0 -1.5517295234e+01 -1.9064867645e+01 -9.9951391983e+01 1.0292981858e+02 1.0566000000e-01 0.0000e+00 1.0000e+00
       13  1    4    4    0    0 +4.6288817632e+00 +6.1393122168e+00 -2.5461073300e+02 2.5472682274e+02 1.0566000000e-01 0.0000e+00 -1.0000e+00
      -13  1    4    4    0    0 +3.7906815123e+00 +1.8121201693e+01 -2.8361244370e+02 2.8421607380e+02 1.0566000000e-01 0.0000e+00 1.0000e+00
      -14  1    4    4    0    0 +7.0977319580e+00 -5.1956462645e+00 -7.6828888638e+01 7.7330787326e+01 0.0000000000e+00 0.0000e+00 1.0000e+00
<mgrwt>
<rscale>  0 0.77612718E+02</rscale>
<asrwt>0</asrwt>
<pdfrwt beam="1">  1        2 0.11032342E+00 0.77612718E+02</pdfrwt>
<pdfrwt beam="2">  1       -1 0.32308097E-03 0.77612718E+02</pdfrwt>
<totfact> 0.36384371E+05</totfact>
</mgrwt>
</event>
<event>
 8      1 +5.0320763e-08 7.47197400e+01 7.81860800e-03 1.34474100e-01
        2 -1    0    0  501    0 +0.0000000000e+00 +0.0000000000e+00 +4.9303666095e+01 4.9303666161e+01 2.5500000000e-03 0.0000e+00 -1.0000e+00
       -1 -1    0    0    0  501 -0.0000000000e+00 -0.0000000000e+00 -2.8309456674e+01 2.8309457123e+01 5.0400000000e-03 0.0000e+00 1.0000e+00
       24  2    1    2    0    0 +0.0000000000e+00 +3.5527136788e-15 +2.0994209421e+01 7.7613123284e+01 7.4719743553e+01 0.0000e+00 0.0000e+00
       66  2    3    3    0    0 +1.7990936066e+01 +2.3875234794e+01 +2.1951075814e+01 4.7702801080e+01 3.0000114740e+01 0.0000e+00 0.0000e+00
      -13  1    3    3    0    0 -1.7990936066e+01 -2.3875234794e+01 -9.5686639382e-01 2.9910322204e+01 1.0566000000e-01 0.0000e+00 1.0000e+00
       13  1    4    4    0    0 +1.8970834566e+01 +1.1633980006e+01 +9.7781657821e+00 2.4307730149e+01 1.0566000000e-01 0.0000e+00 -1.0000e+00
      -13  1    4    4    0    0 +5.8976038423e+00 +6.5602356332e+00 +6.8249491205e-01 8.8484680021e+00 1.0566000000e-01 0.0000e+00 1.0000e+00
      -14  1    4    4    0    0 -6.8775023422e+00 +5.6810191553e+00 +1.1490415120e+01 1.4546602928e+01 0.0000000000e+00 0.0000e+00 1.0000e+00
<mgrwt>
<rscale>  0 0.74719744E+02</rscale>
<asrwt>0</asrwt>
<pdfrwt beam="1">  1        2 0.75851793E-02 0.74719744E+02</pdfrwt>
<pdfrwt beam="2">  1       -1 0.43553012E-02 0.74719744E+02</pdfrwt>
<totfact> 0.17946160E+05</totfact>
</mgrwt>
</event>
<event>
 8      1 +5.0320763e-08 7.71426900e+01 7.81860800e-03 1.33736100e-01
        1 -1    0    0  501    0 +0.0000000000e+00 +0.0000000000e+00 +3.7720557425e+01 3.7720557762e+01 5.0400000000e-03 0.0000e+00 -1.0000e+00
       -2 -1    0    0    0  501 -0.0000000000e+00 -0.0000000000e+00 -3.9441318317e+01 3.9441318399e+01 2.5500000000e-03 0.0000e+00 1.0000e+00
      -24  2    1    2    0    0 -1.7763568394e-15 +0.0000000000e+00 -1.7207608915e+00 7.7161876161e+01 7.7142686722e+01 0.0000e+00 0.0000e+00
       66  2    3    3    0    0 +6.5682606614e+00 -3.2061807930e+01 -2.0836459491e-01 4.4399091138e+01 3.0002238286e+01 0.0000e+00 0.0000e+00
       13  1    3    3    0    0 -6.5682606614e+00 +3.2061807930e+01 -1.5123962966e+00 3.2762785023e+01 1.0566000000e-01 0.0000e+00 -1.0000e+00
       13  1    4    4    0    0 -1.1641240845e+00 -2.4309786511e+00 -1.6184516923e+00 3.1456942004e+00 1.0566000000e-01 0.0000e+00 -1.0000e+00
      -13  1    4    4    0    0 -7.8159146152e+00 -1.0316600560e+01 -7.4364099311e+00 1.4927562597e+01 1.0566000000e-01 0.0000e+00 1.0000e+00
       14  1    4    4    0    0 +1.5548299361e+01 -1.9314228719e+01 +8.8464970285e+00 2.6325834340e+01 0.0000000000e+00 0.0000e+00 -1.0000e+00
<mgrwt>
<rscale>  0 0.77142687E+02</rscale>
<asrwt>0</asrwt>
<pdfrwt beam="1">  1        1 0.58031628E-02 0.77142687E+02</pdfrwt>
<pdfrwt beam="2">  1       -2 0.60678951E-02 0.77142687E+02</pdfrwt>
<totfact> 0.13933644E+05</totfact>
</mgrwt>
</event>
<event>
 8      1 +5.0320763e-08 7.99452400e+01 7.81860800e-03 1.32920700e-01
       -1 -1    0    0    0  501 -0.0000000000e+00 +0.0000000000e+00 +3.7149467323e+01 3.7149467665e+01 5.0400000000e-03 0.0000e+00 1.0000e+00
        2 -1    0    0  501    0 +0.0000000000e+00 -0.0000000000e+00 -4.3010316180e+01 4.3010316256e+01 2.5500000000e-03 0.0000e+00 -1.0000e+00
       24  2    1    2    0    0 +0.0000000000e+00 +0.0000000000e+00 -5.8608488565e+00 8.0159783921e+01 7.9945240064e+01 0.0000e+00 0.0000e+00
       66  2    3    3    0    0 -1.4062168467e+01 +2.2576566399e+01 -2.5127984916e+01 4.7316525429e+01 2.9999867006e+01 0.0000e+00 0.0000e+00
      -13  1    3    3    0    0 +1.4062168467e+01 -2.2576566399e+01 +1.9267136060e+01 3.2843258492e+01 1.0566000000e-01 0.0000e+00 1.0000e+00
       13  1    4    4    0    0 -1.3625160578e+01 +2.0925050410e+01 -2.2600140185e+01 3.3679077122e+01 1.0566000000e-01 0.0000e+00 -1.0000e+00
      -13  1    4    4    0    0 +4.6324564913e-01 +6.3365540851e+00 +2.3870488362e+00 6.7879069223e+00 1.0566000000e-01 0.0000e+00 1.0000e+00
      -14  1    4    4    0    0 -9.0025353827e-01 -4.6850380960e+00 -4.9148935680e+00 6.8495413846e+00 0.0000000000e+00 0.0000e+00 1.0000e+00
<mgrwt>
<rscale>  0 0.79945240E+02</rscale>
<asrwt>0</asrwt>
<pdfrwt beam="1">  1        2 0.66169717E-02 0.79945240E+02</pdfrwt>
<pdfrwt beam="2">  1       -1 0.57153027E-02 0.79945240E+02</pdfrwt>
<totfact> 0.14498437E+05</totfact>
</mgrwt>
</event>
<event>
 8      1 +5.0320763e-08 8.02400700e+01 7.81860800e-03 1.32837200e-01
        2 -1    0    0  501    0 +0.0000000000e+00 +0.0000000000e+00 +2.7432184452e+02 2.7432184453e+02 2.5500000000e-03 0.0000e+00 -1.0000e+00
       -1 -1    0    0    0  501 -0.0000000000e+00 -0.0000000000e+00 -5.8676214962e+00 5.8676236608e+00 5.0400000000e-03 0.0000e+00 1.0000e+00
       24  2    1    2    0    0 +8.8817841970e-16 +3.5527136788e-15 +2.6845422302e+02 2.8018946819e+02 8.0240066219e+01 0.0000e+00 0.0000e+00
       66  2    3    3    0    0 +7.7118236503e+00 +2.6391776086e+01 +2.2582355142e+02 2.2946094176e+02 3.0000822432e+01 0.0000e+00 0.0000e+00
      -13  1    3    3    0    0 -7.7118236503e+00 -2.6391776086e+01 +4.2630671601e+01 5.0728526434e+01 1.0566000000e-01 0.0000e+00 1.0000e+00
       13  1    4    4    0    0 +1.4340829146e+01 +1.1160593190e+01 +1.0722359787e+02 1.0875260607e+02 1.0566000000e-01 0.0000e+00 -1.0000e+00
      -13  1    4    4    0    0 -1.4910630939e-01 +1.5405819264e+01 +9.4691098655e+01 9.5936316526e+01 1.0566000000e-01 0.0000e+00 1.0000e+00
      -14  1    4    4    0    0 -6.4798991865e+00 -1.7463636795e-01 +2.3908854895e+01 2.4772019169e+01 0.0000000000e+00 0.0000e+00 1.0000e+00
<mgrwt>
<rscale>  0 0.80240066E+02</rscale>
<asrwt>0</asrwt>
<pdfrwt beam="1">  1        2 0.42203364E-01 0.80240066E+02</pdfrwt>
<pdfrwt beam="2">  1       -1 0.90271111E-03 0.80240066E+02</pdfrwt>
<totfact> 0.24487942E+05</totfact>
</mgrwt>
</event>
<event>
 8      1 +5.0320763e-08 8.45372000e+01 7.81860800e-03 1.31664700e-01
       -1 -1    0    0    0  501 -0.0000000000e+00 +0.0000000000e+00 +1.3776142990e+00 1.3776235184e+00 5.0400000000e-03 0.0000e+00 1.0000e+00
        2 -1    0    0  501    0 +0.0000000000e+00 -0.0000000000e+00 -1.2969004039e+03 1.2969004039e+03 2.5500000000e-03 0.0000e+00 -1.0000e+00
       24  2    1    2    0    0 +0.0000000000e+00 +1.7763568394e-15 -1.2955227896e+03 1.2982780274e+03 8.4537199555e+01 0.0000e+00 0.0000e+00
       66  2    3    3    0    0 +3.7185633318e+00 -1.1384875178e+01 -1.2660831484e+03 1.2664952218e+03 3.0002750625e+01 0.0000e+00 0.0000e+00
      -13  1    3    3    0    0 -3.7185633318e+00 +1.1384875178e+01 -2.9439641209e+01 3.1782805644e+01 1.0566000000e-01 0.0000e+00 1.0000e+00
       13  1    4    4    0    0 -1.2186984328e+00 +4.7941511033e+00 -4.9626645784e+01 4.9872680362e+01 1.0566000000e-01 0.0000e+00 -1.0000e+00
      -13  1    4    4    0    0 -2.5557191371e+00 -8.1398187912e+00 -3.9232391091e+02 3.9241667980e+02 1.0566000000e-01 0.0000e+00 1.0000e+00
       14  1    4    4    0    0 +7.4929809017e+00 -8.0392074899e+00 -8.2413259172e+02 8.2420586163e+02 0.0000000000e+00 0.0000e+00 -1.0000e+00
<mgrwt>
<rscale>  0 0.84537200E+02</rscale>
<asrwt>0</asrwt>
<pdfrwt beam="1">  1        2 0.19952216E+00 0.84537200E+02</pdfrwt>
<pdfrwt beam="2">  1       -1 0.21194241E-03 0.84537200E+02</pdfrwt>
<totfact> 0.29998053E+05</totfact>
</mgrwt>
</event>
<event>
 8      1 +5.0320763e-08 7.77953200e+01 7.81860800e-03 1.33542700e-01
       -4 -1    0    0    0  501 -0.0000000000e+00 +0.0000000000e+00 +6.3299547699e+00 6.4561000139e+00 1.2700000000e+00 0.0000e+00 1.0000e+00
        3 -1    0    0  501    0 +0.0000000000e+00 -0.0000000000e+00 -2.3660496345e+02 2.3660498501e+02 1.0100000000e-01 0.0000e+00 -1.0000e+00
      -24  2    1    2    0    0 +1.7763568394e-15 +3.5527136788e-15 -2.3027500868e+02 2.4306108503e+02 7.7795317527e+01 0.0000e+00 0.0000e+00
       66  2    3    3    0    0 -8.9896042892e+00 +3.0055285908e+01 -1.6537537729e+02 1.7097706103e+02 3.0000113134e+01 0.0000e+00 0.0000e+00
       13  1    3    3    0    0 +8.9896042892e+00 -3.0055285908e+01 -6.4899631391e+01 7.2084023992e+01 1.0566000000e-01 0.0000e+00 -1.0000e+00
       13  1    4    4    0    0 +2.9805190844e+00 +3.1800423678e+00 -6.2036330240e+01 6.2189336683e+01 1.0566000000e-01 0.0000e+00 -1.0000e+00
      -13  1    4    4    0    0 -8.6768306218e+00 +1.7309965748e+01 -8.9928029574e+01 9.1989042668e+01 1.0566000000e-01 0.0000e+00 1.0000e+00
       14  1    4    4    0    0 -3.2932927518e+00 +9.5652777920e+00 -1.3411017480e+01 1.6798681681e+01 0.0000000000e+00 0.0000e+00 -1.0000e+00
<mgrwt>
<rscale>  0 0.77795318E+02</rscale>
<asrwt>0</asrwt>
<pdfrwt beam="1">  1        3 0.36400820E-01 0.77795318E+02</pdfrwt>
<pdfrwt beam="2">  1       -4 0.98380505E-03 0.77795318E+02</pdfrwt>
<totfact> 0.36560545E+04</totfact>
</mgrwt>
</event>
<event>
 8      1 +5.0320763e-08 7.90813700e+01 7.81860800e-03 1.33167900e-01
        4 -1    0    0  501    0 +0.0000000000e+00 +0.0000000000e+00 +7.3869354893e+01 7.3880271333e+01 1.2700000000e+00 0.0000e+00 -1.0000e+00
       -3 -1    0    0    0  501 -0.0000000000e+00 -0.0000000000e+00 -2.1158107290e+01 2.1158348355e+01 1.0100000000e-01 0.0000e+00 1.0000e+00
       24  2    1    2    0    0 +4.4408920985e-16 -1.7763568394e-15 +5.2711247602e+01 9.5038619688e+01 7.9081373334e+01 0.0000e+00 0.0000e+00
       66  2    3    3    0    0 -2.0156821479e+00 -1.2633549886e+01 +6.7811804967e+01 7.5247016569e+01 3.0000050874e+01 0.0000e+00 0.0000e+00
      -13  1    3    3    0    0 +2.0156821479e+00 +1.2633549886e+01 -1.5100557365e+01 1.9791603119e+01 1.0566000000e-01 0.0000e+00 1.0000e+00
       13  1    4    4    0    0 -8.3502250557e-01 +2.5165478804e-01 +1.2672938861e+01 1.2703351374e+01 1.0566000000e-01 0.0000e+00 -1.0000e+00
      -13  1    4    4    0    0 +1.2630943027e+01 -6.9212628305e+00 +2.9157473230e+01 3.2520978000e+01 1.0566000000e-01 0.0000e+00 1.0000e+00
       14  1    4    4    0    0 -1.3811602669e+01 -5.9639418441e+00 +2.5981392876e+01 3.0022687195e+01 0.0000000000e+00 0.0000e+00 -1.0000e+00
<mgrwt>
<rscale>  0 0.79081373E+02</rscale>
<asrwt>0</asrwt>
<pdfrwt beam="1">  1        4 0.11368288E-01 0.79081373E+02</pdfrwt>
<pdfrwt beam="2">  1       -3 0.32551172E-02 0.79081373E+02</pdfrwt>
<totfact> 0.44125306E+04</totfact>
</mgrwt>
</event>
<event>
 8      1 +5.0320763e-08 7.89542700e+01 7.81860800e-03 1.33204600e-01
       -2 -1    0    0    0  501 -0.0000000000e+00 +0.0000000000e+00 +8.7403491237e+00 8.7403494957e+00 2.5500000000e-03 0.0000e+00 1.0000e+00
        1 -1    0    0  501    0 +0.0000000000e+00 -0.0000000000e+00 -1.7830455386e+02 1.7830455393e+02 5.0400000000e-03 0.0000e+00 -1.0000e+00
      -24  2    1    2    0    0 +0.0000000000e+00 -3.5527136788e-15 -1.6956420474e+02 1.8704490343e+02 7.8954267588e+01 0.0000e+00 0.0000e+00
       66  2    3    3    0    0 -1.7611174525e+01 +1.7877073838e+01 -4.3459967805e+01 5.8467949919e+01 2.9999818817e+01 0.0000e+00 0.0000e+00
       13  1    3    3    0    0 +1.7611174525e+01 -1.7877073838e+01 -1.2610423694e+02 1.2857695351e+02 1.0566000000e-01 0.0000e+00 -1.0000e+00
       13  1    4    4    0    0 +2.2767171564e+00 +7.0805152810e+00 -9.5133737131e+00 1.2076116143e+01 1.0566000000e-01 0.0000e+00 -1.0000e+00
      -13  1    4    4    0    0 -4.4806925303e+00 +9.2604374775e+00 -1.4430297262e+00 1.0388734603e+01 1.0566000000e-01 0.0000e+00 1.0000e+00
       14  1    4    4    0    0 -1.5407199151e+01 +1.5361210797e+00 -3.2503564365e+01 3.6003099174e+01 0.0000000000e+00 0.0000e+00 -1.0000e+00
<mgrwt>
<rscale>  0 0.78954268E+02</rscale>
<asrwt>0</asrwt>
<pdfrwt beam="1">  1        1 0.27431467E-01 0.78954268E+02</pdfrwt>
<pdfrwt beam="2">  1       -2 0.13446693E-02 0.78954268E+02</pdfrwt>
<totfact> 0.16889581E+05</totfact>
</mgrwt>
</event>
<event>
 8      1 +5.0320763e-08 8.25081800e+01 7.81860800e-03 1.32208100e-01
        1 -1    0    0  501    0 +0.0000000000e+00 +0.0000000000e+00 +1.1857685664e+01 1.1857686735e+01 5.0400000000e-03 0.0000e+00 -1.0000e+00
       -2 -1    0    0    0  501 -0.0000000000e+00 -0.0000000000e+00 -1.4352714956e+02 1.4352714959e+02 2.5500000000e-03 0.0000e+00 1.0000e+00
      -24  2    1    2    0    0 -8.8817841970e-16 +0.0000000000e+00 -1.3166946390e+02 1.5538483632e+02 8.2508179199e+01 0.0000e+00 0.0000e+00
       66  2    3    3    0    0 -2.2263252755e+00 -3.2206827929e+01 -1.0367769518e+02 1.1265561249e+02 2.9999770949e+01 0.0000e+00 0.0000e+00
       13  1    3    3    0    0 +2.2263252755e+00 +3.2206827929e+01 -2.7991768718e+01 4.2729223834e+01 1.0566000000e-01 0.0000e+00 -1.0000e+00
       13  1    4    4    0    0 +4.8511742282e+00 -1.7649869960e+00 -4.7251122865e+00 6.9990656979e+00 1.0566000000e-01 0.0000e+00 -1.0000e+00
      -13  1    4    4    0    0 +6.6663385730e+00 -1.2977480390e+01 -4.4999205944e+01 4.7305335501e+01 1.0566000000e-01 0.0000e+00 1.0000e+00
       14  1    4    4    0    0 -1.3743838077e+01 -1.7464360543e+01 -5.3953376951e+01 5.8351211287e+01 0.0000000000e+00 0.0000e+00 -1.0000e+00
<mgrwt>
<rscale>  0 0.82508179E+02</rscale>
<asrwt>0</asrwt>
<pdfrwt beam="1">  1        1 0.18242595E-02 0.82508179E+02</pdfrwt>
<pdfrwt beam="2">  1       -2 0.22081099E-01 0.82508179E+02</pdfrwt>
<totfact> 0.88544490E+04</totfact>
</mgrwt>
</event>
<event>
 8      1 +5.0320763e-08 7.46260600e+01 7.81860800e-03 1.34503300e-01
       -3 -1    0    0    0  501 -0.0000000000e+00 +0.0000000000e+00 +1.6235661590e+00 1.6267046667e+00 1.0100000000e-01 0.0000e+00 1.0000e+00
        2 -1    0    0  501    0 +0.0000000000e+00 -0.0000000000e+00 -8.5670380642e+02 8.5670380642e+02 2.5500000000e-03 0.0000e+00 -1.0000e+00
       24  2    1    2    0    0 +0.0000000000e+00 +3.5527136788e-15 -8.5508024026e+02 8.5833051109e+02 7.4626061025e+01 0.0000e+00 0.0000e+00
       66  2    3    3    0    0 +5.1640463325e+00 -1.5529618643e+01 -8.0327569036e+02 8.0400225892e+02 2.9999353180e+01 0.0000e+00 0.0000e+00
      -13  1    3    3    0    0 -5.1640463325e+00 +1.5529618643e+01 -5.1804549902e+01 5.4328252174e+01 1.0566000000e-01 0.0000e+00 1.0000e+00
       13  1    4    4    0    0 +1.1552092170e+01 -1.2148099698e+01 -5.0769960675e+02 5.0797630754e+02 1.0566000000e-01 0.0000e+00 -1.0000e+00
      -13  1    4    4    0    0 -2.7900738910e+00 -8.5854922947e-01 -1.0046389239e+01 1.0462443304e+01 1.0566000000e-01 0.0000e+00 1.0000e+00
      -14  1    4    4    0    0 -3.5979719461e+00 -2.5229697154e+00 -2.8552969437e+02 2.8556350807e+02 0.0000000000e+00 0.0000e+00 1.0000e+00
<mgrwt>
<rscale>  0 0.74626061E+02</rscale>
<asrwt>0</asrwt>
<pdfrwt beam="1">  1        2 0.13180022E+00 0.74626061E+02</pdfrwt>
<pdfrwt beam="2">  1       -3 0.25002198E-03 0.74626061E+02</pdfrwt>
<totfact> 0.35855551E+05</totfact>
</mgrwt>
</event>
<event>
 8      1 +5.0320763e-08 8.18493400e+01 7.81860800e-03 1.32388400e-01
       -2 -1    0    0    0  501 -0.0000000000e+00 +0.0000000000e+00 +9.6554706781e+00 9.6554710148e+00 2.5500000000e-03 0.0000e+00 1.0000e+00
        1 -1    0    0  501    0 +0.0000000000e+00 -0.0000000000e+00 -1.7345904974e+02 1.7345904981e+02 5.0400000000e-03 0.0000e+00 -1.0000e+00
      -24  2    1    2    0    0 +0.0000000000e+00 -1.7763568394e-15 -1.6380357906e+02 1.8311452082e+02 8.1849344679e+01 0.0000e+00 0.0000e+00
       66  2    3    3    0    0 -3.2659702428e+01 +1.3614325349e+01 -8.8984419535e+01 1.0035025430e+02 2.9999009999e+01 0.0000e+00 0.0000e+00
       13  1    3    3    0    0 +3.2659702428e+01 -1.3614325349e+01 -7.4819159523e+01 8.2764266523e+01 1.0566000000e-01 0.0000e+00 -1.0000e+00
       13  1    4    4    0    0 -1.7065229843e+00 +1.0544758072e+01 -2.8327087241e+01 3.0274398080e+01 1.0566000000e-01 0.0000e+00 -1.0000e+00
      -13  1    4    4    0    0 -1.1505637553e+01 -5.3929576446e+00 -1.4507454855e+01 1.9285774500e+01 1.0566000000e-01 0.0000e+00 1.0000e+00
      -14  1    4    4    0    0 -1.9447541890e+01 +8.4625249210e+00 -4.6149877439e+01 5.0790081721e+01 0.0000000000e+00 0.0000e+00 1.0000e+00
<mgrwt>
<rscale>  0 0.81849345E+02</rscale>
<asrwt>0</asrwt>
<pdfrwt beam="1">  1        1 0.26686005E-01 0.81849345E+02</pdfrwt>
<pdfrwt beam="2">  1       -2 0.14854572E-02 0.81849345E+02</pdfrwt>
<totfact> 0.15264359E+05</totfact>
</mgrwt>
</event>
<event>
 8      1 +5.0320763e-08 8.04812600e+01 7.81860800e-03 1.32769100e-01
       -3 -1    0    0    0  501 -0.0000000000e+00 +0.0000000000e+00 +2.4455469093e+01 2.4455677655e+01 1.0100000000e-01 0.0000e+00 1.0000e+00
        4 -1    0    0  501    0 +0.0000000000e+00 -0.0000000000e+00 -6.6191608527e+01 6.6203790974e+01 1.2700000000e+00 0.0000e+00 -1.0000e+00
       24  2    1    2    0    0 -1.7763568394e-15 +0.0000000000e+00 -4.1736139434e+01 9.0659468629e+01 8.0481264386e+01 0.0000e+00 0.0000e+00
       66  2    3    3    0    0 +1.0503728732e+01 -2.9346759362e+01 -4.0814541569e+01 5.9475801285e+01 2.9999725542e+01 0.0000e+00 0.0000e+00
      -13  1    3    3    0    0 -1.0503728732e+01 +2.9346759362e+01 -9.2159786467e-01 3.1183667344e+01 1.0566000000e-01 0.0000e+00 1.0000e+00
       13  1    4    4    0    0 -3.3404216933e-01 +6.6711764303e-01 -1.5582027068e+01 1.5600235950e+01 1.0566000000e-01 0.0000e+00 -1.0000e+00
      -13  1    4    4    0    0 +4.9414743251e+00 -2.4236356104e+01 -1.0261121152e+01 2.6779113074e+01 1.0566000000e-01 0.0000e+00 1.0000e+00
      -14  1    4    4    0    0 +5.8962965760e+00 -5.7775209016e+00 -1.4971393350e+01 1.7096452261e+01 0.0000000000e+00 0.0000e+00 1.0000e+00
<mgrwt>
<rscale>  0 0.80481264E+02</rscale>
<asrwt>0</asrwt>
<pdfrwt beam="1">  1        4 0.10186797E-01 0.80481264E+02</pdfrwt>
<pdfrwt beam="2">  1       -3 0.37624021E-02 0.80481264E+02</pdfrwt>
<totfact> 0.42687748E+04</totfact>
</mgrwt>
</event>
<event>
 8      1 +5.0320763e-08 7.67803900e+01 7.81860800e-03 1.33844500e-01
        3 -1    0    0  501    0 +0.0000000000e+00 +0.0000000000e+00 +4.2848598180e+01 4.2848717215e+01 1.0100000000e-01 0.0000e+00 -1.0000e+00
       -4 -1    0    0    0  501 -0.0000000000e+00 -0.0000000000e+00 -3.4374446211e+01 3.4397898952e+01 1.2700000000e+00 0.0000e+00 1.0000e+00
      -24  2    1    2    0    0 +3.5527136788e-15 +0.0000000000e+00 +8.4741519687e+00 7.7246616168e+01 7.6780391102e+01 0.0000e+00 0.0000e+00
       66  2    3    3    0    0 -1.7634229899e+01 +2.7291298204e+01 +6.4330240879e+00 4.4689614020e+01 2.9999946343e+01 0.0000e+00 0.0000e+00
       13  1    3    3    0    0 +1.7634229899e+01 -2.7291298204e+01 +2.0411278808e+00 3.2557002148e+01 1.0566000000e-01 0.0000e+00 -1.0000e+00
       13  1    4    4    0    0 -6.7521977743e+00 -5.4680784950e+00 +3.0446699172e+00 9.2072382477e+00 1.0566000000e-01 0.0000e+00 -1.0000e+00
      -13  1    4    4    0    0 -1.1004694017e+01 +2.2936537286e+01 +3.3418030519e+00 2.5658660230e+01 1.0566000000e-01 0.0000e+00 1.0000e+00
       14  1    4    4    0    0 +1.2266189272e-01 +9.8228394125e+00 +4.6551118920e-02 9.8237155430e+00 0.0000000000e+00 0.0000e+00 -1.0000e+00
<mgrwt>
<rscale>  0 0.76780391E+02</rscale>
<asrwt>0</asrwt>
<pdfrwt beam="1">  1        3 0.65921131E-02 0.76780391E+02</pdfrwt>
<pdfrwt beam="2">  1       -4 0.52916277E-02 0.76780391E+02</pdfrwt>
<totfact> 0.50848746E+04</totfact>
</mgrwt>
</event>
<event>
 8      1 +5.0320763e-08 8.18873500e+01 7.81860800e-03 1.32377900e-01
       -1 -1    0    0    0  501 -0.0000000000e+00 +0.0000000000e+00 +1.6149143625e+02 1.6149143633e+02 5.0400000000e-03 0.0000e+00 1.0000e+00
        2 -1    0    0  501    0 +0.0000000000e+00 -0.0000000000e+00 -1.0380639377e+01 1.0380639690e+01 2.5500000000e-03 0.0000e+00 -1.0000e+00
       24  2    1    2    0    0 +3.5527136788e-15 +0.0000000000e+00 +1.5111079687e+02 1.7187207602e+02 8.1887346908e+01 0.0000e+00 0.0000e+00
       66  2    3    3    0    0 +2.5916190038e+01 +1.4464120827e+01 +4.5013828389e+01 6.1702036613e+01 3.0000614636e+01 0.0000e+00 0.0000e+00
      -13  1    3    3    0    0 -2.5916190038e+01 -1.4464120827e+01 +1.0609696848e+02 1.1017003941e+02 1.0566000000e-01 0.0000e+00 1.0000e+00
       13  1    4    4    0    0 +1.3171401214e+01 -3.2196351004e+00 +2.6850282842e+01 3.0079905466e+01 1.0566000000e-01 0.0000e+00 -1.0000e+00
      -13  1    4    4    0    0 +4.0289583458e+00 +7.7605840651e+00 +1.6006899061e+01 1.8239823244e+01 1.0566000000e-01 0.0000e+00 1.0000e+00
       14  1    4    4    0    0 +8.7158304783e+00 +9.9231718625e+00 +2.1566464863e+00 1.3382307903e+01 0.0000000000e+00 0.0000e+00 -1.0000e+00
<mgrwt>
<rscale>  0 0.81887347E+02</rscale>
<asrwt>0</asrwt>
<pdfrwt beam="1">  1        2 0.15970216E-02 0.81887347E+02</pdfrwt>
<pdfrwt beam="2">  1       -1 0.24844835E-01 0.81887347E+02</pdfrwt>
<totfact> 0.99751856E+04</totfact>
</mgrwt>
</event>
<event>
 8      1 +5.0320763e-08 7.96748000e+01 7.81860800e-03 1.32997700e-01
        4 -1    0    0  501    0 +0.0000000000e+00 +0.0000000000e+00 +2.1914295701e+01 2.1951065032e+01 1.2700000000e+00 0.0000e+00 -1.0000e+00
       -3 -1    0    0    0  501 -0.0000000000e+00 -0.0000000000e+00 -7.2340074240e+01 7.2340144747e+01 1.0100000000e-01 0.0000e+00 1.0000e+00
       24  2    1    2    0    0 +0.0000000000e+00 +0.0000000000e+00 -5.0425778539e+01 9.4291209780e+01 7.9674795892e+01 0.0000e+00 0.0000e+00
       66  2    3    3    0    0 -2.6096437325e+01 -2.0097017316e+01 -1.7940780649e+01 4.8028909815e+01 2.9999840360e+01 0.0000e+00 0.0000e+00
      -13  1    3    3    0    0 +2.6096437325e+01 +2.0097017316e+01 -3.2484997890e+01 4.6262299965e+01 1.0566000000e-01 0.0000e+00 1.0000e+00
       13  1    4    4    0    0 +2.2389190481e+00 -9.8685558066e+00 -4.4531985433e+00 1.1056368912e+01 1.0566000000e-01 0.0000e+00 -1.0000e+00
      -13  1    4    4    0    0 -9.8672403671e+00 +4.4550741384e+00 -3.9906094066e+00 1.1538901400e+01 1.0566000000e-01 0.0000e+00 1.0000e+00
       14  1    4    4    0    0 -1.8468116006e+01 -1.4683535648e+01 -9.4969726996e+00 2.5433639504e+01 0.0000000000e+00 0.0000e+00 -1.0000e+00
<mgrwt>
<rscale>  0 0.79674796E+02</rscale>
<asrwt>0</asrwt>
<pdfrwt beam="1">  1        4 0.33751161E-02 0.79674796E+02</pdfrwt>
<pdfrwt beam="2">  1       -3 0.11129265E-01 0.79674796E+02</pdfrwt>
<totfact> 0.44862172E+04</totfact>
</mgrwt>
</event>
<event>
 8      1 +5.0320763e-08 7.96083400e+01 7.81860800e-03 1.33016700e-01
        2 -1    0    0  501    0 +0.0000000000e+00 +0.0000000000e+00 +1.3278747600e+03 1.3278747600e+03 2.5500000000e-03 0.0000e+00 -1.0000e+00
       -1 -1    0    0    0  501 -0.0000000000e+00 -0.0000000000e+00 -1.1931583110e+00 1.1931689556e+00 5.0400000000e-03 0.0000e+00 1.0000e+00
       24  2    1    2    0    0 +0.0000000000e+00 -8.8817841970e-16 +1.3266816017e+03 1.3290679290e+03 7.9608338288e+01 0.0000e+00 0.0000e+00
       66  2    3    3    0    0 +1.2743650520e+01 +6.0037861118e+00 +1.2769370160e+03 1.2773670484e+03 2.9999792552e+01 0.0000e+00 0.0000e+00
      -13  1    3    3    0    0 -1.2743650520e+01 -6.0037861118e+00 +4.9744585721e+01 5.1700880542e+01 1.0566000000e-01 0.0000e+00 1.0000e+00
       13  1    4    4    0    0 +9.2357169138e+00 -2.7380291245e+00 +2.8070209105e+02 2.8086735366e+02 1.0566000000e-01 0.0000e+00 -1.0000e+00
      -13  1    4    4    0    0 -3.8948904969e+00 +7.1020684192e+00 +1.4184296200e+02 1.4207408835e+02 1.0566000000e-01 0.0000e+00 1.0000e+00
       14  1    4    4    0    0 +7.4028241032e+00 +1.6397468170e+00 +8.5439196294e+02 8.5442560643e+02 0.0000000000e+00 0.0000e+00 -1.0000e+00
<mgrwt>
<rscale>  0 0.79608338E+02</rscale>
<asrwt>0</asrwt>
<pdfrwt beam="1">  1        2 0.20428868E+00 0.79608338E+02</pdfrwt>
<pdfrwt beam="2">  1       -1 0.18356340E-03 0.79608338E+02</pdfrwt>
<totfact> 0.34908138E+05</totfact>
</mgrwt>
</event>
<event>
 8      1 +5.0320763e-08 8.19259300e+01 7.81860800e-03 1.32367300e-01
       -2 -1    0    0    0  501 -0.0000000000e+00 +0.0000000000e+00 +6.4800130402e+00 6.4800135419e+00 2.5500000000e-03 0.0000e+00 1.0000e+00
        1 -1    0    0  501    0 +0.0000000000e+00 -0.0000000000e+00 -2.5894459699e+02 2.5894459704e+02 5.0400000000e-03 0.0000e+00 -1.0000e+00
      -24  2    1    2    0    0 +8.8817841970e-16 +3.5527136788e-15 -2.5246458395e+02 2.6542461058e+02 8.1925928455e+01 0.0000e+00 0.0000e+00
       66  2    3    3    0    0 -5.1939332701e+00 +3.1765015415e+01 -9.4862803915e+01 1.0456962812e+02 2.9997706783e+01 0.0000e+00 0.0000e+00
       13  1    3    3    0    0 +5.1939332701e+00 -3.1765015415e+01 -1.5760178004e+02 1.6085498246e+02 1.0566000000e-01 0.0000e+00 -1.0000e+00
       13  1    4    4    0    0 -3.9867058143e-01 -2.7805944290e+00 -6.3675846749e-01 2.8822333342e+00 1.0566000000e-01 0.0000e+00 -1.0000e+00
      -13  1    4    4    0    0 -3.9480320732e+00 +2.4347445888e+01 -8.2575917115e+01 8.6181078724e+01 1.0566000000e-01 0.0000e+00 1.0000e+00
       14  1    4    4    0    0 -8.4723061548e-01 +1.0198163956e+01 -1.1650128333e+01 1.5506316066e+01 0.0000000000e+00 0.0000e+00 -1.0000e+00
<mgrwt>
<rscale>  0 0.81925928E+02</rscale>
<asrwt>0</asrwt>
<pdfrwt beam="1">  1        1 0.39837622E-01 0.81925928E+02</pdfrwt>
<pdfrwt beam="2">  1       -2 0.99692532E-03 0.81925928E+02</pdfrwt>
<totfact> 0.16465303E+05</totfact>
</mgrwt>
</event>
<event>
 8      1 +5.0320763e-08 8.27503600e+01 7.81860800e-03 1.32142300e-01
       -1 -1    0    0    0  501 -0.0000000000e+00 +0.0000000000e+00 +1.3601613363e+01 1.3601614297e+01 5.0400000000e-03 0.0000e+00 1.0000e+00
        2 -1    0    0  501    0 +0.0000000000e+00 -0.0000000000e+00 -1.2586048424e+02 1.2586048427e+02 2.5500000000e-03 0.0000e+00 -1.0000e+00
       24  2    1    2    0    0 -3.5527136788e-15 +0.0000000000e+00 -1.1225887088e+02 1.3946209857e+02 8.2750364621e+01 0.0000e+00 0.0000e+00
       66  2    3    3    0    0 +2.0414253487e+01 +6.5697728355e+00 -1.1210642875e+02 1.1801593193e+02 3.0000086054e+01 0.0000e+00 0.0000e+00
      -13  1    3    3    0    0 -2.0414253487e+01 -6.5697728355e+00 -1.5244213258e-01 2.1446166631e+01 1.0566000000e-01 0.0000e+00 1.0000e+00
       13  1    4    4    0    0 +5.6132325777e+00 +4.9288562535e+00 -1.7669929342e+01 1.9184357454e+01 1.0566000000e-01 0.0000e+00 -1.0000e+00
      -13  1    4    4    0    0 +1.4649838950e+01 +1.1540507170e+01 -7.0575320771e+01 7.2997864030e+01 1.0566000000e-01 0.0000e+00 1.0000e+00
       14  1    4    4    0    0 +1.5118195919e-01 -9.8995905875e+00 -2.3861178634e+01 2.5833710450e+01 0.0000000000e+00 0.0000e+00 -1.0000e+00
<mgrwt>
<rscale>  0 0.82750365E+02</rscale>
<asrwt>0</asrwt>
<pdfrwt beam="1">  1        2 0.19363151E-01 0.82750365E+02</pdfrwt>
<pdfrwt beam="2">  1       -1 0.20925561E-02 0.82750365E+02</pdfrwt>
<totfact> 0.17322293E+05</totfact>
</mgrwt>
</event>
<event>
 8      1 +5.0320763e-08 8.43362000e+01 7.81860800e-03 1.31717800e-01
       -3 -1    0    0    0  501 -0.0000000000e+00 +0.0000000000e+00 +8.1450399526e+01 8.1450462147e+01 1.0100000000e-01 0.0000e+00 1.0000e+00
        4 -1    0    0  501    0 +0.0000000000e+00 -0.0000000000e+00 -2.1807598348e+01 2.1844547277e+01 1.2700000000e+00 0.0000e+00 -1.0000e+00
       24  2    1    2    0    0 +8.8817841970e-16 +0.0000000000e+00 +5.9642801178e+01 1.0329500942e+02 8.4336203611e+01 0.0000e+00 0.0000e+00
       66  2    3    3    0    0 -1.3163649847e+00 +3.5716936887e+01 +2.2696415790e+01 5.1889961475e+01 3.0000140245e+01 0.0000e+00 0.0000e+00
      -13  1    3    3    0    0 +1.3163649847e+00 -3.5716936887e+01 +3.6946385387e+01 5.1405047949e+01 1.0566000000e-01 0.0000e+00 1.0000e+00
       13  1    4    4    0    0 -2.7336789465e-01 -6.4516760978e-01 -4.9041091969e-01 8.6176455966e-01 1.0566000000e-01 0.0000e+00 -1.0000e+00
      -13  1    4    4    0    0 -1.2179136855e+01 +1.0077486198e+01 +1.3782244855e+01 2.0972566364e+01 1.0566000000e-01 0.0000e+00 1.0000e+00
       14  1    4    4    0    0 +1.1136139764e+01 +2.6284618299e+01 +9.4045818547e+00 3.0055630551e+01 0.0000000000e+00 0.0000e+00 -1.0000e+00
<mgrwt>
<rscale>  0 0.84336204E+02</rscale>
<asrwt>0</asrwt>
<pdfrwt beam="1">  1        4 0.33586188E-02 0.84336204E+02</pdfrwt>
<pdfrwt beam="2">  1       -3 0.12530854E-01 0.84336204E+02</pdfrwt>
<totfact> 0.37820527E+04</totfact>
</mgrwt>
</event>
<event>
 8      1 +5.0320763e-08 7.76608900e+01 7.81860800e-03 1.33582400e-01
       -2 -1    0    0    0  501 -0.0000000000e+00 +0.0000000000e+00 +1.3189912617e+02 1.3189912619e+02 2.5500000000e-03 0.0000e+00 1.0000e+00
        1 -1    0    0  501    0 +0.0000000000e+00 -0.0000000000e+00 -1.1431490167e+01 1.1431491278e+01 5.0400000000e-03 0.0000e+00 -1.0000e+00
      -24  2    1    2    0    0 -1.7763568394e-15 -1.7763568394e-15 +1.2046763600e+02 1.4333061747e+02 7.7660894798e+01 0.0000e+00 0.0000e+00
       66  2    3    3    0    0 -1.5064568186e+01 -8.4913530577e+00 +1.2117150876e+02 1.2602307887e+02 3.0003959454e+01 0.0000e+00 0.0000e+00
       13  1    3    3    0    0 +1.5064568186e+01 +8.4913530577e+00 -7.0387275683e-01 1.7307538596e+01 1.0566000000e-01 0.0000e+00 -1.0000e+00
       13  1    4    4    0    0 +5.9055160643e+00 +5.5537694357e-01 +5.2978198035e+01 5.3309325587e+01 1.0566000000e-01 0.0000e+00 -1.0000e+00
      -13  1    4    4    0    0 -3.2243059481e+00 -2.9644354872e+00 +2.8213371812e+01 2.8551524296e+01 1.0566000000e-01 0.0000e+00 1.0000e+00
       14  1    4    4    0    0 -1.7745778302e+01 -6.0822945140e+00 +3.9979938912e+01 4.4162228991e+01 0.0000000000e+00 0.0000e+00 -1.0000e+00
<mgrwt>
<rscale>  0 0.77660895E+02</rscale>
<asrwt>0</asrwt>
<pdfrwt beam="1">  1        1 0.17586909E-02 0.77660895E+02</pdfrwt>
<pdfrwt beam="2">  1       -2 0.20292173E-01 0.77660895E+02</pdfrwt>
<totfact> 0.10619815E+05</totfact>
</mgrwt>
</event>
<event>
 8      1 +5.0320763e-08 8.01896400e+01 7.81860800e-03 1.32851400e-01
       -1 -1    0    0    0  501 -0.0000000000e+00 +0.0000000000e+00 +1.4773541904e+00 1.4773627873e+00 5.0400000000e-03 0.0000e+00 1.0000e+00
        2 -1    0    0  501    0 +0.0000000000e+00 -0.0000000000e+00 -1.0881546232e+03 1.0881546232e+03 2.5500000000e-03 0.0000e+00 -1.0000e+00
       24  2    1    2    0    0 -1.3322676296e-15 +3.5527136788e-15 -1.0866772690e+03 1.0896319860e+03 8.0189637180e+01 0.0000e+00 0.0000e+00
       66  2    3    3    0    0 -3.4916757818e+00 -2.2812218420e+01 -9.6754194015e+02 9.6828196805e+02 2.9999576351e+01 0.0000e+00 0.0000e+00
      -13  1    3    3    0    0 +3.4916757818e+00 +2.2812218420e+01 -1.1913532886e+02 1.2135001795e+02 1.0566000000e-01 0.0000e+00 1.0000e+00
       13  1    4    4    0    0 -9.8483656625e+00 -2.3717378995e+01 -5.8438222718e+02 5.8494623939e+02 1.0566000000e-01 0.0000e+00 -1.0000e+00
      -13  1    4    4    0    0 +1.1050220073e+00 -2.0262244268e+00 -2.1108137939e+01 2.1234201430e+01 1.0566000000e-01 0.0000e+00 1.0000e+00
       14  1    4    4    0    0 +5.2516678733e+00 +2.9313850012e+00 -3.6205157504e+02 3.6210152723e+02 0.0000000000e+00 0.0000e+00 -1.0000e+00
<mgrwt>
<rscale>  0 0.80189637E+02</rscale>
<asrwt>0</asrwt>
<pdfrwt beam="1">  1        2 0.16740776E+00 0.80189637E+02</pdfrwt>
<pdfrwt beam="2">  1       -1 0.22728679E-03 0.80189637E+02</pdfrwt>
<totfact> 0.35046140E+05</totfact>
</mgrwt>
</event>
<event>
 8      1 +5.0320763e-08 8.12051100e+01 7.81860800e-03 1.32566600e-01
        3 -1    0    0  501    0 +0.0000000000e+00 +0.0000000000e+00 +1.0255410395e+01 1.0255907730e+01 1.0100000000e-01 0.0000e+00 -1.0000e+00
       -2 -1    0    0    0  501 -0.0000000000e+00 -0.0000000000e+00 -1.6074685759e+02 1.6074685761e+02 2.5500000000e-03 0.0000e+00 1.0000e+00
      -24  2    1    2    0    0 -3.5527136788e-15 +0.0000000000e+00 -1.5049144720e+02 1.7100276534e+02 8.1205111139e+01 0.0000e+00 0.0000e+00
       66  2    3    3    0    0 +2.1688598952e+01 +2.1598876223e+01 -1.2152217127e+02 1.2885852623e+02 2.9999581549e+01 0.0000e+00 0.0000e+00
       13  1    3    3    0    0 -2.1688598952e+01 -2.1598876223e+01 -2.8969275927e+01 4.2144239113e+01 1.0566000000e-01 0.0000e+00 -1.0000e+00
       13  1    4    4    0    0 +1.6377011079e+01 +2.9093185201e+00 -5.2040133840e+01 5.4633847753e+01 1.0566000000e-01 0.0000e+00 1.0000e+00
      -13  1    4    4    0    0 -3.5428922359e+00 +2.5631416447e+00 -3.3772778943e+01 3.4054860769e+01 1.0566000000e-01 0.0000e+00 -1.0000e+00
      -14  1    4    4    0    0 +8.8544801095e+00 +1.6126416058e+01 -3.5709258487e+01 4.0169817707e+01 0.0000000000e+00 0.0000e+00 1.0000e+00
<mgrwt>
<rscale>  0 0.81205111E+02</rscale>
<asrwt>0</asrwt>
<pdfrwt beam="1">  1        3 0.15777963E-02 0.81205111E+02</pdfrwt>
<pdfrwt beam="2">  1       -2 0.24730284E-01 0.81205111E+02</pdfrwt>
<totfact> 0.65559271E+04</totfact>
</mgrwt>
</event>
<event>
 8      1 +5.0320763e-08 7.60864300e+01 7.81860800e-03 1.34053900e-01
       -1 -1    0    0    0  501 -0.0000000000e+00 +0.0000000000e+00 +3.3206217492e+00 3.3206255740e+00 5.0400000000e-03 0.0000e+00 1.0000e+00
        2 -1    0    0  501    0 +0.0000000000e+00 -0.0000000000e+00 -4.3584767095e+02 4.3584767096e+02 2.5500000000e-03 0.0000e+00 -1.0000e+00
       24  2    1    2    0    0 +0.0000000000e+00 -1.1102230246e-16 -4.3252704920e+02 4.3916829653e+02 7.6086427094e+01 0.0000e+00 0.0000e+00
       66  2    3    3    0    0 +2.5765417073e+01 +8.8404637380e-01 -3.6055249170e+02 3.6271578614e+02 3.0000066385e+01 0.0000e+00 0.0000e+00
      -13  1    3    3    0    0 -2.5765417073e+01 -8.8404637380e-01 -7.1974557499e+01 7.6452510398e+01 1.0566000000e-01 0.0000e+00 1.0000e+00
       13  1    4    4    0    0 -4.1976688701e+00 +1.1549909394e+00 -1.2313816091e+02 1.2321514624e+02 1.0566000000e-01 0.0000e+00 -1.0000e+00
      -13  1    4    4    0    0 +2.3891642160e+01 -2.7555854002e+00 -2.0663974592e+02 2.0803461148e+02 1.0566000000e-01 0.0000e+00 1.0000e+00
       14  1    4    4    0    0 +6.0714437828e+00 +2.4846408346e+00 -3.0774584875e+01 3.1466028410e+01 0.0000000000e+00 0.0000e+00 -1.0000e+00
<mgrwt>
<rscale>  0 0.76086427E+02</rscale>
<asrwt>0</asrwt>
<pdfrwt beam="1">  1        2 0.67053443E-01 0.76086427E+02</pdfrwt>
<pdfrwt beam="2">  1       -1 0.51086552E-03 0.76086427E+02</pdfrwt>
<totfact> 0.33161925E+05</totfact>
</mgrwt>
</event>
<event>
 8      1 +5.0320763e-08 8.86187400e+01 7.81860800e-03 1.30623200e-01
        1 -1    0    0  501    0 +0.0000000000e+00 +0.0000000000e+00 +6.2424677935e+01 6.2424678138e+01 5.0400000000e-03 0.0000e+00 -1.0000e+00
       -2 -1    0    0    0  501 -0.0000000000e+00 -0.0000000000e+00 -3.1451026374e+01 3.1451026478e+01 2.5500000000e-03 0.0000e+00 1.0000e+00
      -24  2    1    2    0    0 -3.5527136788e-15 -8.8817841970e-16 +3.0973651561e+01 9.3875704616e+01 8.8618738572e+01 0.0000e+00 0.0000e+00
       66  2    3    3    0    0 -2.3144010555e+01 +4.8341135319e+00 -1.5901415336e+01 4.1375257582e+01 3.0000717526e+01 0.0000e+00 0.0000e+00
       13  1    3    3    0    0 +2.3144010555e+01 -4.8341135319e+00 +4.6875066897e+01 5.2500447034e+01 1.0566000000e-01 0.0000e+00 -1.0000e+00
       13  1    4    4    0    0 -1.2427820316e+01 -3.5423586977e+00 -2.9998551490e-01 1.2926723416e+01 1.0566000000e-01 0.0000e+00 -1.0000e+00
      -13  1    4    4    0    0 -1.1428746424e+01 +1.0146445202e+01 -1.9100922278e+01 2.4462685686e+01 1.0566000000e-01 0.0000e+00 1.0000e+00
      -14  1    4    4    0    0 +7.1255618506e-01 -1.7699729720e+00 +3.4994924574e+00 3.9858484791e+00 0.0000000000e+00 0.0000e+00 1.0000e+00
<mgrwt>
<rscale>  0 0.88618739E+02</rscale>
<asrwt>0</asrwt>
<pdfrwt beam="1">  1        1 0.96037965E-02 0.88618739E+02</pdfrwt>
<pdfrwt beam="2">  1       -2 0.48386196E-02 0.88618739E+02</pdfrwt>
<totfact> 0.10256081E+05</totfact>
</mgrwt>
</event>
<event>
 8      1 +5.0320763e-08 7.92932600e+01 7.81860800e-03 1.33106900e-01
        3 -1    0    0  501    0 +0.0000000000e+00 +0.0000000000e+00 +5.7626801605e+01 5.7626890114e+01 1.0100000000e-01 0.0000e+00 -1.0000e+00
       -4 -1    0    0    0  501 -0.0000000000e+00 -0.0000000000e+00 -2.7254613557e+01 2.7284186998e+01 1.2700000000e+00 0.0000e+00 1.0000e+00
      -24  2    1    2    0    0 -8.1878948066e-16 +3.5527136788e-15 +3.0372188048e+01 8.4911077112e+01 7.9293260807e+01 0.0000e+00 0.0000e+00
       66  2    3    3    0    0 +1.1128999265e-01 -3.0996856357e+01 +2.4747278444e+00 4.3208595898e+01 3.0000683194e+01 0.0000e+00 0.0000e+00
       13  1    3    3    0    0 -1.1128999265e-01 +3.0996856357e+01 +2.7897460204e+01 4.1702481213e+01 1.0566000000e-01 0.0000e+00 -1.0000e+00
       13  1    4    4    0    0 -3.8262482267e+00 -9.0807424740e+00 +3.6647498778e+00 1.0513877262e+01 1.0566000000e-01 0.0000e+00 -1.0000e+00
      -13  1    4    4    0    0 +6.6834178303e+00 -1.7632854912e+01 +9.3075218868e+00 2.1029188619e+01 1.0566000000e-01 0.0000e+00 1.0000e+00
      -14  1    4    4    0    0 -2.7458796109e+00 -4.2832589709e+00 -1.0497543920e+01 1.1665530018e+01 0.0000000000e+00 0.0000e+00 1.0000e+00
<mgrwt>
<rscale>  0 0.79293261E+02</rscale>
<asrwt>0</asrwt>
<pdfrwt beam="1">  1        3 0.88656835E-02 0.79293261E+02</pdfrwt>
<pdfrwt beam="2">  1       -4 0.41963686E-02 0.79293261E+02</pdfrwt>
<totfact> 0.46155557E+04</totfact>
</mgrwt>
</event>
<event>
 7      1 +5.0320763e-08 1.25149800e+02 7.81860800e-03 1.23483500e-01
        1 -1    0    0  501    0 +0.0000000000e+00 +0.0000000000e+00 +1.0719697296e+01 1.0719698481e+01 5.0400000000e-03 0.0000e+00 -1.0000e+00
       -2 -1    0    0    0  501 -0.0000000000e+00 -0.0000000000e+00 -3.6527289017e+02 3.6527289018e+02 2.5500000000e-03 0.0000e+00 1.0000e+00
       66  2    1    2    0    0 -5.6943550901e+01 +5.5038272352e+00 -2.3054164350e+02 2.3942123132e+02 3.0003608370e+01 0.0000e+00 0.0000e+00
       13  1    1    2    0    0 +5.6943550901e+01 -5.5038272352e+00 -1.2401154937e+02 1.3657135734e+02 1.0566000000e-01 0.0000e+00 -1.0000e+00
       13  1    3    3    0    0 -5.6654039228e+00 -3.2078667741e+00 -1.1442967937e+01 1.3165860781e+01 1.0566000000e-01 0.0000e+00 -1.0000e+00
      -13  1    3    3    0    0 -1.2053105286e+01 -7.2079966954e+00 -4.9557107646e+01 5.1508743391e+01 1.0566000000e-01 0.0000e+00 1.0000e+00
       14  1    3    3    0    0 -3.9225041693e+01 +1.5919690705e+01 -1.6954156792e+02 1.7474662715e+02 0.0000000000e+00 0.0000e+00 -1.0000e+00
<mgrwt>
<rscale>  0 0.12514975E+03</rscale>
<asrwt>0</asrwt>
<pdfrwt beam="1">  1        1 0.16491846E-02 0.12514975E+03</pdfrwt>
<pdfrwt beam="2">  1       -2 0.56195820E-01 0.12514975E+03</pdfrwt>
<totfact> 0.19339630E+04</totfact>
</mgrwt>
</event>
<event>
 8      1 +5.0320763e-08 8.26787700e+01 7.81860800e-03 1.32161700e-01
       -2 -1    0    0    0  501 -0.0000000000e+00 +0.0000000000e+00 +2.8184006000e+02 2.8184006001e+02 2.5500000000e-03 0.0000e+00 1.0000e+00
        1 -1    0    0  501    0 +0.0000000000e+00 -0.0000000000e+00 -6.0635263432e+00 6.0635284378e+00 5.0400000000e-03 0.0000e+00 -1.0000e+00
      -24  2    1    2    0    0 +8.8817841970e-16 +0.0000000000e+00 +2.7577653366e+02 2.8790358845e+02 8.2678774339e+01 0.0000e+00 0.0000e+00
       66  2    3    3    0    0 +4.2512884055e+00 +1.1477230501e+01 +2.7355113587e+02 2.7546317718e+02 2.9998962942e+01 0.0000e+00 0.0000e+00
       13  1    3    3    0    0 -4.2512884055e+00 -1.1477230501e+01 +2.2253977900e+00 1.2440411265e+01 1.0566000000e-01 0.0000e+00 -1.0000e+00
       13  1    4    4    0    0 -4.1383531466e+00 +2.0006261344e+00 +5.1086847393e+01 5.1293329121e+01 1.0566000000e-01 0.0000e+00 -1.0000e+00
      -13  1    4    4    0    0 +1.5688891041e+01 +3.0071068417e+00 +9.5077134946e+01 9.6409837398e+01 1.0566000000e-01 0.0000e+00 1.0000e+00
      -14  1    4    4    0    0 -7.2992494886e+00 +6.4694975247e+00 +1.2738715353e+02 1.2776001066e+02 0.0000000000e+00 0.0000e+00 1.0000e+00
<mgrwt>
<rscale>  0 0.82678774E+02</rscale>
<asrwt>0</asrwt>
<pdfrwt beam="1">  1        1 0.93285015E-03 0.82678774E+02</pdfrwt>
<pdfrwt beam="2">  1       -2 0.43360020E-01 0.82678774E+02</pdfrwt>
<totfact> 0.66711529E+04</totfact>
</mgrwt>
</event>
<event>
 8      1 +5.0320763e-08 7.97463800e+01 7.81860800e-03 1.32977300e-01
        1 -1    0    0  501    0 +0.0000000000e+00 +0.0000000000e+00 +1.5401949659e+02 1.5401949667e+02 5.0400000000e-03 0.0000e+00 -1.0000e+00
       -2 -1    0    0    0  501 -0.0000000000e+00 -0.0000000000e+00 -1.0322532850e+01 1.0322533165e+01 2.5500000000e-03 0.0000e+00 1.0000e+00
      -24  2    1    2    0    0 +0.0000000000e+00 -1.7763568394e-15 +1.4369696374e+02 1.6434202983e+02 7.9746381628e+01 0.0000e+00 0.0000e+00
       66  2    3    3    0    0 +2.5614662167e+01 +1.2565869148e+01 +4.3043723363e+01 5.9723207688e+01 3.0001457136e+01 0.0000e+00 0.0000e+00
       13  1    3    3    0    0 -2.5614662167e+01 -1.2565869148e+01 +1.0065324037e+02 1.0461882214e+02 1.0566000000e-01 0.0000e+00 -1.0000e+00
       13  1    4    4    0    0 +6.8126555184e+00 +2.5741550999e+00 +4.3499836054e+00 8.4836354880e+00 1.0566000000e-01 0.0000e+00 -1.0000e+00
      -13  1    4    4    0    0 +1.2431601752e+01 +1.8649209831e+01 +2.2155753161e+01 3.1515493200e+01 1.0566000000e-01 0.0000e+00 1.0000e+00
       14  1    4    4    0    0 +6.3704048962e+00 -8.6574957828e+00 +1.6537986596e+01 1.9724079001e+01 0.0000000000e+00 0.0000e+00 -1.0000e+00
<mgrwt>
<rscale>  0 0.79746382E+02</rscale>
<asrwt>0</asrwt>
<pdfrwt beam="1">  1        1 0.23695306E-01 0.79746382E+02</pdfrwt>
<pdfrwt beam="2">  1       -2 0.15880821E-02 0.79746382E+02</pdfrwt>
<totfact> 0.16000953E+05</totfact>
</mgrwt>
</event>
<event>
 8      1 +5.0320763e-08 7.88060000e+01 7.81860800e-03 1.33247400e-01
        1 -1    0    0  501    0 +0.0000000000e+00 +0.0000000000e+00 +2.5178383908e+01 2.5178384413e+01 5.0400000000e-03 0.0000e+00 -1.0000e+00
       -2 -1    0    0    0  501 -0.0000000000e+00 -0.0000000000e+00 -6.1663865252e+01 6.1663865305e+01 2.5500000000e-03 0.0000e+00 1.0000e+00
      -24  2    1    2    0    0 +0.0000000000e+00 -3.5527136788e-15 -3.6485481344e+01 8.6842249718e+01 7.8806002228e+01 0.0000e+00 0.0000e+00
       66  2    3    3    0    0 -1.1945918363e+01 +2.9916563011e+01 -3.1766946089e+01 5.4284893454e+01 3.0000084758e+01 0.0000e+00 0.0000e+00
       13  1    3    3    0    0 +1.1945918363e+01 -2.9916563011e+01 -4.7185352551e+00 3.2557356264e+01 1.0566000000e-01 0.0000e+00 -1.0000e+00
       13  1    4    4    0    0 +4.7453863177e+00 +1.3342780054e+01 -4.4626647702e+00 1.4848400983e+01 1.0566000000e-01 0.0000e+00 -1.0000e+00
      -13  1    4    4    0    0 -7.7101957771e+00 +1.7728832780e+01 -1.9835018485e+01 2.7698334842e+01 1.0566000000e-01 0.0000e+00 1.0000e+00
       14  1    4    4    0    0 -8.9811089035e+00 -1.1550498233e+00 -7.4692628344e+00 1.1738157629e+01 0.0000000000e+00 0.0000e+00 -1.0000e+00
<mgrwt>
<rscale>  0 0.78806002E+02</rscale>
<asrwt>0</asrwt>
<pdfrwt beam="1">  1        1 0.38735976E-02 0.78806002E+02</pdfrwt>
<pdfrwt beam="2">  1       -2 0.94867485E-02 0.78806002E+02</pdfrwt>
<totfact> 0.12235230E+05</totfact>
</mgrwt>
</event>
<event>
 8      1 +5.0320763e-08 8.17418800e+01 7.81860800e-03 1.32418000e-01
       -2 -1    0    0    0  501 -0.0000000000e+00 +0.0000000000e+00 +1.4168902926e+02 1.4168902928e+02 2.5500000000e-03 0.0000e+00 1.0000e+00
        1 -1    0    0  501    0 +0.0000000000e+00 -0.0000000000e+00 -1.1789436156e+01 1.1789437233e+01 5.0400000000e-03 0.0000e+00 -1.0000e+00
      -24  2    1    2    0    0 +7.1054273576e-15 +0.0000000000e+00 +1.2989959310e+02 1.5347846651e+02 8.1741882750e+01 0.0000e+00 0.0000e+00
       66  2    3    3    0    0 -3.3354005622e+01 -4.5071137581e+00 +5.3311444793e+01 6.9821073589e+01 3.0001140075e+01 0.0000e+00 0.0000e+00
       13  1    3    3    0    0 +3.3354005622e+01 +4.5071137581e+00 +7.6588148310e+01 8.3657392925e+01 1.0566000000e-01 0.0000e+00 -1.0000e+00
       13  1    4    4    0    0 +2.2026247018e+00 -7.6112913241e+00 +1.0637812140e+01 1.3264898129e+01 1.0566000000e-01 0.0000e+00 1.0000e+00
      -13  1    4    4    0    0 -2.0661719713e+01 +5.2697818439e+00 +1.9330499549e+01 2.8781185505e+01 1.0566000000e-01 0.0000e+00 -1.0000e+00
      -14  1    4    4    0    0 -1.4894910611e+01 -2.1656042778e+00 +2.3343133103e+01 2.7774989956e+01 0.0000000000e+00 0.0000e+00 1.0000e+00
<mgrwt>
<rscale>  0 0.81741883E+02</rscale>
<asrwt>0</asrwt>
<pdfrwt beam="1">  1        1 0.18137596E-02 0.81741883E+02</pdfrwt>
<pdfrwt beam="2">  1       -2 0.21798311E-01 0.81741883E+02</pdfrwt>
<totfact> 0.91070585E+04</totfact>
</mgrwt>
</event>
<event>
 8      1 +5.0320763e-08 8.10716000e+01 7.81860800e-03 1.32603800e-01
       -3 -1    0    0    0  501 -0.0000000000e+00 +0.0000000000e+00 +5.1999859924e+01 5.1999958011e+01 1.0100000000e-01 0.0000e+00 1.0000e+00
        4 -1    0    0  501    0 +0.0000000000e+00 -0.0000000000e+00 -3.1578547117e+01 3.1604074706e+01 1.2700000000e+00 0.0000e+00 -1.0000e+00
       24  2    1    2    0    0 +0.0000000000e+00 -7.1054273576e-15 +2.0421312807e+01 8.3604032717e+01 8.1071599650e+01 0.0000e+00 0.0000e+00
       66  2    3    3    0    0 +9.2094343081e+00 +3.2112797478e+01 +8.9597030752e-01 4.4909128583e+01 2.9999693752e+01 0.0000e+00 0.0000e+00
      -13  1    3    3    0    0 -9.2094343081e+00 -3.2112797478e+01 +1.9525342500e+01 3.8694904133e+01 1.0566000000e-01 0.0000e+00 1.0000e+00
       13  1    4    4    0    0 +4.1919450198e-01 +1.8249929966e+01 -3.8297221745e+00 1.8652442300e+01 1.0566000000e-01 0.0000e+00 -1.0000e+00
      -13  1    4    4    0    0 +9.5345188824e-01 -4.4120389673e+00 -2.4256663923e+00 5.1254443548e+00 1.0566000000e-01 0.0000e+00 1.0000e+00
       14  1    4    4    0    0 +7.8367879179e+00 +1.8274906479e+01 +7.1513588743e+00 2.1131241928e+01 0.0000000000e+00 0.0000e+00 -1.0000e+00
<mgrwt>
<rscale>  0 0.81071600E+02</rscale>
<asrwt>0</asrwt>
<pdfrwt beam="1">  1        4 0.48613944E-02 0.81071600E+02</pdfrwt>
<pdfrwt beam="2">  1       -3 0.79999988E-02 0.81071600E+02</pdfrwt>
<totfact> 0.43482988E+04</totfact>
</mgrwt>
</event>
<event>
 8      1 +5.0320763e-08 7.84947000e+01 7.81860800e-03 1.33337800e-01
        2 -1    0    0  501    0 +0.0000000000e+00 +0.0000000000e+00 +8.8237644652e+01 8.8237644688e+01 2.5500000000e-03 0.0000e+00 -1.0000e+00
       -1 -1    0    0    0  501 -0.0000000000e+00 -0.0000000000e+00 -1.7456885617e+01 1.7456886345e+01 5.0400000000e-03 0.0000e+00 1.0000e+00
       24  2    1    2    0    0 +0.0000000000e+00 +1.7763568394e-15 +7.0780759034e+01 1.0569453103e+02 7.8494700718e+01 0.0000e+00 0.0000e+00
       66  2    3    3    0    0 +1.1570059164e+01 -3.9953827641e+00 +8.2570134502e+01 8.8699534992e+01 2.9999184049e+01 0.0000e+00 0.0000e+00
      -13  1    3    3    0    0 -1.1570059164e+01 +3.9953827641e+00 -1.1789375467e+01 1.6994996041e+01 1.0566000000e-01 0.0000e+00 1.0000e+00
       13  1    4    4    0    0 +1.2107900794e+01 -1.3188082533e+01 +4.1327008930e+01 4.5038423748e+01 1.0566000000e-01 0.0000e+00 -1.0000e+00
      -13  1    4    4    0    0 +4.4816755111e+00 +7.0063318440e+00 +1.8765580800e+01 2.0526380297e+01 1.0566000000e-01 0.0000e+00 1.0000e+00
       14  1    4    4    0    0 -5.0195171409e+00 +2.1863679251e+00 +2.2477544772e+01 2.3134730947e+01 0.0000000000e+00 0.0000e+00 -1.0000e+00
<mgrwt>
<rscale>  0 0.78494701E+02</rscale>
<asrwt>0</asrwt>
<pdfrwt beam="1">  1        2 0.13575022E-01 0.78494701E+02</pdfrwt>
<pdfrwt beam="2">  1       -1 0.26856748E-02 0.78494701E+02</pdfrwt>
<totfact> 0.18025949E+05</totfact>
</mgrwt>
</event>
<event>
 8      1 +5.0320763e-08 8.35530800e+01 7.81860800e-03 1.31926000e-01
        1 -1    0    0  501    0 +0.0000000000e+00 +0.0000000000e+00 +3.2363659457e+01 3.2363659850e+01 5.0400000000e-03 0.0000e+00 -1.0000e+00
       -2 -1    0    0    0  501 -0.0000000000e+00 -0.0000000000e+00 -5.3927128340e+01 5.3927128400e+01 2.5500000000e-03 0.0000e+00 1.0000e+00
      -24  2    1    2    0    0 +1.7763568394e-15 +7.1054273576e-15 -2.1563468882e+01 8.6290788250e+01 8.3553078618e+01 0.0000e+00 0.0000e+00
       66  2    3    3    0    0 -1.3602927486e+00 -3.3168541381e+01 -2.7568990516e+01 5.2555347126e+01 3.0000212328e+01 0.0000e+00 0.0000e+00
       13  1    3    3    0    0 +1.3602927486e+00 +3.3168541381e+01 +6.0055216342e+00 3.3735441124e+01 1.0566000000e-01 0.0000e+00 -1.0000e+00
       13  1    4    4    0    0 +1.1986047282e+01 -1.5619793027e+01 -1.1039705358e+01 2.2572760621e+01 1.0566000000e-01 0.0000e+00 -1.0000e+00
      -13  1    4    4    0    0 -4.5596516728e+00 -5.9123513217e+00 -1.2981657850e+01 1.4976011689e+01 1.0566000000e-01 0.0000e+00 1.0000e+00
       14  1    4    4    0    0 -8.7866883573e+00 -1.1636397032e+01 -3.5476273076e+00 1.5006574815e+01 0.0000000000e+00 0.0000e+00 -1.0000e+00
<mgrwt>
<rscale>  0 0.83553079E+02</rscale>
<asrwt>0</asrwt>
<pdfrwt beam="1">  1        1 0.49790246E-02 0.83553079E+02</pdfrwt>
<pdfrwt beam="2">  1       -2 0.82964813E-02 0.83553079E+02</pdfrwt>
<totfact> 0.10818425E+05</totfact>
</mgrwt>
</event>
<event>
 8      1 +5.0320763e-08 8.09379100e+01 7.81860800e-03 1.32641100e-01
        2 -1    0    0  501    0 +0.0000000000e+00 +0.0000000000e+00 +1.1457648340e+01 1.1457648623e+01 2.5500000000e-03 0.0000e+00 -1.0000e+00
       -1 -1    0    0    0  501 -0.0000000000e+00 -0.0000000000e+00 -1.4293827052e+02 1.4293827061e+02 5.0400000000e-03 0.0000e+00 1.0000e+00
       24  2    1    2    0    0 +0.0000000000e+00 +0.0000000000e+00 -1.3148062218e+02 1.5439591923e+02 8.0937913653e+01 0.0000e+00 0.0000e+00
       66  2    3    3    0    0 +1.6887422137e+01 +2.8555187231e+01 -5.4042796073e+01 7.0150967926e+01 2.9999179145e+01 0.0000e+00 0.0000e+00
      -13  1    3    3    0    0 -1.6887422137e+01 -2.8555187231e+01 -7.7437826104e+01 8.4244951302e+01 1.0566000000e-01 0.0000e+00 1.0000e+00
       13  1    4    4    0    0 +4.5121185324e+00 +2.3335117430e+01 -3.0949443190e+01 3.9022635955e+01 1.0566000000e-01 0.0000e+00 -1.0000e+00
      -13  1    4    4    0    0 +4.8122735845e+00 +1.1208899399e+00 +1.4258873930e+00 5.1438011434e+00 1.0566000000e-01 0.0000e+00 1.0000e+00
      -14  1    4    4    0    0 +7.5630300196e+00 +4.0991798618e+00 -2.4519240276e+01 2.5984530828e+01 0.0000000000e+00 0.0000e+00 1.0000e+00
<mgrwt>
<rscale>  0 0.80937914E+02</rscale>
<asrwt>0</asrwt>
<pdfrwt beam="1">  1        2 0.17627153E-02 0.80937914E+02</pdfrwt>
<pdfrwt beam="2">  1       -1 0.21990502E-01 0.80937914E+02</pdfrwt>
<totfact> 0.10602460E+05</totfact>
</mgrwt>
</event>
<event>
 8      1 +5.0320763e-08 8.59216900e+01 7.81860800e-03 1.31304000e-01
        2 -1    0    0  501    0 +0.0000000000e+00 +0.0000000000e+00 +1.7777895577e+01 1.7777895760e+01 2.5500000000e-03 0.0000e+00 -1.0000e+00
       -1 -1    0    0    0  501 -0.0000000000e+00 -0.0000000000e+00 -1.0381623118e+02 1.0381623130e+02 5.0400000000e-03 0.0000e+00 1.0000e+00
       24  2    1    2    0    0 -3.5527136788e-15 +0.0000000000e+00 -8.6038335598e+01 1.2159412706e+02 8.5921688430e+01 0.0000e+00 0.0000e+00
       66  2    3    3    0    0 +2.9797909789e+01 +2.3106486632e+01 -4.9820791901e+01 6.9310795223e+01 3.0000831264e+01 0.0000e+00 0.0000e+00
      -13  1    3    3    0    0 -2.9797909789e+01 -2.3106486632e+01 -3.6217543697e+01 5.2283331835e+01 1.0566000000e-01 0.0000e+00 1.0000e+00
       13  1    4    4    0    0 +7.7224841222e-01 +7.8550604620e+00 +1.8074583677e+00 8.0979264172e+00 1.0566000000e-01 0.0000e+00 -1.0000e+00
      -13  1    4    4    0    0 +2.5196062504e+01 +1.2227681316e+01 -4.4113310010e+01 5.2252780214e+01 1.0566000000e-01 0.0000e+00 1.0000e+00
       14  1    4    4    0    0 +3.8295988731e+00 +3.0237448540e+00 -7.5149402594e+00 8.9600885918e+00 0.0000000000e+00 0.0000e+00 -1.0000e+00
<mgrwt>
<rscale>  0 0.85921688E+02</rscale>
<asrwt>0</asrwt>
<pdfrwt beam="1">  1        2 0.27350609E-02 0.85921688E+02</pdfrwt>
<pdfrwt beam="2">  1       -1 0.15971728E-01 0.85921688E+02</pdfrwt>
<totfact> 0.98383214E+04</totfact>
</mgrwt>
</event>
<event>
 8      1 +5.0320763e-08 8.07637400e+01 7.81860800e-03 1.32689800e-01
       -2 -1    0    0    0  501 -0.0000000000e+00 +0.0000000000e+00 +7.9004928003e+00 7.9004932118e+00 2.5500000000e-03 0.0000e+00 1.0000e+00
        1 -1    0    0  501    0 +0.0000000000e+00 -0.0000000000e+00 -2.0640425782e+02 2.0640425788e+02 5.0400000000e-03 0.0000e+00 -1.0000e+00
      -24  2    1    2    0    0 +0.0000000000e+00 +0.0000000000e+00 -1.9850376502e+02 2.1430475109e+02 8.0763739475e+01 0.0000e+00 0.0000e+00
       66  2    3    3    0    0 -2.1057840047e+01 +2.2353549815e+01 -1.5643505976e+02 1.6221923542e+02 3.0000643341e+01 0.0000e+00 0.0000e+00
       13  1    3    3    0    0 +2.1057840047e+01 -2.2353549815e+01 -4.2068705254e+01 5.2085515669e+01 1.0566000000e-01 0.0000e+00 -1.0000e+00
       13  1    4    4    0    0 -9.1579098975e+00 +1.5438931650e+01 -4.8377855144e+01 5.1600929803e+01 1.0566000000e-01 0.0000e+00 -1.0000e+00
      -13  1    4    4    0    0 -5.0507344344e+00 +8.2592445840e+00 -1.9350576186e+01 2.1637490663e+01 1.0566000000e-01 0.0000e+00 1.0000e+00
       14  1    4    4    0    0 -6.8491957147e+00 -1.3446264193e+00 -8.8706628432e+01 8.8980814955e+01 0.0000000000e+00 0.0000e+00 -1.0000e+00
<mgrwt>
<rscale>  0 0.80763739E+02</rscale>
<asrwt>0</asrwt>
<pdfrwt beam="1">  1        1 0.31754497E-01 0.80763739E+02</pdfrwt>
<pdfrwt beam="2">  1       -2 0.12154606E-02 0.80763739E+02</pdfrwt>
<totfact> 0.16358482E+05</totfact>
</mgrwt>
</event>
<event>
 8      1 +5.0320763e-08 8.11153700e+01 7.81860800e-03 1.32591600e-01
        2 -1    0    0  501    0 +0.0000000000e+00 +0.0000000000e+00 +1.6044001528e+02 1.6044001530e+02 2.5500000000e-03 0.0000e+00 -1.0000e+00
       -3 -1    0    0    0  501 -0.0000000000e+00 -0.0000000000e+00 -1.0252326529e+01 1.0252824013e+01 1.0100000000e-01 0.0000e+00 1.0000e+00
       24  2    1    2    0    0 +3.5527136788e-15 +0.0000000000e+00 +1.5018768875e+02 1.7069283931e+02 8.1115371789e+01 0.0000e+00 0.0000e+00
       66  2    3    3    0    0 -2.5944127265e+01 -2.9231889393e+00 +1.3444863238e+02 1.4020723890e+02 2.9999871973e+01 0.0000e+00 0.0000e+00
      -13  1    3    3    0    0 +2.5944127265e+01 +2.9231889393e+00 +1.5739056375e+01 3.0485600416e+01 1.0566000000e-01 0.0000e+00 1.0000e+00
       13  1    4    4    0    0 -5.1596970484e+00 +3.7144591996e-01 +7.2455602918e+00 8.9033563155e+00 1.0566000000e-01 0.0000e+00 -1.0000e+00
      -13  1    4    4    0    0 -1.4067080377e+01 -1.0898015289e+01 +4.3662486181e+01 4.7149478800e+01 1.0566000000e-01 0.0000e+00 1.0000e+00
       14  1    4    4    0    0 -6.7173498387e+00 +7.6033804301e+00 +8.3540585903e+01 8.4154403781e+01 0.0000000000e+00 0.0000e+00 -1.0000e+00
<mgrwt>
<rscale>  0 0.81115372E+02</rscale>
<asrwt>0</asrwt>
<pdfrwt beam="1">  1        2 0.24683079E-01 0.81115372E+02</pdfrwt>
<pdfrwt beam="2">  1       -3 0.15773218E-02 0.81115372E+02</pdfrwt>
<totfact> 0.15169102E+05</totfact>
</mgrwt>
</event>
<event>
 8      1 +5.0320763e-08 8.26659600e+01 7.81860800e-03 1.32165200e-01
        1 -1    0    0  501    0 +0.0000000000e+00 +0.0000000000e+00 +5.5522136407e+02 5.5522136409e+02 5.0400000000e-03 0.0000e+00 -1.0000e+00
       -2 -1    0    0    0  501 -0.0000000000e+00 -0.0000000000e+00 -3.0769975242e+00 3.0769985808e+00 2.5500000000e-03 0.0000e+00 1.0000e+00
      -24  2    1    2    0    0 -7.1054273576e-15 +0.0000000000e+00 +5.5214436654e+02 5.5829836267e+02 8.2665955845e+01 0.0000e+00 0.0000e+00
       66  2    3    3    0    0 -3.2908282353e+01 -9.4120553611e+00 +3.8532792004e+02 3.8800661354e+02 2.9999739267e+01 0.0000e+00 0.0000e+00
       13  1    3    3    0    0 +3.2908282353e+01 +9.4120553611e+00 +1.6681644650e+02 1.7029174913e+02 1.0566000000e-01 0.0000e+00 -1.0000e+00
       13  1    4    4    0    0 -5.6669673000e+00 -5.0842918600e+00 +1.1312913807e+02 1.1338508538e+02 1.0566000000e-01 0.0000e+00 -1.0000e+00
      -13  1    4    4    0    0 -3.0708870359e+01 -1.9195782512e-01 +2.1753654661e+02 2.1969349522e+02 1.0566000000e-01 0.0000e+00 1.0000e+00
       14  1    4    4    0    0 +3.4675553065e+00 -4.1358056760e+00 +5.4662235357e+01 5.4928032940e+01 0.0000000000e+00 0.0000e+00 -1.0000e+00
<mgrwt>
<rscale>  0 0.82665956E+02</rscale>
<asrwt>0</asrwt>
<pdfrwt beam="1">  1        1 0.85418768E-01 0.82665956E+02</pdfrwt>
<pdfrwt beam="2">  1       -2 0.47338378E-03 0.82665956E+02</pdfrwt>
<totfact> 0.18188897E+05</totfact>
</mgrwt>
</event>
<event>
 8      1 +5.0320763e-08 7.85717700e+01 7.81860800e-03 1.33315400e-01
       -2 -1    0    0    0  501 -0.0000000000e+00 +0.0000000000e+00 +4.2811246780e+01 4.2811246856e+01 2.5500000000e-03 0.0000e+00 1.0000e+00
        1 -1    0    0  501    0 +0.0000000000e+00 -0.0000000000e+00 -3.6050821309e+01 3.6050821661e+01 5.0400000000e-03 0.0000e+00 -1.0000e+00
      -24  2    1    2    0    0 +0.0000000000e+00 +0.0000000000e+00 +6.7604254715e+00 7.8862068517e+01 7.8571766546e+01 0.0000e+00 0.0000e+00
       66  2    3    3    0    0 -2.6866830678e+01 -6.0476248236e+00 +2.3120888055e+01 4.6829643434e+01 3.0000661377e+01 0.0000e+00 0.0000e+00
       13  1    3    3    0    0 +2.6866830678e+01 +6.0476248236e+00 -1.6360462584e+01 3.2032425083e+01 1.0566000000e-01 0.0000e+00 -1.0000e+00
       13  1    4    4    0    0 -6.7606367497e+00 +1.5097732623e+00 +1.9699271970e+01 2.0882004328e+01 1.0566000000e-01 0.0000e+00 -1.0000e+00
      -13  1    4    4    0    0 -4.7372831614e+00 -8.5802733458e+00 -1.1788597190e+00 9.8723764470e+00 1.0566000000e-01 0.0000e+00 1.0000e+00
      -14  1    4    4    0    0 -1.5368910767e+01 +1.0228752599e+00 +4.6004758045e+00 1.6075262660e+01 0.0000000000e+00 0.0000e+00 1.0000e+00
<mgrwt>
<rscale>  0 0.78571767E+02</rscale>
<asrwt>0</asrwt>
<pdfrwt beam="1">  1        1 0.55462803E-02 0.78571767E+02</pdfrwt>
<pdfrwt beam="2">  1       -2 0.65863457E-02 0.78571767E+02</pdfrwt>
<totfact> 0.13135414E+05</totfact>
</mgrwt>
</event>
<event>
 8      1 +5.0320763e-08 7.91041800e+01 7.81860800e-03 1.33161300e-01
       -2 -1    0    0    0  501 -0.0000000000e+00 +0.0000000000e+00 +3.0258455800e+02 3.0258455801e+02 2.5500000000e-03 0.0000e+00 1.0000e+00
        1 -1    0    0  501    0 +0.0000000000e+00 -0.0000000000e+00 -5.1700168705e+00 5.1700193271e+00 5.0400000000e-03 0.0000e+00 -1.0000e+00
      -24  2    1    2    0    0 +1.7763568394e-15 +0.0000000000e+00 +2.9741454113e+02 3.0775457734e+02 7.9104175598e+01 0.0000e+00 0.0000e+00
       66  2    3    3    0    0 +6.8533030172e+00 +2.2729754308e+01 +2.6403988986e+02 2.6679742894e+02 3.0003252504e+01 0.0000e+00 0.0000e+00
       13  1    3    3    0    0 -6.8533030172e+00 -2.2729754308e+01 +3.3374651271e+01 4.0957148395e+01 1.0566000000e-01 0.0000e+00 -1.0000e+00
       13  1    4    4    0    0 -2.2556377374e+00 +4.2721584156e+00 +5.9766103676e+01 5.9961133677e+01 1.0566000000e-01 0.0000e+00 -1.0000e+00
      -13  1    4    4    0    0 -5.8717745155e+00 +1.5561991623e+01 +1.2560147675e+02 1.2669804830e+02 1.0566000000e-01 0.0000e+00 1.0000e+00
       14  1    4    4    0    0 +1.4980715270e+01 +2.8956042695e+00 +7.8672309437e+01 8.0138246962e+01 0.0000000000e+00 0.0000e+00 -1.0000e+00
<mgrwt>
<rscale>  0 0.79104176E+02</rscale>
<asrwt>0</asrwt>
<pdfrwt beam="1">  1        1 0.79538712E-03 0.79104176E+02</pdfrwt>
<pdfrwt beam="2">  1       -2 0.46551487E-01 0.79104176E+02</pdfrwt>
<totfact> 0.72005637E+04</totfact>
</mgrwt>
</event>
<event>
 8      1 +5.0320763e-08 8.05342900e+01 7.81860800e-03 1.32754200e-01
        1 -1    0    0  501    0 +0.0000000000e+00 +0.0000000000e+00 +9.7399962795e+01 9.7399962926e+01 5.0400000000e-03 0.0000e+00 -1.0000e+00
       -2 -1    0    0    0  501 -0.0000000000e+00 -0.0000000000e+00 -1.6647264617e+01 1.6647264812e+01 2.5500000000e-03 0.0000e+00 1.0000e+00
      -24  2    1    2    0    0 +0.0000000000e+00 -1.7763568394e-15 +8.0752698179e+01 1.1404722774e+02 8.0534290160e+01 0.0000e+00 0.0000e+00
       66  2    3    3    0    0 -3.1822663540e+01 -1.0546817919e+01 +3.3409828026e+01 5.6036230493e+01 2.9998753910e+01 0.0000e+00 0.0000e+00
       13  1    3    3    0    0 +3.1822663540e+01 +1.0546817919e+01 +4.7342870153e+01 5.8010997245e+01 1.0566000000e-01 0.0000e+00 -1.0000e+00
       13  1    4    4    0    0 -1.7654200117e+01 -9.5751965340e+00 +1.6502781037e+01 2.5994386248e+01 1.0566000000e-01 0.0000e+00 -1.0000e+00
      -13  1    4    4    0    0 -1.3197248313e+01 +3.9401211134e+00 +1.9905339981e+01 2.4205900959e+01 1.0566000000e-01 0.0000e+00 1.0000e+00
       14  1    4    4    0    0 -9.7121511031e-01 -4.9117424987e+00 -2.9982929928e+00 5.8359432858e+00 0.0000000000e+00 0.0000e+00 -1.0000e+00
<mgrwt>
<rscale>  0 0.80534290E+02</rscale>
<asrwt>0</asrwt>
<pdfrwt beam="1">  1        1 0.14984609E-01 0.80534290E+02</pdfrwt>
<pdfrwt beam="2">  1       -2 0.25611177E-02 0.80534290E+02</pdfrwt>
<totfact> 0.14373068E+05</totfact>
</mgrwt>
</event>
<event>
 8      1 +5.0320763e-08 8.07943800e+01 7.81860800e-03 1.32681200e-01
       -1 -1    0    0    0  501 -0.0000000000e+00 +0.0000000000e+00 +7.6716371247e+00 7.6716387803e+00 5.0400000000e-03 0.0000e+00 1.0000e+00
        2 -1    0    0  501    0 +0.0000000000e+00 -0.0000000000e+00 -2.1272285882e+02 2.1272285884e+02 2.5500000000e-03 0.0000e+00 -1.0000e+00
       24  2    1    2    0    0 +0.0000000000e+00 -4.4408920985e-16 -2.0505122170e+02 2.2039449762e+02 8.0794375179e+01 0.0000e+00 0.0000e+00
       66  2    3    3    0    0 -2.6281154117e+01 +2.2133607762e+00 -1.7870874993e+02 1.8311803037e+02 2.9996628441e+01 0.0000e+00 0.0000e+00
      -13  1    3    3    0    0 +2.6281154117e+01 -2.2133607762e+00 -2.6342471772e+01 3.7276467251e+01 1.0566000000e-01 0.0000e+00 1.0000e+00
       13  1    4    4    0    0 -1.1365251547e+01 +4.7863070657e+00 -2.0528972075e+01 2.3948434950e+01 1.0566000000e-01 0.0000e+00 1.0000e+00
      -13  1    4    4    0    0 -1.4099455099e+01 +7.4799406264e-01 -1.1722708503e+02 1.1807436113e+02 1.0566000000e-01 0.0000e+00 -1.0000e+00
       14  1    4    4    0    0 -8.1644747119e-01 -3.3209403521e+00 -4.0952692824e+01 4.1095234283e+01 0.0000000000e+00 0.0000e+00 -1.0000e+00
<mgrwt>
<rscale>  0 0.80794375E+02</rscale>
<asrwt>0</asrwt>
<pdfrwt beam="1">  1        2 0.32726589E-01 0.80794375E+02</pdfrwt>
<pdfrwt beam="2">  1       -1 0.11802522E-02 0.80794375E+02</pdfrwt>
<totfact> 0.21959062E+05</totfact>
</mgrwt>
</event>
<event>
 8      1 +5.0320763e-08 8.28046600e+01 7.81860800e-03 1.32127600e-01
        2 -1    0    0  501    0 +0.0000000000e+00 +0.0000000000e+00 +3.7553664605e+01 3.7553664692e+01 2.5500000000e-03 0.0000e+00 -1.0000e+00
       -1 -1    0    0    0  501 -0.0000000000e+00 -0.0000000000e+00 -4.5645421666e+01 4.5645421945e+01 5.0400000000e-03 0.0000e+00 1.0000e+00
       24  2    1    2    0    0 +0.0000000000e+00 -1.7763568394e-15 -8.0917570609e+00 8.3199086637e+01 8.2804658594e+01 0.0000e+00 0.0000e+00
       66  2    3    3    0    0 -2.6056707246e+01 -1.5814535497e+01 +1.4609576895e+01 4.5193649487e+01 2.9999578187e+01 0.0000e+00 0.0000e+00
      -13  1    3    3    0    0 +2.6056707246e+01 +1.5814535497e+01 -2.2701333956e+01 3.8005437149e+01 1.0566000000e-01 0.0000e+00 1.0000e+00
       13  1    4    4    0    0 -1.4025004476e+01 -1.8686736581e+01 +6.0721826145e+00 2.4140783755e+01 1.0566000000e-01 0.0000e+00 -1.0000e+00
      -13  1    4    4    0    0 -1.3760461496e+00 +5.2054250490e+00 +8.5971824064e+00 1.0144587833e+01 1.0566000000e-01 0.0000e+00 1.0000e+00
       14  1    4    4    0    0 -1.0655656621e+01 -2.3332239651e+00 -5.9788125504e-02 1.0908277898e+01 0.0000000000e+00 0.0000e+00 -1.0000e+00
<mgrwt>
<rscale>  0 0.82804659E+02</rscale>
<asrwt>0</asrwt>
<pdfrwt beam="1">  1        2 0.57774869E-02 0.82804659E+02</pdfrwt>
<pdfrwt beam="2">  1       -1 0.70223726E-02 0.82804659E+02</pdfrwt>
<totfact> 0.12787117E+05</totfact>
</mgrwt>
</event>
<event>
 8      1 +5.0320763e-08 7.97962500e+01 7.81860800e-03 1.32963100e-01
        4 -1    0    0  501    0 +0.0000000000e+00 +0.0000000000e+00 +4.9308134002e+02 4.9308297555e+02 1.2700000000e+00 0.0000e+00 -1.0000e+00
       -3 -1    0    0    0  501 -0.0000000000e+00 -0.0000000000e+00 -3.2267748423e+00 3.2283551358e+00 1.0100000000e-01 0.0000e+00 1.0000e+00
       24  2    1    2    0    0 +0.0000000000e+00 +0.0000000000e+00 +4.8985456518e+02 4.9631133069e+02 7.9796252671e+01 0.0000e+00 0.0000e+00
       66  2    3    3    0    0 -6.5523499527e+00 +3.2224822646e+01 +3.3929783763e+02 3.4220515995e+02 2.9999606526e+01 0.0000e+00 0.0000e+00
      -13  1    3    3    0    0 +6.5523499527e+00 -3.2224822646e+01 +1.5055672755e+02 1.5410617074e+02 1.0566000000e-01 0.0000e+00 1.0000e+00
       13  1    4    4    0    0 -9.6155986265e+00 +1.9755143970e+01 +2.1724189767e+02 2.1835012873e+02 1.0566000000e-01 0.0000e+00 -1.0000e+00
      -13  1    4    4    0    0 +3.5917842178e+00 +1.4376647120e+01 +1.2030045114e+02 1.2120972982e+02 1.0566000000e-01 0.0000e+00 1.0000e+00
      -14  1    4    4    0    0 -5.2853554405e-01 -1.9069684442e+00 +1.7554888314e+00 2.6453014017e+00 0.0000000000e+00 0.0000e+00 1.0000e+00
<mgrwt>
<rscale>  0 0.79796253E+02</rscale>
<asrwt>0</asrwt>
<pdfrwt beam="1">  1        4 0.75878025E-01 0.79796253E+02</pdfrwt>
<pdfrwt beam="2">  1       -3 0.49654918E-03 0.79796253E+02</pdfrwt>
<totfact> 0.20360894E+04</totfact>
</mgrwt>
</event>
<event>
 8      1 +5.0320763e-08 8.38572400e+01 7.81860800e-03 1.31844800e-01
       -1 -1    0    0    0  501 -0.0000000000e+00 +0.0000000000e+00 +1.3611223000e+00 1.3611316311e+00 5.0400000000e-03 0.0000e+00 1.0000e+00
        2 -1    0    0  501    0 +0.0000000000e+00 -0.0000000000e+00 -1.2915834401e+03 1.2915834401e+03 2.5500000000e-03 0.0000e+00 -1.0000e+00
       24  2    1    2    0    0 +1.7763568394e-15 -3.5527136788e-15 -1.2902223178e+03 1.2929445718e+03 8.3857237173e+01 0.0000e+00 0.0000e+00
       66  2    3    3    0    0 -1.3146511342e+01 +1.9971878666e+01 -1.1541521267e+03 1.1547895329e+03 3.0000448727e+01 0.0000e+00 0.0000e+00
      -13  1    3    3    0    0 +1.3146511342e+01 -1.9971878666e+01 -1.3607019109e+02 1.3815503887e+02 1.0566000000e-01 0.0000e+00 1.0000e+00
       13  1    4    4    0    0 -3.5763243328e+00 +9.3830839780e+00 -2.4181022805e+02 2.4201865613e+02 1.0566000000e-01 0.0000e+00 -1.0000e+00
      -13  1    4    4    0    0 -1.0019382816e+01 -4.3545625448e+00 -2.2360894288e+02 2.2387568145e+02 1.0566000000e-01 0.0000e+00 1.0000e+00
      -14  1    4    4    0    0 +4.4919580683e-01 +1.4943357233e+01 -6.8873295580e+02 6.8889519530e+02 0.0000000000e+00 0.0000e+00 1.0000e+00
<mgrwt>
<rscale>  0 0.83857237E+02</rscale>
<asrwt>0</asrwt>
<pdfrwt beam="1">  1        2 0.19870416E+00 0.83857237E+02</pdfrwt>
<pdfrwt beam="2">  1       -1 0.20940518E-03 0.83857237E+02</pdfrwt>
<totfact> 0.30661087E+05</totfact>
</mgrwt>
</event>
<event>
 8      1 +5.0320763e-08 8.03960800e+01 7.81860800e-03 1.32793100e-01
        1 -1    0    0  501    0 +0.0000000000e+00 +0.0000000000e+00 +2.1413892364e+00 2.1413951675e+00 5.0400000000e-03 0.0000e+00 -1.0000e+00
       -2 -1    0    0    0  501 -0.0000000000e+00 -0.0000000000e+00 -7.5459430818e+02 7.5459430818e+02 2.5500000000e-03 0.0000e+00 1.0000e+00
      -24  2    1    2    0    0 +0.0000000000e+00 +8.8817841970e-16 -7.5245291894e+02 7.5673570335e+02 8.0396078888e+01 0.0000e+00 0.0000e+00
       66  2    3    3    0    0 -8.3813771995e+00 -7.7442568215e+00 -7.3607258906e+02 7.3677205216e+02 2.9999658196e+01 0.0000e+00 0.0000e+00
       13  1    3    3    0    0 +8.3813771995e+00 +7.7442568215e+00 -1.6380329883e+01 1.9963651183e+01 1.0566000000e-01 0.0000e+00 -1.0000e+00
       13  1    4    4    0    0 +8.6187890848e-02 +7.1629341853e+00 -1.4518709533e+02 1.4536374675e+02 1.0566000000e-01 0.0000e+00 -1.0000e+00
      -13  1    4    4    0    0 -5.5963560310e+00 -4.4806156295e+00 -4.6607595308e+02 4.6613109779e+02 1.0566000000e-01 0.0000e+00 1.0000e+00
      -14  1    4    4    0    0 -2.8712090593e+00 -1.0426575377e+01 -1.2480954064e+02 1.2527720763e+02 0.0000000000e+00 0.0000e+00 1.0000e+00
<mgrwt>
<rscale>  0 0.80396079E+02</rscale>
<asrwt>0</asrwt>
<pdfrwt beam="1">  1        1 0.32944556E-03 0.80396079E+02</pdfrwt>
<pdfrwt beam="2">  1       -2 0.11609122E+00 0.80396079E+02</pdfrwt>
<totfact> 0.34774977E+04</totfact>
</mgrwt>
</event>
<event>
 8      1 +5.0320763e-08 8.15586800e+01 7.81860800e-03 1.32468500e-01
       -2 -1    0    0    0  501 -0.0000000000e+00 +0.0000000000e+00 +2.0076082837e+02 2.0076082839e+02 2.5500000000e-03 0.0000e+00 1.0000e+00
        1 -1    0    0  501    0 +0.0000000000e+00 -0.0000000000e+00 -8.2832612715e+00 8.2832628048e+00 5.0400000000e-03 0.0000e+00 -1.0000e+00
      -24  2    1    2    0    0 -3.5527136788e-15 +0.0000000000e+00 +1.9247756710e+02 2.0904409119e+02 8.1558679647e+01 0.0000e+00 0.0000e+00
       66  2    3    3    0    0 +1.8764408587e+01 -2.8357398445e+01 +1.3319129513e+02 1.4069851135e+02 2.9998415307e+01 0.0000e+00 0.0000e+00
       13  1    3    3    0    0 -1.8764408587e+01 +2.8357398445e+01 +5.9286271973e+01 6.8345579848e+01 1.0566000000e-01 0.0000e+00 -1.0000e+00
       13  1    4    4    0    0 +6.3793931805e+00 -1.5711239100e+01 +2.7225650407e+01 3.2074708035e+01 1.0566000000e-01 0.0000e+00 -1.0000e+00
      -13  1    4    4    0    0 +1.3759283142e+01 -1.5330204047e+01 +8.6060103391e+01 8.8491161075e+01 1.0566000000e-01 0.0000e+00 1.0000e+00
      -14  1    4    4    0    0 -1.3742677359e+00 +2.6840447016e+00 +1.9905541330e+01 2.0132642237e+01 0.0000000000e+00 0.0000e+00 1.0000e+00
<mgrwt>
<rscale>  0 0.81558680E+02</rscale>
<asrwt>0</asrwt>
<pdfrwt beam="1">  1        1 0.12743481E-02 0.81558680E+02</pdfrwt>
<pdfrwt beam="2">  1       -2 0.30886278E-01 0.81558680E+02</pdfrwt>
<totfact> 0.80817908E+04</totfact>
</mgrwt>
</event>
<event>
 8      1 +5.0320763e-08 8.39692300e+01 7.81860800e-03 1.31815000e-01
        2 -1    0    0  501    0 +0.0000000000e+00 +0.0000000000e+00 +7.6714467900e+01 7.6714467942e+01 2.5500000000e-03 0.0000e+00 -1.0000e+00
       -1 -1    0    0    0  501 -0.0000000000e+00 -0.0000000000e+00 -2.2977513723e+01 2.2977514275e+01 5.0400000000e-03 0.0000e+00 1.0000e+00
       24  2    1    2    0    0 +0.0000000000e+00 +1.7763568394e-15 +5.3736954177e+01 9.9691982218e+01 8.3969226948e+01 0.0000e+00 0.0000e+00
       66  2    3    3    0    0 +3.3983837277e+01 +1.3473992498e+01 +2.7658990767e+01 5.4786292048e+01 3.0001139249e+01 0.0000e+00 0.0000e+00
      -13  1    3    3    0    0 -3.3983837277e+01 -1.3473992498e+01 +2.6077963410e+01 4.4905690170e+01 1.0566000000e-01 0.0000e+00 1.0000e+00
       13  1    4    4    0    0 -3.7426373841e+00 +1.1443314239e+00 +3.5447208483e+00 5.2813860798e+00 1.0566000000e-01 0.0000e+00 -1.0000e+00
      -13  1    4    4    0    0 -8.1118255632e-01 +2.2070904810e+00 +4.5347406735e+00 5.1092369825e+00 1.0566000000e-01 0.0000e+00 1.0000e+00
      -14  1    4    4    0    0 +3.8537657218e+01 +1.0122570593e+01 +1.9579529245e+01 4.4395668986e+01 0.0000000000e+00 0.0000e+00 1.0000e+00
<mgrwt>
<rscale>  0 0.83969227E+02</rscale>
<asrwt>0</asrwt>
<pdfrwt beam="1">  1        2 0.11802226E-01 0.83969227E+02</pdfrwt>
<pdfrwt beam="2">  1       -1 0.35350022E-02 0.83969227E+02</pdfrwt>
<totfact> 0.14488431E+05</totfact>
</mgrwt>
</event>
<event>
 8      1 +5.0320763e-08 8.25124300e+01 7.81860800e-03 1.32206900e-01
       -1 -1    0    0    0  501 -0.0000000000e+00 +0.0000000000e+00 +5.2333576196e+01 5.2333576439e+01 5.0400000000e-03 0.0000e+00 1.0000e+00
        4 -1    0    0  501    0 +0.0000000000e+00 -0.0000000000e+00 -3.2503472569e+01 3.2528274302e+01 1.2700000000e+00 0.0000e+00 -1.0000e+00
       24  2    1    2    0    0 +0.0000000000e+00 +0.0000000000e+00 +1.9830103627e+01 8.4861850741e+01 8.2512427556e+01 0.0000e+00 0.0000e+00
       66  2    3    3    0    0 -2.4952909071e+01 +1.0356345706e+01 -1.2935969816e+01 4.2393882807e+01 3.0000006949e+01 0.0000e+00 0.0000e+00
      -13  1    3    3    0    0 +2.4952909071e+01 -1.0356345706e+01 +3.2766073443e+01 4.2467967933e+01 1.0566000000e-01 0.0000e+00 1.0000e+00
       13  1    4    4    0    0 -3.4101738779e+00 +3.6969513015e+00 -2.6428579470e+00 5.6826575619e+00 1.0566000000e-01 0.0000e+00 -1.0000e+00
      -13  1    4    4    0    0 +2.4109909261e+00 +5.3348919087e+00 -1.1270766834e+01 1.2700995944e+01 1.0566000000e-01 0.0000e+00 1.0000e+00
       14  1    4    4    0    0 -2.3953726119e+01 +1.3245024963e+00 +9.7765496508e-01 2.4010229301e+01 0.0000000000e+00 0.0000e+00 -1.0000e+00
<mgrwt>
<rscale>  0 0.82512428E+02</rscale>
<asrwt>0</asrwt>
<pdfrwt beam="1">  1        4 0.50036273E-02 0.82512428E+02</pdfrwt>
<pdfrwt beam="2">  1       -1 0.80513198E-02 0.82512428E+02</pdfrwt>
<totfact> 0.62914011E+04</totfact>
</mgrwt>
</event>
<event>
 8      1 +5.0320763e-08 8.12851500e+01 7.81860800e-03 1.32544300e-01
       -3 -1    0    0    0  501 -0.0000000000e+00 +0.0000000000e+00 +8.6290602521e+01 8.6290661630e+01 1.0100000000e-01 0.0000e+00 1.0000e+00
        4 -1    0    0  501    0 +0.0000000000e+00 -0.0000000000e+00 -1.9116735597e+01 1.9158874703e+01 1.2700000000e+00 0.0000e+00 -1.0000e+00
       24  2    1    2    0    0 +1.7763568394e-15 +3.5527136788e-15 +6.7173866924e+01 1.0544953633e+02 8.1285154335e+01 0.0000e+00 0.0000e+00
       66  2    3    3    0    0 -1.2573356181e+01 -3.0563609270e+01 +2.2797074236e+01 5.0118402326e+01 2.9998735985e+01 0.0000e+00 0.0000e+00
      -13  1    3    3    0    0 +1.2573356181e+01 +3.0563609270e+01 +4.4376792688e+01 5.5331134007e+01 1.0566000000e-01 0.0000e+00 1.0000e+00
       13  1    4    4    0    0 -2.3771912721e+00 -8.6851729669e-01 +4.4291811463e+00 5.1023690871e+00 1.0566000000e-01 0.0000e+00 -1.0000e+00
      -13  1    4    4    0    0 -1.2731403674e+01 -3.2112142445e+01 +2.1183440050e+01 4.0521940086e+01 1.0566000000e-01 0.0000e+00 1.0000e+00
       14  1    4    4    0    0 +2.5352387655e+00 +2.4170504721e+00 -2.8155469597e+00 4.4940931527e+00 0.0000000000e+00 0.0000e+00 -1.0000e+00
<mgrwt>
<rscale>  0 0.81285154E+02</rscale>
<asrwt>0</asrwt>
<pdfrwt beam="1">  1        4 0.29449964E-02 0.81285154E+02</pdfrwt>
<pdfrwt beam="2">  1       -3 0.13275503E-01 0.81285154E+02</pdfrwt>
<totfact> 0.41645430E+04</totfact>
</mgrwt>
</event>
<event>
 8      1 +5.0320763e-08 8.11828200e+01 7.81860800e-03 1.32572800e-01
       -1 -1    0    0    0  501 -0.0000000000e+00 +0.0000000000e+00 +2.5449314398e+01 2.5449314897e+01 5.0400000000e-03 0.0000e+00 1.0000e+00
        2 -1    0    0  501    0 +0.0000000000e+00 -0.0000000000e+00 -6.4742905784e+01 6.4742905834e+01 2.5500000000e-03 0.0000e+00 -1.0000e+00
       24  2    1    2    0    0 +0.0000000000e+00 +0.0000000000e+00 -3.9293591386e+01 9.0192220731e+01 8.1182820575e+01 0.0000e+00 0.0000e+00
       66  2    3    3    0    0 +3.2280694046e+01 +1.1330175346e+01 -1.3871420023e+01 4.7569292133e+01 3.0000086318e+01 0.0000e+00 0.0000e+00
      -13  1    3    3    0    0 -3.2280694046e+01 -1.1330175346e+01 -2.5422171362e+01 4.2622928598e+01 1.0566000000e-01 0.0000e+00 1.0000e+00
       13  1    4    4    0    0 -3.0367712476e+00 -4.8253590372e-01 +8.9226984893e-01 3.2034559506e+00 1.0566000000e-01 0.0000e+00 -1.0000e+00
      -13  1    4    4    0    0 +1.1432010176e+01 +1.2243629707e+01 -9.6823481912e-01 1.6779331565e+01 1.0566000000e-01 0.0000e+00 1.0000e+00
       14  1    4    4    0    0 +2.3885455118e+01 -4.3091845706e-01 -1.3795455053e+01 2.7586504618e+01 0.0000000000e+00 0.0000e+00 -1.0000e+00
<mgrwt>
<rscale>  0 0.81182821E+02</rscale>
<asrwt>0</asrwt>
<pdfrwt beam="1">  1        2 0.99604470E-02 0.81182821E+02</pdfrwt>
<pdfrwt beam="2">  1       -1 0.39152792E-02 0.81182821E+02</pdfrwt>
<totfact> 0.15226582E+05</totfact>
</mgrwt>
</event>
<event>
 8      1 +5.0320763e-08 6.81494900e+01 7.81860800e-03 1.36650100e-01
        4 -1    0    0  501    0 +0.0000000000e+00 +0.0000000000e+00 +1.3149725960e+02 1.3150339228e+02 1.2700000000e+00 0.0000e+00 -1.0000e+00
       -3 -1    0    0    0  501 -0.0000000000e+00 -0.0000000000e+00 -8.8261718276e+00 8.8267496923e+00 1.0100000000e-01 0.0000e+00 1.0000e+00
       24  2    1    2    0    0 +0.0000000000e+00 +0.0000000000e+00 +1.2267108777e+02 1.4033014198e+02 6.8149489887e+01 0.0000e+00 0.0000e+00
       66  2    3    3    0    0 +8.2337498198e+00 -1.1817230247e+01 +1.2139121915e+02 1.2587016983e+02 3.0000499978e+01 0.0000e+00 0.0000e+00
      -13  1    3    3    0    0 -8.2337498198e+00 +1.1817230247e+01 +1.2798686215e+00 1.4459972148e+01 1.0566000000e-01 0.0000e+00 1.0000e+00
       13  1    4    4    0    0 +5.5529474299e+00 -3.4543601124e+00 +2.0236228909e+01 2.1266968600e+01 1.0566000000e-01 0.0000e+00 -1.0000e+00
      -13  1    4    4    0    0 -2.8787160251e+00 -6.8593034154e+00 +6.8200977766e+00 1.0092667983e+01 1.0566000000e-01 0.0000e+00 1.0000e+00
      -14  1    4    4    0    0 +5.5595184151e+00 -1.5035667190e+00 +9.4334892465e+01 9.4510533245e+01 0.0000000000e+00 0.0000e+00 1.0000e+00
<mgrwt>
<rscale>  0 0.68149490E+02</rscale>
<asrwt>0</asrwt>
<pdfrwt beam="1">  1        4 0.20237848E-01 0.68149490E+02</pdfrwt>
<pdfrwt beam="2">  1       -3 0.13579200E-02 0.68149490E+02</pdfrwt>
<totfact> 0.57856811E+04</totfact>
</mgrwt>
</event>
<event>
 8      1 +5.0320763e-08 7.95846600e+01 7.81860800e-03 1.33023400e-01
        2 -1    0    0  501    0 +0.0000000000e+00 +0.0000000000e+00 +9.9745766832e+02 9.9745766832e+02 2.5500000000e-03 0.0000e+00 -1.0000e+00
       -1 -1    0    0    0  501 -0.0000000000e+00 -0.0000000000e+00 -1.5874613548e+00 1.5874693555e+00 5.0400000000e-03 0.0000e+00 1.0000e+00
       24  2    1    2    0    0 +0.0000000000e+00 +1.7763568394e-15 +9.9587020697e+02 9.9904513768e+02 7.9584659317e+01 0.0000e+00 0.0000e+00
       66  2    3    3    0    0 -1.6926977704e+01 -1.3981537628e+01 +8.9685188172e+02 8.9762203446e+02 3.0000217169e+01 0.0000e+00 0.0000e+00
      -13  1    3    3    0    0 +1.6926977704e+01 +1.3981537628e+01 +9.9018325246e+01 1.0142310322e+02 1.0566000000e-01 0.0000e+00 1.0000e+00
       13  1    4    4    0    0 +1.6167999942e+00 -2.5190436265e+00 +2.1636219535e+02 2.1638292530e+02 1.0566000000e-01 0.0000e+00 -1.0000e+00
      -13  1    4    4    0    0 -4.3140664190e-01 -1.1539935905e+01 +1.5153932260e+02 1.5197872776e+02 1.0566000000e-01 0.0000e+00 1.0000e+00
       14  1    4    4    0    0 -1.8112371056e+01 +7.7441903832e-02 +5.2895036377e+02 5.2926038140e+02 0.0000000000e+00 0.0000e+00 -1.0000e+00
<mgrwt>
<rscale>  0 0.79584659E+02</rscale>
<asrwt>0</asrwt>
<pdfrwt beam="1">  1        2 0.15345477E+00 0.79584659E+02</pdfrwt>
<pdfrwt beam="2">  1       -1 0.24422584E-03 0.79584659E+02</pdfrwt>
<totfact> 0.35706504E+05</totfact>
</mgrwt>
</event>
<event>
 8      1 +5.0320763e-08 7.99956400e+01 7.81860800e-03 1.32906400e-01
       -2 -1    0    0    0  501 -0.0000000000e+00 +0.0000000000e+00 +5.0138104847e+01 5.0138104912e+01 2.5500000000e-03 0.0000e+00 1.0000e+00
        1 -1    0    0  501    0 +0.0000000000e+00 -0.0000000000e+00 -3.1908375492e+01 3.1908375890e+01 5.0400000000e-03 0.0000e+00 -1.0000e+00
      -24  2    1    2    0    0 -4.4408920985e-16 -3.5527136788e-15 +1.8229729355e+01 8.2046480801e+01 7.9995637253e+01 0.0000e+00 0.0000e+00
       66  2    3    3    0    0 -3.3350600242e+00 -2.4295451513e+01 +3.5098603320e+01 5.2281372664e+01 3.0000639710e+01 0.0000e+00 0.0000e+00
       13  1    3    3    0    0 +3.3350600242e+00 +2.4295451513e+01 -1.6868873965e+01 2.9765108138e+01 1.0566000000e-01 0.0000e+00 -1.0000e+00
       13  1    4    4    0    0 +5.1683469535e+00 +1.4544600152e+00 +1.5199953317e+00 5.5811122557e+00 1.0566000000e-01 0.0000e+00 -1.0000e+00
      -13  1    4    4    0    0 -8.4263111142e-01 -1.4230620104e+01 +5.2820658576e+00 1.5203024683e+01 1.0566000000e-01 0.0000e+00 1.0000e+00
      -14  1    4    4    0    0 -7.6607758662e+00 -1.1519291424e+01 +2.8296542131e+01 3.1497235725e+01 0.0000000000e+00 0.0000e+00 1.0000e+00
<mgrwt>
<rscale>  0 0.79995637E+02</rscale>
<asrwt>0</asrwt>
<pdfrwt beam="1">  1        1 0.49089809E-02 0.79995637E+02</pdfrwt>
<pdfrwt beam="2">  1       -2 0.77135546E-02 0.79995637E+02</pdfrwt>
<totfact> 0.12228021E+05</totfact>
</mgrwt>
</event>
<event>
 8      1 +5.0320763e-08 7.92433600e+01 7.81860800e-03 1.33121200e-01
        2 -1    0    0  501    0 +0.0000000000e+00 +0.0000000000e+00 +2.8778720140e+02 2.8778720141e+02 2.5500000000e-03 0.0000e+00 -1.0000e+00
       -1 -1    0    0    0  501 -0.0000000000e+00 -0.0000000000e+00 -5.4549935575e+00 5.4549958858e+00 5.0400000000e-03 0.0000e+00 1.0000e+00
       24  2    1    2    0    0 -8.8817841970e-16 +0.0000000000e+00 +2.8233220785e+02 2.9324219730e+02 7.9243363700e+01 0.0000e+00 0.0000e+00
       66  2    3    3    0    0 +4.3529382544e+00 -2.4135380628e+01 +2.4823445904e+02 2.5124062225e+02 3.0000649014e+01 0.0000e+00 0.0000e+00
      -13  1    3    3    0    0 -4.3529382544e+00 +2.4135380628e+01 +3.4097748803e+01 4.2001575054e+01 1.0566000000e-01 0.0000e+00 1.0000e+00
       13  1    4    4    0    0 +1.9788613747e+00 -5.4455156402e-01 +3.3442449231e+01 3.3505536906e+01 1.0566000000e-01 0.0000e+00 -1.0000e+00
      -13  1    4    4    0    0 -3.5540095691e+00 -1.4613302375e+01 +1.9137501099e+02 1.9196506345e+02 1.0566000000e-01 0.0000e+00 1.0000e+00
      -14  1    4    4    0    0 +5.9280864487e+00 -8.9775266891e+00 +2.3416998823e+01 2.5770021891e+01 0.0000000000e+00 0.0000e+00 1.0000e+00
<mgrwt>
<rscale>  0 0.79243364E+02</rscale>
<asrwt>0</asrwt>
<pdfrwt beam="1">  1        2 0.44274950E-01 0.79243364E+02</pdfrwt>
<pdfrwt beam="2">  1       -1 0.83923005E-03 0.79243364E+02</pdfrwt>
<totfact> 0.25747178E+05</totfact>
</mgrwt>
</event>
<event>
 8      1 +5.0320763e-08 7.27141400e+01 7.81860800e-03 1.35109900e-01
       -2 -1    0    0    0  501 -0.0000000000e+00 +0.0000000000e+00 +2.2714108973e+01 2.2714109116e+01 2.5500000000e-03 0.0000e+00 1.0000e+00
        1 -1    0    0  501    0 +0.0000000000e+00 -0.0000000000e+00 -5.8194509989e+01 5.8194510208e+01 5.0400000000e-03 0.0000e+00 -1.0000e+00
      -24  2    1    2    0    0 +0.0000000000e+00 +1.7763568394e-15 -3.5480401017e+01 8.0908619323e+01 7.2714137721e+01 0.0000e+00 0.0000e+00
       66  2    3    3    0    0 +1.4549249598e+01 -1.5268711365e+01 +3.2423378167e+00 3.6814675551e+01 2.9999889513e+01 0.0000e+00 0.0000e+00
       13  1    3    3    0    0 -1.4549249598e+01 +1.5268711365e+01 -3.8722738833e+01 4.4093943772e+01 1.0566000000e-01 0.0000e+00 -1.0000e+00
       13  1    4    4    0    0 +9.9659495925e+00 -1.3311409041e+00 +8.9891211525e+00 1.3487310722e+01 1.0566000000e-01 0.0000e+00 -1.0000e+00
      -13  1    4    4    0    0 +1.4887185470e-01 -1.5875650548e+01 -8.2073646912e-02 1.5876912272e+01 1.0566000000e-01 0.0000e+00 1.0000e+00
      -14  1    4    4    0    0 +4.4344281505e+00 +1.9380800869e+00 -5.6647096889e+00 7.4504525570e+00 0.0000000000e+00 0.0000e+00 1.0000e+00
<mgrwt>
<rscale>  0 0.72714138E+02</rscale>
<asrwt>0</asrwt>
<pdfrwt beam="1">  1        1 0.89530015E-02 0.72714138E+02</pdfrwt>
<pdfrwt beam="2">  1       -2 0.34944783E-02 0.72714138E+02</pdfrwt>
<totfact> 0.17498871E+05</totfact>
</mgrwt>
</event>
<event>
 8      1 +5.0320763e-08 8.03009600e+01 7.81860800e-03 1.32820000e-01
        1 -1    0    0  501    0 +0.0000000000e+00 +0.0000000000e+00 +4.0230925592e+02 4.0230925596e+02 5.0400000000e-03 0.0000e+00 -1.0000e+00
       -2 -1    0    0    0  501 -0.0000000000e+00 -0.0000000000e+00 -4.0070188263e+00 4.0070196377e+00 2.5500000000e-03 0.0000e+00 1.0000e+00
      -24  2    1    2    0    0 +0.0000000000e+00 +0.0000000000e+00 +3.9830223710e+02 4.0631627559e+02 8.0300957248e+01 0.0000e+00 0.0000e+00
       66  2    3    3    0    0 +5.9982257268e+00 -3.4019219491e+01 +2.2901233984e+02 2.3353790171e+02 3.0000228769e+01 0.0000e+00 0.0000e+00
       13  1    3    3    0    0 -5.9982257268e+00 +3.4019219491e+01 +1.6928989725e+02 1.7277837389e+02 1.0566000000e-01 0.0000e+00 -1.0000e+00
       13  1    4    4    0    0 -4.0381002792e+00 -1.7757817770e+01 +1.4775434796e+02 1.4887244490e+02 1.0566000000e-01 0.0000e+00 -1.0000e+00
      -13  1    4    4    0    0 +1.0755574559e+01 -1.5354486461e+01 +8.1370808490e+01 8.3502468687e+01 1.0566000000e-01 0.0000e+00 1.0000e+00
      -14  1    4    4    0    0 -7.1924855279e-01 -9.0691526016e-01 -1.1281660840e-01 1.1629881156e+00 0.0000000000e+00 0.0000e+00 1.0000e+00
<mgrwt>
<rscale>  0 0.80300957E+02</rscale>
<asrwt>0</asrwt>
<pdfrwt beam="1">  1        1 0.61893750E-01 0.80300957E+02</pdfrwt>
<pdfrwt beam="2">  1       -2 0.61646432E-03 0.80300957E+02</pdfrwt>
<totfact> 0.18824753E+05</totfact>
</mgrwt>
</event>
<event>
 8      1 +5.0320763e-08 7.93760800e+01 7.81860800e-03 1.33083100e-01
       -2 -1    0    0    0  501 -0.0000000000e+00 +0.0000000000e+00 +1.1414668943e+02 1.1414668946e+02 2.5500000000e-03 0.0000e+00 1.0000e+00
        1 -1    0    0  501    0 +0.0000000000e+00 -0.0000000000e+00 -1.3799265506e+01 1.3799266427e+01 5.0400000000e-03 0.0000e+00 -1.0000e+00
      -24  2    1    2    0    0 +0.0000000000e+00 +0.0000000000e+00 +1.0034742392e+02 1.2794595589e+02 7.9376080398e+01 0.0000e+00 0.0000e+00
       66  2    3    3    0    0 +2.7390266476e+01 -9.3172505653e+00 +8.6185026703e+01 9.5733807326e+01 3.0001086340e+01 0.0000e+00 0.0000e+00
       13  1    3    3    0    0 -2.7390266476e+01 +9.3172505653e+00 +1.4162397221e+01 3.2212148560e+01 1.0566000000e-01 0.0000e+00 -1.0000e+00
       13  1    4    4    0    0 -1.9917203872e+00 -2.4070124139e+00 -7.0140612301e-01 3.2037155689e+00 1.0566000000e-01 0.0000e+00 -1.0000e+00
      -13  1    4    4    0    0 +6.2515311088e+00 +3.6042938229e-01 +3.0749545702e+01 3.1380842491e+01 1.0566000000e-01 0.0000e+00 1.0000e+00
      -14  1    4    4    0    0 +2.3130455755e+01 -7.2706675337e+00 +5.6136887124e+01 6.1149249266e+01 0.0000000000e+00 0.0000e+00 1.0000e+00
<mgrwt>
<rscale>  0 0.79376080E+02</rscale>
<asrwt>0</asrwt>
<pdfrwt beam="1">  1        1 0.21229641E-02 0.79376080E+02</pdfrwt>
<pdfrwt beam="2">  1       -2 0.17561028E-01 0.79376080E+02</pdfrwt>
<totfact> 0.10462819E+05</totfact>
</mgrwt>
</event>
<event>
 8      1 +5.0320763e-08 6.90708300e+01 7.81860800e-03 1.36328200e-01
        1 -1    0    0  501    0 +0.0000000000e+00 +0.0000000000e+00 +3.0110955618e+01 3.0110956040e+01 5.0400000000e-03 0.0000e+00 -1.0000e+00
       -2 -1    0    0    0  501 -0.0000000000e+00 -0.0000000000e+00 -3.9609999285e+01 3.9609999367e+01 2.5500000000e-03 0.0000e+00 1.0000e+00
      -24  2    1    2    0    0 +3.5527136788e-15 +0.0000000000e+00 -9.4990436673e+00 6.9720955407e+01 6.9070831704e+01 0.0000e+00 0.0000e+00
       66  2    3    3    0    0 -2.3182359704e+01 +1.1545754133e+01 -1.6441620518e+01 4.2907958981e+01 3.0000663638e+01 0.0000e+00 0.0000e+00
       13  1    3    3    0    0 +2.3182359704e+01 -1.1545754133e+01 +6.9425768511e+00 2.6812996425e+01 1.0566000000e-01 0.0000e+00 -1.0000e+00
       13  1    4    4    0    0 -1.0849531007e+01 +2.7984525297e+00 -2.5722565826e+00 1.1496578952e+01 1.0566000000e-01 0.0000e+00 -1.0000e+00
      -13  1    4    4    0    0 -6.1135627965e+00 -1.9620093466e+00 +5.4774858519e+00 8.4403285502e+00 1.0566000000e-01 0.0000e+00 1.0000e+00
      -14  1    4    4    0    0 -6.2192659003e+00 +1.0709310950e+01 -1.9346849788e+01 2.2971051479e+01 0.0000000000e+00 0.0000e+00 1.0000e+00
<mgrwt>
<rscale>  0 0.69070832E+02</rscale>
<asrwt>0</asrwt>
<pdfrwt beam="1">  1        1 0.46324548E-02 0.69070832E+02</pdfrwt>
<pdfrwt beam="2">  1       -2 0.60938461E-02 0.69070832E+02</pdfrwt>
<totfact> 0.18329749E+05</totfact>
</mgrwt>
</event>
<event>
 8      1 +5.0320763e-08 8.28545700e+01 7.81860800e-03 1.32114000e-01
       -1 -1    0    0    0  501 -0.0000000000e+00 +0.0000000000e+00 +6.1859672760e+01 6.1859672966e+01 5.0400000000e-03 0.0000e+00 1.0000e+00
        2 -1    0    0  501    0 +0.0000000000e+00 -0.0000000000e+00 -2.7743763545e+01 2.7743763663e+01 2.5500000000e-03 0.0000e+00 -1.0000e+00
       24  2    1    2    0    0 -4.4408920985e-16 +0.0000000000e+00 +3.4115909215e+01 8.9603436628e+01 8.2854574973e+01 0.0000e+00 0.0000e+00
       66  2    3    3    0    0 +3.8485460686e+00 +2.4656697365e+01 -8.7600279946e+00 3.9993748185e+01 2.9999962860e+01 0.0000e+00 0.0000e+00
      -13  1    3    3    0    0 -3.8485460686e+00 -2.4656697365e+01 +4.2875937210e+01 4.9609688443e+01 1.0566000000e-01 0.0000e+00 1.0000e+00
       13  1    4    4    0    0 -5.2558276233e-01 +7.5839530364e+00 -9.1573367428e+00 1.1902124229e+01 1.0566000000e-01 0.0000e+00 -1.0000e+00
      -13  1    4    4    0    0 +5.8142490753e+00 +1.9274611783e+01 -6.1371586487e+00 2.1047375894e+01 1.0566000000e-01 0.0000e+00 1.0000e+00
      -14  1    4    4    0    0 -1.4401202444e+00 -2.2018674544e+00 +6.5344673968e+00 7.0442480625e+00 0.0000000000e+00 0.0000e+00 1.0000e+00
<mgrwt>
<rscale>  0 0.82854575E+02</rscale>
<asrwt>0</asrwt>
<pdfrwt beam="1">  1        2 0.42682714E-02 0.82854575E+02</pdfrwt>
<pdfrwt beam="2">  1       -1 0.95168726E-02 0.82854575E+02</pdfrwt>
<totfact> 0.12000668E+05</totfact>
</mgrwt>
</event>
<event>
 8      1 +5.0320763e-08 7.95146600e+01 7.81860800e-03 1.33043400e-01
       -2 -1    0    0    0  501 -0.0000000000e+00 +0.0000000000e+00 +1.7659265426e+01 1.7659265610e+01 2.5500000000e-03 0.0000e+00 1.0000e+00
        1 -1    0    0  501    0 +0.0000000000e+00 -0.0000000000e+00 -8.9507987997e+01 8.9507988139e+01 5.0400000000e-03 0.0000e+00 -1.0000e+00
      -24  2    1    2    0    0 +0.0000000000e+00 +0.0000000000e+00 -7.1848722571e+01 1.0716725375e+02 7.9514661171e+01 0.0000e+00 0.0000e+00
       66  2    3    3    0    0 +2.7001692900e+01 +1.2877204571e+01 -6.3092566205e+01 7.5996830984e+01 2.9998876518e+01 0.0000e+00 0.0000e+00
       13  1    3    3    0    0 -2.7001692900e+01 -1.2877204571e+01 -8.7561563662e+00 3.1170422765e+01 1.0566000000e-01 0.0000e+00 -1.0000e+00
       13  1    4    4    0    0 +1.0443266088e+01 +2.0871526526e+00 -3.6666415687e+01 3.8181870255e+01 1.0566000000e-01 0.0000e+00 -1.0000e+00
      -13  1    4    4    0    0 +2.4753039519e-02 +9.5587344059e+00 -5.2030927228e+00 1.0883627799e+01 1.0566000000e-01 0.0000e+00 1.0000e+00
      -14  1    4    4    0    0 +1.6533673772e+01 +1.2313175122e+00 -2.1223057795e+01 2.6931332930e+01 0.0000000000e+00 0.0000e+00 1.0000e+00
<mgrwt>
<rscale>  0 0.79514661E+02</rscale>
<asrwt>0</asrwt>
<pdfrwt beam="1">  1        1 0.13770459E-01 0.79514661E+02</pdfrwt>
<pdfrwt beam="2">  1       -2 0.27168101E-02 0.79514661E+02</pdfrwt>
<totfact> 0.14670784E+05</totfact>
</mgrwt>
</event>
<event>
 8      1 +5.0320763e-08 9.82985000e+01 7.81860800e-03 1.28391500e-01
       -3 -1    0    0    0  501 -0.0000000000e+00 +0.0000000000e+00 +1.5816528264e+01 1.5816850740e+01 1.0100000000e-01 0.0000e+00 1.0000e+00
        4 -1    0    0  501    0 +0.0000000000e+00 -0.0000000000e+00 -1.5269954625e+02 1.5270482745e+02 1.2700000000e+00 0.0000e+00 -1.0000e+00
       24  2    1    2    0    0 -1.7763568394e-15 +0.0000000000e+00 -1.3688301799e+02 1.6852167819e+02 9.8298501542e+01 0.0000e+00 0.0000e+00
       66  2    3    3    0    0 -1.3134850640e+01 -4.1841046895e+01 -8.8466410250e+01 1.0319651783e+02 3.0000300721e+01 0.0000e+00 0.0000e+00
      -13  1    3    3    0    0 +1.3134850640e+01 +4.1841046895e+01 -4.8416607739e+01 6.5325160356e+01 1.0566000000e-01 0.0000e+00 1.0000e+00
       13  1    4    4    0    0 +6.4340182772e-01 +4.0090215340e+00 -5.8796956358e+00 7.1462020947e+00 1.0566000000e-01 0.0000e+00 -1.0000e+00
      -13  1    4    4    0    0 -8.7856144821e+00 -1.8894852249e+01 -4.4355181173e+01 4.9006078442e+01 1.0566000000e-01 0.0000e+00 1.0000e+00
      -14  1    4    4    0    0 -4.9926379852e+00 -2.6955216180e+01 -3.8231533441e+01 4.7044237294e+01 0.0000000000e+00 0.0000e+00 1.0000e+00
<mgrwt>
<rscale>  0 0.98298502E+02</rscale>
<asrwt>0</asrwt>
<pdfrwt beam="1">  1        4 0.23496565E-01 0.98298502E+02</pdfrwt>
<pdfrwt beam="2">  1       -3 0.24333396E-02 0.98298502E+02</pdfrwt>
<totfact> 0.20677824E+04</totfact>
</mgrwt>
</event>
<event>
 8      1 +5.0320763e-08 8.14110800e+01 7.81860800e-03 1.32509400e-01
        2 -1    0    0  501    0 +0.0000000000e+00 +0.0000000000e+00 +1.3884172906e+01 1.3884173140e+01 2.5500000000e-03 0.0000e+00 -1.0000e+00
       -1 -1    0    0    0  501 -0.0000000000e+00 -0.0000000000e+00 -1.1934027242e+02 1.1934027253e+02 5.0400000000e-03 0.0000e+00 1.0000e+00
       24  2    1    2    0    0 +0.0000000000e+00 +0.0000000000e+00 -1.0545609952e+02 1.3322444567e+02 8.1411080317e+01 0.0000e+00 0.0000e+00
       66  2    3    3    0    0 +1.7754846456e+01 -2.5779935568e+01 -3.3621188847e+01 5.4865622264e+01 3.0000208605e+01 0.0000e+00 0.0000e+00
      -13  1    3    3    0    0 -1.7754846456e+01 +2.5779935568e+01 -7.1834910668e+01 7.8358823404e+01 1.0566000000e-01 0.0000e+00 1.0000e+00
       13  1    4    4    0    0 +5.5585237240e+00 -2.3608863495e+01 -2.1937850716e+01 3.2704068242e+01 1.0566000000e-01 0.0000e+00 1.0000e+00
      -13  1    4    4    0    0 +2.1399269259e+00 +5.1255814775e+00 -7.3946031242e-01 5.6043588679e+00 1.0566000000e-01 0.0000e+00 -1.0000e+00
       14  1    4    4    0    0 +1.0056395806e+01 -7.2966535506e+00 -1.0943877819e+01 1.6557195154e+01 0.0000000000e+00 0.0000e+00 -1.0000e+00
<mgrwt>
<rscale>  0 0.81411080E+02</rscale>
<asrwt>0</asrwt>
<pdfrwt beam="1">  1        2 0.21360267E-02 0.81411080E+02</pdfrwt>
<pdfrwt beam="2">  1       -1 0.18360041E-01 0.81411080E+02</pdfrwt>
<totfact> 0.10909457E+05</totfact>
</mgrwt>
</event>
<event>
 8      1 +5.0320763e-08 8.07472300e+01 7.81860800e-03 1.32694400e-01
        2 -1    0    0  501    0 +0.0000000000e+00 +0.0000000000e+00 +9.1260440967e+02 9.1260440967e+02 2.5500000000e-03 0.0000e+00 -1.0000e+00
       -3 -1    0    0    0  501 -0.0000000000e+00 -0.0000000000e+00 -1.7846980966e+00 1.7875537184e+00 1.0100000000e-01 0.0000e+00 1.0000e+00
       24  2    1    2    0    0 -4.4408920985e-16 +0.0000000000e+00 +9.1081971157e+02 9.1439196339e+02 8.0747233545e+01 0.0000e+00 0.0000e+00
       66  2    3    3    0    0 +2.1561317464e+00 +2.8718091466e+01 +7.3951186073e+02 7.4068022341e+02 3.0000391909e+01 0.0000e+00 0.0000e+00
      -13  1    3    3    0    0 -2.1561317464e+00 -2.8718091466e+01 +1.7130785085e+02 1.7371173998e+02 1.0566000000e-01 0.0000e+00 1.0000e+00
       13  1    4    4    0    0 +4.3843187008e+00 +2.0205228944e+00 +1.7561242200e+02 1.7567879408e+02 1.0566000000e-01 0.0000e+00 -1.0000e+00
      -13  1    4    4    0    0 +3.1914363582e-01 +2.7833597083e+01 +5.5446660401e+02 5.5516487381e+02 1.0566000000e-01 0.0000e+00 1.0000e+00
      -14  1    4    4    0    0 -2.5473305902e+00 -1.1360285117e+00 +9.4328347118e+00 9.8365555260e+00 0.0000000000e+00 0.0000e+00 1.0000e+00
<mgrwt>
<rscale>  0 0.80747234E+02</rscale>
<asrwt>0</asrwt>
<pdfrwt beam="1">  1        2 0.14040104E+00 0.80747234E+02</pdfrwt>
<pdfrwt beam="2">  1       -3 0.27478832E-03 0.80747234E+02</pdfrwt>
<totfact> 0.29396084E+05</totfact>
</mgrwt>
</event>
<event>
 8      1 +5.0320763e-08 7.99102100e+01 7.81860800e-03 1.32930600e-01
        1 -1    0    0  501    0 +0.0000000000e+00 +0.0000000000e+00 +1.9665792329e+01 1.9665792974e+01 5.0400000000e-03 0.0000e+00 -1.0000e+00
       -2 -1    0    0    0  501 -0.0000000000e+00 -0.0000000000e+00 -8.1177028299e+01 8.1177028339e+01 2.5500000000e-03 0.0000e+00 1.0000e+00
      -24  2    1    2    0    0 +0.0000000000e+00 -3.5527136788e-15 -6.1511235970e+01 1.0084282131e+02 7.9910214991e+01 0.0000e+00 0.0000e+00
       66  2    3    3    0    0 +9.7784632690e+00 +2.4568767921e+01 -6.2707858250e+01 7.4372351541e+01 2.9995474431e+01 0.0000e+00 0.0000e+00
       13  1    3    3    0    0 -9.7784632690e+00 -2.4568767921e+01 +1.1966222800e+00 2.6470469772e+01 1.0566000000e-01 0.0000e+00 -1.0000e+00
       13  1    4    4    0    0 +1.3942790048e+00 -3.2905815244e+00 -4.2067797630e+00 5.5208786187e+00 1.0566000000e-01 0.0000e+00 -1.0000e+00
      -13  1    4    4    0    0 +1.5129497004e+01 +2.1069592654e+01 -4.8549311481e+01 5.5044311455e+01 1.0566000000e-01 0.0000e+00 1.0000e+00
      -14  1    4    4    0    0 -6.7453127402e+00 +6.7897567913e+00 -9.9517670062e+00 1.3807161468e+01 0.0000000000e+00 0.0000e+00 1.0000e+00
<mgrwt>
<rscale>  0 0.79910215E+02</rscale>
<asrwt>0</asrwt>
<pdfrwt beam="1">  1        1 0.30255066E-02 0.79910215E+02</pdfrwt>
<pdfrwt beam="2">  1       -2 0.12488773E-01 0.79910215E+02</pdfrwt>
<totfact> 0.11172596E+05</totfact>
</mgrwt>
</event>
<event>
 8      1 +5.0320763e-08 7.79825000e+01 7.81860800e-03 1.33487600e-01
        2 -1    0    0  501    0 +0.0000000000e+00 +0.0000000000e+00 +1.6098099431e+02 1.6098099433e+02 2.5500000000e-03 0.0000e+00 -1.0000e+00
       -1 -1    0    0    0  501 -0.0000000000e+00 -0.0000000000e+00 -9.4440801943e+00 9.4440815391e+00 5.0400000000e-03 0.0000e+00 1.0000e+00
       24  2    1    2    0    0 +2.2204460493e-15 +0.0000000000e+00 +1.5153691412e+02 1.7042507587e+02 7.7982498968e+01 0.0000e+00 0.0000e+00
       66  2    3    3    0    0 +1.3382944520e+00 +2.3925304938e+01 +1.3726512200e+02 1.4253410129e+02 3.0000751101e+01 0.0000e+00 0.0000e+00
      -13  1    3    3    0    0 -1.3382944520e+00 -2.3925304938e+01 +1.4271792118e+01 2.7890974574e+01 1.0566000000e-01 0.0000e+00 1.0000e+00
       13  1    4    4    0    0 +3.0300949002e+00 +5.2011693467e+00 +4.3062754341e+01 4.3481554861e+01 1.0566000000e-01 0.0000e+00 -1.0000e+00
      -13  1    4    4    0    0 -7.8385020426e+00 +1.2217688795e+01 +2.2386814427e+01 2.6681354126e+01 1.0566000000e-01 0.0000e+00 1.0000e+00
      -14  1    4    4    0    0 +6.1467015944e+00 +6.5064467954e+00 +7.1815553229e+01 7.2371192307e+01 0.0000000000e+00 0.0000e+00 1.0000e+00
<mgrwt>
<rscale>  0 0.77982499E+02</rscale>
<asrwt>0</asrwt>
<pdfrwt beam="1">  1        2 0.24766304E-01 0.77982499E+02</pdfrwt>
<pdfrwt beam="2">  1       -1 0.14529357E-02 0.77982499E+02</pdfrwt>
<totfact> 0.21929109E+05</totfact>
</mgrwt>
</event>
<event>
 8      1 +5.0320763e-08 8.03466100e+01 7.81860800e-03 1.32807100e-01
       -3 -1    0    0    0  501 -0.0000000000e+00 +0.0000000000e+00 +5.3524060252e+01 5.3524155546e+01 1.0100000000e-01 0.0000e+00 1.0000e+00
        4 -1    0    0  501    0 +0.0000000000e+00 -0.0000000000e+00 -3.0131703997e+01 3.0158456289e+01 1.2700000000e+00 0.0000e+00 -1.0000e+00
       24  2    1    2    0    0 -8.8817841970e-16 +0.0000000000e+00 +2.3392356255e+01 8.3682611835e+01 8.0346606601e+01 0.0000e+00 0.0000e+00
       66  2    3    3    0    0 +6.4904437086e+00 -1.9794324908e+01 -1.5409148368e+01 3.9642753943e+01 3.0002748685e+01 0.0000e+00 0.0000e+00
      -13  1    3    3    0    0 -6.4904437086e+00 +1.9794324908e+01 +3.8801504623e+01 4.4039857892e+01 1.0566000000e-01 0.0000e+00 1.0000e+00
       13  1    4    4    0    0 +1.1791134101e+00 -1.6679461153e+01 +4.5417347746e+00 1.7327240161e+01 1.0566000000e-01 0.0000e+00 -1.0000e+00
      -13  1    4    4    0    0 +9.0971013229e-01 +2.4998311471e+00 -7.5914713673e+00 8.0447703413e+00 1.0566000000e-01 0.0000e+00 1.0000e+00
       14  1    4    4    0    0 +4.4016201662e+00 -5.6146949019e+00 -1.2359411775e+01 1.4270743441e+01 0.0000000000e+00 0.0000e+00 -1.0000e+00
<mgrwt>
<rscale>  0 0.80346607E+02</rscale>
<asrwt>0</asrwt>
<pdfrwt beam="1">  1        4 0.46388634E-02 0.80346607E+02</pdfrwt>
<pdfrwt beam="2">  1       -3 0.82344916E-02 0.80346607E+02</pdfrwt>
<totfact> 0.44581251E+04</totfact>
</mgrwt>
</event>
<event>
 8      1 +5.0320763e-08 7.89842200e+01 7.81860800e-03 1.33195900e-01
        1 -1    0    0  501    0 +0.0000000000e+00 +0.0000000000e+00 +3.4242880269e+01 3.4242880640e+01 5.0400000000e-03 0.0000e+00 -1.0000e+00
       -2 -1    0    0    0  501 -0.0000000000e+00 -0.0000000000e+00 -4.5546017480e+01 4.5546017551e+01 2.5500000000e-03 0.0000e+00 1.0000e+00
      -24  2    1    2    0    0 +0.0000000000e+00 -8.8817841970e-16 -1.1303137211e+01 7.9788898191e+01 7.8984222246e+01 0.0000e+00 0.0000e+00
       66  2    3    3    0    0 -3.2345526241e+01 -7.9670537068e+00 -1.2215449579e+01 4.6463975229e+01 2.9999612883e+01 0.0000e+00 0.0000e+00
       13  1    3    3    0    0 +3.2345526241e+01 +7.9670537068e+00 +9.1231236798e-01 3.3324922962e+01 1.0566000000e-01 0.0000e+00 -1.0000e+00
       13  1    4    4    0    0 +1.6552701467e+00 +2.6733700278e+00 +1.8989130649e+00 3.6747600504e+00 1.0566000000e-01 0.0000e+00 -1.0000e+00
      -13  1    4    4    0    0 -7.0385816303e+00 -1.1354709319e+01 -5.8067184686e+00 1.4567093000e+01 1.0566000000e-01 0.0000e+00 1.0000e+00
       14  1    4    4    0    0 -2.6962214757e+01 +7.1428558393e-01 -8.3076441750e+00 2.8222122178e+01 0.0000000000e+00 0.0000e+00 -1.0000e+00
<mgrwt>
<rscale>  0 0.78984222E+02</rscale>
<asrwt>0</asrwt>
<pdfrwt beam="1">  1        1 0.52681355E-02 0.78984222E+02</pdfrwt>
<pdfrwt beam="2">  1       -2 0.70070797E-02 0.78984222E+02</pdfrwt>
<totfact> 0.12832592E+05</totfact>
</mgrwt>
</event>
<event>
 8      1 +5.0320763e-08 7.94951000e+01 7.81860800e-03 1.33049000e-01
       -2 -1    0    0    0  501 -0.0000000000e+00 +0.0000000000e+00 +8.1813545580e+00 8.1813549554e+00 2.5500000000e-03 0.0000e+00 1.0000e+00
        1 -1    0    0  501    0 +0.0000000000e+00 -0.0000000000e+00 -1.9310588553e+02 1.9310588559e+02 5.0400000000e-03 0.0000e+00 -1.0000e+00
      -24  2    1    2    0    0 +0.0000000000e+00 +0.0000000000e+00 -1.8492453097e+02 2.0128724055e+02 7.9495100814e+01 0.0000e+00 0.0000e+00
       66  2    3    3    0    0 -2.2831605651e+01 -1.4044308372e+01 -5.2313031977e+01 6.5993686958e+01 2.9999809823e+01 0.0000e+00 0.0000e+00
       13  1    3    3    0    0 +2.2831605651e+01 +1.4044308372e+01 -1.3261149899e+02 1.3529355359e+02 1.0566000000e-01 0.0000e+00 -1.0000e+00
       13  1    4    4    0    0 +4.2729395765e-01 -1.8198013477e+00 +1.1982166113e+00 2.2228684520e+00 1.0566000000e-01 0.0000e+00 1.0000e+00
      -13  1    4    4    0    0 +2.0062301300e+00 -7.3573932633e+00 -5.8646130865e+00 9.6208651199e+00 1.0566000000e-01 0.0000e+00 -1.0000e+00
       14  1    4    4    0    0 -2.5265129738e+01 -4.8671137607e+00 -4.7646635502e+01 5.4149953386e+01 0.0000000000e+00 0.0000e+00 -1.0000e+00
<mgrwt>
<rscale>  0 0.79495101E+02</rscale>
<asrwt>0</asrwt>
<pdfrwt beam="1">  1        1 0.29708594E-01 0.79495101E+02</pdfrwt>
<pdfrwt beam="2">  1       -2 0.12586701E-02 0.79495101E+02</pdfrwt>
<totfact> 0.16841826E+05</totfact>
</mgrwt>
</event>
<event>
 8      1 +5.0320763e-08 7.84891100e+01 7.81860800e-03 1.33339500e-01
       -2 -1    0    0    0  501 -0.0000000000e+00 +0.0000000000e+00 +6.2843571934e+01 6.2843571986e+01 2.5500000000e-03 0.0000e+00 1.0000e+00
        1 -1    0    0  501    0 +0.0000000000e+00 -0.0000000000e+00 -2.4507439039e+01 2.4507439557e+01 5.0400000000e-03 0.0000e+00 -1.0000e+00
      -24  2    1    2    0    0 +0.0000000000e+00 +8.8817841970e-16 +3.8336132895e+01 8.7351011543e+01 7.8489108366e+01 0.0000e+00 0.0000e+00
       66  2    3    3    0    0 -2.1941458141e+01 +7.0347369642e+00 +4.9048634740e+01 6.1940699279e+01 2.9999442460e+01 0.0000e+00 0.0000e+00
       13  1    3    3    0    0 +2.1941458141e+01 -7.0347369642e+00 -1.0712501845e+01 2.5410312263e+01 1.0566000000e-01 0.0000e+00 -1.0000e+00
       13  1    4    4    0    0 +4.6480951909e-01 +5.4730069057e-01 +2.4060237824e+01 2.4071181818e+01 1.0566000000e-01 0.0000e+00 -1.0000e+00
      -13  1    4    4    0    0 -7.4070582182e+00 -3.6745310981e+00 +1.5133325554e+01 1.7245155743e+01 1.0566000000e-01 0.0000e+00 1.0000e+00
       14  1    4    4    0    0 -1.4999209442e+01 +1.0161967372e+01 +9.8550713615e+00 2.0624361718e+01 0.0000000000e+00 0.0000e+00 -1.0000e+00
<mgrwt>
<rscale>  0 0.78489108E+02</rscale>
<asrwt>0</asrwt>
<pdfrwt beam="1">  1        1 0.37703753E-02 0.78489108E+02</pdfrwt>
<pdfrwt beam="2">  1       -2 0.96682418E-02 0.78489108E+02</pdfrwt>
<totfact> 0.12316594E+05</totfact>
</mgrwt>
</event>
<event>
 8      1 +5.0320763e-08 8.07777100e+01 7.81860800e-03 1.32685900e-01
        1 -1    0    0  501    0 +0.0000000000e+00 +0.0000000000e+00 +1.5478770372e+02 1.5478770380e+02 5.0400000000e-03 0.0000e+00 -1.0000e+00
       -2 -1    0    0    0  501 -0.0000000000e+00 -0.0000000000e+00 -1.0538689728e+01 1.0538690037e+01 2.5500000000e-03 0.0000e+00 1.0000e+00
      -24  2    1    2    0    0 +0.0000000000e+00 +0.0000000000e+00 +1.4424901399e+02 1.6532639384e+02 8.0777710181e+01 0.0000e+00 0.0000e+00
       66  2    3    3    0    0 -2.5319528503e+01 +2.1151607072e+01 +5.9336498301e+01 7.4229656848e+01 3.0012546040e+01 0.0000e+00 0.0000e+00
       13  1    3    3    0    0 +2.5319528503e+01 -2.1151607072e+01 +8.4912515687e+01 9.1096736987e+01 1.0566000000e-01 0.0000e+00 -1.0000e+00
       13  1    4    4    0    0 +8.4868192693e-01 +2.0924411559e+00 +6.5975032877e+00 6.9740077912e+00 1.0566000000e-01 0.0000e+00 -1.0000e+00
      -13  1    4    4    0    0 -1.8092042456e+01 +2.3650077740e+01 +2.8175385663e+01 4.0994044672e+01 1.0566000000e-01 0.0000e+00 1.0000e+00
       14  1    4    4    0    0 -8.0761679741e+00 -4.5909118234e+00 +2.4563609351e+01 2.6261604385e+01 0.0000000000e+00 0.0000e+00 -1.0000e+00
<mgrwt>
<rscale>  0 0.80777710E+02</rscale>
<asrwt>0</asrwt>
<pdfrwt beam="1">  1        1 0.23813492E-01 0.80777710E+02</pdfrwt>
<pdfrwt beam="2">  1       -2 0.16213370E-02 0.80777710E+02</pdfrwt>
<totfact> 0.15475341E+05</totfact>
</mgrwt>
</event>
<event>
 8      1 +5.0320763e-08 8.03832900e+01 7.81860800e-03 1.32796700e-01
        2 -1    0    0  501    0 +0.0000000000e+00 +0.0000000000e+00 +1.3392913476e+01 1.3392913719e+01 2.5500000000e-03 0.0000e+00 -1.0000e+00
       -1 -1    0    0    0  501 -0.0000000000e+00 -0.0000000000e+00 -1.2061365063e+02 1.2061365074e+02 5.0400000000e-03 0.0000e+00 1.0000e+00
       24  2    1    2    0    0 +3.5527136788e-15 +0.0000000000e+00 -1.0722073716e+02 1.3400656446e+02 8.0383287077e+01 0.0000e+00 0.0000e+00
       66  2    3    3    0    0 -2.8965190459e+01 +4.8712773293e+00 -3.0609762313e+01 5.1958016441e+01 2.9999438702e+01 0.0000e+00 0.0000e+00
      -13  1    3    3    0    0 +2.8965190459e+01 -4.8712773293e+00 -7.6610974845e+01 8.2048548018e+01 1.0566000000e-01 0.0000e+00 1.0000e+00
       13  1    4    4    0    0 +1.2214393241e+00 -5.8812595893e-01 -1.2404773924e+00 1.8405853315e+00 1.0566000000e-01 0.0000e+00 -1.0000e+00
      -13  1    4    4    0    0 +2.5286777921e-01 +7.7821676079e+00 -1.3807354775e+01 1.5851822756e+01 1.0566000000e-01 0.0000e+00 1.0000e+00
       14  1    4    4    0    0 -3.0439497562e+01 -2.3227643196e+00 -1.5561930146e+01 3.4265608353e+01 0.0000000000e+00 0.0000e+00 -1.0000e+00
<mgrwt>
<rscale>  0 0.80383287E+02</rscale>
<asrwt>0</asrwt>
<pdfrwt beam="1">  1        2 0.20604483E-02 0.80383287E+02</pdfrwt>
<pdfrwt beam="2">  1       -1 0.18555946E-01 0.80383287E+02</pdfrwt>
<totfact> 0.11235529E+05</totfact>
</mgrwt>
</event>
<event>
 8      1 +5.0320763e-08 7.97833800e+01 7.81860800e-03 1.32966700e-01
       -2 -1    0    0    0  501 -0.0000000000e+00 +0.0000000000e+00 +8.1635466689e+00 8.1635470671e+00 2.5500000000e-03 0.0000e+00 1.0000e+00
        1 -1    0    0  501    0 +0.0000000000e+00 -0.0000000000e+00 -1.9493329045e+02 1.9493329052e+02 5.0400000000e-03 0.0000e+00 -1.0000e+00
      -24  2    1    2    0    0 +3.5527136788e-15 +1.7763568394e-15 -1.8676974378e+02 2.0309683758e+02 7.9783383257e+01 0.0000e+00 0.0000e+00
       66  2    3    3    0    0 +2.8435585358e+01 +1.1940563501e+01 -6.8648671555e+01 8.1015887229e+01 2.9996238195e+01 0.0000e+00 0.0000e+00
       13  1    3    3    0    0 -2.8435585358e+01 -1.1940563501e+01 -1.1812107223e+02 1.2208095036e+02 1.0566000000e-01 0.0000e+00 -1.0000e+00
       13  1    4    4    0    0 +2.2189043846e+01 +9.8158728766e-01 -2.9198739648e+01 3.6686438114e+01 1.0566000000e-01 0.0000e+00 1.0000e+00
      -13  1    4    4    0    0 +1.8904489727e+00 +3.8618773862e+00 -3.4234694221e+01 3.4503816408e+01 1.0566000000e-01 0.0000e+00 -1.0000e+00
      -14  1    4    4    0    0 +4.3560925388e+00 +7.0970988272e+00 -5.2152376855e+00 9.8256327067e+00 0.0000000000e+00 0.0000e+00 1.0000e+00
<mgrwt>
<rscale>  0 0.79783383E+02</rscale>
<asrwt>0</asrwt>
<pdfrwt beam="1">  1        1 0.29989734E-01 0.79783383E+02</pdfrwt>
<pdfrwt beam="2">  1       -2 0.12559304E-02 0.79783383E+02</pdfrwt>
<totfact> 0.16711110E+05</totfact>
</mgrwt>
</event>
<event>
 8      1 +5.0320763e-08 8.12908100e+01 7.81860800e-03 1.32542800e-01
        2 -1    0    0  501    0 +0.0000000000e+00 +0.0000000000e+00 +1.3980482733e+01 1.3980482965e+01 2.5500000000e-03 0.0000e+00 -1.0000e+00
       -1 -1    0    0    0  501 -0.0000000000e+00 -0.0000000000e+00 -1.1816823049e+02 1.1816823059e+02 5.0400000000e-03 0.0000e+00 1.0000e+00
       24  2    1    2    0    0 +3.5527136788e-15 +3.5527136788e-15 -1.0418774775e+02 1.3214871356e+02 8.1290809525e+01 0.0000e+00 0.0000e+00
       66  2    3    3    0    0 -2.3610507118e+01 -2.4396620842e+01 -4.4651232025e+01 6.3612161093e+01 3.0002055973e+01 0.0000e+00 0.0000e+00
      -13  1    3    3    0    0 +2.3610507118e+01 +2.4396620842e+01 -5.9536515727e+01 6.8536552465e+01 1.0566000000e-01 0.0000e+00 1.0000e+00
       13  1    4    4    0    0 +3.6757500706e+00 -8.4086946631e+00 -3.7046593203e+00 9.8971182287e+00 1.0566000000e-01 0.0000e+00 -1.0000e+00
      -13  1    4    4    0    0 -3.0116689016e+00 -8.9500200583e+00 -1.2421805146e+01 1.5604019217e+01 1.0566000000e-01 0.0000e+00 1.0000e+00
       14  1    4    4    0    0 -2.4274588287e+01 -7.0379061203e+00 -2.8524767559e+01 3.8111023646e+01 0.0000000000e+00 0.0000e+00 -1.0000e+00
<mgrwt>
<rscale>  0 0.81290810E+02</rscale>
<asrwt>0</asrwt>
<pdfrwt beam="1">  1        2 0.21508436E-02 0.81290810E+02</pdfrwt>
<pdfrwt beam="2">  1       -1 0.18179727E-01 0.81290810E+02</pdfrwt>
<totfact> 0.10974837E+05</totfact>
</mgrwt>
</event>
<event>
 8      1 +5.0320763e-08 7.92037900e+01 7.81860800e-03 1.33132600e-01
       -1 -1    0    0    0  501 -0.0000000000e+00 +0.0000000000e+00 +2.2312230443e+01 2.2312231012e+01 5.0400000000e-03 0.0000e+00 1.0000e+00
        2 -1    0    0  501    0 +0.0000000000e+00 -0.0000000000e+00 -7.0289257816e+01 7.0289257862e+01 2.5500000000e-03 0.0000e+00 -1.0000e+00
       24  2    1    2    0    0 +1.2212453271e-15 +0.0000000000e+00 -4.7977027373e+01 9.2601488874e+01 7.9203791488e+01 0.0000e+00 0.0000e+00
       66  2    3    3    0    0 -2.9317023496e-01 +2.9644987806e+01 -4.6700804083e+01 6.2927406567e+01 2.9999702406e+01 0.0000e+00 0.0000e+00
      -13  1    3    3    0    0 +2.9317023496e-01 -2.9644987806e+01 -1.2762232900e+00 2.9674082307e+01 1.0566000000e-01 0.0000e+00 1.0000e+00
       13  1    4    4    0    0 +2.9191980548e+00 +4.1578064779e+00 -3.7183913195e+00 6.2965601745e+00 1.0566000000e-01 0.0000e+00 -1.0000e+00
      -13  1    4    4    0    0 +1.2907542815e+00 -3.6112420636e+00 +7.5061349166e-01 3.9091815648e+00 1.0566000000e-01 0.0000e+00 1.0000e+00
       14  1    4    4    0    0 -4.5031225712e+00 +2.9098423392e+01 -4.3733026255e+01 5.2721664828e+01 0.0000000000e+00 0.0000e+00 -1.0000e+00
<mgrwt>
<rscale>  0 0.79203791E+02</rscale>
<asrwt>0</asrwt>
<pdfrwt beam="1">  1        2 0.10813732E-01 0.79203791E+02</pdfrwt>
<pdfrwt beam="2">  1       -1 0.34326509E-02 0.79203791E+02</pdfrwt>
<totfact> 0.16606030E+05</totfact>
</mgrwt>
</event>
<event>
 8      1 +5.0320763e-08 7.99021600e+01 7.81860800e-03 1.32932900e-01
        2 -1    0    0  501    0 +0.0000000000e+00 +0.0000000000e+00 +9.7668286518e+01 9.7668286552e+01 2.5500000000e-03 0.0000e+00 -1.0000e+00
       -1 -1    0    0    0  501 -0.0000000000e+00 -0.0000000000e+00 -1.6341935520e+01 1.6341936297e+01 5.0400000000e-03 0.0000e+00 1.0000e+00
       24  2    1    2    0    0 +3.5527136788e-15 +0.0000000000e+00 +8.1326350998e+01 1.1401022285e+02 7.9902162345e+01 0.0000e+00 0.0000e+00
       66  2    3    3    0    0 +2.6737842373e+01 +2.1448419966e+01 +4.3984840338e+01 6.3321501063e+01 2.9999989727e+01 0.0000e+00 0.0000e+00
      -13  1    3    3    0    0 -2.6737842373e+01 -2.1448419966e+01 +3.7341510661e+01 5.0688721786e+01 1.0566000000e-01 0.0000e+00 1.0000e+00
       13  1    4    4    0    0 +1.8879267450e+01 +1.1181359209e+01 +4.1493069642e+01 4.6937570512e+01 1.0566000000e-01 0.0000e+00 -1.0000e+00
      -13  1    4    4    0    0 -1.1718940191e+00 +2.4722757235e-01 -1.8563280073e+00 2.2116904781e+00 1.0566000000e-01 0.0000e+00 1.0000e+00
       14  1    4    4    0    0 +9.0304689422e+00 +1.0019833185e+01 +4.3480987024e+00 1.4172240073e+01 0.0000000000e+00 0.0000e+00 -1.0000e+00
<mgrwt>
<rscale>  0 0.79902162E+02</rscale>
<asrwt>0</asrwt>
<pdfrwt beam="1">  1        2 0.15025890E-01 0.79902162E+02</pdfrwt>
<pdfrwt beam="2">  1       -1 0.25141440E-02 0.79902162E+02</pdfrwt>
<totfact> 0.17667548E+05</totfact>
</mgrwt>
</event>
<event>
 8      1 +5.0320763e-08 7.95622500e+01 7.81860800e-03 1.33029800e-01
       -2 -1    0    0    0  501 -0.0000000000e+00 +0.0000000000e+00 +1.6963696450e+02 1.6963696452e+02 2.5500000000e-03 0.0000e+00 1.0000e+00
        1 -1    0    0  501    0 +0.0000000000e+00 -0.0000000000e+00 -9.3289688177e+00 9.3289701792e+00 5.0400000000e-03 0.0000e+00 -1.0000e+00
      -24  2    1    2    0    0 -3.5527136788e-15 +0.0000000000e+00 +1.6030799568e+02 1.7896593470e+02 7.9562254259e+01 0.0000e+00 0.0000e+00
       66  2    3    3    0    0 -2.1850559862e+01 -2.2140474205e+01 +1.2311093668e+02 1.3047593648e+02 3.0000328452e+01 0.0000e+00 0.0000e+00
       13  1    3    3    0    0 +2.1850559862e+01 +2.2140474205e+01 +3.7197059006e+01 4.8489998217e+01 1.0566000000e-01 0.0000e+00 -1.0000e+00
       13  1    4    4    0    0 -1.2709308508e+01 -6.9057637206e-01 +2.9751267519e+01 3.2359735807e+01 1.0566000000e-01 0.0000e+00 -1.0000e+00
      -13  1    4    4    0    0 -6.9161714624e-01 -1.0011041057e+01 +7.0380684129e+01 7.1092553336e+01 1.0566000000e-01 0.0000e+00 1.0000e+00
      -14  1    4    4    0    0 -8.4496342071e+00 -1.1438856776e+01 +2.2978985029e+01 2.7023647340e+01 0.0000000000e+00 0.0000e+00 1.0000e+00
<mgrwt>
<rscale>  0 0.79562254E+02</rscale>
<asrwt>0</asrwt>
<pdfrwt beam="1">  1        1 0.14352261E-02 0.79562254E+02</pdfrwt>
<pdfrwt beam="2">  1       -2 0.26097994E-01 0.79562254E+02</pdfrwt>
<totfact> 0.91889674E+04</totfact>
</mgrwt>
</event>
<event>
 8      1 +5.0320763e-08 7.99464200e+01 7.81860800e-03 1.32920400e-01
       -4 -1    0    0    0  501 -0.0000000000e+00 +0.0000000000e+00 +5.9043883646e+02 5.9044020231e+02 1.2700000000e+00 0.0000e+00 1.0000e+00
        3 -1    0    0  501    0 +0.0000000000e+00 -0.0000000000e+00 -2.7045871314e+00 2.7064723444e+00 1.0100000000e-01 0.0000e+00 -1.0000e+00
      -24  2    1    2    0    0 +0.0000000000e+00 +0.0000000000e+00 +5.8773424933e+02 5.9314667465e+02 7.9946418407e+01 0.0000e+00 0.0000e+00
       66  2    3    3    0    0 +2.4972550511e+01 +1.9287135985e+01 +4.3587094811e+02 4.3803995231e+02 2.9998241991e+01 0.0000e+00 0.0000e+00
       13  1    3    3    0    0 -2.4972550511e+01 -1.9287135985e+01 +1.5186330122e+02 1.5510672234e+02 1.0566000000e-01 0.0000e+00 -1.0000e+00
       13  1    4    4    0    0 +1.0852798073e+01 +2.0929656966e+01 +2.4780637783e+02 2.4892538204e+02 1.0566000000e-01 0.0000e+00 1.0000e+00
      -13  1    4    4    0    0 +1.0549170130e+01 -1.3024288914e-02 +1.7799160955e+02 1.7830398030e+02 1.0566000000e-01 0.0000e+00 -1.0000e+00
       14  1    4    4    0    0 +3.5705823072e+00 -1.6294966923e+00 +1.0072960735e+01 1.0810589968e+01 0.0000000000e+00 0.0000e+00 -1.0000e+00
<mgrwt>
<rscale>  0 0.79946418E+02</rscale>
<asrwt>0</asrwt>
<pdfrwt beam="1">  1        3 0.41623601E-03 0.79946418E+02</pdfrwt>
<pdfrwt beam="2">  1       -4 0.90859779E-01 0.79946418E+02</pdfrwt>
<totfact> 0.17711657E+04</totfact>
</mgrwt>
</event>
<event>
 8      1 +5.0320763e-08 7.93685600e+01 7.81860800e-03 1.33085300e-01
        2 -1    0    0  501    0 +0.0000000000e+00 +0.0000000000e+00 +1.1283571102e+02 1.1283571105e+02 2.5500000000e-03 0.0000e+00 -1.0000e+00
       -1 -1    0    0    0  501 -0.0000000000e+00 -0.0000000000e+00 -1.3956945658e+01 1.3956946568e+01 5.0400000000e-03 0.0000e+00 1.0000e+00
       24  2    1    2    0    0 +0.0000000000e+00 +0.0000000000e+00 +9.8878765363e+01 1.2679265762e+02 7.9368556658e+01 0.0000e+00 0.0000e+00
       66  2    3    3    0    0 -2.2157825168e+01 +2.5762580657e+01 +5.8927801473e+01 7.4344869695e+01 2.9999901419e+01 0.0000e+00 0.0000e+00
      -13  1    3    3    0    0 +2.2157825168e+01 -2.5762580657e+01 +3.9950963890e+01 5.2447787923e+01 1.0566000000e-01 0.0000e+00 1.0000e+00
       13  1    4    4    0    0 -9.9877928243e+00 +1.3203414011e+01 +1.4380021098e+01 2.1929029113e+01 1.0566000000e-01 0.0000e+00 -1.0000e+00
      -13  1    4    4    0    0 -1.2535669623e+01 +1.5714531447e+01 +2.2630035614e+01 3.0269112763e+01 1.0566000000e-01 0.0000e+00 1.0000e+00
       14  1    4    4    0    0 +3.6563727957e-01 -3.1553648015e+00 +2.1917744761e+01 2.2146727818e+01 0.0000000000e+00 0.0000e+00 -1.0000e+00
<mgrwt>
<rscale>  0 0.79368557E+02</rscale>
<asrwt>0</asrwt>
<pdfrwt beam="1">  1        2 0.17359340E-01 0.79368557E+02</pdfrwt>
<pdfrwt beam="2">  1       -1 0.21472226E-02 0.79368557E+02</pdfrwt>
<totfact> 0.18741615E+05</totfact>
</mgrwt>
</event>
<event>
 8      1 +5.0320763e-08 7.87616500e+01 7.81860800e-03 1.33260300e-01
        1 -1    0    0  501    0 +0.0000000000e+00 +0.0000000000e+00 +3.7404672319e+01 3.7404672659e+01 5.0400000000e-03 0.0000e+00 -1.0000e+00
       -2 -1    0    0    0  501 -0.0000000000e+00 -0.0000000000e+00 -4.1461380060e+01 4.1461380138e+01 2.5500000000e-03 0.0000e+00 1.0000e+00
      -24  2    1    2    0    0 -6.1062266354e-16 +0.0000000000e+00 -4.0567077404e+00 7.8866052797e+01 7.8761649336e+01 0.0000e+00 0.0000e+00
       66  2    3    3    0    0 -4.6583075843e-01 -3.1841920709e+01 -1.3262223593e+01 4.5716730045e+01 3.0000131978e+01 0.0000e+00 0.0000e+00
       13  1    3    3    0    0 +4.6583075843e-01 +3.1841920709e+01 +9.2055158524e+00 3.3149322751e+01 1.0566000000e-01 0.0000e+00 -1.0000e+00
       13  1    4    4    0    0 +6.7905636188e+00 -9.9281505834e+00 +2.2883619378e+00 1.2244496423e+01 1.0566000000e-01 0.0000e+00 -1.0000e+00
      -13  1    4    4    0    0 +1.5046251110e+00 -1.6199201000e+01 -2.0563944076e+00 1.6398717381e+01 1.0566000000e-01 0.0000e+00 1.0000e+00
      -14  1    4    4    0    0 -8.7610194882e+00 -5.7145691259e+00 -1.3494191123e+01 1.7073516241e+01 0.0000000000e+00 0.0000e+00 1.0000e+00
<mgrwt>
<rscale>  0 0.78761649E+02</rscale>
<asrwt>0</asrwt>
<pdfrwt beam="1">  1        1 0.57545650E-02 0.78761649E+02</pdfrwt>
<pdfrwt beam="2">  1       -2 0.63786739E-02 0.78761649E+02</pdfrwt>
<totfact> 0.13124743E+05</totfact>
</mgrwt>
</event>
<event>
 8      1 +5.0320763e-08 7.92841100e+01 7.81860800e-03 1.33109500e-01
        2 -1    0    0  501    0 +0.0000000000e+00 +0.0000000000e+00 +1.1470896285e+01 1.1470896568e+01 2.5500000000e-03 0.0000e+00 -1.0000e+00
       -1 -1    0    0    0  501 -0.0000000000e+00 -0.0000000000e+00 -1.3699824019e+02 1.3699824029e+02 5.0400000000e-03 0.0000e+00 1.0000e+00
       24  2    1    2    0    0 +4.4408920985e-16 +0.0000000000e+00 -1.2552734391e+02 1.4846913685e+02 7.9284112718e+01 0.0000e+00 0.0000e+00
       66  2    3    3    0    0 +3.7549596775e+00 -3.1715267432e+01 -5.0093130086e+01 6.6552778967e+01 2.9999879933e+01 0.0000e+00 0.0000e+00
      -13  1    3    3    0    0 -3.7549596775e+00 +3.1715267432e+01 -7.5434213822e+01 8.1916357887e+01 1.0566000000e-01 0.0000e+00 1.0000e+00
       13  1    4    4    0    0 +1.1341585450e+00 +1.2410624389e+00 -6.2921271005e-01 1.7982280869e+00 1.0566000000e-01 0.0000e+00 -1.0000e+00
      -13  1    4    4    0    0 +6.3613948948e+00 -3.6224241852e+01 -4.2562920171e+01 5.6251901126e+01 1.0566000000e-01 0.0000e+00 1.0000e+00
      -14  1    4    4    0    0 -3.7405937623e+00 +3.2679119819e+00 -6.9009972052e+00 8.5026497542e+00 0.0000000000e+00 0.0000e+00 1.0000e+00
<mgrwt>
<rscale>  0 0.79284113E+02</rscale>
<asrwt>0</asrwt>
<pdfrwt beam="1">  1        2 0.17647534E-02 0.79284113E+02</pdfrwt>
<pdfrwt beam="2">  1       -1 0.21076651E-01 0.79284113E+02</pdfrwt>
<totfact> 0.11286520E+05</totfact>
</mgrwt>
</event>
<event>
 7      1 +5.0320763e-08 1.27683000e+02 7.81860800e-03 1.23093500e-01
       -3 -1    0    0    0  501 -0.0000000000e+00 +0.0000000000e+00 +9.8259282784e+00 9.8264473506e+00 1.0100000000e-01 0.0000e+00 1.0000e+00
        4 -1    0    0  501    0 +0.0000000000e+00 -0.0000000000e+00 -4.1474113909e+02 4.1474308355e+02 1.2700000000e+00 0.0000e+00 -1.0000e+00
       66  2    1    2    0    0 +3.2122712525e+01 +2.2313929180e+01 -3.6631650204e+02 3.6961817443e+02 3.0000585083e+01 0.0000e+00 0.0000e+00
      -13  1    1    2    0    0 -3.2122712525e+01 -2.2313929180e+01 -3.8598708771e+01 5.4951356473e+01 1.0566000000e-01 0.0000e+00 1.0000e+00
       13  1    3    3    0    0 +3.1273481617e+01 +2.3769432325e+01 -2.7294400779e+02 2.7575615880e+02 1.0566000000e-01 0.0000e+00 -1.0000e+00
      -13  1    3    3    0    0 -4.2741415326e+00 -6.5936320200e-01 -4.7871442730e+01 4.8066508494e+01 1.0566000000e-01 0.0000e+00 1.0000e+00
      -14  1    3    3    0    0 +5.1233724400e+00 -7.9613994310e-01 -4.5501051525e+01 4.5795507136e+01 0.0000000000e+00 0.0000e+00 1.0000e+00
<mgrwt>
<rscale>  0 0.12768304E+03</rscale>
<asrwt>0</asrwt>
<pdfrwt beam="1">  1        4 0.63812778E-01 0.12768304E+03</pdfrwt>
<pdfrwt beam="2">  1       -3 0.15117225E-02 0.12768304E+03</pdfrwt>
<totfact> 0.64390074E+03</totfact>
</mgrwt>
</event>
<event>
 8      1 +5.0320763e-08 8.17699800e+01 7.81860800e-03 1.32410200e-01
        1 -1    0    0  501    0 +0.0000000000e+00 +0.0000000000e+00 +1.9854062437e+02 1.9854062444e+02 5.0400000000e-03 0.0000e+00 -1.0000e+00
       -2 -1    0    0    0  501 -0.0000000000e+00 -0.0000000000e+00 -8.4193461896e+00 8.4193465758e+00 2.5500000000e-03 0.0000e+00 1.0000e+00
      -24  2    1    2    0    0 +3.5527136788e-15 +0.0000000000e+00 +1.9012127818e+02 2.0695997101e+02 8.1769977275e+01 0.0000e+00 0.0000e+00
       66  2    3    3    0    0 +2.2454252615e+01 -1.4731385356e+01 +4.9551047070e+01 6.3847399188e+01 2.9999615703e+01 0.0000e+00 0.0000e+00
       13  1    3    3    0    0 -2.2454252615e+01 +1.4731385356e+01 +1.4057023111e+02 1.4311257183e+02 1.0566000000e-01 0.0000e+00 -1.0000e+00
       13  1    4    4    0    0 +3.1364804722e+00 -1.4083229791e+01 +2.3853899328e+01 2.7878209202e+01 1.0566000000e-01 0.0000e+00 -1.0000e+00
      -13  1    4    4    0    0 +2.2382149561e+00 -3.5149707184e+00 +1.5102174264e+01 1.5666890466e+01 1.0566000000e-01 0.0000e+00 1.0000e+00
      -14  1    4    4    0    0 +1.7079557187e+01 +2.8668151529e+00 +1.0594973477e+01 2.0302299520e+01 0.0000000000e+00 0.0000e+00 1.0000e+00
<mgrwt>
<rscale>  0 0.81769977E+02</rscale>
<asrwt>0</asrwt>
<pdfrwt beam="1">  1        1 0.30544712E-01 0.81769977E+02</pdfrwt>
<pdfrwt beam="2">  1       -2 0.12952840E-02 0.81769977E+02</pdfrwt>
<totfact> 0.15709174E+05</totfact>
</mgrwt>
</event>
<event>
 8      1 +5.0320763e-08 7.92773800e+01 7.81860800e-03 1.33111500e-01
        2 -1    0    0  501    0 +0.0000000000e+00 +0.0000000000e+00 +6.3340098261e+02 6.3340098261e+02 2.5500000000e-03 0.0000e+00 -1.0000e+00
       -3 -1    0    0    0  501 -0.0000000000e+00 -0.0000000000e+00 -2.4795860007e+00 2.4816421448e+00 1.0100000000e-01 0.0000e+00 1.0000e+00
       24  2    1    2    0    0 +4.4408920985e-16 +0.0000000000e+00 +6.3092139661e+02 6.3588262476e+02 7.9277384998e+01 0.0000e+00 0.0000e+00
       66  2    3    3    0    0 +8.0447255626e-01 -1.2399626683e+01 +6.1415866506e+02 6.1501642599e+02 2.9999007576e+01 0.0000e+00 0.0000e+00
      -13  1    3    3    0    0 -8.0447255626e-01 +1.2399626683e+01 +1.6762731553e+01 2.0866198770e+01 1.0566000000e-01 0.0000e+00 1.0000e+00
       13  1    4    4    0    0 -5.3404683233e+00 +1.4681137655e+00 +1.8692518516e+02 1.8700725112e+02 1.0566000000e-01 0.0000e+00 -1.0000e+00
      -13  1    4    4    0    0 +5.0682880356e+00 -8.7631550581e-01 +2.3118670481e+01 2.3684162668e+01 1.0566000000e-01 0.0000e+00 1.0000e+00
      -14  1    4    4    0    0 +1.0766528439e+00 -1.2991424942e+01 +4.0411480941e+02 4.0432501220e+02 0.0000000000e+00 0.0000e+00 1.0000e+00
<mgrwt>
<rscale>  0 0.79277385E+02</rscale>
<asrwt>0</asrwt>
<pdfrwt beam="1">  1        2 0.97446155E-01 0.79277385E+02</pdfrwt>
<pdfrwt beam="2">  1       -3 0.38163414E-03 0.79277385E+02</pdfrwt>
<totfact> 0.28217698E+05</totfact>
</mgrwt>
</event>
<event>
 8      1 +5.0320763e-08 8.08307100e+01 7.81860800e-03 1.32671000e-01
        1 -1    0    0  501    0 +0.0000000000e+00 +0.0000000000e+00 +8.7233635331e+01 8.7233635477e+01 5.0400000000e-03 0.0000e+00 -1.0000e+00
       -4 -1    0    0    0  501 -0.0000000000e+00 -0.0000000000e+00 -1.8698274887e+01 1.8741354907e+01 1.2700000000e+00 0.0000e+00 1.0000e+00
      -24  2    1    2    0    0 -8.8817841970e-16 -3.5527136788e-15 +6.8535360444e+01 1.0597499038e+02 8.0830705525e+01 0.0000e+00 0.0000e+00
       66  2    3    3    0    0 -7.1344274009e+00 -2.8315192051e+01 +1.4051535453e+01 4.4159551334e+01 2.9999502833e+01 0.0000e+00 0.0000e+00
       13  1    3    3    0    0 +7.1344274009e+00 +2.8315192051e+01 +5.4483824991e+01 6.1815439050e+01 1.0566000000e-01 0.0000e+00 -1.0000e+00
       13  1    4    4    0    0 -2.2117114185e+00 -8.9822613451e+00 -6.1218158053e+00 1.1093262778e+01 1.0566000000e-01 0.0000e+00 -1.0000e+00
      -13  1    4    4    0    0 +4.2292570203e+00 -1.5788573873e+01 +1.3477937931e+01 2.1185647377e+01 1.0566000000e-01 0.0000e+00 1.0000e+00
       14  1    4    4    0    0 -9.1519730026e+00 -3.5443568329e+00 +6.6954133274e+00 1.1880641179e+01 0.0000000000e+00 0.0000e+00 -1.0000e+00
<mgrwt>
<rscale>  0 0.80830706E+02</rscale>
<asrwt>0</asrwt>
<pdfrwt beam="1">  1        1 0.13420560E-01 0.80830706E+02</pdfrwt>
<pdfrwt beam="2">  1       -4 0.28806824E-02 0.80830706E+02</pdfrwt>
<totfact> 0.92215819E+04</totfact>
</mgrwt>
</event>
<event>
 8      1 +5.0320763e-08 7.85303800e+01 7.81860800e-03 1.33327400e-01
       -4 -1    0    0    0  501 -0.0000000000e+00 +0.0000000000e+00 +2.5393238961e+01 2.5424977580e+01 1.2700000000e+00 0.0000e+00 1.0000e+00
        3 -1    0    0  501    0 +0.0000000000e+00 -0.0000000000e+00 -6.0661250493e+01 6.0661334574e+01 1.0100000000e-01 0.0000e+00 -1.0000e+00
      -24  2    1    2    0    0 -8.8817841970e-16 +3.5527136788e-15 -3.5268011532e+01 8.6086312154e+01 7.8530379491e+01 0.0000e+00 0.0000e+00
       66  2    3    3    0    0 +5.5127257217e+00 +2.1614894113e+01 +7.2416903788e+00 3.8079232333e+01 2.9999867719e+01 0.0000e+00 0.0000e+00
       13  1    3    3    0    0 -5.5127257217e+00 -2.1614894113e+01 -4.2509701910e+01 4.8007079821e+01 1.0566000000e-01 0.0000e+00 -1.0000e+00
       13  1    4    4    0    0 +1.1575696763e+01 +8.3462069384e+00 +8.0240597868e+00 1.6372312766e+01 1.0566000000e-01 0.0000e+00 -1.0000e+00
      -13  1    4    4    0    0 -8.1049912139e+00 +1.6097350992e+01 -1.6901512883e+00 1.8102026598e+01 1.0566000000e-01 0.0000e+00 1.0000e+00
      -14  1    4    4    0    0 +2.0420201723e+00 -2.8286638174e+00 +9.0778188025e-01 3.6048929691e+00 0.0000000000e+00 0.0000e+00 1.0000e+00
<mgrwt>
<rscale>  0 0.78530379E+02</rscale>
<asrwt>0</asrwt>
<pdfrwt beam="1">  1        3 0.93325220E-02 0.78530379E+02</pdfrwt>
<pdfrwt beam="2">  1       -4 0.39101162E-02 0.78530379E+02</pdfrwt>
<totfact> 0.47309801E+04</totfact>
</mgrwt>
</event>
<event>
 8      1 +5.0320763e-08 8.63065900e+01 7.81860800e-03 1.31205100e-01
        2 -1    0    0  501    0 +0.0000000000e+00 +0.0000000000e+00 +3.4587221260e+02 3.4587221261e+02 2.5500000000e-03 0.0000e+00 -1.0000e+00
       -1 -1    0    0    0  501 -0.0000000000e+00 -0.0000000000e+00 -5.3840882247e+00 5.3840905836e+00 5.0400000000e-03 0.0000e+00 1.0000e+00
       24  2    1    2    0    0 +1.7763568394e-15 +0.0000000000e+00 +3.4048812437e+02 3.5125630319e+02 8.6306591244e+01 0.0000e+00 0.0000e+00
       66  2    3    3    0    0 -1.0639443548e+01 -3.3051311821e+01 +2.5304733186e+02 2.5717394389e+02 2.9998304664e+01 0.0000e+00 0.0000e+00
      -13  1    3    3    0    0 +1.0639443548e+01 +3.3051311821e+01 +8.7440792511e+01 9.4082359298e+01 1.0566000000e-01 0.0000e+00 1.0000e+00
       13  1    4    4    0    0 -4.0251905040e+00 -2.5855901552e+00 +6.7624341656e+00 8.2842691243e+00 1.0566000000e-01 0.0000e+00 -1.0000e+00
      -13  1    4    4    0    0 +3.7295891132e+00 -1.0609935312e+01 +4.5894550164e+01 4.7252528621e+01 1.0566000000e-01 0.0000e+00 1.0000e+00
       14  1    4    4    0    0 -1.0343842157e+01 -1.9855786353e+01 +2.0039034753e+02 2.0163714615e+02 0.0000000000e+00 0.0000e+00 -1.0000e+00
<mgrwt>
<rscale>  0 0.86306591E+02</rscale>
<asrwt>0</asrwt>
<pdfrwt beam="1">  1        2 0.53211106E-01 0.86306591E+02</pdfrwt>
<pdfrwt beam="2">  1       -1 0.82832150E-03 0.86306591E+02</pdfrwt>
<totfact> 0.21986287E+05</totfact>
</mgrwt>
</event>
<event>
 8      1 +5.0320763e-08 7.72315800e+01 7.81860800e-03 1.33709700e-01
       -1 -1    0    0    0  501 -0.0000000000e+00 +0.0000000000e+00 +2.8177766987e+00 2.8177812060e+00 5.0400000000e-03 0.0000e+00 1.0000e+00
        2 -1    0    0  501    0 +0.0000000000e+00 -0.0000000000e+00 -5.2920374769e+02 5.2920374769e+02 2.5500000000e-03 0.0000e+00 -1.0000e+00
       24  2    1    2    0    0 +0.0000000000e+00 -1.7763568394e-15 -5.2638597099e+02 5.3202152890e+02 7.7231578767e+01 0.0000e+00 0.0000e+00
       66  2    3    3    0    0 -1.4221565937e+01 -8.3689452690e+00 -4.9808962822e+02 4.9926505838e+02 3.0000476639e+01 0.0000e+00 0.0000e+00
      -13  1    3    3    0    0 +1.4221565937e+01 +8.3689452690e+00 -2.8296342767e+01 3.2756470516e+01 1.0566000000e-01 0.0000e+00 1.0000e+00
       13  1    4    4    0    0 -9.8378739111e+00 +2.1757649527e+00 -7.1719961443e+01 7.2424317391e+01 1.0566000000e-01 0.0000e+00 -1.0000e+00
      -13  1    4    4    0    0 -2.3417276830e+00 +1.1440205105e+00 -1.1129454159e+01 1.1431027311e+01 1.0566000000e-01 0.0000e+00 1.0000e+00
       14  1    4    4    0    0 -2.0419643428e+00 -1.1688730732e+01 -4.1524021262e+02 4.1540971368e+02 0.0000000000e+00 0.0000e+00 -1.0000e+00
<mgrwt>
<rscale>  0 0.77231579E+02</rscale>
<asrwt>0</asrwt>
<pdfrwt beam="1">  1        2 0.81415882E-01 0.77231579E+02</pdfrwt>
<pdfrwt beam="2">  1       -1 0.43350488E-03 0.77231579E+02</pdfrwt>
<totfact> 0.33970374E+05</totfact>
</mgrwt>
</event>
<event>
 8      1 +5.0320763e-08 8.05220600e+01 7.81860800e-03 1.32757600e-01
       -3 -1    0    0    0  501 -0.0000000000e+00 +0.0000000000e+00 +1.4617588758e+01 1.4617937682e+01 1.0100000000e-01 0.0000e+00 1.0000e+00
        4 -1    0    0  501    0 +0.0000000000e+00 -0.0000000000e+00 -1.1085768576e+02 1.1086496017e+02 1.2700000000e+00 0.0000e+00 -1.0000e+00
       24  2    1    2    0    0 +0.0000000000e+00 +7.1054273576e-15 -9.6240097004e+01 1.2548289785e+02 8.0522055245e+01 0.0000e+00 0.0000e+00
       66  2    3    3    0    0 -1.9412447616e+01 -2.8684638244e+01 -5.2308067159e+01 6.9539301217e+01 2.9998815478e+01 0.0000e+00 0.0000e+00
      -13  1    3    3    0    0 +1.9412447616e+01 +2.8684638244e+01 -4.3932029845e+01 5.5943596631e+01 1.0566000000e-01 0.0000e+00 1.0000e+00
       13  1    4    4    0    0 -4.8272868262e+00 -1.8805475602e+01 -2.8360320679e+01 3.4369573227e+01 1.0566000000e-01 0.0000e+00 -1.0000e+00
      -13  1    4    4    0    0 -5.9906226153e+00 +5.4842424296e+00 -6.7781772071e+00 1.0579193005e+01 1.0566000000e-01 0.0000e+00 1.0000e+00
      -14  1    4    4    0    0 -8.5945381748e+00 -1.5363405072e+01 -1.7169569273e+01 2.4590534986e+01 0.0000000000e+00 0.0000e+00 1.0000e+00
<mgrwt>
<rscale>  0 0.80522055E+02</rscale>
<asrwt>0</asrwt>
<pdfrwt beam="1">  1        4 0.17059830E-01 0.80522055E+02</pdfrwt>
<pdfrwt beam="2">  1       -3 0.22488904E-02 0.80522055E+02</pdfrwt>
<totfact> 0.38844661E+04</totfact>
</mgrwt>
</event>
<event>
 8      1 +5.0320763e-08 7.89462100e+01 7.81860800e-03 1.33206900e-01
        1 -1    0    0  501    0 +0.0000000000e+00 +0.0000000000e+00 +5.1910098237e+01 5.1910098481e+01 5.0400000000e-03 0.0000e+00 -1.0000e+00
       -2 -1    0    0    0  501 -0.0000000000e+00 -0.0000000000e+00 -3.0015855783e+01 3.0015855891e+01 2.5500000000e-03 0.0000e+00 1.0000e+00
      -24  2    1    2    0    0 -3.5527136788e-15 +0.0000000000e+00 +2.1894242454e+01 8.1925954373e+01 7.8946210468e+01 0.0000e+00 0.0000e+00
       66  2    3    3    0    0 +1.3556341655e+01 +1.2084635767e+01 -1.7021278890e+01 3.8981318081e+01 3.0000106727e+01 0.0000e+00 0.0000e+00
       13  1    3    3    0    0 -1.3556341655e+01 -1.2084635767e+01 +3.8915521344e+01 4.2944636291e+01 1.0566000000e-01 0.0000e+00 -1.0000e+00
       13  1    4    4    0    0 +1.9060601769e+01 +1.2715704893e+01 -2.8474018516e+00 2.3089273528e+01 1.0566000000e-01 0.0000e+00 1.0000e+00
      -13  1    4    4    0    0 -5.5763794320e+00 -1.0227345275e+00 -8.5825975129e+00 1.0286599904e+01 1.0566000000e-01 0.0000e+00 -1.0000e+00
      -14  1    4    4    0    0 +7.2119317961e-02 +3.9166540169e-01 -5.5912795255e+00 5.6054446492e+00 0.0000000000e+00 0.0000e+00 1.0000e+00
<mgrwt>
<rscale>  0 0.78946210E+02</rscale>
<asrwt>0</asrwt>
<pdfrwt beam="1">  1        1 0.79861689E-02 0.78946210E+02</pdfrwt>
<pdfrwt beam="2">  1       -2 0.46178240E-02 0.78946210E+02</pdfrwt>
<totfact> 0.13730543E+05</totfact>
</mgrwt>
</event>
</LesHouchesEvents>
