<event>
 8    1  0.1226832E-024  0.8670065E+02  0.7818608E-02  0.1311044E+00
          2   -1    0    0  501    0  0.00000000000E+00  0.00000000000E+00  0.45426827831E+02  0.45426827903E+02  0.25500000000E-02 0. -1.
         -1   -1    0    0    0  501 -0.00000000000E+00 -0.00000000000E+00 -0.41368739721E+02  0.41368740028E+02  0.50400000000E-02 0.  1.
         24    2    1    2    0    0  0.35527136788E-14  0.00000000000E+00  0.40580881099E+01  0.86795567931E+02  0.86700648979E+02 0.  0.
         66    2    3    3    0    0  0.17428384380E+02  0.24789885014E+02  0.33031079884E+02  0.44870248642E+02  0.19999984585E+01 0.  0.
        -13    1    3    3    0    0 -0.17428384380E+02 -0.24789885014E+02 -0.28972991774E+02  0.41925319289E+02  0.10566000000E+00 0.  1.
         13    1    4    4    0    0  0.54636147705E+01  0.88180297388E+01  0.11331035889E+02  0.15362690949E+02  0.10566000000E+00 0. -1.
        -13    1    4    4    0    0  0.44005059151E+00  0.43020146105E+00  0.94519048820E+00  0.11328137158E+01  0.10566000000E+00 0.  1.
         14    1    4    4    0    0  0.11524719018E+02  0.15541653814E+02  0.20754853507E+02  0.28374743978E+02  0.00000000000E+00 0. -1.
<mgrwt>
<rscale>  0 0.86700649E+02</rscale>
<asrwt>0</asrwt>
<pdfrwt beam="1">  1        2 0.69887428E-02 0.86700649E+02</pdfrwt>
<pdfrwt beam="2">  1       -1 0.63644215E-02 0.86700649E+02</pdfrwt>
<totfact> 0.11718262E+05</totfact>
</mgrwt>
</event>
<event>
 8    1  0.1226832E-024  0.8122677E+02  0.7818608E-02  0.1325606E+00
         -1   -1    0    0    0  501 -0.00000000000E+00  0.00000000000E+00  0.14914377122E+02  0.14914377974E+02  0.50400000000E-02 0.  1.
          2   -1    0    0  501    0  0.00000000000E+00 -0.00000000000E+00 -0.11059442135E+03  0.11059442138E+03  0.25500000000E-02 0. -1.
         24    2    1    2    0    0  0.35527136788E-14  0.00000000000E+00 -0.95680044226E+02  0.12550879935E+03  0.81226768073E+02 0.  0.
         66    2    3    3    0    0 -0.17553489431E+02 -0.25226205448E+02 -0.88836394987E+02  0.94023356184E+02  0.20000003311E+01 0.  0.
        -13    1    3    3    0    0  0.17553489431E+02  0.25226205448E+02 -0.68436492396E+01  0.31485443168E+02  0.10566000000E+00 0.  1.
         13    1    4    4    0    0 -0.20686674243E+01 -0.35291322902E+01 -0.10684185450E+02  0.11441028905E+02  0.10566000000E+00 0. -1.
        -13    1    4    4    0    0 -0.12947542806E+02 -0.18690764478E+02 -0.65674121344E+02  0.69498812362E+02  0.10566000000E+00 0.  1.
        -14    1    4    4    0    0 -0.25372792012E+01 -0.30063086797E+01 -0.12478088193E+02  0.13083514917E+02  0.00000000000E+00 0.  1.
<mgrwt>
<rscale>  0 0.81226768E+02</rscale>
<asrwt>0</asrwt>
<pdfrwt beam="1">  1        2 0.17014526E-01 0.81226768E+02</pdfrwt>
<pdfrwt beam="2">  1       -1 0.22945197E-02 0.81226768E+02</pdfrwt>
<totfact> 0.17514726E+05</totfact>
</mgrwt>
</event>
<event>
 8    1  0.1226832E-024  0.7704840E+02  0.7818608E-02  0.1337643E+00
         -1   -1    0    0    0  501 -0.00000000000E+00  0.00000000000E+00  0.22429673623E+02  0.22429674189E+02  0.50400000000E-02 0.  1.
          2   -1    0    0  501    0  0.00000000000E+00 -0.00000000000E+00 -0.66167442718E+02  0.66167442767E+02  0.25500000000E-02 0. -1.
         24    2    1    2    0    0 -0.35527136788E-14  0.35527136788E-14 -0.43737769095E+02  0.88597116956E+02  0.77048404835E+02 0.  0.
         66    2    3    3    0    0  0.18483488348E+02 -0.16800477232E+02 -0.55569909957E+02  0.60958265711E+02  0.19999722553E+01 0.  0.
        -13    1    3    3    0    0 -0.18483488348E+02  0.16800477232E+02  0.11832140863E+02  0.27638851246E+02  0.10566000000E+00 0.  1.
         13    1    4    4    0    0  0.59996985446E+01 -0.63021094416E+01 -0.20528024345E+02  0.22296275779E+02  0.10566000000E+00 0. -1.
        -13    1    4    4    0    0  0.80998945648E+01 -0.70048168567E+01 -0.22088456795E+02  0.24547644262E+02  0.10566000000E+00 0.  1.
        -14    1    4    4    0    0  0.43838952389E+01 -0.34935509337E+01 -0.12953428817E+02  0.14114345670E+02  0.00000000000E+00 0.  1.
<mgrwt>
<rscale>  0 0.77048405E+02</rscale>
<asrwt>0</asrwt>
<pdfrwt beam="1">  1        2 0.10179606E-01 0.77048405E+02</pdfrwt>
<pdfrwt beam="2">  1       -1 0.34507191E-02 0.77048405E+02</pdfrwt>
<totfact> 0.17633273E+05</totfact>
</mgrwt>
</event>
<event>
 8    1  0.1226832E-024  0.7881348E+02  0.7818608E-02  0.1332453E+00
         -1   -1    0    0    0  501 -0.00000000000E+00  0.00000000000E+00  0.35639912202E+01  0.35639947839E+01  0.50400000000E-02 0.  1.
          2   -1    0    0  501    0  0.00000000000E+00 -0.00000000000E+00 -0.43571664111E+03  0.43571664112E+03  0.25500000000E-02 0. -1.
         24    2    1    2    0    0  0.00000000000E+00  0.88817841970E-15 -0.43215264989E+03  0.43928063590E+03  0.78813477725E+02 0.  0.
         66    2    3    3    0    0 -0.34491214692E+02 -0.78900283412E+01 -0.31259125316E+03  0.31459368714E+03  0.20000003346E+01 0.  0.
        -13    1    3    3    0    0  0.34491214692E+02  0.78900283412E+01 -0.11956139673E+03  0.12468694876E+03  0.10566000000E+00 0.  1.
         13    1    4    4    0    0 -0.32029927890E+01 -0.93129996500E+00 -0.31447129976E+02  0.31623719424E+02  0.10566000000E+00 0. -1.
        -13    1    4    4    0    0 -0.63273824444E+01 -0.80151546150E+00 -0.53825301557E+02  0.54201959811E+02  0.10566000000E+00 0.  1.
        -14    1    4    4    0    0 -0.24960839458E+02 -0.61572129147E+01 -0.22731882162E+03  0.22876800791E+03  0.00000000000E+00 0.  1.
<mgrwt>
<rscale>  0 0.78813478E+02</rscale>
<asrwt>0</asrwt>
<pdfrwt beam="1">  1        2 0.67033287E-01 0.78813478E+02</pdfrwt>
<pdfrwt beam="2">  1       -1 0.54830696E-03 0.78813478E+02</pdfrwt>
<totfact> 0.30256006E+05</totfact>
</mgrwt>
</event>
<event>
 8    1  0.1226832E-024  0.7049092E+02  0.7818608E-02  0.1358432E+00
         -1   -1    0    0    0  501 -0.00000000000E+00  0.00000000000E+00  0.19146771914E+01  0.19146838248E+01  0.50400000000E-02 0.  1.
          2   -1    0    0  501    0  0.00000000000E+00 -0.00000000000E+00 -0.64879883110E+03  0.64879883111E+03  0.25500000000E-02 0. -1.
         24    2    1    2    0    0  0.00000000000E+00  0.35527136788E-14 -0.64688415391E+03  0.65071351493E+03  0.70490920935E+02 0.  0.
         66    2    3    3    0    0 -0.59142967085E+01 -0.22831588825E+02 -0.56512408595E+03  0.56561956550E+03  0.19999988879E+01 0.  0.
        -13    1    3    3    0    0  0.59142967085E+01  0.22831588825E+02 -0.81760067957E+02  0.85093949434E+02  0.10566000000E+00 0.  1.
         13    1    4    4    0    0 -0.42490090329E+01 -0.15371236930E+02 -0.39001259388E+03  0.39033852430E+03  0.10566000000E+00 0. -1.
        -13    1    4    4    0    0 -0.10249227980E+01 -0.60358086440E+01 -0.14463833274E+03  0.14476788288E+03  0.10566000000E+00 0.  1.
        -14    1    4    4    0    0 -0.64036487752E+00 -0.14245432514E+01 -0.30473159329E+02  0.30513158312E+02  0.00000000000E+00 0.  1.
<mgrwt>
<rscale>  0 0.70490921E+02</rscale>
<asrwt>0</asrwt>
<pdfrwt beam="1">  1        2 0.99815030E-01 0.70490921E+02</pdfrwt>
<pdfrwt beam="2">  1       -1 0.29456675E-03 0.70490921E+02</pdfrwt>
<totfact> 0.45541748E+05</totfact>
</mgrwt>
</event>
<event>
 8    1  0.1226832E-024  0.8446891E+02  0.7818608E-02  0.1316827E+00
          2   -1    0    0  501    0  0.00000000000E+00  0.00000000000E+00  0.64129779436E+02  0.64129779487E+02  0.25500000000E-02 0. -1.
         -1   -1    0    0    0  501 -0.00000000000E+00 -0.00000000000E+00 -0.27814675740E+02  0.27814676197E+02  0.50400000000E-02 0.  1.
         24    2    1    2    0    0  0.71054273576E-14  0.44408920985E-15  0.36315103696E+02  0.91944455684E+02  0.84468906554E+02 0.  0.
         66    2    3    3    0    0 -0.26337874350E+02 -0.32254776653E+01  0.53900654086E+02  0.60111295646E+02  0.20000054790E+01 0.  0.
        -13    1    3    3    0    0  0.26337874350E+02  0.32254776653E+01 -0.17585550390E+02  0.31833160038E+02  0.10566000000E+00 0.  1.
         13    1    4    4    0    0 -0.11195236834E+02 -0.83338426247E+00  0.21540138283E+02  0.24290256861E+02  0.10566000000E+00 0. -1.
        -13    1    4    4    0    0 -0.94147434713E+01 -0.15687542859E+01  0.19073241117E+02  0.21328339724E+02  0.10566000000E+00 0.  1.
         14    1    4    4    0    0 -0.57278940446E+01 -0.82333911697E+00  0.13287274687E+02  0.14492699061E+02  0.00000000000E+00 0. -1.
<mgrwt>
<rscale>  0 0.84468907E+02</rscale>
<asrwt>0</asrwt>
<pdfrwt beam="1">  1        2 0.98661199E-02 0.84468907E+02</pdfrwt>
<pdfrwt beam="2">  1       -1 0.42791810E-02 0.84468907E+02</pdfrwt>
<totfact> 0.13633926E+05</totfact>
</mgrwt>
</event>
<event>
 8    1  0.1226832E-024  0.9022950E+02  0.7818608E-02  0.1302297E+00
          2   -1    0    0  501    0  0.00000000000E+00  0.00000000000E+00  0.55534735300E+03  0.55534735300E+03  0.25500000000E-02 0. -1.
         -1   -1    0    0    0  501 -0.00000000000E+00 -0.00000000000E+00 -0.36649853435E+01  0.36649888089E+01  0.50400000000E-02 0.  1.
         24    2    1    2    0    0  0.00000000000E+00  0.00000000000E+00  0.55168236765E+03  0.55901234181E+03  0.90229504699E+02 0.  0.
         66    2    3    3    0    0  0.23885168177E+02  0.23736013014E+02  0.46178159275E+03  0.46301202898E+03  0.19999998168E+01 0.  0.
        -13    1    3    3    0    0 -0.23885168177E+02 -0.23736013014E+02  0.89900774903E+02  0.96000312837E+02  0.10566000000E+00 0.  1.
         13    1    4    4    0    0  0.76893578562E+01  0.75072254070E+01  0.14710208526E+03  0.14749413313E+03  0.10566000000E+00 0. -1.
        -13    1    4    4    0    0  0.90886699301E+01  0.84062229117E+01  0.17854878834E+03  0.17897751112E+03  0.10566000000E+00 0.  1.
        -14    1    4    4    0    0  0.71071403909E+01  0.78225646954E+01  0.13613071915E+03  0.13654038472E+03  0.00000000000E+00 0.  1.
<mgrwt>
<rscale>  0 0.90229505E+02</rscale>
<asrwt>0</asrwt>
<pdfrwt beam="1">  1        2 0.85438098E-01 0.90229505E+02</pdfrwt>
<pdfrwt beam="2">  1       -1 0.56384388E-03 0.90229505E+02</pdfrwt>
<totfact> 0.22951201E+05</totfact>
</mgrwt>
</event>
<event>
 8    1  0.1226832E-024  0.8022543E+02  0.7818608E-02  0.1328413E+00
         -1   -1    0    0    0  501 -0.00000000000E+00  0.00000000000E+00  0.28084406219E+01  0.28084451442E+01  0.50400000000E-02 0.  1.
          2   -1    0    0  501    0  0.00000000000E+00 -0.00000000000E+00 -0.57292591088E+03  0.57292591089E+03  0.25500000000E-02 0. -1.
         24    2    1    2    0    0  0.00000000000E+00  0.00000000000E+00 -0.57011747026E+03  0.57573435603E+03  0.80225425020E+02 0.  0.
         66    2    3    3    0    0  0.91564891212E+01  0.23913968564E+02 -0.50658061656E+03  0.50723134787E+03  0.19999997595E+01 0.  0.
        -13    1    3    3    0    0 -0.91564891212E+01 -0.23913968564E+02 -0.63536853697E+02  0.68503008162E+02  0.10566000000E+00 0.  1.
         13    1    4    4    0    0  0.23998925848E+01  0.52382194250E+01 -0.12176304173E+03  0.12189933521E+03  0.10566000000E+00 0.  1.
        -13    1    4    4    0    0  0.59306542260E+01  0.14882762771E+02 -0.31162218474E+03  0.31203375854E+03  0.10566000000E+00 0. -1.
         14    1    4    4    0    0  0.82594231034E+00  0.37929863672E+01 -0.73195390090E+02  0.73298254118E+02  0.00000000000E+00 0. -1.
<mgrwt>
<rscale>  0 0.80225425E+02</rscale>
<asrwt>0</asrwt>
<pdfrwt beam="1">  1        2 0.88142355E-01 0.80225425E+02</pdfrwt>
<pdfrwt beam="2">  1       -1 0.43206859E-03 0.80225425E+02</pdfrwt>
<totfact> 0.31512093E+05</totfact>
</mgrwt>
</event>
<event>
 8    1  0.1226832E-024  0.7952848E+02  0.7818608E-02  0.1330395E+00
          2   -1    0    0  501    0  0.00000000000E+00  0.00000000000E+00  0.10724315955E+03  0.10724315958E+03  0.25500000000E-02 0. -1.
         -1   -1    0    0    0  501 -0.00000000000E+00 -0.00000000000E+00 -0.14744015992E+02  0.14744016854E+02  0.50400000000E-02 0.  1.
         24    2    1    2    0    0  0.17763568394E-14  0.00000000000E+00  0.92499143556E+02  0.12198717643E+03  0.79528483296E+02 0.  0.
         66    2    3    3    0    0 -0.74068075557E+01 -0.28810800045E+02  0.86694870342E+02  0.91678369973E+02  0.19999950185E+01 0.  0.
        -13    1    3    3    0    0  0.74068075557E+01  0.28810800045E+02  0.58042732140E+01  0.30308806459E+02  0.10566000000E+00 0.  1.
         13    1    4    4    0    0 -0.66185320258E+01 -0.25329349058E+02  0.75434358600E+02  0.79848196669E+02  0.10566000000E+00 0. -1.
        -13    1    4    4    0    0 -0.22778100422E+00 -0.37487904325E+00  0.10505028959E+01  0.11433017331E+01  0.10566000000E+00 0. -1.
        -14    1    4    4    0    0 -0.56049452562E+00 -0.31065719431E+01  0.10210008846E+02  0.10686871571E+02  0.00000000000E+00 0.  1.
<mgrwt>
<rscale>  0 0.79528483E+02</rscale>
<asrwt>0</asrwt>
<pdfrwt beam="1">  1        2 0.16498947E-01 0.79528483E+02</pdfrwt>
<pdfrwt beam="2">  1       -1 0.22683103E-02 0.79528483E+02</pdfrwt>
<totfact> 0.18368844E+05</totfact>
</mgrwt>
</event>
<event>
 8    1  0.1226832E-024  0.8203464E+02  0.7818608E-02  0.1323375E+00
          2   -1    0    0  501    0  0.00000000000E+00  0.00000000000E+00  0.21843851705E+03  0.21843851706E+03  0.25500000000E-02 0. -1.
         -1   -1    0    0    0  501 -0.00000000000E+00 -0.00000000000E+00 -0.77020312098E+01  0.77020328588E+01  0.50400000000E-02 0.  1.
         24    2    1    2    0    0  0.17763568394E-14  0.00000000000E+00  0.21073648584E+03  0.22614054992E+03  0.82034638144E+02 0.  0.
         66    2    3    3    0    0 -0.12178137362E+02 -0.30584583508E+02  0.17276807076E+03  0.17588783372E+03  0.19999997198E+01 0.  0.
        -13    1    3    3    0    0  0.12178137362E+02  0.30584583508E+02  0.37968415077E+02  0.50252716200E+02  0.10566000000E+00 0.  1.
         13    1    4    4    0    0 -0.11586074433E+01 -0.30737539963E+01  0.15213100543E+02  0.15564058822E+02  0.10566000000E+00 0.  1.
        -13    1    4    4    0    0 -0.42413288142E+01 -0.93986106503E+01  0.52281515116E+02  0.53288748711E+02  0.10566000000E+00 0. -1.
        -14    1    4    4    0    0 -0.67782011048E+01 -0.18112218861E+02  0.10527345510E+03  0.10703502619E+03  0.00000000000E+00 0.  1.
<mgrwt>
<rscale>  0 0.82034638E+02</rscale>
<asrwt>0</asrwt>
<pdfrwt beam="1">  1        2 0.33605925E-01 0.82034638E+02</pdfrwt>
<pdfrwt beam="2">  1       -1 0.11849280E-02 0.82034638E+02</pdfrwt>
<totfact> 0.21291532E+05</totfact>
</mgrwt>
</event>
<event>
 8    1  0.1226832E-024  0.7962118E+02  0.7818608E-02  0.1330130E+00
          2   -1    0    0  501    0  0.00000000000E+00  0.00000000000E+00  0.17793159854E+02  0.17793160037E+02  0.25500000000E-02 0. -1.
         -1   -1    0    0    0  501 -0.00000000000E+00 -0.00000000000E+00 -0.89072612669E+02  0.89072612811E+02  0.50400000000E-02 0.  1.
         24    2    1    2    0    0 -0.17763568394E-14  0.00000000000E+00 -0.71279452814E+02  0.10686577285E+03  0.79621184448E+02 0.  0.
         66    2    3    3    0    0 -0.11869193371E+02  0.14689996081E+02  0.11337156774E+02  0.22117975944E+02  0.20000000005E+01 0.  0.
        -13    1    3    3    0    0  0.11869193371E+02 -0.14689996081E+02 -0.82616609589E+02  0.84747796904E+02  0.10566000000E+00 0.  1.
         13    1    4    4    0    0 -0.51588932213E+01  0.68727026785E+01  0.48754007043E+01  0.98807346609E+01  0.10566000000E+00 0. -1.
        -13    1    4    4    0    0 -0.48335615550E+01  0.47784342856E+01  0.46166424393E+01  0.82171347181E+01  0.10566000000E+00 0.  1.
        -14    1    4    4    0    0 -0.18767385951E+01  0.30388591165E+01  0.18451136308E+01  0.40201065651E+01  0.00000000000E+00 0.  1.
<mgrwt>
<rscale>  0 0.79621184E+02</rscale>
<asrwt>0</asrwt>
<pdfrwt beam="1">  1        2 0.27374093E-02 0.79621184E+02</pdfrwt>
<pdfrwt beam="2">  1       -1 0.13703479E-01 0.79621184E+02</pdfrwt>
<totfact> 0.12289400E+05</totfact>
</mgrwt>
</event>
<event>
 8    1  0.1226832E-024  0.7903691E+02  0.7818608E-02  0.1331807E+00
          2   -1    0    0  501    0  0.00000000000E+00  0.00000000000E+00  0.21116937251E+02  0.21116937405E+02  0.25500000000E-02 0. -1.
         -1   -1    0    0    0  501 -0.00000000000E+00 -0.00000000000E+00 -0.73955251479E+02  0.73955251651E+02  0.50400000000E-02 0.  1.
         24    2    1    2    0    0  0.00000000000E+00  0.00000000000E+00 -0.52838314228E+02  0.95072189056E+02  0.79036913410E+02 0.  0.
         66    2    3    3    0    0 -0.26344549789E+02 -0.99909039756E+01  0.68525619623E+01  0.29065633849E+02  0.19999999399E+01 0.  0.
        -13    1    3    3    0    0  0.26344549789E+02  0.99909039756E+01 -0.59690876191E+02  0.66006555207E+02  0.10566000000E+00 0.  1.
         13    1    4    4    0    0 -0.62403432865E+01 -0.25521622425E+01  0.17290639944E+01  0.69610518442E+01  0.10566000000E+00 0. -1.
        -13    1    4    4    0    0 -0.12967723623E+02 -0.56127273233E+01  0.36058601528E+01  0.14583482281E+02  0.10566000000E+00 0.  1.
        -14    1    4    4    0    0 -0.71364828796E+01 -0.18260144099E+01  0.15176378151E+01  0.75210997237E+01  0.00000000000E+00 0.  1.
<mgrwt>
<rscale>  0 0.79036913E+02</rscale>
<asrwt>0</asrwt>
<pdfrwt beam="1">  1        2 0.32487596E-02 0.79036913E+02</pdfrwt>
<pdfrwt beam="2">  1       -1 0.11377731E-01 0.79036913E+02</pdfrwt>
<totfact> 0.12994502E+05</totfact>
</mgrwt>
</event>
<event>
 8    1  0.1226832E-024  0.7973135E+02  0.7818608E-02  0.1329816E+00
         -1   -1    0    0    0  501 -0.00000000000E+00  0.00000000000E+00  0.37830676616E+01  0.37830710189E+01  0.50400000000E-02 0.  1.
          2   -1    0    0  501    0  0.00000000000E+00 -0.00000000000E+00 -0.42010119407E+03  0.42010119408E+03  0.25500000000E-02 0. -1.
         24    2    1    2    0    0 -0.35527136788E-14  0.35527136788E-14 -0.41631812641E+03  0.42388426510E+03  0.79731347789E+02 0.  0.
         66    2    3    3    0    0 -0.22227480353E+02  0.26191912412E+02 -0.31556915442E+03  0.31743970827E+03  0.20000006135E+01 0.  0.
        -13    1    3    3    0    0  0.22227480353E+02 -0.26191912412E+02 -0.10074897199E+03  0.10644455683E+03  0.10566000000E+00 0.  1.
         13    1    4    4    0    0 -0.38502690474E+01  0.53579726200E+01 -0.64236253117E+02  0.64574296906E+02  0.10566000000E+00 0. -1.
        -13    1    4    4    0    0 -0.45512708982E+01  0.56937619338E+01 -0.64037243210E+02  0.64450854716E+02  0.10566000000E+00 0.  1.
        -14    1    4    4    0    0 -0.13825940407E+02  0.15140177858E+02 -0.18729565810E+03  0.18841455664E+03  0.00000000000E+00 0.  1.
<mgrwt>
<rscale>  0 0.79731348E+02</rscale>
<asrwt>0</asrwt>
<pdfrwt beam="1">  1        2 0.64630916E-01 0.79731348E+02</pdfrwt>
<pdfrwt beam="2">  1       -1 0.58201100E-03 0.79731348E+02</pdfrwt>
<totfact> 0.28991928E+05</totfact>
</mgrwt>
</event>
<event>
 8    1  0.1226832E-024  0.8004075E+02  0.7818608E-02  0.1328936E+00
         -1   -1    0    0    0  501 -0.00000000000E+00  0.00000000000E+00  0.40087106271E+01  0.40087137954E+01  0.50400000000E-02 0.  1.
          2   -1    0    0  501    0  0.00000000000E+00 -0.00000000000E+00 -0.39953736440E+03  0.39953736441E+03  0.25500000000E-02 0. -1.
         24    2    1    2    0    0  0.00000000000E+00  0.00000000000E+00 -0.39552865378E+03  0.40354607821E+03  0.80040747610E+02 0.  0.
         66    2    3    3    0    0 -0.11854703776E+02 -0.24063228277E+02 -0.34745462384E+03  0.34849431643E+03  0.19999993329E+01 0.  0.
        -13    1    3    3    0    0  0.11854703776E+02  0.24063228277E+02 -0.48074029938E+02  0.55051761782E+02  0.10566000000E+00 0.  1.
         13    1    4    4    0    0 -0.62758283348E+01 -0.11390382618E+02 -0.16811291301E+03  0.16861521142E+03  0.10566000000E+00 0. -1.
        -13    1    4    4    0    0 -0.20045055981E+01 -0.57635695683E+01 -0.75184445508E+02  0.75431749200E+02  0.10566000000E+00 0.  1.
        -14    1    4    4    0    0 -0.35743698436E+01 -0.69092760906E+01 -0.10415726532E+03  0.10444735581E+03  0.00000000000E+00 0.  1.
<mgrwt>
<rscale>  0 0.80040748E+02</rscale>
<asrwt>0</asrwt>
<pdfrwt beam="1">  1        2 0.61467255E-01 0.80040748E+02</pdfrwt>
<pdfrwt beam="2">  1       -1 0.61672527E-03 0.80040748E+02</pdfrwt>
<totfact> 0.28204638E+05</totfact>
</mgrwt>
</event>
<event>
 8    1  0.1226832E-024  0.8341524E+02  0.7818608E-02  0.1319630E+00
         -1   -1    0    0    0  501 -0.00000000000E+00  0.00000000000E+00  0.90262386064E+01  0.90262400135E+01  0.50400000000E-02 0.  1.
          2   -1    0    0  501    0  0.00000000000E+00 -0.00000000000E+00 -0.19271877228E+03  0.19271877230E+03  0.25500000000E-02 0. -1.
         24    2    1    2    0    0  0.00000000000E+00 -0.35527136788E-14 -0.18369253368E+03  0.20174501231E+03  0.83415244798E+02 0.  0.
         66    2    3    3    0    0 -0.16036960657E+02  0.16427148750E+02 -0.17604563319E+03  0.17754745925E+03  0.19999995063E+01 0.  0.
        -13    1    3    3    0    0  0.16036960657E+02 -0.16427148750E+02 -0.76469004880E+01  0.24197553064E+02  0.10566000000E+00 0.  1.
         13    1    4    4    0    0 -0.42753505683E+01  0.52266694878E+01 -0.55086785011E+02  0.55499204889E+02  0.10566000000E+00 0.  1.
        -13    1    4    4    0    0 -0.28050722747E+01  0.26709040665E+01 -0.25926378331E+02  0.26214317012E+02  0.10566000000E+00 0. -1.
         14    1    4    4    0    0 -0.89565378138E+01  0.85295751959E+01 -0.95032469845E+02  0.95833937348E+02  0.00000000000E+00 0. -1.
<mgrwt>
<rscale>  0 0.83415245E+02</rscale>
<asrwt>0</asrwt>
<pdfrwt beam="1">  1        2 0.29649039E-01 0.83415245E+02</pdfrwt>
<pdfrwt beam="2">  1       -1 0.13886524E-02 0.83415245E+02</pdfrwt>
<totfact> 0.19496731E+05</totfact>
</mgrwt>
</event>
<event>
 8    1  0.1226832E-024  0.7479837E+02  0.7818608E-02  0.1344497E+00
          2   -1    0    0  501    0  0.00000000000E+00  0.00000000000E+00  0.15493007475E+04  0.15493007475E+04  0.25500000000E-02 0. -1.
         -1   -1    0    0    0  501 -0.00000000000E+00 -0.00000000000E+00 -0.90278678838E+00  0.90280085671E+00  0.50400000000E-02 0.  1.
         24    2    1    2    0    0  0.00000000000E+00 -0.88817841970E-15  0.15483979607E+04  0.15502035483E+04  0.74798373032E+02 0.  0.
         66    2    3    3    0    0 -0.17919257347E+02  0.77111387921E+01  0.14354015251E+04  0.14355354749E+04  0.19999994836E+01 0.  0.
        -13    1    3    3    0    0  0.17919257347E+02 -0.77111387921E+01  0.11299643563E+03  0.11466807348E+03  0.10566000000E+00 0.  1.
         13    1    4    4    0    0 -0.51756003903E+00  0.50640706422E-01  0.40179290405E+02  0.40182794506E+02  0.10566000000E+00 0. -1.
        -13    1    4    4    0    0 -0.24405625653E+01  0.15910110131E+01  0.23652084728E+03  0.23653881293E+03  0.10566000000E+00 0.  1.
        -14    1    4    4    0    0 -0.14961134743E+02  0.60694870726E+01  0.11587013874E+04  0.11588138674E+04  0.00000000000E+00 0.  1.
<mgrwt>
<rscale>  0 0.74798373E+02</rscale>
<asrwt>0</asrwt>
<pdfrwt beam="1">  1        2 0.23835284E+00 0.74798373E+02</pdfrwt>
<pdfrwt beam="2">  1       -1 0.13889201E-03 0.74798373E+02</pdfrwt>
<totfact> 0.39069791E+05</totfact>
</mgrwt>
</event>
<event>
 8    1  0.1226832E-024  0.7775491E+02  0.7818608E-02  0.1335546E+00
         -1   -1    0    0    0  501 -0.00000000000E+00  0.00000000000E+00  0.66788646846E+01  0.66788665862E+01  0.50400000000E-02 0.  1.
          2   -1    0    0  501    0  0.00000000000E+00 -0.00000000000E+00 -0.22630435548E+03  0.22630435550E+03  0.25500000000E-02 0. -1.
         24    2    1    2    0    0  0.00000000000E+00 -0.35527136788E-14 -0.21962549080E+03  0.23298322208E+03  0.77754907010E+02 0.  0.
         66    2    3    3    0    0  0.13087338292E+02 -0.29229824529E+02 -0.17579127336E+03  0.17869592295E+03  0.20000052183E+01 0.  0.
        -13    1    3    3    0    0 -0.13087338292E+02  0.29229824529E+02 -0.43834217435E+02  0.54287299138E+02  0.10566000000E+00 0.  1.
         13    1    4    4    0    0  0.64892748021E+01 -0.12912288653E+02 -0.78953474693E+02  0.80265186823E+02  0.10566000000E+00 0. -1.
        -13    1    4    4    0    0  0.26248221992E+01 -0.55903551214E+01 -0.31726297590E+02  0.32321987637E+02  0.10566000000E+00 0.  1.
        -14    1    4    4    0    0  0.39732412909E+01 -0.10727180755E+02 -0.65111501082E+02  0.66108748486E+02  0.00000000000E+00 0.  1.
<mgrwt>
<rscale>  0 0.77754907E+02</rscale>
<asrwt>0</asrwt>
<pdfrwt beam="1">  1        2 0.34816049E-01 0.77754907E+02</pdfrwt>
<pdfrwt beam="2">  1       -1 0.10275180E-02 0.77754907E+02</pdfrwt>
<totfact> 0.24826487E+05</totfact>
</mgrwt>
</event>
<event>
 8    1  0.1226832E-024  0.8080526E+02  0.7818608E-02  0.1326782E+00
          2   -1    0    0  501    0  0.00000000000E+00  0.00000000000E+00  0.19816047794E+03  0.19816047796E+03  0.25500000000E-02 0. -1.
         -1   -1    0    0    0  501 -0.00000000000E+00 -0.00000000000E+00 -0.82376288355E+01  0.82376303773E+01  0.50400000000E-02 0.  1.
         24    2    1    2    0    0 -0.71054273576E-14  0.71054273576E-14  0.18992284911E+03  0.20639810834E+03  0.80805262897E+02 0.  0.
         66    2    3    3    0    0  0.24593797364E+02 -0.30620506992E+02  0.71072281577E+02  0.81226470641E+02  0.20000017247E+01 0.  0.
        -13    1    3    3    0    0 -0.24593797364E+02  0.30620506992E+02  0.11885056753E+03  0.12517163770E+03  0.10566000000E+00 0.  1.
         13    1    4    4    0    0  0.11498071615E+02 -0.15490934829E+02  0.34212902264E+02  0.39277328805E+02  0.10566000000E+00 0. -1.
        -13    1    4    4    0    0  0.75711932396E+01 -0.93448503938E+01  0.21889500503E+02  0.24976200517E+02  0.10566000000E+00 0.  1.
        -14    1    4    4    0    0  0.55245325098E+01 -0.57847217697E+01  0.14969878810E+02  0.16972941318E+02  0.00000000000E+00 0.  1.
<mgrwt>
<rscale>  0 0.80805263E+02</rscale>
<asrwt>0</asrwt>
<pdfrwt beam="1">  1        2 0.30486225E-01 0.80805263E+02</pdfrwt>
<pdfrwt beam="2">  1       -1 0.12673277E-02 0.80805263E+02</pdfrwt>
<totfact> 0.21414091E+05</totfact>
</mgrwt>
</event>
<event>
 8    1  0.1226832E-024  0.8071552E+02  0.7818608E-02  0.1327033E+00
         -1   -1    0    0    0  501 -0.00000000000E+00  0.00000000000E+00  0.12279029473E+02  0.12279030507E+02  0.50400000000E-02 0.  1.
          2   -1    0    0  501    0  0.00000000000E+00 -0.00000000000E+00 -0.13264474243E+03  0.13264474246E+03  0.25500000000E-02 0. -1.
         24    2    1    2    0    0 -0.17763568394E-14  0.00000000000E+00 -0.12036571296E+03  0.14492377297E+03  0.80715519660E+02 0.  0.
         66    2    3    3    0    0  0.11726116213E+02  0.52980310906E+01 -0.12885276734E+03  0.12950909844E+03  0.19999980631E+01 0.  0.
        -13    1    3    3    0    0 -0.11726116213E+02 -0.52980310906E+01  0.84870543756E+01  0.15414674531E+02  0.10566000000E+00 0.  1.
         13    1    4    4    0    0  0.42657446761E+01  0.14967208303E+01 -0.46523321907E+02  0.46742565144E+02  0.10566000000E+00 0. -1.
        -13    1    4    4    0    0  0.89526245614E+00  0.63379444841E+00 -0.15960301494E+02  0.15998299225E+02  0.10566000000E+00 0.  1.
        -14    1    4    4    0    0  0.65651090806E+01  0.31675158119E+01 -0.66369143935E+02  0.66768234066E+02  0.00000000000E+00 0.  1.
<mgrwt>
<rscale>  0 0.80715520E+02</rscale>
<asrwt>0</asrwt>
<pdfrwt beam="1">  1        2 0.20406882E-01 0.80715520E+02</pdfrwt>
<pdfrwt beam="2">  1       -1 0.18890816E-02 0.80715520E+02</pdfrwt>
<totfact> 0.18814844E+05</totfact>
</mgrwt>
</event>
<event>
 8    1  0.1226832E-024  0.7999458E+02  0.7818608E-02  0.1329067E+00
         -1   -1    0    0    0  501 -0.00000000000E+00  0.00000000000E+00  0.14972729967E+02  0.14972730816E+02  0.50400000000E-02 0.  1.
          2   -1    0    0  501    0  0.00000000000E+00 -0.00000000000E+00 -0.10684644883E+03  0.10684644887E+03  0.25500000000E-02 0. -1.
         24    2    1    2    0    0  0.00000000000E+00  0.00000000000E+00 -0.91873718867E+02  0.12181917968E+03  0.79994576814E+02 0.  0.
         66    2    3    3    0    0  0.17059837914E+02 -0.36078488019E+02 -0.42532248908E+02  0.58358268963E+02  0.19999979424E+01 0.  0.
        -13    1    3    3    0    0 -0.17059837914E+02  0.36078488019E+02 -0.49341469960E+02  0.63460910718E+02  0.10566000000E+00 0.  1.
         13    1    4    4    0    0  0.71578032585E+01 -0.15805591778E+02 -0.19306688327E+02  0.25957855403E+02  0.10566000000E+00 0. -1.
        -13    1    4    4    0    0  0.74143358707E+01 -0.16238717738E+02 -0.18368148148E+02  0.25613831431E+02  0.10566000000E+00 0.  1.
        -14    1    4    4    0    0  0.24876987844E+01 -0.40341785037E+01 -0.48574124327E+01  0.67865821283E+01  0.00000000000E+00 0.  1.
<mgrwt>
<rscale>  0 0.79994577E+02</rscale>
<asrwt>0</asrwt>
<pdfrwt beam="1">  1        2 0.16437915E-01 0.79994577E+02</pdfrwt>
<pdfrwt beam="2">  1       -1 0.23034971E-02 0.79994577E+02</pdfrwt>
<totfact> 0.18064904E+05</totfact>
</mgrwt>
</event>
<event>
 8    1  0.1226832E-024  0.8013715E+02  0.7818608E-02  0.1328663E+00
          2   -1    0    0  501    0  0.00000000000E+00  0.00000000000E+00  0.56624402178E+03  0.56624402178E+03  0.25500000000E-02 0. -1.
         -1   -1    0    0    0  501 -0.00000000000E+00 -0.00000000000E+00 -0.28353310763E+01  0.28353355558E+01  0.50400000000E-02 0.  1.
         24    2    1    2    0    0  0.71054273576E-14  0.17763568394E-14  0.56340869070E+03  0.56907935734E+03  0.80137146142E+02 0.  0.
         66    2    3    3    0    0  0.36269750604E+02  0.10864758116E+02  0.37445496177E+03  0.37636957393E+03  0.20000033920E+01 0.  0.
        -13    1    3    3    0    0 -0.36269750604E+02 -0.10864758116E+02  0.18895372893E+03  0.19270978340E+03  0.10566000000E+00 0.  1.
         13    1    4    4    0    0  0.34332390509E+02  0.10080424625E+02  0.35185275907E+03  0.35366750378E+03  0.10566000000E+00 0. -1.
        -13    1    4    4    0    0  0.73315439757E+00  0.11678699208E+00  0.81629971840E+01  0.81973679699E+01  0.10566000000E+00 0. -1.
         14    1    4    4    0    0  0.12042056974E+01  0.66754649857E+00  0.14439205509E+02  0.14504702183E+02  0.00000000000E+00 0. -1.
<mgrwt>
<rscale>  0 0.80137146E+02</rscale>
<asrwt>0</asrwt>
<pdfrwt beam="1">  1        2 0.87114483E-01 0.80137146E+02</pdfrwt>
<pdfrwt beam="2">  1       -1 0.43620504E-03 0.80137146E+02</pdfrwt>
<totfact> 0.31494505E+05</totfact>
</mgrwt>
</event>
<event>
 8    1  0.1226832E-024  0.8478067E+02  0.7818608E-02  0.1316007E+00
         -1   -1    0    0    0  501 -0.00000000000E+00  0.00000000000E+00  0.95934348604E+02  0.95934348737E+02  0.50400000000E-02 0.  1.
          2   -1    0    0  501    0  0.00000000000E+00 -0.00000000000E+00 -0.18730939245E+02  0.18730939419E+02  0.25500000000E-02 0. -1.
         24    2    1    2    0    0  0.00000000000E+00  0.00000000000E+00  0.77203409359E+02  0.11466528816E+03  0.84780669325E+02 0.  0.
         66    2    3    3    0    0  0.35778192619E+02 -0.21558305133E+02  0.29050386831E+02  0.50919195492E+02  0.19999768118E+01 0.  0.
        -13    1    3    3    0    0 -0.35778192619E+02  0.21558305133E+02  0.48153022528E+02  0.63746092664E+02  0.10566000000E+00 0.  1.
         13    1    4    4    0    0  0.17089892355E+02 -0.10766316946E+02  0.14718960685E+02  0.24992738325E+02  0.10566000000E+00 0. -1.
        -13    1    4    4    0    0  0.84791241441E+01 -0.44135659366E+01  0.66904453707E+01  0.11668261817E+02  0.10566000000E+00 0.  1.
         14    1    4    4    0    0  0.10209176120E+02 -0.63784222500E+01  0.76409807748E+01  0.14258195350E+02  0.00000000000E+00 0. -1.
<mgrwt>
<rscale>  0 0.84780669E+02</rscale>
<asrwt>0</asrwt>
<pdfrwt beam="1">  1        2 0.28816830E-02 0.84780669E+02</pdfrwt>
<pdfrwt beam="2">  1       -1 0.14759130E-01 0.84780669E+02</pdfrwt>
<totfact> 0.10350690E+05</totfact>
</mgrwt>
</event>
<event>
 8    1  0.1226832E-024  0.7617768E+02  0.7818608E-02  0.1340262E+00
          2   -1    0    0  501    0  0.00000000000E+00  0.00000000000E+00  0.39711070359E+03  0.39711070359E+03  0.25500000000E-02 0. -1.
         -1   -1    0    0    0  501 -0.00000000000E+00 -0.00000000000E+00 -0.36532861499E+01  0.36532896264E+01  0.50400000000E-02 0.  1.
         24    2    1    2    0    0  0.17763568394E-14  0.00000000000E+00  0.39345741744E+03  0.40076399322E+03  0.76177679976E+02 0.  0.
         66    2    3    3    0    0 -0.14679964914E+02 -0.32791787496E+01  0.38080786693E+03  0.38111007058E+03  0.19999997734E+01 0.  0.
        -13    1    3    3    0    0  0.14679964914E+02  0.32791787496E+01  0.12649550510E+02  0.19653922644E+02  0.10566000000E+00 0.  1.
         13    1    4    4    0    0 -0.99111380954E+01 -0.24036214217E+01  0.25614834916E+03  0.25635131362E+03  0.10566000000E+00 0. -1.
        -13    1    4    4    0    0 -0.23652198971E+01 -0.88622744431E+00  0.72103206648E+02  0.72147510264E+02  0.10566000000E+00 0.  1.
         14    1    4    4    0    0 -0.24036069215E+01  0.10670116399E-01  0.52556311116E+02  0.52611246690E+02  0.00000000000E+00 0. -1.
<mgrwt>
<rscale>  0 0.76177680E+02</rscale>
<asrwt>0</asrwt>
<pdfrwt beam="1">  1        2 0.61093954E-01 0.76177680E+02</pdfrwt>
<pdfrwt beam="2">  1       -1 0.56204430E-03 0.76177680E+02</pdfrwt>
<totfact> 0.32017262E+05</totfact>
</mgrwt>
</event>
<event>
 8    1  0.1226832E-024  0.7847111E+02  0.7818608E-02  0.1333447E+00
         -1   -1    0    0    0  501 -0.00000000000E+00  0.00000000000E+00  0.79536658780E+01  0.79536674748E+01  0.50400000000E-02 0.  1.
          2   -1    0    0  501    0  0.00000000000E+00 -0.00000000000E+00 -0.19354957331E+03  0.19354957333E+03  0.25500000000E-02 0. -1.
         24    2    1    2    0    0 -0.44408920985E-15 -0.35527136788E-14 -0.18559590743E+03  0.20150324080E+03  0.78471110595E+02 0.  0.
         66    2    3    3    0    0  0.26473518724E+01 -0.18374280150E+02 -0.18154431256E+03  0.18250194537E+03  0.19999992711E+01 0.  0.
        -13    1    3    3    0    0 -0.26473518724E+01  0.18374280150E+02 -0.40515948662E+01  0.19001295428E+02  0.10566000000E+00 0.  1.
         13    1    4    4    0    0  0.29498822416E+00 -0.53822088775E+01 -0.49521935603E+02  0.49814540652E+02  0.10566000000E+00 0. -1.
        -13    1    4    4    0    0  0.12159654446E+01 -0.44089576347E+01 -0.41156140884E+02  0.41409619364E+02  0.10566000000E+00 0.  1.
        -14    1    4    4    0    0  0.11363982037E+01 -0.85831136376E+01 -0.90866236078E+02  0.91277785356E+02  0.00000000000E+00 0.  1.
<mgrwt>
<rscale>  0 0.78471111E+02</rscale>
<asrwt>0</asrwt>
<pdfrwt beam="1">  1        2 0.29776854E-01 0.78471111E+02</pdfrwt>
<pdfrwt beam="2">  1       -1 0.12236412E-02 0.78471111E+02</pdfrwt>
<totfact> 0.22948362E+05</totfact>
</mgrwt>
</event>
<event>
 8    1  0.1226832E-024  0.7981422E+02  0.7818608E-02  0.1329579E+00
         -1   -1    0    0    0  501 -0.00000000000E+00  0.00000000000E+00  0.19479673840E+03  0.19479673846E+03  0.50400000000E-02 0.  1.
          2   -1    0    0  501    0  0.00000000000E+00 -0.00000000000E+00 -0.81755847829E+01  0.81755851806E+01  0.25500000000E-02 0. -1.
         24    2    1    2    0    0 -0.35527136788E-14  0.00000000000E+00  0.18662115362E+03  0.20297232365E+03  0.79814216708E+02 0.  0.
         66    2    3    3    0    0  0.26316238689E+02  0.16155072998E+02  0.29182984707E+02  0.42534426015E+02  0.19999994304E+01 0.  0.
        -13    1    3    3    0    0 -0.26316238689E+02 -0.16155072998E+02  0.15743816891E+03  0.16043789763E+03  0.10566000000E+00 0.  1.
         13    1    4    4    0    0  0.21115433647E+02  0.12792080327E+02  0.23802812782E+02  0.34294079920E+02  0.10566000000E+00 0. -1.
        -13    1    4    4    0    0  0.35001252552E+01  0.26358039297E+01  0.35774066391E+01  0.56575031114E+01  0.10566000000E+00 0. -1.
         14    1    4    4    0    0  0.17006797868E+01  0.72718874164E+00  0.18027652862E+01  0.25828429841E+01  0.00000000000E+00 0. -1.
<mgrwt>
<rscale>  0 0.79814217E+02</rscale>
<asrwt>0</asrwt>
<pdfrwt beam="1">  1        2 0.12577824E-02 0.79814217E+02</pdfrwt>
<pdfrwt beam="2">  1       -1 0.29968728E-01 0.79814217E+02</pdfrwt>
<totfact> 0.10099032E+05</totfact>
</mgrwt>
</event>
<event>
 8    1  0.1226832E-024  0.8152785E+02  0.7818608E-02  0.1324771E+00
         -1   -1    0    0    0  501 -0.00000000000E+00  0.00000000000E+00  0.45883834275E+02  0.45883834552E+02  0.50400000000E-02 0.  1.
          2   -1    0    0  501    0  0.00000000000E+00 -0.00000000000E+00 -0.36215320211E+02  0.36215320301E+02  0.25500000000E-02 0. -1.
         24    2    1    2    0    0  0.00000000000E+00  0.00000000000E+00  0.96685140644E+01  0.82099154853E+02  0.81527854525E+02 0.  0.
         66    2    3    3    0    0  0.24234768107E+02  0.27980030842E+02 -0.12296375950E+02  0.39056458974E+02  0.20000037368E+01 0.  0.
        -13    1    3    3    0    0 -0.24234768107E+02 -0.27980030842E+02  0.21964890015E+02  0.43042695879E+02  0.10566000000E+00 0.  1.
         13    1    4    4    0    0  0.26318413844E+01  0.37775535307E+01 -0.15217653017E+01  0.48500962278E+01  0.10566000000E+00 0. -1.
        -13    1    4    4    0    0  0.68051106908E+01  0.72143416452E+01 -0.38161722469E+01  0.10626880612E+02  0.10566000000E+00 0.  1.
        -14    1    4    4    0    0  0.14797816032E+02  0.16988135666E+02 -0.69584384017E+01  0.23579482134E+02  0.00000000000E+00 0.  1.
<mgrwt>
<rscale>  0 0.81527855E+02</rscale>
<asrwt>0</asrwt>
<pdfrwt beam="1">  1        2 0.55715877E-02 0.81527855E+02</pdfrwt>
<pdfrwt beam="2">  1       -1 0.70590515E-02 0.81527855E+02</pdfrwt>
<totfact> 0.13253605E+05</totfact>
</mgrwt>
</event>
<event>
 8    1  0.1226832E-024  0.7818031E+02  0.7818608E-02  0.1334296E+00
          2   -1    0    0  501    0  0.00000000000E+00  0.00000000000E+00  0.17865077988E+02  0.17865078170E+02  0.25500000000E-02 0. -1.
         -1   -1    0    0    0  501 -0.00000000000E+00 -0.00000000000E+00 -0.85532240575E+02  0.85532240724E+02  0.50400000000E-02 0.  1.
         24    2    1    2    0    0  0.17763568394E-14  0.00000000000E+00 -0.67667162588E+02  0.10339731889E+03  0.78180308657E+02 0.  0.
         66    2    3    3    0    0  0.13410796770E+02 -0.78612041835E+01  0.13542324538E+02  0.20713342426E+02  0.19999998419E+01 0.  0.
        -13    1    3    3    0    0 -0.13410796770E+02  0.78612041835E+01 -0.81209487126E+02  0.82683976467E+02  0.10566000000E+00 0.  1.
         13    1    4    4    0    0  0.54186835003E+01 -0.24163759185E+01  0.42453575230E+01  0.72962475280E+01  0.10566000000E+00 0. -1.
        -13    1    4    4    0    0  0.65636431232E+01 -0.43713844836E+01  0.75395646757E+01  0.10910848404E+02  0.10566000000E+00 0.  1.
         14    1    4    4    0    0  0.14284701461E+01 -0.10734437815E+01  0.17574023390E+01  0.25062464946E+01  0.00000000000E+00 0. -1.
<mgrwt>
<rscale>  0 0.78180309E+02</rscale>
<asrwt>0</asrwt>
<pdfrwt beam="1">  1        2 0.27484736E-02 0.78180309E+02</pdfrwt>
<pdfrwt beam="2">  1       -1 0.13158806E-01 0.78180309E+02</pdfrwt>
<totfact> 0.12965651E+05</totfact>
</mgrwt>
</event>
<event>
 8    1  0.1226832E-024  0.7946198E+02  0.7818608E-02  0.1330585E+00
          2   -1    0    0  501    0  0.00000000000E+00  0.00000000000E+00  0.73986065876E+02  0.73986065920E+02  0.25500000000E-02 0. -1.
         -1   -1    0    0    0  501 -0.00000000000E+00 -0.00000000000E+00 -0.21335794763E+02  0.21335795359E+02  0.50400000000E-02 0.  1.
         24    2    1    2    0    0 -0.35527136788E-14  0.00000000000E+00  0.52650271112E+02  0.95321861278E+02  0.79461979521E+02 0.  0.
         66    2    3    3    0    0 -0.30694454443E+02 -0.17300027853E+02  0.48301359558E+02  0.59820245920E+02  0.19999973975E+01 0.  0.
        -13    1    3    3    0    0  0.30694454443E+02  0.17300027853E+02  0.43489115546E+01  0.35501615358E+02  0.10566000000E+00 0.  1.
         13    1    4    4    0    0 -0.21057120259E+02 -0.11765738802E+02  0.34571013896E+02  0.42154490733E+02  0.10566000000E+00 0. -1.
        -13    1    4    4    0    0 -0.59037396835E+01 -0.34475708741E+01  0.83332989113E+01  0.10779374841E+02  0.10566000000E+00 0.  1.
         14    1    4    4    0    0 -0.37335945011E+01 -0.20867181764E+01  0.53970467507E+01  0.68863803464E+01  0.00000000000E+00 0. -1.
<mgrwt>
<rscale>  0 0.79461980E+02</rscale>
<asrwt>0</asrwt>
<pdfrwt beam="1">  1        2 0.11382472E-01 0.79461980E+02</pdfrwt>
<pdfrwt beam="2">  1       -1 0.32824301E-02 0.79461980E+02</pdfrwt>
<totfact> 0.16669761E+05</totfact>
</mgrwt>
</event>
<event>
 8    1  0.1226832E-024  0.7934555E+02  0.7818608E-02  0.1330919E+00
         -1   -1    0    0    0  501 -0.00000000000E+00  0.00000000000E+00  0.47624354799E+01  0.47624381468E+01  0.50400000000E-02 0.  1.
          2   -1    0    0  501    0  0.00000000000E+00 -0.00000000000E+00 -0.33048820833E+03  0.33048820834E+03  0.25500000000E-02 0. -1.
         24    2    1    2    0    0 -0.71054273576E-14  0.00000000000E+00 -0.32572577285E+03  0.33525064648E+03  0.79345553567E+02 0.  0.
         66    2    3    3    0    0  0.39615522858E+02  0.10172928034E+01 -0.15779175533E+03  0.16270421812E+03  0.20000023675E+01 0.  0.
        -13    1    3    3    0    0 -0.39615522858E+02 -0.10172928034E+01 -0.16793401752E+03  0.17254642836E+03  0.10566000000E+00 0.  1.
         13    1    4    4    0    0  0.14877445181E+02 -0.98247906490E-01 -0.60295976126E+02  0.62104459814E+02  0.10566000000E+00 0. -1.
        -13    1    4    4    0    0  0.13215145482E+01  0.11886788077E+00 -0.42542366501E+01  0.44576029191E+01  0.10566000000E+00 0.  1.
        -14    1    4    4    0    0  0.23416563129E+02  0.99667282910E+00 -0.93241542552E+02  0.96142155390E+02  0.00000000000E+00 0.  1.
<mgrwt>
<rscale>  0 0.79345554E+02</rscale>
<asrwt>0</asrwt>
<pdfrwt beam="1">  1        2 0.50844322E-01 0.79345554E+02</pdfrwt>
<pdfrwt beam="2">  1       -1 0.73268285E-03 0.79345554E+02</pdfrwt>
<totfact> 0.26974912E+05</totfact>
</mgrwt>
</event>
<event>
 8    1  0.1226832E-024  0.7811005E+02  0.7818608E-02  0.1334502E+00
          2   -1    0    0  501    0  0.00000000000E+00  0.00000000000E+00  0.15957185704E+03  0.15957185706E+03  0.25500000000E-02 0. -1.
         -1   -1    0    0    0  501 -0.00000000000E+00 -0.00000000000E+00 -0.95586700301E+01  0.95586713588E+01  0.50400000000E-02 0.  1.
         24    2    1    2    0    0  0.35527136788E-14 -0.71054273576E-14  0.15001318701E+03  0.16913052842E+03  0.78110046515E+02 0.  0.
         66    2    3    3    0    0 -0.22391511862E+02  0.29336386688E+02  0.10255445706E+03  0.10901110061E+03  0.20000016103E+01 0.  0.
        -13    1    3    3    0    0  0.22391511862E+02 -0.29336386688E+02  0.47458729950E+02  0.60119427807E+02  0.10566000000E+00 0.  1.
         13    1    4    4    0    0 -0.72796676501E+01  0.96335146875E+01  0.35148260576E+02  0.37164627697E+02  0.10566000000E+00 0. -1.
        -13    1    4    4    0    0 -0.13014044815E+02  0.16317997044E+02  0.57386987625E+02  0.61064882729E+02  0.10566000000E+00 0.  1.
        -14    1    4    4    0    0 -0.20977993973E+01  0.33848749556E+01  0.10019208860E+02  0.10781590187E+02  0.00000000000E+00 0.  1.
<mgrwt>
<rscale>  0 0.78110047E+02</rscale>
<asrwt>0</asrwt>
<pdfrwt beam="1">  1        2 0.24549518E-01 0.78110047E+02</pdfrwt>
<pdfrwt beam="2">  1       -1 0.14705646E-02 0.78110047E+02</pdfrwt>
<totfact> 0.21771906E+05</totfact>
</mgrwt>
</event>
<event>
 8    1  0.1226832E-024  0.8145798E+02  0.7818608E-02  0.1324964E+00
         -1   -1    0    0    0  501 -0.00000000000E+00  0.00000000000E+00  0.86796908890E+02  0.86796909037E+02  0.50400000000E-02 0.  1.
          2   -1    0    0  501    0  0.00000000000E+00 -0.00000000000E+00 -0.19111860406E+02  0.19111860576E+02  0.25500000000E-02 0. -1.
         24    2    1    2    0    0  0.35527136788E-14  0.00000000000E+00  0.67685048485E+02  0.10590876961E+03  0.81457975008E+02 0.  0.
         66    2    3    3    0    0  0.23591223555E+02  0.26824619137E+02  0.84933493641E+01  0.36772856879E+02  0.19999997353E+01 0.  0.
        -13    1    3    3    0    0 -0.23591223555E+02 -0.26824619137E+02  0.59191699120E+02  0.69135912733E+02  0.10566000000E+00 0.  1.
         13    1    4    4    0    0  0.11142676592E+02  0.12334765832E+02  0.38932033743E+01  0.17072606313E+02  0.10566000000E+00 0. -1.
        -13    1    4    4    0    0  0.91039775914E+01  0.10975414286E+02  0.28466455677E+01  0.14541550184E+02  0.10566000000E+00 0.  1.
        -14    1    4    4    0    0  0.33445693713E+01  0.35144390201E+01  0.17535004221E+01  0.51587003825E+01  0.00000000000E+00 0.  1.
<mgrwt>
<rscale>  0 0.81457975E+02</rscale>
<asrwt>0</asrwt>
<pdfrwt beam="1">  1        2 0.29402862E-02 0.81457975E+02</pdfrwt>
<pdfrwt beam="2">  1       -1 0.13353371E-01 0.81457975E+02</pdfrwt>
<totfact> 0.11676611E+05</totfact>
</mgrwt>
</event>
<event>
 8    1  0.1226832E-024  0.7837501E+02  0.7818608E-02  0.1333727E+00
          2   -1    0    0  501    0  0.00000000000E+00  0.00000000000E+00  0.64419013707E+03  0.64419013708E+03  0.25500000000E-02 0. -1.
         -1   -1    0    0    0  501 -0.00000000000E+00 -0.00000000000E+00 -0.23838597366E+01  0.23838650645E+01  0.50400000000E-02 0.  1.
         24    2    1    2    0    0 -0.17763568394E-14  0.88817841970E-15  0.64180627734E+03  0.64657400214E+03  0.78375012716E+02 0.  0.
         66    2    3    3    0    0 -0.96657404964E+01  0.60214457098E+01  0.63022628101E+03  0.63033233269E+03  0.20000015011E+01 0.  0.
        -13    1    3    3    0    0  0.96657404964E+01 -0.60214457098E+01  0.11579996327E+02  0.16241669457E+02  0.10566000000E+00 0.  1.
         13    1    4    4    0    0 -0.57118988547E+01  0.46157591348E+01  0.38435133438E+03  0.38442150099E+03  0.10566000000E+00 0. -1.
        -13    1    4    4    0    0 -0.13840898566E+01  0.45271191259E+00  0.86210690205E+02  0.86223053312E+02  0.10566000000E+00 0.  1.
         14    1    4    4    0    0 -0.25697517851E+01  0.95297466237E+00  0.15966425643E+03  0.15968777838E+03  0.00000000000E+00 0. -1.
<mgrwt>
<rscale>  0 0.78375013E+02</rscale>
<asrwt>0</asrwt>
<pdfrwt beam="1">  1        2 0.99106128E-01 0.78375013E+02</pdfrwt>
<pdfrwt beam="2">  1       -1 0.36674824E-03 0.78375013E+02</pdfrwt>
<totfact> 0.34577290E+05</totfact>
</mgrwt>
</event>
<event>
 8    1  0.1226832E-024  0.7937608E+02  0.7818608E-02  0.1330831E+00
         -1   -1    0    0    0  501 -0.00000000000E+00  0.00000000000E+00  0.49309143511E+01  0.49309169269E+01  0.50400000000E-02 0.  1.
          2   -1    0    0  501    0  0.00000000000E+00 -0.00000000000E+00 -0.31944181335E+03  0.31944181336E+03  0.25500000000E-02 0. -1.
         24    2    1    2    0    0  0.71054273576E-14  0.00000000000E+00 -0.31451089900E+03  0.32437273029E+03  0.79376083078E+02 0.  0.
         66    2    3    3    0    0  0.23661570023E+02 -0.10635733862E+02 -0.27996091004E+03  0.28116738765E+03  0.20000001580E+01 0.  0.
        -13    1    3    3    0    0 -0.23661570023E+02  0.10635733862E+02 -0.34549988962E+02  0.43205342633E+02  0.10566000000E+00 0.  1.
         13    1    4    4    0    0  0.44074588869E+01 -0.16938001986E+01 -0.52349717213E+02  0.52562331658E+02  0.10566000000E+00 0. -1.
        -13    1    4    4    0    0  0.63134565299E+01 -0.29885847546E+01 -0.83406493302E+02  0.83698540377E+02  0.10566000000E+00 0.  1.
         14    1    4    4    0    0  0.12940654606E+02 -0.59533489093E+01 -0.14420469952E+03  0.14490651562E+03  0.00000000000E+00 0. -1.
<mgrwt>
<rscale>  0 0.79376083E+02</rscale>
<asrwt>0</asrwt>
<pdfrwt beam="1">  1        2 0.49144878E-01 0.79376083E+02</pdfrwt>
<pdfrwt beam="2">  1       -1 0.75860266E-03 0.79376083E+02</pdfrwt>
<totfact> 0.26620018E+05</totfact>
</mgrwt>
</event>
<event>
 8    1  0.1226832E-024  0.7977585E+02  0.7818608E-02  0.1329689E+00
          2   -1    0    0  501    0  0.00000000000E+00  0.00000000000E+00  0.17512485549E+03  0.17512485551E+03  0.25500000000E-02 0. -1.
         -1   -1    0    0    0  501 -0.00000000000E+00 -0.00000000000E+00 -0.90852109105E+01  0.90852123085E+01  0.50400000000E-02 0.  1.
         24    2    1    2    0    0  0.00000000000E+00  0.00000000000E+00  0.16603964458E+03  0.18421006782E+03  0.79775845423E+02 0.  0.
         66    2    3    3    0    0  0.19872606219E+02 -0.10702900822E+02  0.15894133838E+03  0.16054850238E+03  0.20000015296E+01 0.  0.
        -13    1    3    3    0    0 -0.19872606219E+02  0.10702900822E+02  0.70983061967E+01  0.23661565435E+02  0.10566000000E+00 0.  1.
         13    1    4    4    0    0  0.14846553908E+02 -0.88125368571E+01  0.12166142519E+03  0.12288040736E+03  0.10566000000E+00 0. -1.
        -13    1    4    4    0    0  0.38287284910E+01 -0.13160611565E+01  0.26770651921E+02  0.27075268182E+02  0.10566000000E+00 0.  1.
         14    1    4    4    0    0  0.11973238198E+01 -0.57430280868E+00  0.10509261268E+02  0.10592826839E+02  0.00000000000E+00 0. -1.
<mgrwt>
<rscale>  0 0.79775845E+02</rscale>
<asrwt>0</asrwt>
<pdfrwt beam="1">  1        2 0.26942282E-01 0.79775845E+02</pdfrwt>
<pdfrwt beam="2">  1       -1 0.13977250E-02 0.79775845E+02</pdfrwt>
<totfact> 0.21234891E+05</totfact>
</mgrwt>
</event>
<event>
 8    1  0.1226832E-024  0.8120002E+02  0.7818608E-02  0.1325680E+00
          2   -1    0    0  501    0  0.00000000000E+00  0.00000000000E+00  0.74238009536E+03  0.74238009537E+03  0.25500000000E-02 0. -1.
         -1   -1    0    0    0  501 -0.00000000000E+00 -0.00000000000E+00 -0.22203701687E+01  0.22203758888E+01  0.50400000000E-02 0.  1.
         24    2    1    2    0    0  0.88817841970E-15  0.00000000000E+00  0.74015972519E+03  0.74460047126E+03  0.81200018444E+02 0.  0.
         66    2    3    3    0    0  0.58670375501E+01 -0.29428133813E+02  0.62074905352E+03  0.62147713122E+03  0.19999967802E+01 0.  0.
        -13    1    3    3    0    0 -0.58670375501E+01  0.29428133813E+02  0.11941067167E+03  0.12312334004E+03  0.10566000000E+00 0.  1.
         13    1    4    4    0    0  0.76752557099E+00 -0.56124058667E+01  0.11047155891E+03  0.11061674687E+03  0.10566000000E+00 0. -1.
        -13    1    4    4    0    0  0.17372103749E+01 -0.56959043629E+01  0.11789363165E+03  0.11804397814E+03  0.10566000000E+00 0.  1.
         14    1    4    4    0    0  0.33623016042E+01 -0.18119823583E+02  0.39238386296E+03  0.39281640621E+03  0.00000000000E+00 0. -1.
<mgrwt>
<rscale>  0 0.81200018E+02</rscale>
<asrwt>0</asrwt>
<pdfrwt beam="1">  1        2 0.11421229E+00 0.81200018E+02</pdfrwt>
<pdfrwt beam="2">  1       -1 0.34159595E-03 0.81200018E+02</pdfrwt>
<totfact> 0.32595360E+05</totfact>
</mgrwt>
</event>
<event>
 8    1  0.1226832E-024  0.8030631E+02  0.7818608E-02  0.1328184E+00
          2   -1    0    0  501    0  0.00000000000E+00  0.00000000000E+00  0.35364061872E+03  0.35364061873E+03  0.25500000000E-02 0. -1.
         -1   -1    0    0    0  501 -0.00000000000E+00 -0.00000000000E+00 -0.45590784396E+01  0.45590812254E+01  0.50400000000E-02 0.  1.
         24    2    1    2    0    0  0.00000000000E+00  0.00000000000E+00  0.34908154028E+03  0.35819969996E+03  0.80306309111E+02 0.  0.
         66    2    3    3    0    0 -0.32308723348E+02  0.16804525745E+01  0.28053958604E+03  0.28240597871E+03  0.19999874237E+01 0.  0.
        -13    1    3    3    0    0  0.32308723348E+02 -0.16804525745E+01  0.68541954244E+02  0.75793721249E+02  0.10566000000E+00 0.  1.
         13    1    4    4    0    0 -0.10301578838E+02  0.11100184543E+01  0.90097434770E+02  0.90691309307E+02  0.10566000000E+00 0. -1.
        -13    1    4    4    0    0 -0.18355424386E+02  0.95293769320E+00  0.15851955243E+03  0.15958160721E+03  0.10566000000E+00 0.  1.
        -14    1    4    4    0    0 -0.36517201239E+01 -0.38250357299E+00  0.31922598844E+02  0.32133062191E+02  0.00000000000E+00 0.  1.
<mgrwt>
<rscale>  0 0.80306309E+02</rscale>
<asrwt>0</asrwt>
<pdfrwt beam="1">  1        2 0.54406247E-01 0.80306309E+02</pdfrwt>
<pdfrwt beam="2">  1       -1 0.70139693E-03 0.80306309E+02</pdfrwt>
<totfact> 0.26780133E+05</totfact>
</mgrwt>
</event>
<event>
 8    1  0.1226832E-024  0.7942634E+02  0.7818608E-02  0.1330687E+00
         -1   -1    0    0    0  501 -0.00000000000E+00  0.00000000000E+00  0.13246703909E+02  0.13246704868E+02  0.50400000000E-02 0.  1.
          2   -1    0    0  501    0  0.00000000000E+00 -0.00000000000E+00 -0.11905874502E+03  0.11905874505E+03  0.25500000000E-02 0. -1.
         24    2    1    2    0    0  0.00000000000E+00 -0.88817841970E-15 -0.10581204111E+03  0.13230544992E+03  0.79426343445E+02 0.  0.
         66    2    3    3    0    0 -0.19122608036E+02  0.79718714035E+01 -0.10932760306E+03  0.11129128299E+03  0.20000014064E+01 0.  0.
        -13    1    3    3    0    0  0.19122608036E+02 -0.79718714035E+01  0.35155619522E+01  0.21014166928E+02  0.10566000000E+00 0.  1.
         13    1    4    4    0    0 -0.24784004830E+01  0.11947766084E+01 -0.11638204661E+02  0.11959470384E+02  0.10566000000E+00 0. -1.
        -13    1    4    4    0    0 -0.12444210452E+02  0.48102395839E+01 -0.73837252705E+02  0.75032978280E+02  0.10566000000E+00 0.  1.
        -14    1    4    4    0    0 -0.41999971009E+01  0.19668552111E+01 -0.23852145698E+02  0.24298834324E+02  0.00000000000E+00 0.  1.
<mgrwt>
<rscale>  0 0.79426343E+02</rscale>
<asrwt>0</asrwt>
<pdfrwt beam="1">  1        2 0.18316729E-01 0.79426343E+02</pdfrwt>
<pdfrwt beam="2">  1       -1 0.20379546E-02 0.79426343E+02</pdfrwt>
<totfact> 0.19003819E+05</totfact>
</mgrwt>
</event>
<event>
 8    1  0.1226832E-024  0.7767423E+02  0.7818608E-02  0.1335784E+00
         -1   -1    0    0    0  501 -0.00000000000E+00  0.00000000000E+00  0.49031483249E+02  0.49031483508E+02  0.50400000000E-02 0.  1.
          2   -1    0    0  501    0  0.00000000000E+00 -0.00000000000E+00 -0.30762309702E+02  0.30762309807E+02  0.25500000000E-02 0. -1.
         24    2    1    2    0    0  0.35527136788E-14 -0.88817841970E-15  0.18269173547E+02  0.79793793315E+02  0.77674234786E+02 0.  0.
         66    2    3    3    0    0 -0.26444246620E+02 -0.51579672238E+01 -0.19557572984E+02  0.33352683053E+02  0.20000001550E+01 0.  0.
        -13    1    3    3    0    0  0.26444246620E+02  0.51579672238E+01  0.37826746532E+02  0.46441110262E+02  0.10566000000E+00 0.  1.
         13    1    4    4    0    0 -0.12632426759E+02 -0.21824469684E+01 -0.93435952896E+01  0.15863644524E+02  0.10566000000E+00 0. -1.
        -13    1    4    4    0    0 -0.29220965407E+01 -0.52117719393E+00 -0.14979916000E+01  0.33264721147E+01  0.10566000000E+00 0.  1.
        -14    1    4    4    0    0 -0.10889723320E+02 -0.24543430614E+01 -0.87159860949E+01  0.14162566415E+02  0.00000000000E+00 0.  1.
<mgrwt>
<rscale>  0 0.77674235E+02</rscale>
<asrwt>0</asrwt>
<pdfrwt beam="1">  1        2 0.47326631E-02 0.77674235E+02</pdfrwt>
<pdfrwt beam="2">  1       -1 0.75433051E-02 0.77674235E+02</pdfrwt>
<totfact> 0.14683230E+05</totfact>
</mgrwt>
</event>
<event>
 8    1  0.1226832E-024  0.7769176E+02  0.7818608E-02  0.1335733E+00
         -1   -1    0    0    0  501 -0.00000000000E+00  0.00000000000E+00  0.29883358395E+02  0.29883358820E+02  0.50400000000E-02 0.  1.
          2   -1    0    0  501    0  0.00000000000E+00 -0.00000000000E+00 -0.50496406814E+02  0.50496406879E+02  0.25500000000E-02 0. -1.
         24    2    1    2    0    0  0.00000000000E+00  0.00000000000E+00 -0.20613048419E+02  0.80379765699E+02  0.77691756118E+02 0.  0.
         66    2    3    3    0    0 -0.27881556393E+02 -0.21226372235E+02 -0.27596308383E+02  0.44648586753E+02  0.19999993691E+01 0.  0.
        -13    1    3    3    0    0  0.27881556393E+02  0.21226372235E+02  0.69832599638E+01  0.35731178947E+02  0.10566000000E+00 0.  1.
         13    1    4    4    0    0 -0.21215667954E+02 -0.15644385905E+02 -0.20416334623E+02  0.33342004447E+02  0.10566000000E+00 0. -1.
        -13    1    4    4    0    0 -0.36009175013E+01 -0.34134885708E+01 -0.37377497392E+01  0.62129258987E+01  0.10566000000E+00 0.  1.
         14    1    4    4    0    0 -0.30649709386E+01 -0.21684977589E+01 -0.34422240208E+01  0.50936564071E+01  0.00000000000E+00 0. -1.
<mgrwt>
<rscale>  0 0.77691756E+02</rscale>
<asrwt>0</asrwt>
<pdfrwt beam="1">  1        2 0.77686780E-02 0.77691756E+02</pdfrwt>
<pdfrwt beam="2">  1       -1 0.45974398E-02 0.77691756E+02</pdfrwt>
<totfact> 0.16222492E+05</totfact>
</mgrwt>
</event>
<event>
 8    1  0.1226832E-024  0.8894481E+02  0.7818608E-02  0.1305427E+00
         -1   -1    0    0    0  501 -0.00000000000E+00  0.00000000000E+00  0.98912354229E+01  0.98912367070E+01  0.50400000000E-02 0.  1.
          2   -1    0    0  501    0  0.00000000000E+00 -0.00000000000E+00 -0.19995428197E+03  0.19995428199E+03  0.25500000000E-02 0. -1.
         24    2    1    2    0    0  0.00000000000E+00  0.00000000000E+00 -0.19006304655E+03  0.20984551869E+03  0.88944814649E+02 0.  0.
         66    2    3    3    0    0  0.39772635468E+02 -0.75039613837E+01 -0.13842971112E+03  0.14423923500E+03  0.20000061418E+01 0.  0.
        -13    1    3    3    0    0 -0.39772635468E+02  0.75039613837E+01 -0.51633335430E+02  0.65606283694E+02  0.10566000000E+00 0.  1.
         13    1    4    4    0    0  0.28045915479E+02 -0.52914609970E+01 -0.97461141329E+02  0.10155421295E+03  0.10566000000E+00 0. -1.
        -13    1    4    4    0    0  0.89296921057E+01 -0.21132181747E+01 -0.32001493463E+02  0.33291317788E+02  0.10566000000E+00 0.  1.
         14    1    4    4    0    0  0.27970278833E+01 -0.99282211946E-01 -0.89670763261E+01  0.93937042627E+01  0.00000000000E+00 0. -1.
<mgrwt>
<rscale>  0 0.88944815E+02</rscale>
<asrwt>0</asrwt>
<pdfrwt beam="1">  1        2 0.30762194E-01 0.88944815E+02</pdfrwt>
<pdfrwt beam="2">  1       -1 0.15217288E-02 0.88944815E+02</pdfrwt>
<totfact> 0.16649687E+05</totfact>
</mgrwt>
</event>
<event>
 8    1  0.1226832E-024  0.8175658E+02  0.7818608E-02  0.1324139E+00
          2   -1    0    0  501    0  0.00000000000E+00  0.00000000000E+00  0.66752333362E+02  0.66752333411E+02  0.25500000000E-02 0. -1.
         -1   -1    0    0    0  501 -0.00000000000E+00 -0.00000000000E+00 -0.25033353014E+02  0.25033353521E+02  0.50400000000E-02 0.  1.
         24    2    1    2    0    0  0.00000000000E+00  0.00000000000E+00  0.41718980349E+02  0.91785686932E+02  0.81756583859E+02 0.  0.
         66    2    3    3    0    0 -0.33244279156E+02 -0.41215246680E+01  0.47125642289E+02  0.57853221363E+02  0.19999996832E+01 0.  0.
        -13    1    3    3    0    0  0.33244279156E+02  0.41215246680E+01 -0.54066619404E+01  0.33932465569E+02  0.10566000000E+00 0.  1.
         13    1    4    4    0    0 -0.20885558634E+02 -0.22426129386E+01  0.28455590772E+02  0.35369021508E+02  0.10566000000E+00 0. -1.
        -13    1    4    4    0    0 -0.69774799042E+01 -0.74325098294E+00  0.10936449780E+02  0.12994412093E+02  0.10566000000E+00 0.  1.
        -14    1    4    4    0    0 -0.53812406185E+01 -0.11356607464E+01  0.77336017378E+01  0.94897877618E+01  0.00000000000E+00 0.  1.
<mgrwt>
<rscale>  0 0.81756584E+02</rscale>
<asrwt>0</asrwt>
<pdfrwt beam="1">  1        2 0.10269590E-01 0.81756584E+02</pdfrwt>
<pdfrwt beam="2">  1       -1 0.38512852E-02 0.81756584E+02</pdfrwt>
<totfact> 0.15047889E+05</totfact>
</mgrwt>
</event>
<event>
 8    1  0.1226832E-024  0.7992541E+02  0.7818608E-02  0.1329263E+00
          2   -1    0    0  501    0  0.00000000000E+00  0.00000000000E+00  0.16045660749E+03  0.16045660751E+03  0.25500000000E-02 0. -1.
         -1   -1    0    0    0  501 -0.00000000000E+00 -0.00000000000E+00 -0.99529559392E+01  0.99529572152E+01  0.50400000000E-02 0.  1.
         24    2    1    2    0    0 -0.44408920985E-15  0.00000000000E+00  0.15050365155E+03  0.17040956473E+03  0.79925406598E+02 0.  0.
         66    2    3    3    0    0  0.33453929016E+01 -0.36299749089E+02  0.11008219114E+03  0.11597824044E+03  0.20000030304E+01 0.  0.
        -13    1    3    3    0    0 -0.33453929016E+01  0.36299749089E+02  0.40421460413E+02  0.54431324286E+02  0.10566000000E+00 0.  1.
         13    1    4    4    0    0  0.34050387662E+00 -0.33720928693E+01  0.11010101021E+02  0.11520435831E+02  0.10566000000E+00 0. -1.
        -13    1    4    4    0    0  0.30448534834E+01 -0.27108273243E+02  0.82599090474E+02  0.86987071005E+02  0.10566000000E+00 0.  1.
        -14    1    4    4    0    0 -0.39964458374E-01 -0.58193829772E+01  0.16472999642E+02  0.17470733602E+02  0.00000000000E+00 0.  1.
<mgrwt>
<rscale>  0 0.79925407E+02</rscale>
<asrwt>0</asrwt>
<pdfrwt beam="1">  1        2 0.24685631E-01 0.79925407E+02</pdfrwt>
<pdfrwt beam="2">  1       -1 0.15312241E-02 0.79925407E+02</pdfrwt>
<totfact> 0.20524687E+05</totfact>
</mgrwt>
</event>
<event>
 8    1  0.1226832E-024  0.7822456E+02  0.7818608E-02  0.1334167E+00
         -1   -1    0    0    0  501 -0.00000000000E+00  0.00000000000E+00  0.45515601768E+01  0.45515629672E+01  0.50400000000E-02 0.  1.
          2   -1    0    0  501    0  0.00000000000E+00 -0.00000000000E+00 -0.33609792574E+03  0.33609792575E+03  0.25500000000E-02 0. -1.
         24    2    1    2    0    0  0.35527136788E-14  0.27755575616E-16 -0.33154636556E+03  0.34064948872E+03  0.78224559091E+02 0.  0.
         66    2    3    3    0    0  0.30363991249E+02 -0.11399385995E+00 -0.27306334667E+03  0.27475366470E+03  0.20000039424E+01 0.  0.
        -13    1    3    3    0    0 -0.30363991249E+02  0.11399385995E+00 -0.58483018896E+02  0.65895824014E+02  0.10566000000E+00 0.  1.
         13    1    4    4    0    0  0.84981140136E+00  0.11837007216E+00 -0.84305308887E+01  0.84747392876E+01  0.10566000000E+00 0. -1.
        -13    1    4    4    0    0  0.12565081361E+02 -0.92215707313E+00 -0.11289936439E+03  0.11360021693E+03  0.10566000000E+00 0.  1.
         14    1    4    4    0    0  0.16949098487E+02  0.68979314103E+00 -0.15173345139E+03  0.15267870849E+03  0.00000000000E+00 0. -1.
<mgrwt>
<rscale>  0 0.78224559E+02</rscale>
<asrwt>0</asrwt>
<pdfrwt beam="1">  1        2 0.51707354E-01 0.78224559E+02</pdfrwt>
<pdfrwt beam="2">  1       -1 0.70024051E-03 0.78224559E+02</pdfrwt>
<totfact> 0.28166760E+05</totfact>
</mgrwt>
</event>
<event>
 8    1  0.1226832E-024  0.8054924E+02  0.7818608E-02  0.1327500E+00
         -1   -1    0    0    0  501 -0.00000000000E+00  0.00000000000E+00  0.22511171992E+03  0.22511171998E+03  0.50400000000E-02 0.  1.
          2   -1    0    0  501    0  0.00000000000E+00 -0.00000000000E+00 -0.72055116847E+01  0.72055121360E+01  0.25500000000E-02 0. -1.
         24    2    1    2    0    0  0.00000000000E+00  0.00000000000E+00  0.21790620824E+03  0.23231723212E+03  0.80549244248E+02 0.  0.
         66    2    3    3    0    0 -0.95731551605E+01  0.39036978940E+02  0.10289560396E+03  0.11048545759E+03  0.19999998040E+01 0.  0.
        -13    1    3    3    0    0  0.95731551605E+01 -0.39036978940E+02  0.11501060427E+03  0.12183177453E+03  0.10566000000E+00 0.  1.
         13    1    4    4    0    0 -0.57272368285E+01  0.21809548047E+02  0.58383300205E+02  0.62586568323E+02  0.10566000000E+00 0. -1.
        -13    1    4    4    0    0 -0.15879616736E+01  0.86988207561E+01  0.21009967532E+02  0.22795196963E+02  0.10566000000E+00 0.  1.
         14    1    4    4    0    0 -0.22579566584E+01  0.85286101373E+01  0.23502336228E+02  0.25103692304E+02  0.00000000000E+00 0. -1.
<mgrwt>
<rscale>  0 0.80549244E+02</rscale>
<asrwt>0</asrwt>
<pdfrwt beam="1">  1        2 0.11085405E-02 0.80549244E+02</pdfrwt>
<pdfrwt beam="2">  1       -1 0.34632566E-01 0.80549244E+02</pdfrwt>
<totfact> 0.94303857E+04</totfact>
</mgrwt>
</event>
<event>
 8    1  0.1226832E-024  0.7993284E+02  0.7818608E-02  0.1329242E+00
          2   -1    0    0  501    0  0.00000000000E+00  0.00000000000E+00  0.18723735228E+04  0.18723735228E+04  0.25500000000E-02 0. -1.
         -1   -1    0    0    0  501 -0.00000000000E+00 -0.00000000000E+00 -0.85308882552E+00  0.85310371341E+00  0.50400000000E-02 0.  1.
         24    2    1    2    0    0  0.00000000000E+00  0.00000000000E+00  0.18715204340E+04  0.18732266265E+04  0.79932843696E+02 0.  0.
         66    2    3    3    0    0  0.18776123959E+02  0.42266457848E+01  0.17565369778E+04  0.17566435500E+04  0.20000280532E+01 0.  0.
        -13    1    3    3    0    0 -0.18776123959E+02 -0.42266457848E+01  0.11498345625E+03  0.11658307657E+03  0.10566000000E+00 0.  1.
         13    1    4    4    0    0  0.12038292419E+02  0.35172763052E+01  0.11204111596E+04  0.11204813562E+04  0.10566000000E+00 0. -1.
        -13    1    4    4    0    0  0.91363964066E+00 -0.90012004742E-01  0.85581607757E+02  0.85586597023E+02  0.10566000000E+00 0.  1.
         14    1    4    4    0    0  0.58241918986E+01  0.79938148441E+00  0.55054421037E+03  0.55057559680E+03  0.00000000000E+00 0. -1.
<mgrwt>
<rscale>  0 0.79932844E+02</rscale>
<asrwt>0</asrwt>
<pdfrwt beam="1">  1        2 0.28805614E+00 0.79932844E+02</pdfrwt>
<pdfrwt beam="2">  1       -1 0.13124619E-03 0.79932844E+02</pdfrwt>
<totfact> 0.29424223E+05</totfact>
</mgrwt>
</event>
<event>
 8    1  0.1226832E-024  0.8015579E+02  0.7818608E-02  0.1328610E+00
          2   -1    0    0  501    0  0.00000000000E+00  0.00000000000E+00  0.82427954605E+02  0.82427954644E+02  0.25500000000E-02 0. -1.
         -1   -1    0    0    0  501 -0.00000000000E+00 -0.00000000000E+00 -0.19486563860E+02  0.19486564512E+02  0.50400000000E-02 0.  1.
         24    2    1    2    0    0 -0.71054273576E-14 -0.17763568394E-14  0.62941390745E+02  0.10191451916E+03  0.80155789223E+02 0.  0.
         66    2    3    3    0    0 -0.33099042691E+02 -0.13627164389E+02  0.54340607422E+02  0.65101058653E+02  0.19999966232E+01 0.  0.
        -13    1    3    3    0    0  0.33099042691E+02  0.13627164389E+02  0.86007833234E+01  0.36813460503E+02  0.10566000000E+00 0.  1.
         13    1    4    4    0    0 -0.23402936354E+02 -0.92394769190E+01  0.36856491735E+02  0.44625973500E+02  0.10566000000E+00 0. -1.
        -13    1    4    4    0    0 -0.81303486247E+01 -0.35244818466E+01  0.14301718774E+02  0.16824828824E+02  0.10566000000E+00 0.  1.
         14    1    4    4    0    0 -0.15657577130E+01 -0.86320562339E+00  0.31823969122E+01  0.36502563295E+01  0.00000000000E+00 0. -1.
<mgrwt>
<rscale>  0 0.80155789E+02</rscale>
<asrwt>0</asrwt>
<pdfrwt beam="1">  1        2 0.12681224E-01 0.80155789E+02</pdfrwt>
<pdfrwt beam="2">  1       -1 0.29979329E-02 0.80155789E+02</pdfrwt>
<totfact> 0.16737166E+05</totfact>
</mgrwt>
</event>
<event>
 8    1  0.1226832E-024  0.7946485E+02  0.7818608E-02  0.1330577E+00
         -1   -1    0    0    0  501 -0.00000000000E+00  0.00000000000E+00  0.34154595314E+02  0.34154595685E+02  0.50400000000E-02 0.  1.
          2   -1    0    0  501    0  0.00000000000E+00 -0.00000000000E+00 -0.46221173519E+02  0.46221173589E+02  0.25500000000E-02 0. -1.
         24    2    1    2    0    0  0.00000000000E+00  0.00000000000E+00 -0.12066578205E+02  0.80375769275E+02  0.79464847429E+02 0.  0.
         66    2    3    3    0    0  0.95214183397E+01  0.12159576646E+02 -0.43037135282E+02  0.45767977072E+02  0.20000001438E+01 0.  0.
        -13    1    3    3    0    0 -0.95214183397E+01 -0.12159576646E+02  0.30970557077E+02  0.34607792202E+02  0.10566000000E+00 0.  1.
         13    1    4    4    0    0  0.54578578448E+01  0.62617018131E+01 -0.24505770078E+02  0.25875491357E+02  0.10566000000E+00 0. -1.
        -13    1    4    4    0    0  0.16400437555E+01  0.17872975069E+01 -0.71600082570E+01  0.75604932494E+01  0.10566000000E+00 0.  1.
        -14    1    4    4    0    0  0.24235167393E+01  0.41105773265E+01 -0.11371356948E+02  0.12331992466E+02  0.00000000000E+00 0.  1.
<mgrwt>
<rscale>  0 0.79464847E+02</rscale>
<asrwt>0</asrwt>
<pdfrwt beam="1">  1        2 0.71109498E-02 0.79464847E+02</pdfrwt>
<pdfrwt beam="2">  1       -1 0.52545532E-02 0.79464847E+02</pdfrwt>
<totfact> 0.14965755E+05</totfact>
</mgrwt>
</event>
<event>
 8    1  0.1226832E-024  0.7951116E+02  0.7818608E-02  0.1330444E+00
         -1   -1    0    0    0  501 -0.00000000000E+00  0.00000000000E+00  0.49926270611E+01  0.49926296050E+01  0.50400000000E-02 0.  1.
          2   -1    0    0  501    0  0.00000000000E+00 -0.00000000000E+00 -0.31656797294E+03  0.31656797295E+03  0.25500000000E-02 0. -1.
         24    2    1    2    0    0  0.35527136788E-14  0.35527136788E-14 -0.31157534588E+03  0.32156060256E+03  0.79511162463E+02 0.  0.
         66    2    3    3    0    0 -0.28651911798E+02 -0.24604068370E+02 -0.20578073129E+03  0.20922715308E+03  0.19999969053E+01 0.  0.
        -13    1    3    3    0    0  0.28651911798E+02  0.24604068370E+02 -0.10579461459E+03  0.11233344947E+03  0.10566000000E+00 0.  1.
         13    1    4    4    0    0 -0.15088833720E+01 -0.98947244793E+00 -0.83506726262E+01  0.85440436622E+01  0.10566000000E+00 0. -1.
        -13    1    4    4    0    0 -0.56228409600E+00 -0.47655728771E+00 -0.43954164115E+01  0.44580398966E+01  0.10566000000E+00 0.  1.
         14    1    4    4    0    0 -0.26580744329E+02 -0.23138038634E+02 -0.19303464225E+03  0.19622506953E+03  0.00000000000E+00 0. -1.
<mgrwt>
<rscale>  0 0.79511162E+02</rscale>
<asrwt>0</asrwt>
<pdfrwt beam="1">  1        2 0.48702749E-01 0.79511162E+02</pdfrwt>
<pdfrwt beam="2">  1       -1 0.76809692E-03 0.79511162E+02</pdfrwt>
<totfact> 0.26415551E+05</totfact>
</mgrwt>
</event>
<event>
 8    1  0.1226832E-024  0.7762360E+02  0.7818608E-02  0.1335934E+00
          2   -1    0    0  501    0  0.00000000000E+00  0.00000000000E+00  0.60044715480E+02  0.60044715534E+02  0.25500000000E-02 0. -1.
         -1   -1    0    0    0  501 -0.00000000000E+00 -0.00000000000E+00 -0.25087233638E+02  0.25087234144E+02  0.50400000000E-02 0.  1.
         24    2    1    2    0    0  0.00000000000E+00  0.00000000000E+00  0.34957481842E+02  0.85131949678E+02  0.77623600272E+02 0.  0.
         66    2    3    3    0    0  0.18990543786E+01 -0.37033367567E+02  0.29959974484E+02  0.47714534418E+02  0.20000006905E+01 0.  0.
        -13    1    3    3    0    0 -0.18990543786E+01  0.37033367567E+02  0.49975073578E+01  0.37417415260E+02  0.10566000000E+00 0.  1.
         13    1    4    4    0    0  0.21301042894E+01 -0.32468674543E+02  0.26083499612E+02  0.41702665225E+02  0.10566000000E+00 0. -1.
        -13    1    4    4    0    0  0.48416026802E-01 -0.23027802967E+01  0.17479076103E+01  0.28933520795E+01  0.10566000000E+00 0.  1.
        -14    1    4    4    0    0 -0.27946593762E+00 -0.22619127273E+01  0.21285672625E+01  0.31185171135E+01  0.00000000000E+00 0.  1.
<mgrwt>
<rscale>  0 0.77623600E+02</rscale>
<asrwt>0</asrwt>
<pdfrwt beam="1">  1        2 0.92376483E-02 0.77623600E+02</pdfrwt>
<pdfrwt beam="2">  1       -1 0.38595746E-02 0.77623600E+02</pdfrwt>
<totfact> 0.16897186E+05</totfact>
</mgrwt>
</event>
<event>
 8    1  0.1226832E-024  0.8262815E+02  0.7818608E-02  0.1321754E+00
         -1   -1    0    0    0  501 -0.00000000000E+00  0.00000000000E+00  0.94395730816E+01  0.94395744271E+01  0.50400000000E-02 0.  1.
          2   -1    0    0  501    0  0.00000000000E+00 -0.00000000000E+00 -0.18081885243E+03  0.18081885245E+03  0.25500000000E-02 0. -1.
         24    2    1    2    0    0  0.00000000000E+00 -0.17763568394E-14 -0.17137927935E+03  0.19025842688E+03  0.82628152630E+02 0.  0.
         66    2    3    3    0    0 -0.37742475546E+02 -0.95521821420E+01 -0.11740417503E+03  0.12370723084E+03  0.20000006230E+01 0.  0.
        -13    1    3    3    0    0  0.37742475546E+02  0.95521821420E+01 -0.53975104316E+02  0.66551196037E+02  0.10566000000E+00 0.  1.
         13    1    4    4    0    0 -0.36041358860E+01 -0.12353230660E+01 -0.12317560852E+02  0.12893769346E+02  0.10566000000E+00 0. -1.
        -13    1    4    4    0    0 -0.22765732270E+02 -0.54187934692E+01 -0.67999789436E+02  0.71914007091E+02  0.10566000000E+00 0.  1.
        -14    1    4    4    0    0 -0.11372607391E+02 -0.28980656067E+01 -0.37086824744E+02  0.38899454401E+02  0.00000000000E+00 0.  1.
<mgrwt>
<rscale>  0 0.82628153E+02</rscale>
<asrwt>0</asrwt>
<pdfrwt beam="1">  1        2 0.27818283E-01 0.82628153E+02</pdfrwt>
<pdfrwt beam="2">  1       -1 0.14522422E-02 0.82628153E+02</pdfrwt>
<totfact> 0.19559250E+05</totfact>
</mgrwt>
</event>
<event>
 8    1  0.1226832E-024  0.8070216E+02  0.7818608E-02  0.1327071E+00
         -1   -1    0    0    0  501 -0.00000000000E+00  0.00000000000E+00  0.13642241264E+03  0.13642241273E+03  0.50400000000E-02 0.  1.
          2   -1    0    0  501    0  0.00000000000E+00 -0.00000000000E+00 -0.11935058326E+02  0.11935058598E+02  0.25500000000E-02 0. -1.
         24    2    1    2    0    0 -0.35527136788E-14  0.71054273576E-14  0.12448735431E+03  0.14835747133E+03  0.80702155582E+02 0.  0.
         66    2    3    3    0    0 -0.86761252905E+01  0.39338322109E+02  0.58879256898E+02  0.71369080343E+02  0.19999999147E+01 0.  0.
        -13    1    3    3    0    0  0.86761252905E+01 -0.39338322109E+02  0.65608097412E+02  0.76988390985E+02  0.10566000000E+00 0.  1.
         13    1    4    4    0    0 -0.34762237408E+00  0.32666994317E+01  0.45406553589E+01  0.56054332228E+01  0.10566000000E+00 0. -1.
        -13    1    4    4    0    0 -0.12211046095E+00  0.13840135379E+01  0.18585850312E+01  0.23229091225E+01  0.10566000000E+00 0.  1.
        -14    1    4    4    0    0 -0.82063924555E+01  0.34687609139E+02  0.52480016508E+02  0.63440737997E+02  0.00000000000E+00 0.  1.
<mgrwt>
<rscale>  0 0.80702156E+02</rscale>
<asrwt>0</asrwt>
<pdfrwt beam="1">  1        2 0.18361627E-02 0.80702156E+02</pdfrwt>
<pdfrwt beam="2">  1       -1 0.20988065E-01 0.80702156E+02</pdfrwt>
<totfact> 0.10804391E+05</totfact>
</mgrwt>
</event>
<event>
 8    1  0.1226832E-024  0.7713511E+02  0.7818608E-02  0.1337384E+00
         -1   -1    0    0    0  501 -0.00000000000E+00  0.00000000000E+00  0.51208542759E+02  0.51208543007E+02  0.50400000000E-02 0.  1.
          2   -1    0    0  501    0  0.00000000000E+00 -0.00000000000E+00 -0.29047030830E+02  0.29047030942E+02  0.25500000000E-02 0. -1.
         24    2    1    2    0    0  0.00000000000E+00 -0.11102230246E-15  0.22161511929E+02  0.80255573949E+02  0.77135105749E+02 0.  0.
         66    2    3    3    0    0 -0.32308909337E+02 -0.78523337831E+00  0.32936962983E+02  0.46187939405E+02  0.20000004901E+01 0.  0.
        -13    1    3    3    0    0  0.32308909337E+02  0.78523337831E+00 -0.10775451055E+02  0.34067634544E+02  0.10566000000E+00 0.  1.
         13    1    4    4    0    0 -0.14961893419E+02 -0.62403172700E+00  0.14948199862E+02  0.21159100015E+02  0.10566000000E+00 0. -1.
        -13    1    4    4    0    0 -0.56658584810E+01 -0.34826752779E+00  0.50796150396E+01  0.76181950345E+01  0.10566000000E+00 0.  1.
        -14    1    4    4    0    0 -0.11681157436E+02  0.18706587648E+00  0.12909148081E+02  0.17410644356E+02  0.00000000000E+00 0.  1.
<mgrwt>
<rscale>  0 0.77135106E+02</rscale>
<asrwt>0</asrwt>
<pdfrwt beam="1">  1        2 0.44687740E-02 0.77135106E+02</pdfrwt>
<pdfrwt beam="2">  1       -1 0.78782373E-02 0.77135106E+02</pdfrwt>
<totfact> 0.14806555E+05</totfact>
</mgrwt>
</event>
<event>
 8    1  0.1226832E-024  0.8234787E+02  0.7818608E-02  0.1322518E+00
          2   -1    0    0  501    0  0.00000000000E+00  0.00000000000E+00  0.24333798935E+02  0.24333799069E+02  0.25500000000E-02 0. -1.
         -1   -1    0    0    0  501 -0.00000000000E+00 -0.00000000000E+00 -0.69668232357E+02  0.69668232539E+02  0.50400000000E-02 0.  1.
         24    2    1    2    0    0 -0.35527136788E-14  0.00000000000E+00 -0.45334433422E+02  0.94002031608E+02  0.82347866352E+02 0.  0.
         66    2    3    3    0    0  0.30968552379E+02  0.26132351075E+02 -0.14501572336E+02  0.43084181143E+02  0.20000138517E+01 0.  0.
        -13    1    3    3    0    0 -0.30968552379E+02 -0.26132351075E+02 -0.30832861086E+02  0.50917850465E+02  0.10566000000E+00 0.  1.
         13    1    4    4    0    0  0.16728653380E+02  0.13827721906E+02 -0.75392464097E+01  0.22976186313E+02  0.10566000000E+00 0. -1.
        -13    1    4    4    0    0  0.70016671296E+01  0.60659423131E+01 -0.41132128071E+01  0.10136502472E+02  0.10566000000E+00 0.  1.
         14    1    4    4    0    0  0.72382318693E+01  0.62386868560E+01 -0.28491131189E+01  0.99714923580E+01  0.00000000000E+00 0. -1.
<mgrwt>
<rscale>  0 0.82347866E+02</rscale>
<asrwt>0</asrwt>
<pdfrwt beam="1">  1        2 0.37436614E-02 0.82347866E+02</pdfrwt>
<pdfrwt beam="2">  1       -1 0.10718190E-01 0.82347866E+02</pdfrwt>
<totfact> 0.11891707E+05</totfact>
</mgrwt>
</event>
<event>
 8    1  0.1226832E-024  0.7806145E+02  0.7818608E-02  0.1334645E+00
          2   -1    0    0  501    0  0.00000000000E+00  0.00000000000E+00  0.92288264688E+01  0.92288268211E+01  0.25500000000E-02 0. -1.
         -1   -1    0    0    0  501 -0.00000000000E+00 -0.00000000000E+00 -0.16506945776E+03  0.16506945783E+03  0.50400000000E-02 0.  1.
         24    2    1    2    0    0 -0.35527136788E-14 -0.71054273576E-14 -0.15584063129E+03  0.17429828465E+03  0.78061448061E+02 0.  0.
         66    2    3    3    0    0  0.17582128555E+02  0.34816690732E+02 -0.78515002956E+02  0.87692296645E+02  0.20000009301E+01 0.  0.
        -13    1    3    3    0    0 -0.17582128555E+02 -0.34816690732E+02 -0.77325628331E+02  0.86605988009E+02  0.10566000000E+00 0.  1.
         13    1    4    4    0    0  0.51725185046E+01  0.10544533792E+02 -0.21851107683E+02  0.24807744992E+02  0.10566000000E+00 0. -1.
        -13    1    4    4    0    0  0.40300470666E+01  0.83777090647E+01 -0.18752170871E+02  0.20930417219E+02  0.10566000000E+00 0.  1.
         14    1    4    4    0    0  0.83795629838E+01  0.15894447875E+02 -0.37911724402E+02  0.41954134435E+02  0.00000000000E+00 0. -1.
<mgrwt>
<rscale>  0 0.78061448E+02</rscale>
<asrwt>0</asrwt>
<pdfrwt beam="1">  1        2 0.14198196E-02 0.78061448E+02</pdfrwt>
<pdfrwt beam="2">  1       -1 0.25395299E-01 0.78061448E+02</pdfrwt>
<totfact> 0.11194952E+05</totfact>
</mgrwt>
</event>
<event>
 8    1  0.1226832E-024  0.8078765E+02  0.7818608E-02  0.1326831E+00
          2   -1    0    0  501    0  0.00000000000E+00  0.00000000000E+00  0.68242334730E+03  0.68242334731E+03  0.25500000000E-02 0. -1.
         -1   -1    0    0    0  501 -0.00000000000E+00 -0.00000000000E+00 -0.23909783459E+01  0.23909836578E+01  0.50400000000E-02 0.  1.
         24    2    1    2    0    0 -0.35527136788E-14  0.00000000000E+00  0.68003236896E+03  0.68481433097E+03  0.80787654170E+02 0.  0.
         66    2    3    3    0    0 -0.23200442463E+02  0.16003700663E+02  0.58521107385E+03  0.58589280583E+03  0.20000002607E+01 0.  0.
        -13    1    3    3    0    0  0.23200442463E+02 -0.16003700663E+02  0.94821295111E+02  0.98921525140E+02  0.10566000000E+00 0.  1.
         13    1    4    4    0    0 -0.51698808139E+01  0.32004955383E+01  0.13139994013E+03  0.13154058791E+03  0.10566000000E+00 0. -1.
        -13    1    4    4    0    0 -0.12717835261E+02  0.86314273493E+01  0.30207358804E+03  0.30246439233E+03  0.10566000000E+00 0.  1.
        -14    1    4    4    0    0 -0.53127263876E+01  0.41717777755E+01  0.15173754568E+03  0.15188782558E+03  0.00000000000E+00 0.  1.
<mgrwt>
<rscale>  0 0.80787654E+02</rscale>
<asrwt>0</asrwt>
<pdfrwt beam="1">  1        2 0.10498809E+00 0.80787654E+02</pdfrwt>
<pdfrwt beam="2">  1       -1 0.36784366E-03 0.80787654E+02</pdfrwt>
<totfact> 0.32416921E+05</totfact>
</mgrwt>
</event>
<event>
 8    1  0.1226832E-024  0.7933906E+02  0.7818608E-02  0.1330938E+00
          2   -1    0    0  501    0  0.00000000000E+00  0.00000000000E+00  0.34028027137E+02  0.34028027233E+02  0.25500000000E-02 0. -1.
         -1   -1    0    0    0  501 -0.00000000000E+00 -0.00000000000E+00 -0.46246339375E+02  0.46246339650E+02  0.50400000000E-02 0.  1.
         24    2    1    2    0    0  0.00000000000E+00  0.00000000000E+00 -0.12218312238E+02  0.80274366883E+02  0.79339062412E+02 0.  0.
         66    2    3    3    0    0 -0.26925807682E+02 -0.13950283898E+02  0.19723412672E+02  0.36230133499E+02  0.20000064363E+01 0.  0.
        -13    1    3    3    0    0  0.26925807682E+02  0.13950283898E+02 -0.31941724909E+02  0.44044233384E+02  0.10566000000E+00 0.  1.
         13    1    4    4    0    0 -0.21035799116E+02 -0.11531023012E+02  0.15529632272E+02  0.28577088352E+02  0.10566000000E+00 0. -1.
        -13    1    4    4    0    0 -0.29738695525E+01 -0.14552855277E+01  0.24605241125E+01  0.41263905567E+01  0.10566000000E+00 0.  1.
        -14    1    4    4    0    0 -0.29161390141E+01 -0.96397535809E+00  0.17332562874E+01  0.35266545902E+01  0.00000000000E+00 0.  1.
<mgrwt>
<rscale>  0 0.79339062E+02</rscale>
<asrwt>0</asrwt>
<pdfrwt beam="1">  1        2 0.52350811E-02 0.79339062E+02</pdfrwt>
<pdfrwt beam="2">  1       -1 0.71148215E-02 0.79339062E+02</pdfrwt>
<totfact> 0.14118230E+05</totfact>
</mgrwt>
</event>
<event>
 8    1  0.1226832E-024  0.7934152E+02  0.7818608E-02  0.1330931E+00
         -1   -1    0    0    0  501 -0.00000000000E+00  0.00000000000E+00  0.17364398294E+03  0.17364398301E+03  0.50400000000E-02 0.  1.
          2   -1    0    0  501    0  0.00000000000E+00 -0.00000000000E+00 -0.90631952174E+01  0.90631955762E+01  0.25500000000E-02 0. -1.
         24    2    1    2    0    0  0.35527136788E-14  0.00000000000E+00  0.16458078772E+03  0.18270717858E+03  0.79341523936E+02 0.  0.
         66    2    3    3    0    0 -0.17840257285E+02 -0.27962201746E+02  0.32333990774E+02  0.46364280080E+02  0.20000003738E+01 0.  0.
        -13    1    3    3    0    0  0.17840257285E+02  0.27962201746E+02  0.13224679694E+03  0.13634289850E+03  0.10566000000E+00 0.  1.
         13    1    4    4    0    0 -0.54339950280E+01 -0.90557079522E+01  0.10207151676E+02  0.14687792817E+02  0.10566000000E+00 0. -1.
        -13    1    4    4    0    0 -0.88065124756E+01 -0.14572742584E+02  0.16939968898E+02  0.24018601098E+02  0.10566000000E+00 0.  1.
         14    1    4    4    0    0 -0.35997497817E+01 -0.43337512099E+01  0.51868701994E+01  0.76578861643E+01  0.00000000000E+00 0. -1.
<mgrwt>
<rscale>  0 0.79341524E+02</rscale>
<asrwt>0</asrwt>
<pdfrwt beam="1">  1        2 0.13943378E-02 0.79341524E+02</pdfrwt>
<pdfrwt beam="2">  1       -1 0.26714459E-01 0.79341524E+02</pdfrwt>
<totfact> 0.10596146E+05</totfact>
</mgrwt>
</event>
<event>
 8    1  0.1226832E-024  0.7910584E+02  0.7818608E-02  0.1331608E+00
         -1   -1    0    0    0  501 -0.00000000000E+00  0.00000000000E+00  0.40527046347E+02  0.40527046660E+02  0.50400000000E-02 0.  1.
          2   -1    0    0  501    0  0.00000000000E+00 -0.00000000000E+00 -0.38602209542E+02  0.38602209626E+02  0.25500000000E-02 0. -1.
         24    2    1    2    0    0 -0.35527136788E-14  0.00000000000E+00  0.19248368051E+01  0.79129256286E+02  0.79105841780E+02 0.  0.
         66    2    3    3    0    0  0.23087314718E+02 -0.32083073694E+02  0.12475202114E+01  0.39596767871E+02  0.20000001469E+01 0.  0.
        -13    1    3    3    0    0 -0.23087314718E+02  0.32083073694E+02  0.67731659368E+00  0.39532488416E+02  0.10566000000E+00 0.  1.
         13    1    4    4    0    0  0.96832712680E+01 -0.12622415736E+02  0.38766040842E+00  0.15913911087E+02  0.10566000000E+00 0. -1.
        -13    1    4    4    0    0  0.66337965278E+01 -0.10297427419E+02  0.98383645083E+00  0.12289156440E+02  0.10566000000E+00 0.  1.
        -14    1    4    4    0    0  0.67702469223E+01 -0.91632305390E+01 -0.12397664784E+00  0.11393700343E+02  0.00000000000E+00 0.  1.
<mgrwt>
<rscale>  0 0.79105842E+02</rscale>
<asrwt>0</asrwt>
<pdfrwt beam="1">  1        2 0.59388014E-02 0.79105842E+02</pdfrwt>
<pdfrwt beam="2">  1       -1 0.62349303E-02 0.79105842E+02</pdfrwt>
<totfact> 0.14598732E+05</totfact>
</mgrwt>
</event>
<event>
 8    1  0.1226832E-024  0.7784515E+02  0.7818608E-02  0.1335280E+00
         -1   -1    0    0    0  501 -0.00000000000E+00  0.00000000000E+00  0.44933811100E+01  0.44933839366E+01  0.50400000000E-02 0.  1.
          2   -1    0    0  501    0  0.00000000000E+00 -0.00000000000E+00 -0.33715507906E+03  0.33715507907E+03  0.25500000000E-02 0. -1.
         24    2    1    2    0    0  0.00000000000E+00 -0.35527136788E-14 -0.33266169795E+03  0.34164846301E+03  0.77845147515E+02 0.  0.
         66    2    3    3    0    0 -0.89589337689E+01 -0.25413379768E+02 -0.28955123552E+03  0.29080925077E+03  0.19999947483E+01 0.  0.
        -13    1    3    3    0    0  0.89589337689E+01  0.25413379768E+02 -0.43110462434E+02  0.50839212236E+02  0.10566000000E+00 0.  1.
         13    1    4    4    0    0 -0.56685845609E+01 -0.16896114239E+02 -0.19461687753E+03  0.19543119431E+03  0.10566000000E+00 0. -1.
        -13    1    4    4    0    0 -0.22348424564E+01 -0.45857315730E+01 -0.55584519255E+02  0.55818217454E+02  0.10566000000E+00 0.  1.
        -14    1    4    4    0    0 -0.10555067517E+01 -0.39315339560E+01 -0.39349838738E+02  0.39559839009E+02  0.00000000000E+00 0.  1.
<mgrwt>
<rscale>  0 0.77845148E+02</rscale>
<asrwt>0</asrwt>
<pdfrwt beam="1">  1        2 0.51869993E-01 0.77845148E+02</pdfrwt>
<pdfrwt beam="2">  1       -1 0.69128988E-03 0.77845148E+02</pdfrwt>
<totfact> 0.28558758E+05</totfact>
</mgrwt>
</event>
<event>
 8    1  0.1226832E-024  0.7927451E+02  0.7818608E-02  0.1331123E+00
         -1   -1    0    0    0  501 -0.00000000000E+00  0.00000000000E+00  0.73971558026E+01  0.73971575196E+01  0.50400000000E-02 0.  1.
          2   -1    0    0  501    0  0.00000000000E+00 -0.00000000000E+00 -0.21239406131E+03  0.21239406133E+03  0.25500000000E-02 0. -1.
         24    2    1    2    0    0  0.88817841970E-15  0.35527136788E-14 -0.20499690551E+03  0.21979121885E+03  0.79274514277E+02 0.  0.
         66    2    3    3    0    0 -0.79086221664E+01 -0.24964528988E+02 -0.18496575106E+03  0.18682104559E+03  0.19999993749E+01 0.  0.
        -13    1    3    3    0    0  0.79086221664E+01  0.24964528988E+02 -0.20031154453E+02  0.32970173262E+02  0.10566000000E+00 0.  1.
         13    1    4    4    0    0 -0.13132132837E+01 -0.49114721152E+01 -0.31560117513E+02  0.31967159225E+02  0.10566000000E+00 0. -1.
        -13    1    4    4    0    0 -0.42433456052E+00 -0.81145981112E+00 -0.65189711191E+01  0.65838192056E+01  0.10566000000E+00 0.  1.
         14    1    4    4    0    0 -0.61710743222E+01 -0.19241597062E+02 -0.14688666243E+03  0.14827006716E+03  0.00000000000E+00 0. -1.
<mgrwt>
<rscale>  0 0.79274514E+02</rscale>
<asrwt>0</asrwt>
<pdfrwt beam="1">  1        2 0.32676005E-01 0.79274514E+02</pdfrwt>
<pdfrwt beam="2">  1       -1 0.11380243E-02 0.79274514E+02</pdfrwt>
<totfact> 0.23073770E+05</totfact>
</mgrwt>
</event>
<event>
 8    1  0.1226832E-024  0.7985759E+02  0.7818608E-02  0.1329456E+00
         -1   -1    0    0    0  501 -0.00000000000E+00  0.00000000000E+00  0.93997631992E+01  0.93997645504E+01  0.50400000000E-02 0.  1.
          2   -1    0    0  501    0  0.00000000000E+00 -0.00000000000E+00 -0.16961155352E+03  0.16961155354E+03  0.25500000000E-02 0. -1.
         24    2    1    2    0    0  0.00000000000E+00  0.00000000000E+00 -0.16021179032E+03  0.17901131809E+03  0.79857587281E+02 0.  0.
         66    2    3    3    0    0 -0.31171387515E+02  0.20018886491E+02 -0.11339664227E+03  0.11931139793E+03  0.19999955078E+01 0.  0.
        -13    1    3    3    0    0  0.31171387515E+02 -0.20018886491E+02 -0.46815148050E+02  0.59699920159E+02  0.10566000000E+00 0.  1.
         13    1    4    4    0    0 -0.11636579956E+02  0.84998677650E+01 -0.44130114692E+02  0.46423441620E+02  0.10566000000E+00 0. -1.
        -13    1    4    4    0    0 -0.57556714447E+01  0.33577523901E+01 -0.21363114845E+02  0.22378473916E+02  0.10566000000E+00 0.  1.
         14    1    4    4    0    0 -0.13779136114E+02  0.81612663362E+01 -0.47903412733E+02  0.50509482394E+02  0.00000000000E+00 0. -1.
<mgrwt>
<rscale>  0 0.79857587E+02</rscale>
<asrwt>0</asrwt>
<pdfrwt beam="1">  1        2 0.26094083E-01 0.79857587E+02</pdfrwt>
<pdfrwt beam="2">  1       -1 0.14461177E-02 0.79857587E+02</pdfrwt>
<totfact> 0.20951988E+05</totfact>
</mgrwt>
</event>
<event>
 8    1  0.1226832E-024  0.8156521E+02  0.7818608E-02  0.1324667E+00
         -1   -1    0    0    0  501 -0.00000000000E+00  0.00000000000E+00  0.18373290098E+02  0.18373290790E+02  0.50400000000E-02 0.  1.
          2   -1    0    0  501    0  0.00000000000E+00 -0.00000000000E+00 -0.90523850076E+02  0.90523850112E+02  0.25500000000E-02 0. -1.
         24    2    1    2    0    0  0.00000000000E+00  0.11102230246E-15 -0.72150559977E+02  0.10889714090E+03  0.81565213121E+02 0.  0.
         66    2    3    3    0    0  0.21584673722E+02  0.95611526078E+00 -0.82237917156E+02  0.85052262312E+02  0.20000025029E+01 0.  0.
        -13    1    3    3    0    0 -0.21584673722E+02 -0.95611526078E+00  0.10087357179E+02  0.23844878590E+02  0.10566000000E+00 0.  1.
         13    1    4    4    0    0  0.17053382399E+02  0.10597124757E+01 -0.65879475281E+02  0.68059218840E+02  0.10566000000E+00 0. -1.
        -13    1    4    4    0    0  0.27330615837E+01  0.14668722472E+00 -0.10977948738E+02  0.11314489176E+02  0.10566000000E+00 0.  1.
        -14    1    4    4    0    0  0.17982297399E+01 -0.25028443960E+00 -0.53804931366E+01  0.56785542959E+01  0.00000000000E+00 0.  1.
<mgrwt>
<rscale>  0 0.81565213E+02</rscale>
<asrwt>0</asrwt>
<pdfrwt beam="1">  1        2 0.13926746E-01 0.81565213E+02</pdfrwt>
<pdfrwt beam="2">  1       -1 0.28266601E-02 0.81565213E+02</pdfrwt>
<totfact> 0.16371964E+05</totfact>
</mgrwt>
</event>
<event>
 8    1  0.1337120E-024  0.7416543E+02  0.7818608E-02  0.1346475E+00
          2   -1    0    0  501    0  0.00000000000E+00  0.00000000000E+00  0.93175828458E+03  0.93175828458E+03  0.25500000000E-02 0. -1.
         -1   -1    0    0    0  501 -0.00000000000E+00 -0.00000000000E+00 -0.14758372645E+01  0.14758458704E+01  0.50400000000E-02 0.  1.
         24    2    1    2    0    0 -0.35527136788E-14  0.00000000000E+00  0.93028244731E+03  0.93323413045E+03  0.74165426316E+02 0.  0.
         66    2    3    3    0    0  0.26151542559E+02 -0.95292308837E+01  0.77329351100E+03  0.77379684903E+03  0.19999972210E+01 0.  0.
        -13    1    3    3    0    0 -0.26151542559E+02  0.95292308837E+01  0.15698893631E+03  0.15943728142E+03  0.10566000000E+00 0.  1.
         13    1    4    4    0    0  0.16490390042E+02 -0.54124003030E+01  0.48521300935E+03  0.48552332864E+03  0.10566000000E+00 0. -1.
        -13    1    4    4    0    0  0.61586244834E+01 -0.21374495875E+01  0.17408669863E+03  0.17420874591E+03  0.10566000000E+00 0.  1.
        -14    1    4    4    0    0  0.35025280338E+01 -0.19793809932E+01  0.11399380302E+03  0.11406477448E+03  0.00000000000E+00 0.  1.
<mgrwt>
<rscale>  0 0.74165426E+02</rscale>
<asrwt>0</asrwt>
<pdfrwt beam="1">  1        2 0.14334768E+00 0.74165426E+02</pdfrwt>
<pdfrwt beam="2">  1       -1 0.22705216E-03 0.74165426E+02</pdfrwt>
<totfact> 0.42654679E+05</totfact>
</mgrwt>
</event>
<event>
 8    1  0.1226832E-024  0.7187781E+02  0.7818608E-02  0.1353821E+00
          2   -1    0    0  501    0  0.00000000000E+00  0.00000000000E+00  0.35699603554E+02  0.35699603645E+02  0.25500000000E-02 0. -1.
         -1   -1    0    0    0  501 -0.00000000000E+00 -0.00000000000E+00 -0.36179808403E+02  0.36179808755E+02  0.50400000000E-02 0.  1.
         24    2    1    2    0    0  0.00000000000E+00  0.00000000000E+00 -0.48020484968E+00  0.71879412399E+02  0.71877808329E+02 0.  0.
         66    2    3    3    0    0 -0.11932728383E+02  0.29162087760E+02  0.16987479054E+02  0.35852359867E+02  0.19999735719E+01 0.  0.
        -13    1    3    3    0    0  0.11932728383E+02 -0.29162087760E+02 -0.17467683904E+02  0.36027052532E+02  0.10566000000E+00 0.  1.
         13    1    4    4    0    0 -0.68630319911E+01  0.14749804096E+02  0.93743669182E+01  0.18776257565E+02  0.10566000000E+00 0. -1.
        -13    1    4    4    0    0 -0.12495441915E+01  0.35209194991E+01  0.16646159169E+01  0.40914966689E+01  0.10566000000E+00 0.  1.
         14    1    4    4    0    0 -0.38201521999E+01  0.10891364164E+02  0.59484962188E+01  0.12984605633E+02  0.00000000000E+00 0. -1.
<mgrwt>
<rscale>  0 0.71877808E+02</rscale>
<asrwt>0</asrwt>
<pdfrwt beam="1">  1        2 0.54922467E-02 0.71877808E+02</pdfrwt>
<pdfrwt beam="2">  1       -1 0.55661244E-02 0.71877808E+02</pdfrwt>
<totfact> 0.18703248E+05</totfact>
</mgrwt>
</event>
<event>
 8    1  0.1226832E-024  0.8372147E+02  0.7818608E-02  0.1318810E+00
          2   -1    0    0  501    0  0.00000000000E+00  0.00000000000E+00  0.21090549029E+02  0.21090549184E+02  0.25500000000E-02 0. -1.
         -1   -1    0    0    0  501 -0.00000000000E+00 -0.00000000000E+00 -0.83085605906E+02  0.83085606059E+02  0.50400000000E-02 0.  1.
         24    2    1    2    0    0 -0.35527136788E-14  0.44408920985E-15 -0.61995056876E+02  0.10417615524E+03  0.83721468238E+02 0.  0.
         66    2    3    3    0    0  0.23771878299E+02  0.23589456306E+01  0.11722215115E+02  0.26684773939E+02  0.20000026620E+01 0.  0.
        -13    1    3    3    0    0 -0.23771878299E+02 -0.23589456306E+01 -0.73717271991E+02  0.77491381303E+02  0.10566000000E+00 0.  1.
         13    1    4    4    0    0  0.20698449138E+01  0.25799857154E+00  0.71200271988E+00  0.22065659153E+01  0.10566000000E+00 0. -1.
        -13    1    4    4    0    0  0.76331080860E+01 -0.22879824065E-01  0.38687860543E+01  0.85582435177E+01  0.10566000000E+00 0.  1.
         14    1    4    4    0    0  0.14068925299E+02  0.21238268831E+01  0.71414263407E+01  0.15919964506E+02  0.00000000000E+00 0. -1.
<mgrwt>
<rscale>  0 0.83721468E+02</rscale>
<asrwt>0</asrwt>
<pdfrwt beam="1">  1        2 0.32446999E-02 0.83721468E+02</pdfrwt>
<pdfrwt beam="2">  1       -1 0.12782401E-01 0.83721468E+02</pdfrwt>
<totfact> 0.11011399E+05</totfact>
</mgrwt>
</event>
<event>
 8    1  0.1226832E-024  0.8051152E+02  0.7818608E-02  0.1327606E+00
         -1   -1    0    0    0  501 -0.00000000000E+00  0.00000000000E+00  0.23886142253E+02  0.23886142785E+02  0.50400000000E-02 0.  1.
          2   -1    0    0  501    0  0.00000000000E+00 -0.00000000000E+00 -0.67843773399E+02  0.67843773447E+02  0.25500000000E-02 0. -1.
         24    2    1    2    0    0  0.00000000000E+00  0.10408340856E-15 -0.43957631146E+02  0.91729916232E+02  0.80511515922E+02 0.  0.
         66    2    3    3    0    0  0.36926201591E+02 -0.44463302913E-01 -0.40185225320E+02  0.54611342032E+02  0.20000009043E+01 0.  0.
        -13    1    3    3    0    0 -0.36926201591E+02  0.44463302913E-01 -0.37724058257E+01  0.37118574200E+02  0.10566000000E+00 0.  1.
         13    1    4    4    0    0  0.13577769406E+02  0.61948353844E+00 -0.15036025408E+02  0.20269010978E+02  0.10566000000E+00 0.  1.
        -13    1    4    4    0    0  0.12479848871E+02 -0.81095512783E+00 -0.13954998278E+02  0.18739194674E+02  0.10566000000E+00 0. -1.
         14    1    4    4    0    0  0.10868583314E+02  0.14700828648E+00 -0.11194201634E+02  0.15603136380E+02  0.00000000000E+00 0. -1.
<mgrwt>
<rscale>  0 0.80511516E+02</rscale>
<asrwt>0</asrwt>
<pdfrwt beam="1">  1        2 0.10437504E-01 0.80511516E+02</pdfrwt>
<pdfrwt beam="2">  1       -1 0.36747912E-02 0.80511516E+02</pdfrwt>
<totfact> 0.15749840E+05</totfact>
</mgrwt>
</event>
<event>
 8    1  0.1226832E-024  0.7960584E+02  0.7818608E-02  0.1330174E+00
          2   -1    0    0  501    0  0.00000000000E+00  0.00000000000E+00  0.52356130730E+03  0.52356130731E+03  0.25500000000E-02 0. -1.
         -1   -1    0    0    0  501 -0.00000000000E+00 -0.00000000000E+00 -0.30259518717E+01  0.30259560689E+01  0.50400000000E-02 0.  1.
         24    2    1    2    0    0  0.17763568394E-14  0.00000000000E+00  0.52053535543E+03  0.52658726338E+03  0.79605839598E+02 0.  0.
         66    2    3    3    0    0 -0.14926120789E+02  0.33843308675E+02  0.35722422886E+03  0.35913967799E+03  0.20000008754E+01 0.  0.
        -13    1    3    3    0    0  0.14926120789E+02 -0.33843308675E+02  0.16331112658E+03  0.16744758539E+03  0.10566000000E+00 0.  1.
         13    1    4    4    0    0 -0.83466953229E+00  0.21779868842E+01  0.21370694871E+02  0.21497861833E+02  0.10566000000E+00 0. -1.
        -13    1    4    4    0    0 -0.61641208856E+01  0.14683509655E+02  0.14641953140E+03  0.14728303426E+03  0.10566000000E+00 0.  1.
        -14    1    4    4    0    0 -0.79273303708E+01  0.16981812136E+02  0.18943400259E+03  0.19035878190E+03  0.00000000000E+00 0.  1.
<mgrwt>
<rscale>  0 0.79605840E+02</rscale>
<asrwt>0</asrwt>
<pdfrwt beam="1">  1        2 0.80547967E-01 0.79605840E+02</pdfrwt>
<pdfrwt beam="2">  1       -1 0.46553096E-03 0.79605840E+02</pdfrwt>
<totfact> 0.31295264E+05</totfact>
</mgrwt>
</event>
<event>
 8    1  0.1226832E-024  0.7936503E+02  0.7818608E-02  0.1330863E+00
          2   -1    0    0  501    0  0.00000000000E+00  0.00000000000E+00  0.29762584229E+03  0.29762584230E+03  0.25500000000E-02 0. -1.
         -1   -1    0    0    0  501 -0.00000000000E+00 -0.00000000000E+00 -0.52908766238E+01  0.52908790243E+01  0.50400000000E-02 0.  1.
         24    2    1    2    0    0  0.00000000000E+00  0.00000000000E+00  0.29233496566E+03  0.30291672132E+03  0.79365029499E+02 0.  0.
         66    2    3    3    0    0  0.98165957728E+01  0.11466061862E+02  0.28622933266E+03  0.28663402973E+03  0.19999990780E+01 0.  0.
        -13    1    3    3    0    0 -0.98165957728E+01 -0.11466061862E+02  0.61056330057E+01  0.16282691596E+02  0.10566000000E+00 0.  1.
         13    1    4    4    0    0  0.56615411718E+01  0.54901308853E+01  0.14981844563E+03  0.15002590577E+03  0.10566000000E+00 0.  1.
        -13    1    4    4    0    0  0.11561623474E+01  0.22920667498E+01  0.52641224279E+02  0.52703889220E+02  0.10566000000E+00 0. -1.
        -14    1    4    4    0    0  0.29988922536E+01  0.36838642264E+01  0.83769662745E+02  0.83904234737E+02  0.00000000000E+00 0.  1.
<mgrwt>
<rscale>  0 0.79365029E+02</rscale>
<asrwt>0</asrwt>
<pdfrwt beam="1">  1        2 0.45788602E-01 0.79365029E+02</pdfrwt>
<pdfrwt beam="2">  1       -1 0.81398102E-03 0.79365029E+02</pdfrwt>
<totfact> 0.25957795E+05</totfact>
</mgrwt>
</event>
<event>
 8    1  0.1226832E-024  0.7829772E+02  0.7818608E-02  0.1333953E+00
          2   -1    0    0  501    0  0.00000000000E+00  0.00000000000E+00  0.31901036709E+02  0.31901036811E+02  0.25500000000E-02 0. -1.
         -1   -1    0    0    0  501 -0.00000000000E+00 -0.00000000000E+00 -0.48043370570E+02  0.48043370834E+02  0.50400000000E-02 0.  1.
         24    2    1    2    0    0  0.00000000000E+00  0.00000000000E+00 -0.16142333861E+02  0.79944407645E+02  0.78297722644E+02 0.  0.
         66    2    3    3    0    0 -0.13477466916E+02  0.67151238267E+01  0.28792466506E+02  0.32553665401E+02  0.20000002663E+01 0.  0.
        -13    1    3    3    0    0  0.13477466916E+02 -0.67151238267E+01 -0.44934800367E+02  0.47390742245E+02  0.10566000000E+00 0.  1.
         13    1    4    4    0    0 -0.15163558167E+01  0.13304882381E+01  0.39449935631E+01  0.44321182479E+01  0.10566000000E+00 0. -1.
        -13    1    4    4    0    0 -0.44879679985E+01  0.19406982941E+01  0.10468692885E+02  0.11554776561E+02  0.10566000000E+00 0.  1.
         14    1    4    4    0    0 -0.74731431005E+01  0.34439372944E+01  0.14378780058E+02  0.16566770592E+02  0.00000000000E+00 0. -1.
<mgrwt>
<rscale>  0 0.78297723E+02</rscale>
<asrwt>0</asrwt>
<pdfrwt beam="1">  1        2 0.49078518E-02 0.78297723E+02</pdfrwt>
<pdfrwt beam="2">  1       -1 0.73912879E-02 0.78297723E+02</pdfrwt>
<totfact> 0.14461822E+05</totfact>
</mgrwt>
</event>
<event>
 8    1  0.1226832E-024  0.8038111E+02  0.7818608E-02  0.1327973E+00
         -1   -1    0    0    0  501 -0.00000000000E+00  0.00000000000E+00  0.24346660504E+01  0.24346712670E+01  0.50400000000E-02 0.  1.
          2   -1    0    0  501    0  0.00000000000E+00 -0.00000000000E+00 -0.66344994727E+03  0.66344994728E+03  0.25500000000E-02 0. -1.
         24    2    1    2    0    0  0.88817841970E-15  0.35527136788E-14 -0.66101528122E+03  0.66588461855E+03  0.80381112240E+02 0.  0.
         66    2    3    3    0    0 -0.66714785961E+01  0.20666363620E+02 -0.61061948505E+03  0.61100880741E+03  0.19999992359E+01 0.  0.
        -13    1    3    3    0    0  0.66714785961E+01 -0.20666363620E+02 -0.50395796176E+02  0.54875811139E+02  0.10566000000E+00 0.  1.
         13    1    4    4    0    0 -0.12081211432E+01  0.44934845909E+01 -0.11885841800E+03  0.11894950884E+03  0.10566000000E+00 0. -1.
        -13    1    4    4    0    0 -0.14205789245E+01  0.56908606415E+01 -0.15558538894E+03  0.15569594842E+03  0.10566000000E+00 0. -1.
         14    1    4    4    0    0 -0.40427785284E+01  0.10482018387E+02 -0.33617567811E+03  0.33636335014E+03  0.00000000000E+00 0. -1.
<mgrwt>
<rscale>  0 0.80381112E+02</rscale>
<asrwt>0</asrwt>
<pdfrwt beam="1">  1        2 0.10206908E+00 0.80381112E+02</pdfrwt>
<pdfrwt beam="2">  1       -1 0.37456494E-03 0.80381112E+02</pdfrwt>
<totfact> 0.32620968E+05</totfact>
</mgrwt>
</event>
<event>
 8    1  0.1226832E-024  0.8027115E+02  0.7818608E-02  0.1328284E+00
         -1   -1    0    0    0  501 -0.00000000000E+00  0.00000000000E+00  0.16386635816E+02  0.16386636591E+02  0.50400000000E-02 0.  1.
          2   -1    0    0  501    0  0.00000000000E+00 -0.00000000000E+00 -0.98303544069E+02  0.98303544102E+02  0.25500000000E-02 0. -1.
         24    2    1    2    0    0  0.00000000000E+00  0.00000000000E+00 -0.81916908253E+02  0.11469018069E+03  0.80271151042E+02 0.  0.
         66    2    3    3    0    0  0.16116954743E+02  0.25699695670E+01 -0.93334648809E+02  0.94771924314E+02  0.19999990329E+01 0.  0.
        -13    1    3    3    0    0 -0.16116954743E+02 -0.25699695670E+01  0.11417740556E+02  0.19918256379E+02  0.10566000000E+00 0.  1.
         13    1    4    4    0    0  0.10538299767E+02  0.94249003043E+00 -0.56701143546E+02  0.57679934925E+02  0.10566000000E+00 0. -1.
        -13    1    4    4    0    0  0.32840583466E+01  0.90674032238E+00 -0.21310664897E+02  0.21581538862E+02  0.10566000000E+00 0.  1.
         14    1    4    4    0    0  0.22945966295E+01  0.72073921420E+00 -0.15322840365E+02  0.15510450528E+02  0.00000000000E+00 0. -1.
<mgrwt>
<rscale>  0 0.80271151E+02</rscale>
<asrwt>0</asrwt>
<pdfrwt beam="1">  1        2 0.15123622E-01 0.80271151E+02</pdfrwt>
<pdfrwt beam="2">  1       -1 0.25210210E-02 0.80271151E+02</pdfrwt>
<totfact> 0.17482146E+05</totfact>
</mgrwt>
</event>
<event>
 8    1  0.1402402E-024  0.8275129E+02  0.7818608E-02  0.1321420E+00
         -1   -1    0    0    0  501 -0.00000000000E+00  0.00000000000E+00  0.12432188786E+02  0.12432189808E+02  0.50400000000E-02 0.  1.
          2   -1    0    0  501    0  0.00000000000E+00 -0.00000000000E+00 -0.13770254694E+03  0.13770254696E+03  0.25500000000E-02 0. -1.
         24    2    1    2    0    0  0.00000000000E+00  0.35527136788E-14 -0.12527035815E+03  0.15013473677E+03  0.82751293364E+02 0.  0.
         66    2    3    3    0    0 -0.60701010142E+01  0.31114665133E+02 -0.11084335680E+03  0.11530489260E+03  0.19999998859E+01 0.  0.
        -13    1    3    3    0    0  0.60701010142E+01 -0.31114665133E+02 -0.14427001357E+02  0.34829844169E+02  0.10566000000E+00 0.  1.
         13    1    4    4    0    0 -0.19473268257E+01  0.10587086407E+02 -0.37276214873E+02  0.38799559787E+02  0.10566000000E+00 0. -1.
        -13    1    4    4    0    0 -0.39212929021E+01  0.18121460528E+02 -0.63409891557E+02  0.66065039022E+02  0.10566000000E+00 0.  1.
        -14    1    4    4    0    0 -0.20148128632E+00  0.24061181970E+01 -0.10157250366E+02  0.10440293793E+02  0.00000000000E+00 0.  1.
<mgrwt>
<rscale>  0 0.82751293E+02</rscale>
<asrwt>0</asrwt>
<pdfrwt beam="1">  1        2 0.21185006E-01 0.82751293E+02</pdfrwt>
<pdfrwt beam="2">  1       -1 0.19126446E-02 0.82751293E+02</pdfrwt>
<totfact> 0.17813759E+05</totfact>
</mgrwt>
</event>
<event>
 8    1  0.1226832E-024  0.7992481E+02  0.7818608E-02  0.1329265E+00
         -1   -1    0    0    0  501 -0.00000000000E+00  0.00000000000E+00  0.12696598153E+01  0.12696698186E+01  0.50400000000E-02 0.  1.
          2   -1    0    0  501    0  0.00000000000E+00 -0.00000000000E+00 -0.12578073149E+04  0.12578073149E+04  0.25500000000E-02 0. -1.
         24    2    1    2    0    0  0.00000000000E+00  0.00000000000E+00 -0.12565376551E+04  0.12590769847E+04  0.79924807218E+02 0.  0.
         66    2    3    3    0    0 -0.11973815980E+02  0.12406040618E+02 -0.11961520992E+04  0.11962780306E+04  0.20000004165E+01 0.  0.
        -13    1    3    3    0    0  0.11973815980E+02 -0.12406040618E+02 -0.60385555845E+02  0.62798954065E+02  0.10566000000E+00 0.  1.
         13    1    4    4    0    0 -0.46365412098E+01  0.49851909719E+01 -0.51490073024E+03  0.51494574745E+03  0.10566000000E+00 0. -1.
        -13    1    4    4    0    0 -0.26539024436E+01  0.34378609409E+01 -0.29505383873E+03  0.29508581972E+03  0.10566000000E+00 0.  1.
         14    1    4    4    0    0 -0.46833723267E+01  0.39829887052E+01 -0.38619753024E+03  0.38624646346E+03  0.00000000000E+00 0. -1.
<mgrwt>
<rscale>  0 0.79924807E+02</rscale>
<asrwt>0</asrwt>
<pdfrwt beam="1">  1        2 0.19350782E+00 0.79924807E+02</pdfrwt>
<pdfrwt beam="2">  1       -1 0.19533406E-03 0.79924807E+02</pdfrwt>
<totfact> 0.34903342E+05</totfact>
</mgrwt>
</event>
<event>
 8    1  0.1226832E-024  0.7968018E+02  0.7818608E-02  0.1329961E+00
         -1   -1    0    0    0  501 -0.00000000000E+00  0.00000000000E+00  0.41265132180E+02  0.41265132487E+02  0.50400000000E-02 0.  1.
          2   -1    0    0  501    0  0.00000000000E+00 -0.00000000000E+00 -0.38464262939E+02  0.38464263024E+02  0.25500000000E-02 0. -1.
         24    2    1    2    0    0  0.00000000000E+00  0.00000000000E+00  0.28008692403E+01  0.79729395511E+02  0.79680183484E+02 0.  0.
         66    2    3    3    0    0 -0.17083756064E+02 -0.21484160427E+02 -0.27457512241E+02  0.38875941747E+02  0.19999994286E+01 0.  0.
        -13    1    3    3    0    0  0.17083756064E+02  0.21484160427E+02  0.30258381481E+02  0.40853453764E+02  0.10566000000E+00 0.  1.
         13    1    4    4    0    0 -0.88147294945E+01 -0.11218661750E+02 -0.15319503431E+02  0.20934568946E+02  0.10566000000E+00 0. -1.
        -13    1    4    4    0    0 -0.36012377950E+00 -0.33478014730E+00 -0.63333958469E+00  0.80873354618E+00  0.10566000000E+00 0. -1.
         14    1    4    4    0    0 -0.79089027904E+01 -0.99307185299E+01 -0.11504669225E+02  0.17132639255E+02  0.00000000000E+00 0. -1.
<mgrwt>
<rscale>  0 0.79680183E+02</rscale>
<asrwt>0</asrwt>
<pdfrwt beam="1">  1        2 0.59175789E-02 0.79680183E+02</pdfrwt>
<pdfrwt beam="2">  1       -1 0.63484819E-02 0.79680183E+02</pdfrwt>
<totfact> 0.14299120E+05</totfact>
</mgrwt>
</event>
<event>
 8    1  0.1226832E-024  0.7501108E+02  0.7818608E-02  0.1343837E+00
         -1   -1    0    0    0  501 -0.00000000000E+00  0.00000000000E+00  0.17145533000E+02  0.17145533741E+02  0.50400000000E-02 0.  1.
          2   -1    0    0  501    0  0.00000000000E+00 -0.00000000000E+00 -0.82042671760E+02  0.82042671800E+02  0.25500000000E-02 0. -1.
         24    2    1    2    0    0  0.00000000000E+00 -0.22204460493E-15 -0.64897138760E+02  0.99188205541E+02  0.75011075843E+02 0.  0.
         66    2    3    3    0    0  0.25647005242E+02  0.18458972479E+01 -0.68526990716E+02  0.73219701468E+02  0.20000029619E+01 0.  0.
        -13    1    3    3    0    0 -0.25647005242E+02 -0.18458972479E+01  0.36298519563E+01  0.25968504073E+02  0.10566000000E+00 0.  1.
         13    1    4    4    0    0  0.21320824158E+01  0.43080460943E+00 -0.50212679211E+01  0.54731767385E+01  0.10566000000E+00 0. -1.
        -13    1    4    4    0    0  0.11305600279E+02  0.13208537090E+00 -0.29499628634E+02  0.31592298077E+02  0.10566000000E+00 0.  1.
         14    1    4    4    0    0  0.12209322547E+02  0.12830072676E+01 -0.34006094162E+02  0.36154226652E+02  0.00000000000E+00 0. -1.
<mgrwt>
<rscale>  0 0.75011076E+02</rscale>
<asrwt>0</asrwt>
<pdfrwt beam="1">  1        2 0.12621949E-01 0.75011076E+02</pdfrwt>
<pdfrwt beam="2">  1       -1 0.26377744E-02 0.75011076E+02</pdfrwt>
<totfact> 0.19972848E+05</totfact>
</mgrwt>
</event>
<event>
 8    1  0.1226832E-024  0.7953122E+02  0.7818608E-02  0.1330387E+00
         -1   -1    0    0    0  501 -0.00000000000E+00  0.00000000000E+00  0.38088363985E+01  0.38088397331E+01  0.50400000000E-02 0.  1.
          2   -1    0    0  501    0  0.00000000000E+00 -0.00000000000E+00 -0.41516693196E+03  0.41516693196E+03  0.25500000000E-02 0. -1.
         24    2    1    2    0    0 -0.35527136788E-14  0.00000000000E+00 -0.41135809556E+03  0.41897577170E+03  0.79531217068E+02 0.  0.
         66    2    3    3    0    0 -0.26719330919E+02 -0.23971549549E+02 -0.29563521666E+03  0.29781326224E+03  0.20000016121E+01 0.  0.
        -13    1    3    3    0    0  0.26719330919E+02  0.23971549549E+02 -0.11572287890E+03  0.12116250946E+03  0.10566000000E+00 0.  1.
         13    1    4    4    0    0 -0.16168793736E+02 -0.13432736354E+02 -0.17620872228E+03  0.17745814512E+03  0.10566000000E+00 0. -1.
        -13    1    4    4    0    0 -0.50689472333E+01 -0.53836382351E+01 -0.58221066173E+02  0.58688853261E+02  0.10566000000E+00 0.  1.
         14    1    4    4    0    0 -0.54815899506E+01 -0.51551749596E+01 -0.61205428200E+02  0.61666263859E+02  0.00000000000E+00 0. -1.
<mgrwt>
<rscale>  0 0.79531217E+02</rscale>
<asrwt>0</asrwt>
<pdfrwt beam="1">  1        2 0.63871800E-01 0.79531217E+02</pdfrwt>
<pdfrwt beam="2">  1       -1 0.58597542E-03 0.79531217E+02</pdfrwt>
<totfact> 0.29064025E+05</totfact>
</mgrwt>
</event>
<event>
 8    1  0.1226832E-024  0.8051175E+02  0.7818608E-02  0.1327605E+00
         -1   -1    0    0    0  501 -0.00000000000E+00  0.00000000000E+00  0.11110619908E+02  0.11110621051E+02  0.50400000000E-02 0.  1.
          2   -1    0    0  501    0  0.00000000000E+00 -0.00000000000E+00 -0.14585462178E+03  0.14585462180E+03  0.25500000000E-02 0. -1.
         24    2    1    2    0    0  0.00000000000E+00  0.00000000000E+00 -0.13474400187E+03  0.15696524285E+03  0.80511747115E+02 0.  0.
         66    2    3    3    0    0 -0.61900644579E+01 -0.26417083013E+02 -0.12532498213E+03  0.12824402648E+03  0.20000022033E+01 0.  0.
        -13    1    3    3    0    0  0.61900644579E+01  0.26417083013E+02 -0.94190197369E+01  0.28721216370E+02  0.10566000000E+00 0.  1.
         13    1    4    4    0    0 -0.31658671573E+01 -0.13840357965E+02 -0.68769113351E+02  0.70219515369E+02  0.10566000000E+00 0. -1.
        -13    1    4    4    0    0 -0.15423927693E+01 -0.44539723263E+01 -0.20850896269E+02  0.21377274948E+02  0.10566000000E+00 0.  1.
        -14    1    4    4    0    0 -0.14818045313E+01 -0.81227527219E+01 -0.35704972510E+02  0.36647236163E+02  0.00000000000E+00 0.  1.
<mgrwt>
<rscale>  0 0.80511747E+02</rscale>
<asrwt>0</asrwt>
<pdfrwt beam="1">  1        2 0.22439171E-01 0.80511747E+02</pdfrwt>
<pdfrwt beam="2">  1       -1 0.17093263E-02 0.80511747E+02</pdfrwt>
<totfact> 0.19517348E+05</totfact>
</mgrwt>
</event>
<event>
 8    1  0.1226832E-024  0.7974678E+02  0.7818608E-02  0.1329772E+00
          2   -1    0    0  501    0  0.00000000000E+00  0.00000000000E+00  0.25503955061E+03  0.25503955063E+03  0.25500000000E-02 0. -1.
         -1   -1    0    0    0  501 -0.00000000000E+00 -0.00000000000E+00 -0.62338834406E+01  0.62338854780E+01  0.50400000000E-02 0.  1.
         24    2    1    2    0    0 -0.71054273576E-14  0.00000000000E+00  0.24880566717E+03  0.26127343610E+03  0.79746776715E+02 0.  0.
         66    2    3    3    0    0 -0.35422138323E+02  0.17925443765E+02  0.13575087637E+03  0.14145087435E+03  0.20000004875E+01 0.  0.
        -13    1    3    3    0    0  0.35422138323E+02 -0.17925443765E+02  0.11305479080E+03  0.11982256175E+03  0.10566000000E+00 0.  1.
         13    1    4    4    0    0 -0.16080263997E+02  0.76829691215E+01  0.59154320822E+02  0.61780642120E+02  0.10566000000E+00 0. -1.
        -13    1    4    4    0    0 -0.38018238961E+01  0.21063627872E+01  0.13682654685E+02  0.14356769566E+02  0.10566000000E+00 0.  1.
         14    1    4    4    0    0 -0.15540050430E+02  0.81361118561E+01  0.62913900862E+02  0.65313462664E+02  0.00000000000E+00 0. -1.
<mgrwt>
<rscale>  0 0.79746777E+02</rscale>
<asrwt>0</asrwt>
<pdfrwt beam="1">  1        2 0.39236854E-01 0.79746777E+02</pdfrwt>
<pdfrwt beam="2">  1       -1 0.95905916E-03 0.79746777E+02</pdfrwt>
<totfact> 0.24240859E+05</totfact>
</mgrwt>
</event>
<event>
 8    1  0.1226832E-024  0.7967138E+02  0.7818608E-02  0.1329987E+00
         -1   -1    0    0    0  501 -0.00000000000E+00  0.00000000000E+00  0.52609524838E+01  0.52609548979E+01  0.50400000000E-02 0.  1.
          2   -1    0    0  501    0  0.00000000000E+00 -0.00000000000E+00 -0.30163395107E+03  0.30163395108E+03  0.25500000000E-02 0. -1.
         24    2    1    2    0    0  0.00000000000E+00  0.00000000000E+00 -0.29637299859E+03  0.30689490598E+03  0.79671381466E+02 0.  0.
         66    2    3    3    0    0  0.31910705991E+02 -0.18221400116E+02 -0.20727509261E+03  0.21051668960E+03  0.20000011384E+01 0.  0.
        -13    1    3    3    0    0 -0.31910705991E+02  0.18221400116E+02 -0.89097905975E+02  0.96378216378E+02  0.10566000000E+00 0.  1.
         13    1    4    4    0    0  0.45440687169E+00 -0.19609030620E+00 -0.32671569203E+01  0.33061178731E+01  0.10566000000E+00 0.  1.
        -13    1    4    4    0    0  0.10215318691E+02 -0.54387356145E+01 -0.61454255875E+02  0.62534544935E+02  0.10566000000E+00 0.  1.
         14    1    4    4    0    0  0.21240980428E+02 -0.12586574195E+02 -0.14255367982E+03  0.14467602679E+03  0.00000000000E+00 0. -1.
<mgrwt>
<rscale>  0 0.79671381E+02</rscale>
<asrwt>0</asrwt>
<pdfrwt beam="1">  1        2 0.46405210E-01 0.79671381E+02</pdfrwt>
<pdfrwt beam="2">  1       -1 0.80937773E-03 0.79671381E+02</pdfrwt>
<totfact> 0.25821755E+05</totfact>
</mgrwt>
</event>
<event>
 8    1  0.1226832E-024  0.8186042E+02  0.7818608E-02  0.1323853E+00
          2   -1    0    0  501    0  0.00000000000E+00  0.00000000000E+00  0.22097722967E+03  0.22097722969E+03  0.25500000000E-02 0. -1.
         -1   -1    0    0    0  501 -0.00000000000E+00 -0.00000000000E+00 -0.75812413749E+01  0.75812430502E+01  0.50400000000E-02 0.  1.
         24    2    1    2    0    0  0.00000000000E+00  0.71054273576E-14  0.21339598830E+03  0.22855847274E+03  0.81860415578E+02 0.  0.
         66    2    3    3    0    0 -0.21105224941E+01 -0.36432936878E+02  0.15835508785E+03  0.16251814354E+03  0.19999840459E+01 0.  0.
        -13    1    3    3    0    0  0.21105224941E+01  0.36432936878E+02  0.55040900448E+02  0.66040329200E+02  0.10566000000E+00 0.  1.
         13    1    4    4    0    0 -0.12299770841E+01 -0.13928536820E+02  0.59582430091E+02  0.61201259147E+02  0.10566000000E+00 0. -1.
        -13    1    4    4    0    0 -0.63122423390E+00 -0.62011029449E+01  0.25300712835E+02  0.26057424197E+02  0.10566000000E+00 0.  1.
         14    1    4    4    0    0 -0.24932117601E+00 -0.16303297113E+02  0.73471944923E+02  0.75259460193E+02  0.00000000000E+00 0. -1.
<mgrwt>
<rscale>  0 0.81860416E+02</rscale>
<asrwt>0</asrwt>
<pdfrwt beam="1">  1        2 0.33996499E-01 0.81860416E+02</pdfrwt>
<pdfrwt beam="2">  1       -1 0.11663449E-02 0.81860416E+02</pdfrwt>
<totfact> 0.21499145E+05</totfact>
</mgrwt>
</event>
<event>
 8    1  0.1226832E-024  0.7878592E+02  0.7818608E-02  0.1332533E+00
          2   -1    0    0  501    0  0.00000000000E+00  0.00000000000E+00  0.29724923593E+03  0.29724923594E+03  0.25500000000E-02 0. -1.
         -1   -1    0    0    0  501 -0.00000000000E+00 -0.00000000000E+00 -0.52205519550E+01  0.52205543879E+01  0.50400000000E-02 0.  1.
         24    2    1    2    0    0  0.00000000000E+00 -0.71054273576E-14  0.29202868398E+03  0.30246979033E+03  0.78785923853E+02 0.  0.
         66    2    3    3    0    0 -0.78430308154E+01  0.37881208275E+02  0.11807948066E+03  0.12427092510E+03  0.19999995756E+01 0.  0.
        -13    1    3    3    0    0  0.78430308154E+01 -0.37881208275E+02  0.17394920332E+03  0.17819886523E+03  0.10566000000E+00 0.  1.
         13    1    4    4    0    0 -0.35004460555E+01  0.18169032940E+02  0.59250192707E+02  0.62072243237E+02  0.10566000000E+00 0. -1.
        -13    1    4    4    0    0 -0.39343989282E+01  0.18315316106E+02  0.54213251589E+02  0.57358679473E+02  0.10566000000E+00 0.  1.
         14    1    4    4    0    0 -0.40818583175E+00  0.13968592286E+01  0.46160363662E+01  0.48400023876E+01  0.00000000000E+00 0. -1.
<mgrwt>
<rscale>  0 0.78785924E+02</rscale>
<asrwt>0</asrwt>
<pdfrwt beam="1">  1        2 0.45730652E-01 0.78785924E+02</pdfrwt>
<pdfrwt beam="2">  1       -1 0.80316202E-03 0.78785924E+02</pdfrwt>
<totfact> 0.26448371E+05</totfact>
</mgrwt>
</event>
<event>
 8    1  0.1226832E-024  0.8741629E+02  0.7818608E-02  0.1309232E+00
         -1   -1    0    0    0  501 -0.00000000000E+00  0.00000000000E+00  0.42745371285E+01  0.42745400998E+01  0.50400000000E-02 0.  1.
          2   -1    0    0  501    0  0.00000000000E+00 -0.00000000000E+00 -0.44692589476E+03  0.44692589476E+03  0.25500000000E-02 0. -1.
         24    2    1    2    0    0  0.35527136788E-14  0.00000000000E+00 -0.44265135763E+03  0.45120043486E+03  0.87416291452E+02 0.  0.
         66    2    3    3    0    0 -0.27498170850E+02  0.33728547613E+02 -0.24118534636E+03  0.24508801607E+03  0.19999985085E+01 0.  0.
        -13    1    3    3    0    0  0.27498170850E+02 -0.33728547613E+02 -0.20146601126E+03  0.20611241880E+03  0.10566000000E+00 0.  1.
         13    1    4    4    0    0 -0.84581533388E+01  0.10902338844E+02 -0.78707778566E+02  0.79908240633E+02  0.10566000000E+00 0. -1.
        -13    1    4    4    0    0 -0.30426265794E+01  0.42672284126E+01 -0.26916859646E+02  0.27422532926E+02  0.10566000000E+00 0.  1.
         14    1    4    4    0    0 -0.15997390932E+02  0.18558980356E+02 -0.13556070815E+03  0.13775724251E+03  0.00000000000E+00 0. -1.
<mgrwt>
<rscale>  0 0.87416291E+02</rscale>
<asrwt>0</asrwt>
<pdfrwt beam="1">  1        2 0.68757793E-01 0.87416291E+02</pdfrwt>
<pdfrwt beam="2">  1       -1 0.65762168E-03 0.87416291E+02</pdfrwt>
<totfact> 0.23266391E+05</totfact>
</mgrwt>
</event>
<event>
 8    1  0.1226832E-024  0.7334573E+02  0.7818608E-02  0.1349072E+00
          2   -1    0    0  501    0  0.00000000000E+00  0.00000000000E+00  0.90986879569E+02  0.90986879605E+02  0.25500000000E-02 0. -1.
         -1   -1    0    0    0  501 -0.00000000000E+00 -0.00000000000E+00 -0.14781242743E+02  0.14781243602E+02  0.50400000000E-02 0.  1.
         24    2    1    2    0    0  0.00000000000E+00  0.00000000000E+00  0.76205636827E+02  0.10576812321E+03  0.73345734726E+02 0.  0.
         66    2    3    3    0    0  0.11482932935E+02 -0.22530401824E+02  0.76377117380E+02  0.80479443432E+02  0.20000001715E+01 0.  0.
        -13    1    3    3    0    0 -0.11482932935E+02  0.22530401824E+02 -0.17148055386E+00  0.25288679775E+02  0.10566000000E+00 0.  1.
         13    1    4    4    0    0  0.38803965416E+01 -0.82599454320E+01  0.25345037234E+02  0.26938193189E+02  0.10566000000E+00 0. -1.
        -13    1    4    4    0    0  0.51582153975E+00 -0.97657725707E+00  0.28231871468E+01  0.30333685403E+01  0.10566000000E+00 0.  1.
         14    1    4    4    0    0  0.70867148540E+01 -0.13293879134E+02  0.48208892999E+02  0.50507881703E+02  0.00000000000E+00 0. -1.
<mgrwt>
<rscale>  0 0.73345735E+02</rscale>
<asrwt>0</asrwt>
<pdfrwt beam="1">  1        2 0.13997981E-01 0.73345735E+02</pdfrwt>
<pdfrwt beam="2">  1       -1 0.22740374E-02 0.73345735E+02</pdfrwt>
<totfact> 0.21778116E+05</totfact>
</mgrwt>
</event>
<event>
 8    1  0.1226832E-024  0.8000007E+02  0.7818608E-02  0.1329051E+00
          2   -1    0    0  501    0  0.00000000000E+00  0.00000000000E+00  0.27892291569E+02  0.27892291686E+02  0.25500000000E-02 0. -1.
         -1   -1    0    0    0  501 -0.00000000000E+00 -0.00000000000E+00 -0.57363617206E+02  0.57363617427E+02  0.50400000000E-02 0.  1.
         24    2    1    2    0    0  0.17763568394E-14  0.00000000000E+00 -0.29471325636E+02  0.85255909113E+02  0.80000068775E+02 0.  0.
         66    2    3    3    0    0 -0.87491569242E+01  0.22584784676E+02  0.19146652349E+02  0.30938884221E+02  0.20000037400E+01 0.  0.
        -13    1    3    3    0    0  0.87491569242E+01 -0.22584784676E+02 -0.48617977985E+02  0.54317024892E+02  0.10566000000E+00 0.  1.
         13    1    4    4    0    0 -0.35623648026E+01  0.93934866638E+01  0.89755308990E+01  0.13472169597E+02  0.10566000000E+00 0. -1.
        -13    1    4    4    0    0 -0.16754150579E+01  0.45231777502E+01  0.29975633286E+01  0.56800266303E+01  0.10566000000E+00 0.  1.
         14    1    4    4    0    0 -0.35113770637E+01  0.86681202617E+01  0.71735581211E+01  0.11786687994E+02  0.00000000000E+00 0. -1.
<mgrwt>
<rscale>  0 0.80000069E+02</rscale>
<asrwt>0</asrwt>
<pdfrwt beam="1">  1        2 0.42911218E-02 0.80000069E+02</pdfrwt>
<pdfrwt beam="2">  1       -1 0.88251719E-02 0.80000069E+02</pdfrwt>
<totfact> 0.13263441E+05</totfact>
</mgrwt>
</event>
<event>
 8    1  0.1226832E-024  0.8075630E+02  0.7818608E-02  0.1326919E+00
         -1   -1    0    0    0  501 -0.00000000000E+00  0.00000000000E+00  0.40179070496E+02  0.40179070812E+02  0.50400000000E-02 0.  1.
          2   -1    0    0  501    0  0.00000000000E+00 -0.00000000000E+00 -0.40578217339E+02  0.40578217420E+02  0.25500000000E-02 0. -1.
         24    2    1    2    0    0  0.00000000000E+00  0.71054273576E-14 -0.39914684361E+00  0.80757288232E+02  0.80756301824E+02 0.  0.
         66    2    3    3    0    0 -0.98010828747E+01  0.38459630532E+02  0.70932455676E+01  0.40367295482E+02  0.20000014220E+01 0.  0.
        -13    1    3    3    0    0  0.98010828747E+01 -0.38459630532E+02 -0.74923924112E+01  0.40389992749E+02  0.10566000000E+00 0.  1.
         13    1    4    4    0    0 -0.71065403076E+01  0.28898149564E+02  0.50273832560E+01  0.30180982585E+02  0.10566000000E+00 0. -1.
        -13    1    4    4    0    0 -0.26062980836E+01  0.84926047659E+01  0.16504748705E+01  0.90361693623E+01  0.10566000000E+00 0.  1.
        -14    1    4    4    0    0 -0.88244483519E-01  0.10688762023E+01  0.41538744104E+00  0.11501435349E+01  0.00000000000E+00 0.  1.
<mgrwt>
<rscale>  0 0.80756302E+02</rscale>
<asrwt>0</asrwt>
<pdfrwt beam="1">  1        2 0.62428027E-02 0.80756302E+02</pdfrwt>
<pdfrwt beam="2">  1       -1 0.61813955E-02 0.80756302E+02</pdfrwt>
<totfact> 0.13930276E+05</totfact>
</mgrwt>
</event>
<event>
 8    1  0.1226832E-024  0.8055824E+02  0.7818608E-02  0.1327475E+00
         -1   -1    0    0    0  501 -0.00000000000E+00  0.00000000000E+00  0.75125003316E+01  0.75125020223E+01  0.50400000000E-02 0.  1.
          2   -1    0    0  501    0  0.00000000000E+00 -0.00000000000E+00 -0.21596102192E+03  0.21596102194E+03  0.25500000000E-02 0. -1.
         24    2    1    2    0    0  0.00000000000E+00 -0.35527136788E-14 -0.20844852159E+03  0.22347352396E+03  0.80558238297E+02 0.  0.
         66    2    3    3    0    0  0.13846450514E+02  0.31891800672E+02 -0.16056769177E+03  0.16430092751E+03  0.19999997921E+01 0.  0.
        -13    1    3    3    0    0 -0.13846450514E+02 -0.31891800672E+02 -0.47880829823E+02  0.59172596450E+02  0.10566000000E+00 0.  1.
         13    1    4    4    0    0  0.47643192572E+01  0.11239600056E+02 -0.57403428176E+02  0.58687239480E+02  0.10566000000E+00 0. -1.
        -13    1    4    4    0    0  0.13970441178E+01  0.42602054777E+01 -0.18565729164E+02  0.19099700165E+02  0.10566000000E+00 0.  1.
        -14    1    4    4    0    0  0.76850871394E+01  0.16391995139E+02 -0.84598534427E+02  0.86513987864E+02  0.00000000000E+00 0.  1.
<mgrwt>
<rscale>  0 0.80558238E+02</rscale>
<asrwt>0</asrwt>
<pdfrwt beam="1">  1        2 0.33224768E-01 0.80558238E+02</pdfrwt>
<pdfrwt beam="2">  1       -1 0.11557696E-02 0.80558238E+02</pdfrwt>
<totfact> 0.22247205E+05</totfact>
</mgrwt>
</event>
<event>
 8    1  0.1226832E-024  0.7961941E+02  0.7818608E-02  0.1330135E+00
          2   -1    0    0  501    0  0.00000000000E+00  0.00000000000E+00  0.63122663545E+02  0.63122663597E+02  0.25500000000E-02 0. -1.
         -1   -1    0    0    0  501 -0.00000000000E+00 -0.00000000000E+00 -0.25106872278E+02  0.25106872784E+02  0.50400000000E-02 0.  1.
         24    2    1    2    0    0 -0.17763568394E-14  0.00000000000E+00  0.38015791267E+02  0.88229536381E+02  0.79619411605E+02 0.  0.
         66    2    3    3    0    0 -0.15224896129E+02  0.24876568273E+02  0.49004575566E+02  0.57062155106E+02  0.20000019250E+01 0.  0.
        -13    1    3    3    0    0  0.15224896129E+02 -0.24876568273E+02 -0.10988784299E+02  0.31167381275E+02  0.10566000000E+00 0.  1.
         13    1    4    4    0    0 -0.20425613475E+01  0.36827248763E+01  0.61027919419E+01  0.74155075952E+01  0.10566000000E+00 0. -1.
        -13    1    4    4    0    0 -0.45334490103E+01  0.65972385893E+01  0.13026955459E+02  0.15290142233E+02  0.10566000000E+00 0.  1.
         14    1    4    4    0    0 -0.86488857710E+01  0.14596604807E+02  0.29874828166E+02  0.34356505278E+02  0.00000000000E+00 0. -1.
<mgrwt>
<rscale>  0 0.79619412E+02</rscale>
<asrwt>0</asrwt>
<pdfrwt beam="1">  1        2 0.97111788E-02 0.79619412E+02</pdfrwt>
<pdfrwt beam="2">  1       -1 0.38625959E-02 0.79619412E+02</pdfrwt>
<totfact> 0.15956586E+05</totfact>
</mgrwt>
</event>
<event>
 8    1  0.1226832E-024  0.8014332E+02  0.7818608E-02  0.1328645E+00
         -1   -1    0    0    0  501 -0.00000000000E+00  0.00000000000E+00  0.20776692108E+02  0.20776692720E+02  0.50400000000E-02 0.  1.
          2   -1    0    0  501    0  0.00000000000E+00 -0.00000000000E+00 -0.77285537321E+02  0.77285537363E+02  0.25500000000E-02 0. -1.
         24    2    1    2    0    0 -0.71054273576E-14  0.88817841970E-15 -0.56508845212E+02  0.98062230083E+02  0.80143317760E+02 0.  0.
         66    2    3    3    0    0 -0.21042114812E+02  0.63140031990E+01 -0.69241008588E+02  0.72670176593E+02  0.20000159054E+01 0.  0.
        -13    1    3    3    0    0  0.21042114812E+02 -0.63140031990E+01  0.12732163376E+02  0.25392053489E+02  0.10566000000E+00 0.  1.
         13    1    4    4    0    0 -0.14818389349E+02  0.48715753094E+01 -0.48696498331E+02  0.51133912647E+02  0.10566000000E+00 0. -1.
        -13    1    4    4    0    0 -0.39072515600E+01  0.13447220774E+01 -0.12637112495E+02  0.13295964368E+02  0.10566000000E+00 0.  1.
         14    1    4    4    0    0 -0.23164739031E+01  0.97705812175E-01 -0.79073977621E+01  0.82402995781E+01  0.00000000000E+00 0. -1.
<mgrwt>
<rscale>  0 0.80143318E+02</rscale>
<asrwt>0</asrwt>
<pdfrwt beam="1">  1        2 0.11890083E-01 0.80143318E+02</pdfrwt>
<pdfrwt beam="2">  1       -1 0.31964143E-02 0.80143318E+02</pdfrwt>
<totfact> 0.16469471E+05</totfact>
</mgrwt>
</event>
<event>
 8    1  0.1226832E-024  0.8139262E+02  0.7818608E-02  0.1325145E+00
         -1   -1    0    0    0  501 -0.00000000000E+00  0.00000000000E+00  0.89390385452E+00  0.89391806265E+00  0.50400000000E-02 0.  1.
          2   -1    0    0  501    0  0.00000000000E+00 -0.00000000000E+00 -0.18527456341E+04  0.18527456341E+04  0.25500000000E-02 0. -1.
         24    2    1    2    0    0  0.00000000000E+00  0.00000000000E+00 -0.18518517302E+04  0.18536395521E+04  0.81392619659E+02 0.  0.
         66    2    3    3    0    0  0.12804572791E+01  0.18728562434E+02 -0.17481772791E+04  0.17482792105E+04  0.19999771846E+01 0.  0.
        -13    1    3    3    0    0 -0.12804572791E+01 -0.18728562434E+02 -0.10367445111E+03  0.10536034168E+03  0.10566000000E+00 0.  1.
         13    1    4    4    0    0  0.43856768094E+00  0.47667377902E+01 -0.44438590658E+03  0.44441170018E+03  0.10566000000E+00 0. -1.
        -13    1    4    4    0    0  0.45089186356E+00  0.12941930997E+02 -0.12276716725E+04  0.12277399739E+04  0.10566000000E+00 0.  1.
        -14    1    4    4    0    0  0.39099773459E+00  0.10198936470E+01 -0.76119700028E+02  0.76127536376E+02  0.00000000000E+00 0.  1.
<mgrwt>
<rscale>  0 0.81392620E+02</rscale>
<asrwt>0</asrwt>
<pdfrwt beam="1">  1        2 0.28503472E+00 0.81392620E+02</pdfrwt>
<pdfrwt beam="2">  1       -1 0.13752625E-03 0.81392620E+02</pdfrwt>
<totfact> 0.28294493E+05</totfact>
</mgrwt>
</event>
<event>
 8    1  0.1226832E-024  0.7841497E+02  0.7818608E-02  0.1333611E+00
          2   -1    0    0  501    0  0.00000000000E+00  0.00000000000E+00  0.19383434479E+02  0.19383434647E+02  0.25500000000E-02 0. -1.
         -1   -1    0    0    0  501 -0.00000000000E+00 -0.00000000000E+00 -0.79306212172E+02  0.79306212332E+02  0.50400000000E-02 0.  1.
         24    2    1    2    0    0  0.71054273576E-14 -0.17763568394E-14 -0.59922777693E+02  0.98689646979E+02  0.78414967540E+02 0.  0.
         66    2    3    3    0    0  0.33396743485E+02 -0.10560323020E+02 -0.78803855997E+01  0.35957799911E+02  0.19999998834E+01 0.  0.
        -13    1    3    3    0    0 -0.33396743485E+02  0.10560323020E+02 -0.52042392093E+02  0.62731847068E+02  0.10566000000E+00 0.  1.
         13    1    4    4    0    0  0.59797523271E+01 -0.21338923939E+01 -0.13965422666E+01  0.65017250773E+01  0.10566000000E+00 0. -1.
        -13    1    4    4    0    0  0.14747473149E+02 -0.45054181655E+01 -0.26145188349E+01  0.15640768200E+02  0.10566000000E+00 0.  1.
        -14    1    4    4    0    0  0.12669518009E+02 -0.39210124608E+01 -0.38693244982E+01  0.13815306634E+02  0.00000000000E+00 0.  1.
<mgrwt>
<rscale>  0 0.78414968E+02</rscale>
<asrwt>0</asrwt>
<pdfrwt beam="1">  1        2 0.29820669E-02 0.78414968E+02</pdfrwt>
<pdfrwt beam="2">  1       -1 0.12200956E-01 0.78414968E+02</pdfrwt>
<totfact> 0.13067065E+05</totfact>
</mgrwt>
</event>
<event>
 8    1  0.1226832E-024  0.8072104E+02  0.7818608E-02  0.1327018E+00
         -1   -1    0    0    0  501 -0.00000000000E+00  0.00000000000E+00  0.67259875332E+02  0.67259875521E+02  0.50400000000E-02 0.  1.
          2   -1    0    0  501    0  0.00000000000E+00 -0.00000000000E+00 -0.24219067940E+02  0.24219068075E+02  0.25500000000E-02 0. -1.
         24    2    1    2    0    0  0.00000000000E+00 -0.35527136788E-14  0.43040807392E+02  0.91478943596E+02  0.80721038277E+02 0.  0.
         66    2    3    3    0    0  0.32398647088E+02 -0.18102238679E+02  0.36291916823E+01  0.37343465440E+02  0.20000001248E+01 0.  0.
        -13    1    3    3    0    0 -0.32398647088E+02  0.18102238679E+02  0.39411615710E+02  0.54135478156E+02  0.10566000000E+00 0.  1.
         13    1    4    4    0    0  0.42205523492E+01 -0.29004414635E+01  0.51934371599E+00  0.51484468285E+01  0.10566000000E+00 0.  1.
        -13    1    4    4    0    0  0.62607316805E+01 -0.30652582241E+01  0.11423666319E+01  0.70646114340E+01  0.10566000000E+00 0. -1.
         14    1    4    4    0    0  0.21917363058E+02 -0.12136538991E+02  0.19674813344E+01  0.25130407177E+02  0.00000000000E+00 0. -1.
<mgrwt>
<rscale>  0 0.80721038E+02</rscale>
<asrwt>0</asrwt>
<pdfrwt beam="1">  1        2 0.37260105E-02 0.80721038E+02</pdfrwt>
<pdfrwt beam="2">  1       -1 0.10347673E-01 0.80721038E+02</pdfrwt>
<totfact> 0.12574791E+05</totfact>
</mgrwt>
</event>
<event>
 8    1  0.1226832E-024  0.7829184E+02  0.7818608E-02  0.1333970E+00
         -1   -1    0    0    0  501 -0.00000000000E+00  0.00000000000E+00  0.36046678253E+01  0.36046713487E+01  0.50400000000E-02 0.  1.
          2   -1    0    0  501    0  0.00000000000E+00 -0.00000000000E+00 -0.42511613224E+03  0.42511613225E+03  0.25500000000E-02 0. -1.
         24    2    1    2    0    0  0.00000000000E+00  0.00000000000E+00 -0.42151146442E+03  0.42872080360E+03  0.78291843786E+02 0.  0.
         66    2    3    3    0    0 -0.34437511980E+02 -0.11506505731E+02 -0.29063425247E+03  0.29290034242E+03  0.19999928981E+01 0.  0.
        -13    1    3    3    0    0  0.34437511980E+02  0.11506505731E+02 -0.13087721194E+03  0.13582046118E+03  0.10566000000E+00 0.  1.
         13    1    4    4    0    0 -0.80068483791E+01 -0.23027750639E+01 -0.68933632061E+02  0.69435359775E+02  0.10566000000E+00 0. -1.
        -13    1    4    4    0    0 -0.22430364588E+02 -0.79655663319E+01 -0.18434873419E+03  0.18587909636E+03  0.10566000000E+00 0.  1.
        -14    1    4    4    0    0 -0.40002990124E+01 -0.12381643356E+01 -0.37351886221E+02  0.37585886279E+02  0.00000000000E+00 0.  1.
<mgrwt>
<rscale>  0 0.78291844E+02</rscale>
<asrwt>0</asrwt>
<pdfrwt beam="1">  1        2 0.65402442E-01 0.78291844E+02</pdfrwt>
<pdfrwt beam="2">  1       -1 0.55456489E-03 0.78291844E+02</pdfrwt>
<totfact> 0.30526573E+05</totfact>
</mgrwt>
</event>
<event>
 8    1  0.1226832E-024  0.7859907E+02  0.7818608E-02  0.1333075E+00
          2   -1    0    0  501    0  0.00000000000E+00  0.00000000000E+00  0.69596233828E+03  0.69596233828E+03  0.25500000000E-02 0. -1.
         -1   -1    0    0    0  501 -0.00000000000E+00 -0.00000000000E+00 -0.22191593413E+01  0.22191650646E+01  0.50400000000E-02 0.  1.
         24    2    1    2    0    0  0.00000000000E+00 -0.17763568394E-14  0.69374317894E+03  0.69818150335E+03  0.78599066757E+02 0.  0.
         66    2    3    3    0    0  0.33034310803E+02  0.82882179492E+01  0.52081960053E+03  0.52193583565E+03  0.19999996538E+01 0.  0.
        -13    1    3    3    0    0 -0.33034310803E+02 -0.82882179492E+01  0.17292357841E+03  0.17624566770E+03  0.10566000000E+00 0.  1.
         13    1    4    4    0    0  0.59429497335E+01  0.16687372256E+01  0.91771469411E+02  0.91978894847E+02  0.10566000000E+00 0. -1.
        -13    1    4    4    0    0  0.17753847292E+02  0.51380765119E+01  0.28706232748E+03  0.28765672241E+03  0.10566000000E+00 0.  1.
         14    1    4    4    0    0  0.93375137768E+01  0.14814042116E+01  0.14198580364E+03  0.14230021840E+03  0.00000000000E+00 0. -1.
<mgrwt>
<rscale>  0 0.78599067E+02</rscale>
<asrwt>0</asrwt>
<pdfrwt beam="1">  1        2 0.10707119E+00 0.78599067E+02</pdfrwt>
<pdfrwt beam="2">  1       -1 0.34140937E-03 0.78599067E+02</pdfrwt>
<totfact> 0.34975891E+05</totfact>
</mgrwt>
</event>
<event>
 8    1  0.1226832E-024  0.7802697E+02  0.7818608E-02  0.1334746E+00
         -1   -1    0    0    0  501 -0.00000000000E+00  0.00000000000E+00  0.97703825690E+01  0.97703838689E+01  0.50400000000E-02 0.  1.
          2   -1    0    0  501    0  0.00000000000E+00 -0.00000000000E+00 -0.15578221790E+03  0.15578221792E+03  0.25500000000E-02 0. -1.
         24    2    1    2    0    0 -0.35527136788E-14  0.00000000000E+00 -0.14601183533E+03  0.16555260179E+03  0.78026969073E+02 0.  0.
         66    2    3    3    0    0 -0.31922170094E+02  0.12569784306E+02 -0.11235013941E+03  0.11748863028E+03  0.19999997554E+01 0.  0.
        -13    1    3    3    0    0  0.31922170094E+02 -0.12569784306E+02 -0.33661695927E+02  0.48063971514E+02  0.10566000000E+00 0.  1.
         13    1    4    4    0    0 -0.12969358926E+02  0.46144000284E+01 -0.46902345747E+02  0.48880856776E+02  0.10566000000E+00 0. -1.
        -13    1    4    4    0    0 -0.57493872847E+01  0.19283850587E+01 -0.18775872122E+02  0.19731159648E+02  0.10566000000E+00 0.  1.
         14    1    4    4    0    0 -0.13203423883E+02  0.60269992190E+01 -0.46671921536E+02  0.48876613853E+02  0.00000000000E+00 0. -1.
<mgrwt>
<rscale>  0 0.78026969E+02</rscale>
<asrwt>0</asrwt>
<pdfrwt beam="1">  1        2 0.23966493E-01 0.78026969E+02</pdfrwt>
<pdfrwt beam="2">  1       -1 0.15031360E-02 0.78026969E+02</pdfrwt>
<totfact> 0.21663067E+05</totfact>
</mgrwt>
</event>
<event>
 8    1  0.1226832E-024  0.7883651E+02  0.7818608E-02  0.1332386E+00
          2   -1    0    0  501    0  0.00000000000E+00  0.00000000000E+00  0.87007188471E+03  0.87007188471E+03  0.25500000000E-02 0. -1.
         -1   -1    0    0    0  501 -0.00000000000E+00 -0.00000000000E+00 -0.17858246260E+01  0.17858317379E+01  0.50400000000E-02 0.  1.
         24    2    1    2    0    0  0.00000000000E+00 -0.55511151231E-16  0.86828606008E+03  0.87185771645E+03  0.78836511846E+02 0.  0.
         66    2    3    3    0    0  0.13351916474E+02 -0.38828194877E+00  0.84425936955E+03  0.84436740073E+03  0.19999768290E+01 0.  0.
        -13    1    3    3    0    0 -0.13351916474E+02  0.38828194877E+00  0.24026690536E+02  0.27490315723E+02  0.10566000000E+00 0.  1.
         13    1    4    4    0    0  0.68906845851E+01 -0.10426201692E+01  0.44360154172E+03  0.44365629441E+03  0.10566000000E+00 0. -1.
        -13    1    4    4    0    0  0.45617354705E+01  0.25529525276E+00  0.29607258575E+03  0.29610785502E+03  0.10566000000E+00 0.  1.
        -14    1    4    4    0    0  0.18994964184E+01  0.39904296768E+00  0.10458524207E+03  0.10460325130E+03  0.00000000000E+00 0.  1.
<mgrwt>
<rscale>  0 0.78836512E+02</rscale>
<asrwt>0</asrwt>
<pdfrwt beam="1">  1        2 0.13385757E+00 0.78836512E+02</pdfrwt>
<pdfrwt beam="2">  1       -1 0.27474207E-03 0.78836512E+02</pdfrwt>
<totfact> 0.36154004E+05</totfact>
</mgrwt>
</event>
<event>
 8    1  0.1226832E-024  0.8010017E+02  0.7818608E-02  0.1328767E+00
         -1   -1    0    0    0  501 -0.00000000000E+00  0.00000000000E+00  0.73041909931E+02  0.73041910105E+02  0.50400000000E-02 0.  1.
          2   -1    0    0  501    0  0.00000000000E+00 -0.00000000000E+00 -0.21960120924E+02  0.21960121072E+02  0.25500000000E-02 0. -1.
         24    2    1    2    0    0  0.71054273576E-14  0.35527136788E-14  0.51081789007E+02  0.95002031177E+02  0.80100167038E+02 0.  0.
         66    2    3    3    0    0  0.35269982469E+02  0.18056392238E+02  0.18847592425E+02  0.43923077025E+02  0.19999977792E+01 0.  0.
        -13    1    3    3    0    0 -0.35269982469E+02 -0.18056392238E+02  0.32234196582E+02  0.51078954152E+02  0.10566000000E+00 0.  1.
         13    1    4    4    0    0  0.16777676340E+02  0.84293972516E+01  0.89542865800E+01  0.20802297315E+02  0.10566000000E+00 0. -1.
        -13    1    4    4    0    0  0.62829072439E+01  0.40161301498E+01  0.37092318135E+01  0.83290929577E+01  0.10566000000E+00 0.  1.
        -14    1    4    4    0    0  0.12209398885E+02  0.56108648361E+01  0.61840740317E+01  0.14791686752E+02  0.00000000000E+00 0.  1.
<mgrwt>
<rscale>  0 0.80100167E+02</rscale>
<asrwt>0</asrwt>
<pdfrwt beam="1">  1        2 0.33784801E-02 0.80100167E+02</pdfrwt>
<pdfrwt beam="2">  1       -1 0.11237217E-01 0.80100167E+02</pdfrwt>
<totfact> 0.12605911E+05</totfact>
</mgrwt>
</event>
<event>
 8    1  0.1226832E-024  0.8020171E+02  0.7818608E-02  0.1328480E+00
         -1   -1    0    0    0  501 -0.00000000000E+00  0.00000000000E+00  0.11024501391E+02  0.11024502544E+02  0.50400000000E-02 0.  1.
          2   -1    0    0  501    0  0.00000000000E+00 -0.00000000000E+00 -0.14586404641E+03  0.14586404644E+03  0.25500000000E-02 0. -1.
         24    2    1    2    0    0  0.00000000000E+00  0.00000000000E+00 -0.13483954502E+03  0.15688854898E+03  0.80201707582E+02 0.  0.
         66    2    3    3    0    0 -0.10182343232E+02  0.21660499726E+02 -0.13034023339E+03  0.13253465132E+03  0.19999994537E+01 0.  0.
        -13    1    3    3    0    0  0.10182343232E+02 -0.21660499726E+02 -0.44993116321E+01  0.24353897661E+02  0.10566000000E+00 0.  1.
         13    1    4    4    0    0 -0.80423611663E+01  0.17186708930E+02 -0.10582524474E+03  0.10751305096E+03  0.10566000000E+00 0. -1.
        -13    1    4    4    0    0 -0.72000841727E-02  0.25037276871E+00 -0.16461976907E+01  0.16684931037E+01  0.10566000000E+00 0. -1.
         14    1    4    4    0    0 -0.21327819817E+01  0.42234180279E+01 -0.22868790955E+02  0.23353107257E+02  0.00000000000E+00 0. -1.
<mgrwt>
<rscale>  0 0.80201708E+02</rscale>
<asrwt>0</asrwt>
<pdfrwt beam="1">  1        2 0.22440621E-01 0.80201708E+02</pdfrwt>
<pdfrwt beam="2">  1       -1 0.16960773E-02 0.80201708E+02</pdfrwt>
<totfact> 0.19718814E+05</totfact>
</mgrwt>
</event>
<event>
 8    1  0.1226832E-024  0.8343915E+02  0.7818608E-02  0.1319566E+00
          2   -1    0    0  501    0  0.00000000000E+00  0.00000000000E+00  0.13160703597E+04  0.13160703597E+04  0.25500000000E-02 0. -1.
         -1   -1    0    0    0  501 -0.00000000000E+00 -0.00000000000E+00 -0.13225104380E+01  0.13225200415E+01  0.50400000000E-02 0.  1.
         24    2    1    2    0    0  0.00000000000E+00 -0.88817841970E-15  0.13147478493E+04  0.13173928798E+04  0.83439154245E+02 0.  0.
         66    2    3    3    0    0 -0.21099564091E+02 -0.77320745404E+01  0.12122770579E+04  0.12124869655E+04  0.19999992424E+01 0.  0.
        -13    1    3    3    0    0  0.21099564091E+02  0.77320745404E+01  0.10247079142E+03  0.10490591423E+03  0.10566000000E+00 0.  1.
         13    1    4    4    0    0 -0.74874629974E+01 -0.29030218779E+01  0.39165480493E+03  0.39173714022E+03  0.10566000000E+00 0. -1.
        -13    1    4    4    0    0 -0.66087849742E+01 -0.28032157465E+01  0.40372588101E+03  0.40378971287E+03  0.10566000000E+00 0.  1.
        -14    1    4    4    0    0 -0.70033161196E+01 -0.20258369160E+01  0.41689637193E+03  0.41696011245E+03  0.00000000000E+00 0.  1.
<mgrwt>
<rscale>  0 0.83439154E+02</rscale>
<asrwt>0</asrwt>
<pdfrwt beam="1">  1        2 0.20247241E+00 0.83439154E+02</pdfrwt>
<pdfrwt beam="2">  1       -1 0.20346384E-03 0.83439154E+02</pdfrwt>
<totfact> 0.30948412E+05</totfact>
</mgrwt>
</event>
<event>
 8    1  0.1226832E-024  0.7974995E+02  0.7818608E-02  0.1329763E+00
          2   -1    0    0  501    0  0.00000000000E+00  0.00000000000E+00  0.37073819645E+03  0.37073819646E+03  0.25500000000E-02 0. -1.
         -1   -1    0    0    0  501 -0.00000000000E+00 -0.00000000000E+00 -0.42887756858E+01  0.42887786472E+01  0.50400000000E-02 0.  1.
         24    2    1    2    0    0  0.00000000000E+00  0.00000000000E+00  0.36644942077E+03  0.37502697511E+03  0.79749947202E+02 0.  0.
         66    2    3    3    0    0  0.23085891537E+02  0.76389536340E+01  0.33180103416E+03  0.33269691653E+03  0.19999996548E+01 0.  0.
        -13    1    3    3    0    0 -0.23085891537E+02 -0.76389536340E+01  0.34648386604E+02  0.42330058575E+02  0.10566000000E+00 0.  1.
         13    1    4    4    0    0  0.18704874796E+01  0.25253625574E+00  0.22899215968E+02  0.22977113700E+02  0.10566000000E+00 0. -1.
        -13    1    4    4    0    0  0.18447981265E+01  0.41031468770E+00  0.23166853836E+02  0.23244051260E+02  0.10566000000E+00 0.  1.
         14    1    4    4    0    0  0.19370605931E+02  0.69761026906E+01  0.28573496436E+03  0.28647575157E+03  0.00000000000E+00 0. -1.
<mgrwt>
<rscale>  0 0.79749947E+02</rscale>
<asrwt>0</asrwt>
<pdfrwt beam="1">  1        2 0.57036639E-01 0.79749947E+02</pdfrwt>
<pdfrwt beam="2">  1       -1 0.65981196E-03 0.79749947E+02</pdfrwt>
<totfact> 0.27732622E+05</totfact>
</mgrwt>
</event>
<event>
 8    1  0.1226832E-024  0.7447758E+02  0.7818608E-02  0.1345496E+00
          2   -1    0    0  501    0  0.00000000000E+00  0.00000000000E+00  0.41513891982E+03  0.41513891983E+03  0.25500000000E-02 0. -1.
         -1   -1    0    0    0  501 -0.00000000000E+00 -0.00000000000E+00 -0.33403922562E+01  0.33403960584E+01  0.50400000000E-02 0.  1.
         24    2    1    2    0    0  0.00000000000E+00  0.35527136788E-14  0.41179852757E+03  0.41847931589E+03  0.74477584016E+02 0.  0.
         66    2    3    3    0    0 -0.28002961489E+02 -0.23725616059E+02  0.24052538231E+03  0.24331775573E+03  0.20000013485E+01 0.  0.
        -13    1    3    3    0    0  0.28002961489E+02  0.23725616059E+02  0.17127314525E+03  0.17516156016E+03  0.10566000000E+00 0.  1.
         13    1    4    4    0    0 -0.49233647720E+01 -0.50096737529E+01  0.48066177395E+02  0.48576794102E+02  0.10566000000E+00 0. -1.
        -13    1    4    4    0    0 -0.73400954198E+01 -0.56243468655E+01  0.61263072607E+02  0.61957126367E+02  0.10566000000E+00 0.  1.
         14    1    4    4    0    0 -0.15739501297E+02 -0.13091595440E+02  0.13119613231E+03  0.13278383526E+03  0.00000000000E+00 0. -1.
<mgrwt>
<rscale>  0 0.74477584E+02</rscale>
<asrwt>0</asrwt>
<pdfrwt beam="1">  1        2 0.63867521E-01 0.74477584E+02</pdfrwt>
<pdfrwt beam="2">  1       -1 0.51390684E-03 0.74477584E+02</pdfrwt>
<totfact> 0.34474288E+05</totfact>
</mgrwt>
</event>
<event>
 8    1  0.1226832E-024  0.7954858E+02  0.7818608E-02  0.1330337E+00
          2   -1    0    0  501    0  0.00000000000E+00  0.00000000000E+00  0.64748765478E+03  0.64748765479E+03  0.25500000000E-02 0. -1.
         -1   -1    0    0    0  501 -0.00000000000E+00 -0.00000000000E+00 -0.24432779073E+01  0.24432831055E+01  0.50400000000E-02 0.  1.
         24    2    1    2    0    0  0.35527136788E-14  0.35527136788E-14  0.64504437687E+03  0.64993093789E+03  0.79548575677E+02 0.  0.
         66    2    3    3    0    0 -0.28645156206E+02  0.18044801910E+02  0.49289987012E+03  0.49406522020E+03  0.20000009183E+01 0.  0.
        -13    1    3    3    0    0  0.28645156206E+02 -0.18044801910E+02  0.15214450676E+03  0.15586571769E+03  0.10566000000E+00 0.  1.
         13    1    4    4    0    0 -0.20602404194E+01  0.14625955886E+01  0.32908617840E+02  0.33005636921E+02  0.10566000000E+00 0. -1.
        -13    1    4    4    0    0 -0.88860366967E+01  0.63171226895E+01  0.16391311603E+03  0.16427534343E+03  0.10566000000E+00 0.  1.
         14    1    4    4    0    0 -0.17698879090E+02  0.10265083631E+02  0.29607813625E+03  0.29678423985E+03  0.00000000000E+00 0. -1.
<mgrwt>
<rscale>  0 0.79548576E+02</rscale>
<asrwt>0</asrwt>
<pdfrwt beam="1">  1        2 0.99613634E-01 0.79548576E+02</pdfrwt>
<pdfrwt beam="2">  1       -1 0.37588875E-03 0.79548576E+02</pdfrwt>
<totfact> 0.33311442E+05</totfact>
</mgrwt>
</event>
<event>
 8    1  0.1226832E-024  0.8252676E+02  0.7818608E-02  0.1322030E+00
          2   -1    0    0  501    0  0.00000000000E+00  0.00000000000E+00  0.99684089583E+03  0.99684089583E+03  0.25500000000E-02 0. -1.
         -1   -1    0    0    0  501 -0.00000000000E+00 -0.00000000000E+00 -0.17080588218E+01  0.17080662576E+01  0.50400000000E-02 0.  1.
         24    2    1    2    0    0 -0.17763568394E-14  0.35527136788E-14  0.99513283701E+03  0.99854896209E+03  0.82526761725E+02 0.  0.
         66    2    3    3    0    0 -0.13771302136E+02  0.17862679047E+02  0.91559325845E+03  0.91587321120E+03  0.19999992131E+01 0.  0.
        -13    1    3    3    0    0  0.13771302136E+02 -0.17862679047E+02  0.79539578554E+02  0.82675750894E+02  0.10566000000E+00 0.  1.
         13    1    4    4    0    0 -0.87698471714E+00  0.16805615855E+01  0.73639342463E+02  0.73663812770E+02  0.10566000000E+00 0.  1.
        -13    1    4    4    0    0 -0.72994208542E+01  0.87845710978E+01  0.43656412068E+03  0.43671351349E+03  0.10566000000E+00 0.  1.
         14    1    4    4    0    0 -0.55948965644E+01  0.73975463634E+01  0.40538979531E+03  0.40549588494E+03  0.00000000000E+00 0. -1.
<mgrwt>
<rscale>  0 0.82526762E+02</rscale>
<asrwt>0</asrwt>
<pdfrwt beam="1">  1        2 0.15335993E+00 0.82526762E+02</pdfrwt>
<pdfrwt beam="2">  1       -1 0.26277921E-03 0.82526762E+02</pdfrwt>
<totfact> 0.32490127E+05</totfact>
</mgrwt>
</event>
<event>
 8    1  0.1226832E-024  0.7988059E+02  0.7818608E-02  0.1329391E+00
         -1   -1    0    0    0  501 -0.00000000000E+00  0.00000000000E+00  0.17479102793E+02  0.17479103520E+02  0.50400000000E-02 0.  1.
          2   -1    0    0  501    0  0.00000000000E+00 -0.00000000000E+00 -0.91264817152E+02  0.91264817187E+02  0.25500000000E-02 0. -1.
         24    2    1    2    0    0  0.00000000000E+00  0.00000000000E+00 -0.73785714358E+02  0.10874392071E+03  0.79880589929E+02 0.  0.
         66    2    3    3    0    0 -0.24866525684E+02  0.12118990595E+01 -0.79388778090E+02  0.83224941767E+02  0.20000116461E+01 0.  0.
        -13    1    3    3    0    0  0.24866525684E+02 -0.12118990595E+01  0.56030637319E+01  0.25518978940E+02  0.10566000000E+00 0.  1.
         13    1    4    4    0    0 -0.79519163928E+01  0.71724340536E+00 -0.28038858902E+02  0.29153665035E+02  0.10566000000E+00 0. -1.
        -13    1    4    4    0    0 -0.63142564675E+00 -0.70564666415E-01 -0.20500144705E+01  0.21488138785E+01  0.10566000000E+00 0.  1.
        -14    1    4    4    0    0 -0.16283183644E+02  0.56522032058E+00 -0.49299904718E+02  0.51922462853E+02  0.00000000000E+00 0.  1.
<mgrwt>
<rscale>  0 0.79880590E+02</rscale>
<asrwt>0</asrwt>
<pdfrwt beam="1">  1        2 0.14040741E-01 0.79880590E+02</pdfrwt>
<pdfrwt beam="2">  1       -1 0.26890929E-02 0.79880590E+02</pdfrwt>
<totfact> 0.17355110E+05</totfact>
</mgrwt>
</event>
<event>
 8    1  0.1226832E-024  0.8093699E+02  0.7818608E-02  0.1326413E+00
          2   -1    0    0  501    0  0.00000000000E+00  0.00000000000E+00  0.75389074830E+02  0.75389074874E+02  0.25500000000E-02 0. -1.
         -1   -1    0    0    0  501 -0.00000000000E+00 -0.00000000000E+00 -0.21723292563E+02  0.21723293148E+02  0.50400000000E-02 0.  1.
         24    2    1    2    0    0  0.00000000000E+00  0.00000000000E+00  0.53665782267E+02  0.97112368021E+02  0.80936986825E+02 0.  0.
         66    2    3    3    0    0  0.38132187069E+02 -0.11605018093E+02  0.18627505738E+02  0.44042299981E+02  0.20000205154E+01 0.  0.
        -13    1    3    3    0    0 -0.38132187069E+02  0.11605018093E+02  0.35038276530E+02  0.53070068040E+02  0.10566000000E+00 0.  1.
         13    1    4    4    0    0  0.72990886499E+01 -0.22962165707E+01  0.38621929872E+01  0.85718728622E+01  0.10566000000E+00 0. -1.
        -13    1    4    4    0    0  0.13902686094E+02 -0.35894366362E+01  0.59310193089E+01  0.15535665099E+02  0.10566000000E+00 0.  1.
        -14    1    4    4    0    0  0.16930412325E+02 -0.57193648858E+01  0.88342934415E+01  0.19934762020E+02  0.00000000000E+00 0.  1.
<mgrwt>
<rscale>  0 0.80936987E+02</rscale>
<asrwt>0</asrwt>
<pdfrwt beam="1">  1        2 0.11598319E-01 0.80936987E+02</pdfrwt>
<pdfrwt beam="2">  1       -1 0.33420451E-02 0.80936987E+02</pdfrwt>
<totfact> 0.15936305E+05</totfact>
</mgrwt>
</event>
<event>
 8    1  0.1226832E-024  0.7935440E+02  0.7818608E-02  0.1330894E+00
          2   -1    0    0  501    0  0.00000000000E+00  0.00000000000E+00  0.16711519155E+04  0.16711519155E+04  0.25500000000E-02 0. -1.
         -1   -1    0    0    0  501 -0.00000000000E+00 -0.00000000000E+00 -0.94202610777E+00  0.94203959010E+00  0.50400000000E-02 0.  1.
         24    2    1    2    0    0  0.17763568394E-14  0.00000000000E+00  0.16702098893E+04  0.16720939550E+04  0.79354395162E+02 0.  0.
         66    2    3    3    0    0 -0.13735767323E+02  0.50725867389E+01  0.16120941441E+04  0.16121618815E+04  0.20000003948E+01 0.  0.
        -13    1    3    3    0    0  0.13735767323E+02 -0.50725867389E+01  0.58115745204E+02  0.59932073590E+02  0.10566000000E+00 0.  1.
         13    1    4    4    0    0 -0.68066491019E+01  0.35218346890E+01  0.84206050233E+03  0.84209538328E+03  0.10566000000E+00 0. -1.
        -13    1    4    4    0    0 -0.67079022174E+01  0.14227681763E+01  0.74230154128E+03  0.74233322003E+03  0.10566000000E+00 0.  1.
        -14    1    4    4    0    0 -0.22121600318E+00  0.12798387363E+00  0.27732100541E+02  0.27733278148E+02  0.00000000000E+00 0.  1.
<mgrwt>
<rscale>  0 0.79354395E+02</rscale>
<asrwt>0</asrwt>
<pdfrwt beam="1">  1        2 0.25709896E+00 0.79354395E+02</pdfrwt>
<pdfrwt beam="2">  1       -1 0.14492889E-03 0.79354395E+02</pdfrwt>
<totfact> 0.32312940E+05</totfact>
</mgrwt>
</event>
<event>
 8    1  0.1226832E-024  0.8561539E+02  0.7818608E-02  0.1313831E+00
          2   -1    0    0  501    0  0.00000000000E+00  0.00000000000E+00  0.19939986125E+02  0.19939986289E+02  0.25500000000E-02 0. -1.
         -1   -1    0    0    0  501 -0.00000000000E+00 -0.00000000000E+00 -0.91900696737E+02  0.91900696875E+02  0.50400000000E-02 0.  1.
         24    2    1    2    0    0 -0.35527136788E-14  0.00000000000E+00 -0.71960710612E+02  0.11184068316E+03  0.85615387278E+02 0.  0.
         66    2    3    3    0    0 -0.23141639770E+02 -0.92547152916E+01  0.94273216327E+01  0.26721894386E+02  0.20000000150E+01 0.  0.
        -13    1    3    3    0    0  0.23141639770E+02  0.92547152916E+01 -0.81388032245E+02  0.85118788778E+02  0.10566000000E+00 0.  1.
         13    1    4    4    0    0 -0.65164378970E+01 -0.27549474936E+01  0.31691998028E+01  0.77529794262E+01  0.10566000000E+00 0. -1.
        -13    1    4    4    0    0 -0.55062096326E+00  0.92758347115E-02  0.13005643840E+00  0.57562852523E+00  0.10566000000E+00 0.  1.
        -14    1    4    4    0    0 -0.16074580909E+02 -0.65090436327E+01  0.61280653915E+01  0.18393286435E+02  0.00000000000E+00 0.  1.
<mgrwt>
<rscale>  0 0.85615387E+02</rscale>
<asrwt>0</asrwt>
<pdfrwt beam="1">  1        2 0.30676902E-02 0.85615387E+02</pdfrwt>
<pdfrwt beam="2">  1       -1 0.14138569E-01 0.85615387E+02</pdfrwt>
<totfact> 0.10196671E+05</totfact>
</mgrwt>
</event>
<event>
 8    1  0.1226832E-024  0.8375800E+02  0.7818608E-02  0.1318713E+00
         -1   -1    0    0    0  501 -0.00000000000E+00  0.00000000000E+00  0.86023266746E+01  0.86023281511E+01  0.50400000000E-02 0.  1.
          2   -1    0    0  501    0  0.00000000000E+00 -0.00000000000E+00 -0.20388092983E+03  0.20388092985E+03  0.25500000000E-02 0. -1.
         24    2    1    2    0    0  0.00000000000E+00  0.00000000000E+00 -0.19527860316E+03  0.21248325800E+03  0.83757997104E+02 0.  0.
         66    2    3    3    0    0 -0.15589492293E+02  0.16914582978E+02 -0.18640228616E+03  0.18782690882E+03  0.20000012971E+01 0.  0.
        -13    1    3    3    0    0  0.15589492293E+02 -0.16914582978E+02 -0.88763169998E+01  0.24656349178E+02  0.10566000000E+00 0.  1.
         13    1    4    4    0    0 -0.12177489259E+01  0.76200864348E+00 -0.10576866832E+02  0.10674495100E+02  0.10566000000E+00 0.  1.
        -13    1    4    4    0    0 -0.29186147518E+00  0.45178296539E+00 -0.51003616571E+01  0.51297313806E+01  0.10566000000E+00 0. -1.
         14    1    4    4    0    0 -0.14079881892E+02  0.15700791369E+02 -0.17072505767E+03  0.17202268234E+03  0.00000000000E+00 0. -1.
<mgrwt>
<rscale>  0 0.83757997E+02</rscale>
<asrwt>0</asrwt>
<pdfrwt beam="1">  1        2 0.31366293E-01 0.83757997E+02</pdfrwt>
<pdfrwt beam="2">  1       -1 0.13234351E-02 0.83757997E+02</pdfrwt>
<totfact> 0.19668365E+05</totfact>
</mgrwt>
</event>
<event>
 8    1  0.1226832E-024  0.8267778E+02  0.7818608E-02  0.1321620E+00
         -1   -1    0    0    0  501 -0.00000000000E+00  0.00000000000E+00  0.26561679056E+01  0.26561726872E+01  0.50400000000E-02 0.  1.
          2   -1    0    0  501    0  0.00000000000E+00 -0.00000000000E+00 -0.64337130483E+03  0.64337130483E+03  0.25500000000E-02 0. -1.
         24    2    1    2    0    0  0.00000000000E+00  0.00000000000E+00 -0.64071513692E+03  0.64602747752E+03  0.82677778331E+02 0.  0.
         66    2    3    3    0    0  0.26057138273E+02 -0.20084910553E+02 -0.51581454243E+03  0.51686654010E+03  0.20000012360E+01 0.  0.
        -13    1    3    3    0    0 -0.26057138273E+02  0.20084910553E+02 -0.12490059449E+03  0.12916093742E+03  0.10566000000E+00 0.  1.
         13    1    4    4    0    0  0.79663616477E+00 -0.72306065681E+00 -0.12983166363E+02  0.13028093442E+02  0.10566000000E+00 0. -1.
        -13    1    4    4    0    0  0.68580896166E+01 -0.48616983270E+01 -0.12922405900E+03  0.12949725129E+03  0.10566000000E+00 0. -1.
         14    1    4    4    0    0  0.18402412491E+02 -0.14500151569E+02 -0.37360731707E+03  0.37434119536E+03  0.00000000000E+00 0. -1.
<mgrwt>
<rscale>  0 0.82677778E+02</rscale>
<asrwt>0</asrwt>
<pdfrwt beam="1">  1        2 0.98980077E-01 0.82677778E+02</pdfrwt>
<pdfrwt beam="2">  1       -1 0.40864210E-03 0.82677778E+02</pdfrwt>
<totfact> 0.30077556E+05</totfact>
</mgrwt>
</event>
<event>
 8    1  0.1226832E-024  0.8049268E+02  0.7818608E-02  0.1327659E+00
          2   -1    0    0  501    0  0.00000000000E+00  0.00000000000E+00  0.69587267077E+02  0.69587267124E+02  0.25500000000E-02 0. -1.
         -1   -1    0    0    0  501 -0.00000000000E+00 -0.00000000000E+00 -0.23276784837E+02  0.23276785383E+02  0.50400000000E-02 0.  1.
         24    2    1    2    0    0  0.00000000000E+00  0.00000000000E+00  0.46310482240E+02  0.92864052507E+02  0.80492679684E+02 0.  0.
         66    2    3    3    0    0 -0.12812673280E+02 -0.28667273762E+02  0.52168037741E+02  0.60921928250E+02  0.19999995967E+01 0.  0.
        -13    1    3    3    0    0  0.12812673280E+02  0.28667273762E+02 -0.58575555012E+01  0.31942124257E+02  0.10566000000E+00 0.  1.
         13    1    4    4    0    0 -0.25655375396E+01 -0.59549767549E+01  0.99728420832E+01  0.11895901575E+02  0.10566000000E+00 0. -1.
        -13    1    4    4    0    0 -0.32881766382E+01 -0.57804342578E+01  0.10811211881E+02  0.12693265623E+02  0.10566000000E+00 0.  1.
         14    1    4    4    0    0 -0.69589591025E+01 -0.16931862749E+02  0.31383983778E+02  0.36332761053E+02  0.00000000000E+00 0. -1.
<mgrwt>
<rscale>  0 0.80492680E+02</rscale>
<asrwt>0</asrwt>
<pdfrwt beam="1">  1        2 0.10705734E-01 0.80492680E+02</pdfrwt>
<pdfrwt beam="2">  1       -1 0.35810438E-02 0.80492680E+02</pdfrwt>
<totfact> 0.15857335E+05</totfact>
</mgrwt>
</event>
<event>
 8    1  0.1226832E-024  0.7917426E+02  0.7818608E-02  0.1331411E+00
          2   -1    0    0  501    0  0.00000000000E+00  0.00000000000E+00  0.14351790814E+04  0.14351790814E+04  0.25500000000E-02 0. -1.
         -1   -1    0    0    0  501 -0.00000000000E+00 -0.00000000000E+00 -0.10919420598E+01  0.10919536912E+01  0.50400000000E-02 0.  1.
         24    2    1    2    0    0  0.00000000000E+00 -0.88817841970E-15  0.14340871393E+04  0.14362710351E+04  0.79174257353E+02 0.  0.
         66    2    3    3    0    0  0.84457072224E+01 -0.63168192623E+01  0.14092037263E+04  0.14092446113E+04  0.20000002933E+01 0.  0.
        -13    1    3    3    0    0 -0.84457072224E+01  0.63168192623E+01  0.24883413037E+02  0.27026423820E+02  0.10566000000E+00 0.  1.
         13    1    4    4    0    0  0.40606482860E+01 -0.30671781833E+01  0.69754950979E+03  0.69756807999E+03  0.10566000000E+00 0. -1.
        -13    1    4    4    0    0  0.10378238320E+01 -0.15613434650E+01  0.25687196201E+03  0.25687882532E+03  0.10566000000E+00 0.  1.
        -14    1    4    4    0    0  0.33472351043E+01 -0.16882976139E+01  0.45478225449E+03  0.45479770594E+03  0.00000000000E+00 0.  1.
<mgrwt>
<rscale>  0 0.79174257E+02</rscale>
<asrwt>0</asrwt>
<pdfrwt beam="1">  1        2 0.22079686E+00 0.79174257E+02</pdfrwt>
<pdfrwt beam="2">  1       -1 0.16799192E-03 0.79174257E+02</pdfrwt>
<totfact> 0.34684797E+05</totfact>
</mgrwt>
</event>
<event>
 8    1  0.1490809E-024  0.7557302E+02  0.7818608E-02  0.1342106E+00
         -1   -1    0    0    0  501 -0.00000000000E+00  0.00000000000E+00  0.80713570130E+02  0.80713570288E+02  0.50400000000E-02 0.  1.
          2   -1    0    0  501    0  0.00000000000E+00 -0.00000000000E+00 -0.17689968431E+02  0.17689968615E+02  0.25500000000E-02 0. -1.
         24    2    1    2    0    0 -0.71054273576E-14  0.00000000000E+00  0.63023601699E+02  0.98403538902E+02  0.75573024932E+02 0.  0.
         66    2    3    3    0    0  0.25910162046E+02  0.14621465120E+02  0.12563899108E+01  0.29844634626E+02  0.19999902021E+01 0.  0.
        -13    1    3    3    0    0 -0.25910162046E+02 -0.14621465120E+02  0.61767211788E+02  0.68558904277E+02  0.10566000000E+00 0.  1.
         13    1    4    4    0    0  0.16677191496E+02  0.93178421156E+01  0.38620310156E+00  0.19107883576E+02  0.10566000000E+00 0. -1.
        -13    1    4    4    0    0  0.35597047949E+01  0.24370372808E+01 -0.40492806216E-01  0.43154898492E+01  0.10566000000E+00 0.  1.
        -14    1    4    4    0    0  0.56732657558E+01  0.28665857233E+01  0.91067961544E+00  0.64212612007E+01  0.00000000000E+00 0.  1.
<mgrwt>
<rscale>  0 0.75573025E+02</rscale>
<asrwt>0</asrwt>
<pdfrwt beam="1">  1        2 0.27215336E-02 0.75573025E+02</pdfrwt>
<pdfrwt beam="2">  1       -1 0.12417473E-01 0.75573025E+02</pdfrwt>
<totfact> 0.14264353E+05</totfact>
</mgrwt>
</event>
<event>
 8    1  0.1226832E-024  0.7805641E+02  0.7818608E-02  0.1334659E+00
         -1   -1    0    0    0  501 -0.00000000000E+00  0.00000000000E+00  0.54548450624E+01  0.54548473907E+01  0.50400000000E-02 0.  1.
          2   -1    0    0  501    0  0.00000000000E+00 -0.00000000000E+00 -0.27923805374E+03  0.27923805375E+03  0.25500000000E-02 0. -1.
         24    2    1    2    0    0  0.00000000000E+00  0.00000000000E+00 -0.27378320868E+03  0.28469290114E+03  0.78056406573E+02 0.  0.
         66    2    3    3    0    0 -0.24961021905E+01 -0.33789609503E+02 -0.20744321318E+03  0.21020146269E+03  0.19999962109E+01 0.  0.
        -13    1    3    3    0    0  0.24961021905E+01  0.33789609503E+02 -0.66339995500E+02  0.74491438458E+02  0.10566000000E+00 0.  1.
         13    1    4    4    0    0 -0.26513465275E+01 -0.25437561629E+02 -0.15598375637E+03  0.15806657646E+03  0.10566000000E+00 0. -1.
        -13    1    4    4    0    0  0.83258256920E-01 -0.33766392521E+01 -0.19598729822E+02  0.19887936023E+02  0.10566000000E+00 0. -1.
         14    1    4    4    0    0  0.71986080029E-01 -0.49754086219E+01 -0.31860726992E+02  0.32246950203E+02  0.00000000000E+00 0. -1.
<mgrwt>
<rscale>  0 0.78056407E+02</rscale>
<asrwt>0</asrwt>
<pdfrwt beam="1">  1        2 0.42959690E-01 0.78056407E+02</pdfrwt>
<pdfrwt beam="2">  1       -1 0.83920733E-03 0.78056407E+02</pdfrwt>
<totfact> 0.26494829E+05</totfact>
</mgrwt>
</event>
<event>
 8    1  0.1226832E-024  0.8114686E+02  0.7818608E-02  0.1325828E+00
          2   -1    0    0  501    0  0.00000000000E+00  0.00000000000E+00  0.27260755786E+03  0.27260755787E+03  0.25500000000E-02 0. -1.
         -1   -1    0    0    0  501 -0.00000000000E+00 -0.00000000000E+00 -0.60387281161E+01  0.60387302193E+01  0.50400000000E-02 0.  1.
         24    2    1    2    0    0  0.00000000000E+00  0.00000000000E+00  0.26656882974E+03  0.27864628809E+03  0.81146859926E+02 0.  0.
         66    2    3    3    0    0  0.13187427117E+02 -0.37165856693E+02  0.16575806474E+03  0.17039643524E+03  0.19999945458E+01 0.  0.
        -13    1    3    3    0    0 -0.13187427117E+02  0.37165856693E+02  0.10081076500E+03  0.10824985285E+03  0.10566000000E+00 0.  1.
         13    1    4    4    0    0  0.29290601828E+01 -0.65400480368E+01  0.28999637128E+02  0.29872089641E+02  0.10566000000E+00 0. -1.
        -13    1    4    4    0    0  0.16542446666E+01 -0.50606950516E+01  0.24181104871E+02  0.24760536276E+02  0.10566000000E+00 0.  1.
         14    1    4    4    0    0  0.86041222675E+01 -0.25565113605E+02  0.11257732274E+03  0.11576380932E+03  0.00000000000E+00 0. -1.
<mgrwt>
<rscale>  0 0.81146860E+02</rscale>
<asrwt>0</asrwt>
<pdfrwt beam="1">  1        2 0.41939630E-01 0.81146860E+02</pdfrwt>
<pdfrwt beam="2">  1       -1 0.92903513E-03 0.81146860E+02</pdfrwt>
<totfact> 0.23721507E+05</totfact>
</mgrwt>
</event>
<event>
 8    1  0.1226832E-024  0.7927338E+02  0.7818608E-02  0.1331126E+00
         -1   -1    0    0    0  501 -0.00000000000E+00  0.00000000000E+00  0.10480856777E+03  0.10480856789E+03  0.50400000000E-02 0.  1.
          2   -1    0    0  501    0  0.00000000000E+00 -0.00000000000E+00 -0.14989872005E+02  0.14989872222E+02  0.25500000000E-02 0. -1.
         24    2    1    2    0    0  0.35527136788E-14  0.00000000000E+00  0.89818695766E+02  0.11979844012E+03  0.79273376016E+02 0.  0.
         66    2    3    3    0    0 -0.31227342609E+02  0.24081265084E+02  0.39281855259E+02  0.55696664266E+02  0.20000008300E+01 0.  0.
        -13    1    3    3    0    0  0.31227342609E+02 -0.24081265084E+02  0.50536840508E+02  0.64101775849E+02  0.10566000000E+00 0.  1.
         13    1    4    4    0    0 -0.14347409645E+02  0.11702955301E+02  0.18544776534E+02  0.26205480859E+02  0.10566000000E+00 0. -1.
        -13    1    4    4    0    0 -0.21272766886E+01  0.11412112009E+01  0.26541716134E+01  0.35893537168E+01  0.10566000000E+00 0.  1.
        -14    1    4    4    0    0 -0.14752656276E+02  0.11237098582E+02  0.18082907111E+02  0.25901829691E+02  0.00000000000E+00 0.  1.
<mgrwt>
<rscale>  0 0.79273376E+02</rscale>
<asrwt>0</asrwt>
<pdfrwt beam="1">  1        2 0.23061342E-02 0.79273376E+02</pdfrwt>
<pdfrwt beam="2">  1       -1 0.16124395E-01 0.79273376E+02</pdfrwt>
<totfact> 0.12003849E+05</totfact>
</mgrwt>
</event>
<event>
 8    1  0.1226832E-024  0.7848200E+02  0.7818608E-02  0.1333415E+00
          2   -1    0    0  501    0  0.00000000000E+00  0.00000000000E+00  0.36366564253E+03  0.36366564254E+03  0.25500000000E-02 0. -1.
         -1   -1    0    0    0  501 -0.00000000000E+00 -0.00000000000E+00 -0.42342618494E+01  0.42342648489E+01  0.50400000000E-02 0.  1.
         24    2    1    2    0    0 -0.35527136788E-14 -0.88817841970E-15  0.35943138068E+03  0.36789990739E+03  0.78482000727E+02 0.  0.
         66    2    3    3    0    0 -0.29756831565E+02 -0.44783776844E+01  0.29770938748E+03  0.29923302673E+03  0.19999992701E+01 0.  0.
        -13    1    3    3    0    0  0.29756831565E+02  0.44783776844E+01  0.61721993203E+02  0.68666880666E+02  0.10566000000E+00 0.  1.
         13    1    4    4    0    0 -0.10258588949E+02 -0.12443787945E+01  0.10966457282E+03  0.11015042815E+03  0.10566000000E+00 0.  1.
        -13    1    4    4    0    0 -0.16084080267E+02 -0.26979075868E+01  0.15197670443E+03  0.15284929243E+03  0.10566000000E+00 0. -1.
        -14    1    4    4    0    0 -0.34141623496E+01 -0.53609130315E+00  0.36068110235E+02  0.36233306147E+02  0.00000000000E+00 0.  1.
<mgrwt>
<rscale>  0 0.78482001E+02</rscale>
<asrwt>0</asrwt>
<pdfrwt beam="1">  1        2 0.55948568E-01 0.78482001E+02</pdfrwt>
<pdfrwt beam="2">  1       -1 0.65142505E-03 0.78482001E+02</pdfrwt>
<totfact> 0.28721788E+05</totfact>
</mgrwt>
</event>
<event>
 8    1  0.1226832E-024  0.7853155E+02  0.7818608E-02  0.1333271E+00
         -1   -1    0    0    0  501 -0.00000000000E+00  0.00000000000E+00  0.25763006408E+01  0.25763055706E+01  0.50400000000E-02 0.  1.
          2   -1    0    0  501    0  0.00000000000E+00 -0.00000000000E+00 -0.59845478299E+03  0.59845478299E+03  0.25500000000E-02 0. -1.
         24    2    1    2    0    0 -0.71054273576E-14  0.69388939039E-16 -0.59587848235E+03  0.60103108856E+03  0.78531545866E+02 0.  0.
         66    2    3    3    0    0  0.36460250407E+02 -0.93200899763E-01 -0.40915528464E+03  0.41078145710E+03  0.20000005415E+01 0.  0.
        -13    1    3    3    0    0 -0.36460250407E+02  0.93200899763E-01 -0.18672319771E+03  0.19024963146E+03  0.10566000000E+00 0.  1.
         13    1    4    4    0    0  0.11125051143E+02 -0.88880832246E-02 -0.12848488113E+03  0.12896566475E+03  0.10566000000E+00 0. -1.
        -13    1    4    4    0    0  0.23769920477E+02  0.18129835146E+00 -0.25989717276E+03  0.26098197938E+03  0.10566000000E+00 0.  1.
        -14    1    4    4    0    0  0.15652787874E+01 -0.26561116800E+00 -0.20773230750E+02  0.20833812968E+02  0.00000000000E+00 0.  1.
<mgrwt>
<rscale>  0 0.78531546E+02</rscale>
<asrwt>0</asrwt>
<pdfrwt beam="1">  1        2 0.92069857E-01 0.78531546E+02</pdfrwt>
<pdfrwt beam="2">  1       -1 0.39635480E-03 0.78531546E+02</pdfrwt>
<totfact> 0.33726336E+05</totfact>
</mgrwt>
</event>
<event>
 8    1  0.1254151E-024  0.7856744E+02  0.7818608E-02  0.1333167E+00
         -1   -1    0    0    0  501 -0.00000000000E+00  0.00000000000E+00  0.37007966306E+01  0.37008000625E+01  0.50400000000E-02 0.  1.
          2   -1    0    0  501    0  0.00000000000E+00 -0.00000000000E+00 -0.41699403108E+03  0.41699403109E+03  0.25500000000E-02 0. -1.
         24    2    1    2    0    0  0.00000000000E+00  0.35527136788E-14 -0.41329323445E+03  0.42069483115E+03  0.78567444370E+02 0.  0.
         66    2    3    3    0    0 -0.21551555057E+02  0.22929639713E+02 -0.33246639006E+03  0.33395828844E+03  0.19999994762E+01 0.  0.
        -13    1    3    3    0    0  0.21551555057E+02 -0.22929639713E+02 -0.80826844391E+02  0.86736542709E+02  0.10566000000E+00 0.  1.
         13    1    4    4    0    0 -0.15417275881E+02  0.16321227181E+02 -0.23809094283E+03  0.23914719959E+03  0.10566000000E+00 0. -1.
        -13    1    4    4    0    0 -0.54094639220E+01  0.59515408327E+01 -0.80350934485E+02  0.80752504449E+02  0.10566000000E+00 0.  1.
        -14    1    4    4    0    0 -0.72481525346E+00  0.65687169992E+00 -0.14024512745E+02  0.14058584400E+02  0.00000000000E+00 0.  1.
<mgrwt>
<rscale>  0 0.78567444E+02</rscale>
<asrwt>0</asrwt>
<pdfrwt beam="1">  1        2 0.64152891E-01 0.78567444E+02</pdfrwt>
<pdfrwt beam="2">  1       -1 0.56935392E-03 0.78567444E+02</pdfrwt>
<totfact> 0.30048531E+05</totfact>
</mgrwt>
</event>
<event>
 8    1  0.1226832E-024  0.8079241E+02  0.7818608E-02  0.1326818E+00
         -1   -1    0    0    0  501 -0.00000000000E+00  0.00000000000E+00  0.76351583966E+01  0.76351600600E+01  0.50400000000E-02 0.  1.
          2   -1    0    0  501    0  0.00000000000E+00 -0.00000000000E+00 -0.21372877082E+03  0.21372877084E+03  0.25500000000E-02 0. -1.
         24    2    1    2    0    0  0.00000000000E+00  0.00000000000E+00 -0.20609361243E+03  0.22136393090E+03  0.80792405706E+02 0.  0.
         66    2    3    3    0    0 -0.12376823241E+02  0.10518295216E+02 -0.20437634932E+03  0.20503051593E+03  0.20000037932E+01 0.  0.
        -13    1    3    3    0    0  0.12376823241E+02 -0.10518295216E+02 -0.17172631076E+01  0.16333414965E+02  0.10566000000E+00 0.  1.
         13    1    4    4    0    0 -0.46822259554E+01  0.27851485842E+01 -0.66781201839E+02  0.67003137059E+02  0.10566000000E+00 0. -1.
        -13    1    4    4    0    0 -0.14337096316E+01  0.15168583823E+01 -0.27451602357E+02  0.27531037369E+02  0.10566000000E+00 0.  1.
         14    1    4    4    0    0 -0.62608876543E+01  0.62162882496E+01 -0.11014354512E+03  0.11049634151E+03  0.00000000000E+00 0. -1.
<mgrwt>
<rscale>  0 0.80792406E+02</rscale>
<asrwt>0</asrwt>
<pdfrwt beam="1">  1        2 0.32881345E-01 0.80792406E+02</pdfrwt>
<pdfrwt beam="2">  1       -1 0.11746400E-02 0.80792406E+02</pdfrwt>
<totfact> 0.21996933E+05</totfact>
</mgrwt>
</event>
<event>
 8    1  0.1226832E-024  0.7370313E+02  0.7818608E-02  0.1347935E+00
         -1   -1    0    0    0  501 -0.00000000000E+00  0.00000000000E+00  0.13930927239E+02  0.13930928151E+02  0.50400000000E-02 0.  1.
          2   -1    0    0  501    0  0.00000000000E+00 -0.00000000000E+00 -0.97483666027E+02  0.97483666060E+02  0.25500000000E-02 0. -1.
         24    2    1    2    0    0  0.00000000000E+00  0.00000000000E+00 -0.83552738788E+02  0.11141459421E+03  0.73703131848E+02 0.  0.
         66    2    3    3    0    0  0.84098162285E+01 -0.20572018994E+02 -0.86191919153E+02  0.89033588614E+02  0.19999999272E+01 0.  0.
        -13    1    3    3    0    0 -0.84098162285E+01  0.20572018994E+02  0.26391803652E+01  0.22381005597E+02  0.10566000000E+00 0.  1.
         13    1    4    4    0    0  0.14909276518E+01 -0.30909350014E+01 -0.12209507538E+02  0.12683058889E+02  0.10566000000E+00 0. -1.
        -13    1    4    4    0    0  0.28995782072E+01 -0.53836263012E+01 -0.23193405272E+02  0.23986166807E+02  0.10566000000E+00 0.  1.
        -14    1    4    4    0    0  0.40193103695E+01 -0.12097457691E+02 -0.50789006344E+02  0.52364362918E+02  0.00000000000E+00 0.  1.
<mgrwt>
<rscale>  0 0.73703132E+02</rscale>
<asrwt>0</asrwt>
<pdfrwt beam="1">  1        2 0.14997487E-01 0.73703132E+02</pdfrwt>
<pdfrwt beam="2">  1       -1 0.21432197E-02 0.73703132E+02</pdfrwt>
<totfact> 0.21900259E+05</totfact>
</mgrwt>
</event>
<event>
 8    1  0.1226832E-024  0.7957793E+02  0.7818608E-02  0.1330253E+00
          2   -1    0    0  501    0  0.00000000000E+00  0.00000000000E+00  0.19441879231E+02  0.19441879398E+02  0.25500000000E-02 0. -1.
         -1   -1    0    0    0  501 -0.00000000000E+00 -0.00000000000E+00 -0.81430494588E+02  0.81430494744E+02  0.50400000000E-02 0.  1.
         24    2    1    2    0    0  0.00000000000E+00  0.00000000000E+00 -0.61988615357E+02  0.10087237414E+03  0.79577933067E+02 0.  0.
         66    2    3    3    0    0  0.32836938817E+02  0.19183642794E+02 -0.45735385700E+02  0.59514722613E+02  0.20000002128E+01 0.  0.
        -13    1    3    3    0    0 -0.32836938817E+02 -0.19183642794E+02 -0.16253229658E+02  0.41357651530E+02  0.10566000000E+00 0.  1.
         13    1    4    4    0    0  0.23318515198E+02  0.13675476815E+02 -0.32457116089E+02  0.42240352343E+02  0.10566000000E+00 0. -1.
        -13    1    4    4    0    0  0.60669172889E+01  0.35769720201E+01 -0.76923281444E+01  0.10430018722E+02  0.10566000000E+00 0.  1.
        -14    1    4    4    0    0  0.34515063298E+01  0.19311939584E+01 -0.55859414658E+01  0.68443515477E+01  0.00000000000E+00 0.  1.
<mgrwt>
<rscale>  0 0.79577933E+02</rscale>
<asrwt>0</asrwt>
<pdfrwt beam="1">  1        2 0.29910584E-02 0.79577933E+02</pdfrwt>
<pdfrwt beam="2">  1       -1 0.12527768E-01 0.79577933E+02</pdfrwt>
<totfact> 0.12533907E+05</totfact>
</mgrwt>
</event>
<event>
 8    1  0.1226832E-024  0.7985110E+02  0.7818608E-02  0.1329475E+00
         -1   -1    0    0    0  501 -0.00000000000E+00  0.00000000000E+00  0.11418272865E+01  0.11418384097E+01  0.50400000000E-02 0.  1.
          2   -1    0    0  501    0  0.00000000000E+00 -0.00000000000E+00 -0.13960447101E+04  0.13960447101E+04  0.25500000000E-02 0. -1.
         24    2    1    2    0    0  0.44408920985E-15  0.00000000000E+00 -0.13949028828E+04  0.13971865485E+04  0.79851104323E+02 0.  0.
         66    2    3    3    0    0 -0.21146031004E+01 -0.18134399044E+02 -0.13186674169E+04  0.13187953156E+04  0.20000000242E+01 0.  0.
        -13    1    3    3    0    0  0.21146031004E+01  0.18134399044E+02 -0.76235465871E+02  0.78391232900E+02  0.10566000000E+00 0.  1.
         13    1    4    4    0    0 -0.36591784184E+00 -0.13054029370E+01 -0.10388286745E+03  0.10389176717E+03  0.10566000000E+00 0. -1.
        -13    1    4    4    0    0 -0.18015011432E+01 -0.99239363180E+01 -0.74326971081E+03  0.74333814922E+03  0.10566000000E+00 0.  1.
        -14    1    4    4    0    0  0.52815884576E-01 -0.69050597886E+01 -0.47151483868E+03  0.47156539921E+03  0.00000000000E+00 0.  1.
<mgrwt>
<rscale>  0 0.79851104E+02</rscale>
<asrwt>0</asrwt>
<pdfrwt beam="1">  1        2 0.21477474E+00 0.79851104E+02</pdfrwt>
<pdfrwt beam="2">  1       -1 0.17566771E-03 0.79851104E+02</pdfrwt>
<totfact> 0.34206011E+05</totfact>
</mgrwt>
</event>
<event>
 8    1  0.1226832E-024  0.8156981E+02  0.7818608E-02  0.1324655E+00
          2   -1    0    0  501    0  0.00000000000E+00  0.00000000000E+00  0.40273725396E+03  0.40273725396E+03  0.25500000000E-02 0. -1.
         -1   -1    0    0    0  501 -0.00000000000E+00 -0.00000000000E+00 -0.41302561987E+01  0.41302592738E+01  0.50400000000E-02 0.  1.
         24    2    1    2    0    0  0.00000000000E+00  0.00000000000E+00  0.39860699776E+03  0.40686751324E+03  0.81569814682E+02 0.  0.
         66    2    3    3    0    0 -0.34595093143E+02  0.97329758160E+01  0.29534929463E+03  0.29753446376E+03  0.20000005044E+01 0.  0.
        -13    1    3    3    0    0  0.34595093143E+02 -0.97329758160E+01  0.10325770313E+03  0.10933304947E+03  0.10566000000E+00 0.  1.
         13    1    4    4    0    0 -0.84727250941E+01  0.27297035132E+01  0.74777462686E+02  0.75305500739E+02  0.10566000000E+00 0. -1.
        -13    1    4    4    0    0 -0.13625923757E+02  0.29038468385E+01  0.11146770478E+03  0.11233502792E+03  0.10566000000E+00 0.  1.
        -14    1    4    4    0    0 -0.12496444291E+02  0.40994254643E+01  0.10910412716E+03  0.10989393511E+03  0.00000000000E+00 0.  1.
<mgrwt>
<rscale>  0 0.81569815E+02</rscale>
<asrwt>0</asrwt>
<pdfrwt beam="1">  1        2 0.61959603E-01 0.81569815E+02</pdfrwt>
<pdfrwt beam="2">  1       -1 0.63542401E-03 0.81569815E+02</pdfrwt>
<totfact> 0.26918034E+05</totfact>
</mgrwt>
</event>
<event>
 8    1  0.1226832E-024  0.8122324E+02  0.7818608E-02  0.1325615E+00
          2   -1    0    0  501    0  0.00000000000E+00  0.00000000000E+00  0.96133807069E+03  0.96133807069E+03  0.25500000000E-02 0. -1.
         -1   -1    0    0    0  501 -0.00000000000E+00 -0.00000000000E+00 -0.17156295657E+01  0.17156369686E+01  0.50400000000E-02 0.  1.
         24    2    1    2    0    0  0.00000000000E+00  0.00000000000E+00  0.95962244113E+03  0.96305370766E+03  0.81223237636E+02 0.  0.
         66    2    3    3    0    0 -0.57668324424E+01 -0.17039868285E+02  0.91148385968E+03  0.91166355632E+03  0.19999987055E+01 0.  0.
        -13    1    3    3    0    0  0.57668324424E+01  0.17039868285E+02  0.48138581447E+02  0.51390151346E+02  0.10566000000E+00 0.  1.
         13    1    4    4    0    0 -0.19888235079E+01 -0.49921532405E+01  0.26977564307E+03  0.26982917887E+03  0.10566000000E+00 0. -1.
        -13    1    4    4    0    0 -0.27754984171E+01 -0.10261917648E+02  0.55665009440E+03  0.55675160449E+03  0.10566000000E+00 0.  1.
         14    1    4    4    0    0 -0.10025105174E+01 -0.17857973971E+01  0.85058122213E+02  0.85082772957E+02  0.00000000000E+00 0. -1.
<mgrwt>
<rscale>  0 0.81223238E+02</rscale>
<asrwt>0</asrwt>
<pdfrwt beam="1">  1        2 0.14789844E+00 0.81223238E+02</pdfrwt>
<pdfrwt beam="2">  1       -1 0.26394309E-03 0.81223238E+02</pdfrwt>
<totfact> 0.33795050E+05</totfact>
</mgrwt>
</event>
<event>
 8    1  0.1226832E-024  0.7995383E+02  0.7818608E-02  0.1329183E+00
          2   -1    0    0  501    0  0.00000000000E+00  0.00000000000E+00  0.10158619668E+04  0.10158619668E+04  0.25500000000E-02 0. -1.
         -1   -1    0    0    0  501 -0.00000000000E+00 -0.00000000000E+00 -0.15731956254E+01  0.15732036986E+01  0.50400000000E-02 0.  1.
         24    2    1    2    0    0  0.00000000000E+00  0.00000000000E+00  0.10142887712E+04  0.10174351705E+04  0.79953829447E+02 0.  0.
         66    2    3    3    0    0 -0.17335117241E+02 -0.10205460954E+01  0.96532371262E+03  0.96548196148E+03  0.20000002140E+01 0.  0.
        -13    1    3    3    0    0  0.17335117241E+02  0.10205460954E+01  0.48965058583E+02  0.51953209046E+02  0.10566000000E+00 0.  1.
         13    1    4    4    0    0 -0.10387853504E+02 -0.95078081421E+00  0.58261661360E+03  0.58270999742E+03  0.10566000000E+00 0. -1.
        -13    1    4    4    0    0 -0.46225509536E+01  0.40860623192E+00  0.26973310289E+03  0.26977303960E+03  0.10566000000E+00 0.  1.
         14    1    4    4    0    0 -0.23247127832E+01 -0.47837151314E+00  0.11297399613E+03  0.11299892446E+03  0.00000000000E+00 0. -1.
<mgrwt>
<rscale>  0 0.79953829E+02</rscale>
<asrwt>0</asrwt>
<pdfrwt beam="1">  1        2 0.15628636E+00 0.79953829E+02</pdfrwt>
<pdfrwt beam="2">  1       -1 0.24203087E-03 0.79953829E+02</pdfrwt>
<totfact> 0.35304156E+05</totfact>
</mgrwt>
</event>
<event>
 8    1  0.1226832E-024  0.8122796E+02  0.7818608E-02  0.1325602E+00
          2   -1    0    0  501    0  0.00000000000E+00  0.00000000000E+00  0.22850329684E+02  0.22850329826E+02  0.25500000000E-02 0. -1.
         -1   -1    0    0    0  501 -0.00000000000E+00 -0.00000000000E+00 -0.72186943108E+02  0.72186943283E+02  0.50400000000E-02 0.  1.
         24    2    1    2    0    0  0.00000000000E+00  0.00000000000E+00 -0.49336613424E+02  0.95037273110E+02  0.81227962279E+02 0.  0.
         66    2    3    3    0    0  0.15090373475E+02 -0.15035948206E+02  0.15740328633E+02  0.26562323957E+02  0.19999996134E+01 0.  0.
        -13    1    3    3    0    0 -0.15090373475E+02  0.15035948206E+02 -0.65076942056E+02  0.68474949153E+02  0.10566000000E+00 0.  1.
         13    1    4    4    0    0  0.59084212261E+01 -0.55071051242E+01  0.58841658499E+01  0.99936089587E+01  0.10566000000E+00 0. -1.
        -13    1    4    4    0    0  0.67845618140E+01 -0.61767959607E+01  0.63602947559E+01  0.11164568991E+02  0.10566000000E+00 0.  1.
        -14    1    4    4    0    0  0.23973904346E+01 -0.33520471215E+01  0.34958680268E+01  0.54041460067E+01  0.00000000000E+00 0.  1.
<mgrwt>
<rscale>  0 0.81227962E+02</rscale>
<asrwt>0</asrwt>
<pdfrwt beam="1">  1        2 0.35154354E-02 0.81227962E+02</pdfrwt>
<pdfrwt beam="2">  1       -1 0.11105683E-01 0.81227962E+02</pdfrwt>
<totfact> 0.12209469E+05</totfact>
</mgrwt>
</event>
<event>
 8    1  0.1226832E-024  0.8052854E+02  0.7818608E-02  0.1327558E+00
         -1   -1    0    0    0  501 -0.00000000000E+00  0.00000000000E+00  0.96228654146E+01  0.96228667344E+01  0.50400000000E-02 0.  1.
          2   -1    0    0  501    0  0.00000000000E+00 -0.00000000000E+00 -0.16847491104E+03  0.16847491106E+03  0.25500000000E-02 0. -1.
         24    2    1    2    0    0  0.00000000000E+00 -0.71054273576E-14 -0.15885204563E+03  0.17809777780E+03  0.80528541871E+02 0.  0.
         66    2    3    3    0    0 -0.62815756803E+01 -0.38842538430E+02 -0.98110970740E+02  0.10572588873E+03  0.19999957948E+01 0.  0.
        -13    1    3    3    0    0  0.62815756803E+01  0.38842538430E+02 -0.60741074890E+02  0.72371889070E+02  0.10566000000E+00 0.  1.
         13    1    4    4    0    0 -0.84995755010E+00 -0.64877253589E+01 -0.16441586807E+02  0.17696043313E+02  0.10566000000E+00 0. -1.
        -13    1    4    4    0    0 -0.14886184132E+00 -0.34731500584E+00 -0.13711773503E+01  0.14262113878E+01  0.10566000000E+00 0.  1.
        -14    1    4    4    0    0 -0.52827562889E+01 -0.32007498065E+02 -0.80298206583E+02  0.86603634028E+02  0.00000000000E+00 0.  1.
<mgrwt>
<rscale>  0 0.80528542E+02</rscale>
<asrwt>0</asrwt>
<pdfrwt beam="1">  1        2 0.25919215E-01 0.80528542E+02</pdfrwt>
<pdfrwt beam="2">  1       -1 0.14804411E-02 0.80528542E+02</pdfrwt>
<totfact> 0.20447069E+05</totfact>
</mgrwt>
</event>
<event>
 8    1  0.1226832E-024  0.7958567E+02  0.7818608E-02  0.1330231E+00
         -1   -1    0    0    0  501 -0.00000000000E+00  0.00000000000E+00  0.10607733295E+02  0.10607734492E+02  0.50400000000E-02 0.  1.
          2   -1    0    0  501    0  0.00000000000E+00 -0.00000000000E+00 -0.14927500813E+03  0.14927500815E+03  0.25500000000E-02 0. -1.
         24    2    1    2    0    0  0.71054273576E-14  0.00000000000E+00 -0.13866727483E+03  0.15988274264E+03  0.79585666329E+02 0.  0.
         66    2    3    3    0    0 -0.29842529371E+02  0.50453140287E+01 -0.12119986026E+03  0.12493773600E+03  0.19999995594E+01 0.  0.
        -13    1    3    3    0    0  0.29842529371E+02 -0.50453140287E+01 -0.17467414572E+02  0.34945006636E+02  0.10566000000E+00 0.  1.
         13    1    4    4    0    0 -0.21298942005E+02  0.34991174300E+01 -0.85152276100E+02  0.87845375760E+02  0.10566000000E+00 0. -1.
        -13    1    4    4    0    0 -0.67906240370E+01  0.14395102447E+01 -0.27184749323E+02  0.28057200936E+02  0.10566000000E+00 0.  1.
        -14    1    4    4    0    0 -0.17529633288E+01  0.10668635396E+00 -0.88628348364E+01  0.90351593094E+01  0.00000000000E+00 0.  1.
<mgrwt>
<rscale>  0 0.79585666E+02</rscale>
<asrwt>0</asrwt>
<pdfrwt beam="1">  1        2 0.22965384E-01 0.79585666E+02</pdfrwt>
<pdfrwt beam="2">  1       -1 0.16319592E-02 0.79585666E+02</pdfrwt>
<totfact> 0.20276199E+05</totfact>
</mgrwt>
</event>
<event>
 8    1  0.1226832E-024  0.8057375E+02  0.7818608E-02  0.1327431E+00
         -1   -1    0    0    0  501 -0.00000000000E+00  0.00000000000E+00  0.31066444388E+01  0.31066485271E+01  0.50400000000E-02 0.  1.
          2   -1    0    0  501    0  0.00000000000E+00 -0.00000000000E+00 -0.52243871993E+03  0.52243871993E+03  0.25500000000E-02 0. -1.
         24    2    1    2    0    0  0.71054273576E-14  0.00000000000E+00 -0.51933207549E+03  0.52554536846E+03  0.80573753042E+02 0.  0.
         66    2    3    3    0    0  0.37227227699E+02  0.29911818533E+00 -0.35982940307E+03  0.36175565686E+03  0.20000004878E+01 0.  0.
        -13    1    3    3    0    0 -0.37227227699E+02 -0.29911818533E+00 -0.15950267241E+03  0.16378971160E+03  0.10566000000E+00 0.  1.
         13    1    4    4    0    0  0.70689849022E+01 -0.13135007354E+00 -0.63802068854E+02  0.64192701723E+02  0.10566000000E+00 0. -1.
        -13    1    4    4    0    0  0.40264225652E+01  0.28680327784E+00 -0.43584224215E+02  0.43770881865E+02  0.10566000000E+00 0.  1.
         14    1    4    4    0    0  0.26131820231E+02  0.14366498103E+00 -0.25244311001E+03  0.25379207328E+03  0.00000000000E+00 0. -1.
<mgrwt>
<rscale>  0 0.80573753E+02</rscale>
<asrwt>0</asrwt>
<pdfrwt beam="1">  1        2 0.80375118E-01 0.80573753E+02</pdfrwt>
<pdfrwt beam="2">  1       -1 0.47794603E-03 0.80573753E+02</pdfrwt>
<totfact> 0.30305000E+05</totfact>
</mgrwt>
</event>
<event>
 8    1  0.1226832E-024  0.7882941E+02  0.7818608E-02  0.1332407E+00
         -1   -1    0    0    0  501 -0.00000000000E+00  0.00000000000E+00  0.87143368621E+01  0.87143383196E+01  0.50400000000E-02 0.  1.
          2   -1    0    0  501    0  0.00000000000E+00 -0.00000000000E+00 -0.17827158934E+03  0.17827158936E+03  0.25500000000E-02 0. -1.
         24    2    1    2    0    0  0.00000000000E+00  0.17763568394E-14 -0.16955725248E+03  0.18698592768E+03  0.78829406200E+02 0.  0.
         66    2    3    3    0    0  0.26831937200E+02  0.11557112396E+02 -0.14750115168E+03  0.15037988381E+03  0.20000022420E+01 0.  0.
        -13    1    3    3    0    0 -0.26831937200E+02 -0.11557112396E+02 -0.22056100803E+02  0.36606043867E+02  0.10566000000E+00 0.  1.
         13    1    4    4    0    0  0.13917520966E+01  0.35881565316E+00 -0.84927918852E+01  0.86141976186E+01  0.10566000000E+00 0. -1.
        -13    1    4    4    0    0  0.75984218282E+01  0.36793974956E+01 -0.39792138787E+02  0.40677997166E+02  0.10566000000E+00 0.  1.
         14    1    4    4    0    0  0.17841763276E+02  0.75188992477E+01 -0.99216221006E+02  0.10108768903E+03  0.00000000000E+00 0. -1.
<mgrwt>
<rscale>  0 0.78829406E+02</rscale>
<asrwt>0</asrwt>
<pdfrwt beam="1">  1        2 0.27426396E-01 0.78829406E+02</pdfrwt>
<pdfrwt beam="2">  1       -1 0.13406675E-02 0.78829406E+02</pdfrwt>
<totfact> 0.22047076E+05</totfact>
</mgrwt>
</event>
<event>
 8    1  0.1226832E-024  0.8769257E+02  0.7818608E-02  0.1308538E+00
          2   -1    0    0  501    0  0.00000000000E+00  0.00000000000E+00  0.22446494217E+02  0.22446494362E+02  0.25500000000E-02 0. -1.
         -1   -1    0    0    0  501 -0.00000000000E+00 -0.00000000000E+00 -0.85647961857E+02  0.85647962006E+02  0.50400000000E-02 0.  1.
         24    2    1    2    0    0  0.13877787808E-16 -0.35527136788E-14 -0.63201467641E+02  0.10809445637E+03  0.87692565166E+02 0.  0.
         66    2    3    3    0    0  0.84552767112E-01 -0.30640807461E+02  0.70029839315E+01  0.31494571148E+02  0.19999992099E+01 0.  0.
        -13    1    3    3    0    0 -0.84552767112E-01  0.30640807461E+02 -0.70204451572E+02  0.76599885219E+02  0.10566000000E+00 0.  1.
         13    1    4    4    0    0 -0.24998209118E+00 -0.41882681292E+01  0.74541429179E+00  0.42627323949E+01  0.10566000000E+00 0. -1.
        -13    1    4    4    0    0  0.12753854532E-01 -0.67409049780E+01  0.89233096323E+00  0.68005427112E+01  0.10566000000E+00 0.  1.
         14    1    4    4    0    0  0.32178100376E+00 -0.19711634353E+02  0.53652386765E+01  0.20431296042E+02  0.00000000000E+00 0. -1.
<mgrwt>
<rscale>  0 0.87692565E+02</rscale>
<asrwt>0</asrwt>
<pdfrwt beam="1">  1        2 0.34533069E-02 0.87692565E+02</pdfrwt>
<pdfrwt beam="2">  1       -1 0.13176609E-01 0.87692565E+02</pdfrwt>
<totfact> 0.97572061E+04</totfact>
</mgrwt>
</event>
<event>
 8    1  0.1226832E-024  0.8095775E+02  0.7818608E-02  0.1326355E+00
          2   -1    0    0  501    0  0.00000000000E+00  0.00000000000E+00  0.41444688623E+03  0.41444688624E+03  0.25500000000E-02 0. -1.
         -1   -1    0    0    0  501 -0.00000000000E+00 -0.00000000000E+00 -0.39535556766E+01  0.39535588891E+01  0.50400000000E-02 0.  1.
         24    2    1    2    0    0  0.00000000000E+00  0.00000000000E+00  0.41049333055E+03  0.41840044513E+03  0.80957754746E+02 0.  0.
         66    2    3    3    0    0  0.10824116955E+02  0.30959679722E+02  0.32776702826E+03  0.32940990894E+03  0.20000035790E+01 0.  0.
        -13    1    3    3    0    0 -0.10824116955E+02 -0.30959679722E+02  0.82726302288E+02  0.88990536186E+02  0.10566000000E+00 0.  1.
         13    1    4    4    0    0  0.66788593600E+01  0.19895128711E+02  0.20607643529E+03  0.20714229808E+03  0.10566000000E+00 0. -1.
        -13    1    4    4    0    0  0.99910906544E+00  0.29594236041E+01  0.27699903278E+02  0.27875656273E+02  0.10566000000E+00 0.  1.
        -14    1    4    4    0    0  0.31461485298E+01  0.81051274067E+01  0.93990689694E+02  0.94391954583E+02  0.00000000000E+00 0.  1.
<mgrwt>
<rscale>  0 0.80957755E+02</rscale>
<asrwt>0</asrwt>
<pdfrwt beam="1">  1        2 0.63761058E-01 0.80957755E+02</pdfrwt>
<pdfrwt beam="2">  1       -1 0.60823960E-03 0.80957755E+02</pdfrwt>
<totfact> 0.27728658E+05</totfact>
</mgrwt>
</event>
<event>
 8    1  0.1226832E-024  0.7760835E+02  0.7818608E-02  0.1335979E+00
          2   -1    0    0  501    0  0.00000000000E+00  0.00000000000E+00  0.53240262834E+03  0.53240262834E+03  0.25500000000E-02 0. -1.
         -1   -1    0    0    0  501 -0.00000000000E+00 -0.00000000000E+00 -0.28282409875E+01  0.28282454782E+01  0.50400000000E-02 0.  1.
         24    2    1    2    0    0  0.17763568394E-14 -0.88817841970E-15  0.52957438735E+03  0.53523087382E+03  0.77608353641E+02 0.  0.
         66    2    3    3    0    0 -0.76022350583E+01  0.76661824266E+01  0.52182547830E+03  0.52194098720E+03  0.19999964547E+01 0.  0.
        -13    1    3    3    0    0  0.76022350583E+01 -0.76661824266E+01  0.77489090476E+01  0.13289886619E+02  0.10566000000E+00 0.  1.
         13    1    4    4    0    0 -0.37075484305E+01  0.28433874826E+01  0.20707806213E+03  0.20713079382E+03  0.10566000000E+00 0. -1.
        -13    1    4    4    0    0 -0.18926405666E+01  0.21012733427E+01  0.11916955102E+03  0.11920314800E+03  0.10566000000E+00 0.  1.
         14    1    4    4    0    0 -0.20020460612E+01  0.27215216013E+01  0.19557786515E+03  0.19560704538E+03  0.00000000000E+00 0. -1.
<mgrwt>
<rscale>  0 0.77608354E+02</rscale>
<asrwt>0</asrwt>
<pdfrwt beam="1">  1        2 0.81908093E-01 0.77608354E+02</pdfrwt>
<pdfrwt beam="2">  1       -1 0.43511437E-03 0.77608354E+02</pdfrwt>
<totfact> 0.33605825E+05</totfact>
</mgrwt>
</event>
<event>
 8    1  0.1226832E-024  0.7954619E+02  0.7818608E-02  0.1330344E+00
         -1   -1    0    0    0  501 -0.00000000000E+00  0.00000000000E+00  0.42292962161E+02  0.42292962462E+02  0.50400000000E-02 0.  1.
          2   -1    0    0  501    0  0.00000000000E+00 -0.00000000000E+00 -0.37403360544E+02  0.37403360631E+02  0.25500000000E-02 0. -1.
         24    2    1    2    0    0  0.00000000000E+00 -0.35527136788E-14  0.48896016176E+01  0.79696323092E+02  0.79546186021E+02 0.  0.
         66    2    3    3    0    0 -0.20825248265E+02  0.20010664799E+02 -0.24914107099E+02  0.38194637726E+02  0.19999868701E+01 0.  0.
        -13    1    3    3    0    0  0.20825248265E+02 -0.20010664799E+02  0.29803708716E+02  0.41501685367E+02  0.10566000000E+00 0.  1.
         13    1    4    4    0    0 -0.10122375060E+02  0.95910601335E+01 -0.11809994069E+02  0.18273971525E+02  0.10566000000E+00 0. -1.
        -13    1    4    4    0    0 -0.85987042112E+01  0.85834617031E+01 -0.99198620100E+01  0.15685291048E+02  0.10566000000E+00 0.  1.
        -14    1    4    4    0    0 -0.21041689935E+01  0.18361429625E+01 -0.31842510196E+01  0.42353751531E+01  0.00000000000E+00 0.  1.
<mgrwt>
<rscale>  0 0.79546186E+02</rscale>
<asrwt>0</asrwt>
<pdfrwt beam="1">  1        2 0.57543631E-02 0.79546186E+02</pdfrwt>
<pdfrwt beam="2">  1       -1 0.65066096E-02 0.79546186E+02</pdfrwt>
<totfact> 0.14284646E+05</totfact>
</mgrwt>
</event>
<event>
 8    1  0.1226832E-024  0.7841119E+02  0.7818608E-02  0.1333622E+00
          2   -1    0    0  501    0  0.00000000000E+00  0.00000000000E+00  0.24559307272E+03  0.24559307273E+03  0.25500000000E-02 0. -1.
         -1   -1    0    0    0  501 -0.00000000000E+00 -0.00000000000E+00 -0.62586397365E+01  0.62586417658E+01  0.50400000000E-02 0.  1.
         24    2    1    2    0    0  0.00000000000E+00 -0.11102230246E-15  0.23933443298E+03  0.25185171450E+03  0.78411193617E+02 0.  0.
         66    2    3    3    0    0 -0.13402143396E+02 -0.50982277501E+00  0.23798582329E+03  0.23837183026E+03  0.20000022104E+01 0.  0.
        -13    1    3    3    0    0  0.13402143396E+02  0.50982277501E+00  0.13486096927E+01  0.13479884236E+02  0.10566000000E+00 0.  1.
         13    1    4    4    0    0 -0.68441931565E+01  0.46149360971E+00  0.12283104067E+03  0.12302248442E+03  0.10566000000E+00 0. -1.
        -13    1    4    4    0    0 -0.57137479478E+01 -0.89138602633E+00  0.94183182729E+02  0.94360609142E+02  0.10566000000E+00 0.  1.
        -14    1    4    4    0    0 -0.84420229168E+00 -0.79930358382E-01  0.20971599886E+02  0.20988736698E+02  0.00000000000E+00 0.  1.
<mgrwt>
<rscale>  0 0.78411194E+02</rscale>
<asrwt>0</asrwt>
<pdfrwt beam="1">  1        2 0.37783546E-01 0.78411194E+02</pdfrwt>
<pdfrwt beam="2">  1       -1 0.96286790E-03 0.78411194E+02</pdfrwt>
<totfact> 0.25000280E+05</totfact>
</mgrwt>
</event>
<event>
 8    1  0.1249602E-024  0.7886188E+02  0.7818608E-02  0.1332313E+00
          2   -1    0    0  501    0  0.00000000000E+00  0.00000000000E+00  0.20873825319E+03  0.20873825321E+03  0.25500000000E-02 0. -1.
         -1   -1    0    0    0  501 -0.00000000000E+00 -0.00000000000E+00 -0.74485581689E+01  0.74485598741E+01  0.50400000000E-02 0.  1.
         24    2    1    2    0    0  0.00000000000E+00  0.17763568394E-14  0.20128969502E+03  0.21618681308E+03  0.78861884507E+02 0.  0.
         66    2    3    3    0    0  0.35208126226E+02 -0.91705734776E+01  0.14220080843E+03  0.14679503220E+03  0.19999980404E+01 0.  0.
        -13    1    3    3    0    0 -0.35208126226E+02  0.91705734776E+01  0.59088886596E+02  0.69391780878E+02  0.10566000000E+00 0.  1.
         13    1    4    4    0    0  0.17187495299E+02 -0.44446126626E+01  0.70220146488E+02  0.72429584517E+02  0.10566000000E+00 0. -1.
        -13    1    4    4    0    0  0.17812773799E+02 -0.47558151707E+01  0.70543488130E+02  0.72913013721E+02  0.10566000000E+00 0.  1.
        -14    1    4    4    0    0  0.20785712692E+00  0.29854355730E-01  0.14371738092E+01  0.14524339660E+01  0.00000000000E+00 0.  1.
<mgrwt>
<rscale>  0 0.78861885E+02</rscale>
<asrwt>0</asrwt>
<pdfrwt beam="1">  1        2 0.32113577E-01 0.78861885E+02</pdfrwt>
<pdfrwt beam="2">  1       -1 0.11459322E-02 0.78861885E+02</pdfrwt>
<totfact> 0.23251329E+05</totfact>
</mgrwt>
</event>
<event>
 8    1  0.1226832E-024  0.8081417E+02  0.7818608E-02  0.1326757E+00
          2   -1    0    0  501    0  0.00000000000E+00  0.00000000000E+00  0.55855143688E+03  0.55855143689E+03  0.25500000000E-02 0. -1.
         -1   -1    0    0    0  501 -0.00000000000E+00 -0.00000000000E+00 -0.29231532923E+01  0.29231576371E+01  0.50400000000E-02 0.  1.
         24    2    1    2    0    0  0.00000000000E+00  0.00000000000E+00  0.55562828359E+03  0.56147459452E+03  0.80814174327E+02 0.  0.
         66    2    3    3    0    0  0.35218363000E+02 -0.16201541331E+02  0.35655907544E+03  0.35866585745E+03  0.19999981032E+01 0.  0.
        -13    1    3    3    0    0 -0.35218363000E+02  0.16201541331E+02  0.19906920815E+03  0.20280873707E+03  0.10566000000E+00 0.  1.
         13    1    4    4    0    0  0.24945760918E+02 -0.11135429961E+02  0.25041621401E+03  0.25190192574E+03  0.10566000000E+00 0. -1.
        -13    1    4    4    0    0  0.55491384107E+01 -0.26566296996E+01  0.52360689461E+02  0.52720997556E+02  0.10566000000E+00 0.  1.
        -14    1    4    4    0    0  0.47234636714E+01 -0.24094816707E+01  0.53782171966E+02  0.54042934158E+02  0.00000000000E+00 0.  1.
<mgrwt>
<rscale>  0 0.80814174E+02</rscale>
<asrwt>0</asrwt>
<pdfrwt beam="1">  1        2 0.85931004E-01 0.80814174E+02</pdfrwt>
<pdfrwt beam="2">  1       -1 0.44971615E-03 0.80814174E+02</pdfrwt>
<totfact> 0.30687647E+05</totfact>
</mgrwt>
</event>
<event>
 8    1  0.1226832E-024  0.7961391E+02  0.7818608E-02  0.1330151E+00
          2   -1    0    0  501    0  0.00000000000E+00  0.00000000000E+00  0.46347340773E+03  0.46347340774E+03  0.25500000000E-02 0. -1.
         -1   -1    0    0    0  501 -0.00000000000E+00 -0.00000000000E+00 -0.34189505187E+01  0.34189542335E+01  0.50400000000E-02 0.  1.
         24    2    1    2    0    0  0.00000000000E+00  0.00000000000E+00  0.46005445722E+03  0.46689236198E+03  0.79613906238E+02 0.  0.
         66    2    3    3    0    0 -0.11756663441E+02 -0.73701653385E+01  0.44881875587E+03  0.44903765332E+03  0.20000018937E+01 0.  0.
        -13    1    3    3    0    0  0.11756663441E+02  0.73701653385E+01  0.11235701349E+02  0.17854708657E+02  0.10566000000E+00 0.  1.
         13    1    4    4    0    0 -0.29197823466E+01 -0.23854112939E+01  0.12373269512E+03  0.12379017054E+03  0.10566000000E+00 0. -1.
        -13    1    4    4    0    0 -0.76116364470E+01 -0.43414163481E+01  0.29410454979E+03  0.29423507995E+03  0.10566000000E+00 0.  1.
        -14    1    4    4    0    0 -0.12252446471E+01 -0.64333769644E+00  0.30981510958E+02  0.31012402826E+02  0.00000000000E+00 0.  1.
<mgrwt>
<rscale>  0 0.79613906E+02</rscale>
<asrwt>0</asrwt>
<pdfrwt beam="1">  1        2 0.71303595E-01 0.79613906E+02</pdfrwt>
<pdfrwt beam="2">  1       -1 0.52599272E-03 0.79613906E+02</pdfrwt>
<totfact> 0.30086522E+05</totfact>
</mgrwt>
</event>
<event>
 8    1  0.1226832E-024  0.8053765E+02  0.7818608E-02  0.1327533E+00
         -1   -1    0    0    0  501 -0.00000000000E+00  0.00000000000E+00  0.80043494147E+01  0.80043510014E+01  0.50400000000E-02 0.  1.
          2   -1    0    0  501    0  0.00000000000E+00 -0.00000000000E+00 -0.20258711136E+03  0.20258711137E+03  0.25500000000E-02 0. -1.
         24    2    1    2    0    0 -0.35527136788E-14  0.00000000000E+00 -0.19458276194E+03  0.21059146237E+03  0.80537648214E+02 0.  0.
         66    2    3    3    0    0 -0.11336643921E+02 -0.26701479652E+02 -0.17028944795E+03  0.17275411601E+03  0.20000010404E+01 0.  0.
        -13    1    3    3    0    0  0.11336643921E+02  0.26701479652E+02 -0.24293313987E+02  0.37837346359E+02  0.10566000000E+00 0.  1.
         13    1    4    4    0    0 -0.83840957147E+01 -0.19447538663E+02 -0.12817730439E+03  0.12991509668E+03  0.10566000000E+00 0. -1.
        -13    1    4    4    0    0 -0.43199179657E+00 -0.16987190263E+01 -0.97974395931E+01  0.99535546343E+01  0.10566000000E+00 0.  1.
        -14    1    4    4    0    0 -0.25205564096E+01 -0.55552219630E+01 -0.32314703967E+02  0.32885464695E+02  0.00000000000E+00 0.  1.
<mgrwt>
<rscale>  0 0.80537648E+02</rscale>
<asrwt>0</asrwt>
<pdfrwt beam="1">  1        2 0.31167244E-01 0.80537648E+02</pdfrwt>
<pdfrwt beam="2">  1       -1 0.12314386E-02 0.80537648E+02</pdfrwt>
<totfact> 0.21769134E+05</totfact>
</mgrwt>
</event>
<event>
 8    1  0.1226832E-024  0.8073986E+02  0.7818608E-02  0.1326965E+00
         -1   -1    0    0    0  501 -0.00000000000E+00  0.00000000000E+00  0.50939134738E+02  0.50939134987E+02  0.50400000000E-02 0.  1.
          2   -1    0    0  501    0  0.00000000000E+00 -0.00000000000E+00 -0.31993696683E+02  0.31993696784E+02  0.25500000000E-02 0. -1.
         24    2    1    2    0    0  0.17763568394E-14  0.00000000000E+00  0.18945438055E+02  0.82932831772E+02  0.80739859813E+02 0.  0.
         66    2    3    3    0    0  0.13423241813E+02 -0.17835225415E+02 -0.25041544690E+02  0.33605917197E+02  0.20000059397E+01 0.  0.
        -13    1    3    3    0    0 -0.13423241813E+02  0.17835225415E+02  0.43986982746E+02  0.49326914575E+02  0.10566000000E+00 0.  1.
         13    1    4    4    0    0  0.27124898074E+01 -0.31306726587E+01 -0.41094763618E+01  0.58358951545E+01  0.10566000000E+00 0. -1.
        -13    1    4    4    0    0  0.49051351206E+00 -0.31081444956E+00 -0.80456702412E+00  0.99784831486E+00  0.10566000000E+00 0.  1.
         14    1    4    4    0    0  0.10220238493E+02 -0.14393738307E+02 -0.20127501304E+02  0.26772173727E+02  0.00000000000E+00 0. -1.
<mgrwt>
<rscale>  0 0.80739860E+02</rscale>
<asrwt>0</asrwt>
<pdfrwt beam="1">  1        2 0.49221073E-02 0.80739860E+02</pdfrwt>
<pdfrwt beam="2">  1       -1 0.78367899E-02 0.80739860E+02</pdfrwt>
<totfact> 0.13281367E+05</totfact>
</mgrwt>
</event>
<event>
 8    1  0.1226832E-024  0.7764709E+02  0.7818608E-02  0.1335864E+00
         -1   -1    0    0    0  501 -0.00000000000E+00  0.00000000000E+00  0.53052731709E+02  0.53052731949E+02  0.50400000000E-02 0.  1.
          2   -1    0    0  501    0  0.00000000000E+00 -0.00000000000E+00 -0.28410747722E+02  0.28410747836E+02  0.25500000000E-02 0. -1.
         24    2    1    2    0    0  0.35527136788E-14  0.00000000000E+00  0.24641983988E+02  0.81463479785E+02  0.77647093725E+02 0.  0.
         66    2    3    3    0    0  0.16819506713E+02  0.19827495603E+02 -0.17882699374E+02  0.31619871901E+02  0.19999935451E+01 0.  0.
        -13    1    3    3    0    0 -0.16819506713E+02 -0.19827495603E+02  0.42524683361E+02  0.49843607885E+02  0.10566000000E+00 0.  1.
         13    1    4    4    0    0  0.98234157095E+01  0.11268214855E+02 -0.10972388870E+02  0.18543911232E+02  0.10566000000E+00 0. -1.
        -13    1    4    4    0    0  0.44151757973E+01  0.60945218934E+01 -0.48796131444E+01  0.89698808746E+01  0.10566000000E+00 0.  1.
        -14    1    4    4    0    0  0.25809152066E+01  0.24647588540E+01 -0.20306973586E+01  0.41060797939E+01  0.00000000000E+00 0.  1.
<mgrwt>
<rscale>  0 0.77647094E+02</rscale>
<asrwt>0</asrwt>
<pdfrwt beam="1">  1        2 0.43708843E-02 0.77647094E+02</pdfrwt>
<pdfrwt beam="2">  1       -1 0.81619587E-02 0.77647094E+02</pdfrwt>
<totfact> 0.14473740E+05</totfact>
</mgrwt>
</event>
<event>
 8    1  0.1226832E-024  0.8040169E+02  0.7818608E-02  0.1327915E+00
          2   -1    0    0  501    0  0.00000000000E+00  0.00000000000E+00  0.19313302879E+02  0.19313303047E+02  0.25500000000E-02 0. -1.
         -1   -1    0    0    0  501 -0.00000000000E+00 -0.00000000000E+00 -0.83678492371E+02  0.83678492523E+02  0.50400000000E-02 0.  1.
         24    2    1    2    0    0  0.00000000000E+00  0.00000000000E+00 -0.64365189492E+02  0.10299179557E+03  0.80401693616E+02 0.  0.
         66    2    3    3    0    0 -0.86081486404E+01 -0.36543541712E+02 -0.13880953415E+02  0.40077568878E+02  0.19999988898E+01 0.  0.
        -13    1    3    3    0    0  0.86081486404E+01  0.36543541712E+02 -0.50484236077E+02  0.62914226692E+02  0.10566000000E+00 0.  1.
         13    1    4    4    0    0 -0.19527044403E+01 -0.90398422136E+01 -0.37441654310E+01  0.99780629728E+01  0.10566000000E+00 0. -1.
        -13    1    4    4    0    0 -0.39317502297E+01 -0.19065281561E+02 -0.72819996009E+01  0.20784183965E+02  0.10566000000E+00 0.  1.
         14    1    4    4    0    0 -0.27236939703E+01 -0.84384179382E+01 -0.28547883828E+01  0.93153219404E+01  0.00000000000E+00 0. -1.
<mgrwt>
<rscale>  0 0.80401694E+02</rscale>
<asrwt>0</asrwt>
<pdfrwt beam="1">  1        2 0.29712774E-02 0.80401694E+02</pdfrwt>
<pdfrwt beam="2">  1       -1 0.12873614E-01 0.80401694E+02</pdfrwt>
<totfact> 0.12151387E+05</totfact>
</mgrwt>
</event>
<event>
 8    1  0.1226832E-024  0.8001383E+02  0.7818608E-02  0.1329012E+00
          2   -1    0    0  501    0  0.00000000000E+00  0.00000000000E+00  0.94453195445E+03  0.94453195446E+03  0.25500000000E-02 0. -1.
         -1   -1    0    0    0  501 -0.00000000000E+00 -0.00000000000E+00 -0.16945426067E+01  0.16945501018E+01  0.50400000000E-02 0.  1.
         24    2    1    2    0    0  0.00000000000E+00  0.00000000000E+00  0.94283741185E+03  0.94622650456E+03  0.80013828502E+02 0.  0.
         66    2    3    3    0    0 -0.11867518329E+02 -0.19477660549E+02  0.86004702851E+03  0.86035173533E+03  0.19999993541E+01 0.  0.
        -13    1    3    3    0    0  0.11867518329E+02  0.19477660549E+02  0.82790383339E+02  0.85874769224E+02  0.10566000000E+00 0.  1.
         13    1    4    4    0    0 -0.82883515969E+01 -0.14601033696E+02  0.62599136655E+03  0.62621648742E+03  0.10566000000E+00 0. -1.
        -13    1    4    4    0    0 -0.77031888614E-01 -0.48281440635E-01  0.55554802159E+01  0.55572285786E+01  0.10566000000E+00 0.  1.
         14    1    4    4    0    0 -0.35021348431E+01 -0.48283454124E+01  0.22850018174E+03  0.22857801933E+03  0.00000000000E+00 0. -1.
<mgrwt>
<rscale>  0 0.80013829E+02</rscale>
<asrwt>0</asrwt>
<pdfrwt beam="1">  1        2 0.14531261E+00 0.80013829E+02</pdfrwt>
<pdfrwt beam="2">  1       -1 0.26069944E-03 0.80013829E+02</pdfrwt>
<totfact> 0.35092169E+05</totfact>
</mgrwt>
</event>
<event>
 8    1  0.1226832E-024  0.8127297E+02  0.7818608E-02  0.1325477E+00
          2   -1    0    0  501    0  0.00000000000E+00  0.00000000000E+00  0.10690309754E+03  0.10690309757E+03  0.25500000000E-02 0. -1.
         -1   -1    0    0    0  501 -0.00000000000E+00 -0.00000000000E+00 -0.15446922564E+02  0.15446923386E+02  0.50400000000E-02 0.  1.
         24    2    1    2    0    0 -0.88817841970E-15  0.35527136788E-14  0.91456174979E+02  0.12235002096E+03  0.81272970210E+02 0.  0.
         66    2    3    3    0    0 -0.53597534159E+01  0.17567668739E+02  0.10028371883E+03  0.10197143818E+03  0.20000001217E+01 0.  0.
        -13    1    3    3    0    0  0.53597534159E+01 -0.17567668739E+02 -0.88275438513E+01  0.20378582779E+02  0.10566000000E+00 0.  1.
         13    1    4    4    0    0 -0.25251985294E+01  0.59853148813E+01  0.33805691804E+02  0.34424360332E+02  0.10566000000E+00 0. -1.
        -13    1    4    4    0    0 -0.20824470219E+01  0.64189000810E+01  0.38230751074E+02  0.38821905615E+02  0.10566000000E+00 0.  1.
        -14    1    4    4    0    0 -0.75210786463E+00  0.51634537762E+01  0.28247275952E+02  0.28725172234E+02  0.00000000000E+00 0.  1.
<mgrwt>
<rscale>  0 0.81272970E+02</rscale>
<asrwt>0</asrwt>
<pdfrwt beam="1">  1        2 0.16446630E-01 0.81272970E+02</pdfrwt>
<pdfrwt beam="2">  1       -1 0.23764498E-02 0.81272970E+02</pdfrwt>
<totfact> 0.17316912E+05</totfact>
</mgrwt>
</event>
<event>
 8    1  0.1226832E-024  0.7908198E+02  0.7818608E-02  0.1331677E+00
          2   -1    0    0  501    0  0.00000000000E+00  0.00000000000E+00  0.63719227603E+03  0.63719227604E+03  0.25500000000E-02 0. -1.
         -1   -1    0    0    0  501 -0.00000000000E+00 -0.00000000000E+00 -0.24537152688E+01  0.24537204450E+01  0.50400000000E-02 0.  1.
         24    2    1    2    0    0 -0.35527136788E-14  0.88817841970E-15  0.63473856076E+03  0.63964599648E+03  0.79081984648E+02 0.  0.
         66    2    3    3    0    0 -0.19745517096E+02  0.47763298739E+01  0.59171760487E+03  0.59206960967E+03  0.20000010631E+01 0.  0.
        -13    1    3    3    0    0  0.19745517096E+02 -0.47763298739E+01  0.43020955890E+02  0.47576386813E+02  0.10566000000E+00 0.  1.
         13    1    4    4    0    0 -0.12989255270E+02  0.30574272711E+01  0.39366984439E+03  0.39389595855E+03  0.10566000000E+00 0. -1.
        -13    1    4    4    0    0 -0.17079321970E+01 -0.17176191995E-01  0.53382427288E+02  0.53409849603E+02  0.10566000000E+00 0.  1.
        -14    1    4    4    0    0 -0.50483296294E+01  0.17360787948E+01  0.14466533319E+03  0.14476380152E+03  0.00000000000E+00 0.  1.
<mgrwt>
<rscale>  0 0.79081985E+02</rscale>
<asrwt>0</asrwt>
<pdfrwt beam="1">  1        2 0.98029677E-01 0.79081985E+02</pdfrwt>
<pdfrwt beam="2">  1       -1 0.37749469E-03 0.79081985E+02</pdfrwt>
<totfact> 0.33685021E+05</totfact>
</mgrwt>
</event>
<event>
 8    1  0.1226832E-024  0.7873893E+02  0.7818608E-02  0.1332669E+00
          2   -1    0    0  501    0  0.00000000000E+00  0.00000000000E+00  0.37985969532E+03  0.37985969533E+03  0.25500000000E-02 0. -1.
         -1   -1    0    0    0  501 -0.00000000000E+00 -0.00000000000E+00 -0.40803337642E+01  0.40803368769E+01  0.50400000000E-02 0.  1.
         24    2    1    2    0    0  0.00000000000E+00  0.00000000000E+00  0.37577936155E+03  0.38394003220E+03  0.78738934198E+02 0.  0.
         66    2    3    3    0    0  0.38228751910E+02 -0.83238749116E+01  0.20824828113E+03  0.21190108766E+03  0.19999983783E+01 0.  0.
        -13    1    3    3    0    0 -0.38228751910E+02  0.83238749116E+01  0.16753108043E+03  0.17203894454E+03  0.10566000000E+00 0.  1.
         13    1    4    4    0    0  0.22883974454E+02 -0.49726648569E+01  0.12111054016E+03  0.12335387219E+03  0.10566000000E+00 0. -1.
        -13    1    4    4    0    0  0.96511114212E+01 -0.17057751177E+01  0.55670459556E+02  0.56526673806E+02  0.10566000000E+00 0.  1.
        -14    1    4    4    0    0  0.56936660355E+01 -0.16454349369E+01  0.31467281416E+02  0.32020541669E+02  0.00000000000E+00 0.  1.
<mgrwt>
<rscale>  0 0.78738934E+02</rscale>
<asrwt>0</asrwt>
<pdfrwt beam="1">  1        2 0.58439955E-01 0.78738934E+02</pdfrwt>
<pdfrwt beam="2">  1       -1 0.62774387E-03 0.78738934E+02</pdfrwt>
<totfact> 0.28920235E+05</totfact>
</mgrwt>
</event>
<event>
 8    1  0.1512735E-024  0.8026584E+02  0.7818608E-02  0.1328299E+00
          2   -1    0    0  501    0  0.00000000000E+00  0.00000000000E+00  0.32424602361E+03  0.32424602362E+03  0.25500000000E-02 0. -1.
         -1   -1    0    0    0  501 -0.00000000000E+00 -0.00000000000E+00 -0.49673730956E+01  0.49673756525E+01  0.50400000000E-02 0.  1.
         24    2    1    2    0    0  0.00000000000E+00 -0.11102230246E-15  0.31927865051E+03  0.32921339927E+03  0.80265843210E+02 0.  0.
         66    2    3    3    0    0  0.32256714684E+02 -0.67704761459E+00  0.25746262128E+03  0.25948401759E+03  0.19999979162E+01 0.  0.
        -13    1    3    3    0    0 -0.32256714684E+02  0.67704761459E+00  0.61816029233E+02  0.69729381683E+02  0.10566000000E+00 0.  1.
         13    1    4    4    0    0  0.13185070571E+02 -0.61187419127E+00  0.10845804872E+03  0.10925831763E+03  0.10566000000E+00 0. -1.
        -13    1    4    4    0    0  0.12199572335E+02 -0.53194492855E+00  0.92295522854E+02  0.93099877731E+02  0.10566000000E+00 0.  1.
        -14    1    4    4    0    0  0.68720717788E+01  0.46677150523E+00  0.56709049707E+02  0.57125822225E+02  0.00000000000E+00 0.  1.
<mgrwt>
<rscale>  0 0.80265843E+02</rscale>
<asrwt>0</asrwt>
<pdfrwt beam="1">  1        2 0.49884023E-01 0.80265843E+02</pdfrwt>
<pdfrwt beam="2">  1       -1 0.76421115E-03 0.80265843E+02</pdfrwt>
<totfact> 0.25993680E+05</totfact>
</mgrwt>
</event>
<event>
 8    1  0.1226832E-024  0.7970041E+02  0.7818608E-02  0.1329904E+00
         -1   -1    0    0    0  501 -0.00000000000E+00  0.00000000000E+00  0.20178011715E+01  0.20178074659E+01  0.50400000000E-02 0.  1.
          2   -1    0    0  501    0  0.00000000000E+00 -0.00000000000E+00 -0.78701337503E+03  0.78701337504E+03  0.25500000000E-02 0. -1.
         24    2    1    2    0    0  0.00000000000E+00  0.35527136788E-14 -0.78499557386E+03  0.78903118250E+03  0.79700413926E+02 0.  0.
         66    2    3    3    0    0 -0.87423612134E+01 -0.23008954198E+02 -0.70269267789E+03  0.70312647540E+03  0.19999994593E+01 0.  0.
        -13    1    3    3    0    0  0.87423612134E+01  0.23008954198E+02 -0.82302895977E+02  0.85904707106E+02  0.10566000000E+00 0.  1.
         13    1    4    4    0    0 -0.39732668588E+00 -0.25499621956E+01 -0.78533592947E+02  0.78576055900E+02  0.10566000000E+00 0. -1.
        -13    1    4    4    0    0 -0.22591490928E+01 -0.62353615478E+01 -0.18351517142E+03  0.18363499883E+03  0.10566000000E+00 0. -1.
         14    1    4    4    0    0 -0.60858854347E+01 -0.14223630454E+02 -0.44064391352E+03  0.44091542067E+03  0.00000000000E+00 0. -1.
<mgrwt>
<rscale>  0 0.79700414E+02</rscale>
<asrwt>0</asrwt>
<pdfrwt beam="1">  1        2 0.12107874E+00 0.79700414E+02</pdfrwt>
<pdfrwt beam="2">  1       -1 0.31043206E-03 0.79700414E+02</pdfrwt>
<totfact> 0.34602185E+05</totfact>
</mgrwt>
</event>
<event>
 8    1  0.1226832E-024  0.7939703E+02  0.7818608E-02  0.1330771E+00
          2   -1    0    0  501    0  0.00000000000E+00  0.00000000000E+00  0.87112332206E+03  0.87112332206E+03  0.25500000000E-02 0. -1.
         -1   -1    0    0    0  501 -0.00000000000E+00 -0.00000000000E+00 -0.18091228591E+01  0.18091298795E+01  0.50400000000E-02 0.  1.
         24    2    1    2    0    0 -0.35527136788E-14 -0.88817841970E-15  0.86931419920E+03  0.87293245194E+03  0.79397032208E+02 0.  0.
         66    2    3    3    0    0  0.21477813286E+02 -0.52250015368E+01  0.79714619016E+03  0.79745510569E+03  0.19999994752E+01 0.  0.
        -13    1    3    3    0    0 -0.21477813286E+02  0.52250015368E+01  0.72168009033E+02  0.75477346247E+02  0.10566000000E+00 0.  1.
         13    1    4    4    0    0  0.13203014202E+02 -0.24263035837E+01  0.47886380088E+03  0.47905193611E+03  0.10566000000E+00 0. -1.
        -13    1    4    4    0    0  0.15711976073E+01 -0.36566526323E+00  0.67880562246E+02  0.67899810514E+02  0.10566000000E+00 0.  1.
        -14    1    4    4    0    0  0.67036014766E+01 -0.24330326898E+01  0.25040182704E+03  0.25050335907E+03  0.00000000000E+00 0.  1.
<mgrwt>
<rscale>  0 0.79397032E+02</rscale>
<asrwt>0</asrwt>
<pdfrwt beam="1">  1        2 0.13401895E+00 0.79397032E+02</pdfrwt>
<pdfrwt beam="2">  1       -1 0.27832718E-03 0.79397032E+02</pdfrwt>
<totfact> 0.35501169E+05</totfact>
</mgrwt>
</event>
<event>
 8    1  0.1226832E-024  0.7954748E+02  0.7818608E-02  0.1330341E+00
          2   -1    0    0  501    0  0.00000000000E+00  0.00000000000E+00  0.60326530560E+01  0.60326535950E+01  0.25500000000E-02 0. -1.
         -1   -1    0    0    0  501 -0.00000000000E+00 -0.00000000000E+00 -0.26223127954E+03  0.26223127959E+03  0.50400000000E-02 0.  1.
         24    2    1    2    0    0  0.00000000000E+00  0.11102230246E-15 -0.25619862649E+03  0.26826393319E+03  0.79547480380E+02 0.  0.
         66    2    3    3    0    0 -0.37037472425E+02  0.52632908243E+00 -0.17680475831E+03  0.18065429414E+03  0.20000108901E+01 0.  0.
        -13    1    3    3    0    0  0.37037472425E+02 -0.52632908243E+00 -0.79393868174E+02  0.87609639045E+02  0.10566000000E+00 0.  1.
         13    1    4    4    0    0 -0.12192683988E+02  0.20391728338E+00 -0.60179280170E+02  0.61402443363E+02  0.10566000000E+00 0. -1.
        -13    1    4    4    0    0 -0.43216866424E+01 -0.22678150264E+00 -0.18164332119E+02  0.18673042887E+02  0.10566000000E+00 0.  1.
        -14    1    4    4    0    0 -0.20523101795E+02  0.54919330169E+00 -0.98461146023E+02  0.10057880789E+03  0.00000000000E+00 0.  1.
<mgrwt>
<rscale>  0 0.79547480E+02</rscale>
<asrwt>0</asrwt>
<pdfrwt beam="1">  1        2 0.92810071E-03 0.79547480E+02</pdfrwt>
<pdfrwt beam="2">  1       -1 0.40343265E-01 0.79547480E+02</pdfrwt>
<totfact> 0.92362710E+04</totfact>
</mgrwt>
</event>
<event>
 8    1  0.1226832E-024  0.8057328E+02  0.7818608E-02  0.1327432E+00
          2   -1    0    0  501    0  0.00000000000E+00  0.00000000000E+00  0.23690535453E+02  0.23690535591E+02  0.25500000000E-02 0. -1.
         -1   -1    0    0    0  501 -0.00000000000E+00 -0.00000000000E+00 -0.68508937667E+02  0.68508937852E+02  0.50400000000E-02 0.  1.
         24    2    1    2    0    0  0.00000000000E+00  0.00000000000E+00 -0.44818402213E+02  0.92199473443E+02  0.80573281714E+02 0.  0.
         66    2    3    3    0    0 -0.11523390388E+02 -0.17901885480E+02  0.16680106147E+02  0.27119954972E+02  0.19999967100E+01 0.  0.
        -13    1    3    3    0    0  0.11523390388E+02  0.17901885480E+02 -0.61498508361E+02  0.65079518471E+02  0.10566000000E+00 0.  1.
         13    1    4    4    0    0 -0.79673046637E+01 -0.11320319787E+02  0.10012633613E+02  0.17084834783E+02  0.10566000000E+00 0. -1.
        -13    1    4    4    0    0 -0.35054552954E+01 -0.65305037942E+01  0.65242166154E+01  0.98748297765E+01  0.10566000000E+00 0.  1.
         14    1    4    4    0    0 -0.50630428565E-01 -0.51061898707E-01  0.14325591927E+00  0.16029041207E+00  0.00000000000E+00 0. -1.
<mgrwt>
<rscale>  0 0.80573282E+02</rscale>
<asrwt>0</asrwt>
<pdfrwt beam="1">  1        2 0.36446978E-02 0.80573282E+02</pdfrwt>
<pdfrwt beam="2">  1       -1 0.10539837E-01 0.80573282E+02</pdfrwt>
<totfact> 0.12585025E+05</totfact>
</mgrwt>
</event>
<event>
 8    1  0.1226832E-024  0.8251149E+02  0.7818608E-02  0.1322072E+00
         -1   -1    0    0    0  501 -0.00000000000E+00  0.00000000000E+00  0.91443368655E+01  0.91443382544E+01  0.50400000000E-02 0.  1.
          2   -1    0    0  501    0  0.00000000000E+00 -0.00000000000E+00 -0.18613008869E+03  0.18613008870E+03  0.25500000000E-02 0. -1.
         24    2    1    2    0    0  0.00000000000E+00  0.00000000000E+00 -0.17698575182E+03  0.19527442696E+03  0.82511486935E+02 0.  0.
         66    2    3    3    0    0 -0.88677488634E+01  0.29555212700E+02 -0.15326614089E+03  0.15635426927E+03  0.20000018822E+01 0.  0.
        -13    1    3    3    0    0  0.88677488634E+01 -0.29555212700E+02 -0.23719610925E+02  0.38920157684E+02  0.10566000000E+00 0.  1.
         13    1    4    4    0    0 -0.17081952897E+01  0.49062610228E+01 -0.24827622820E+02  0.25365554346E+02  0.10566000000E+00 0. -1.
        -13    1    4    4    0    0 -0.58116199103E+01  0.21844304594E+02 -0.11201499900E+03  0.11427300527E+03  0.10566000000E+00 0.  1.
        -14    1    4    4    0    0 -0.13479336634E+01  0.28046470840E+01 -0.16423519079E+02  0.16715709658E+02  0.00000000000E+00 0.  1.
<mgrwt>
<rscale>  0 0.82511487E+02</rscale>
<asrwt>0</asrwt>
<pdfrwt beam="1">  1        2 0.28635395E-01 0.82511487E+02</pdfrwt>
<pdfrwt beam="2">  1       -1 0.14068213E-02 0.82511487E+02</pdfrwt>
<totfact> 0.19828451E+05</totfact>
</mgrwt>
</event>
<event>
 8    1  0.1226832E-024  0.7976368E+02  0.7818608E-02  0.1329723E+00
         -1   -1    0    0    0  501 -0.00000000000E+00  0.00000000000E+00  0.27238094457E+01  0.27238141086E+01  0.50400000000E-02 0.  1.
          2   -1    0    0  501    0  0.00000000000E+00 -0.00000000000E+00 -0.58394676563E+03  0.58394676564E+03  0.25500000000E-02 0. -1.
         24    2    1    2    0    0  0.00000000000E+00  0.00000000000E+00 -0.58122295619E+03  0.58667057975E+03  0.79763678086E+02 0.  0.
         66    2    3    3    0    0 -0.23356560855E+02  0.24671346464E+02 -0.44408232128E+03  0.44538445453E+03  0.19999986580E+01 0.  0.
        -13    1    3    3    0    0  0.23356560855E+02 -0.24671346464E+02 -0.13714063491E+03  0.14128612521E+03  0.10566000000E+00 0.  1.
         13    1    4    4    0    0 -0.28612488884E+01  0.29171715151E+01 -0.55061550723E+02  0.55213061560E+02  0.10566000000E+00 0. -1.
        -13    1    4    4    0    0 -0.12155872447E+02  0.12872758978E+02 -0.24183507356E+03  0.24248234395E+03  0.10566000000E+00 0.  1.
        -14    1    4    4    0    0 -0.83394395197E+01  0.88814159709E+01 -0.14718569700E+03  0.14768904902E+03  0.00000000000E+00 0.  1.
<mgrwt>
<rscale>  0 0.79763678E+02</rscale>
<asrwt>0</asrwt>
<pdfrwt beam="1">  1        2 0.89837864E-01 0.79763678E+02</pdfrwt>
<pdfrwt beam="2">  1       -1 0.41904843E-03 0.79763678E+02</pdfrwt>
<totfact> 0.32165168E+05</totfact>
</mgrwt>
</event>
<event>
 8    1  0.1226832E-024  0.7999909E+02  0.7818608E-02  0.1329054E+00
         -1   -1    0    0    0  501 -0.00000000000E+00  0.00000000000E+00  0.15126215799E+02  0.15126216638E+02  0.50400000000E-02 0.  1.
          2   -1    0    0  501    0  0.00000000000E+00 -0.00000000000E+00 -0.10577419912E+03  0.10577419915E+03  0.25500000000E-02 0. -1.
         24    2    1    2    0    0 -0.17763568394E-14  0.00000000000E+00 -0.90647983321E+02  0.12090041579E+03  0.79999085356E+02 0.  0.
         66    2    3    3    0    0  0.15283595269E+02 -0.31577281161E+02 -0.74313738125E+02  0.82202461062E+02  0.19999901775E+01 0.  0.
        -13    1    3    3    0    0 -0.15283595269E+02  0.31577281161E+02 -0.16334245196E+02  0.38697954727E+02  0.10566000000E+00 0.  1.
         13    1    4    4    0    0  0.52864086051E+01 -0.11792022337E+02 -0.28877990017E+02  0.31637752420E+02  0.10566000000E+00 0. -1.
        -13    1    4    4    0    0  0.64694475447E+01 -0.11908899303E+02 -0.28343377160E+02  0.31417094503E+02  0.10566000000E+00 0.  1.
         14    1    4    4    0    0  0.35277391195E+01 -0.78763595210E+01 -0.17092370948E+02  0.19147614139E+02  0.00000000000E+00 0. -1.
<mgrwt>
<rscale>  0 0.79999085E+02</rscale>
<asrwt>0</asrwt>
<pdfrwt beam="1">  1        2 0.16272953E-01 0.79999085E+02</pdfrwt>
<pdfrwt beam="2">  1       -1 0.23271103E-02 0.79999085E+02</pdfrwt>
<totfact> 0.18010095E+05</totfact>
</mgrwt>
</event>
<event>
 8    1  0.1226832E-024  0.7955115E+02  0.7818608E-02  0.1330330E+00
         -1   -1    0    0    0  501 -0.00000000000E+00  0.00000000000E+00  0.37583083943E+01  0.37583117737E+01  0.50400000000E-02 0.  1.
          2   -1    0    0  501    0  0.00000000000E+00 -0.00000000000E+00 -0.42095946476E+03  0.42095946477E+03  0.25500000000E-02 0. -1.
         24    2    1    2    0    0 -0.35527136788E-14 -0.71054273576E-14 -0.41720115636E+03  0.42471777654E+03  0.79551146047E+02 0.  0.
         66    2    3    3    0    0 -0.22778107011E+02 -0.32205110334E+02 -0.23493088827E+03  0.23822790259E+03  0.20000046419E+01 0.  0.
        -13    1    3    3    0    0  0.22778107011E+02  0.32205110334E+02 -0.18227026809E+03  0.18648987395E+03  0.10566000000E+00 0.  1.
         13    1    4    4    0    0 -0.11957646435E+02 -0.18095630002E+02 -0.12723182138E+03  0.12906736485E+03  0.10566000000E+00 0. -1.
        -13    1    4    4    0    0 -0.82409861833E+01 -0.11115657663E+02 -0.85472530684E+02  0.86585428128E+02  0.10566000000E+00 0.  1.
        -14    1    4    4    0    0 -0.25794743930E+01 -0.29938226691E+01 -0.22226536207E+02  0.22575109614E+02  0.00000000000E+00 0.  1.
<mgrwt>
<rscale>  0 0.79551146E+02</rscale>
<asrwt>0</asrwt>
<pdfrwt beam="1">  1        2 0.64762957E-01 0.79551146E+02</pdfrwt>
<pdfrwt beam="2">  1       -1 0.57820189E-03 0.79551146E+02</pdfrwt>
<totfact> 0.29184113E+05</totfact>
</mgrwt>
</event>
<event>
 8    1  0.1226832E-024  0.7419421E+02  0.7818608E-02  0.1346385E+00
         -1   -1    0    0    0  501 -0.00000000000E+00  0.00000000000E+00  0.14081669573E+01  0.14081759766E+01  0.50400000000E-02 0.  1.
          2   -1    0    0  501    0  0.00000000000E+00 -0.00000000000E+00 -0.97729228637E+03  0.97729228638E+03  0.25500000000E-02 0. -1.
         24    2    1    2    0    0  0.35527136788E-14  0.00000000000E+00 -0.97588411942E+03  0.97870046235E+03  0.74194207874E+02 0.  0.
         66    2    3    3    0    0  0.23426269321E+02  0.30311514643E+01 -0.86515676783E+03  0.86548149077E+03  0.19999916286E+01 0.  0.
        -13    1    3    3    0    0 -0.23426269321E+02 -0.30311514643E+01 -0.11072735159E+03  0.11321897158E+03  0.10566000000E+00 0.  1.
         13    1    4    4    0    0  0.52363387415E+01  0.31778224781E+00 -0.19512520176E+03  0.19519573703E+03  0.10566000000E+00 0. -1.
        -13    1    4    4    0    0  0.58969007344E+01  0.23806362267E+00 -0.20186552499E+03  0.20195180479E+03  0.10566000000E+00 0.  1.
        -14    1    4    4    0    0  0.12293029845E+02  0.24753055939E+01 -0.46816604108E+03  0.46833394896E+03  0.00000000000E+00 0.  1.
<mgrwt>
<rscale>  0 0.74194208E+02</rscale>
<asrwt>0</asrwt>
<pdfrwt beam="1">  1        2 0.15035212E+00 0.74194208E+02</pdfrwt>
<pdfrwt beam="2">  1       -1 0.21664255E-03 0.74194208E+02</pdfrwt>
<totfact> 0.42761350E+05</totfact>
</mgrwt>
</event>
<event>
 8    1  0.1226832E-024  0.7971783E+02  0.7818608E-02  0.1329854E+00
         -1   -1    0    0    0  501 -0.00000000000E+00  0.00000000000E+00  0.25304595489E+01  0.25304645681E+01  0.50400000000E-02 0.  1.
          2   -1    0    0  501    0  0.00000000000E+00 -0.00000000000E+00 -0.62784315626E+03  0.62784315626E+03  0.25500000000E-02 0. -1.
         24    2    1    2    0    0  0.00000000000E+00  0.44408920985E-15 -0.62531269671E+03  0.63037362083E+03  0.79717834732E+02 0.  0.
         66    2    3    3    0    0 -0.35881862728E+02  0.38229232677E+01 -0.44625516558E+03  0.44771619987E+03  0.20000003958E+01 0.  0.
        -13    1    3    3    0    0  0.35881862728E+02 -0.38229232677E+01 -0.17905753113E+03  0.18265742097E+03  0.10566000000E+00 0.  1.
         13    1    4    4    0    0 -0.91338483104E+01  0.14491143323E+01 -0.12081551271E+03  0.12116899930E+03  0.10566000000E+00 0. -1.
        -13    1    4    4    0    0 -0.64533984096E+01  0.16407278705E+00 -0.79480206347E+02  0.79742006721E+02  0.10566000000E+00 0.  1.
         14    1    4    4    0    0 -0.20294616008E+02  0.22097361484E+01 -0.24595944653E+03  0.24680519384E+03  0.00000000000E+00 0. -1.
<mgrwt>
<rscale>  0 0.79717835E+02</rscale>
<asrwt>0</asrwt>
<pdfrwt beam="1">  1        2 0.96591131E-01 0.79717835E+02</pdfrwt>
<pdfrwt beam="2">  1       -1 0.38930236E-03 0.79717835E+02</pdfrwt>
<totfact> 0.32863187E+05</totfact>
</mgrwt>
</event>
<event>
 8    1  0.1226832E-024  0.7884189E+02  0.7818608E-02  0.1332370E+00
          2   -1    0    0  501    0  0.00000000000E+00  0.00000000000E+00  0.12761157283E+03  0.12761157285E+03  0.25500000000E-02 0. -1.
         -1   -1    0    0    0  501 -0.00000000000E+00 -0.00000000000E+00 -0.12177664897E+02  0.12177665940E+02  0.50400000000E-02 0.  1.
         24    2    1    2    0    0 -0.22204460493E-15 -0.17763568394E-14  0.11543390793E+03  0.13978923879E+03  0.78841893574E+02 0.  0.
         66    2    3    3    0    0 -0.96361109751E+00 -0.11527156648E+02  0.12452466700E+03  0.12507676275E+03  0.20000007995E+01 0.  0.
        -13    1    3    3    0    0  0.96361109751E+00  0.11527156648E+02 -0.90907590686E+01  0.14712476039E+02  0.10566000000E+00 0.  1.
         13    1    4    4    0    0 -0.35757051184E+00 -0.47560083465E+01  0.51654664479E+02  0.51874492755E+02  0.10566000000E+00 0. -1.
        -13    1    4    4    0    0 -0.44699136864E+00 -0.26809096921E+01  0.36899474515E+02  0.36999587317E+02  0.10566000000E+00 0.  1.
        -14    1    4    4    0    0 -0.15904921703E+00 -0.40902386090E+01  0.35970528002E+02  0.36202682681E+02  0.00000000000E+00 0.  1.
<mgrwt>
<rscale>  0 0.78841894E+02</rscale>
<asrwt>0</asrwt>
<pdfrwt beam="1">  1        2 0.19632549E-01 0.78841894E+02</pdfrwt>
<pdfrwt beam="2">  1       -1 0.18734870E-02 0.78841894E+02</pdfrwt>
<totfact> 0.19790925E+05</totfact>
</mgrwt>
</event>
<event>
 8    1  0.1226832E-024  0.8211096E+02  0.7818608E-02  0.1323165E+00
          2   -1    0    0  501    0  0.00000000000E+00  0.00000000000E+00  0.51094878866E+03  0.51094878867E+03  0.25500000000E-02 0. -1.
         -1   -1    0    0    0  501 -0.00000000000E+00 -0.00000000000E+00 -0.32988658723E+01  0.32988697224E+01  0.50400000000E-02 0.  1.
         24    2    1    2    0    0 -0.35527136788E-14 -0.26645352591E-14  0.50764992279E+03  0.51424765839E+03  0.82110961826E+02 0.  0.
         66    2    3    3    0    0 -0.20021681176E+02 -0.77261485510E+01  0.47299423622E+03  0.47348506691E+03  0.20000002837E+01 0.  0.
        -13    1    3    3    0    0  0.20021681176E+02  0.77261485510E+01  0.34655686569E+02  0.40762591480E+02  0.10566000000E+00 0.  1.
         13    1    4    4    0    0 -0.10231834143E+02 -0.36075888744E+01  0.22249878920E+03  0.22276316456E+03  0.10566000000E+00 0. -1.
        -13    1    4    4    0    0 -0.63477957996E+01 -0.28724546162E+01  0.15590482619E+03  0.15606047386E+03  0.10566000000E+00 0.  1.
         14    1    4    4    0    0 -0.34420512334E+01 -0.12461050604E+01  0.94590620835E+02  0.94661428494E+02  0.00000000000E+00 0. -1.
<mgrwt>
<rscale>  0 0.82110962E+02</rscale>
<asrwt>0</asrwt>
<pdfrwt beam="1">  1        2 0.78607464E-01 0.82110962E+02</pdfrwt>
<pdfrwt beam="2">  1       -1 0.50751840E-03 0.82110962E+02</pdfrwt>
<totfact> 0.28646652E+05</totfact>
</mgrwt>
</event>
<event>
 8    1  0.1226832E-024  0.7111975E+02  0.7818608E-02  0.1356326E+00
          2   -1    0    0  501    0  0.00000000000E+00  0.00000000000E+00  0.83498851240E+02  0.83498851279E+02  0.25500000000E-02 0. -1.
         -1   -1    0    0    0  501 -0.00000000000E+00 -0.00000000000E+00 -0.15143977224E+02  0.15143978063E+02  0.50400000000E-02 0.  1.
         24    2    1    2    0    0  0.88817841970E-15  0.00000000000E+00  0.68354874016E+02  0.98642829342E+02  0.71119750975E+02 0.  0.
         66    2    3    3    0    0 -0.49608271016E+01 -0.34392735554E+02  0.44493423576E+02  0.56490130192E+02  0.20000008019E+01 0.  0.
        -13    1    3    3    0    0  0.49608271016E+01  0.34392735554E+02  0.23861450441E+02  0.42152699150E+02  0.10566000000E+00 0.  1.
         13    1    4    4    0    0 -0.87039525480E-01 -0.86767957003E+00  0.81559382928E+00  0.11986663611E+01  0.10566000000E+00 0. -1.
        -13    1    4    4    0    0 -0.22465966848E+01 -0.11310449379E+02  0.14621107242E+02  0.18621530625E+02  0.10566000000E+00 0.  1.
         14    1    4    4    0    0 -0.26271908914E+01 -0.22214606606E+02  0.29056722504E+02  0.36669933206E+02  0.00000000000E+00 0. -1.
<mgrwt>
<rscale>  0 0.71119751E+02</rscale>
<asrwt>0</asrwt>
<pdfrwt beam="1">  1        2 0.12845977E-01 0.71119751E+02</pdfrwt>
<pdfrwt beam="2">  1       -1 0.23298427E-02 0.71119751E+02</pdfrwt>
<totfact> 0.23112718E+05</totfact>
</mgrwt>
</event>
<event>
 8    1  0.1226832E-024  0.8032894E+02  0.7818608E-02  0.1328121E+00
          2   -1    0    0  501    0  0.00000000000E+00  0.00000000000E+00  0.13083077272E+02  0.13083077520E+02  0.25500000000E-02 0. -1.
         -1   -1    0    0    0  501 -0.00000000000E+00 -0.00000000000E+00 -0.12330314315E+03  0.12330314326E+03  0.50400000000E-02 0.  1.
         24    2    1    2    0    0  0.00000000000E+00  0.17763568394E-14 -0.11022006588E+03  0.13638622078E+03  0.80328938090E+02 0.  0.
         66    2    3    3    0    0  0.21128995309E+02 -0.12276517347E+02 -0.10780847202E+01  0.24541996353E+02  0.19999993484E+01 0.  0.
        -13    1    3    3    0    0 -0.21128995309E+02  0.12276517347E+02 -0.10914198116E+03  0.11184422442E+03  0.10566000000E+00 0.  1.
         13    1    4    4    0    0  0.12845956474E+02 -0.72229060644E+01 -0.65562344322E+00  0.14752287141E+02  0.10566000000E+00 0. -1.
        -13    1    4    4    0    0  0.46874263176E+01 -0.34828540647E+01 -0.52858549840E+00  0.58645378832E+01  0.10566000000E+00 0.  1.
         14    1    4    4    0    0  0.35956125176E+01 -0.15707572176E+01  0.10612422143E+00  0.39251713292E+01  0.00000000000E+00 0. -1.
<mgrwt>
<rscale>  0 0.80328938E+02</rscale>
<asrwt>0</asrwt>
<pdfrwt beam="1">  1        2 0.20127812E-02 0.80328938E+02</pdfrwt>
<pdfrwt beam="2">  1       -1 0.18969714E-01 0.80328938E+02</pdfrwt>
<totfact> 0.11197408E+05</totfact>
</mgrwt>
</event>
<event>
 8    1  0.1226832E-024  0.8011827E+02  0.7818608E-02  0.1328716E+00
         -1   -1    0    0    0  501 -0.00000000000E+00  0.00000000000E+00  0.91084198934E+01  0.91084212878E+01  0.50400000000E-02 0.  1.
          2   -1    0    0  501    0  0.00000000000E+00 -0.00000000000E+00 -0.17618137932E+03  0.17618137934E+03  0.25500000000E-02 0. -1.
         24    2    1    2    0    0 -0.88817841970E-15  0.00000000000E+00 -0.16707295943E+03  0.18528980063E+03  0.80118265362E+02 0.  0.
         66    2    3    3    0    0 -0.49013683829E+01 -0.26358876212E+02 -0.15234672098E+03  0.15470079885E+03  0.20000006609E+01 0.  0.
        -13    1    3    3    0    0  0.49013683829E+01  0.26358876212E+02 -0.14726238447E+02  0.30589001782E+02  0.10566000000E+00 0.  1.
         13    1    4    4    0    0 -0.21975088158E+01 -0.77715587495E+01 -0.43076037643E+02  0.43826731037E+02  0.10566000000E+00 0. -1.
        -13    1    4    4    0    0 -0.23925185601E+01 -0.16579756742E+02 -0.96696685776E+02  0.98137009750E+02  0.10566000000E+00 0.  1.
         14    1    4    4    0    0 -0.31134100696E+00 -0.20075607204E+01 -0.12573997562E+02  0.12737058058E+02  0.00000000000E+00 0. -1.
<mgrwt>
<rscale>  0 0.80118265E+02</rscale>
<asrwt>0</asrwt>
<pdfrwt beam="1">  1        2 0.27104825E-01 0.80118265E+02</pdfrwt>
<pdfrwt beam="2">  1       -1 0.14012956E-02 0.80118265E+02</pdfrwt>
<totfact> 0.21038192E+05</totfact>
</mgrwt>
</event>
<event>
 8    1  0.1226832E-024  0.8141065E+02  0.7818608E-02  0.1325095E+00
         -1   -1    0    0    0  501 -0.00000000000E+00  0.00000000000E+00  0.82742911102E+01  0.82742926452E+01  0.50400000000E-02 0.  1.
          2   -1    0    0  501    0  0.00000000000E+00 -0.00000000000E+00 -0.20024955900E+03  0.20024955902E+03  0.25500000000E-02 0. -1.
         24    2    1    2    0    0  0.35527136788E-14  0.00000000000E+00 -0.19197526789E+03  0.20852385166E+03  0.81410645682E+02 0.  0.
         66    2    3    3    0    0  0.22159313684E+02  0.33122525393E+02 -0.11697700575E+03  0.12359513238E+03  0.20000003895E+01 0.  0.
        -13    1    3    3    0    0 -0.22159313684E+02 -0.33122525393E+02 -0.74998262141E+02  0.84928719286E+02  0.10566000000E+00 0.  1.
         13    1    4    4    0    0  0.19552232395E+02  0.28947504429E+02 -0.10181504495E+03  0.10764089533E+03  0.10566000000E+00 0. -1.
        -13    1    4    4    0    0  0.25917884876E+01  0.40776517466E+01 -0.14480107255E+02  0.15265296639E+02  0.10566000000E+00 0. -1.
         14    1    4    4    0    0  0.15292801142E-01  0.97369218073E-01 -0.68185354028E+00  0.68894040728E+00  0.00000000000E+00 0. -1.
<mgrwt>
<rscale>  0 0.81410646E+02</rscale>
<asrwt>0</asrwt>
<pdfrwt beam="1">  1        2 0.30807621E-01 0.81410646E+02</pdfrwt>
<pdfrwt beam="2">  1       -1 0.12729681E-02 0.81410646E+02</pdfrwt>
<totfact> 0.21072537E+05</totfact>
</mgrwt>
</event>
<event>
 8    1  0.1226832E-024  0.7945079E+02  0.7818608E-02  0.1330617E+00
          2   -1    0    0  501    0  0.00000000000E+00  0.00000000000E+00  0.44055997302E+01  0.44056004682E+01  0.25500000000E-02 0. -1.
         -1   -1    0    0    0  501 -0.00000000000E+00 -0.00000000000E+00 -0.35820473867E+03  0.35820473871E+03  0.50400000000E-02 0.  1.
         24    2    1    2    0    0  0.00000000000E+00  0.71054273576E-14 -0.35379913894E+03  0.36261033917E+03  0.79450785781E+02 0.  0.
         66    2    3    3    0    0 -0.14974313772E+02  0.35378255896E+02 -0.13131453328E+03  0.13683332089E+03  0.19999983468E+01 0.  0.
        -13    1    3    3    0    0  0.14974313772E+02 -0.35378255896E+02 -0.22248460567E+03  0.22577701828E+03  0.10566000000E+00 0.  1.
         13    1    4    4    0    0 -0.29933187320E+01  0.56698526255E+01 -0.21274664078E+02  0.22220028837E+02  0.10566000000E+00 0. -1.
        -13    1    4    4    0    0 -0.72344239097E+01  0.18067662333E+02 -0.64871912868E+02  0.67728528366E+02  0.10566000000E+00 0.  1.
         14    1    4    4    0    0 -0.47465711301E+01  0.11640740938E+02 -0.45167956329E+02  0.46884763688E+02  0.00000000000E+00 0. -1.
<mgrwt>
<rscale>  0 0.79450786E+02</rscale>
<asrwt>0</asrwt>
<pdfrwt beam="1">  1        2 0.67778491E-03 0.79450786E+02</pdfrwt>
<pdfrwt beam="2">  1       -1 0.55108399E-01 0.79450786E+02</pdfrwt>
<totfact> 0.81442703E+04</totfact>
</mgrwt>
</event>
<event>
 8    1  0.1226832E-024  0.7954873E+02  0.7818608E-02  0.1330337E+00
          2   -1    0    0  501    0  0.00000000000E+00  0.00000000000E+00  0.78733989153E+02  0.78733989194E+02  0.25500000000E-02 0. -1.
         -1   -1    0    0    0  501 -0.00000000000E+00 -0.00000000000E+00 -0.20092973642E+02  0.20092974274E+02  0.50400000000E-02 0.  1.
         24    2    1    2    0    0  0.35527136788E-14 -0.35527136788E-14  0.58641015511E+02  0.98826963468E+02  0.79548727257E+02 0.  0.
         66    2    3    3    0    0  0.23180515685E+02 -0.29680637345E+02  0.13540263403E+02  0.40070129437E+02  0.19999998556E+01 0.  0.
        -13    1    3    3    0    0 -0.23180515685E+02  0.29680637345E+02  0.45100752108E+02  0.58756834031E+02  0.10566000000E+00 0.  1.
         13    1    4    4    0    0  0.18630313522E+02 -0.23767389726E+02  0.10299136788E+02  0.31907064718E+02  0.10566000000E+00 0. -1.
        -13    1    4    4    0    0  0.98558620761E+00 -0.16429755006E+01  0.10239443717E+01  0.21749424774E+01  0.10566000000E+00 0.  1.
         14    1    4    4    0    0  0.35646159550E+01 -0.42702721185E+01  0.22171822428E+01  0.59881222408E+01  0.00000000000E+00 0. -1.
<mgrwt>
<rscale>  0 0.79548727E+02</rscale>
<asrwt>0</asrwt>
<pdfrwt beam="1">  1        2 0.12112921E-01 0.79548727E+02</pdfrwt>
<pdfrwt beam="2">  1       -1 0.30912268E-02 0.79548727E+02</pdfrwt>
<totfact> 0.16883135E+05</totfact>
</mgrwt>
</event>
<event>
 8    1  0.1226832E-024  0.8160885E+02  0.7818608E-02  0.1324547E+00
         -1   -1    0    0    0  501 -0.00000000000E+00  0.00000000000E+00  0.49122004783E+01  0.49122030639E+01  0.50400000000E-02 0.  1.
          2   -1    0    0  501    0  0.00000000000E+00 -0.00000000000E+00 -0.33895209724E+03  0.33895209725E+03  0.25500000000E-02 0. -1.
         24    2    1    2    0    0 -0.35527136788E-14 -0.35527136788E-14 -0.33403989676E+03  0.34386430031E+03  0.81608850020E+02 0.  0.
         66    2    3    3    0    0 -0.15751523763E+02 -0.10193429144E+02 -0.31968248235E+03  0.32023882654E+03  0.20000001341E+01 0.  0.
        -13    1    3    3    0    0  0.15751523763E+02  0.10193429144E+02 -0.14357414408E+02  0.23625473775E+02  0.10566000000E+00 0.  1.
         13    1    4    4    0    0 -0.14016257255E+01 -0.12276660493E+01 -0.25062688001E+02  0.25132075372E+02  0.10566000000E+00 0. -1.
        -13    1    4    4    0    0 -0.57862982403E+01 -0.39802065717E+01 -0.12797362649E+03  0.12816623398E+03  0.10566000000E+00 0.  1.
         14    1    4    4    0    0 -0.85635997972E+01 -0.49855565225E+01 -0.16664616786E+03  0.16694051718E+03  0.00000000000E+00 0. -1.
<mgrwt>
<rscale>  0 0.81608850E+02</rscale>
<asrwt>0</asrwt>
<pdfrwt beam="1">  1        2 0.52146458E-01 0.81608850E+02</pdfrwt>
<pdfrwt beam="2">  1       -1 0.75572362E-03 0.81608850E+02</pdfrwt>
<totfact> 0.25287751E+05</totfact>
</mgrwt>
</event>
<event>
 8    1  0.1226832E-024  0.7991990E+02  0.7818608E-02  0.1329279E+00
         -1   -1    0    0    0  501 -0.00000000000E+00  0.00000000000E+00  0.32062507694E+02  0.32062508091E+02  0.50400000000E-02 0.  1.
          2   -1    0    0  501    0  0.00000000000E+00 -0.00000000000E+00 -0.49802640895E+02  0.49802640960E+02  0.25500000000E-02 0. -1.
         24    2    1    2    0    0  0.00000000000E+00  0.00000000000E+00 -0.17740133201E+02  0.81865149051E+02  0.79919899294E+02 0.  0.
         66    2    3    3    0    0 -0.81795667076E+01  0.38568577890E+02 -0.23686595844E+01  0.39548085387E+02  0.19999993813E+01 0.  0.
        -13    1    3    3    0    0  0.81795667076E+01 -0.38568577890E+02 -0.15371473616E+02  0.42317063664E+02  0.10566000000E+00 0.  1.
         13    1    4    4    0    0 -0.31780823150E+01  0.13200697631E+02 -0.70964309935E+00  0.13596815161E+02  0.10566000000E+00 0. -1.
        -13    1    4    4    0    0 -0.12723737899E+01  0.86068919576E+01 -0.11109236878E+01  0.87717067727E+01  0.10566000000E+00 0.  1.
        -14    1    4    4    0    0 -0.37291106027E+01  0.16760988301E+02 -0.54809279723E+00  0.17179563453E+02  0.00000000000E+00 0.  1.
<mgrwt>
<rscale>  0 0.79919899E+02</rscale>
<asrwt>0</asrwt>
<pdfrwt beam="1">  1        2 0.76619447E-02 0.79919899E+02</pdfrwt>
<pdfrwt beam="2">  1       -1 0.49326936E-02 0.79919899E+02</pdfrwt>
<totfact> 0.14971175E+05</totfact>
</mgrwt>
</event>
<event>
 8    1  0.1226832E-024  0.7960708E+02  0.7818608E-02  0.1330170E+00
         -1   -1    0    0    0  501 -0.00000000000E+00  0.00000000000E+00  0.56356049972E+01  0.56356072508E+01  0.50400000000E-02 0.  1.
          2   -1    0    0  501    0  0.00000000000E+00 -0.00000000000E+00 -0.28112716509E+03  0.28112716511E+03  0.25500000000E-02 0. -1.
         24    2    1    2    0    0  0.00000000000E+00  0.00000000000E+00 -0.27549156010E+03  0.28676277236E+03  0.79607084640E+02 0.  0.
         66    2    3    3    0    0 -0.59043610142E+01 -0.89691356583E+01 -0.27580341647E+03  0.27601962143E+03  0.20000011119E+01 0.  0.
        -13    1    3    3    0    0  0.59043610142E+01  0.89691356583E+01  0.31185637090E+00  0.10743150929E+02  0.10566000000E+00 0.  1.
         13    1    4    4    0    0 -0.13426261399E+01 -0.27061120679E+01 -0.86359500463E+02  0.86412384366E+02  0.10566000000E+00 0. -1.
        -13    1    4    4    0    0 -0.34806654835E+01 -0.43990800271E+01 -0.12205837301E+03  0.12218725188E+03  0.10566000000E+00 0.  1.
         14    1    4    4    0    0 -0.10810693907E+01 -0.18639435633E+01 -0.67385542995E+02  0.67419985178E+02  0.00000000000E+00 0. -1.
<mgrwt>
<rscale>  0 0.79607085E+02</rscale>
<asrwt>0</asrwt>
<pdfrwt beam="1">  1        2 0.43250322E-01 0.79607085E+02</pdfrwt>
<pdfrwt beam="2">  1       -1 0.86701655E-03 0.79607085E+02</pdfrwt>
<totfact> 0.25225137E+05</totfact>
</mgrwt>
</event>
<event>
 8    1  0.1226832E-024  0.7953365E+02  0.7818608E-02  0.1330380E+00
          2   -1    0    0  501    0  0.00000000000E+00  0.00000000000E+00  0.71907134338E+03  0.71907134338E+03  0.25500000000E-02 0. -1.
         -1   -1    0    0    0  501 -0.00000000000E+00 -0.00000000000E+00 -0.21992228955E+01  0.21992286706E+01  0.50400000000E-02 0.  1.
         24    2    1    2    0    0  0.00000000000E+00  0.00000000000E+00  0.71687212048E+03  0.72127057205E+03  0.79533646872E+02 0.  0.
         66    2    3    3    0    0  0.22680874540E+02  0.26290075231E+02  0.53399762977E+03  0.53512901129E+03  0.19999999612E+01 0.  0.
        -13    1    3    3    0    0 -0.22680874540E+02 -0.26290075231E+02  0.18287449071E+03  0.18614156076E+03  0.10566000000E+00 0.  1.
         13    1    4    4    0    0  0.55997709778E+01  0.68374764318E+01  0.13540476418E+03  0.13569292482E+03  0.10566000000E+00 0. -1.
        -13    1    4    4    0    0  0.85384062831E+01  0.85353306423E+01  0.18170518630E+03  0.18210585423E+03  0.10566000000E+00 0.  1.
        -14    1    4    4    0    0  0.85426972787E+01  0.10917268157E+02  0.21688767929E+03  0.21733023224E+03  0.00000000000E+00 0.  1.
<mgrwt>
<rscale>  0 0.79533647E+02</rscale>
<asrwt>0</asrwt>
<pdfrwt beam="1">  1        2 0.11062630E+00 0.79533647E+02</pdfrwt>
<pdfrwt beam="2">  1       -1 0.33834261E-03 0.79533647E+02</pdfrwt>
<totfact> 0.34168663E+05</totfact>
</mgrwt>
</event>
<event>
 8    1  0.1226832E-024  0.8009863E+02  0.7818608E-02  0.1328772E+00
         -1   -1    0    0    0  501 -0.00000000000E+00  0.00000000000E+00  0.27527070174E+03  0.27527070179E+03  0.50400000000E-02 0.  1.
          2   -1    0    0  501    0  0.00000000000E+00 -0.00000000000E+00 -0.58268011079E+01  0.58268016659E+01  0.25500000000E-02 0. -1.
         24    2    1    2    0    0 -0.71054273576E-14 -0.88817841970E-15  0.26944390063E+03  0.28109750345E+03  0.80098632068E+02 0.  0.
         66    2    3    3    0    0 -0.38262726436E+02  0.75399016207E+01  0.10321018677E+03  0.11035048257E+03  0.20000000479E+01 0.  0.
        -13    1    3    3    0    0  0.38262726436E+02 -0.75399016207E+01  0.16623371387E+03  0.17074702088E+03  0.10566000000E+00 0.  1.
         13    1    4    4    0    0 -0.32250373567E+01  0.93719974128E+00  0.93948941375E+01  0.99776955855E+01  0.10566000000E+00 0. -1.
        -13    1    4    4    0    0 -0.82875888764E+01  0.19793731603E+01  0.21133418729E+02  0.22786719789E+02  0.10566000000E+00 0.  1.
         14    1    4    4    0    0 -0.26750100202E+02  0.46233287192E+01  0.72681873899E+02  0.77586067195E+02  0.00000000000E+00 0. -1.
<mgrwt>
<rscale>  0 0.80098632E+02</rscale>
<asrwt>0</asrwt>
<pdfrwt beam="1">  1        2 0.89643101E-03 0.80098632E+02</pdfrwt>
<pdfrwt beam="2">  1       -1 0.42349338E-01 0.80098632E+02</pdfrwt>
<totfact> 0.89118108E+04</totfact>
</mgrwt>
</event>
<event>
 8    1  0.1226832E-024  0.7854788E+02  0.7818608E-02  0.1333224E+00
          2   -1    0    0  501    0  0.00000000000E+00  0.00000000000E+00  0.11932049570E+03  0.11932049573E+03  0.25500000000E-02 0. -1.
         -1   -1    0    0    0  501 -0.00000000000E+00 -0.00000000000E+00 -0.12926883134E+02  0.12926884117E+02  0.50400000000E-02 0.  1.
         24    2    1    2    0    0  0.00000000000E+00  0.00000000000E+00  0.10639361256E+03  0.13224737984E+03  0.78547875087E+02 0.  0.
         66    2    3    3    0    0 -0.32158878520E+02  0.10627038807E+02  0.86621475576E+02  0.93029067964E+02  0.20000084931E+01 0.  0.
        -13    1    3    3    0    0  0.32158878520E+02 -0.10627038807E+02  0.19772136989E+02  0.39218311878E+02  0.10566000000E+00 0.  1.
         13    1    4    4    0    0 -0.19888007894E+02  0.69803306150E+01  0.53776795251E+02  0.57759957973E+02  0.10566000000E+00 0. -1.
        -13    1    4    4    0    0 -0.10467512358E+02  0.34617753573E+01  0.27650137139E+02  0.29767330271E+02  0.10566000000E+00 0.  1.
        -14    1    4    4    0    0 -0.18033582673E+01  0.18493283450E+00  0.51945431854E+01  0.55017797210E+01  0.00000000000E+00 0.  1.
<mgrwt>
<rscale>  0 0.78547875E+02</rscale>
<asrwt>0</asrwt>
<pdfrwt beam="1">  1        2 0.18356999E-01 0.78547875E+02</pdfrwt>
<pdfrwt beam="2">  1       -1 0.19887514E-02 0.78547875E+02</pdfrwt>
<totfact> 0.19587931E+05</totfact>
</mgrwt>
</event>
<event>
 8    1  0.1226832E-024  0.7918592E+02  0.7818608E-02  0.1331378E+00
         -1   -1    0    0    0  501 -0.00000000000E+00  0.00000000000E+00  0.47621491990E+01  0.47621518661E+01  0.50400000000E-02 0.  1.
          2   -1    0    0  501    0  0.00000000000E+00 -0.00000000000E+00 -0.32917954818E+03  0.32917954819E+03  0.25500000000E-02 0. -1.
         24    2    1    2    0    0  0.00000000000E+00 -0.35527136788E-14 -0.32441739898E+03  0.33394170006E+03  0.79185922200E+02 0.  0.
         66    2    3    3    0    0 -0.11611667335E+02 -0.22103749193E+02 -0.29175893943E+03  0.29283217937E+03  0.19999977692E+01 0.  0.
        -13    1    3    3    0    0  0.11611667335E+02  0.22103749193E+02 -0.32658459552E+02  0.41109520686E+02  0.10566000000E+00 0.  1.
         13    1    4    4    0    0 -0.61659130735E+01 -0.11344803602E+02 -0.14414027201E+03  0.14471749111E+03  0.10566000000E+00 0. -1.
        -13    1    4    4    0    0 -0.21900081063E+01 -0.38415322450E+01 -0.60258597366E+02  0.60420718516E+02  0.10566000000E+00 0.  1.
        -14    1    4    4    0    0 -0.32557461553E+01 -0.69174133461E+01 -0.87360070057E+02  0.87693969751E+02  0.00000000000E+00 0.  1.
<mgrwt>
<rscale>  0 0.79185922E+02</rscale>
<asrwt>0</asrwt>
<pdfrwt beam="1">  1        2 0.50642990E-01 0.79185922E+02</pdfrwt>
<pdfrwt beam="2">  1       -1 0.73263880E-03 0.79185922E+02</pdfrwt>
<totfact> 0.27078762E+05</totfact>
</mgrwt>
</event>
<event>
 8    1  0.1226832E-024  0.8166306E+02  0.7818608E-02  0.1324397E+00
         -1   -1    0    0    0  501 -0.00000000000E+00  0.00000000000E+00  0.38262638262E+01  0.38262671455E+01  0.50400000000E-02 0.  1.
          2   -1    0    0  501    0  0.00000000000E+00 -0.00000000000E+00 -0.43572875714E+03  0.43572875715E+03  0.25500000000E-02 0. -1.
         24    2    1    2    0    0  0.00000000000E+00  0.17763568394E-14 -0.43190249331E+03  0.43955502429E+03  0.81663061726E+02 0.  0.
         66    2    3    3    0    0 -0.22827762671E+02 -0.83435614043E+01 -0.39251682045E+03  0.39327366566E+03  0.20000011539E+01 0.  0.
        -13    1    3    3    0    0  0.22827762671E+02  0.83435614043E+01 -0.39385672867E+02  0.46281358631E+02  0.10566000000E+00 0.  1.
         13    1    4    4    0    0 -0.93890408152E+01 -0.39856466515E+01 -0.17553273538E+03  0.17582887084E+03  0.10566000000E+00 0. -1.
        -13    1    4    4    0    0 -0.99781743427E+01 -0.31464718062E+01 -0.16532513904E+03  0.16565589941E+03  0.10566000000E+00 0.  1.
         14    1    4    4    0    0 -0.34605475126E+01 -0.12114429467E+01 -0.51658946032E+02  0.51788895415E+02  0.00000000000E+00 0. -1.
<mgrwt>
<rscale>  0 0.81663062E+02</rscale>
<asrwt>0</asrwt>
<pdfrwt beam="1">  1        2 0.67035154E-01 0.81663062E+02</pdfrwt>
<pdfrwt beam="2">  1       -1 0.58865658E-03 0.81663062E+02</pdfrwt>
<totfact> 0.27577085E+05</totfact>
</mgrwt>
</event>
<event>
 8    1  0.1226832E-024  0.8204678E+02  0.7818608E-02  0.1323341E+00
         -1   -1    0    0    0  501 -0.00000000000E+00  0.00000000000E+00  0.50758260074E+01  0.50758285096E+01  0.50400000000E-02 0.  1.
          2   -1    0    0  501    0  0.00000000000E+00 -0.00000000000E+00 -0.33155554209E+03  0.33155554210E+03  0.25500000000E-02 0. -1.
         24    2    1    2    0    0  0.00000000000E+00  0.00000000000E+00 -0.32647971608E+03  0.33663137061E+03  0.82046783392E+02 0.  0.
         66    2    3    3    0    0 -0.26342895514E+02  0.20928394319E+02 -0.25946825282E+03  0.26164808444E+03  0.20000085831E+01 0.  0.
        -13    1    3    3    0    0  0.26342895514E+02 -0.20928394319E+02 -0.67011463259E+02  0.74983286170E+02  0.10566000000E+00 0.  1.
         13    1    4    4    0    0 -0.10978393736E+02  0.78742812925E+01 -0.10132358208E+03  0.10222039368E+03  0.10566000000E+00 0. -1.
        -13    1    4    4    0    0 -0.88621194871E+01  0.80734146985E+01 -0.92035173469E+02  0.92812722760E+02  0.10566000000E+00 0.  1.
        -14    1    4    4    0    0 -0.65023822906E+01  0.49806983277E+01 -0.66109497274E+02  0.66614967996E+02  0.00000000000E+00 0.  1.
<mgrwt>
<rscale>  0 0.82046783E+02</rscale>
<asrwt>0</asrwt>
<pdfrwt beam="1">  1        2 0.51008528E-01 0.82046783E+02</pdfrwt>
<pdfrwt beam="2">  1       -1 0.78089676E-03 0.82046783E+02</pdfrwt>
<totfact> 0.24737953E+05</totfact>
</mgrwt>
</event>
<event>
 8    1  0.1226832E-024  0.8248593E+02  0.7818608E-02  0.1322141E+00
         -1   -1    0    0    0  501 -0.00000000000E+00  0.00000000000E+00  0.16287231612E+01  0.16287309592E+01  0.50400000000E-02 0.  1.
          2   -1    0    0  501    0  0.00000000000E+00 -0.00000000000E+00 -0.10443630022E+04  0.10443630022E+04  0.25500000000E-02 0. -1.
         24    2    1    2    0    0  0.35527136788E-14  0.00000000000E+00 -0.10427342790E+04  0.10459917332E+04  0.82485933111E+02 0.  0.
         66    2    3    3    0    0 -0.23410642217E+02  0.65712124423E+01 -0.94372574778E+03  0.94404106162E+03  0.19999995493E+01 0.  0.
        -13    1    3    3    0    0  0.23410642217E+02 -0.65712124423E+01 -0.99008531252E+02  0.10195067154E+03  0.10566000000E+00 0.  1.
         13    1    4    4    0    0 -0.32181739897E+01  0.13883198804E+01 -0.13416973895E+03  0.13421555085E+03  0.10566000000E+00 0. -1.
        -13    1    4    4    0    0 -0.48485757978E+01  0.15387456560E+01 -0.21740464210E+03  0.21746417175E+03  0.10566000000E+00 0.  1.
         14    1    4    4    0    0 -0.15343892430E+02  0.36441469059E+01 -0.59215136673E+03  0.59236133902E+03  0.00000000000E+00 0. -1.
<mgrwt>
<rscale>  0 0.82485933E+02</rscale>
<asrwt>0</asrwt>
<pdfrwt beam="1">  1        2 0.16067070E+00 0.82485933E+02</pdfrwt>
<pdfrwt beam="2">  1       -1 0.25057423E-03 0.82485933E+02</pdfrwt>
<totfact> 0.32573407E+05</totfact>
</mgrwt>
</event>
<event>
 8    1  0.1254354E-024  0.8361560E+02  0.7818608E-02  0.1319093E+00
         -1   -1    0    0    0  501 -0.00000000000E+00  0.00000000000E+00  0.28496893721E+01  0.28496938290E+01  0.50400000000E-02 0.  1.
          2   -1    0    0  501    0  0.00000000000E+00 -0.00000000000E+00 -0.61336178416E+03  0.61336178417E+03  0.25500000000E-02 0. -1.
         24    2    1    2    0    0 -0.17763568394E-14  0.17763568394E-14 -0.61051209479E+03  0.61621147800E+03  0.83615595015E+02 0.  0.
         66    2    3    3    0    0 -0.89393869818E+01  0.14581931574E+02 -0.58637846067E+03  0.58663126793E+03  0.20000001003E+01 0.  0.
        -13    1    3    3    0    0  0.89393869818E+01 -0.14581931574E+02 -0.24133634118E+02  0.29580210070E+02  0.10566000000E+00 0.  1.
         13    1    4    4    0    0 -0.44552405746E+01  0.63841653784E+01 -0.27737148118E+03  0.27748073171E+03  0.10566000000E+00 0. -1.
        -13    1    4    4    0    0 -0.13038387060E+01  0.14140489403E+01 -0.60861509742E+02  0.60891986845E+02  0.10566000000E+00 0.  1.
        -14    1    4    4    0    0 -0.31803077013E+01  0.67837172550E+01 -0.24814546975E+03  0.24825854937E+03  0.00000000000E+00 0.  1.
<mgrwt>
<rscale>  0 0.83615595E+02</rscale>
<asrwt>0</asrwt>
<pdfrwt beam="1">  1        2 0.94363246E-01 0.83615595E+02</pdfrwt>
<pdfrwt beam="2">  1       -1 0.43841458E-03 0.83615595E+02</pdfrwt>
<totfact> 0.28836387E+05</totfact>
</mgrwt>
</event>
<event>
 8    1  0.1226832E-024  0.7926520E+02  0.7818608E-02  0.1331150E+00
         -1   -1    0    0    0  501 -0.00000000000E+00  0.00000000000E+00  0.50519985149E+02  0.50519985401E+02  0.50400000000E-02 0.  1.
          2   -1    0    0  501    0  0.00000000000E+00 -0.00000000000E+00 -0.31091518720E+02  0.31091518825E+02  0.25500000000E-02 0. -1.
         24    2    1    2    0    0  0.00000000000E+00  0.00000000000E+00  0.19428466429E+02  0.81611504225E+02  0.79265202417E+02 0.  0.
         66    2    3    3    0    0 -0.20287685735E+02  0.95924232731E+01 -0.23882038598E+02  0.32832248527E+02  0.19999997612E+01 0.  0.
        -13    1    3    3    0    0  0.20287685735E+02 -0.95924232731E+01  0.43310505027E+02  0.48779255698E+02  0.10566000000E+00 0.  1.
         13    1    4    4    0    0 -0.94390522970E+01  0.44730928181E+01 -0.10566919062E+02  0.14858506322E+02  0.10566000000E+00 0. -1.
        -13    1    4    4    0    0 -0.37869394503E+01  0.19436527064E+01 -0.38063389440E+01  0.57112237249E+01  0.10566000000E+00 0.  1.
         14    1    4    4    0    0 -0.70616939874E+01  0.31756777486E+01 -0.95087805923E+01  0.12262518481E+02  0.00000000000E+00 0. -1.
<mgrwt>
<rscale>  0 0.79265202E+02</rscale>
<asrwt>0</asrwt>
<pdfrwt beam="1">  1        2 0.47833105E-02 0.79265202E+02</pdfrwt>
<pdfrwt beam="2">  1       -1 0.77723055E-02 0.79265202E+02</pdfrwt>
<totfact> 0.13904692E+05</totfact>
</mgrwt>
</event>
<event>
 8    1  0.1226832E-024  0.8212474E+02  0.7818608E-02  0.1323128E+00
          2   -1    0    0  501    0  0.00000000000E+00  0.00000000000E+00  0.73939664937E+02  0.73939664981E+02  0.25500000000E-02 0. -1.
         -1   -1    0    0    0  501 -0.00000000000E+00 -0.00000000000E+00 -0.22803974516E+02  0.22803975073E+02  0.50400000000E-02 0.  1.
         24    2    1    2    0    0  0.00000000000E+00  0.00000000000E+00  0.51135690421E+02  0.96743640054E+02  0.82124740828E+02 0.  0.
         66    2    3    3    0    0 -0.30069681471E+02 -0.57484120744E+01  0.57776955043E+02  0.65417172890E+02  0.19999974079E+01 0.  0.
        -13    1    3    3    0    0  0.30069681471E+02  0.57484120744E+01 -0.66412646224E+01  0.31326467164E+02  0.10566000000E+00 0.  1.
         13    1    4    4    0    0 -0.39691803042E+01 -0.44728984670E+00  0.75594997136E+01  0.85505356820E+01  0.10566000000E+00 0. -1.
        -13    1    4    4    0    0 -0.20110394479E+02 -0.47779425999E+01  0.39024951899E+02  0.44161235675E+02  0.10566000000E+00 0.  1.
        -14    1    4    4    0    0 -0.59901066877E+01 -0.52317962783E+00  0.11192503430E+02  0.12705401532E+02  0.00000000000E+00 0.  1.
<mgrwt>
<rscale>  0 0.82124741E+02</rscale>
<asrwt>0</asrwt>
<pdfrwt beam="1">  1        2 0.11375333E-01 0.82124741E+02</pdfrwt>
<pdfrwt beam="2">  1       -1 0.35083038E-02 0.82124741E+02</pdfrwt>
<totfact> 0.15245136E+05</totfact>
</mgrwt>
</event>
<event>
 8    1  0.1226832E-024  0.8020303E+02  0.7818608E-02  0.1328476E+00
         -1   -1    0    0    0  501 -0.00000000000E+00  0.00000000000E+00  0.28470530155E+01  0.28470574766E+01  0.50400000000E-02 0.  1.
          2   -1    0    0  501    0  0.00000000000E+00 -0.00000000000E+00 -0.56484029956E+03  0.56484029956E+03  0.25500000000E-02 0. -1.
         24    2    1    2    0    0  0.35527136788E-14  0.71054273576E-14 -0.56199324654E+03  0.56768735704E+03  0.80203031015E+02 0.  0.
         66    2    3    3    0    0  0.17290740081E+02  0.35620745096E+02 -0.32498637639E+03  0.32739571166E+03  0.20000009315E+01 0.  0.
        -13    1    3    3    0    0 -0.17290740081E+02 -0.35620745096E+02 -0.23700687015E+03  0.24029164537E+03  0.10566000000E+00 0.  1.
         13    1    4    4    0    0  0.61592080970E+01  0.12686016244E+02 -0.11803050271E+03  0.11887001972E+03  0.10566000000E+00 0. -1.
        -13    1    4    4    0    0  0.53555266089E+01  0.10550797953E+02 -0.90145660137E+02  0.90918932067E+02  0.10566000000E+00 0.  1.
        -14    1    4    4    0    0  0.57760053747E+01  0.12383930898E+02 -0.11681021354E+03  0.11760675988E+03  0.00000000000E+00 0.  1.
<mgrwt>
<rscale>  0 0.80203031E+02</rscale>
<asrwt>0</asrwt>
<pdfrwt beam="1">  1        2 0.86898419E-01 0.80203031E+02</pdfrwt>
<pdfrwt beam="2">  1       -1 0.43800895E-03 0.80203031E+02</pdfrwt>
<totfact> 0.31404266E+05</totfact>
</mgrwt>
</event>
<event>
 8    1  0.1226832E-024  0.8011846E+02  0.7818608E-02  0.1328716E+00
          2   -1    0    0  501    0  0.00000000000E+00  0.00000000000E+00  0.55316824549E+03  0.55316824550E+03  0.25500000000E-02 0. -1.
         -1   -1    0    0    0  501 -0.00000000000E+00 -0.00000000000E+00 -0.29009995265E+01  0.29010039046E+01  0.50400000000E-02 0.  1.
         24    2    1    2    0    0  0.35527136788E-14  0.00000000000E+00  0.55026724597E+03  0.55606924940E+03  0.80118463219E+02 0.  0.
         66    2    3    3    0    0  0.23544454652E+02  0.17236287846E+02  0.46554586181E+03  0.46646369678E+03  0.20000003478E+01 0.  0.
        -13    1    3    3    0    0 -0.23544454652E+02 -0.17236287846E+02  0.84721384154E+02  0.89605552621E+02  0.10566000000E+00 0.  1.
         13    1    4    4    0    0  0.42967271967E+01  0.24891989019E+01  0.79971505418E+02  0.80125594030E+02  0.10566000000E+00 0. -1.
        -13    1    4    4    0    0  0.74367272731E+00  0.33935553529E+00  0.11795920323E+02  0.11824682305E+02  0.10566000000E+00 0.  1.
         14    1    4    4    0    0  0.18504054728E+02  0.14407733409E+02  0.37377843607E+03  0.37451342045E+03  0.00000000000E+00 0. -1.
<mgrwt>
<rscale>  0 0.80118463E+02</rscale>
<asrwt>0</asrwt>
<pdfrwt beam="1">  1        2 0.85102857E-01 0.80118463E+02</pdfrwt>
<pdfrwt beam="2">  1       -1 0.44630769E-03 0.80118463E+02</pdfrwt>
<totfact> 0.31296285E+05</totfact>
</mgrwt>
</event>
<event>
 8    1  0.1226832E-024  0.7884606E+02  0.7818608E-02  0.1332358E+00
         -1   -1    0    0    0  501 -0.00000000000E+00  0.00000000000E+00  0.18401217608E+02  0.18401218298E+02  0.50400000000E-02 0.  1.
          2   -1    0    0  501    0  0.00000000000E+00 -0.00000000000E+00 -0.84460454855E+02  0.84460454893E+02  0.25500000000E-02 0. -1.
         24    2    1    2    0    0 -0.35527136788E-14  0.71054273576E-14 -0.66059237247E+02  0.10286167319E+03  0.78846058786E+02 0.  0.
         66    2    3    3    0    0 -0.24642714156E+02  0.29913355948E+02 -0.42284691152E+02  0.57393965628E+02  0.19999899029E+01 0.  0.
        -13    1    3    3    0    0  0.24642714156E+02 -0.29913355948E+02 -0.23774546094E+02  0.45467707563E+02  0.10566000000E+00 0.  1.
         13    1    4    4    0    0 -0.13478393679E+02  0.15319652956E+02 -0.21871220429E+02  0.29911875734E+02  0.10566000000E+00 0.  1.
        -13    1    4    4    0    0 -0.17334278066E+01  0.28549739708E+01 -0.36444578862E+01  0.49445814438E+01  0.10566000000E+00 0. -1.
         14    1    4    4    0    0 -0.94308926708E+01  0.11738729021E+02 -0.16769012838E+02  0.22537508450E+02  0.00000000000E+00 0. -1.
<mgrwt>
<rscale>  0 0.78846059E+02</rscale>
<asrwt>0</asrwt>
<pdfrwt beam="1">  1        2 0.12993916E-01 0.78846059E+02</pdfrwt>
<pdfrwt beam="2">  1       -1 0.28309567E-02 0.78846059E+02</pdfrwt>
<totfact> 0.17607057E+05</totfact>
</mgrwt>
</event>
<event>
 8    1  0.1226832E-024  0.8017644E+02  0.7818608E-02  0.1328551E+00
         -1   -1    0    0    0  501 -0.00000000000E+00  0.00000000000E+00  0.18183827225E+03  0.18183827232E+03  0.50400000000E-02 0.  1.
          2   -1    0    0  501    0  0.00000000000E+00 -0.00000000000E+00 -0.88378818949E+01  0.88378822628E+01  0.25500000000E-02 0. -1.
         24    2    1    2    0    0  0.00000000000E+00  0.00000000000E+00  0.17300039035E+03  0.19067615458E+03  0.80176435836E+02 0.  0.
         66    2    3    3    0    0  0.37872354549E+02  0.90227677695E+01  0.10903197408E+03  0.11579160997E+03  0.19999974404E+01 0.  0.
        -13    1    3    3    0    0 -0.37872354549E+02 -0.90227677695E+01  0.63968416270E+02  0.74884544610E+02  0.10566000000E+00 0.  1.
         13    1    4    4    0    0  0.11717551905E+02  0.29433844364E+01  0.32780282582E+02  0.34935978944E+02  0.10566000000E+00 0. -1.
        -13    1    4    4    0    0  0.36964169923E+00  0.12559497112E+00  0.16635666594E+01  0.17120242839E+01  0.10566000000E+00 0.  1.
        -14    1    4    4    0    0  0.25785160945E+02  0.59537883620E+01  0.74588124841E+02  0.79143606742E+02  0.00000000000E+00 0.  1.
<mgrwt>
<rscale>  0 0.80176436E+02</rscale>
<asrwt>0</asrwt>
<pdfrwt beam="1">  1        2 0.13596741E-02 0.80176436E+02</pdfrwt>
<pdfrwt beam="2">  1       -1 0.27975120E-01 0.80176436E+02</pdfrwt>
<totfact> 0.10185616E+05</totfact>
</mgrwt>
</event>
<event>
 8    1  0.1226832E-024  0.8074034E+02  0.7818608E-02  0.1326963E+00
          2   -1    0    0  501    0  0.00000000000E+00  0.00000000000E+00  0.25450313709E+03  0.25450313711E+03  0.25500000000E-02 0. -1.
         -1   -1    0    0    0  501 -0.00000000000E+00 -0.00000000000E+00 -0.64036549426E+01  0.64036569260E+01  0.50400000000E-02 0.  1.
         24    2    1    2    0    0  0.00000000000E+00  0.44408920985E-15  0.24809948215E+03  0.26090679403E+03  0.80740337680E+02 0.  0.
         66    2    3    3    0    0 -0.12868171016E+02 -0.21280528862E+01  0.24749805421E+03  0.24784956178E+03  0.20000008305E+01 0.  0.
        -13    1    3    3    0    0  0.12868171016E+02  0.21280528862E+01  0.60142793902E+00  0.13057232249E+02  0.10566000000E+00 0.  1.
         13    1    4    4    0    0 -0.46787333195E+01 -0.37959479346E+00  0.81933966659E+02  0.82068390348E+02  0.10566000000E+00 0. -1.
        -13    1    4    4    0    0 -0.52005627529E+01 -0.16493029389E+01  0.99689132880E+02  0.99838371539E+02  0.10566000000E+00 0.  1.
         14    1    4    4    0    0 -0.29888749439E+01 -0.99155153783E-01  0.65874954672E+02  0.65942799897E+02  0.00000000000E+00 0. -1.
<mgrwt>
<rscale>  0 0.80740338E+02</rscale>
<asrwt>0</asrwt>
<pdfrwt beam="1">  1        2 0.39154325E-01 0.80740338E+02</pdfrwt>
<pdfrwt beam="2">  1       -1 0.98517794E-03 0.80740338E+02</pdfrwt>
<totfact> 0.23446741E+05</totfact>
</mgrwt>
</event>
<event>
 8    1  0.1226832E-024  0.7833675E+02  0.7818608E-02  0.1333839E+00
         -1   -1    0    0    0  501 -0.00000000000E+00  0.00000000000E+00  0.10939577978E+02  0.10939579139E+02  0.50400000000E-02 0.  1.
          2   -1    0    0  501    0  0.00000000000E+00 -0.00000000000E+00 -0.14023956905E+03  0.14023956907E+03  0.25500000000E-02 0. -1.
         24    2    1    2    0    0  0.00000000000E+00  0.17763568394E-14 -0.12929999107E+03  0.15117914821E+03  0.78336754866E+02 0.  0.
         66    2    3    3    0    0 -0.14634927451E+02  0.12203449102E+02 -0.13067670425E+03  0.13207386688E+03  0.20000021040E+01 0.  0.
        -13    1    3    3    0    0  0.14634927451E+02 -0.12203449102E+02  0.13767131763E+01  0.19105281330E+02  0.10566000000E+00 0.  1.
         13    1    4    4    0    0 -0.11918703739E+02  0.95548908807E+01 -0.10069007218E+03  0.10184229592E+03  0.10566000000E+00 0. -1.
        -13    1    4    4    0    0 -0.95069457947E+00  0.11870729261E+01 -0.13672212489E+02  0.13756944454E+02  0.10566000000E+00 0.  1.
         14    1    4    4    0    0 -0.17655291329E+01  0.14614852956E+01 -0.16314419578E+02  0.16474626507E+02  0.00000000000E+00 0. -1.
<mgrwt>
<rscale>  0 0.78336755E+02</rscale>
<asrwt>0</asrwt>
<pdfrwt beam="1">  1        2 0.21575317E-01 0.78336755E+02</pdfrwt>
<pdfrwt beam="2">  1       -1 0.16830122E-02 0.78336755E+02</pdfrwt>
<totfact> 0.20728986E+05</totfact>
</mgrwt>
</event>
<event>
 8    1  0.1226832E-024  0.8016035E+02  0.7818608E-02  0.1328597E+00
          2   -1    0    0  501    0  0.00000000000E+00  0.00000000000E+00  0.44003063713E+03  0.44003063714E+03  0.25500000000E-02 0. -1.
         -1   -1    0    0    0  501 -0.00000000000E+00 -0.00000000000E+00 -0.36506995213E+01  0.36507030003E+01  0.50400000000E-02 0.  1.
         24    2    1    2    0    0  0.00000000000E+00  0.35527136788E-14  0.43637993761E+03  0.44368134014E+03  0.80160349545E+02 0.  0.
         66    2    3    3    0    0  0.17759039886E+02 -0.26609798901E+02  0.35173319038E+03  0.35319074463E+03  0.19999952730E+01 0.  0.
        -13    1    3    3    0    0 -0.17759039886E+02  0.26609798901E+02  0.84646747232E+02  0.90490595513E+02  0.10566000000E+00 0.  1.
         13    1    4    4    0    0  0.98197453991E+01 -0.14244587306E+02  0.18932818061E+03  0.19011708709E+03  0.10566000000E+00 0. -1.
        -13    1    4    4    0    0  0.92904004803E+00 -0.81237239202E+00  0.13361987165E+02  0.13419274546E+02  0.10566000000E+00 0.  1.
         14    1    4    4    0    0  0.70102544386E+01 -0.11552839203E+02  0.14904302260E+03  0.14965438299E+03  0.00000000000E+00 0. -1.
<mgrwt>
<rscale>  0 0.80160350E+02</rscale>
<asrwt>0</asrwt>
<pdfrwt beam="1">  1        2 0.67697047E-01 0.80160350E+02</pdfrwt>
<pdfrwt beam="2">  1       -1 0.56164613E-03 0.80160350E+02</pdfrwt>
<totfact> 0.29044939E+05</totfact>
</mgrwt>
</event>
<event>
 8    1  0.1226832E-024  0.7854862E+02  0.7818608E-02  0.1333221E+00
          2   -1    0    0  501    0  0.00000000000E+00  0.00000000000E+00  0.13531172329E+04  0.13531172329E+04  0.25500000000E-02 0. -1.
         -1   -1    0    0    0  501 -0.00000000000E+00 -0.00000000000E+00 -0.11399336281E+01  0.11399447697E+01  0.50400000000E-02 0.  1.
         24    2    1    2    0    0  0.17763568394E-14  0.88817841970E-15  0.13519772993E+04  0.13542571777E+04  0.78548618892E+02 0.  0.
         66    2    3    3    0    0  0.82174154375E+01 -0.70009096519E+01  0.13270144672E+04  0.13270598837E+04  0.20000007115E+01 0.  0.
        -13    1    3    3    0    0 -0.82174154375E+01  0.70009096519E+01  0.24962832028E+02  0.27197293970E+02  0.10566000000E+00 0.  1.
         13    1    4    4    0    0  0.29625072469E+01 -0.19838977948E+01  0.45654936730E+03  0.45656330146E+03  0.10566000000E+00 0. -1.
        -13    1    4    4    0    0  0.19140051819E+01 -0.20094671661E+01  0.41530152838E+03  0.41531081375E+03  0.10566000000E+00 0.  1.
         14    1    4    4    0    0  0.33409030088E+01 -0.30075446910E+01  0.45516357157E+03  0.45518576849E+03  0.00000000000E+00 0. -1.
<mgrwt>
<rscale>  0 0.78548619E+02</rscale>
<asrwt>0</asrwt>
<pdfrwt beam="1">  1        2 0.20817160E+00 0.78548619E+02</pdfrwt>
<pdfrwt beam="2">  1       -1 0.17537550E-03 0.78548619E+02</pdfrwt>
<totfact> 0.35987579E+05</totfact>
</mgrwt>
</event>
<event>
 8    1  0.1226832E-024  0.8159113E+02  0.7818608E-02  0.1324596E+00
          2   -1    0    0  501    0  0.00000000000E+00  0.00000000000E+00  0.23457855413E+02  0.23457855551E+02  0.25500000000E-02 0. -1.
         -1   -1    0    0    0  501 -0.00000000000E+00 -0.00000000000E+00 -0.70947587947E+02  0.70947588126E+02  0.50400000000E-02 0.  1.
         24    2    1    2    0    0  0.71054273576E-14  0.00000000000E+00 -0.47489732534E+02  0.94405443677E+02  0.81591133708E+02 0.  0.
         66    2    3    3    0    0  0.23996730219E+02 -0.63695775430E+01  0.13659768625E+02  0.28407813149E+02  0.19999974444E+01 0.  0.
        -13    1    3    3    0    0 -0.23996730219E+02  0.63695775430E+01 -0.61149501159E+02  0.65997630528E+02  0.10566000000E+00 0.  1.
         13    1    4    4    0    0  0.10221337601E+02 -0.26825097472E+01  0.53945145860E+01  0.11865224505E+02  0.10566000000E+00 0. -1.
        -13    1    4    4    0    0  0.19278992966E+01 -0.73512376632E+00  0.71121819804E+00  0.21849938239E+01  0.10566000000E+00 0.  1.
        -14    1    4    4    0    0  0.11847493321E+02 -0.29519440295E+01  0.75540358407E+01  0.14357594821E+02  0.00000000000E+00 0.  1.
<mgrwt>
<rscale>  0 0.81591134E+02</rscale>
<asrwt>0</asrwt>
<pdfrwt beam="1">  1        2 0.36089009E-02 0.81591134E+02</pdfrwt>
<pdfrwt beam="2">  1       -1 0.10915013E-01 0.81591134E+02</pdfrwt>
<totfact> 0.12118886E+05</totfact>
</mgrwt>
</event>
<event>
 8    1  0.1226832E-024  0.8006873E+02  0.7818608E-02  0.1328857E+00
         -1   -1    0    0    0  501 -0.00000000000E+00  0.00000000000E+00  0.92312889688E+01  0.92312903446E+01  0.50400000000E-02 0.  1.
          2   -1    0    0  501    0  0.00000000000E+00 -0.00000000000E+00 -0.17362149284E+03  0.17362149286E+03  0.25500000000E-02 0. -1.
         24    2    1    2    0    0  0.00000000000E+00  0.00000000000E+00 -0.16439020387E+03  0.18285278320E+03  0.80068727955E+02 0.  0.
         66    2    3    3    0    0 -0.22278110058E+02 -0.56323360599E+01 -0.15704241839E+03  0.15872730885E+03  0.20000007859E+01 0.  0.
        -13    1    3    3    0    0  0.22278110058E+02  0.56323360599E+01 -0.73477854777E+01  0.24125474352E+02  0.10566000000E+00 0.  1.
         13    1    4    4    0    0 -0.96284309063E+01 -0.21571514426E+01 -0.68282510363E+02  0.68991828282E+02  0.10566000000E+00 0. -1.
        -13    1    4    4    0    0 -0.42257925215E+00 -0.31178355942E+00 -0.25777321238E+01  0.26328025277E+01  0.10566000000E+00 0.  1.
        -14    1    4    4    0    0 -0.12227099899E+02 -0.31634010579E+01 -0.86182175904E+02  0.87102678040E+02  0.00000000000E+00 0.  1.
<mgrwt>
<rscale>  0 0.80068728E+02</rscale>
<asrwt>0</asrwt>
<pdfrwt beam="1">  1        2 0.26710996E-01 0.80068728E+02</pdfrwt>
<pdfrwt beam="2">  1       -1 0.14201985E-02 0.80068728E+02</pdfrwt>
<totfact> 0.20969269E+05</totfact>
</mgrwt>
</event>
<event>
 8    1  0.1226832E-024  0.7970897E+02  0.7818608E-02  0.1329879E+00
         -1   -1    0    0    0  501 -0.00000000000E+00  0.00000000000E+00  0.19910905844E+03  0.19910905850E+03  0.50400000000E-02 0.  1.
          2   -1    0    0  501    0  0.00000000000E+00 -0.00000000000E+00 -0.79774365511E+01  0.79774369587E+01  0.25500000000E-02 0. -1.
         24    2    1    2    0    0  0.00000000000E+00  0.00000000000E+00  0.19113162189E+03  0.20708649546E+03  0.79708968861E+02 0.  0.
         66    2    3    3    0    0 -0.37902897259E+02 -0.61880206315E+01  0.68197947558E+02  0.78293558278E+02  0.19999991985E+01 0.  0.
        -13    1    3    3    0    0  0.37902897259E+02  0.61880206315E+01  0.12293367433E+03  0.12879293718E+03  0.10566000000E+00 0.  1.
         13    1    4    4    0    0 -0.95433703313E+01 -0.19303202344E+01  0.18277745808E+02  0.20709640493E+02  0.10566000000E+00 0. -1.
        -13    1    4    4    0    0 -0.20604301789E+02 -0.27946809789E+01  0.35259192803E+02  0.40933718804E+02  0.10566000000E+00 0.  1.
        -14    1    4    4    0    0 -0.77552251385E+01 -0.14630194181E+01  0.14661008947E+02  0.16650198981E+02  0.00000000000E+00 0.  1.
<mgrwt>
<rscale>  0 0.79708969E+02</rscale>
<asrwt>0</asrwt>
<pdfrwt beam="1">  1        2 0.12272981E-02 0.79708969E+02</pdfrwt>
<pdfrwt beam="2">  1       -1 0.30632159E-01 0.79708969E+02</pdfrwt>
<totfact> 0.10066771E+05</totfact>
</mgrwt>
</event>
<event>
 8    1  0.1226832E-024  0.8441969E+02  0.7818608E-02  0.1316957E+00
         -1   -1    0    0    0  501 -0.00000000000E+00  0.00000000000E+00  0.38373330696E+03  0.38373330700E+03  0.50400000000E-02 0.  1.
          2   -1    0    0  501    0  0.00000000000E+00 -0.00000000000E+00 -0.46429927663E+01  0.46429934666E+01  0.25500000000E-02 0. -1.
         24    2    1    2    0    0  0.00000000000E+00  0.00000000000E+00  0.37909031420E+03  0.38837630046E+03  0.84419692272E+02 0.  0.
         66    2    3    3    0    0 -0.36877939620E+02  0.17645513118E+02  0.14177034396E+03  0.14756075694E+03  0.19999997555E+01 0.  0.
        -13    1    3    3    0    0  0.36877939620E+02 -0.17645513118E+02  0.23731997024E+03  0.24081554352E+03  0.10566000000E+00 0.  1.
         13    1    4    4    0    0 -0.14320959991E+02  0.71065839890E+01  0.54786690008E+02  0.57071761819E+02  0.10566000000E+00 0. -1.
        -13    1    4    4    0    0 -0.12877674047E+02  0.54957869617E+01  0.46824332910E+02  0.48872972896E+02  0.10566000000E+00 0.  1.
        -14    1    4    4    0    0 -0.96793055825E+01  0.50431421672E+01  0.40159321038E+02  0.41616022224E+02  0.00000000000E+00 0.  1.
<mgrwt>
<rscale>  0 0.84419692E+02</rscale>
<asrwt>0</asrwt>
<pdfrwt beam="1">  1        2 0.71430627E-03 0.84419692E+02</pdfrwt>
<pdfrwt beam="2">  1       -1 0.59035924E-01 0.84419692E+02</pdfrwt>
<totfact> 0.67391426E+04</totfact>
</mgrwt>
</event>
<event>
 8    1  0.1226832E-024  0.8137994E+02  0.7818608E-02  0.1325180E+00
          2   -1    0    0  501    0  0.00000000000E+00  0.00000000000E+00  0.34505391447E+03  0.34505391448E+03  0.25500000000E-02 0. -1.
         -1   -1    0    0    0  501 -0.00000000000E+00 -0.00000000000E+00 -0.47983029477E+01  0.47983055946E+01  0.50400000000E-02 0.  1.
         24    2    1    2    0    0  0.00000000000E+00  0.00000000000E+00  0.34025561152E+03  0.34985222007E+03  0.81379940515E+02 0.  0.
         66    2    3    3    0    0 -0.21428324761E+02  0.21002815210E+02  0.28822797413E+03  0.28979243681E+03  0.20000034260E+01 0.  0.
        -13    1    3    3    0    0  0.21428324761E+02 -0.21002815210E+02  0.52027637395E+02  0.60059783264E+02  0.10566000000E+00 0.  1.
         13    1    4    4    0    0 -0.11705351224E+02  0.11491051937E+02  0.15331453722E+03  0.15418955220E+03  0.10566000000E+00 0. -1.
        -13    1    4    4    0    0 -0.41640193546E+01  0.39924392596E+01  0.51378701142E+02  0.51701651071E+02  0.10566000000E+00 0.  1.
         14    1    4    4    0    0 -0.55589541828E+01  0.55193240131E+01  0.83534735768E+02  0.83901233537E+02  0.00000000000E+00 0. -1.
<mgrwt>
<rscale>  0 0.81379941E+02</rscale>
<asrwt>0</asrwt>
<pdfrwt beam="1">  1        2 0.53085210E-01 0.81379941E+02</pdfrwt>
<pdfrwt beam="2">  1       -1 0.73820077E-03 0.81379941E+02</pdfrwt>
<totfact> 0.25638300E+05</totfact>
</mgrwt>
</event>
<event>
 8    1  0.1226832E-024  0.7932200E+02  0.7818608E-02  0.1330987E+00
         -1   -1    0    0    0  501 -0.00000000000E+00  0.00000000000E+00  0.16211654222E+02  0.16211655005E+02  0.50400000000E-02 0.  1.
          2   -1    0    0  501    0  0.00000000000E+00 -0.00000000000E+00 -0.97028642814E+02  0.97028642847E+02  0.25500000000E-02 0. -1.
         24    2    1    2    0    0  0.35527136788E-14 -0.35527136788E-14 -0.80816988592E+02  0.11324029785E+03  0.79321998289E+02 0.  0.
         66    2    3    3    0    0  0.22768709583E+02 -0.28985054526E+02 -0.61241996460E+02  0.71506151126E+02  0.19999990973E+01 0.  0.
        -13    1    3    3    0    0 -0.22768709583E+02  0.28985054526E+02 -0.19574992132E+02  0.41734146726E+02  0.10566000000E+00 0.  1.
         13    1    4    4    0    0  0.16099564360E+02 -0.20534926033E+02 -0.44357583208E+02  0.51463438593E+02  0.10566000000E+00 0. -1.
        -13    1    4    4    0    0  0.28694455457E+00 -0.45679950018E+00 -0.11677984420E+01  0.12907053101E+01  0.10566000000E+00 0.  1.
        -14    1    4    4    0    0  0.63822006692E+01 -0.79933289932E+01 -0.15716614811E+02  0.18752007223E+02  0.00000000000E+00 0.  1.
<mgrwt>
<rscale>  0 0.79321998E+02</rscale>
<asrwt>0</asrwt>
<pdfrwt beam="1">  1        2 0.14927483E-01 0.79321998E+02</pdfrwt>
<pdfrwt beam="2">  1       -1 0.24941008E-02 0.79321998E+02</pdfrwt>
<totfact> 0.17983155E+05</totfact>
</mgrwt>
</event>
<event>
 8    1  0.1226832E-024  0.8006019E+02  0.7818608E-02  0.1328881E+00
          2   -1    0    0  501    0  0.00000000000E+00  0.00000000000E+00  0.19424077789E+03  0.19424077791E+03  0.25500000000E-02 0. -1.
         -1   -1    0    0    0  501 -0.00000000000E+00 -0.00000000000E+00 -0.82495985674E+01  0.82496001069E+01  0.50400000000E-02 0.  1.
         24    2    1    2    0    0 -0.35527136788E-14  0.35527136788E-14  0.18599117932E+03  0.20249037801E+03  0.80060192370E+02 0.  0.
         66    2    3    3    0    0 -0.16377399561E+02  0.29371278414E+02  0.14785734264E+03  0.15164657921E+03  0.20000008902E+01 0.  0.
        -13    1    3    3    0    0  0.16377399561E+02 -0.29371278414E+02  0.38133836687E+02  0.50843798802E+02  0.10566000000E+00 0.  1.
         13    1    4    4    0    0 -0.24486071258E+01  0.36700373828E+01  0.21617086211E+02  0.22062965158E+02  0.10566000000E+00 0.  1.
        -13    1    4    4    0    0 -0.11206507860E+01  0.23479751999E+01  0.12065368609E+02  0.12343140987E+02  0.10566000000E+00 0. -1.
         14    1    4    4    0    0 -0.12808141649E+02  0.23353265831E+02  0.11417488782E+03  0.11724047307E+03  0.00000000000E+00 0. -1.
<mgrwt>
<rscale>  0 0.80060192E+02</rscale>
<asrwt>0</asrwt>
<pdfrwt beam="1">  1        2 0.29883194E-01 0.80060192E+02</pdfrwt>
<pdfrwt beam="2">  1       -1 0.12691692E-02 0.80060192E+02</pdfrwt>
<totfact> 0.21793176E+05</totfact>
</mgrwt>
</event>
<event>
 8    1  0.1226832E-024  0.7392930E+02  0.7818608E-02  0.1347219E+00
         -1   -1    0    0    0  501 -0.00000000000E+00  0.00000000000E+00  0.64113810745E+02  0.64113810943E+02  0.50400000000E-02 0.  1.
          2   -1    0    0  501    0  0.00000000000E+00 -0.00000000000E+00 -0.21311869934E+02  0.21311870086E+02  0.25500000000E-02 0. -1.
         24    2    1    2    0    0  0.71054273576E-14 -0.44408920985E-15  0.42801940811E+02  0.85425681029E+02  0.73929296237E+02 0.  0.
         66    2    3    3    0    0  0.31051090304E+02 -0.36921147165E+01 -0.13024882099E+01  0.31360777964E+02  0.19999997085E+01 0.  0.
        -13    1    3    3    0    0 -0.31051090304E+02  0.36921147165E+01  0.44104429021E+02  0.54064903065E+02  0.10566000000E+00 0.  1.
         13    1    4    4    0    0  0.14600766853E+02 -0.26449816907E+01 -0.83215708544E+00  0.14862098449E+02  0.10566000000E+00 0. -1.
        -13    1    4    4    0    0  0.13987878793E+01 -0.86535175127E-02  0.29030699327E-01  0.14030998652E+01  0.10566000000E+00 0.  1.
         14    1    4    4    0    0  0.15051535571E+02 -0.10384795083E+01 -0.49936182378E+00  0.15095579650E+02  0.00000000000E+00 0. -1.
<mgrwt>
<rscale>  0 0.73929296E+02</rscale>
<asrwt>0</asrwt>
<pdfrwt beam="1">  1        2 0.32787492E-02 0.73929296E+02</pdfrwt>
<pdfrwt beam="2">  1       -1 0.98636634E-02 0.73929296E+02</pdfrwt>
<totfact> 0.15730604E+05</totfact>
</mgrwt>
</event>
<event>
 8    1  0.1226832E-024  0.7658473E+02  0.7818608E-02  0.1339033E+00
          2   -1    0    0  501    0  0.00000000000E+00  0.00000000000E+00  0.91044363757E+02  0.91044363793E+02  0.25500000000E-02 0. -1.
         -1   -1    0    0    0  501 -0.00000000000E+00 -0.00000000000E+00 -0.16105391452E+02  0.16105392241E+02  0.50400000000E-02 0.  1.
         24    2    1    2    0    0 -0.17763568394E-14  0.71054273576E-14  0.74938972305E+02  0.10714975603E+03  0.76584728556E+02 0.  0.
         66    2    3    3    0    0  0.10255010161E+02  0.36716940359E+02  0.32854398492E+02  0.50365766568E+02  0.19999997322E+01 0.  0.
        -13    1    3    3    0    0 -0.10255010161E+02 -0.36716940359E+02  0.42084573813E+02  0.56783989467E+02  0.10566000000E+00 0.  1.
         13    1    4    4    0    0  0.37653640070E+01  0.13380440662E+02  0.11727162339E+02  0.18186579089E+02  0.10566000000E+00 0. -1.
        -13    1    4    4    0    0  0.50649650879E+00  0.10669689495E+01  0.72494376549E+00  0.13898449379E+01  0.10566000000E+00 0.  1.
        -14    1    4    4    0    0  0.59831496454E+01  0.22269530748E+02  0.20402292388E+02  0.30789342541E+02  0.00000000000E+00 0.  1.
<mgrwt>
<rscale>  0 0.76584729E+02</rscale>
<asrwt>0</asrwt>
<pdfrwt beam="1">  1        2 0.14006825E-01 0.76584729E+02</pdfrwt>
<pdfrwt beam="2">  1       -1 0.24777526E-02 0.76584729E+02</pdfrwt>
<totfact> 0.19415703E+05</totfact>
</mgrwt>
</event>
<event>
 8    1  0.1226832E-024  0.7962729E+02  0.7818608E-02  0.1330112E+00
         -1   -1    0    0    0  501 -0.00000000000E+00  0.00000000000E+00  0.13274788605E+02  0.13274789561E+02  0.50400000000E-02 0.  1.
          2   -1    0    0  501    0  0.00000000000E+00 -0.00000000000E+00 -0.11940877888E+03  0.11940877891E+03  0.25500000000E-02 0. -1.
         24    2    1    2    0    0 -0.35527136788E-14  0.00000000000E+00 -0.10613399028E+03  0.13268356847E+03  0.79627290861E+02 0.  0.
         66    2    3    3    0    0 -0.11393668807E+02 -0.26837386212E+02 -0.98215808521E+02  0.10247148887E+03  0.19999998915E+01 0.  0.
        -13    1    3    3    0    0  0.11393668807E+02  0.26837386212E+02 -0.79181817554E+01  0.30212079603E+02  0.10566000000E+00 0.  1.
         13    1    4    4    0    0 -0.26152315710E+01 -0.55231859623E+01 -0.21755140655E+02  0.22597396494E+02  0.10566000000E+00 0.  1.
        -13    1    4    4    0    0 -0.72151885403E+01 -0.16056506393E+02 -0.57181128906E+02  0.59829449356E+02  0.10566000000E+00 0. -1.
         14    1    4    4    0    0 -0.15632486960E+01 -0.52576938569E+01 -0.19279538960E+02  0.20044643017E+02  0.00000000000E+00 0. -1.
<mgrwt>
<rscale>  0 0.79627291E+02</rscale>
<asrwt>0</asrwt>
<pdfrwt beam="1">  1        2 0.18370581E-01 0.79627291E+02</pdfrwt>
<pdfrwt beam="2">  1       -1 0.20422753E-02 0.79627291E+02</pdfrwt>
<totfact> 0.18892780E+05</totfact>
</mgrwt>
</event>
<event>
 8    1  0.1226832E-024  0.7969355E+02  0.7818608E-02  0.1329923E+00
         -1   -1    0    0    0  501 -0.00000000000E+00  0.00000000000E+00  0.14884137620E+01  0.14884222951E+01  0.50400000000E-02 0.  1.
          2   -1    0    0  501    0  0.00000000000E+00 -0.00000000000E+00 -0.10667468814E+04  0.10667468814E+04  0.25500000000E-02 0. -1.
         24    2    1    2    0    0  0.00000000000E+00  0.00000000000E+00 -0.10652584676E+04  0.10682353037E+04  0.79693545489E+02 0.  0.
         66    2    3    3    0    0 -0.27510750664E+02 -0.81690768355E+01 -0.90302534616E+03  0.90348345367E+03  0.20000083088E+01 0.  0.
        -13    1    3    3    0    0  0.27510750664E+02  0.81690768355E+01 -0.16223312146E+03  0.16475185001E+03  0.10566000000E+00 0.  1.
         13    1    4    4    0    0 -0.10301436309E+02 -0.31904533718E+01 -0.35951180597E+03  0.35967353028E+03  0.10566000000E+00 0. -1.
        -13    1    4    4    0    0 -0.13041874433E+02 -0.42501128241E+01 -0.41061414211E+03  0.41084320466E+03  0.10566000000E+00 0.  1.
         14    1    4    4    0    0 -0.41674399220E+01 -0.72851063960E+00 -0.13289939808E+03  0.13296671874E+03  0.00000000000E+00 0. -1.
<mgrwt>
<rscale>  0 0.79693545E+02</rscale>
<asrwt>0</asrwt>
<pdfrwt beam="1">  1        2 0.16411429E+00 0.79693545E+02</pdfrwt>
<pdfrwt beam="2">  1       -1 0.22898824E-03 0.79693545E+02</pdfrwt>
<totfact> 0.35625594E+05</totfact>
</mgrwt>
</event>
<event>
 8    1  0.1226832E-024  0.8057777E+02  0.7818608E-02  0.1327420E+00
         -1   -1    0    0    0  501 -0.00000000000E+00  0.00000000000E+00  0.16336625701E+02  0.16336626479E+02  0.50400000000E-02 0.  1.
          2   -1    0    0  501    0  0.00000000000E+00 -0.00000000000E+00 -0.99359205195E+02  0.99359205228E+02  0.25500000000E-02 0. -1.
         24    2    1    2    0    0  0.00000000000E+00  0.00000000000E+00 -0.83022579494E+02  0.11569583171E+03  0.80577768451E+02 0.  0.
         66    2    3    3    0    0 -0.96853074991E+01 -0.22804619889E+02 -0.87107847247E+02  0.90584948683E+02  0.20000015645E+01 0.  0.
        -13    1    3    3    0    0  0.96853074991E+01  0.22804619889E+02  0.40852677527E+01  0.25110883024E+02  0.10566000000E+00 0.  1.
         13    1    4    4    0    0 -0.11200801871E+01 -0.25360517470E+01 -0.80018916307E+01  0.84692131745E+01  0.10566000000E+00 0. -1.
        -13    1    4    4    0    0 -0.50875726102E+01 -0.11584836694E+02 -0.47235081558E+02  0.48900469631E+02  0.10566000000E+00 0. -1.
        -14    1    4    4    0    0 -0.34776547017E+01 -0.86837314478E+01 -0.31870874058E+02  0.33215265877E+02  0.00000000000E+00 0.  1.
<mgrwt>
<rscale>  0 0.80577768E+02</rscale>
<asrwt>0</asrwt>
<pdfrwt beam="1">  1        2 0.15286031E-01 0.80577768E+02</pdfrwt>
<pdfrwt beam="2">  1       -1 0.25133272E-02 0.80577768E+02</pdfrwt>
<totfact> 0.17355995E+05</totfact>
</mgrwt>
</event>
<event>
 8    1  0.1226832E-024  0.8051160E+02  0.7818608E-02  0.1327606E+00
          2   -1    0    0  501    0  0.00000000000E+00  0.00000000000E+00  0.33031734662E+03  0.33031734663E+03  0.25500000000E-02 0. -1.
         -1   -1    0    0    0  501 -0.00000000000E+00 -0.00000000000E+00 -0.49059762053E+01  0.49059787941E+01  0.50400000000E-02 0.  1.
         24    2    1    2    0    0  0.00000000000E+00 -0.17763568394E-14  0.32541137041E+03  0.33522332542E+03  0.80511601109E+02 0.  0.
         66    2    3    3    0    0  0.99012267995E+01  0.12337799431E+02  0.31682026800E+03  0.31722127577E+03  0.19999995100E+01 0.  0.
        -13    1    3    3    0    0 -0.99012267995E+01 -0.12337799431E+02  0.85911024097E+01  0.18002049650E+02  0.10566000000E+00 0.  1.
         13    1    4    4    0    0  0.18455876617E+01  0.14180279987E+01  0.42347896571E+02  0.42411938240E+02  0.10566000000E+00 0. -1.
        -13    1    4    4    0    0  0.73840900565E+01  0.97883674168E+01  0.24225275524E+03  0.24256286919E+03  0.10566000000E+00 0.  1.
        -14    1    4    4    0    0  0.67154908129E+00  0.11314040159E+01  0.32219616194E+02  0.32246468348E+02  0.00000000000E+00 0.  1.
<mgrwt>
<rscale>  0 0.80511601E+02</rscale>
<asrwt>0</asrwt>
<pdfrwt beam="1">  1        2 0.50818060E-01 0.80511601E+02</pdfrwt>
<pdfrwt beam="2">  1       -1 0.75476568E-03 0.80511601E+02</pdfrwt>
<totfact> 0.25959176E+05</totfact>
</mgrwt>
</event>
<event>
 8    1  0.1226832E-024  0.7743671E+02  0.7818608E-02  0.1336487E+00
         -1   -1    0    0    0  501 -0.00000000000E+00  0.00000000000E+00  0.35392164472E+01  0.35392200358E+01  0.50400000000E-02 0.  1.
          2   -1    0    0  501    0  0.00000000000E+00 -0.00000000000E+00 -0.42357118543E+03  0.42357118543E+03  0.25500000000E-02 0. -1.
         24    2    1    2    0    0  0.00000000000E+00  0.71054273576E-14 -0.42003196898E+03  0.42711040547E+03  0.77436706388E+02 0.  0.
         66    2    3    3    0    0 -0.24105543684E+02 -0.22584692893E+02 -0.32128665523E+03  0.32298647094E+03  0.19999989775E+01 0.  0.
        -13    1    3    3    0    0  0.24105543684E+02  0.22584692893E+02 -0.98745313755E+02  0.10412393453E+03  0.10566000000E+00 0.  1.
         13    1    4    4    0    0 -0.66046497907E+01 -0.72840210736E+01 -0.91970034660E+02  0.92494198743E+02  0.10566000000E+00 0.  1.
        -13    1    4    4    0    0 -0.25720657128E+01 -0.21086065111E+01 -0.32405229453E+02  0.32575632049E+02  0.10566000000E+00 0. -1.
        -14    1    4    4    0    0 -0.14928828180E+02 -0.13192065308E+02 -0.19691139111E+03  0.19791664015E+03  0.00000000000E+00 0.  1.
<mgrwt>
<rscale>  0 0.77436706E+02</rscale>
<asrwt>0</asrwt>
<pdfrwt beam="1">  1        2 0.65164758E-01 0.77436706E+02</pdfrwt>
<pdfrwt beam="2">  1       -1 0.54449545E-03 0.77436706E+02</pdfrwt>
<totfact> 0.31372891E+05</totfact>
</mgrwt>
</event>
<event>
 8    1  0.1226832E-024  0.8079796E+02  0.7818608E-02  0.1326802E+00
         -1   -1    0    0    0  501 -0.00000000000E+00  0.00000000000E+00  0.83843737148E+01  0.83843752296E+01  0.50400000000E-02 0.  1.
          2   -1    0    0  501    0  0.00000000000E+00 -0.00000000000E+00 -0.19465702792E+03  0.19465702794E+03  0.25500000000E-02 0. -1.
         24    2    1    2    0    0  0.17763568394E-14  0.00000000000E+00 -0.18627265421E+03  0.20304140317E+03  0.80797956008E+02 0.  0.
         66    2    3    3    0    0  0.13818240729E+02  0.22248154542E+02 -0.17040870729E+03  0.17242114626E+03  0.19999997454E+01 0.  0.
        -13    1    3    3    0    0 -0.13818240729E+02 -0.22248154542E+02 -0.15863946913E+02  0.30620256907E+02  0.10566000000E+00 0.  1.
         13    1    4    4    0    0  0.69109344170E+01  0.11243001759E+02 -0.85076695801E+02  0.86094259016E+02  0.10566000000E+00 0. -1.
        -13    1    4    4    0    0  0.59255204056E+01  0.85062715202E+01 -0.65979511299E+02  0.66789037443E+02  0.10566000000E+00 0.  1.
        -14    1    4    4    0    0  0.98178590634E+00  0.24988812625E+01 -0.19352500194E+02  0.19537849802E+02  0.00000000000E+00 0.  1.
<mgrwt>
<rscale>  0 0.80797956E+02</rscale>
<asrwt>0</asrwt>
<pdfrwt beam="1">  1        2 0.29947232E-01 0.80797956E+02</pdfrwt>
<pdfrwt beam="2">  1       -1 0.12899039E-02 0.80797956E+02</pdfrwt>
<totfact> 0.21287222E+05</totfact>
</mgrwt>
</event>
<event>
 8    1  0.1226832E-024  0.8046771E+02  0.7818608E-02  0.1327729E+00
         -1   -1    0    0    0  501 -0.00000000000E+00  0.00000000000E+00  0.46676509610E+01  0.46676536820E+01  0.50400000000E-02 0.  1.
          2   -1    0    0  501    0  0.00000000000E+00 -0.00000000000E+00 -0.34680457285E+03  0.34680457286E+03  0.25500000000E-02 0. -1.
         24    2    1    2    0    0  0.71054273576E-14 -0.17763568394E-14 -0.34213692189E+03  0.35147222654E+03  0.80467712222E+02 0.  0.
         66    2    3    3    0    0 -0.37881112231E+02  0.11384741512E+02 -0.20272157685E+03  0.20655417866E+03  0.20000003291E+01 0.  0.
        -13    1    3    3    0    0  0.37881112231E+02 -0.11384741512E+02 -0.13941534504E+03  0.14491804788E+03  0.10566000000E+00 0.  1.
         13    1    4    4    0    0 -0.13950402002E+02  0.43871208680E+01 -0.73112954718E+02  0.74561222208E+02  0.10566000000E+00 0. -1.
        -13    1    4    4    0    0 -0.15789747553E+01  0.13884459623E+00 -0.89747202260E+01  0.91142309752E+01  0.10566000000E+00 0.  1.
        -14    1    4    4    0    0 -0.22351735474E+02  0.68587760479E+01 -0.12063390190E+03  0.12287872548E+03  0.00000000000E+00 0.  1.
<mgrwt>
<rscale>  0 0.80467712E+02</rscale>
<asrwt>0</asrwt>
<pdfrwt beam="1">  1        2 0.53354529E-01 0.80467712E+02</pdfrwt>
<pdfrwt beam="2">  1       -1 0.71810063E-03 0.80467712E+02</pdfrwt>
<totfact> 0.26454655E+05</totfact>
</mgrwt>
</event>
<event>
 8    1  0.1226832E-024  0.8002312E+02  0.7818608E-02  0.1328986E+00
         -1   -1    0    0    0  501 -0.00000000000E+00  0.00000000000E+00  0.49650619288E+01  0.49650644868E+01  0.50400000000E-02 0.  1.
          2   -1    0    0  501    0  0.00000000000E+00 -0.00000000000E+00 -0.32243799280E+03  0.32243799282E+03  0.25500000000E-02 0. -1.
         24    2    1    2    0    0  0.44408920985E-15 -0.17763568394E-14 -0.31747293088E+03  0.32740305730E+03  0.80023122230E+02 0.  0.
         66    2    3    3    0    0  0.33875540620E+01 -0.14234305530E+02 -0.31108815517E+03  0.31143848712E+03  0.19999976265E+01 0.  0.
        -13    1    3    3    0    0 -0.33875540620E+01  0.14234305530E+02 -0.63847757013E+01  0.15964570186E+02  0.10566000000E+00 0.  1.
         13    1    4    4    0    0  0.21520324994E+01 -0.87239129940E+01 -0.20034669148E+03  0.20054811356E+03  0.10566000000E+00 0. -1.
        -13    1    4    4    0    0 -0.22980712606E-01 -0.70810952579E+00 -0.20441439977E+02  0.20453986887E+02  0.10566000000E+00 0.  1.
         14    1    4    4    0    0  0.12585022752E+01 -0.48022830097E+01 -0.90300023720E+02  0.90436386670E+02  0.00000000000E+00 0. -1.
<mgrwt>
<rscale>  0 0.80023122E+02</rscale>
<asrwt>0</asrwt>
<pdfrwt beam="1">  1        2 0.49605829E-01 0.80023122E+02</pdfrwt>
<pdfrwt beam="2">  1       -1 0.76385613E-03 0.80023122E+02</pdfrwt>
<totfact> 0.26147961E+05</totfact>
</mgrwt>
</event>
<event>
 8    1  0.1226832E-024  0.7973727E+02  0.7818608E-02  0.1329799E+00
          2   -1    0    0  501    0  0.00000000000E+00  0.00000000000E+00  0.50383322159E+02  0.50383322223E+02  0.25500000000E-02 0. -1.
         -1   -1    0    0    0  501 -0.00000000000E+00 -0.00000000000E+00 -0.31548295443E+02  0.31548295846E+02  0.50400000000E-02 0.  1.
         24    2    1    2    0    0  0.00000000000E+00  0.17763568394E-14  0.18835026716E+02  0.81931618069E+02  0.79737267372E+02 0.  0.
         66    2    3    3    0    0  0.36664458342E+02  0.11532906581E+02  0.20210546978E+02  0.43471331282E+02  0.19999986333E+01 0.  0.
        -13    1    3    3    0    0 -0.36664458342E+02 -0.11532906581E+02 -0.13755202623E+01  0.38460286787E+02  0.10566000000E+00 0.  1.
         13    1    4    4    0    0  0.10903509978E+02  0.35346437371E+01  0.57395457038E+01  0.12819273970E+02  0.10566000000E+00 0. -1.
        -13    1    4    4    0    0  0.22027040923E+02  0.65784603617E+01  0.11738830672E+02  0.25812361034E+02  0.10566000000E+00 0.  1.
         14    1    4    4    0    0  0.37339074411E+01  0.14198024824E+01  0.27321706021E+01  0.48396962783E+01  0.00000000000E+00 0. -1.
<mgrwt>
<rscale>  0 0.79737267E+02</rscale>
<asrwt>0</asrwt>
<pdfrwt beam="1">  1        2 0.77512803E-02 0.79737267E+02</pdfrwt>
<pdfrwt beam="2">  1       -1 0.48535840E-02 0.79737267E+02</pdfrwt>
<totfact> 0.15103301E+05</totfact>
</mgrwt>
</event>
<event>
 8    1  0.1226832E-024  0.7972244E+02  0.7818608E-02  0.1329841E+00
          2   -1    0    0  501    0  0.00000000000E+00  0.00000000000E+00  0.95937764259E+02  0.95937764293E+02  0.25500000000E-02 0. -1.
         -1   -1    0    0    0  501 -0.00000000000E+00 -0.00000000000E+00 -0.16561955679E+02  0.16561956446E+02  0.50400000000E-02 0.  1.
         24    2    1    2    0    0 -0.17763568394E-14  0.35527136788E-14  0.79375808580E+02  0.11249972074E+03  0.79722444635E+02 0.  0.
         66    2    3    3    0    0  0.89992070955E+01 -0.19424439081E+02  0.87120004513E+02  0.89733994380E+02  0.19999997569E+01 0.  0.
        -13    1    3    3    0    0 -0.89992070955E+01  0.19424439081E+02 -0.77441959331E+01  0.22765726359E+02  0.10566000000E+00 0.  1.
         13    1    4    4    0    0  0.51713478546E+01 -0.10282206560E+02  0.49692396788E+02  0.51007960878E+02  0.10566000000E+00 0. -1.
        -13    1    4    4    0    0  0.32063207586E+01 -0.67720962470E+01  0.28246756906E+02  0.29223829662E+02  0.10566000000E+00 0.  1.
        -14    1    4    4    0    0  0.62153848234E+00 -0.23701362743E+01  0.91808508200E+01  0.95022038403E+01  0.00000000000E+00 0.  1.
<mgrwt>
<rscale>  0 0.79722445E+02</rscale>
<asrwt>0</asrwt>
<pdfrwt beam="1">  1        2 0.14759656E-01 0.79722445E+02</pdfrwt>
<pdfrwt beam="2">  1       -1 0.25479932E-02 0.79722445E+02</pdfrwt>
<totfact> 0.17686915E+05</totfact>
</mgrwt>
</event>
<event>
 8    1  0.1226832E-024  0.8137683E+02  0.7818608E-02  0.1325189E+00
         -1   -1    0    0    0  501 -0.00000000000E+00  0.00000000000E+00  0.81914516346E+01  0.81914531851E+01  0.50400000000E-02 0.  1.
          2   -1    0    0  501    0  0.00000000000E+00 -0.00000000000E+00 -0.20210666250E+03  0.20210666252E+03  0.25500000000E-02 0. -1.
         24    2    1    2    0    0  0.00000000000E+00  0.00000000000E+00 -0.19391521087E+03  0.21029811570E+03  0.81376830010E+02 0.  0.
         66    2    3    3    0    0 -0.15223437122E+02 -0.52709737872E+01 -0.19350258975E+03  0.19418235873E+03  0.20000004856E+01 0.  0.
        -13    1    3    3    0    0  0.15223437122E+02  0.52709737872E+01 -0.41262111968E+00  0.16115756969E+02  0.10566000000E+00 0.  1.
         13    1    4    4    0    0 -0.28770864307E+01 -0.64067608362E+00 -0.41155484104E+02  0.41261036439E+02  0.10566000000E+00 0. -1.
        -13    1    4    4    0    0 -0.83653677110E+01 -0.33161360448E+01 -0.10979966896E+03  0.11016784741E+03  0.10566000000E+00 0.  1.
         14    1    4    4    0    0 -0.39809829800E+01 -0.13141616587E+01 -0.42547436685E+02  0.42753474886E+02  0.00000000000E+00 0. -1.
<mgrwt>
<rscale>  0 0.81376830E+02</rscale>
<asrwt>0</asrwt>
<pdfrwt beam="1">  1        2 0.31093329E-01 0.81376830E+02</pdfrwt>
<pdfrwt beam="2">  1       -1 0.12602236E-02 0.81376830E+02</pdfrwt>
<totfact> 0.21163656E+05</totfact>
</mgrwt>
</event>
<event>
 8    1  0.1226832E-024  0.8113473E+02  0.7818608E-02  0.1325862E+00
          2   -1    0    0  501    0  0.00000000000E+00  0.00000000000E+00  0.97553015624E+01  0.97553018957E+01  0.25500000000E-02 0. -1.
         -1   -1    0    0    0  501 -0.00000000000E+00 -0.00000000000E+00 -0.16869913660E+03  0.16869913667E+03  0.50400000000E-02 0.  1.
         24    2    1    2    0    0  0.00000000000E+00 -0.44408920985E-15 -0.15894383504E+03  0.17845443857E+03  0.81134727146E+02 0.  0.
         66    2    3    3    0    0 -0.31379392773E+02  0.22284507927E+01 -0.23268598077E+02  0.39179841561E+02  0.20000111520E+01 0.  0.
        -13    1    3    3    0    0  0.31379392773E+02 -0.22284507927E+01 -0.13567523696E+03  0.13927459701E+03  0.10566000000E+00 0.  1.
         13    1    4    4    0    0 -0.16092799452E+02  0.54481815855E+00 -0.11610120860E+02  0.19851475800E+02  0.10566000000E+00 0. -1.
        -13    1    4    4    0    0 -0.43445822672E+00  0.37367344007E-01 -0.17136116138E+00  0.48029048751E+00  0.10566000000E+00 0.  1.
        -14    1    4    4    0    0 -0.14852135094E+02  0.16462652901E+01 -0.11487116055E+02  0.18848075274E+02  0.00000000000E+00 0.  1.
<mgrwt>
<rscale>  0 0.81134727E+02</rscale>
<asrwt>0</asrwt>
<pdfrwt beam="1">  1        2 0.15008158E-02 0.81134727E+02</pdfrwt>
<pdfrwt beam="2">  1       -1 0.25953711E-01 0.81134727E+02</pdfrwt>
<totfact> 0.10091840E+05</totfact>
</mgrwt>
</event>
<event>
 8    1  0.1299743E-024  0.7939482E+02  0.7818608E-02  0.1330778E+00
         -1   -1    0    0    0  501 -0.00000000000E+00  0.00000000000E+00  0.65603633076E+01  0.65603652436E+01  0.50400000000E-02 0.  1.
          2   -1    0    0  501    0  0.00000000000E+00 -0.00000000000E+00 -0.24021295098E+03  0.24021295100E+03  0.25500000000E-02 0. -1.
         24    2    1    2    0    0  0.35527136788E-14  0.00000000000E+00 -0.23365258768E+03  0.24677331624E+03  0.79394822758E+02 0.  0.
         66    2    3    3    0    0 -0.10944055996E+02 -0.10097183108E+02 -0.23119308078E+03  0.23168074169E+03  0.20000000443E+01 0.  0.
        -13    1    3    3    0    0  0.10944055996E+02  0.10097183108E+02 -0.24595068934E+01  0.15092574550E+02  0.10566000000E+00 0.  1.
         13    1    4    4    0    0 -0.65781899920E+01 -0.60223474478E+01 -0.14333451455E+03  0.14361175258E+03  0.10566000000E+00 0. -1.
        -13    1    4    4    0    0 -0.22533014157E+01 -0.27762385165E+01 -0.47710096835E+02  0.47844010823E+02  0.10566000000E+00 0.  1.
        -14    1    4    4    0    0 -0.21125645879E+01 -0.12985971440E+01 -0.40148469398E+02  0.40224978293E+02  0.00000000000E+00 0.  1.
<mgrwt>
<rscale>  0 0.79394823E+02</rscale>
<asrwt>0</asrwt>
<pdfrwt beam="1">  1        2 0.36955832E-01 0.79394823E+02</pdfrwt>
<pdfrwt beam="2">  1       -1 0.10092870E-02 0.79394823E+02</pdfrwt>
<totfact> 0.24004570E+05</totfact>
</mgrwt>
</event>
<event>
 8    1  0.1226832E-024  0.8061897E+02  0.7818608E-02  0.1327304E+00
         -1   -1    0    0    0  501 -0.00000000000E+00  0.00000000000E+00  0.95237601696E+01  0.95237615032E+01  0.50400000000E-02 0.  1.
          2   -1    0    0  501    0  0.00000000000E+00 -0.00000000000E+00 -0.17061058693E+03  0.17061058695E+03  0.25500000000E-02 0. -1.
         24    2    1    2    0    0  0.00000000000E+00  0.00000000000E+00 -0.16108682676E+03  0.18013434845E+03  0.80618966358E+02 0.  0.
         66    2    3    3    0    0 -0.21891128549E+02 -0.25756628882E+02 -0.12955733625E+03  0.13390940523E+03  0.19999977089E+01 0.  0.
        -13    1    3    3    0    0  0.21891128549E+02  0.25756628882E+02 -0.31529490509E+02  0.46224943226E+02  0.10566000000E+00 0.  1.
         13    1    4    4    0    0 -0.48560358535E+01 -0.53518450147E+01 -0.30038985378E+02  0.30896199375E+02  0.10566000000E+00 0. -1.
        -13    1    4    4    0    0 -0.54073995566E+01 -0.65136585549E+01 -0.29726323332E+02  0.30908464546E+02  0.10566000000E+00 0.  1.
         14    1    4    4    0    0 -0.11627693139E+02 -0.13891125312E+02 -0.69792027544E+02  0.72104741307E+02  0.00000000000E+00 0. -1.
<mgrwt>
<rscale>  0 0.80618966E+02</rscale>
<asrwt>0</asrwt>
<pdfrwt beam="1">  1        2 0.26247780E-01 0.80618966E+02</pdfrwt>
<pdfrwt beam="2">  1       -1 0.14651941E-02 0.80618966E+02</pdfrwt>
<totfact> 0.20472240E+05</totfact>
</mgrwt>
</event>
<event>
 8    1  0.1226832E-024  0.8138804E+02  0.7818608E-02  0.1325158E+00
         -1   -1    0    0    0  501 -0.00000000000E+00  0.00000000000E+00  0.37449285481E+02  0.37449285820E+02  0.50400000000E-02 0.  1.
          2   -1    0    0  501    0  0.00000000000E+00 -0.00000000000E+00 -0.44219887294E+02  0.44219887367E+02  0.25500000000E-02 0. -1.
         24    2    1    2    0    0 -0.35527136788E-14 -0.17763568394E-14 -0.67706018130E+01  0.81669173187E+02  0.81388038434E+02 0.  0.
         66    2    3    3    0    0 -0.30840603728E+02 -0.10598871626E+02 -0.27771882803E+02  0.42880722776E+02  0.19999983234E+01 0.  0.
        -13    1    3    3    0    0  0.30840603728E+02  0.10598871626E+02  0.21001280990E+02  0.38788450411E+02  0.10566000000E+00 0.  1.
         13    1    4    4    0    0 -0.10495760753E+02 -0.33835851868E+01 -0.86269303743E+01  0.14001597560E+02  0.10566000000E+00 0. -1.
        -13    1    4    4    0    0 -0.11892429073E+01 -0.23136254547E+00 -0.83348189648E+00  0.14743416929E+01  0.10566000000E+00 0.  1.
         14    1    4    4    0    0 -0.19155600068E+02 -0.69839238942E+01 -0.18311470532E+02  0.27404783523E+02  0.00000000000E+00 0. -1.
<mgrwt>
<rscale>  0 0.81388038E+02</rscale>
<asrwt>0</asrwt>
<pdfrwt beam="1">  1        2 0.68030596E-02 0.81388038E+02</pdfrwt>
<pdfrwt beam="2">  1       -1 0.57614286E-02 0.81388038E+02</pdfrwt>
<totfact> 0.13881499E+05</totfact>
</mgrwt>
</event>
<event>
 8    1  0.1226832E-024  0.8163121E+02  0.7818608E-02  0.1324485E+00
         -1   -1    0    0    0  501 -0.00000000000E+00  0.00000000000E+00  0.74594532705E+01  0.74594549732E+01  0.50400000000E-02 0.  1.
          2   -1    0    0  501    0  0.00000000000E+00 -0.00000000000E+00 -0.22332913507E+03  0.22332913508E+03  0.25500000000E-02 0. -1.
         24    2    1    2    0    0  0.00000000000E+00  0.00000000000E+00 -0.21586968180E+03  0.23078859005E+03  0.81631205923E+02 0.  0.
         66    2    3    3    0    0  0.26607963850E+01 -0.21213699785E+02 -0.20621429482E+03  0.20732929429E+03  0.19999967269E+01 0.  0.
        -13    1    3    3    0    0 -0.26607963850E+01  0.21213699785E+02 -0.96553869742E+01  0.23459295762E+02  0.10566000000E+00 0.  1.
         13    1    4    4    0    0  0.17192768531E+01 -0.12488516384E+02 -0.11469175171E+03  0.11538252913E+03  0.10566000000E+00 0. -1.
        -13    1    4    4    0    0  0.49871243472E+00 -0.71869578073E+01 -0.76948619528E+02  0.77285200963E+02  0.10566000000E+00 0.  1.
        -14    1    4    4    0    0  0.44280709722E+00 -0.15382255943E+01 -0.14573923585E+02  0.14661564199E+02  0.00000000000E+00 0.  1.
<mgrwt>
<rscale>  0 0.81631206E+02</rscale>
<asrwt>0</asrwt>
<pdfrwt beam="1">  1        2 0.34358323E-01 0.81631206E+02</pdfrwt>
<pdfrwt beam="2">  1       -1 0.11476085E-02 0.81631206E+02</pdfrwt>
<totfact> 0.21740264E+05</totfact>
</mgrwt>
</event>
<event>
 8    1  0.1226832E-024  0.7941319E+02  0.7818608E-02  0.1330725E+00
         -1   -1    0    0    0  501 -0.00000000000E+00  0.00000000000E+00  0.59822406718E+02  0.59822406930E+02  0.50400000000E-02 0.  1.
          2   -1    0    0  501    0  0.00000000000E+00 -0.00000000000E+00 -0.26354902311E+02  0.26354902434E+02  0.25500000000E-02 0. -1.
         24    2    1    2    0    0  0.00000000000E+00  0.00000000000E+00  0.33467504407E+02  0.86177309364E+02  0.79413190328E+02 0.  0.
         66    2    3    3    0    0  0.99618081615E+01 -0.38281336360E+02  0.20160558916E+02  0.44442619984E+02  0.19999999514E+01 0.  0.
        -13    1    3    3    0    0 -0.99618081615E+01  0.38281336360E+02  0.13306945491E+02  0.41734689381E+02  0.10566000000E+00 0.  1.
         13    1    4    4    0    0  0.39494355536E+01 -0.16240918378E+02  0.90744042390E+01  0.19018975979E+02  0.10566000000E+00 0. -1.
        -13    1    4    4    0    0  0.15626247868E+01 -0.51974910664E+01  0.20864949162E+01  0.58155253143E+01  0.10566000000E+00 0.  1.
        -14    1    4    4    0    0  0.44497478212E+01 -0.16842926916E+02  0.89996597611E+01  0.19608118691E+02  0.00000000000E+00 0.  1.
<mgrwt>
<rscale>  0 0.79413190E+02</rscale>
<asrwt>0</asrwt>
<pdfrwt beam="1">  1        2 0.40546004E-02 0.79413190E+02</pdfrwt>
<pdfrwt beam="2">  1       -1 0.92034471E-02 0.79413190E+02</pdfrwt>
<totfact> 0.13391439E+05</totfact>
</mgrwt>
</event>
<event>
 8    1  0.1226832E-024  0.7992053E+02  0.7818608E-02  0.1329277E+00
         -1   -1    0    0    0  501 -0.00000000000E+00  0.00000000000E+00  0.88130549102E+01  0.88130563514E+01  0.50400000000E-02 0.  1.
          2   -1    0    0  501    0  0.00000000000E+00 -0.00000000000E+00 -0.18118831876E+03  0.18118831878E+03  0.25500000000E-02 0. -1.
         24    2    1    2    0    0  0.00000000000E+00  0.00000000000E+00 -0.17237526385E+03  0.19000137513E+03  0.79920529051E+02 0.  0.
         66    2    3    3    0    0 -0.78862349433E+01  0.34238346645E+02 -0.41111271136E+02  0.54116482555E+02  0.19999967940E+01 0.  0.
        -13    1    3    3    0    0  0.78862349433E+01 -0.34238346645E+02 -0.13126399271E+03  0.13588489257E+03  0.10566000000E+00 0.  1.
         13    1    4    4    0    0 -0.64376140155E+01  0.26003294467E+02 -0.30323877652E+02  0.40461869917E+02  0.10566000000E+00 0. -1.
        -13    1    4    4    0    0 -0.90090644209E+00  0.57617838991E+01 -0.72912579061E+01  0.93372047212E+01  0.10566000000E+00 0.  1.
        -14    1    4    4    0    0 -0.54771448567E+00  0.24732682797E+01 -0.34961355782E+01  0.43174079170E+01  0.00000000000E+00 0.  1.
<mgrwt>
<rscale>  0 0.79920529E+02</rscale>
<asrwt>0</asrwt>
<pdfrwt beam="1">  1        2 0.27875123E-01 0.79920529E+02</pdfrwt>
<pdfrwt beam="2">  1       -1 0.13558549E-02 0.79920529E+02</pdfrwt>
<totfact> 0.21378141E+05</totfact>
</mgrwt>
</event>
<event>
 8    1  0.1226832E-024  0.7972510E+02  0.7818608E-02  0.1329833E+00
         -1   -1    0    0    0  501 -0.00000000000E+00  0.00000000000E+00  0.73905227001E+02  0.73905227173E+02  0.50400000000E-02 0.  1.
          2   -1    0    0  501    0  0.00000000000E+00 -0.00000000000E+00 -0.21500818059E+02  0.21500818210E+02  0.25500000000E-02 0. -1.
         24    2    1    2    0    0 -0.35527136788E-14  0.00000000000E+00  0.52404408942E+02  0.95406045383E+02  0.79725099054E+02 0.  0.
         66    2    3    3    0    0  0.23394244097E+02 -0.10200017159E+02 -0.10386831541E+02  0.27626387282E+02  0.19999994726E+01 0.  0.
        -13    1    3    3    0    0 -0.23394244097E+02  0.10200017159E+02  0.62791240483E+02  0.67779658102E+02  0.10566000000E+00 0.  1.
         13    1    4    4    0    0  0.11477528916E+02 -0.50932465871E+01 -0.57591120475E+01  0.13814968926E+02  0.10566000000E+00 0.  1.
        -13    1    4    4    0    0  0.16081047076E+01 -0.86217278092E+00 -0.10247722451E+01  0.20953913345E+01  0.10566000000E+00 0. -1.
        -14    1    4    4    0    0  0.10308610473E+02 -0.42445977908E+01 -0.36029472486E+01  0.11716027021E+02  0.00000000000E+00 0.  1.
<mgrwt>
<rscale>  0 0.79725099E+02</rscale>
<asrwt>0</asrwt>
<pdfrwt beam="1">  1        2 0.33078183E-02 0.79725099E+02</pdfrwt>
<pdfrwt beam="2">  1       -1 0.11370035E-01 0.79725099E+02</pdfrwt>
<totfact> 0.12722239E+05</totfact>
</mgrwt>
</event>
<event>
 8    1  0.1226832E-024  0.8497437E+02  0.7818608E-02  0.1315500E+00
         -1   -1    0    0    0  501 -0.00000000000E+00  0.00000000000E+00  0.16509548168E+02  0.16509548937E+02  0.50400000000E-02 0.  1.
          2   -1    0    0  501    0  0.00000000000E+00 -0.00000000000E+00 -0.10934042564E+03  0.10934042567E+03  0.25500000000E-02 0. -1.
         24    2    1    2    0    0  0.88817841970E-15  0.00000000000E+00 -0.92830877473E+02  0.12584997461E+03  0.84974374352E+02 0.  0.
         66    2    3    3    0    0 -0.43170756488E+01 -0.40921120135E+02 -0.61972946134E+02  0.74416538928E+02  0.19999995794E+01 0.  0.
        -13    1    3    3    0    0  0.43170756488E+01  0.40921120135E+02 -0.30857931340E+02  0.51433435680E+02  0.10566000000E+00 0.  1.
         13    1    4    4    0    0 -0.35235144346E+01 -0.29725759685E+02 -0.45512095466E+02  0.54473828033E+02  0.10566000000E+00 0. -1.
        -13    1    4    4    0    0 -0.52611141867E+00 -0.56723477458E+01 -0.76105056786E+01  0.95070123011E+01  0.10566000000E+00 0.  1.
        -14    1    4    4    0    0 -0.26744979555E+00 -0.55230127046E+01 -0.88503449888E+01  0.10435698594E+02  0.00000000000E+00 0.  1.
<mgrwt>
<rscale>  0 0.84974374E+02</rscale>
<asrwt>0</asrwt>
<pdfrwt beam="1">  1        2 0.16821604E-01 0.84974374E+02</pdfrwt>
<pdfrwt beam="2">  1       -1 0.25399306E-02 0.84974374E+02</pdfrwt>
<totfact> 0.15465861E+05</totfact>
</mgrwt>
</event>
<event>
 8    1  0.1226832E-024  0.7971892E+02  0.7818608E-02  0.1329851E+00
          2   -1    0    0  501    0  0.00000000000E+00  0.00000000000E+00  0.67973971368E+02  0.67973971416E+02  0.25500000000E-02 0. -1.
         -1   -1    0    0    0  501 -0.00000000000E+00 -0.00000000000E+00 -0.23373305282E+02  0.23373305825E+02  0.50400000000E-02 0.  1.
         24    2    1    2    0    0 -0.17763568394E-14 -0.71054273576E-14  0.44600666086E+02  0.91347277241E+02  0.79718916475E+02 0.  0.
         66    2    3    3    0    0 -0.99061081380E+01 -0.38098207597E+02  0.29300083592E+02  0.49113127678E+02  0.20000028165E+01 0.  0.
        -13    1    3    3    0    0  0.99061081380E+01  0.38098207597E+02  0.15300582494E+02  0.42234149563E+02  0.10566000000E+00 0.  1.
         13    1    4    4    0    0 -0.77939352797E+01 -0.30471087939E+02  0.23762730837E+02  0.39419679961E+02  0.10566000000E+00 0. -1.
        -13    1    4    4    0    0 -0.15062237200E+01 -0.59459303488E+01  0.38976579747E+01  0.72681290117E+01  0.10566000000E+00 0.  1.
         14    1    4    4    0    0 -0.60594913825E+00 -0.16811893094E+01  0.16396947797E+01  0.24253187054E+01  0.00000000000E+00 0. -1.
<mgrwt>
<rscale>  0 0.79718916E+02</rscale>
<asrwt>0</asrwt>
<pdfrwt beam="1">  1        2 0.10457534E-01 0.79718916E+02</pdfrwt>
<pdfrwt beam="2">  1       -1 0.35958932E-02 0.79718916E+02</pdfrwt>
<totfact> 0.16185314E+05</totfact>
</mgrwt>
</event>
<event>
 8    1  0.1226832E-024  0.7762488E+02  0.7818608E-02  0.1335930E+00
         -1   -1    0    0    0  501 -0.00000000000E+00  0.00000000000E+00  0.35871086583E+01  0.35871121990E+01  0.50400000000E-02 0.  1.
          2   -1    0    0  501    0  0.00000000000E+00 -0.00000000000E+00 -0.41994952015E+03  0.41994952016E+03  0.25500000000E-02 0. -1.
         24    2    1    2    0    0 -0.35527136788E-14 -0.71054273576E-14 -0.41636241149E+03  0.42353663236E+03  0.77624875169E+02 0.  0.
         66    2    3    3    0    0  0.20670018520E+02  0.32182387242E+02 -0.24344467280E+03  0.24643916983E+03  0.19999997395E+01 0.  0.
        -13    1    3    3    0    0 -0.20670018520E+02 -0.32182387242E+02 -0.17291773869E+03  0.17709746253E+03  0.10566000000E+00 0.  1.
         13    1    4    4    0    0  0.22940850362E+01  0.43308939927E+01 -0.34353236322E+02  0.34701231660E+02  0.10566000000E+00 0. -1.
        -13    1    4    4    0    0  0.12055004866E+02  0.18755682847E+02 -0.13994720285E+03  0.14171213615E+03  0.10566000000E+00 0.  1.
         14    1    4    4    0    0  0.63209286179E+01  0.90958104016E+01 -0.69144233628E+02  0.70025802027E+02  0.00000000000E+00 0. -1.
<mgrwt>
<rscale>  0 0.77624875E+02</rscale>
<asrwt>0</asrwt>
<pdfrwt beam="1">  1        2 0.64607580E-01 0.77624875E+02</pdfrwt>
<pdfrwt beam="2">  1       -1 0.55186348E-03 0.77624875E+02</pdfrwt>
<totfact> 0.31083644E+05</totfact>
</mgrwt>
</event>
<event>
 8    1  0.1226832E-024  0.7603899E+02  0.7818608E-02  0.1340683E+00
         -1   -1    0    0    0  501 -0.00000000000E+00  0.00000000000E+00  0.24289171295E+02  0.24289171818E+02  0.50400000000E-02 0.  1.
          2   -1    0    0  501    0  0.00000000000E+00 -0.00000000000E+00 -0.59511372365E+02  0.59511372420E+02  0.25500000000E-02 0. -1.
         24    2    1    2    0    0  0.00000000000E+00 -0.35527136788E-14 -0.35222201070E+02  0.83800544238E+02  0.76038988462E+02 0.  0.
         66    2    3    3    0    0  0.48503507260E+01 -0.27614683701E+02 -0.45879783494E+02  0.53805679923E+02  0.20000001341E+01 0.  0.
        -13    1    3    3    0    0 -0.48503507260E+01  0.27614683701E+02  0.10657582423E+02  0.29994864314E+02  0.10566000000E+00 0.  1.
         13    1    4    4    0    0  0.16170727957E+01 -0.12529826547E+02 -0.22058312766E+02  0.25420302985E+02  0.10566000000E+00 0. -1.
        -13    1    4    4    0    0  0.27488473766E+01 -0.13548365812E+02 -0.21354845213E+02  0.25439240479E+02  0.10566000000E+00 0.  1.
        -14    1    4    4    0    0  0.48443055374E+00 -0.15364913422E+01 -0.24666255146E+01  0.29461364590E+01  0.00000000000E+00 0.  1.
<mgrwt>
<rscale>  0 0.76038988E+02</rscale>
<asrwt>0</asrwt>
<pdfrwt beam="1">  1        2 0.91555957E-02 0.76038988E+02</pdfrwt>
<pdfrwt beam="2">  1       -1 0.37367956E-02 0.76038988E+02</pdfrwt>
<totfact> 0.17831018E+05</totfact>
</mgrwt>
</event>
<event>
 8    1  0.1226832E-024  0.7975853E+02  0.7818608E-02  0.1329738E+00
          2   -1    0    0  501    0  0.00000000000E+00  0.00000000000E+00  0.17940430960E+02  0.17940431141E+02  0.25500000000E-02 0. -1.
         -1   -1    0    0    0  501 -0.00000000000E+00 -0.00000000000E+00 -0.88646454717E+02  0.88646454860E+02  0.50400000000E-02 0.  1.
         24    2    1    2    0    0  0.00000000000E+00  0.00000000000E+00 -0.70706023757E+02  0.10658688600E+03  0.79758526014E+02 0.  0.
         66    2    3    3    0    0  0.75048282966E+01 -0.35540869525E+02 -0.57288172855E+02  0.67863175678E+02  0.20000024322E+01 0.  0.
        -13    1    3    3    0    0 -0.75048282966E+01  0.35540869525E+02 -0.13417850902E+02  0.38723710323E+02  0.10566000000E+00 0.  1.
         13    1    4    4    0    0  0.29344360060E+01 -0.10643540399E+02 -0.16717153376E+02  0.20034226911E+02  0.10566000000E+00 0. -1.
        -13    1    4    4    0    0  0.67723832699E+00 -0.53873779162E+01 -0.83366269797E+01  0.99495229030E+01  0.10566000000E+00 0.  1.
         14    1    4    4    0    0  0.38931539637E+01 -0.19509951210E+02 -0.32234392499E+02  0.37879425864E+02  0.00000000000E+00 0. -1.
<mgrwt>
<rscale>  0 0.79758526E+02</rscale>
<asrwt>0</asrwt>
<pdfrwt beam="1">  1        2 0.27600664E-02 0.79758526E+02</pdfrwt>
<pdfrwt beam="2">  1       -1 0.13637916E-01 0.79758526E+02</pdfrwt>
<totfact> 0.12249137E+05</totfact>
</mgrwt>
</event>
<event>
 8    1  0.1226832E-024  0.7699528E+02  0.7818608E-02  0.1337801E+00
          2   -1    0    0  501    0  0.00000000000E+00  0.00000000000E+00  0.45090960491E+03  0.45090960491E+03  0.25500000000E-02 0. -1.
         -1   -1    0    0    0  501 -0.00000000000E+00 -0.00000000000E+00 -0.32868390935E+01  0.32868429577E+01  0.50400000000E-02 0.  1.
         24    2    1    2    0    0  0.00000000000E+00  0.00000000000E+00  0.44762276581E+03  0.45419644787E+03  0.76995277679E+02 0.  0.
         66    2    3    3    0    0 -0.26950104300E+02  0.76209278804E+01  0.37955257155E+03  0.38058972824E+03  0.20000024672E+01 0.  0.
        -13    1    3    3    0    0  0.26950104300E+02 -0.76209278804E+01  0.68070194264E+02  0.73606719630E+02  0.10566000000E+00 0.  1.
         13    1    4    4    0    0 -0.23359844985E+02  0.59999663197E+01  0.32223021603E+03  0.32313156027E+03  0.10566000000E+00 0. -1.
        -13    1    4    4    0    0 -0.15203466901E+01  0.73850623217E+00  0.23259432089E+02  0.23321003209E+02  0.10566000000E+00 0.  1.
         14    1    4    4    0    0 -0.20699126243E+01  0.88245532860E+00  0.34062923429E+02  0.34137164765E+02  0.00000000000E+00 0. -1.
<mgrwt>
<rscale>  0 0.76995278E+02</rscale>
<asrwt>0</asrwt>
<pdfrwt beam="1">  1        2 0.69370703E-01 0.76995278E+02</pdfrwt>
<pdfrwt beam="2">  1       -1 0.50566789E-03 0.76995278E+02</pdfrwt>
<totfact> 0.32524256E+05</totfact>
</mgrwt>
</event>
<event>
 8    1  0.1226832E-024  0.8079482E+02  0.7818608E-02  0.1326811E+00
         -1   -1    0    0    0  501 -0.00000000000E+00  0.00000000000E+00  0.34048701678E+01  0.34048738979E+01  0.50400000000E-02 0.  1.
          2   -1    0    0  501    0  0.00000000000E+00 -0.00000000000E+00 -0.47929863953E+03  0.47929863953E+03  0.25500000000E-02 0. -1.
         24    2    1    2    0    0 -0.35527136788E-14  0.00000000000E+00 -0.47589376936E+03  0.48270351343E+03  0.80794815207E+02 0.  0.
         66    2    3    3    0    0  0.24650593281E+02 -0.11038319379E+02 -0.41737012102E+03  0.41824790993E+03  0.19999992369E+01 0.  0.
        -13    1    3    3    0    0 -0.24650593281E+02  0.11038319379E+02 -0.58523648344E+02  0.64455603506E+02  0.10566000000E+00 0.  1.
         13    1    4    4    0    0  0.12826175639E+02 -0.60173134350E+01 -0.21118112162E+03  0.21165584361E+03  0.10566000000E+00 0. -1.
        -13    1    4    4    0    0  0.71571579894E+01 -0.33388190307E+01 -0.13434217590E+03  0.13457415804E+03  0.10566000000E+00 0.  1.
        -14    1    4    4    0    0  0.46672596530E+01 -0.16821869137E+01 -0.71846823499E+02  0.72017908276E+02  0.00000000000E+00 0.  1.
<mgrwt>
<rscale>  0 0.80794815E+02</rscale>
<asrwt>0</asrwt>
<pdfrwt beam="1">  1        2 0.73738199E-01 0.80794815E+02</pdfrwt>
<pdfrwt beam="2">  1       -1 0.52382685E-03 0.80794815E+02</pdfrwt>
<totfact> 0.29274294E+05</totfact>
</mgrwt>
</event>
<event>
 8    1  0.1226832E-024  0.7992781E+02  0.7818608E-02  0.1329256E+00
         -1   -1    0    0    0  501 -0.00000000000E+00  0.00000000000E+00  0.39290314229E+02  0.39290314553E+02  0.50400000000E-02 0.  1.
          2   -1    0    0  501    0  0.00000000000E+00 -0.00000000000E+00 -0.40649040056E+02  0.40649040136E+02  0.25500000000E-02 0. -1.
         24    2    1    2    0    0  0.00000000000E+00  0.35527136788E-14 -0.13587258262E+01  0.79939354688E+02  0.79927806752E+02 0.  0.
         66    2    3    3    0    0 -0.95851431200E+01 -0.20746763910E+02 -0.33438227974E+02  0.40551427561E+02  0.20000014548E+01 0.  0.
        -13    1    3    3    0    0  0.95851431200E+01  0.20746763910E+02  0.32079502148E+02  0.39387927128E+02  0.10566000000E+00 0.  1.
         13    1    4    4    0    0 -0.54251904707E+01 -0.13275468322E+02 -0.19935742123E+02  0.24558414624E+02  0.10566000000E+00 0. -1.
        -13    1    4    4    0    0 -0.16152197669E+00 -0.36885943884E+00 -0.76637863588E+00  0.87215072304E+00  0.10566000000E+00 0. -1.
         14    1    4    4    0    0 -0.39984306727E+01 -0.71024361487E+01 -0.12736107215E+02  0.15120862214E+02  0.00000000000E+00 0. -1.
<mgrwt>
<rscale>  0 0.79927807E+02</rscale>
<asrwt>0</asrwt>
<pdfrwt beam="1">  1        2 0.62536985E-02 0.79927807E+02</pdfrwt>
<pdfrwt beam="2">  1       -1 0.60446637E-02 0.79927807E+02</pdfrwt>
<totfact> 0.14338268E+05</totfact>
</mgrwt>
</event>
<event>
 8    1  0.1226832E-024  0.7952474E+02  0.7818608E-02  0.1330406E+00
         -1   -1    0    0    0  501 -0.00000000000E+00  0.00000000000E+00  0.56047916086E+01  0.56047938747E+01  0.50400000000E-02 0.  1.
          2   -1    0    0  501    0  0.00000000000E+00 -0.00000000000E+00 -0.28208822460E+03  0.28208822462E+03  0.25500000000E-02 0. -1.
         24    2    1    2    0    0  0.00000000000E+00  0.00000000000E+00 -0.27648343299E+03  0.28769301849E+03  0.79524739340E+02 0.  0.
         66    2    3    3    0    0  0.33959125566E+02  0.10328310835E+02 -0.20295695243E+03  0.20604713236E+03  0.19999998705E+01 0.  0.
        -13    1    3    3    0    0 -0.33959125566E+02 -0.10328310835E+02 -0.73526480565E+02  0.81645886132E+02  0.10566000000E+00 0.  1.
         13    1    4    4    0    0  0.21293945743E+02  0.65032606258E+01 -0.12690530172E+03  0.12884366997E+03  0.10566000000E+00 0.  1.
        -13    1    4    4    0    0  0.90118585305E+01  0.32880669124E+01 -0.54910921425E+02  0.55742671572E+02  0.10566000000E+00 0. -1.
        -14    1    4    4    0    0  0.36533212922E+01  0.53698329706E+00 -0.21140729286E+02  0.21460790812E+02  0.00000000000E+00 0.  1.
<mgrwt>
<rscale>  0 0.79524739E+02</rscale>
<asrwt>0</asrwt>
<pdfrwt beam="1">  1        2 0.43398177E-01 0.79524739E+02</pdfrwt>
<pdfrwt beam="2">  1       -1 0.86227603E-03 0.79524739E+02</pdfrwt>
<totfact> 0.25324975E+05</totfact>
</mgrwt>
</event>
<event>
 8    1  0.1226832E-024  0.8048706E+02  0.7818608E-02  0.1327675E+00
         -1   -1    0    0    0  501 -0.00000000000E+00  0.00000000000E+00  0.40752216313E+01  0.40752247479E+01  0.50400000000E-02 0.  1.
          2   -1    0    0  501    0  0.00000000000E+00 -0.00000000000E+00 -0.39741174039E+03  0.39741174040E+03  0.25500000000E-02 0. -1.
         24    2    1    2    0    0 -0.35527136788E-14  0.71054273576E-14 -0.39333651876E+03  0.40148696514E+03  0.80487056059E+02 0.  0.
         66    2    3    3    0    0  0.22452090552E+02 -0.32765734107E+02 -0.22827717279E+03  0.23171568207E+03  0.19999995939E+01 0.  0.
        -13    1    3    3    0    0 -0.22452090552E+02  0.32765734107E+02 -0.16505934597E+03  0.16977128308E+03  0.10566000000E+00 0.  1.
         13    1    4    4    0    0  0.18664972261E+01 -0.29806539806E+01 -0.22902695137E+02  0.23171377141E+02  0.10566000000E+00 0. -1.
        -13    1    4    4    0    0  0.92854338272E+01 -0.14244605961E+02 -0.94959304369E+02  0.96469729608E+02  0.10566000000E+00 0.  1.
        -14    1    4    4    0    0  0.11300159499E+02 -0.15540474165E+02 -0.11041517328E+03  0.11207457532E+03  0.00000000000E+00 0.  1.
<mgrwt>
<rscale>  0 0.80487056E+02</rscale>
<asrwt>0</asrwt>
<pdfrwt beam="1">  1        2 0.61140237E-01 0.80487056E+02</pdfrwt>
<pdfrwt beam="2">  1       -1 0.62695773E-03 0.80487056E+02</pdfrwt>
<totfact> 0.27745922E+05</totfact>
</mgrwt>
</event>
<event>
 8    1  0.1226832E-024  0.8110605E+02  0.7818608E-02  0.1325942E+00
          2   -1    0    0  501    0  0.00000000000E+00  0.00000000000E+00  0.20234506961E+03  0.20234506962E+03  0.25500000000E-02 0. -1.
         -1   -1    0    0    0  501 -0.00000000000E+00 -0.00000000000E+00 -0.81274403048E+01  0.81274418675E+01  0.50400000000E-02 0.  1.
         24    2    1    2    0    0  0.00000000000E+00  0.00000000000E+00  0.19421762930E+03  0.21047251149E+03  0.81106045159E+02 0.  0.
         66    2    3    3    0    0 -0.10496769122E+01 -0.22572991808E+02  0.18447415442E+03  0.18586380881E+03  0.19999989633E+01 0.  0.
        -13    1    3    3    0    0  0.10496769122E+01  0.22572991808E+02  0.97434748826E+01  0.24608702680E+02  0.10566000000E+00 0.  1.
         13    1    4    4    0    0 -0.97551730450E+00 -0.77290040044E+01  0.63763834646E+02  0.64238048770E+02  0.10566000000E+00 0. -1.
        -13    1    4    4    0    0 -0.40995261339E+00 -0.21142706051E+01  0.18501575366E+02  0.18626799413E+02  0.10566000000E+00 0.  1.
        -14    1    4    4    0    0  0.33579300570E+00 -0.12729717199E+02  0.10220874441E+03  0.10299896063E+03  0.00000000000E+00 0.  1.
<mgrwt>
<rscale>  0 0.81106045E+02</rscale>
<asrwt>0</asrwt>
<pdfrwt beam="1">  1        2 0.31130010E-01 0.81106045E+02</pdfrwt>
<pdfrwt beam="2">  1       -1 0.12503756E-02 0.81106045E+02</pdfrwt>
<totfact> 0.21359653E+05</totfact>
</mgrwt>
</event>
<event>
 8    1  0.1226832E-024  0.7748556E+02  0.7818608E-02  0.1336342E+00
         -1   -1    0    0    0  501 -0.00000000000E+00  0.00000000000E+00  0.24706857946E+01  0.24706909352E+01  0.50400000000E-02 0.  1.
          2   -1    0    0  501    0  0.00000000000E+00 -0.00000000000E+00 -0.60752415091E+03  0.60752415092E+03  0.25500000000E-02 0. -1.
         24    2    1    2    0    0  0.00000000000E+00  0.44408920985E-15 -0.60505346512E+03  0.60999484185E+03  0.77485556307E+02 0.  0.
         66    2    3    3    0    0  0.35316730719E+02  0.38075907870E+01 -0.42397975661E+03  0.42546986172E+03  0.20000001645E+01 0.  0.
        -13    1    3    3    0    0 -0.35316730719E+02 -0.38075907870E+01 -0.18107370851E+03  0.18452498013E+03  0.10566000000E+00 0.  1.
         13    1    4    4    0    0  0.23751544239E+02  0.28977240523E+01 -0.27649898869E+03  0.27753240274E+03  0.10566000000E+00 0. -1.
        -13    1    4    4    0    0  0.14125656235E+01  0.37144208008E-01 -0.19907550780E+02  0.19957917312E+02  0.10566000000E+00 0.  1.
        -14    1    4    4    0    0  0.10152620856E+02  0.87272252668E+00 -0.12757321714E+03  0.12797954167E+03  0.00000000000E+00 0.  1.
<mgrwt>
<rscale>  0 0.77485556E+02</rscale>
<asrwt>0</asrwt>
<pdfrwt beam="1">  1        2 0.93465135E-01 0.77485556E+02</pdfrwt>
<pdfrwt beam="2">  1       -1 0.38010639E-03 0.77485556E+02</pdfrwt>
<totfact> 0.35066281E+05</totfact>
</mgrwt>
</event>
<event>
 8    1  0.1226832E-024  0.7987303E+02  0.7818608E-02  0.1329412E+00
         -1   -1    0    0    0  501 -0.00000000000E+00  0.00000000000E+00  0.18686312491E+02  0.18686313171E+02  0.50400000000E-02 0.  1.
          2   -1    0    0  501    0  0.00000000000E+00 -0.00000000000E+00 -0.85352599023E+02  0.85352599061E+02  0.25500000000E-02 0. -1.
         24    2    1    2    0    0  0.71054273576E-14 -0.35527136788E-14 -0.66666286532E+02  0.10403891223E+03  0.79873033612E+02 0.  0.
         66    2    3    3    0    0  0.34299221767E+02 -0.18209534761E+02 -0.21352336033E+02  0.44361537592E+02  0.19999983680E+01 0.  0.
        -13    1    3    3    0    0 -0.34299221767E+02  0.18209534761E+02 -0.45313950499E+02  0.59677374639E+02  0.10566000000E+00 0.  1.
         13    1    4    4    0    0  0.18126412336E+01 -0.74498949341E+00 -0.79865262756E+00  0.21188883034E+01  0.10566000000E+00 0. -1.
        -13    1    4    4    0    0  0.11209398365E+01 -0.83982775090E+00 -0.71243780347E+00  0.15749756912E+01  0.10566000000E+00 0.  1.
         14    1    4    4    0    0  0.31365640696E+02 -0.16624717517E+02 -0.19841245602E+02  0.40667673598E+02  0.00000000000E+00 0. -1.
<mgrwt>
<rscale>  0 0.79873034E+02</rscale>
<asrwt>0</asrwt>
<pdfrwt beam="1">  1        2 0.13131169E-01 0.79873034E+02</pdfrwt>
<pdfrwt beam="2">  1       -1 0.28748174E-02 0.79873034E+02</pdfrwt>
<totfact> 0.17052047E+05</totfact>
</mgrwt>
</event>
<event>
 8    1  0.1226832E-024  0.8177715E+02  0.7818608E-02  0.1324082E+00
          2   -1    0    0  501    0  0.00000000000E+00  0.00000000000E+00  0.21960715623E+03  0.21960715625E+03  0.25500000000E-02 0. -1.
         -1   -1    0    0    0  501 -0.00000000000E+00 -0.00000000000E+00 -0.76130282720E+01  0.76130299403E+01  0.50400000000E-02 0.  1.
         24    2    1    2    0    0 -0.35527136788E-14 -0.17763568394E-14  0.21199412796E+03  0.22722018619E+03  0.81777152808E+02 0.  0.
         66    2    3    3    0    0  0.20995719727E+02  0.10535013592E+02  0.19896724602E+03  0.20035910699E+03  0.20000024572E+01 0.  0.
        -13    1    3    3    0    0 -0.20995719727E+02 -0.10535013592E+02  0.13026881945E+02  0.26861079195E+02  0.10566000000E+00 0.  1.
         13    1    4    4    0    0  0.38351138858E+01  0.12340786624E+01  0.33151791746E+02  0.33395860652E+02  0.10566000000E+00 0. -1.
        -13    1    4    4    0    0  0.61362119720E+01  0.35495068352E+01  0.63859909785E+02  0.64252247727E+02  0.10566000000E+00 0.  1.
         14    1    4    4    0    0  0.11024393869E+02  0.57514280947E+01  0.10195554448E+03  0.10271099862E+03  0.00000000000E+00 0. -1.
<mgrwt>
<rscale>  0 0.81777153E+02</rscale>
<asrwt>0</asrwt>
<pdfrwt beam="1">  1        2 0.33785714E-01 0.81777153E+02</pdfrwt>
<pdfrwt beam="2">  1       -1 0.11712353E-02 0.81777153E+02</pdfrwt>
<totfact> 0.21509589E+05</totfact>
</mgrwt>
</event>
<event>
 8    1  0.1226832E-024  0.8197882E+02  0.7818608E-02  0.1323528E+00
         -1   -1    0    0    0  501 -0.00000000000E+00  0.00000000000E+00  0.33909277108E+02  0.33909277483E+02  0.50400000000E-02 0.  1.
          2   -1    0    0  501    0  0.00000000000E+00 -0.00000000000E+00 -0.49547851869E+02  0.49547851935E+02  0.25500000000E-02 0. -1.
         24    2    1    2    0    0  0.00000000000E+00  0.00000000000E+00 -0.15638574761E+02  0.83457129418E+02  0.81978823059E+02 0.  0.
         66    2    3    3    0    0  0.20478755472E+02  0.23237902964E+01 -0.43864983911E+02  0.48506868124E+02  0.20000036574E+01 0.  0.
        -13    1    3    3    0    0 -0.20478755472E+02 -0.23237902964E+01  0.28226409150E+02  0.34950261294E+02  0.10566000000E+00 0.  1.
         13    1    4    4    0    0  0.13035122551E+02  0.80742485631E+00 -0.28917590264E+02  0.31730183509E+02  0.10566000000E+00 0. -1.
        -13    1    4    4    0    0  0.66147445048E+01  0.13838390060E+01 -0.13645653653E+02  0.15227766839E+02  0.10566000000E+00 0. -1.
         14    1    4    4    0    0  0.82888841616E+00  0.13252643418E+00 -0.13017399945E+01  0.15489177756E+01  0.00000000000E+00 0. -1.
<mgrwt>
<rscale>  0 0.81978823E+02</rscale>
<asrwt>0</asrwt>
<pdfrwt beam="1">  1        2 0.76227465E-02 0.81978823E+02</pdfrwt>
<pdfrwt beam="2">  1       -1 0.52168119E-02 0.81978823E+02</pdfrwt>
<totfact> 0.13946030E+05</totfact>
</mgrwt>
</event>
<event>
 8    1  0.1226832E-024  0.8722389E+02  0.7818608E-02  0.1309717E+00
         -1   -1    0    0    0  501 -0.00000000000E+00  0.00000000000E+00  0.27260696287E+01  0.27260742877E+01  0.50400000000E-02 0.  1.
          2   -1    0    0  501    0  0.00000000000E+00 -0.00000000000E+00 -0.69770782041E+03  0.69770782042E+03  0.25500000000E-02 0. -1.
         24    2    1    2    0    0  0.00000000000E+00  0.00000000000E+00 -0.69498175078E+03  0.70043389470E+03  0.87223889668E+02 0.  0.
         66    2    3    3    0    0  0.16946482153E+02 -0.19395225948E+02 -0.63006553014E+03  0.63059490192E+03  0.20000014220E+01 0.  0.
        -13    1    3    3    0    0 -0.16946482153E+02  0.19395225948E+02 -0.64916220639E+02  0.69838992783E+02  0.10566000000E+00 0.  1.
         13    1    4    4    0    0  0.93917871628E+01 -0.10274787148E+02 -0.34119292732E+03  0.34147679531E+03  0.10566000000E+00 0. -1.
        -13    1    4    4    0    0  0.30039626386E+01 -0.29595101475E+01 -0.11335725615E+03  0.11343571385E+03  0.10566000000E+00 0.  1.
        -14    1    4    4    0    0  0.45507323515E+01 -0.61609286516E+01 -0.17551534668E+03  0.17568239276E+03  0.00000000000E+00 0.  1.
<mgrwt>
<rscale>  0 0.87223890E+02</rscale>
<asrwt>0</asrwt>
<pdfrwt beam="1">  1        2 0.10733952E+00 0.87223890E+02</pdfrwt>
<pdfrwt beam="2">  1       -1 0.41939624E-03 0.87223890E+02</pdfrwt>
<totfact> 0.26673065E+05</totfact>
</mgrwt>
</event>
<event>
 8    1  0.1226832E-024  0.7606311E+02  0.7818608E-02  0.1340610E+00
          2   -1    0    0  501    0  0.00000000000E+00  0.00000000000E+00  0.22788949924E+03  0.22788949925E+03  0.25500000000E-02 0. -1.
         -1   -1    0    0    0  501 -0.00000000000E+00 -0.00000000000E+00 -0.63469312519E+01  0.63469332530E+01  0.50400000000E-02 0.  1.
         24    2    1    2    0    0  0.00000000000E+00 -0.35527136788E-14  0.22154256799E+03  0.23423643251E+03  0.76063111184E+02 0.  0.
         66    2    3    3    0    0 -0.57057905077E+01  0.17356279575E+02  0.21347397818E+03  0.21426370632E+03  0.19999993789E+01 0.  0.
        -13    1    3    3    0    0  0.57057905077E+01 -0.17356279575E+02  0.80685898063E+01  0.19972726191E+02  0.10566000000E+00 0.  1.
         13    1    4    4    0    0 -0.19693166607E+01  0.53200434874E+01  0.60624825003E+02  0.60889749888E+02  0.10566000000E+00 0. -1.
        -13    1    4    4    0    0 -0.15281031946E+01  0.41563747800E+01  0.61254476729E+02  0.61414433434E+02  0.10566000000E+00 0.  1.
         14    1    4    4    0    0 -0.22083706524E+01  0.78798613079E+01  0.91594676450E+02  0.91959522993E+02  0.00000000000E+00 0. -1.
<mgrwt>
<rscale>  0 0.76063111E+02</rscale>
<asrwt>0</asrwt>
<pdfrwt beam="1">  1        2 0.35059922E-01 0.76063111E+02</pdfrwt>
<pdfrwt beam="2">  1       -1 0.97645115E-03 0.76063111E+02</pdfrwt>
<totfact> 0.26365647E+05</totfact>
</mgrwt>
</event>
<event>
 8    1  0.1226832E-024  0.8000842E+02  0.7818608E-02  0.1329028E+00
         -1   -1    0    0    0  501 -0.00000000000E+00  0.00000000000E+00  0.46555939915E+01  0.46555967195E+01  0.50400000000E-02 0.  1.
          2   -1    0    0  501    0  0.00000000000E+00 -0.00000000000E+00 -0.34374484665E+03  0.34374484666E+03  0.25500000000E-02 0. -1.
         24    2    1    2    0    0  0.17763568394E-14 -0.88817841970E-15 -0.33908925266E+03  0.34840044338E+03  0.80008422545E+02 0.  0.
         66    2    3    3    0    0  0.15037336707E+02 -0.72227286607E+01 -0.32786138226E+03  0.32829160099E+03  0.19999994801E+01 0.  0.
        -13    1    3    3    0    0 -0.15037336707E+02  0.72227286607E+01 -0.11227870398E+02  0.20108842390E+02  0.10566000000E+00 0.  1.
         13    1    4    4    0    0  0.81006990496E+01 -0.39835684858E+01 -0.19490522510E+03  0.19511419241E+03  0.10566000000E+00 0. -1.
        -13    1    4    4    0    0  0.17028604832E+01 -0.68114835111E+00 -0.28935291939E+02  0.28993550671E+02  0.10566000000E+00 0. -1.
         14    1    4    4    0    0  0.52337771739E+01 -0.25580118238E+01 -0.10402086522E+03  0.10418385791E+03  0.00000000000E+00 0. -1.
<mgrwt>
<rscale>  0 0.80008423E+02</rscale>
<asrwt>0</asrwt>
<pdfrwt beam="1">  1        2 0.52883803E-01 0.80008423E+02</pdfrwt>
<pdfrwt beam="2">  1       -1 0.71624571E-03 0.80008423E+02</pdfrwt>
<totfact> 0.26769014E+05</totfact>
</mgrwt>
</event>
<event>
 8    1  0.1226832E-024  0.7947644E+02  0.7818608E-02  0.1330544E+00
         -1   -1    0    0    0  501 -0.00000000000E+00  0.00000000000E+00  0.48927023394E+01  0.48927049353E+01  0.50400000000E-02 0.  1.
          2   -1    0    0  501    0  0.00000000000E+00 -0.00000000000E+00 -0.32275124884E+03  0.32275124885E+03  0.25500000000E-02 0. -1.
         24    2    1    2    0    0  0.35527136788E-14  0.88817841970E-15 -0.31785854651E+03  0.32764395379E+03  0.79476442225E+02 0.  0.
         66    2    3    3    0    0 -0.22240221428E+02 -0.63574650804E+01 -0.29210986284E+03  0.29303108500E+03  0.19999988269E+01 0.  0.
        -13    1    3    3    0    0  0.22240221428E+02  0.63574650804E+01 -0.25748683661E+02  0.34612868787E+02  0.10566000000E+00 0.  1.
         13    1    4    4    0    0 -0.12390236431E+01 -0.22108701890E+00 -0.13168173538E+02  0.13228606027E+02  0.10566000000E+00 0. -1.
        -13    1    4    4    0    0 -0.62040510917E+01 -0.14475081930E+01 -0.73992165486E+02  0.74265989842E+02  0.10566000000E+00 0. -1.
        -14    1    4    4    0    0 -0.14797146693E+02 -0.46888698685E+01 -0.20494952382E+03  0.20553648913E+03  0.00000000000E+00 0.  1.
<mgrwt>
<rscale>  0 0.79476442E+02</rscale>
<asrwt>0</asrwt>
<pdfrwt beam="1">  1        2 0.49654022E-01 0.79476442E+02</pdfrwt>
<pdfrwt beam="2">  1       -1 0.75272389E-03 0.79476442E+02</pdfrwt>
<totfact> 0.26630850E+05</totfact>
</mgrwt>
</event>
<event>
 8    1  0.1226832E-024  0.7153509E+02  0.7818608E-02  0.1354949E+00
          2   -1    0    0  501    0  0.00000000000E+00  0.00000000000E+00  0.16495195687E+03  0.16495195689E+03  0.25500000000E-02 0. -1.
         -1   -1    0    0    0  501 -0.00000000000E+00 -0.00000000000E+00 -0.77556963543E+01  0.77556979919E+01  0.50400000000E-02 0.  1.
         24    2    1    2    0    0 -0.35527136788E-14  0.88817841970E-15  0.15719626052E+03  0.17270765489E+03  0.71535094427E+02 0.  0.
         66    2    3    3    0    0  0.22607195355E+02 -0.63131960771E+01  0.14372802465E+03  0.14564575791E+03  0.20000000015E+01 0.  0.
        -13    1    3    3    0    0 -0.22607195355E+02  0.63131960771E+01  0.13468235866E+02  0.27061896975E+02  0.10566000000E+00 0.  1.
         13    1    4    4    0    0  0.16047053292E+02 -0.44263682385E+01  0.97901874834E+02  0.99307043633E+02  0.10566000000E+00 0. -1.
        -13    1    4    4    0    0  0.45649495518E+01 -0.95912551739E+00  0.32101582803E+02  0.32438888216E+02  0.10566000000E+00 0.  1.
         14    1    4    4    0    0  0.19951925107E+01 -0.92770232117E+00  0.13724567017E+02  0.13899826062E+02  0.00000000000E+00 0. -1.
<mgrwt>
<rscale>  0 0.71535094E+02</rscale>
<asrwt>0</asrwt>
<pdfrwt beam="1">  1        2 0.25377223E-01 0.71535094E+02</pdfrwt>
<pdfrwt beam="2">  1       -1 0.11931842E-02 0.71535094E+02</pdfrwt>
<totfact> 0.27727730E+05</totfact>
</mgrwt>
</event>
<event>
 8    1  0.1226832E-024  0.8024938E+02  0.7818608E-02  0.1328345E+00
         -1   -1    0    0    0  501 -0.00000000000E+00  0.00000000000E+00  0.20123093486E+02  0.20123094117E+02  0.50400000000E-02 0.  1.
          2   -1    0    0  501    0  0.00000000000E+00 -0.00000000000E+00 -0.80007111043E+02  0.80007111084E+02  0.25500000000E-02 0. -1.
         24    2    1    2    0    0  0.00000000000E+00 -0.17763568394E-14 -0.59884017557E+02  0.10013020520E+03  0.80249376539E+02 0.  0.
         66    2    3    3    0    0 -0.25212788430E+02 -0.13700817239E+02 -0.64910332578E+02  0.70998227923E+02  0.19999998382E+01 0.  0.
        -13    1    3    3    0    0  0.25212788430E+02  0.13700817239E+02  0.50263150209E+01  0.29131977279E+02  0.10566000000E+00 0.  1.
         13    1    4    4    0    0 -0.16420746317E+02 -0.91535408109E+01 -0.43094724460E+02  0.47016961400E+02  0.10566000000E+00 0. -1.
        -13    1    4    4    0    0 -0.34601235560E+00 -0.34586217783E+00 -0.15248465957E+01  0.16048882741E+01  0.10566000000E+00 0.  1.
         14    1    4    4    0    0 -0.84460297580E+01 -0.42014142503E+01 -0.20290761522E+02  0.22376378248E+02  0.00000000000E+00 0. -1.
<mgrwt>
<rscale>  0 0.80249377E+02</rscale>
<asrwt>0</asrwt>
<pdfrwt beam="1">  1        2 0.12308786E-01 0.80249377E+02</pdfrwt>
<pdfrwt beam="2">  1       -1 0.30958606E-02 0.80249377E+02</pdfrwt>
<totfact> 0.16556503E+05</totfact>
</mgrwt>
</event>
<event>
 8    1  0.1226832E-024  0.7748460E+02  0.7818608E-02  0.1336345E+00
          2   -1    0    0  501    0  0.00000000000E+00  0.00000000000E+00  0.12847448505E+04  0.12847448505E+04  0.25500000000E-02 0. -1.
         -1   -1    0    0    0  501 -0.00000000000E+00 -0.00000000000E+00 -0.11682933211E+01  0.11683041923E+01  0.50400000000E-02 0.  1.
         24    2    1    2    0    0  0.35527136788E-14  0.00000000000E+00  0.12835765572E+04  0.12859131547E+04  0.77484600264E+02 0.  0.
         66    2    3    3    0    0  0.22557865630E+02 -0.41590963456E+01  0.11598325305E+04  0.11600610562E+04  0.20000007713E+01 0.  0.
        -13    1    3    3    0    0 -0.22557865630E+02  0.41590963456E+01  0.12374402673E+03  0.12585209851E+03  0.10566000000E+00 0.  1.
         13    1    4    4    0    0  0.58317480027E+01 -0.13958470520E+01  0.33570244992E+03  0.33575601815E+03  0.10566000000E+00 0. -1.
        -13    1    4    4    0    0  0.75031949315E+01 -0.14002223845E+01  0.34846066773E+03  0.34854426788E+03  0.10566000000E+00 0.  1.
         14    1    4    4    0    0  0.92229226953E+01 -0.13630269091E+01  0.47566941282E+03  0.47576077018E+03  0.00000000000E+00 0. -1.
<mgrwt>
<rscale>  0 0.77484600E+02</rscale>
<asrwt>0</asrwt>
<pdfrwt beam="1">  1        2 0.19765243E+00 0.77484600E+02</pdfrwt>
<pdfrwt beam="2">  1       -1 0.17973884E-03 0.77484600E+02</pdfrwt>
<totfact> 0.37689420E+05</totfact>
</mgrwt>
</event>
<event>
 8    1  0.1226832E-024  0.8066946E+02  0.7818608E-02  0.1327162E+00
          2   -1    0    0  501    0  0.00000000000E+00  0.00000000000E+00  0.12492998724E+03  0.12492998726E+03  0.25500000000E-02 0. -1.
         -1   -1    0    0    0  501 -0.00000000000E+00 -0.00000000000E+00 -0.13022417020E+02  0.13022417995E+02  0.50400000000E-02 0.  1.
         24    2    1    2    0    0  0.00000000000E+00  0.00000000000E+00  0.11190757022E+03  0.13795240526E+03  0.80669460422E+02 0.  0.
         66    2    3    3    0    0  0.17361494293E+02  0.93889016096E+01  0.11609279810E+03  0.11777567971E+03  0.20000009261E+01 0.  0.
        -13    1    3    3    0    0 -0.17361494293E+02 -0.93889016096E+01 -0.41852278774E+01  0.20176725551E+02  0.10566000000E+00 0.  1.
         13    1    4    4    0    0  0.12940961644E+02  0.74709791126E+01  0.87606052462E+02  0.88871343015E+02  0.10566000000E+00 0. -1.
        -13    1    4    4    0    0  0.12128456358E+01  0.93184166016E+00  0.82539415243E+01  0.83951199001E+01  0.10566000000E+00 0.  1.
         14    1    4    4    0    0  0.32076870138E+01  0.98608083686E+00  0.20232804109E+02  0.20509216794E+02  0.00000000000E+00 0. -1.
<mgrwt>
<rscale>  0 0.80669460E+02</rscale>
<asrwt>0</asrwt>
<pdfrwt beam="1">  1        2 0.19219999E-01 0.80669460E+02</pdfrwt>
<pdfrwt beam="2">  1       -1 0.20034488E-02 0.80669460E+02</pdfrwt>
<totfact> 0.18499385E+05</totfact>
</mgrwt>
</event>
<event>
 8    1  0.1295897E-024  0.7908357E+02  0.7818608E-02  0.1331672E+00
         -1   -1    0    0    0  501 -0.00000000000E+00  0.00000000000E+00  0.14936521673E+01  0.14936606704E+01  0.50400000000E-02 0.  1.
          2   -1    0    0  501    0  0.00000000000E+00 -0.00000000000E+00 -0.10467954774E+04  0.10467954774E+04  0.25500000000E-02 0. -1.
         24    2    1    2    0    0  0.00000000000E+00 -0.44408920985E-15 -0.10453018252E+04  0.10482891381E+04  0.79083570784E+02 0.  0.
         66    2    3    3    0    0 -0.15242950961E+02 -0.36943876274E+01 -0.10037669053E+04  0.10038914265E+04  0.19999995823E+01 0.  0.
        -13    1    3    3    0    0  0.15242950961E+02  0.36943876274E+01 -0.41534919939E+02  0.44397711566E+02  0.10566000000E+00 0.  1.
         13    1    4    4    0    0 -0.47212456528E+01 -0.10168125752E+01 -0.30629407810E+03  0.30633216859E+03  0.10566000000E+00 0. -1.
        -13    1    4    4    0    0 -0.65763172635E+01 -0.19116311497E+01 -0.48576067225E+03  0.48580895849E+03  0.10566000000E+00 0.  1.
        -14    1    4    4    0    0 -0.39453880443E+01 -0.76594390255E+00 -0.21171215492E+03  0.21175029940E+03  0.00000000000E+00 0.  1.
<mgrwt>
<rscale>  0 0.79083571E+02</rscale>
<asrwt>0</asrwt>
<pdfrwt beam="1">  1        2 0.16104487E+00 0.79083571E+02</pdfrwt>
<pdfrwt beam="2">  1       -1 0.22979413E-03 0.79083571E+02</pdfrwt>
<totfact> 0.36342212E+05</totfact>
</mgrwt>
</event>
<event>
 8    1  0.1226832E-024  0.8241298E+02  0.7818608E-02  0.1322340E+00
          2   -1    0    0  501    0  0.00000000000E+00  0.00000000000E+00  0.25375539772E+03  0.25375539773E+03  0.25500000000E-02 0. -1.
         -1   -1    0    0    0  501 -0.00000000000E+00 -0.00000000000E+00 -0.66913833186E+01  0.66913852167E+01  0.50400000000E-02 0.  1.
         24    2    1    2    0    0  0.00000000000E+00  0.00000000000E+00  0.24706401440E+03  0.26044678295E+03  0.82412981603E+02 0.  0.
         66    2    3    3    0    0 -0.24840280538E+02 -0.28506994045E+02  0.17517418281E+03  0.17921964895E+03  0.20000004403E+01 0.  0.
        -13    1    3    3    0    0  0.24840280538E+02  0.28506994045E+02  0.71889831592E+02  0.81227133995E+02  0.10566000000E+00 0.  1.
         13    1    4    4    0    0 -0.86624103301E+01 -0.10397278749E+02  0.62171647318E+02  0.63627554191E+02  0.10566000000E+00 0. -1.
        -13    1    4    4    0    0 -0.12477456176E+02 -0.14791047216E+02  0.91105579311E+02  0.93138068136E+02  0.10566000000E+00 0.  1.
        -14    1    4    4    0    0 -0.37004140314E+01 -0.33186680807E+01  0.21896956180E+02  0.22454026628E+02  0.00000000000E+00 0.  1.
<mgrwt>
<rscale>  0 0.82412982E+02</rscale>
<asrwt>0</asrwt>
<pdfrwt beam="1">  1        2 0.39039284E-01 0.82412982E+02</pdfrwt>
<pdfrwt beam="2">  1       -1 0.10294440E-02 0.82412982E+02</pdfrwt>
<totfact> 0.22190737E+05</totfact>
</mgrwt>
</event>
<event>
 8    1  0.1226832E-024  0.7905785E+02  0.7818608E-02  0.1331747E+00
          2   -1    0    0  501    0  0.00000000000E+00  0.00000000000E+00  0.64823316516E+01  0.64823321531E+01  0.25500000000E-02 0. -1.
         -1   -1    0    0    0  501 -0.00000000000E+00 -0.00000000000E+00 -0.24104531287E+03  0.24104531292E+03  0.50400000000E-02 0.  1.
         24    2    1    2    0    0  0.17763568394E-14  0.00000000000E+00 -0.23456298122E+03  0.24752764508E+03  0.79057845397E+02 0.  0.
         66    2    3    3    0    0 -0.12210133753E+02 -0.36706277843E+02 -0.14242220018E+03  0.14759580383E+03  0.20000016034E+01 0.  0.
        -13    1    3    3    0    0  0.12210133753E+02  0.36706277843E+02 -0.92140781042E+02  0.99931841244E+02  0.10566000000E+00 0.  1.
         13    1    4    4    0    0 -0.15419582721E+01 -0.49471665056E+01 -0.17378662204E+02  0.18135080804E+02  0.10566000000E+00 0. -1.
        -13    1    4    4    0    0 -0.35313854550E+01 -0.87277068547E+01 -0.34567554697E+02  0.35826952870E+02  0.10566000000E+00 0.  1.
        -14    1    4    4    0    0 -0.71367900255E+01 -0.23031404482E+02 -0.90475983277E+02  0.93633770159E+02  0.00000000000E+00 0.  1.
<mgrwt>
<rscale>  0 0.79057845E+02</rscale>
<asrwt>0</asrwt>
<pdfrwt beam="1">  1        2 0.99728202E-03 0.79057845E+02</pdfrwt>
<pdfrwt beam="2">  1       -1 0.37083888E-01 0.79057845E+02</pdfrwt>
<totfact> 0.96671342E+04</totfact>
</mgrwt>
</event>
<event>
 8    1  0.1226832E-024  0.8181181E+02  0.7818608E-02  0.1323987E+00
         -1   -1    0    0    0  501 -0.00000000000E+00  0.00000000000E+00  0.25315493088E+01  0.25315543258E+01  0.50400000000E-02 0.  1.
          2   -1    0    0  501    0  0.00000000000E+00 -0.00000000000E+00 -0.66097520125E+03  0.66097520126E+03  0.25500000000E-02 0. -1.
         24    2    1    2    0    0  0.00000000000E+00 -0.17763568394E-14 -0.65844365194E+03  0.66350675558E+03  0.81811807947E+02 0.  0.
         66    2    3    3    0    0  0.14178937623E+02  0.14758610488E+02 -0.61643391697E+03  0.61677680960E+03  0.20000010966E+01 0.  0.
        -13    1    3    3    0    0 -0.14178937623E+02 -0.14758610488E+02 -0.42009734969E+02  0.46729945986E+02  0.10566000000E+00 0.  1.
         13    1    4    4    0    0  0.22935279091E+01  0.27361836648E+01 -0.11323846456E+03  0.11329478360E+03  0.10566000000E+00 0. -1.
        -13    1    4    4    0    0  0.41592904868E+01  0.49587403238E+01 -0.17507746949E+03  0.17519708984E+03  0.10566000000E+00 0.  1.
        -14    1    4    4    0    0  0.77261192267E+01  0.70636864999E+01 -0.32811798293E+03  0.32828493616E+03  0.00000000000E+00 0.  1.
<mgrwt>
<rscale>  0 0.81811808E+02</rscale>
<asrwt>0</asrwt>
<pdfrwt beam="1">  1        2 0.10168836E+00 0.81811808E+02</pdfrwt>
<pdfrwt beam="2">  1       -1 0.38947004E-03 0.81811808E+02</pdfrwt>
<totfact> 0.31127377E+05</totfact>
</mgrwt>
</event>
<event>
 8    1  0.1226832E-024  0.8366152E+02  0.7818608E-02  0.1318970E+00
          2   -1    0    0  501    0  0.00000000000E+00  0.00000000000E+00  0.78440900397E+03  0.78440900397E+03  0.25500000000E-02 0. -1.
         -1   -1    0    0    0  501 -0.00000000000E+00 -0.00000000000E+00 -0.22307373262E+01  0.22307430197E+01  0.50400000000E-02 0.  1.
         24    2    1    2    0    0  0.00000000000E+00  0.00000000000E+00  0.78217826664E+03  0.78663974699E+03  0.83661524852E+02 0.  0.
         66    2    3    3    0    0  0.31693816753E+02  0.50172219924E+00  0.64761959088E+03  0.64839793663E+03  0.19999970536E+01 0.  0.
        -13    1    3    3    0    0 -0.31693816753E+02 -0.50172219924E+00  0.13455867577E+03  0.13824181037E+03  0.10566000000E+00 0.  1.
         13    1    4    4    0    0  0.19416991076E+02  0.46250638647E-01  0.38535457628E+03  0.38584346865E+03  0.10566000000E+00 0. -1.
        -13    1    4    4    0    0  0.12014782397E+02  0.30109020246E+00  0.25500646219E+03  0.25528954654E+03  0.10566000000E+00 0.  1.
        -14    1    4    4    0    0  0.26204327960E+00  0.15438135813E+00  0.72585524091E+01  0.72649214283E+01  0.00000000000E+00 0.  1.
<mgrwt>
<rscale>  0 0.83661525E+02</rscale>
<asrwt>0</asrwt>
<pdfrwt beam="1">  1        2 0.12067822E+00 0.83661525E+02</pdfrwt>
<pdfrwt beam="2">  1       -1 0.34319105E-03 0.83661525E+02</pdfrwt>
<totfact> 0.30479226E+05</totfact>
</mgrwt>
</event>
<event>
 8    1  0.1226832E-024  0.7994820E+02  0.7818608E-02  0.1329198E+00
          2   -1    0    0  501    0  0.00000000000E+00  0.00000000000E+00  0.10437490670E+02  0.10437490982E+02  0.25500000000E-02 0. -1.
         -1   -1    0    0    0  501 -0.00000000000E+00 -0.00000000000E+00 -0.15309511415E+03  0.15309511423E+03  0.50400000000E-02 0.  1.
         24    2    1    2    0    0 -0.71054273576E-14  0.17763568394E-14 -0.14265762348E+03  0.16353260522E+03  0.79948204680E+02 0.  0.
         66    2    3    3    0    0 -0.38440733764E+02  0.10123839866E+02 -0.79488954300E+02  0.88896996583E+02  0.19999999787E+01 0.  0.
        -13    1    3    3    0    0  0.38440733764E+02 -0.10123839866E+02 -0.63168669182E+02  0.74635608634E+02  0.10566000000E+00 0.  1.
         13    1    4    4    0    0 -0.62987361687E+01  0.13768995461E+01 -0.14253575445E+02  0.15644344240E+02  0.10566000000E+00 0. -1.
        -13    1    4    4    0    0 -0.25337072925E+01  0.49954436769E+00 -0.52119544249E+01  0.58176326957E+01  0.10566000000E+00 0.  1.
         14    1    4    4    0    0 -0.29608290302E+02  0.82473959521E+01 -0.60023424429E+02  0.67435019647E+02  0.00000000000E+00 0. -1.
<mgrwt>
<rscale>  0 0.79948205E+02</rscale>
<asrwt>0</asrwt>
<pdfrwt beam="1">  1        2 0.16057679E-02 0.79948205E+02</pdfrwt>
<pdfrwt beam="2">  1       -1 0.23553093E-01 0.79948205E+02</pdfrwt>
<totfact> 0.10748531E+05</totfact>
</mgrwt>
</event>
<event>
 8    1  0.1226832E-024  0.7986777E+02  0.7818608E-02  0.1329427E+00
          2   -1    0    0  501    0  0.00000000000E+00  0.00000000000E+00  0.16641637837E+04  0.16641637837E+04  0.25500000000E-02 0. -1.
         -1   -1    0    0    0  501 -0.00000000000E+00 -0.00000000000E+00 -0.95826143754E+00  0.95827469146E+00  0.50400000000E-02 0.  1.
         24    2    1    2    0    0 -0.44408920985E-15  0.00000000000E+00  0.16632055223E+04  0.16651220584E+04  0.79867766114E+02 0.  0.
         66    2    3    3    0    0 -0.34055678799E+01 -0.11466286233E+02  0.16259099700E+04  0.16259551975E+04  0.19999994475E+01 0.  0.
        -13    1    3    3    0    0  0.34055678799E+01  0.11466286233E+02  0.37295552259E+02  0.39166860927E+02  0.10566000000E+00 0.  1.
         13    1    4    4    0    0 -0.17707135674E+01 -0.53621893183E+01  0.73281101840E+03  0.73283278336E+03  0.10566000000E+00 0. -1.
        -13    1    4    4    0    0 -0.12415198429E+01 -0.20564965855E+01  0.31983354271E+03  0.31984258121E+03  0.10566000000E+00 0.  1.
        -14    1    4    4    0    0 -0.39333446964E+00 -0.40476003292E+01  0.57326540891E+03  0.57327983292E+03  0.00000000000E+00 0.  1.
<mgrwt>
<rscale>  0 0.79867766E+02</rscale>
<asrwt>0</asrwt>
<pdfrwt beam="1">  1        2 0.25602350E+00 0.79867766E+02</pdfrwt>
<pdfrwt beam="2">  1       -1 0.14742683E-03 0.79867766E+02</pdfrwt>
<totfact> 0.31848456E+05</totfact>
</mgrwt>
</event>
<event>
 8    1  0.1226832E-024  0.8152639E+02  0.7818608E-02  0.1324775E+00
         -1   -1    0    0    0  501 -0.00000000000E+00  0.00000000000E+00  0.19855238541E+01  0.19855302508E+01  0.50400000000E-02 0.  1.
          2   -1    0    0  501    0  0.00000000000E+00 -0.00000000000E+00 -0.83687505571E+03  0.83687505572E+03  0.25500000000E-02 0. -1.
         24    2    1    2    0    0  0.00000000000E+00  0.00000000000E+00 -0.83488953186E+03  0.83886058597E+03  0.81526390099E+02 0.  0.
         66    2    3    3    0    0  0.61031900930E+01  0.23962549625E+02 -0.75082210150E+03  0.75123184225E+03  0.20000000607E+01 0.  0.
        -13    1    3    3    0    0 -0.61031900930E+01 -0.23962549625E+02 -0.84067430364E+02  0.87628743719E+02  0.10566000000E+00 0.  1.
         13    1    4    4    0    0  0.14392791052E+01  0.53157005049E+01 -0.17203610184E+03  0.17212425656E+03  0.10566000000E+00 0. -1.
        -13    1    4    4    0    0  0.31170159045E+01  0.12203006416E+02 -0.40273221295E+03  0.40292911990E+03  0.10566000000E+00 0.  1.
        -14    1    4    4    0    0  0.15468950834E+01  0.64438427040E+01 -0.17605378671E+03  0.17617846579E+03  0.00000000000E+00 0.  1.
<mgrwt>
<rscale>  0 0.81526390E+02</rscale>
<asrwt>0</asrwt>
<pdfrwt beam="1">  1        2 0.12874973E+00 0.81526390E+02</pdfrwt>
<pdfrwt beam="2">  1       -1 0.30546637E-03 0.81526390E+02</pdfrwt>
<totfact> 0.32956779E+05</totfact>
</mgrwt>
</event>
<event>
 8    1  0.1226832E-024  0.7799610E+02  0.7818608E-02  0.1334836E+00
          2   -1    0    0  501    0  0.00000000000E+00  0.00000000000E+00  0.19728111041E+03  0.19728111043E+03  0.25500000000E-02 0. -1.
         -1   -1    0    0    0  501 -0.00000000000E+00 -0.00000000000E+00 -0.77090387126E+01  0.77090403601E+01  0.50400000000E-02 0.  1.
         24    2    1    2    0    0  0.00000000000E+00  0.00000000000E+00  0.18957207170E+03  0.20499015079E+03  0.77996099595E+02 0.  0.
         66    2    3    3    0    0 -0.23157914844E+02  0.23666357891E+02  0.14886781463E+03  0.15251888986E+03  0.20000040895E+01 0.  0.
        -13    1    3    3    0    0  0.23157914844E+02 -0.23666357891E+02  0.40704257075E+02  0.52471260932E+02  0.10566000000E+00 0.  1.
         13    1    4    4    0    0 -0.31053691316E+01  0.29093089652E+01  0.17288485156E+02  0.17804782479E+02  0.10566000000E+00 0. -1.
        -13    1    4    4    0    0 -0.89732159502E+01  0.90687027683E+01  0.61188105121E+02  0.62504042643E+02  0.10566000000E+00 0.  1.
         14    1    4    4    0    0 -0.11079329762E+02  0.11688346157E+02  0.70391224348E+02  0.72210064736E+02  0.00000000000E+00 0. -1.
<mgrwt>
<rscale>  0 0.77996100E+02</rscale>
<asrwt>0</asrwt>
<pdfrwt beam="1">  1        2 0.30350947E-01 0.77996100E+02</pdfrwt>
<pdfrwt beam="2">  1       -1 0.11860058E-02 0.77996100E+02</pdfrwt>
<totfact> 0.23472254E+05</totfact>
</mgrwt>
</event>
<event>
 8    1  0.1226832E-024  0.7597260E+02  0.7818608E-02  0.1340885E+00
          2   -1    0    0  501    0  0.00000000000E+00  0.00000000000E+00  0.17428269262E+03  0.17428269264E+03  0.25500000000E-02 0. -1.
         -1   -1    0    0    0  501 -0.00000000000E+00 -0.00000000000E+00 -0.82794158210E+01  0.82794173551E+01  0.50400000000E-02 0.  1.
         24    2    1    2    0    0  0.00000000000E+00 -0.35527136788E-14  0.16600327680E+03  0.18256210999E+03  0.75972600964E+02 0.  0.
         66    2    3    3    0    0  0.29988740268E+02  0.19560218539E+02  0.11336228296E+03  0.11889883888E+03  0.19999994052E+01 0.  0.
        -13    1    3    3    0    0 -0.29988740268E+02 -0.19560218539E+02  0.52640993840E+02  0.63663271112E+02  0.10566000000E+00 0.  1.
         13    1    4    4    0    0  0.65998527357E+01  0.40294186965E+01  0.23738975974E+02  0.24966866353E+02  0.10566000000E+00 0. -1.
        -13    1    4    4    0    0  0.10608868960E+02  0.67413917883E+01  0.37586909357E+02  0.39633084449E+02  0.10566000000E+00 0.  1.
         14    1    4    4    0    0  0.12780018572E+02  0.87894080545E+01  0.52036397625E+02  0.54298888078E+02  0.00000000000E+00 0. -1.
<mgrwt>
<rscale>  0 0.75972601E+02</rscale>
<asrwt>0</asrwt>
<pdfrwt beam="1">  1        2 0.26812722E-01 0.75972601E+02</pdfrwt>
<pdfrwt beam="2">  1       -1 0.12737564E-02 0.75972601E+02</pdfrwt>
<totfact> 0.24116005E+05</totfact>
</mgrwt>
</event>
<event>
 8    1  0.1226832E-024  0.7992925E+02  0.7818608E-02  0.1329252E+00
         -1   -1    0    0    0  501 -0.00000000000E+00  0.00000000000E+00  0.37212333740E+02  0.37212334082E+02  0.50400000000E-02 0.  1.
          2   -1    0    0  501    0  0.00000000000E+00 -0.00000000000E+00 -0.42920483612E+02  0.42920483688E+02  0.25500000000E-02 0. -1.
         24    2    1    2    0    0  0.35527136788E-14  0.35527136788E-14 -0.57081498716E+01  0.80132817769E+02  0.79929253147E+02 0.  0.
         66    2    3    3    0    0  0.19540055725E+02  0.26024409047E+02 -0.26068285382E+02  0.41744930018E+02  0.20000088537E+01 0.  0.
        -13    1    3    3    0    0 -0.19540055725E+02 -0.26024409047E+02  0.20360135511E+02  0.38387887752E+02  0.10566000000E+00 0.  1.
         13    1    4    4    0    0  0.24715442222E+01  0.40529422345E+01 -0.38859715046E+01  0.61356996478E+01  0.10566000000E+00 0. -1.
        -13    1    4    4    0    0  0.80907120930E+01  0.93134363112E+01 -0.97701063411E+01  0.15737403218E+02  0.10566000000E+00 0.  1.
         14    1    4    4    0    0  0.89777994102E+01  0.12658030501E+02 -0.12412207537E+02  0.19871827152E+02  0.00000000000E+00 0. -1.
<mgrwt>
<rscale>  0 0.79929253E+02</rscale>
<asrwt>0</asrwt>
<pdfrwt beam="1">  1        2 0.66031513E-02 0.79929253E+02</pdfrwt>
<pdfrwt beam="2">  1       -1 0.57249745E-02 0.79929253E+02</pdfrwt>
<totfact> 0.14500100E+05</totfact>
</mgrwt>
</event>
<event>
 8    1  0.1226832E-024  0.8103280E+02  0.7818608E-02  0.1326146E+00
          2   -1    0    0  501    0  0.00000000000E+00  0.00000000000E+00  0.16115994108E+03  0.16115994110E+03  0.25500000000E-02 0. -1.
         -1   -1    0    0    0  501 -0.00000000000E+00 -0.00000000000E+00 -0.10186020094E+02  0.10186021341E+02  0.50400000000E-02 0.  1.
         24    2    1    2    0    0  0.00000000000E+00  0.00000000000E+00  0.15097392099E+03  0.17134596244E+03  0.81032795998E+02 0.  0.
         66    2    3    3    0    0 -0.68462424114E+01  0.24348804641E+02  0.14239459369E+03  0.14463732445E+03  0.19999973274E+01 0.  0.
        -13    1    3    3    0    0  0.68462424114E+01 -0.24348804641E+02  0.85793272996E+01  0.26708637995E+02  0.10566000000E+00 0.  1.
         13    1    4    4    0    0 -0.23808604256E+01  0.82915856757E+01  0.51668273317E+02  0.52383590188E+02  0.10566000000E+00 0. -1.
        -13    1    4    4    0    0 -0.19211228291E+01  0.52708925133E+01  0.28183170248E+02  0.28736305783E+02  0.10566000000E+00 0.  1.
         14    1    4    4    0    0 -0.25442591567E+01  0.10786326452E+02  0.62543150121E+02  0.63517428475E+02  0.00000000000E+00 0. -1.
<mgrwt>
<rscale>  0 0.81032796E+02</rscale>
<asrwt>0</asrwt>
<pdfrwt beam="1">  1        2 0.24793835E-01 0.81032796E+02</pdfrwt>
<pdfrwt beam="2">  1       -1 0.15670803E-02 0.81032796E+02</pdfrwt>
<totfact> 0.19817848E+05</totfact>
</mgrwt>
</event>
<event>
 8    1  0.1226832E-024  0.8161641E+02  0.7818608E-02  0.1324526E+00
         -1   -1    0    0    0  501 -0.00000000000E+00  0.00000000000E+00  0.91143021566E+02  0.91143021706E+02  0.50400000000E-02 0.  1.
          2   -1    0    0  501    0  0.00000000000E+00 -0.00000000000E+00 -0.18271389219E+02  0.18271389397E+02  0.25500000000E-02 0. -1.
         24    2    1    2    0    0 -0.22204460493E-15 -0.35527136788E-14  0.72871632347E+02  0.10941441110E+03  0.81616411070E+02 0.  0.
         66    2    3    3    0    0 -0.17917410721E+01  0.31175302493E+02  0.12892237881E+01  0.31317277988E+02  0.19999952440E+01 0.  0.
        -13    1    3    3    0    0  0.17917410721E+01 -0.31175302493E+02  0.71582408559E+02  0.78097133115E+02  0.10566000000E+00 0.  1.
         13    1    4    4    0    0 -0.13809570552E+01  0.25106182036E+02  0.17119437941E+01  0.25202566029E+02  0.10566000000E+00 0. -1.
        -13    1    4    4    0    0 -0.13525603501E+00  0.32795988391E+01 -0.29881468574E-01  0.32842228423E+01  0.10566000000E+00 0.  1.
         14    1    4    4    0    0 -0.27552798180E+00  0.27895216177E+01 -0.39283853739E+00  0.28304891169E+01  0.00000000000E+00 0. -1.
<mgrwt>
<rscale>  0 0.81616411E+02</rscale>
<asrwt>0</asrwt>
<pdfrwt beam="1">  1        2 0.28109830E-02 0.81616411E+02</pdfrwt>
<pdfrwt beam="2">  1       -1 0.14022003E-01 0.81616411E+02</pdfrwt>
<totfact> 0.11502113E+05</totfact>
</mgrwt>
</event>
<event>
 8    1  0.1226832E-024  0.8098562E+02  0.7818608E-02  0.1326277E+00
          2   -1    0    0  501    0  0.00000000000E+00  0.00000000000E+00  0.64753372155E+01  0.64753377176E+01  0.25500000000E-02 0. -1.
         -1   -1    0    0    0  501 -0.00000000000E+00 -0.00000000000E+00 -0.25321730020E+03  0.25321730025E+03  0.50400000000E-02 0.  1.
         24    2    1    2    0    0  0.17763568394E-14  0.00000000000E+00 -0.24674196299E+03  0.25969263797E+03  0.80985615496E+02 0.  0.
         66    2    3    3    0    0  0.84694847219E+01 -0.33701099152E+02 -0.56938621906E+02  0.66734570751E+02  0.20000033171E+01 0.  0.
        -13    1    3    3    0    0 -0.84694847219E+01  0.33701099152E+02 -0.18980334108E+03  0.19295806722E+03  0.10566000000E+00 0.  1.
         13    1    4    4    0    0  0.35736452454E+01 -0.12861708192E+02 -0.21999567494E+02  0.25732986844E+02  0.10566000000E+00 0. -1.
        -13    1    4    4    0    0  0.13306753088E+01 -0.37651124234E+01 -0.58497264840E+01  0.70835889428E+01  0.10566000000E+00 0.  1.
        -14    1    4    4    0    0  0.35651641678E+01 -0.17074278536E+02 -0.29089327928E+02  0.33917994964E+02  0.00000000000E+00 0.  1.
<mgrwt>
<rscale>  0 0.80985615E+02</rscale>
<asrwt>0</asrwt>
<pdfrwt beam="1">  1        2 0.99620596E-03 0.80985615E+02</pdfrwt>
<pdfrwt beam="2">  1       -1 0.38956500E-01 0.80985615E+02</pdfrwt>
<totfact> 0.89346510E+04</totfact>
</mgrwt>
</event>
<event>
 8    1  0.1226832E-024  0.8114346E+02  0.7818608E-02  0.1325837E+00
         -1   -1    0    0    0  501 -0.00000000000E+00  0.00000000000E+00  0.13101061955E+01  0.13101158900E+01  0.50400000000E-02 0.  1.
          2   -1    0    0  501    0  0.00000000000E+00 -0.00000000000E+00 -0.12564317565E+04  0.12564317565E+04  0.25500000000E-02 0. -1.
         24    2    1    2    0    0  0.88817841970E-15  0.35527136788E-14 -0.12551216503E+04  0.12577418724E+04  0.81143456338E+02 0.  0.
         66    2    3    3    0    0  0.69342005023E+01  0.24382813364E+02 -0.11184577448E+04  0.11187467683E+04  0.20000006195E+01 0.  0.
        -13    1    3    3    0    0 -0.69342005023E+01 -0.24382813364E+02 -0.13666390554E+03  0.13899510411E+03  0.10566000000E+00 0.  1.
         13    1    4    4    0    0  0.47591323339E+01  0.15964859543E+02 -0.75551026156E+03  0.75569391460E+03  0.10566000000E+00 0. -1.
        -13    1    4    4    0    0  0.18869173726E+01  0.80715268574E+01 -0.34698274154E+03  0.34708175420E+03  0.10566000000E+00 0.  1.
        -14    1    4    4    0    0  0.28815079587E+00  0.34642696371E+00 -0.15964741651E+02  0.15971099477E+02  0.00000000000E+00 0.  1.
<mgrwt>
<rscale>  0 0.81143456E+02</rscale>
<asrwt>0</asrwt>
<pdfrwt beam="1">  1        2 0.19329623E+00 0.81143456E+02</pdfrwt>
<pdfrwt beam="2">  1       -1 0.20155655E-03 0.81143456E+02</pdfrwt>
<totfact> 0.33563334E+05</totfact>
</mgrwt>
</event>
<event>
 8    1  0.1226832E-024  0.7948161E+02  0.7818608E-02  0.1330529E+00
         -1   -1    0    0    0  501 -0.00000000000E+00  0.00000000000E+00  0.29835203991E+02  0.29835204416E+02  0.50400000000E-02 0.  1.
          2   -1    0    0  501    0  0.00000000000E+00 -0.00000000000E+00 -0.52935165431E+02  0.52935165492E+02  0.25500000000E-02 0. -1.
         24    2    1    2    0    0  0.00000000000E+00 -0.71054273576E-14 -0.23099961440E+02  0.82770369909E+02  0.79481607409E+02 0.  0.
         66    2    3    3    0    0 -0.16934840795E+01 -0.39666180494E+02 -0.10488775409E+02  0.41113114353E+02  0.19999997380E+01 0.  0.
        -13    1    3    3    0    0  0.16934840795E+01  0.39666180494E+02 -0.12611186031E+02  0.41657255556E+02  0.10566000000E+00 0.  1.
         13    1    4    4    0    0  0.27063276021E+00 -0.35481249778E+01 -0.10366579440E+01  0.37078641666E+01  0.10566000000E+00 0. -1.
        -13    1    4    4    0    0 -0.66648355072E+00 -0.75403310116E+01 -0.15618541505E+01  0.77298993855E+01  0.10566000000E+00 0.  1.
         14    1    4    4    0    0 -0.12976332889E+01 -0.28577724504E+02 -0.78902633141E+01  0.29675350801E+02  0.00000000000E+00 0. -1.
<mgrwt>
<rscale>  0 0.79481607E+02</rscale>
<asrwt>0</asrwt>
<pdfrwt beam="1">  1        2 0.81438716E-02 0.79481607E+02</pdfrwt>
<pdfrwt beam="2">  1       -1 0.45900315E-02 0.79481607E+02</pdfrwt>
<totfact> 0.15402512E+05</totfact>
</mgrwt>
</event>
<event>
 8    1  0.1226832E-024  0.7940029E+02  0.7818608E-02  0.1330762E+00
         -1   -1    0    0    0  501 -0.00000000000E+00  0.00000000000E+00  0.23140870934E+01  0.23140925819E+01  0.50400000000E-02 0.  1.
          2   -1    0    0  501    0  0.00000000000E+00 -0.00000000000E+00 -0.68108924289E+03  0.68108924290E+03  0.25500000000E-02 0. -1.
         24    2    1    2    0    0  0.00000000000E+00  0.00000000000E+00 -0.67877515580E+03  0.68340333548E+03  0.79400294798E+02 0.  0.
         66    2    3    3    0    0  0.18204326395E+02 -0.37391590583E+01 -0.64130631829E+03  0.64157865666E+03  0.19999985276E+01 0.  0.
        -13    1    3    3    0    0 -0.18204326395E+02  0.37391590583E+01 -0.37468837509E+02  0.41824678819E+02  0.10566000000E+00 0.  1.
         13    1    4    4    0    0  0.67457072655E+01 -0.14587561651E+01 -0.22172110030E+03  0.22182851489E+03  0.10566000000E+00 0. -1.
        -13    1    4    4    0    0  0.28441254367E+01 -0.63876351700E+00 -0.85062547478E+02  0.85112544409E+02  0.10566000000E+00 0.  1.
        -14    1    4    4    0    0  0.86144936924E+01 -0.16416393762E+01 -0.33452267051E+03  0.33463759736E+03  0.00000000000E+00 0.  1.
<mgrwt>
<rscale>  0 0.79400295E+02</rscale>
<asrwt>0</asrwt>
<pdfrwt beam="1">  1        2 0.10478280E+00 0.79400295E+02</pdfrwt>
<pdfrwt beam="2">  1       -1 0.35601436E-03 0.79400295E+02</pdfrwt>
<totfact> 0.33894578E+05</totfact>
</mgrwt>
</event>
<event>
 8    1  0.1226832E-024  0.7990340E+02  0.7818608E-02  0.1329326E+00
         -1   -1    0    0    0  501 -0.00000000000E+00  0.00000000000E+00  0.10984934239E+03  0.10984934250E+03  0.50400000000E-02 0.  1.
          2   -1    0    0  501    0  0.00000000000E+00 -0.00000000000E+00 -0.14530249546E+02  0.14530249770E+02  0.25500000000E-02 0. -1.
         24    2    1    2    0    0  0.00000000000E+00  0.00000000000E+00  0.95319092839E+02  0.12437959227E+03  0.79903401139E+02 0.  0.
         66    2    3    3    0    0 -0.72275026849E+01 -0.29525697811E+02  0.73931936540E+01  0.31347455146E+02  0.20000013587E+01 0.  0.
        -13    1    3    3    0    0  0.72275026849E+01  0.29525697811E+02  0.87925899185E+02  0.93032137124E+02  0.10566000000E+00 0.  1.
         13    1    4    4    0    0 -0.52718400032E+01 -0.22869930382E+02  0.50793849333E+01  0.24013273996E+02  0.10566000000E+00 0. -1.
        -13    1    4    4    0    0 -0.72940741546E-01 -0.59141533879E+00  0.12766248366E+00  0.61850966045E+00  0.10566000000E+00 0. -1.
         14    1    4    4    0    0 -0.18827219402E+01 -0.60643520907E+01  0.21861462371E+01  0.67156714894E+01  0.00000000000E+00 0. -1.
<mgrwt>
<rscale>  0 0.79903401E+02</rscale>
<asrwt>0</asrwt>
<pdfrwt beam="1">  1        2 0.22354231E-02 0.79903401E+02</pdfrwt>
<pdfrwt beam="2">  1       -1 0.16899898E-01 0.79903401E+02</pdfrwt>
<totfact> 0.11648281E+05</totfact>
</mgrwt>
</event>
<event>
 8    1  0.1226832E-024  0.7395632E+02  0.7818608E-02  0.1347134E+00
          2   -1    0    0  501    0  0.00000000000E+00  0.00000000000E+00  0.39138131185E+02  0.39138131268E+02  0.25500000000E-02 0. -1.
         -1   -1    0    0    0  501 -0.00000000000E+00 -0.00000000000E+00 -0.34937393248E+02  0.34937393611E+02  0.50400000000E-02 0.  1.
         24    2    1    2    0    0  0.00000000000E+00  0.00000000000E+00  0.42007379373E+01  0.74075524880E+02  0.73956319453E+02 0.  0.
         66    2    3    3    0    0  0.18109034499E+02 -0.21750327466E+02  0.25896571581E+02  0.38414141888E+02  0.20000004814E+01 0.  0.
        -13    1    3    3    0    0 -0.18109034499E+02  0.21750327466E+02 -0.21695833644E+02  0.35661382992E+02  0.10566000000E+00 0.  1.
         13    1    4    4    0    0  0.19357842530E+01 -0.17797813607E+01  0.23118179663E+01  0.35029343001E+01  0.10566000000E+00 0. -1.
        -13    1    4    4    0    0  0.42507029123E+01 -0.46128748601E+01  0.64140023829E+01  0.89720499512E+01  0.10566000000E+00 0.  1.
         14    1    4    4    0    0  0.11922547333E+02 -0.15357671246E+02  0.17170751232E+02  0.25939157636E+02  0.00000000000E+00 0. -1.
<mgrwt>
<rscale>  0 0.73956319E+02</rscale>
<asrwt>0</asrwt>
<pdfrwt beam="1">  1        2 0.60212510E-02 0.73956319E+02</pdfrwt>
<pdfrwt beam="2">  1       -1 0.53749836E-02 0.73956319E+02</pdfrwt>
<totfact> 0.17612144E+05</totfact>
</mgrwt>
</event>
<event>
 8    1  0.1226832E-024  0.7892867E+02  0.7818608E-02  0.1332120E+00
          2   -1    0    0  501    0  0.00000000000E+00  0.00000000000E+00  0.31727219455E+03  0.31727219456E+03  0.25500000000E-02 0. -1.
         -1   -1    0    0    0  501 -0.00000000000E+00 -0.00000000000E+00 -0.49088234117E+01  0.49088259990E+01  0.50400000000E-02 0.  1.
         24    2    1    2    0    0  0.71054273576E-14  0.00000000000E+00  0.31236337114E+03  0.32218102056E+03  0.78928666401E+02 0.  0.
         66    2    3    3    0    0 -0.35721511960E+02 -0.10086789483E+02  0.21068917514E+03  0.21394321277E+03  0.20000077306E+01 0.  0.
        -13    1    3    3    0    0  0.35721511960E+02  0.10086789483E+02  0.10167419600E+03  0.10823780779E+03  0.10566000000E+00 0.  1.
         13    1    4    4    0    0 -0.25210551066E+02 -0.71255234033E+01  0.14637149646E+03  0.14869758273E+03  0.10566000000E+00 0. -1.
        -13    1    4    4    0    0 -0.24863313230E+01 -0.82139065976E+00  0.13189796444E+02  0.13447617645E+02  0.10566000000E+00 0.  1.
         14    1    4    4    0    0 -0.80246295715E+01 -0.21398754200E+01  0.51127882237E+02  0.51798012400E+02  0.00000000000E+00 0. -1.
<mgrwt>
<rscale>  0 0.78928666E+02</rscale>
<asrwt>0</asrwt>
<pdfrwt beam="1">  1        2 0.48811121E-01 0.78928666E+02</pdfrwt>
<pdfrwt beam="2">  1       -1 0.75520358E-03 0.78928666E+02</pdfrwt>
<totfact> 0.26950433E+05</totfact>
</mgrwt>
</event>
<event>
 8    1  0.1226832E-024  0.8151159E+02  0.7818608E-02  0.1324816E+00
         -1   -1    0    0    0  501 -0.00000000000E+00  0.00000000000E+00  0.21013763588E+02  0.21013764192E+02  0.50400000000E-02 0.  1.
          2   -1    0    0  501    0  0.00000000000E+00 -0.00000000000E+00 -0.79045091541E+02  0.79045091582E+02  0.25500000000E-02 0. -1.
         24    2    1    2    0    0  0.35527136788E-14 -0.35527136788E-14 -0.58031327953E+02  0.10005885577E+03  0.81511591783E+02 0.  0.
         66    2    3    3    0    0  0.28416276657E+02 -0.28742743909E+02 -0.22846492718E+02  0.46471414139E+02  0.19999990212E+01 0.  0.
        -13    1    3    3    0    0 -0.28416276657E+02  0.28742743909E+02 -0.35184835235E+02  0.53587441635E+02  0.10566000000E+00 0.  1.
         13    1    4    4    0    0  0.17800122804E+02 -0.17352748979E+02 -0.14834975985E+02  0.28949092308E+02  0.10566000000E+00 0. -1.
        -13    1    4    4    0    0  0.51099360905E+01 -0.53740556637E+01 -0.34755957027E+01  0.81904121172E+01  0.10566000000E+00 0.  1.
         14    1    4    4    0    0  0.55062177631E+01 -0.60159392667E+01 -0.45359210304E+01  0.93319097139E+01  0.00000000000E+00 0. -1.
<mgrwt>
<rscale>  0 0.81511592E+02</rscale>
<asrwt>0</asrwt>
<pdfrwt beam="1">  1        2 0.12160783E-01 0.81511592E+02</pdfrwt>
<pdfrwt beam="2">  1       -1 0.32328868E-02 0.81511592E+02</pdfrwt>
<totfact> 0.15824038E+05</totfact>
</mgrwt>
</event>
<event>
 8    1  0.1226832E-024  0.8256496E+02  0.7818608E-02  0.1321926E+00
         -1   -1    0    0    0  501 -0.00000000000E+00  0.00000000000E+00  0.11427570074E+02  0.11427571185E+02  0.50400000000E-02 0.  1.
          2   -1    0    0  501    0  0.00000000000E+00 -0.00000000000E+00 -0.14913432765E+03  0.14913432767E+03  0.25500000000E-02 0. -1.
         24    2    1    2    0    0  0.00000000000E+00  0.00000000000E+00 -0.13770675758E+03  0.16056189886E+03  0.82564957957E+02 0.  0.
         66    2    3    3    0    0 -0.39603903518E+02 -0.10637099851E+02 -0.77724499205E+02  0.87901734046E+02  0.20000011322E+01 0.  0.
        -13    1    3    3    0    0  0.39603903518E+02  0.10637099851E+02 -0.59982258374E+02  0.72660164814E+02  0.10566000000E+00 0.  1.
         13    1    4    4    0    0 -0.12214634719E+02 -0.28565540304E+01 -0.23573438427E+02  0.26703471039E+02  0.10566000000E+00 0. -1.
        -13    1    4    4    0    0 -0.12074555861E+02 -0.29317709842E+01 -0.24799522009E+02  0.27738378400E+02  0.10566000000E+00 0.  1.
        -14    1    4    4    0    0 -0.15314712937E+02 -0.48487748364E+01 -0.29351538769E+02  0.33459884606E+02  0.00000000000E+00 0.  1.
<mgrwt>
<rscale>  0 0.82564958E+02</rscale>
<asrwt>0</asrwt>
<pdfrwt beam="1">  1        2 0.22943741E-01 0.82564958E+02</pdfrwt>
<pdfrwt beam="2">  1       -1 0.17580879E-02 0.82564958E+02</pdfrwt>
<totfact> 0.18383883E+05</totfact>
</mgrwt>
</event>
<event>
 8    1  0.1226832E-024  0.8238753E+02  0.7818608E-02  0.1322409E+00
          2   -1    0    0  501    0  0.00000000000E+00  0.00000000000E+00  0.58884984087E+02  0.58884984142E+02  0.25500000000E-02 0. -1.
         -1   -1    0    0    0  501 -0.00000000000E+00 -0.00000000000E+00 -0.28817642937E+02  0.28817643378E+02  0.50400000000E-02 0.  1.
         24    2    1    2    0    0  0.00000000000E+00  0.88817841970E-15  0.30067341150E+02  0.87702627520E+02  0.82387534676E+02 0.  0.
         66    2    3    3    0    0  0.13556446356E+02 -0.70763609780E+01 -0.25647384498E+02  0.29927252656E+02  0.19999993682E+01 0.  0.
        -13    1    3    3    0    0 -0.13556446356E+02  0.70763609780E+01  0.55714725648E+02  0.57775374863E+02  0.10566000000E+00 0.  1.
         13    1    4    4    0    0  0.20979502500E+01 -0.94649433919E+00 -0.33401035730E+01  0.40576720788E+01  0.10566000000E+00 0. -1.
        -13    1    4    4    0    0  0.82585246694E+00 -0.64062356973E+00 -0.27278546703E+01  0.29231465911E+01  0.10566000000E+00 0.  1.
         14    1    4    4    0    0  0.10632643639E+02 -0.54892430690E+01 -0.19579426255E+02  0.22946433986E+02  0.00000000000E+00 0. -1.
<mgrwt>
<rscale>  0 0.82387535E+02</rscale>
<asrwt>0</asrwt>
<pdfrwt beam="1">  1        2 0.90592283E-02 0.82387535E+02</pdfrwt>
<pdfrwt beam="2">  1       -1 0.44334836E-02 0.82387535E+02</pdfrwt>
<totfact> 0.14304163E+05</totfact>
</mgrwt>
</event>
<event>
 8    1  0.1226832E-024  0.8016414E+02  0.7818608E-02  0.1328586E+00
          2   -1    0    0  501    0  0.00000000000E+00  0.00000000000E+00  0.31789143974E+03  0.31789143975E+03  0.25500000000E-02 0. -1.
         -1   -1    0    0    0  501 -0.00000000000E+00 -0.00000000000E+00 -0.50538386003E+01  0.50538411134E+01  0.50400000000E-02 0.  1.
         24    2    1    2    0    0  0.22204460493E-15  0.00000000000E+00  0.31283760114E+03  0.32294528087E+03  0.80164142516E+02 0.  0.
         66    2    3    3    0    0  0.18602815267E+01  0.24854296273E+02  0.28284616567E+03  0.28394920342E+03  0.19999992520E+01 0.  0.
        -13    1    3    3    0    0 -0.18602815267E+01 -0.24854296273E+02  0.29991435470E+02  0.38996077446E+02  0.10566000000E+00 0.  1.
         13    1    4    4    0    0  0.12751116928E-01  0.47730509198E+01  0.59434097636E+02  0.59625542375E+02  0.10566000000E+00 0. -1.
        -13    1    4    4    0    0  0.40293902807E+00  0.31242514584E+01  0.30534808845E+02  0.30697052339E+02  0.10566000000E+00 0.  1.
         14    1    4    4    0    0  0.14445913818E+01  0.16956993895E+02  0.19287725919E+03  0.19362660871E+03  0.00000000000E+00 0. -1.
<mgrwt>
<rscale>  0 0.80164143E+02</rscale>
<asrwt>0</asrwt>
<pdfrwt beam="1">  1        2 0.48906362E-01 0.80164143E+02</pdfrwt>
<pdfrwt beam="2">  1       -1 0.77751404E-03 0.80164143E+02</pdfrwt>
<totfact> 0.25894632E+05</totfact>
</mgrwt>
</event>
<event>
 8    1  0.1226832E-024  0.8860428E+02  0.7818608E-02  0.1306267E+00
         -1   -1    0    0    0  501 -0.00000000000E+00  0.00000000000E+00  0.35541958461E+02  0.35541958818E+02  0.50400000000E-02 0.  1.
          2   -1    0    0  501    0  0.00000000000E+00 -0.00000000000E+00 -0.55221479483E+02  0.55221479541E+02  0.25500000000E-02 0. -1.
         24    2    1    2    0    0  0.00000000000E+00  0.00000000000E+00 -0.19679521022E+02  0.90763438359E+02  0.88604278650E+02 0.  0.
         66    2    3    3    0    0 -0.29840291598E+02 -0.20313143568E+01 -0.43291691478E+02  0.52656811661E+02  0.20000056370E+01 0.  0.
        -13    1    3    3    0    0  0.29840291598E+02  0.20313143568E+01  0.23612170456E+02  0.38106626699E+02  0.10566000000E+00 0.  1.
         13    1    4    4    0    0 -0.47417035338E+01 -0.45081629046E+00 -0.63641470818E+01  0.79498754609E+01  0.10566000000E+00 0. -1.
        -13    1    4    4    0    0 -0.20937421888E+02 -0.10950969860E+01 -0.29739342612E+02  0.36387010536E+02  0.10566000000E+00 0.  1.
        -14    1    4    4    0    0 -0.41611661769E+01 -0.48540108035E+00 -0.71882017844E+01  0.83199256639E+01  0.00000000000E+00 0.  1.
<mgrwt>
<rscale>  0 0.88604279E+02</rscale>
<asrwt>0</asrwt>
<pdfrwt beam="1">  1        2 0.84956123E-02 0.88604279E+02</pdfrwt>
<pdfrwt beam="2">  1       -1 0.54679936E-02 0.88604279E+02</pdfrwt>
<totfact> 0.11535077E+05</totfact>
</mgrwt>
</event>
<event>
 8    1  0.1226832E-024  0.8081611E+02  0.7818608E-02  0.1326751E+00
         -1   -1    0    0    0  501 -0.00000000000E+00  0.00000000000E+00  0.71195321329E+01  0.71195339168E+01  0.50400000000E-02 0.  1.
          2   -1    0    0  501    0  0.00000000000E+00 -0.00000000000E+00 -0.22934244159E+03  0.22934244160E+03  0.25500000000E-02 0. -1.
         24    2    1    2    0    0  0.00000000000E+00  0.35527136788E-14 -0.22222290945E+03  0.23646197552E+03  0.80816114603E+02 0.  0.
         66    2    3    3    0    0  0.21158866054E+02  0.19265856087E+02 -0.19455205077E+03  0.19665546339E+03  0.19999995472E+01 0.  0.
        -13    1    3    3    0    0 -0.21158866054E+02 -0.19265856087E+02 -0.27670858679E+02  0.39806512125E+02  0.10566000000E+00 0.  1.
         13    1    4    4    0    0  0.56026385946E+01  0.51959682661E+01 -0.54796625570E+02  0.55326928194E+02  0.10566000000E+00 0. -1.
        -13    1    4    4    0    0  0.37728413191E+01  0.39323034796E+01 -0.39878559740E+02  0.40249323388E+02  0.10566000000E+00 0.  1.
        -14    1    4    4    0    0  0.11783386140E+02  0.10137584342E+02 -0.99876865464E+02  0.10107921181E+03  0.00000000000E+00 0.  1.
<mgrwt>
<rscale>  0 0.80816115E+02</rscale>
<asrwt>0</asrwt>
<pdfrwt beam="1">  1        2 0.35283447E-01 0.80816115E+02</pdfrwt>
<pdfrwt beam="2">  1       -1 0.10953130E-02 0.80816115E+02</pdfrwt>
<totfact> 0.22534820E+05</totfact>
</mgrwt>
</event>
<event>
 8    1  0.1226832E-024  0.7825935E+02  0.7818608E-02  0.1334065E+00
          2   -1    0    0  501    0  0.00000000000E+00  0.00000000000E+00  0.50539960196E+03  0.50539960196E+03  0.25500000000E-02 0. -1.
         -1   -1    0    0    0  501 -0.00000000000E+00 -0.00000000000E+00 -0.30295440078E+01  0.30295482001E+01  0.50400000000E-02 0.  1.
         24    2    1    2    0    0  0.35527136788E-14  0.17763568394E-14  0.50237005795E+03  0.50842915016E+03  0.78259348401E+02 0.  0.
         66    2    3    3    0    0  0.30464873840E+02  0.83114988356E+01  0.40118742174E+03  0.40243327013E+03  0.19999974082E+01 0.  0.
        -13    1    3    3    0    0 -0.30464873840E+02 -0.83114988356E+01  0.10118263621E+03  0.10599588004E+03  0.10566000000E+00 0.  1.
         13    1    4    4    0    0  0.17963229712E+02  0.51612286728E+01  0.23139531239E+03  0.23214891269E+03  0.10566000000E+00 0. -1.
        -13    1    4    4    0    0  0.46323486072E+01  0.17048233132E+01  0.65272254647E+02  0.65458715745E+02  0.10566000000E+00 0.  1.
         14    1    4    4    0    0  0.78692955207E+01  0.14454468496E+01  0.10451985470E+03  0.10482564169E+03  0.00000000000E+00 0. -1.
<mgrwt>
<rscale>  0 0.78259348E+02</rscale>
<asrwt>0</asrwt>
<pdfrwt beam="1">  1        2 0.77753907E-01 0.78259348E+02</pdfrwt>
<pdfrwt beam="2">  1       -1 0.46608328E-03 0.78259348E+02</pdfrwt>
<totfact> 0.32356249E+05</totfact>
</mgrwt>
</event>
<event>
 8    1  0.1226832E-024  0.7807051E+02  0.7818608E-02  0.1334618E+00
         -1   -1    0    0    0  501 -0.00000000000E+00  0.00000000000E+00  0.10527622687E+03  0.10527622699E+03  0.50400000000E-02 0.  1.
          2   -1    0    0  501    0  0.00000000000E+00 -0.00000000000E+00 -0.14473838096E+02  0.14473838321E+02  0.25500000000E-02 0. -1.
         24    2    1    2    0    0 -0.35527136788E-14  0.00000000000E+00  0.90802388769E+02  0.11975006531E+03  0.78070508739E+02 0.  0.
         66    2    3    3    0    0  0.27245722714E+02 -0.16945947225E+02  0.11399309619E+02  0.34109218299E+02  0.19999949004E+01 0.  0.
        -13    1    3    3    0    0 -0.27245722714E+02  0.16945947225E+02  0.79403079150E+02  0.85640847007E+02  0.10566000000E+00 0.  1.
         13    1    4    4    0    0  0.31575908528E+01 -0.22183630548E+01  0.19789541322E+01  0.43380800050E+01  0.10566000000E+00 0. -1.
        -13    1    4    4    0    0  0.18430825233E+01 -0.13000180613E+01  0.76136302258E+00  0.23828214023E+01  0.10566000000E+00 0.  1.
         14    1    4    4    0    0  0.22245049338E+02 -0.13427566109E+02  0.86589924645E+01  0.27388316892E+02  0.00000000000E+00 0. -1.
<mgrwt>
<rscale>  0 0.78070509E+02</rscale>
<asrwt>0</asrwt>
<pdfrwt beam="1">  1        2 0.22267444E-02 0.78070509E+02</pdfrwt>
<pdfrwt beam="2">  1       -1 0.16196342E-01 0.78070509E+02</pdfrwt>
<totfact> 0.12459119E+05</totfact>
</mgrwt>
</event>
<event>
 8    1  0.1226832E-024  0.8047611E+02  0.7818608E-02  0.1327706E+00
         -1   -1    0    0    0  501 -0.00000000000E+00  0.00000000000E+00  0.59003066821E+01  0.59003088347E+01  0.50400000000E-02 0.  1.
          2   -1    0    0  501    0  0.00000000000E+00 -0.00000000000E+00 -0.27440957507E+03  0.27440957508E+03  0.25500000000E-02 0. -1.
         24    2    1    2    0    0  0.00000000000E+00  0.00000000000E+00 -0.26850926838E+03  0.28030988391E+03  0.80476107082E+02 0.  0.
         66    2    3    3    0    0  0.35721626343E+02 -0.50343098195E+01 -0.19622732698E+03  0.19952579463E+03  0.20000013326E+01 0.  0.
        -13    1    3    3    0    0 -0.35721626343E+02  0.50343098195E+01 -0.72281941406E+02  0.80784089284E+02  0.10566000000E+00 0.  1.
         13    1    4    4    0    0  0.20847674188E+02 -0.25599708518E+01 -0.11743493250E+03  0.11929858971E+03  0.10566000000E+00 0.  1.
        -13    1    4    4    0    0  0.11187963764E+02 -0.20119144767E+01 -0.61204172805E+02  0.62250945903E+02  0.10566000000E+00 0. -1.
        -14    1    4    4    0    0  0.36859883918E+01 -0.46242449097E+00 -0.17588221671E+02  0.17976259021E+02  0.00000000000E+00 0.  1.
<mgrwt>
<rscale>  0 0.80476107E+02</rscale>
<asrwt>0</asrwt>
<pdfrwt beam="1">  1        2 0.42216848E-01 0.80476107E+02</pdfrwt>
<pdfrwt beam="2">  1       -1 0.90773987E-03 0.80476107E+02</pdfrwt>
<totfact> 0.24302573E+05</totfact>
</mgrwt>
</event>
<event>
 8    1  0.1226832E-024  0.7853573E+02  0.7818608E-02  0.1333259E+00
         -1   -1    0    0    0  501 -0.00000000000E+00  0.00000000000E+00  0.19606885210E+01  0.19606949988E+01  0.50400000000E-02 0.  1.
          2   -1    0    0  501    0  0.00000000000E+00 -0.00000000000E+00 -0.78643934260E+03  0.78643934260E+03  0.25500000000E-02 0. -1.
         24    2    1    2    0    0  0.00000000000E+00  0.00000000000E+00 -0.78447865408E+03  0.78840003760E+03  0.78535728090E+02 0.  0.
         66    2    3    3    0    0 -0.27879407882E+02  0.45927173827E+00 -0.66969466105E+03  0.67027786130E+03  0.19999995886E+01 0.  0.
        -13    1    3    3    0    0  0.27879407882E+02 -0.45927173827E+00 -0.11478399303E+03  0.11812217631E+03  0.10566000000E+00 0.  1.
         13    1    4    4    0    0 -0.18124137785E+02  0.41617180003E+00 -0.43930897759E+03  0.43968289315E+03  0.10566000000E+00 0. -1.
        -13    1    4    4    0    0 -0.88878399554E+01  0.34169696698E+00 -0.20565380970E+03  0.20584608586E+03  0.10566000000E+00 0.  1.
        -14    1    4    4    0    0 -0.86743014141E+00 -0.29859702874E+00 -0.24731873750E+02  0.24748882287E+02  0.00000000000E+00 0.  1.
<mgrwt>
<rscale>  0 0.78535728E+02</rscale>
<asrwt>0</asrwt>
<pdfrwt beam="1">  1        2 0.12099042E+00 0.78535728E+02</pdfrwt>
<pdfrwt beam="2">  1       -1 0.30164552E-03 0.78535728E+02</pdfrwt>
<totfact> 0.35944837E+05</totfact>
</mgrwt>
</event>
<event>
 8    1  0.1226832E-024  0.7744746E+02  0.7818608E-02  0.1336455E+00
          2   -1    0    0  501    0  0.00000000000E+00  0.00000000000E+00  0.16237323060E+03  0.16237323062E+03  0.25500000000E-02 0. -1.
         -1   -1    0    0    0  501 -0.00000000000E+00 -0.00000000000E+00 -0.92350640232E+01  0.92350653985E+01  0.50400000000E-02 0.  1.
         24    2    1    2    0    0 -0.17763568394E-14  0.88817841970E-15  0.15313816657E+03  0.17160829602E+03  0.77447460899E+02 0.  0.
         66    2    3    3    0    0  0.11492307774E+02 -0.59046295862E+01  0.15744623621E+03  0.15798814856E+03  0.20000000866E+01 0.  0.
        -13    1    3    3    0    0 -0.11492307774E+02  0.59046295862E+01 -0.43080696407E+01  0.13620147451E+02  0.10566000000E+00 0.  1.
         13    1    4    4    0    0  0.31232055977E+01 -0.76757054817E+00  0.37946716708E+02  0.38082910219E+02  0.10566000000E+00 0. -1.
        -13    1    4    4    0    0  0.90615241212E+00 -0.76887721627E+00  0.16795221797E+02  0.16837545059E+02  0.10566000000E+00 0. -1.
         14    1    4    4    0    0  0.74629497637E+01 -0.43681818218E+01  0.10270429771E+03  0.10306769329E+03  0.00000000000E+00 0. -1.
<mgrwt>
<rscale>  0 0.77447461E+02</rscale>
<asrwt>0</asrwt>
<pdfrwt beam="1">  1        2 0.24980496E-01 0.77447461E+02</pdfrwt>
<pdfrwt beam="2">  1       -1 0.14207793E-02 0.77447461E+02</pdfrwt>
<totfact> 0.22394608E+05</totfact>
</mgrwt>
</event>
<event>
 8    1  0.1226832E-024  0.7709158E+02  0.7818608E-02  0.1337514E+00
          2   -1    0    0  501    0  0.00000000000E+00  0.00000000000E+00  0.25508098604E+02  0.25508098731E+02  0.25500000000E-02 0. -1.
         -1   -1    0    0    0  501 -0.00000000000E+00 -0.00000000000E+00 -0.58247296754E+02  0.58247296972E+02  0.50400000000E-02 0.  1.
         24    2    1    2    0    0  0.00000000000E+00  0.00000000000E+00 -0.32739198150E+02  0.83755395704E+02  0.77091576803E+02 0.  0.
         66    2    3    3    0    0 -0.14060164323E+02 -0.21132888527E+02  0.15097804919E+02  0.29601197113E+02  0.19999897238E+01 0.  0.
        -13    1    3    3    0    0  0.14060164323E+02  0.21132888527E+02 -0.47837003070E+02  0.54154198590E+02  0.10566000000E+00 0.  1.
         13    1    4    4    0    0 -0.13039786276E+01 -0.16449338952E+01  0.11945254257E+01  0.24174827422E+01  0.10566000000E+00 0. -1.
        -13    1    4    4    0    0 -0.12131593974E+02 -0.18995187297E+02  0.13187161261E+02  0.26113312677E+02  0.10566000000E+00 0.  1.
        -14    1    4    4    0    0 -0.62459172067E+00 -0.49276733474E+00  0.71611823308E+00  0.10704016944E+01  0.00000000000E+00 0.  1.
<mgrwt>
<rscale>  0 0.77091577E+02</rscale>
<asrwt>0</asrwt>
<pdfrwt beam="1">  1        2 0.39243229E-02 0.77091577E+02</pdfrwt>
<pdfrwt beam="2">  1       -1 0.89611226E-02 0.77091577E+02</pdfrwt>
<totfact> 0.14465967E+05</totfact>
</mgrwt>
</event>
<event>
 8    1  0.1264186E-024  0.7786706E+02  0.7818608E-02  0.1335216E+00
          2   -1    0    0  501    0  0.00000000000E+00  0.00000000000E+00  0.54876152241E+03  0.54876152241E+03  0.25500000000E-02 0. -1.
         -1   -1    0    0    0  501 -0.00000000000E+00 -0.00000000000E+00 -0.27622534345E+01  0.27622580325E+01  0.50400000000E-02 0.  1.
         24    2    1    2    0    0  0.35527136788E-14  0.35527136788E-14  0.54599926897E+03  0.55152378044E+03  0.77867057722E+02 0.  0.
         66    2    3    3    0    0 -0.21603929776E+02 -0.28557830512E+02  0.38095448808E+03  0.38263899626E+03  0.20000013694E+01 0.  0.
        -13    1    3    3    0    0  0.21603929776E+02  0.28557830512E+02  0.16504478089E+03  0.16888478418E+03  0.10566000000E+00 0.  1.
         13    1    4    4    0    0 -0.11120639474E+02 -0.15078142543E+02  0.19721301292E+03  0.19810099099E+03  0.10566000000E+00 0. -1.
        -13    1    4    4    0    0 -0.75369292421E+01 -0.10469068897E+02  0.14171132963E+03  0.14229729026E+03  0.10566000000E+00 0.  1.
        -14    1    4    4    0    0 -0.29463610601E+01 -0.30106190730E+01  0.42030145537E+02  0.42240715010E+02  0.00000000000E+00 0.  1.
<mgrwt>
<rscale>  0 0.77867058E+02</rscale>
<asrwt>0</asrwt>
<pdfrwt beam="1">  1        2 0.84424935E-01 0.77867058E+02</pdfrwt>
<pdfrwt beam="2">  1       -1 0.42496199E-03 0.77867058E+02</pdfrwt>
<totfact> 0.33623628E+05</totfact>
</mgrwt>
</event>
<event>
 8    1  0.1226832E-024  0.7910991E+02  0.7818608E-02  0.1331597E+00
         -1   -1    0    0    0  501 -0.00000000000E+00  0.00000000000E+00  0.18817014694E+01  0.18817082190E+01  0.50400000000E-02 0.  1.
          2   -1    0    0  501    0  0.00000000000E+00 -0.00000000000E+00 -0.83147712349E+03  0.83147712350E+03  0.25500000000E-02 0. -1.
         24    2    1    2    0    0  0.00000000000E+00  0.00000000000E+00 -0.82959542202E+03  0.83335883172E+03  0.79109911871E+02 0.  0.
         66    2    3    3    0    0  0.16359839615E+02 -0.26479580052E+02 -0.67175439522E+03  0.67247808887E+03  0.20000004274E+01 0.  0.
        -13    1    3    3    0    0 -0.16359839615E+02  0.26479580052E+02 -0.15784102680E+03  0.16088074284E+03  0.10566000000E+00 0.  1.
         13    1    4    4    0    0  0.39156706620E+01 -0.74538473264E+01 -0.18875023317E+03  0.18893796337E+03  0.10566000000E+00 0. -1.
        -13    1    4    4    0    0  0.96767545821E+01 -0.15529443032E+02 -0.38500331419E+03  0.38543788901E+03  0.10566000000E+00 0.  1.
        -14    1    4    4    0    0  0.27674143706E+01 -0.34962896940E+01 -0.98000847863E+02  0.98102236498E+02  0.00000000000E+00 0.  1.
<mgrwt>
<rscale>  0 0.79109912E+02</rscale>
<asrwt>0</asrwt>
<pdfrwt beam="1">  1        2 0.12791926E+00 0.79109912E+02</pdfrwt>
<pdfrwt beam="2">  1       -1 0.28949372E-03 0.79109912E+02</pdfrwt>
<totfact> 0.35601647E+05</totfact>
</mgrwt>
</event>
<event>
 8    1  0.1226832E-024  0.7896294E+02  0.7818608E-02  0.1332020E+00
          2   -1    0    0  501    0  0.00000000000E+00  0.00000000000E+00  0.47622161498E+02  0.47622161566E+02  0.25500000000E-02 0. -1.
         -1   -1    0    0    0  501 -0.00000000000E+00 -0.00000000000E+00 -0.32732374312E+02  0.32732374700E+02  0.50400000000E-02 0.  1.
         24    2    1    2    0    0  0.00000000000E+00  0.00000000000E+00  0.14889787186E+02  0.80354536266E+02  0.78962939004E+02 0.  0.
         66    2    3    3    0    0 -0.37875346430E+02  0.84303350152E+01  0.14728977629E+02  0.41551837399E+02  0.19999984086E+01 0.  0.
        -13    1    3    3    0    0  0.37875346430E+02 -0.84303350152E+01  0.16080955657E+00  0.38802698867E+02  0.10566000000E+00 0.  1.
         13    1    4    4    0    0 -0.28369771878E+00 -0.51847259421E-01  0.13682475114E+00  0.33624036354E+00  0.10566000000E+00 0. -1.
        -13    1    4    4    0    0 -0.36413340903E+02  0.83633528507E+01  0.14125088196E+02  0.39942538067E+02  0.10566000000E+00 0. -1.
        -14    1    4    4    0    0 -0.11783078073E+01  0.11882942395E+00  0.46706468194E+00  0.12730589687E+01  0.00000000000E+00 0.  1.
<mgrwt>
<rscale>  0 0.78962939E+02</rscale>
<asrwt>0</asrwt>
<pdfrwt beam="1">  1        2 0.73264864E-02 0.78962939E+02</pdfrwt>
<pdfrwt beam="2">  1       -1 0.50357499E-02 0.78962939E+02</pdfrwt>
<totfact> 0.15325043E+05</totfact>
</mgrwt>
</event>
<event>
 8    1  0.1226832E-024  0.8143421E+02  0.7818608E-02  0.1325030E+00
          2   -1    0    0  501    0  0.00000000000E+00  0.00000000000E+00  0.33790957041E+03  0.33790957042E+03  0.25500000000E-02 0. -1.
         -1   -1    0    0    0  501 -0.00000000000E+00 -0.00000000000E+00 -0.49062894169E+01  0.49062920056E+01  0.50400000000E-02 0.  1.
         24    2    1    2    0    0  0.00000000000E+00  0.35527136788E-14  0.33300328099E+03  0.34281586242E+03  0.81434208893E+02 0.  0.
         66    2    3    3    0    0 -0.13160772256E+02  0.23455380539E+02  0.29515483365E+03  0.29638444060E+03  0.19999994503E+01 0.  0.
        -13    1    3    3    0    0  0.13160772256E+02 -0.23455380539E+02  0.37848447335E+02  0.46431421821E+02  0.10566000000E+00 0.  1.
         13    1    4    4    0    0 -0.69172476419E+01  0.13308539777E+02  0.16317406196E+03  0.16386198829E+03  0.10566000000E+00 0. -1.
        -13    1    4    4    0    0 -0.10602830465E+00  0.66898804676E-01  0.22763831033E+01  0.22822798952E+01  0.10566000000E+00 0.  1.
         14    1    4    4    0    0 -0.61374963097E+01  0.10079941957E+02  0.12970438859E+03  0.13024017242E+03  0.00000000000E+00 0. -1.
<mgrwt>
<rscale>  0 0.81434209E+02</rscale>
<asrwt>0</asrwt>
<pdfrwt beam="1">  1        2 0.51986088E-01 0.81434209E+02</pdfrwt>
<pdfrwt beam="2">  1       -1 0.75481395E-03 0.81434209E+02</pdfrwt>
<totfact> 0.25402090E+05</totfact>
</mgrwt>
</event>
<event>
 8    1  0.1226832E-024  0.7407148E+02  0.7818608E-02  0.1346771E+00
          2   -1    0    0  501    0  0.00000000000E+00  0.00000000000E+00  0.40423819096E+03  0.40423819097E+03  0.25500000000E-02 0. -1.
         -1   -1    0    0    0  501 -0.00000000000E+00 -0.00000000000E+00 -0.33931611301E+01  0.33931648732E+01  0.50400000000E-02 0.  1.
         24    2    1    2    0    0 -0.71054273576E-14  0.00000000000E+00  0.40084502983E+03  0.40763135584E+03  0.74071481189E+02 0.  0.
         66    2    3    3    0    0 -0.32250829131E+02  0.13461113078E+02  0.26759090713E+03  0.26987073039E+03  0.19999990092E+01 0.  0.
        -13    1    3    3    0    0  0.32250829131E+02 -0.13461113078E+02  0.13325412270E+03  0.13776062545E+03  0.10566000000E+00 0.  1.
         13    1    4    4    0    0 -0.13131123222E+02  0.53531641125E+01  0.11500332456E+03  0.11587432238E+03  0.10566000000E+00 0. -1.
        -13    1    4    4    0    0 -0.44847669501E+01  0.21983038446E+01  0.37993858782E+02  0.38320883909E+02  0.10566000000E+00 0.  1.
         14    1    4    4    0    0 -0.14634938959E+02  0.59096451210E+01  0.11459372379E+03  0.11567552410E+03  0.00000000000E+00 0. -1.
<mgrwt>
<rscale>  0 0.74071481E+02</rscale>
<asrwt>0</asrwt>
<pdfrwt beam="1">  1        2 0.62190501E-01 0.74071481E+02</pdfrwt>
<pdfrwt beam="2">  1       -1 0.52202499E-03 0.74071481E+02</pdfrwt>
<totfact> 0.34646337E+05</totfact>
</mgrwt>
</event>
<event>
 8    1  0.1226832E-024  0.8383216E+02  0.7818608E-02  0.1318515E+00
          2   -1    0    0  501    0  0.00000000000E+00  0.00000000000E+00  0.21592975781E+02  0.21592975932E+02  0.25500000000E-02 0. -1.
         -1   -1    0    0    0  501 -0.00000000000E+00 -0.00000000000E+00 -0.81367097566E+02  0.81367097722E+02  0.50400000000E-02 0.  1.
         24    2    1    2    0    0 -0.35527136788E-14  0.00000000000E+00 -0.59774121785E+02  0.10296007365E+03  0.83832160486E+02 0.  0.
         66    2    3    3    0    0 -0.17635006980E+02 -0.20315523632E+02  0.95360577382E+01  0.28612066813E+02  0.19999996228E+01 0.  0.
        -13    1    3    3    0    0  0.17635006980E+02  0.20315523632E+02 -0.69310179523E+02  0.74348006841E+02  0.10566000000E+00 0.  1.
         13    1    4    4    0    0 -0.36359797436E+01 -0.35691919414E+01  0.14731640230E+01  0.53047955742E+01  0.10566000000E+00 0. -1.
        -13    1    4    4    0    0 -0.72104742789E+00 -0.77937372721E+00  0.69041685915E+00  0.12708942816E+01  0.10566000000E+00 0.  1.
         14    1    4    4    0    0 -0.13277979809E+02 -0.15966957964E+02  0.73724768561E+01  0.22036376958E+02  0.00000000000E+00 0. -1.
<mgrwt>
<rscale>  0 0.83832160E+02</rscale>
<asrwt>0</asrwt>
<pdfrwt beam="1">  1        2 0.33219963E-02 0.83832160E+02</pdfrwt>
<pdfrwt beam="2">  1       -1 0.12518015E-01 0.83832160E+02</pdfrwt>
<totfact> 0.11023653E+05</totfact>
</mgrwt>
</event>
<event>
 8    1  0.1226832E-024  0.8070850E+02  0.7818608E-02  0.1327053E+00
          2   -1    0    0  501    0  0.00000000000E+00  0.00000000000E+00  0.18877585927E+02  0.18877586099E+02  0.25500000000E-02 0. -1.
         -1   -1    0    0    0  501 -0.00000000000E+00 -0.00000000000E+00 -0.86264496324E+02  0.86264496471E+02  0.50400000000E-02 0.  1.
         24    2    1    2    0    0 -0.35527136788E-14  0.00000000000E+00 -0.67386910396E+02  0.10514208257E+03  0.80708499146E+02 0.  0.
         66    2    3    3    0    0 -0.18166262253E+02  0.12265052679E+02  0.10387337167E+02  0.24338064418E+02  0.20000011793E+01 0.  0.
        -13    1    3    3    0    0  0.18166262253E+02 -0.12265052679E+02 -0.77774247564E+02  0.80804018152E+02  0.10566000000E+00 0.  1.
         13    1    4    4    0    0 -0.65239082679E+01  0.45505805469E+01  0.34228217970E+01  0.86600251439E+01  0.10566000000E+00 0. -1.
        -13    1    4    4    0    0 -0.84746842068E+00  0.31826276037E+00  0.14769482379E+00  0.92329394305E+00  0.10566000000E+00 0.  1.
        -14    1    4    4    0    0 -0.10794885564E+02  0.73962093720E+01  0.68168205464E+01  0.14754745331E+02  0.00000000000E+00 0.  1.
<mgrwt>
<rscale>  0 0.80708499E+02</rscale>
<asrwt>0</asrwt>
<pdfrwt beam="1">  1        2 0.29042440E-02 0.80708499E+02</pdfrwt>
<pdfrwt beam="2">  1       -1 0.13271461E-01 0.80708499E+02</pdfrwt>
<totfact> 0.11962226E+05</totfact>
</mgrwt>
</event>
<event>
 8    1  0.1226832E-024  0.7991462E+02  0.7818608E-02  0.1329294E+00
         -1   -1    0    0    0  501 -0.00000000000E+00  0.00000000000E+00  0.90004532397E+01  0.90004546508E+01  0.50400000000E-02 0.  1.
          2   -1    0    0  501    0  0.00000000000E+00 -0.00000000000E+00 -0.17738954718E+03  0.17738954720E+03  0.25500000000E-02 0. -1.
         24    2    1    2    0    0  0.35527136788E-14  0.00000000000E+00 -0.16838909394E+03  0.18639000185E+03  0.79914615880E+02 0.  0.
         66    2    3    3    0    0 -0.25134429645E+02  0.30515816346E+02 -0.71130431363E+02  0.81403273110E+02  0.20000015861E+01 0.  0.
        -13    1    3    3    0    0  0.25134429645E+02 -0.30515816346E+02 -0.97258662576E+02  0.10498672874E+03  0.10566000000E+00 0.  1.
         13    1    4    4    0    0 -0.96724822962E+01  0.10645283650E+02 -0.25928483292E+02  0.29650908715E+02  0.10566000000E+00 0. -1.
        -13    1    4    4    0    0 -0.71707826408E+01  0.90289137628E+01 -0.21778130364E+02  0.24642230695E+02  0.10566000000E+00 0.  1.
        -14    1    4    4    0    0 -0.82911647084E+01  0.10841618933E+02 -0.23423817707E+02  0.27110133701E+02  0.00000000000E+00 0.  1.
<mgrwt>
<rscale>  0 0.79914616E+02</rscale>
<asrwt>0</asrwt>
<pdfrwt beam="1">  1        2 0.27290697E-01 0.79914616E+02</pdfrwt>
<pdfrwt beam="2">  1       -1 0.13846854E-02 0.79914616E+02</pdfrwt>
<totfact> 0.21229215E+05</totfact>
</mgrwt>
</event>
<event>
 8    1  0.1226832E-024  0.8010683E+02  0.7818608E-02  0.1328749E+00
          2   -1    0    0  501    0  0.00000000000E+00  0.00000000000E+00  0.53754620906E+02  0.53754620966E+02  0.25500000000E-02 0. -1.
         -1   -1    0    0    0  501 -0.00000000000E+00 -0.00000000000E+00 -0.29844429005E+02  0.29844429431E+02  0.50400000000E-02 0.  1.
         24    2    1    2    0    0  0.00000000000E+00  0.00000000000E+00  0.23910191901E+02  0.83599050397E+02  0.80106828364E+02 0.  0.
         66    2    3    3    0    0  0.17095249167E+02 -0.81824398233E+01  0.48756764270E+02  0.52349039388E+02  0.19999992966E+01 0.  0.
        -13    1    3    3    0    0 -0.17095249167E+02  0.81824398233E+01 -0.24846572370E+02  0.31250011010E+02  0.10566000000E+00 0.  1.
         13    1    4    4    0    0  0.11994860388E+02 -0.50883372045E+01  0.31832273011E+02  0.34395822716E+02  0.10566000000E+00 0. -1.
        -13    1    4    4    0    0  0.14785322276E+01 -0.69143477669E+00  0.42246970027E+01  0.45302724420E+01  0.10566000000E+00 0. -1.
         14    1    4    4    0    0  0.36218565517E+01 -0.24026678421E+01  0.12699794256E+02  0.13422944230E+02  0.00000000000E+00 0. -1.
<mgrwt>
<rscale>  0 0.80106828E+02</rscale>
<asrwt>0</asrwt>
<pdfrwt beam="1">  1        2 0.82699416E-02 0.80106828E+02</pdfrwt>
<pdfrwt beam="2">  1       -1 0.45914507E-02 0.80106828E+02</pdfrwt>
<totfact> 0.15127810E+05</totfact>
</mgrwt>
</event>
<event>
 8    1  0.1226832E-024  0.8007288E+02  0.7818608E-02  0.1328845E+00
          2   -1    0    0  501    0  0.00000000000E+00  0.00000000000E+00  0.10156448116E+04  0.10156448116E+04  0.25500000000E-02 0. -1.
         -1   -1    0    0    0  501 -0.00000000000E+00 -0.00000000000E+00 -0.15782215738E+01  0.15782296213E+01  0.50400000000E-02 0.  1.
         24    2    1    2    0    0  0.00000000000E+00  0.17763568394E-14  0.10140665901E+04  0.10172230413E+04  0.80072882993E+02 0.  0.
         66    2    3    3    0    0  0.11852196811E+02  0.14894258857E+02  0.95443974467E+03  0.95463162515E+03  0.20000002740E+01 0.  0.
        -13    1    3    3    0    0 -0.11852196811E+02 -0.14894258857E+02  0.59626845395E+02  0.62591416120E+02  0.10566000000E+00 0.  1.
         13    1    4    4    0    0  0.56011355564E+01  0.75425827727E+01  0.47111987722E+03  0.47121355366E+03  0.10566000000E+00 0. -1.
        -13    1    4    4    0    0  0.17793762318E+01  0.21610348828E+01  0.17214377954E+03  0.17216657123E+03  0.10566000000E+00 0.  1.
        -14    1    4    4    0    0  0.44716850230E+01  0.51906412017E+01  0.31117608791E+03  0.31125150025E+03  0.00000000000E+00 0.  1.
<mgrwt>
<rscale>  0 0.80072883E+02</rscale>
<asrwt>0</asrwt>
<pdfrwt beam="1">  1        2 0.15625312E+00 0.80072883E+02</pdfrwt>
<pdfrwt beam="2">  1       -1 0.24280382E-03 0.80072883E+02</pdfrwt>
<totfact> 0.35167812E+05</totfact>
</mgrwt>
</event>
<event>
 8    1  0.1226832E-024  0.7889401E+02  0.7818608E-02  0.1332220E+00
         -1   -1    0    0    0  501 -0.00000000000E+00  0.00000000000E+00  0.29760721898E+01  0.29760764574E+01  0.50400000000E-02 0.  1.
          2   -1    0    0  501    0  0.00000000000E+00 -0.00000000000E+00 -0.52285863491E+03  0.52285863491E+03  0.25500000000E-02 0. -1.
         24    2    1    2    0    0  0.17763568394E-14  0.00000000000E+00 -0.51988256272E+03  0.52583471137E+03  0.78894009056E+02 0.  0.
         66    2    3    3    0    0 -0.13908945126E+02 -0.28923042549E+02 -0.41268721732E+03  0.41393808772E+03  0.19999959857E+01 0.  0.
        -13    1    3    3    0    0  0.13908945126E+02  0.28923042549E+02 -0.10719534540E+03  0.11189662365E+03  0.10566000000E+00 0.  1.
         13    1    4    4    0    0 -0.10715409886E+02 -0.23329520663E+02 -0.33125044444E+03  0.33224381808E+03  0.10566000000E+00 0. -1.
        -13    1    4    4    0    0 -0.21141422417E+01 -0.43168305873E+01 -0.59657843233E+02  0.59851266043E+02  0.10566000000E+00 0.  1.
        -14    1    4    4    0    0 -0.10793929987E+01 -0.12766912988E+01 -0.21778929644E+02  0.21843003602E+02  0.00000000000E+00 0.  1.
<mgrwt>
<rscale>  0 0.78894009E+02</rscale>
<asrwt>0</asrwt>
<pdfrwt beam="1">  1        2 0.80439717E-01 0.78894009E+02</pdfrwt>
<pdfrwt beam="2">  1       -1 0.45785801E-03 0.78894009E+02</pdfrwt>
<totfact> 0.32022164E+05</totfact>
</mgrwt>
</event>
<event>
 8    1  0.1226832E-024  0.7733482E+02  0.7818608E-02  0.1336790E+00
          2   -1    0    0  501    0  0.00000000000E+00  0.00000000000E+00  0.50751735449E+02  0.50751735513E+02  0.25500000000E-02 0. -1.
         -1   -1    0    0    0  501 -0.00000000000E+00 -0.00000000000E+00 -0.29460439655E+02  0.29460440087E+02  0.50400000000E-02 0.  1.
         24    2    1    2    0    0  0.00000000000E+00  0.00000000000E+00  0.21291295794E+02  0.80212175600E+02  0.77334816466E+02 0.  0.
         66    2    3    3    0    0 -0.37028235420E+02  0.10618473069E+02  0.74860642697E+01  0.39292281049E+02  0.20000007927E+01 0.  0.
        -13    1    3    3    0    0  0.37028235420E+02 -0.10618473069E+02  0.13805231524E+02  0.40919894551E+02  0.10566000000E+00 0.  1.
         13    1    4    4    0    0 -0.15496884507E+01  0.27926993520E+00  0.41146989079E+00  0.16309498758E+01  0.10566000000E+00 0. -1.
        -13    1    4    4    0    0 -0.14150231737E+02  0.48910761868E+01  0.31875727145E+01  0.15307627782E+02  0.10566000000E+00 0. -1.
         14    1    4    4    0    0 -0.21328315232E+02  0.54481269468E+01  0.38870216644E+01  0.22353703391E+02  0.00000000000E+00 0. -1.
<mgrwt>
<rscale>  0 0.77334816E+02</rscale>
<asrwt>0</asrwt>
<pdfrwt beam="1">  1        2 0.78079592E-02 0.77334816E+02</pdfrwt>
<pdfrwt beam="2">  1       -1 0.45323755E-02 0.77334816E+02</pdfrwt>
<totfact> 0.16445243E+05</totfact>
</mgrwt>
</event>
<event>
 8    1  0.1226832E-024  0.7681048E+02  0.7818608E-02  0.1338354E+00
          2   -1    0    0  501    0  0.00000000000E+00  0.00000000000E+00  0.64043896185E+01  0.64043901262E+01  0.25500000000E-02 0. -1.
         -1   -1    0    0    0  501 -0.00000000000E+00 -0.00000000000E+00 -0.23030492646E+03  0.23030492652E+03  0.50400000000E-02 0.  1.
         24    2    1    2    0    0  0.00000000000E+00  0.00000000000E+00 -0.22390053684E+03  0.23670931664E+03  0.76810482272E+02 0.  0.
         66    2    3    3    0    0 -0.11488844585E+02 -0.30897811273E+02 -0.51456845646E+02  0.61143072481E+02  0.20000143157E+01 0.  0.
        -13    1    3    3    0    0  0.11488844585E+02  0.30897811273E+02 -0.17244369120E+03  0.17556624416E+03  0.10566000000E+00 0.  1.
         13    1    4    4    0    0 -0.32008920143E+01 -0.10953754894E+02 -0.18113446099E+02  0.21408842789E+02  0.10566000000E+00 0. -1.
        -13    1    4    4    0    0 -0.12978497265E+01 -0.38429072298E+01 -0.61853947914E+01  0.73974740723E+01  0.10566000000E+00 0. -1.
         14    1    4    4    0    0 -0.69901028444E+01 -0.16101149149E+02 -0.27158004756E+02  0.32336755620E+02  0.00000000000E+00 0. -1.
<mgrwt>
<rscale>  0 0.76810482E+02</rscale>
<asrwt>0</asrwt>
<pdfrwt beam="1">  1        2 0.98529093E-03 0.76810482E+02</pdfrwt>
<pdfrwt beam="2">  1       -1 0.35431521E-01 0.76810482E+02</pdfrwt>
<totfact> 0.10565963E+05</totfact>
</mgrwt>
</event>
<event>
 8    1  0.1226832E-024  0.7886671E+02  0.7818608E-02  0.1332299E+00
          2   -1    0    0  501    0  0.00000000000E+00  0.00000000000E+00  0.10171591560E+02  0.10171591880E+02  0.25500000000E-02 0. -1.
         -1   -1    0    0    0  501 -0.00000000000E+00 -0.00000000000E+00 -0.15287570881E+03  0.15287570889E+03  0.50400000000E-02 0.  1.
         24    2    1    2    0    0  0.00000000000E+00  0.00000000000E+00 -0.14270411725E+03  0.16304730077E+03  0.78866705328E+02 0.  0.
         66    2    3    3    0    0 -0.24169293713E+02 -0.30385683241E+02 -0.57446482462E+02  0.69365285646E+02  0.20000002182E+01 0.  0.
        -13    1    3    3    0    0  0.24169293713E+02  0.30385683241E+02 -0.85257634787E+02  0.93682015126E+02  0.10566000000E+00 0.  1.
         13    1    4    4    0    0 -0.32235787949E+01 -0.36637174120E+01 -0.75674169829E+01  0.90050679815E+01  0.10566000000E+00 0. -1.
        -13    1    4    4    0    0 -0.42117120283E+01 -0.62519288708E+01 -0.11775622554E+02  0.13982188076E+02  0.10566000000E+00 0.  1.
         14    1    4    4    0    0 -0.16734002890E+02 -0.20470036958E+02 -0.38103442925E+02  0.46378029589E+02  0.00000000000E+00 0. -1.
<mgrwt>
<rscale>  0 0.78866705E+02</rscale>
<asrwt>0</asrwt>
<pdfrwt beam="1">  1        2 0.15648604E-02 0.78866705E+02</pdfrwt>
<pdfrwt beam="2">  1       -1 0.23519338E-01 0.78866705E+02</pdfrwt>
<totfact> 0.11129225E+05</totfact>
</mgrwt>
</event>
<event>
 8    1  0.1226832E-024  0.8057965E+02  0.7818608E-02  0.1327414E+00
         -1   -1    0    0    0  501 -0.00000000000E+00  0.00000000000E+00  0.28634993679E+02  0.28634994123E+02  0.50400000000E-02 0.  1.
          2   -1    0    0  501    0  0.00000000000E+00 -0.00000000000E+00 -0.56688324422E+02  0.56688324480E+02  0.25500000000E-02 0. -1.
         24    2    1    2    0    0  0.00000000000E+00  0.00000000000E+00 -0.28053330743E+02  0.85323318602E+02  0.80579645888E+02 0.  0.
         66    2    3    3    0    0  0.30807247023E+01 -0.31461534475E+02  0.12371692880E+02  0.34005556422E+02  0.20000166618E+01 0.  0.
        -13    1    3    3    0    0 -0.30807247023E+01  0.31461534475E+02 -0.40425023623E+02  0.51317762180E+02  0.10566000000E+00 0.  1.
         13    1    4    4    0    0  0.89045989016E+00 -0.65548288157E+01  0.20658208594E+01  0.69309075508E+01  0.10566000000E+00 0. -1.
        -13    1    4    4    0    0 -0.70514361236E-01 -0.33672934704E+01  0.16390645508E+01  0.37471768344E+01  0.10566000000E+00 0.  1.
         14    1    4    4    0    0  0.22607791733E+01 -0.21539412189E+02  0.86668074697E+01  0.23327472037E+02  0.00000000000E+00 0. -1.
<mgrwt>
<rscale>  0 0.80579646E+02</rscale>
<asrwt>0</asrwt>
<pdfrwt beam="1">  1        2 0.87212807E-02 0.80579646E+02</pdfrwt>
<pdfrwt beam="2">  1       -1 0.44053837E-02 0.80579646E+02</pdfrwt>
<totfact> 0.15065692E+05</totfact>
</mgrwt>
</event>
<event>
 8    1  0.1226832E-024  0.8119489E+02  0.7818608E-02  0.1325694E+00
         -1   -1    0    0    0  501 -0.00000000000E+00  0.00000000000E+00  0.39760899676E+02  0.39760899996E+02  0.50400000000E-02 0.  1.
          2   -1    0    0  501    0  0.00000000000E+00 -0.00000000000E+00 -0.41451587905E+02  0.41451587984E+02  0.25500000000E-02 0. -1.
         24    2    1    2    0    0  0.88817841970E-15  0.00000000000E+00 -0.16906882293E+01  0.81212487979E+02  0.81194887629E+02 0.  0.
         66    2    3    3    0    0 -0.73847674352E+01 -0.84429453310E+01 -0.39845708624E+02  0.41442714768E+02  0.19999989212E+01 0.  0.
        -13    1    3    3    0    0  0.73847674352E+01  0.84429453310E+01  0.38155020394E+02  0.39769773211E+02  0.10566000000E+00 0.  1.
         13    1    4    4    0    0 -0.42238649287E+01 -0.40054660614E+01 -0.19894759589E+02  0.20729144132E+02  0.10566000000E+00 0. -1.
        -13    1    4    4    0    0 -0.25242519295E+01 -0.28840181026E+01 -0.12448826529E+02  0.13025891685E+02  0.10566000000E+00 0.  1.
         14    1    4    4    0    0 -0.63665057698E+00 -0.15534611669E+01 -0.75021225064E+01  0.76876789511E+01  0.00000000000E+00 0. -1.
<mgrwt>
<rscale>  0 0.81194888E+02</rscale>
<asrwt>0</asrwt>
<pdfrwt beam="1">  1        2 0.63771674E-02 0.81194888E+02</pdfrwt>
<pdfrwt beam="2">  1       -1 0.61170615E-02 0.81194888E+02</pdfrwt>
<totfact> 0.13784043E+05</totfact>
</mgrwt>
</event>
<event>
 8    1  0.1226832E-024  0.7959288E+02  0.7818608E-02  0.1330211E+00
         -1   -1    0    0    0  501 -0.00000000000E+00  0.00000000000E+00  0.18688399264E+02  0.18688399944E+02  0.50400000000E-02 0.  1.
          2   -1    0    0  501    0  0.00000000000E+00 -0.00000000000E+00 -0.84745432563E+02  0.84745432601E+02  0.25500000000E-02 0. -1.
         24    2    1    2    0    0  0.35527136788E-14  0.00000000000E+00 -0.66057033299E+02  0.10343383254E+03  0.79592876984E+02 0.  0.
         66    2    3    3    0    0  0.20164230811E+02  0.31547513885E+02 -0.50480049442E+02  0.62881453741E+02  0.19999991206E+01 0.  0.
        -13    1    3    3    0    0 -0.20164230811E+02 -0.31547513885E+02 -0.15576983857E+02  0.40552378803E+02  0.10566000000E+00 0.  1.
         13    1    4    4    0    0  0.59113589674E+01  0.10052823009E+02 -0.17029353119E+02  0.20640093192E+02  0.10566000000E+00 0. -1.
        -13    1    4    4    0    0  0.73859837441E+01  0.11420634561E+02 -0.17382115614E+02  0.22071084180E+02  0.10566000000E+00 0.  1.
         14    1    4    4    0    0  0.68668880990E+01  0.10074056314E+02 -0.16068580709E+02  0.20170276369E+02  0.00000000000E+00 0. -1.
<mgrwt>
<rscale>  0 0.79592877E+02</rscale>
<asrwt>0</asrwt>
<pdfrwt beam="1">  1        2 0.13037759E-01 0.79592877E+02</pdfrwt>
<pdfrwt beam="2">  1       -1 0.28751385E-02 0.79592877E+02</pdfrwt>
<totfact> 0.17181676E+05</totfact>
</mgrwt>
</event>
<event>
 8    1  0.1226832E-024  0.7957964E+02  0.7818608E-02  0.1330249E+00
         -1   -1    0    0    0  501 -0.00000000000E+00  0.00000000000E+00  0.28229205251E+01  0.28229250243E+01  0.50400000000E-02 0.  1.
          2   -1    0    0  501    0  0.00000000000E+00 -0.00000000000E+00 -0.56084776493E+03  0.56084776494E+03  0.25500000000E-02 0. -1.
         24    2    1    2    0    0  0.00000000000E+00 -0.35527136788E-14 -0.55802484441E+03  0.56367068996E+03  0.79579644049E+02 0.  0.
         66    2    3    3    0    0 -0.24849454843E+02  0.27368348602E+02 -0.38297507190E+03  0.38476022093E+03  0.20000001586E+01 0.  0.
        -13    1    3    3    0    0  0.24849454843E+02 -0.27368348602E+02 -0.17504977250E+03  0.17891046903E+03  0.10566000000E+00 0.  1.
         13    1    4    4    0    0 -0.14497330357E+02  0.15067697880E+02 -0.21957257890E+03  0.22056594632E+03  0.10566000000E+00 0. -1.
        -13    1    4    4    0    0 -0.29301542885E+01  0.41504383914E+01 -0.52199021324E+02  0.52445790434E+02  0.10566000000E+00 0.  1.
        -14    1    4    4    0    0 -0.74219701972E+01  0.81502123310E+01 -0.11120347167E+03  0.11174848417E+03  0.00000000000E+00 0.  1.
<mgrwt>
<rscale>  0 0.79579644E+02</rscale>
<asrwt>0</asrwt>
<pdfrwt beam="1">  1        2 0.86284183E-01 0.79579644E+02</pdfrwt>
<pdfrwt beam="2">  1       -1 0.43429626E-03 0.79579644E+02</pdfrwt>
<totfact> 0.31981711E+05</totfact>
</mgrwt>
</event>
<event>
 8    1  0.1226832E-024  0.7764339E+02  0.7818608E-02  0.1335875E+00
         -1   -1    0    0    0  501 -0.00000000000E+00  0.00000000000E+00  0.22107203705E+02  0.22107204280E+02  0.50400000000E-02 0.  1.
          2   -1    0    0  501    0  0.00000000000E+00 -0.00000000000E+00 -0.68173429680E+02  0.68173429727E+02  0.25500000000E-02 0. -1.
         24    2    1    2    0    0  0.35527136788E-14 -0.88817841970E-15 -0.46066225975E+02  0.90280634007E+02  0.77643388007E+02 0.  0.
         66    2    3    3    0    0  0.16969331260E+02 -0.48601816871E+01 -0.63218970717E+02  0.65667479279E+02  0.20000017060E+01 0.  0.
        -13    1    3    3    0    0 -0.16969331260E+02  0.48601816871E+01  0.17152744742E+02  0.24613154728E+02  0.10566000000E+00 0.  1.
         13    1    4    4    0    0  0.96654481495E+01 -0.29229572326E+01 -0.35070128905E+02  0.36495063671E+02  0.10566000000E+00 0. -1.
        -13    1    4    4    0    0  0.43643481689E+01 -0.65044384914E+00 -0.17694549147E+02  0.18236744383E+02  0.10566000000E+00 0.  1.
         14    1    4    4    0    0  0.29395349419E+01 -0.12867806054E+01 -0.10454292665E+02  0.10935671224E+02  0.00000000000E+00 0. -1.
<mgrwt>
<rscale>  0 0.77643388E+02</rscale>
<asrwt>0</asrwt>
<pdfrwt beam="1">  1        2 0.10488220E-01 0.77643388E+02</pdfrwt>
<pdfrwt beam="2">  1       -1 0.34011084E-02 0.77643388E+02</pdfrwt>
<totfact> 0.17393998E+05</totfact>
</mgrwt>
</event>
<event>
 8    1  0.1226832E-024  0.7990860E+02  0.7818608E-02  0.1329311E+00
         -1   -1    0    0    0  501 -0.00000000000E+00  0.00000000000E+00  0.96157944926E+01  0.96157958134E+01  0.50400000000E-02 0.  1.
          2   -1    0    0  501    0  0.00000000000E+00 -0.00000000000E+00 -0.16601290183E+03  0.16601290185E+03  0.25500000000E-02 0. -1.
         24    2    1    2    0    0  0.00000000000E+00  0.44408920985E-15 -0.15639710734E+03  0.17562869766E+03  0.79908599407E+02 0.  0.
         66    2    3    3    0    0  0.21636719132E+02  0.21161302523E+01 -0.15185850495E+03  0.15341978734E+03  0.20000000128E+01 0.  0.
        -13    1    3    3    0    0 -0.21636719132E+02 -0.21161302523E+01 -0.45386023878E+01  0.22208910322E+02  0.10566000000E+00 0.  1.
         13    1    4    4    0    0  0.55507171983E+01  0.82032505256E+00 -0.39665767148E+02  0.40060799319E+02  0.10566000000E+00 0. -1.
        -13    1    4    4    0    0  0.13497778892E+02  0.16184256202E+01 -0.95892550621E+02  0.96851441729E+02  0.10566000000E+00 0.  1.
        -14    1    4    4    0    0  0.25882230418E+01 -0.32262042052E+00 -0.16300187180E+02  0.16507546291E+02  0.00000000000E+00 0.  1.
<mgrwt>
<rscale>  0 0.79908599E+02</rscale>
<asrwt>0</asrwt>
<pdfrwt beam="1">  1        2 0.25540444E-01 0.79908599E+02</pdfrwt>
<pdfrwt beam="2">  1       -1 0.14793532E-02 0.79908599E+02</pdfrwt>
<totfact> 0.20768060E+05</totfact>
</mgrwt>
</event>
<event>
 8    1  0.1226832E-024  0.8102295E+02  0.7818608E-02  0.1326173E+00
          2   -1    0    0  501    0  0.00000000000E+00  0.00000000000E+00  0.13282797248E+04  0.13282797248E+04  0.25500000000E-02 0. -1.
         -1   -1    0    0    0  501 -0.00000000000E+00 -0.00000000000E+00 -0.12355626135E+01  0.12355728928E+01  0.50400000000E-02 0.  1.
         24    2    1    2    0    0 -0.88817841970E-15 -0.35527136788E-14  0.13270441622E+04  0.13295152977E+04  0.81022949913E+02 0.  0.
         66    2    3    3    0    0  0.43333017262E+01  0.16841431814E+02  0.12638717764E+04  0.12639929899E+04  0.19999996963E+01 0.  0.
        -13    1    3    3    0    0 -0.43333017262E+01 -0.16841431814E+02  0.63172385826E+02  0.65522307837E+02  0.10566000000E+00 0.  1.
         13    1    4    4    0    0  0.24625229553E+01  0.10289160883E+02  0.79463719178E+03  0.79470762458E+03  0.10566000000E+00 0. -1.
        -13    1    4    4    0    0 -0.41341561562E-01  0.64235454940E-01  0.12831456472E+02  0.12832118864E+02  0.10566000000E+00 0.  1.
         14    1    4    4    0    0  0.19121203324E+01  0.64880354764E+01  0.45640312815E+03  0.45645324644E+03  0.00000000000E+00 0. -1.
<mgrwt>
<rscale>  0 0.81022950E+02</rscale>
<asrwt>0</asrwt>
<pdfrwt beam="1">  1        2 0.20435031E+00 0.81022950E+02</pdfrwt>
<pdfrwt beam="2">  1       -1 0.19008773E-03 0.81022950E+02</pdfrwt>
<totfact> 0.33344348E+05</totfact>
</mgrwt>
</event>
<event>
 8    1  0.1226832E-024  0.8012256E+02  0.7818608E-02  0.1328704E+00
          2   -1    0    0  501    0  0.00000000000E+00  0.00000000000E+00  0.79315574896E+01  0.79315578995E+01  0.25500000000E-02 0. -1.
         -1   -1    0    0    0  501 -0.00000000000E+00 -0.00000000000E+00 -0.20234439645E+03  0.20234439651E+03  0.50400000000E-02 0.  1.
         24    2    1    2    0    0  0.00000000000E+00  0.00000000000E+00 -0.19441283896E+03  0.21027595441E+03  0.80122562685E+02 0.  0.
         66    2    3    3    0    0  0.23723174243E+01 -0.32737545868E+02 -0.37103457454E+02  0.49578638090E+02  0.20000000748E+01 0.  0.
        -13    1    3    3    0    0 -0.23723174243E+01  0.32737545868E+02 -0.15730938150E+03  0.16069731632E+03  0.10566000000E+00 0.  1.
         13    1    4    4    0    0  0.23357880957E+01 -0.30941451289E+02 -0.35281818530E+02  0.46985606272E+02  0.10566000000E+00 0. -1.
        -13    1    4    4    0    0  0.17248557454E+00 -0.15426502977E+01 -0.14931552762E+01  0.21564317585E+01  0.10566000000E+00 0.  1.
        -14    1    4    4    0    0 -0.13595624596E+00 -0.25344428130E+00 -0.32848364798E+00  0.43660005901E+00  0.00000000000E+00 0.  1.
<mgrwt>
<rscale>  0 0.80122563E+02</rscale>
<asrwt>0</asrwt>
<pdfrwt beam="1">  1        2 0.12202398E-02 0.80122563E+02</pdfrwt>
<pdfrwt beam="2">  1       -1 0.31129903E-01 0.80122563E+02</pdfrwt>
<totfact> 0.98865829E+04</totfact>
</mgrwt>
</event>
<event>
 8    1  0.1226832E-024  0.7912609E+02  0.7818608E-02  0.1331550E+00
         -1   -1    0    0    0  501 -0.00000000000E+00  0.00000000000E+00  0.10949070502E+03  0.10949070514E+03  0.50400000000E-02 0.  1.
          2   -1    0    0  501    0  0.00000000000E+00 -0.00000000000E+00 -0.14295591795E+02  0.14295592022E+02  0.25500000000E-02 0. -1.
         24    2    1    2    0    0 -0.71054273576E-14  0.00000000000E+00  0.95195113225E+02  0.12378629716E+03  0.79126087874E+02 0.  0.
         66    2    3    3    0    0  0.35848245927E+02 -0.57216361343E+01  0.23121097877E+02  0.43086181244E+02  0.19999977649E+01 0.  0.
        -13    1    3    3    0    0 -0.35848245927E+02  0.57216361343E+01  0.72074015348E+02  0.80700115914E+02  0.10566000000E+00 0.  1.
         13    1    4    4    0    0  0.16394915261E+02 -0.29025552786E+01  0.95675844742E+01  0.19203330708E+02  0.10566000000E+00 0. -1.
        -13    1    4    4    0    0  0.95013111392E+01 -0.13465254696E+01  0.69423335617E+01  0.11844627623E+02  0.10566000000E+00 0.  1.
        -14    1    4    4    0    0  0.99520195270E+01 -0.14725553861E+01  0.66111798409E+01  0.12038222914E+02  0.00000000000E+00 0.  1.
<mgrwt>
<rscale>  0 0.79126088E+02</rscale>
<asrwt>0</asrwt>
<pdfrwt beam="1">  1        2 0.21993219E-02 0.79126088E+02</pdfrwt>
<pdfrwt beam="2">  1       -1 0.16844723E-01 0.79126088E+02</pdfrwt>
<totfact> 0.11945277E+05</totfact>
</mgrwt>
</event>
<event>
 8    1  0.1226832E-024  0.7864495E+02  0.7818608E-02  0.1332941E+00
          2   -1    0    0  501    0  0.00000000000E+00  0.00000000000E+00  0.21732086474E+02  0.21732086623E+02  0.25500000000E-02 0. -1.
         -1   -1    0    0    0  501 -0.00000000000E+00 -0.00000000000E+00 -0.71150886115E+02  0.71150886293E+02  0.50400000000E-02 0.  1.
         24    2    1    2    0    0  0.00000000000E+00 -0.71054273576E-14 -0.49418799641E+02  0.92882972916E+02  0.78644954700E+02 0.  0.
         66    2    3    3    0    0 -0.34168941524E+01  0.38971973845E+02 -0.20343945088E+02  0.44140299186E+02  0.19999998667E+01 0.  0.
        -13    1    3    3    0    0  0.34168941524E+01 -0.38971973845E+02 -0.29074854553E+02  0.48742673730E+02  0.10566000000E+00 0.  1.
         13    1    4    4    0    0 -0.10567313848E+01  0.11503807032E+02 -0.63974852793E+01  0.13205803246E+02  0.10566000000E+00 0. -1.
        -13    1    4    4    0    0 -0.84161517395E+00  0.39607125633E+01 -0.18330331756E+01  0.44459796186E+01  0.10566000000E+00 0.  1.
        -14    1    4    4    0    0 -0.15185475936E+01  0.23507454250E+02 -0.12113426633E+02  0.26488516321E+02  0.00000000000E+00 0.  1.
<mgrwt>
<rscale>  0 0.78644955E+02</rscale>
<asrwt>0</asrwt>
<pdfrwt beam="1">  1        2 0.33433980E-02 0.78644955E+02</pdfrwt>
<pdfrwt beam="2">  1       -1 0.10946290E-01 0.78644955E+02</pdfrwt>
<totfact> 0.13254909E+05</totfact>
</mgrwt>
</event>
<event>
 8    1  0.1226832E-024  0.8143935E+02  0.7818608E-02  0.1325016E+00
          2   -1    0    0  501    0  0.00000000000E+00  0.00000000000E+00  0.10591917139E+04  0.10591917139E+04  0.25500000000E-02 0. -1.
         -1   -1    0    0    0  501 -0.00000000000E+00 -0.00000000000E+00 -0.15654274008E+01  0.15654355141E+01  0.50400000000E-02 0.  1.
         24    2    1    2    0    0 -0.35527136788E-14  0.17763568394E-14  0.10576262865E+04  0.10607571494E+04  0.81439352563E+02 0.  0.
         66    2    3    3    0    0 -0.28592467054E+02  0.12372724466E+02  0.87014895766E+03  0.87070880432E+03  0.19999786821E+01 0.  0.
        -13    1    3    3    0    0  0.28592467054E+02 -0.12372724466E+02  0.18747732887E+03  0.19004834513E+03  0.10566000000E+00 0.  1.
         13    1    4    4    0    0 -0.11770190992E+02  0.56028714785E+01  0.38029698912E+03  0.38052035512E+03  0.10566000000E+00 0. -1.
        -13    1    4    4    0    0 -0.18966671970E+00  0.77095636754E-01  0.65768872974E+01  0.65809214978E+01  0.10566000000E+00 0. -1.
         14    1    4    4    0    0 -0.16632609342E+02  0.66927573504E+01  0.48327508125E+03  0.48360752770E+03  0.00000000000E+00 0. -1.
<mgrwt>
<rscale>  0 0.81439353E+02</rscale>
<asrwt>0</asrwt>
<pdfrwt beam="1">  1        2 0.16295194E+00 0.81439353E+02</pdfrwt>
<pdfrwt beam="2">  1       -1 0.24083655E-03 0.81439353E+02</pdfrwt>
<totfact> 0.33676236E+05</totfact>
</mgrwt>
</event>
<event>
 8    1  0.1226832E-024  0.7896697E+02  0.7818608E-02  0.1332009E+00
          2   -1    0    0  501    0  0.00000000000E+00  0.00000000000E+00  0.18826219870E+03  0.18826219872E+03  0.25500000000E-02 0. -1.
         -1   -1    0    0    0  501 -0.00000000000E+00 -0.00000000000E+00 -0.82807147279E+01  0.82807162617E+01  0.50400000000E-02 0.  1.
         24    2    1    2    0    0  0.00000000000E+00  0.00000000000E+00  0.17998148398E+03  0.19654291498E+03  0.78966973196E+02 0.  0.
         66    2    3    3    0    0 -0.12232315202E+02  0.17632843439E+02  0.17246121439E+03  0.17380281116E+03  0.19999994866E+01 0.  0.
        -13    1    3    3    0    0  0.12232315202E+02 -0.17632843439E+02  0.75202695889E+01  0.22740103818E+02  0.10566000000E+00 0.  1.
         13    1    4    4    0    0 -0.63571007179E+01  0.10295711746E+02  0.99017566549E+02  0.99754218252E+02  0.10566000000E+00 0. -1.
        -13    1    4    4    0    0 -0.39907724465E+00  0.25130738730E+00  0.44553545420E+01  0.44814915130E+01  0.10566000000E+00 0. -1.
         14    1    4    4    0    0 -0.54761372395E+01  0.70858243049E+01  0.68988293297E+02  0.69567101399E+02  0.00000000000E+00 0. -1.
<mgrwt>
<rscale>  0 0.78966973E+02</rscale>
<asrwt>0</asrwt>
<pdfrwt beam="1">  1        2 0.28963415E-01 0.78966973E+02</pdfrwt>
<pdfrwt beam="2">  1       -1 0.12739562E-02 0.78966973E+02</pdfrwt>
<totfact> 0.22356820E+05</totfact>
</mgrwt>
</event>
<event>
 8    1  0.1226832E-024  0.7584385E+02  0.7818608E-02  0.1341278E+00
         -1   -1    0    0    0  501 -0.00000000000E+00  0.00000000000E+00  0.33974881330E+01  0.33974918713E+01  0.50400000000E-02 0.  1.
          2   -1    0    0  501    0  0.00000000000E+00 -0.00000000000E+00 -0.42327493151E+03  0.42327493152E+03  0.25500000000E-02 0. -1.
         24    2    1    2    0    0  0.00000000000E+00  0.00000000000E+00 -0.41987744338E+03  0.42667242339E+03  0.75843848952E+02 0.  0.
         66    2    3    3    0    0  0.26324504524E+02 -0.22528380138E+02 -0.29642687570E+03  0.29845167127E+03  0.19999991907E+01 0.  0.
        -13    1    3    3    0    0 -0.26324504524E+02  0.22528380138E+02 -0.12345056768E+03  0.12822075212E+03  0.10566000000E+00 0.  1.
         13    1    4    4    0    0  0.13649907044E+02 -0.11316568844E+02 -0.14394136297E+03  0.14502934817E+03  0.10566000000E+00 0. -1.
        -13    1    4    4    0    0  0.10352788149E+02 -0.89863478394E+01 -0.12233352871E+03  0.12309930171E+03  0.10566000000E+00 0.  1.
        -14    1    4    4    0    0  0.23218093309E+01 -0.22254634546E+01 -0.30151984017E+02  0.30323021391E+02  0.00000000000E+00 0.  1.
<mgrwt>
<rscale>  0 0.75843849E+02</rscale>
<asrwt>0</asrwt>
<pdfrwt beam="1">  1        2 0.65119178E-01 0.75843849E+02</pdfrwt>
<pdfrwt beam="2">  1       -1 0.52269111E-03 0.75843849E+02</pdfrwt>
<totfact> 0.33106625E+05</totfact>
</mgrwt>
</event>
<event>
 8    1  0.1226832E-024  0.8072845E+02  0.7818608E-02  0.1326997E+00
         -1   -1    0    0    0  501 -0.00000000000E+00  0.00000000000E+00  0.24627001212E+02  0.24627001727E+02  0.50400000000E-02 0.  1.
          2   -1    0    0  501    0  0.00000000000E+00 -0.00000000000E+00 -0.66157895508E+02  0.66157895557E+02  0.25500000000E-02 0. -1.
         24    2    1    2    0    0  0.00000000000E+00  0.00000000000E+00 -0.41530894296E+02  0.90784897285E+02  0.80728448480E+02 0.  0.
         66    2    3    3    0    0 -0.31870363324E+02 -0.18101593635E+02 -0.39725694344E+02  0.54088062797E+02  0.19999988581E+01 0.  0.
        -13    1    3    3    0    0  0.31870363324E+02  0.18101593635E+02 -0.18051999517E+01  0.36696834488E+02  0.10566000000E+00 0.  1.
         13    1    4    4    0    0 -0.18101426515E+02 -0.96673993370E+01 -0.21485895164E+02  0.29711531547E+02  0.10566000000E+00 0. -1.
        -13    1    4    4    0    0 -0.67422093837E+01 -0.42105268750E+01 -0.96385808007E+01  0.12493971659E+02  0.10566000000E+00 0.  1.
        -14    1    4    4    0    0 -0.70267274252E+01 -0.42236674227E+01 -0.86012183801E+01  0.11882559591E+02  0.00000000000E+00 0.  1.
<mgrwt>
<rscale>  0 0.80728448E+02</rscale>
<asrwt>0</asrwt>
<pdfrwt beam="1">  1        2 0.10178138E-01 0.80728448E+02</pdfrwt>
<pdfrwt beam="2">  1       -1 0.37887695E-02 0.80728448E+02</pdfrwt>
<totfact> 0.15540751E+05</totfact>
</mgrwt>
</event>
<event>
 8    1  0.1226832E-024  0.7598606E+02  0.7818608E-02  0.1340844E+00
         -1   -1    0    0    0  501 -0.00000000000E+00  0.00000000000E+00  0.58997807265E+01  0.58997828793E+01  0.50400000000E-02 0.  1.
          2   -1    0    0  501    0  0.00000000000E+00 -0.00000000000E+00 -0.24466506497E+03  0.24466506499E+03  0.25500000000E-02 0. -1.
         24    2    1    2    0    0  0.88817841970E-15  0.00000000000E+00 -0.23876528425E+03  0.25056484787E+03  0.75986064674E+02 0.  0.
         66    2    3    3    0    0 -0.58040034678E+01 -0.32594344326E+02 -0.18074807649E+03  0.18376600582E+03  0.20000007516E+01 0.  0.
        -13    1    3    3    0    0  0.58040034678E+01  0.32594344326E+02 -0.58017207757E+02  0.66798842043E+02  0.10566000000E+00 0.  1.
         13    1    4    4    0    0 -0.17473372864E+01 -0.86964759048E+01 -0.46454637778E+02  0.47294042075E+02  0.10566000000E+00 0. -1.
        -13    1    4    4    0    0 -0.26457576707E+01 -0.17457460289E+02 -0.94339025804E+02  0.95977215562E+02  0.10566000000E+00 0.  1.
        -14    1    4    4    0    0 -0.14109085107E+01 -0.64404081328E+01 -0.39954412909E+02  0.40494748186E+02  0.00000000000E+00 0.  1.
<mgrwt>
<rscale>  0 0.75986065E+02</rscale>
<asrwt>0</asrwt>
<pdfrwt beam="1">  1        2 0.37640771E-01 0.75986065E+02</pdfrwt>
<pdfrwt beam="2">  1       -1 0.90765893E-03 0.75986065E+02</pdfrwt>
<totfact> 0.27108671E+05</totfact>
</mgrwt>
</event>
<event>
 8    1  0.1226832E-024  0.7850323E+02  0.7818608E-02  0.1333354E+00
          2   -1    0    0  501    0  0.00000000000E+00  0.00000000000E+00  0.41748586738E+02  0.41748586816E+02  0.25500000000E-02 0. -1.
         -1   -1    0    0    0  501 -0.00000000000E+00 -0.00000000000E+00 -0.36903987361E+02  0.36903987705E+02  0.50400000000E-02 0.  1.
         24    2    1    2    0    0  0.00000000000E+00  0.00000000000E+00  0.48445993775E+01  0.78652574521E+02  0.78503231370E+02 0.  0.
         66    2    3    3    0    0  0.84374112012E+01 -0.12347300322E+02  0.38756316301E+02  0.41589635595E+02  0.20000006724E+01 0.  0.
        -13    1    3    3    0    0 -0.84374112012E+01  0.12347300322E+02 -0.33911716924E+02  0.37062938925E+02  0.10566000000E+00 0.  1.
         13    1    4    4    0    0  0.54973787297E+01 -0.84713262178E+01  0.28244117015E+02  0.29995430498E+02  0.10566000000E+00 0. -1.
        -13    1    4    4    0    0  0.23189254487E+01 -0.29872474219E+01  0.86143974757E+01  0.94085105252E+01  0.10566000000E+00 0.  1.
         14    1    4    4    0    0  0.62110702275E+00 -0.88872668239E+00  0.18978018109E+01  0.21856945722E+01  0.00000000000E+00 0. -1.
<mgrwt>
<rscale>  0 0.78503231E+02</rscale>
<asrwt>0</asrwt>
<pdfrwt beam="1">  1        2 0.64228595E-02 0.78503231E+02</pdfrwt>
<pdfrwt beam="2">  1       -1 0.56775366E-02 0.78503231E+02</pdfrwt>
<totfact> 0.15149928E+05</totfact>
</mgrwt>
</event>
<event>
 8    1  0.1226832E-024  0.7982195E+02  0.7818608E-02  0.1329557E+00
         -1   -1    0    0    0  501 -0.00000000000E+00  0.00000000000E+00  0.10965348402E+02  0.10965349560E+02  0.50400000000E-02 0.  1.
          2   -1    0    0  501    0  0.00000000000E+00 -0.00000000000E+00 -0.14526542265E+03  0.14526542268E+03  0.25500000000E-02 0. -1.
         24    2    1    2    0    0  0.00000000000E+00 -0.35527136788E-14 -0.13430007425E+03  0.15623077224E+03  0.79821953430E+02 0.  0.
         66    2    3    3    0    0  0.21503075033E+02 -0.19204779415E+02 -0.12113795002E+03  0.12453757949E+03  0.19999954940E+01 0.  0.
        -13    1    3    3    0    0 -0.21503075033E+02  0.19204779415E+02 -0.13162124236E+02  0.31693192750E+02  0.10566000000E+00 0.  1.
         13    1    4    4    0    0  0.12360863455E+02 -0.11768439989E+02 -0.71036168586E+02  0.73057754801E+02  0.10566000000E+00 0. -1.
        -13    1    4    4    0    0  0.36523518675E+01 -0.30010631615E+01 -0.17926971263E+02  0.18540051698E+02  0.10566000000E+00 0.  1.
        -14    1    4    4    0    0  0.54898597096E+01 -0.44352762641E+01 -0.32174810168E+02  0.32939772988E+02  0.00000000000E+00 0.  1.
<mgrwt>
<rscale>  0 0.79821953E+02</rscale>
<asrwt>0</asrwt>
<pdfrwt beam="1">  1        2 0.22348525E-01 0.79821953E+02</pdfrwt>
<pdfrwt beam="2">  1       -1 0.16869769E-02 0.79821953E+02</pdfrwt>
<totfact> 0.19942676E+05</totfact>
</mgrwt>
</event>
<event>
 8    1  0.1226832E-024  0.7958491E+02  0.7818608E-02  0.1330234E+00
          2   -1    0    0  501    0  0.00000000000E+00  0.00000000000E+00  0.99390729765E+03  0.99390729765E+03  0.25500000000E-02 0. -1.
         -1   -1    0    0    0  501 -0.00000000000E+00 -0.00000000000E+00 -0.15931418660E+01  0.15931498382E+01  0.50400000000E-02 0.  1.
         24    2    1    2    0    0  0.35527136788E-14  0.00000000000E+00  0.99231415578E+03  0.99550044749E+03  0.79584905519E+02 0.  0.
         66    2    3    3    0    0  0.23615644809E+02  0.76885428847E+01  0.88496802954E+03  0.88531871418E+03  0.20000005011E+01 0.  0.
        -13    1    3    3    0    0 -0.23615644809E+02 -0.76885428847E+01  0.10734612625E+03  0.11018173331E+03  0.10566000000E+00 0.  1.
         13    1    4    4    0    0  0.15038244350E+02  0.41534459200E+01  0.57429991216E+03  0.57451179290E+03  0.10566000000E+00 0. -1.
        -13    1    4    4    0    0  0.53521808244E+00  0.19100949983E+00  0.19132819718E+02  0.19141548981E+02  0.10566000000E+00 0. -1.
         14    1    4    4    0    0  0.80421823757E+01  0.33440874648E+01  0.29153529766E+03  0.29166537230E+03  0.00000000000E+00 0. -1.
<mgrwt>
<rscale>  0 0.79584906E+02</rscale>
<asrwt>0</asrwt>
<pdfrwt beam="1">  1        2 0.15290924E+00 0.79584906E+02</pdfrwt>
<pdfrwt beam="2">  1       -1 0.24509869E-03 0.79584906E+02</pdfrwt>
<totfact> 0.35700509E+05</totfact>
</mgrwt>
</event>
<event>
 8    1  0.1226832E-024  0.8044610E+02  0.7818608E-02  0.1327790E+00
          2   -1    0    0  501    0  0.00000000000E+00  0.00000000000E+00  0.49094127580E+03  0.49094127581E+03  0.25500000000E-02 0. -1.
         -1   -1    0    0    0  501 -0.00000000000E+00 -0.00000000000E+00 -0.32954918808E+01  0.32954957348E+01  0.50400000000E-02 0.  1.
         24    2    1    2    0    0 -0.17763568394E-14 -0.35527136788E-14  0.48764578392E+03  0.49423677154E+03  0.80446104751E+02 0.  0.
         66    2    3    3    0    0 -0.11208595512E+02 -0.29390506930E+02  0.39774429891E+03  0.39899118013E+03  0.20000003704E+01 0.  0.
        -13    1    3    3    0    0  0.11208595512E+02  0.29390506930E+02  0.89901485015E+02  0.95245591409E+02  0.10566000000E+00 0.  1.
         13    1    4    4    0    0 -0.15062884003E+01 -0.42773669779E+01  0.49577875476E+02  0.49784954291E+02  0.10566000000E+00 0. -1.
        -13    1    4    4    0    0 -0.41526549984E+01 -0.10677265039E+02  0.15166136389E+03  0.15209348768E+03  0.10566000000E+00 0.  1.
         14    1    4    4    0    0 -0.55496521137E+01 -0.14435874914E+02  0.19650505954E+03  0.19711273817E+03  0.00000000000E+00 0. -1.
<mgrwt>
<rscale>  0 0.80446105E+02</rscale>
<asrwt>0</asrwt>
<pdfrwt beam="1">  1        2 0.75529425E-01 0.80446105E+02</pdfrwt>
<pdfrwt beam="2">  1       -1 0.50699906E-03 0.80446105E+02</pdfrwt>
<totfact> 0.29837762E+05</totfact>
</mgrwt>
</event>
<event>
 8    1  0.1226832E-024  0.8166392E+02  0.7818608E-02  0.1324395E+00
         -1   -1    0    0    0  501 -0.00000000000E+00  0.00000000000E+00  0.30330992714E+01  0.30331034588E+01  0.50400000000E-02 0.  1.
          2   -1    0    0  501    0  0.00000000000E+00 -0.00000000000E+00 -0.54968454670E+03  0.54968454670E+03  0.25500000000E-02 0. -1.
         24    2    1    2    0    0  0.00000000000E+00  0.00000000000E+00 -0.54665144743E+03  0.55271765016E+03  0.81663919988E+02 0.  0.
         66    2    3    3    0    0  0.10747489291E+02  0.30241842695E+02 -0.44406478845E+03  0.44522759788E+03  0.19999993127E+01 0.  0.
        -13    1    3    3    0    0 -0.10747489291E+02 -0.30241842695E+02 -0.10258665897E+03  0.10749005228E+03  0.10566000000E+00 0.  1.
         13    1    4    4    0    0  0.64509837704E+01  0.15735957996E+02 -0.23241373816E+03  0.23303517420E+03  0.10566000000E+00 0. -1.
        -13    1    4    4    0    0  0.34974931002E+00  0.13882036848E+01 -0.22891878231E+02  0.22936841261E+02  0.10566000000E+00 0.  1.
         14    1    4    4    0    0  0.39467562109E+01  0.13117681015E+02 -0.18875917206E+03  0.18925558242E+03  0.00000000000E+00 0. -1.
<mgrwt>
<rscale>  0 0.81663920E+02</rscale>
<asrwt>0</asrwt>
<pdfrwt beam="1">  1        2 0.84566774E-01 0.81663920E+02</pdfrwt>
<pdfrwt beam="2">  1       -1 0.46663142E-03 0.81663920E+02</pdfrwt>
<totfact> 0.29719373E+05</totfact>
</mgrwt>
</event>
<event>
 8    1  0.1226832E-024  0.7801915E+02  0.7818608E-02  0.1334769E+00
         -1   -1    0    0    0  501 -0.00000000000E+00  0.00000000000E+00  0.10437381158E+01  0.10437502843E+01  0.50400000000E-02 0.  1.
          2   -1    0    0  501    0  0.00000000000E+00 -0.00000000000E+00 -0.14579694011E+04  0.14579694011E+04  0.25500000000E-02 0. -1.
         24    2    1    2    0    0  0.00000000000E+00  0.00000000000E+00 -0.14569256630E+04  0.14590131514E+04  0.78019154424E+02 0.  0.
         66    2    3    3    0    0  0.19916674737E+02  0.27939944203E+01 -0.13534602538E+04  0.13536111476E+04  0.19999988713E+01 0.  0.
        -13    1    3    3    0    0 -0.19916674737E+02 -0.27939944203E+01 -0.10346540922E+03  0.10540200381E+03  0.10566000000E+00 0.  1.
         13    1    4    4    0    0  0.42885116222E+01  0.10145002587E+01 -0.32463494632E+03  0.32466487350E+03  0.10566000000E+00 0. -1.
        -13    1    4    4    0    0  0.46834353339E+01  0.10879301616E+01 -0.31999174137E+03  0.32002787983E+03  0.10566000000E+00 0.  1.
         14    1    4    4    0    0  0.10944727781E+02  0.69156399989E+00 -0.70883356608E+03  0.70891839427E+03  0.00000000000E+00 0. -1.
<mgrwt>
<rscale>  0 0.78019154E+02</rscale>
<asrwt>0</asrwt>
<pdfrwt beam="1">  1        2 0.22430136E+00 0.78019154E+02</pdfrwt>
<pdfrwt beam="2">  1       -1 0.16057720E-03 0.78019154E+02</pdfrwt>
<totfact> 0.35848413E+05</totfact>
</mgrwt>
</event>
<event>
 8    1  0.1226832E-024  0.8030992E+02  0.7818608E-02  0.1328174E+00
          2   -1    0    0  501    0  0.00000000000E+00  0.00000000000E+00  0.20862679497E+03  0.20862679498E+03  0.25500000000E-02 0. -1.
         -1   -1    0    0    0  501 -0.00000000000E+00 -0.00000000000E+00 -0.77287323629E+01  0.77287340062E+01  0.50400000000E-02 0.  1.
         24    2    1    2    0    0 -0.35527136788E-14  0.00000000000E+00  0.20089806261E+03  0.21635552899E+03  0.80309920720E+02 0.  0.
         66    2    3    3    0    0  0.26088775411E+02 -0.30338499968E+02  0.10875634958E+03  0.11590078681E+03  0.20000067414E+01 0.  0.
        -13    1    3    3    0    0 -0.26088775411E+02  0.30338499968E+02  0.92141713022E+02  0.10045474217E+03  0.10566000000E+00 0.  1.
         13    1    4    4    0    0  0.27574306603E+01 -0.39928669059E+01  0.13889608198E+02  0.14713218204E+02  0.10566000000E+00 0. -1.
        -13    1    4    4    0    0  0.24170203959E+01 -0.24618500341E+01  0.97899456253E+01  0.10380601744E+02  0.10566000000E+00 0.  1.
         14    1    4    4    0    0  0.20914324355E+02 -0.23883783028E+02  0.85076795760E+02  0.90806966867E+02  0.00000000000E+00 0. -1.
<mgrwt>
<rscale>  0 0.80309921E+02</rscale>
<asrwt>0</asrwt>
<pdfrwt beam="1">  1        2 0.32096436E-01 0.80309921E+02</pdfrwt>
<pdfrwt beam="2">  1       -1 0.11890357E-02 0.80309921E+02</pdfrwt>
<totfact> 0.22158601E+05</totfact>
</mgrwt>
</event>
<event>
 8    1  0.1226832E-024  0.7883377E+02  0.7818608E-02  0.1332394E+00
          2   -1    0    0  501    0  0.00000000000E+00  0.00000000000E+00  0.56838557314E+01  0.56838563034E+01  0.25500000000E-02 0. -1.
         -1   -1    0    0    0  501 -0.00000000000E+00 -0.00000000000E+00 -0.27335157617E+03  0.27335157622E+03  0.50400000000E-02 0.  1.
         24    2    1    2    0    0  0.00000000000E+00  0.00000000000E+00 -0.26766772044E+03  0.27903543252E+03  0.78833774721E+02 0.  0.
         66    2    3    3    0    0 -0.12072266702E+02 -0.33510940535E+02 -0.74379312733E+02  0.82492453820E+02  0.20000039328E+01 0.  0.
        -13    1    3    3    0    0  0.12072266702E+02  0.33510940535E+02 -0.19328840771E+03  0.19654297870E+03  0.10566000000E+00 0.  1.
         13    1    4    4    0    0 -0.43098670538E+01 -0.12417938568E+02 -0.28166566157E+02  0.31082901496E+02  0.10566000000E+00 0. -1.
        -13    1    4    4    0    0 -0.58608183788E+01 -0.14445586208E+02 -0.33003017271E+02  0.36499787204E+02  0.10566000000E+00 0.  1.
        -14    1    4    4    0    0 -0.19015812690E+01 -0.66474157594E+01 -0.13209729305E+02  0.14909765120E+02  0.00000000000E+00 0.  1.
<mgrwt>
<rscale>  0 0.78833775E+02</rscale>
<asrwt>0</asrwt>
<pdfrwt beam="1">  1        2 0.87443960E-03 0.78833775E+02</pdfrwt>
<pdfrwt beam="2">  1       -1 0.42054079E-01 0.78833775E+02</pdfrwt>
<totfact> 0.93069722E+04</totfact>
</mgrwt>
</event>
<event>
 8    1  0.1226832E-024  0.8160067E+02  0.7818608E-02  0.1324569E+00
          2   -1    0    0  501    0  0.00000000000E+00  0.00000000000E+00  0.16706316289E+02  0.16706316483E+02  0.25500000000E-02 0. -1.
         -1   -1    0    0    0  501 -0.00000000000E+00 -0.00000000000E+00 -0.99642979196E+02  0.99642979323E+02  0.50400000000E-02 0.  1.
         24    2    1    2    0    0 -0.35527136788E-14  0.35527136788E-14 -0.82936662907E+02  0.11634929581E+03  0.81600665319E+02 0.  0.
         66    2    3    3    0    0 -0.16169610761E+02  0.28998119768E+02 -0.77422117205E+01  0.34150975170E+02  0.20000001172E+01 0.  0.
        -13    1    3    3    0    0  0.16169610761E+02 -0.28998119768E+02 -0.75194451187E+02  0.82198320637E+02  0.10566000000E+00 0.  1.
         13    1    4    4    0    0 -0.64405268864E+01  0.11977492434E+02 -0.32372486557E+01  0.13979687209E+02  0.10566000000E+00 0. -1.
        -13    1    4    4    0    0 -0.32902687458E+01  0.65191483494E+01 -0.10545421675E+01  0.73789150178E+01  0.10566000000E+00 0.  1.
        -14    1    4    4    0    0 -0.64388151288E+01  0.10501478985E+02 -0.34504208973E+01  0.12792372942E+02  0.00000000000E+00 0.  1.
<mgrwt>
<rscale>  0 0.81600665E+02</rscale>
<asrwt>0</asrwt>
<pdfrwt beam="1">  1        2 0.25702026E-02 0.81600665E+02</pdfrwt>
<pdfrwt beam="2">  1       -1 0.15329689E-01 0.81600665E+02</pdfrwt>
<totfact> 0.11290684E+05</totfact>
</mgrwt>
</event>
<event>
 8    1  0.1226832E-024  0.6974581E+02  0.7818608E-02  0.1360960E+00
         -1   -1    0    0    0  501 -0.00000000000E+00  0.00000000000E+00  0.52836062250E+01  0.52836086288E+01  0.50400000000E-02 0.  1.
          2   -1    0    0  501    0  0.00000000000E+00 -0.00000000000E+00 -0.23016843117E+03  0.23016843119E+03  0.25500000000E-02 0. -1.
         24    2    1    2    0    0 -0.35527136788E-14  0.00000000000E+00 -0.22488482495E+03  0.23545203982E+03  0.69745813936E+02 0.  0.
         66    2    3    3    0    0 -0.16066238404E+02 -0.27849936003E+02 -0.15787328440E+03  0.16112640035E+03  0.20000024605E+01 0.  0.
        -13    1    3    3    0    0  0.16066238404E+02  0.27849936003E+02 -0.67011540550E+02  0.74325639470E+02  0.10566000000E+00 0.  1.
         13    1    4    4    0    0 -0.52766664023E+01 -0.10415666569E+02 -0.58464955573E+02  0.59619556460E+02  0.10566000000E+00 0. -1.
        -13    1    4    4    0    0 -0.54553390308E+01 -0.77731889108E+01 -0.45616390641E+02  0.46594521662E+02  0.10566000000E+00 0.  1.
         14    1    4    4    0    0 -0.53342329705E+01 -0.96610805223E+01 -0.53791938185E+02  0.54912322224E+02  0.00000000000E+00 0. -1.
<mgrwt>
<rscale>  0 0.69745814E+02</rscale>
<asrwt>0</asrwt>
<pdfrwt beam="1">  1        2 0.35410520E-01 0.69745814E+02</pdfrwt>
<pdfrwt beam="2">  1       -1 0.81286286E-03 0.69745814E+02</pdfrwt>
<totfact> 0.33158903E+05</totfact>
</mgrwt>
</event>
<event>
 8    1  0.1226832E-024  0.7990290E+02  0.7818608E-02  0.1329327E+00
          2   -1    0    0  501    0  0.00000000000E+00  0.00000000000E+00  0.97034741410E+01  0.97034744760E+01  0.25500000000E-02 0. -1.
         -1   -1    0    0    0  501 -0.00000000000E+00 -0.00000000000E+00 -0.16448937172E+03  0.16448937180E+03  0.50400000000E-02 0.  1.
         24    2    1    2    0    0 -0.17763568394E-14  0.00000000000E+00 -0.15478589758E+03  0.17419284627E+03  0.79902901095E+02 0.  0.
         66    2    3    3    0    0 -0.11244995711E+02 -0.36317358219E+02 -0.10402664321E+03  0.11077428823E+03  0.19999995355E+01 0.  0.
        -13    1    3    3    0    0  0.11244995711E+02  0.36317358219E+02 -0.50759254369E+02  0.63418558046E+02  0.10566000000E+00 0.  1.
         13    1    4    4    0    0 -0.69296969535E+00 -0.18441608876E+01 -0.55335802140E+01  0.58747604546E+01  0.10566000000E+00 0. -1.
        -13    1    4    4    0    0 -0.68791790536E+01 -0.22888866551E+02 -0.62797097992E+02  0.67191591712E+02  0.10566000000E+00 0.  1.
        -14    1    4    4    0    0 -0.36728469624E+01 -0.11584330780E+02 -0.35695965004E+02  0.37707936062E+02  0.00000000000E+00 0.  1.
<mgrwt>
<rscale>  0 0.79902901E+02</rscale>
<asrwt>0</asrwt>
<pdfrwt beam="1">  1        2 0.14928423E-02 0.79902901E+02</pdfrwt>
<pdfrwt beam="2">  1       -1 0.25306055E-01 0.79902901E+02</pdfrwt>
<totfact> 0.10562868E+05</totfact>
</mgrwt>
</event>
<event>
 8    1  0.1226832E-024  0.8042653E+02  0.7818608E-02  0.1327845E+00
          2   -1    0    0  501    0  0.00000000000E+00  0.00000000000E+00  0.32644903403E+03  0.32644903404E+03  0.25500000000E-02 0. -1.
         -1   -1    0    0    0  501 -0.00000000000E+00 -0.00000000000E+00 -0.49536249839E+01  0.49536275479E+01  0.50400000000E-02 0.  1.
         24    2    1    2    0    0  0.00000000000E+00  0.35527136788E-14  0.32149540905E+03  0.33140266159E+03  0.80426525910E+02 0.  0.
         66    2    3    3    0    0 -0.21686134801E+02  0.28672412590E+02  0.23486871195E+03  0.23761251551E+03  0.19999976816E+01 0.  0.
        -13    1    3    3    0    0  0.21686134801E+02 -0.28672412590E+02  0.86626697102E+02  0.93790146077E+02  0.10566000000E+00 0.  1.
         13    1    4    4    0    0 -0.39844943223E+00  0.64041120025E+00  0.43349451243E+01  0.44013409004E+01  0.10566000000E+00 0. -1.
        -13    1    4    4    0    0 -0.26218082206E+01  0.28138270917E+01  0.27360809487E+02  0.27629993866E+02  0.10566000000E+00 0.  1.
         14    1    4    4    0    0 -0.18665877148E+02  0.25218174298E+02  0.20317295734E+03  0.20558118075E+03  0.00000000000E+00 0. -1.
<mgrwt>
<rscale>  0 0.80426526E+02</rscale>
<asrwt>0</asrwt>
<pdfrwt beam="1">  1        2 0.50222943E-01 0.80426526E+02</pdfrwt>
<pdfrwt beam="2">  1       -1 0.76209613E-03 0.80426526E+02</pdfrwt>
<totfact> 0.25921004E+05</totfact>
</mgrwt>
</event>
<event>
 8    1  0.1226832E-024  0.8071262E+02  0.7818608E-02  0.1327041E+00
          2   -1    0    0  501    0  0.00000000000E+00  0.00000000000E+00  0.83052086301E+02  0.83052086340E+02  0.25500000000E-02 0. -1.
         -1   -1    0    0    0  501 -0.00000000000E+00 -0.00000000000E+00 -0.19609763110E+02  0.19609763758E+02  0.50400000000E-02 0.  1.
         24    2    1    2    0    0  0.00000000000E+00 -0.17763568394E-14  0.63442323190E+02  0.10266185010E+03  0.80712620412E+02 0.  0.
         66    2    3    3    0    0 -0.32071511621E+02  0.10998737907E+02  0.59522355211E+02  0.68530758610E+02  0.20000031457E+01 0.  0.
        -13    1    3    3    0    0  0.32071511621E+02 -0.10998737907E+02  0.39199679795E+01  0.34131091488E+02  0.10566000000E+00 0.  1.
         13    1    4    4    0    0 -0.95023580097E+01  0.34027641151E+01  0.17742048787E+02  0.20412375427E+02  0.10566000000E+00 0. -1.
        -13    1    4    4    0    0 -0.57712102276E+01  0.24930214623E+01  0.10036975521E+02  0.11843735270E+02  0.10566000000E+00 0.  1.
        -14    1    4    4    0    0 -0.16797943384E+02  0.51029523292E+01  0.31743330903E+02  0.36274647913E+02  0.00000000000E+00 0.  1.
<mgrwt>
<rscale>  0 0.80712620E+02</rscale>
<asrwt>0</asrwt>
<pdfrwt beam="1">  1        2 0.12777244E-01 0.80712620E+02</pdfrwt>
<pdfrwt beam="2">  1       -1 0.30168867E-02 0.80712620E+02</pdfrwt>
<totfact> 0.16460120E+05</totfact>
</mgrwt>
</event>
<event>
 8    1  0.1226832E-024  0.7856434E+02  0.7818608E-02  0.1333176E+00
         -1   -1    0    0    0  501 -0.00000000000E+00  0.00000000000E+00  0.26458343559E+01  0.26458391562E+01  0.50400000000E-02 0.  1.
          2   -1    0    0  501    0  0.00000000000E+00 -0.00000000000E+00 -0.58321395255E+03  0.58321395256E+03  0.25500000000E-02 0. -1.
         24    2    1    2    0    0  0.00000000000E+00 -0.44408920985E-15 -0.58056811820E+03  0.58585979171E+03  0.78564341029E+02 0.  0.
         66    2    3    3    0    0 -0.20685838530E+02  0.38024859225E+01 -0.53765087810E+03  0.53806582268E+03  0.19999988612E+01 0.  0.
        -13    1    3    3    0    0  0.20685838530E+02 -0.38024859225E+01 -0.42917240096E+02  0.47793969038E+02  0.10566000000E+00 0.  1.
         13    1    4    4    0    0 -0.40456688564E+01  0.37549932607E+00 -0.10780974864E+03  0.10788633603E+03  0.10566000000E+00 0. -1.
        -13    1    4    4    0    0 -0.96371519292E+00  0.37927899850E+00 -0.19590740753E+02  0.19618381350E+02  0.10566000000E+00 0.  1.
         14    1    4    4    0    0 -0.15676454481E+02  0.30477075979E+01 -0.41025038871E+03  0.41056110529E+03  0.00000000000E+00 0. -1.
<mgrwt>
<rscale>  0 0.78564341E+02</rscale>
<asrwt>0</asrwt>
<pdfrwt beam="1">  1        2 0.89725121E-01 0.78564341E+02</pdfrwt>
<pdfrwt beam="2">  1       -1 0.40705227E-03 0.78564341E+02</pdfrwt>
<totfact> 0.33445464E+05</totfact>
</mgrwt>
</event>
<event>
 8    1  0.1226832E-024  0.7994158E+02  0.7818608E-02  0.1329217E+00
          2   -1    0    0  501    0  0.00000000000E+00  0.00000000000E+00  0.69565803008E+03  0.69565803008E+03  0.25500000000E-02 0. -1.
         -1   -1    0    0    0  501 -0.00000000000E+00 -0.00000000000E+00 -0.22966198755E+01  0.22966254057E+01  0.50400000000E-02 0.  1.
         24    2    1    2    0    0 -0.17763568394E-14 -0.88817841970E-15  0.69336141020E+03  0.69795465549E+03  0.79941578418E+02 0.  0.
         66    2    3    3    0    0 -0.98428895916E+01 -0.78192163670E+01  0.67793598480E+03  0.67805547126E+03  0.19999995830E+01 0.  0.
        -13    1    3    3    0    0  0.98428895916E+01  0.78192163670E+01  0.15425425405E+02  0.19899184231E+02  0.10566000000E+00 0.  1.
         13    1    4    4    0    0 -0.50676206568E+01 -0.36351484969E+01  0.37409987543E+03  0.37415187163E+03  0.10566000000E+00 0. -1.
        -13    1    4    4    0    0 -0.52333200754E+00 -0.43510232307E+00  0.23100860912E+02  0.23111125661E+02  0.10566000000E+00 0. -1.
        -14    1    4    4    0    0 -0.42519369272E+01 -0.37489655470E+01  0.28073524846E+03  0.28079247397E+03  0.00000000000E+00 0.  1.
<mgrwt>
<rscale>  0 0.79941578E+02</rscale>
<asrwt>0</asrwt>
<pdfrwt beam="1">  1        2 0.10702435E+00 0.79941578E+02</pdfrwt>
<pdfrwt beam="2">  1       -1 0.35332642E-03 0.79941578E+02</pdfrwt>
<totfact> 0.33467370E+05</totfact>
</mgrwt>
</event>
<event>
 8    1  0.1226832E-024  0.7924507E+02  0.7818608E-02  0.1331208E+00
          2   -1    0    0  501    0  0.00000000000E+00  0.00000000000E+00  0.45847250194E+03  0.45847250195E+03  0.25500000000E-02 0. -1.
         -1   -1    0    0    0  501 -0.00000000000E+00 -0.00000000000E+00 -0.34242931006E+01  0.34242968096E+01  0.50400000000E-02 0.  1.
         24    2    1    2    0    0  0.00000000000E+00  0.71054273576E-14  0.45504820884E+03  0.46189679876E+03  0.79245065044E+02 0.  0.
         66    2    3    3    0    0  0.46811147507E+00  0.36364407772E+02  0.31896772699E+03  0.32104049615E+03  0.20000057892E+01 0.  0.
        -13    1    3    3    0    0 -0.46811147507E+00 -0.36364407772E+02  0.13608048185E+03  0.14085630261E+03  0.10566000000E+00 0.  1.
         13    1    4    4    0    0  0.53102534569E+00  0.91284993110E+01  0.78403104751E+02  0.78934589922E+02  0.10566000000E+00 0. -1.
        -13    1    4    4    0    0  0.49645067173E+00  0.60778409899E+01  0.56687335065E+02  0.57014487064E+02  0.10566000000E+00 0.  1.
        -14    1    4    4    0    0 -0.55936454236E+00  0.21158067471E+02  0.18387728718E+03  0.18509141916E+03  0.00000000000E+00 0.  1.
<mgrwt>
<rscale>  0 0.79245065E+02</rscale>
<asrwt>0</asrwt>
<pdfrwt beam="1">  1        2 0.70534259E-01 0.79245065E+02</pdfrwt>
<pdfrwt beam="2">  1       -1 0.52681440E-03 0.79245065E+02</pdfrwt>
<totfact> 0.30343416E+05</totfact>
</mgrwt>
</event>
<event>
 8    1  0.1226832E-024  0.8164273E+02  0.7818608E-02  0.1324453E+00
          2   -1    0    0  501    0  0.00000000000E+00  0.00000000000E+00  0.19997185483E+02  0.19997185645E+02  0.25500000000E-02 0. -1.
         -1   -1    0    0    0  501 -0.00000000000E+00 -0.00000000000E+00 -0.83330914320E+02  0.83330914472E+02  0.50400000000E-02 0.  1.
         24    2    1    2    0    0  0.00000000000E+00  0.17763568394E-14 -0.63333728837E+02  0.10332810012E+03  0.81642728185E+02 0.  0.
         66    2    3    3    0    0 -0.19232763239E+02 -0.10529171095E+02  0.11855984994E+02  0.25006539511E+02  0.20000030936E+01 0.  0.
        -13    1    3    3    0    0  0.19232763239E+02  0.10529171095E+02 -0.75189713832E+02  0.78321560607E+02  0.10566000000E+00 0.  1.
         13    1    4    4    0    0 -0.17044525131E+02 -0.86926903321E+01  0.10702071502E+02  0.21923143037E+02  0.10566000000E+00 0. -1.
        -13    1    4    4    0    0 -0.17461577033E+01 -0.14575755702E+01  0.92886129362E+00  0.24591747815E+01  0.10566000000E+00 0.  1.
         14    1    4    4    0    0 -0.44208040503E+00 -0.37890519249E+00  0.22505219844E+00  0.62422169254E+00  0.00000000000E+00 0. -1.
<mgrwt>
<rscale>  0 0.81642728E+02</rscale>
<asrwt>0</asrwt>
<pdfrwt beam="1">  1        2 0.30764901E-02 0.81642728E+02</pdfrwt>
<pdfrwt beam="2">  1       -1 0.12820141E-01 0.81642728E+02</pdfrwt>
<totfact> 0.11709868E+05</totfact>
</mgrwt>
</event>
<event>
 8    1  0.1226832E-024  0.7986083E+02  0.7818608E-02  0.1329447E+00
         -1   -1    0    0    0  501 -0.00000000000E+00  0.00000000000E+00  0.21161338119E+02  0.21161338719E+02  0.50400000000E-02 0.  1.
          2   -1    0    0  501    0  0.00000000000E+00 -0.00000000000E+00 -0.75346749711E+02  0.75346749754E+02  0.25500000000E-02 0. -1.
         24    2    1    2    0    0  0.71054273576E-14 -0.22204460493E-15 -0.54185411592E+02  0.96508088474E+02  0.79860830896E+02 0.  0.
         66    2    3    3    0    0  0.39396318183E+02 -0.15520695193E+01 -0.34554577167E+02  0.52464250875E+02  0.20000026157E+01 0.  0.
        -13    1    3    3    0    0 -0.39396318183E+02  0.15520695193E+01 -0.19630834424E+02  0.44043837599E+02  0.10566000000E+00 0.  1.
         13    1    4    4    0    0  0.22014430200E+02 -0.17653413165E+00 -0.19404839288E+02  0.29346639555E+02  0.10566000000E+00 0. -1.
        -13    1    4    4    0    0  0.52879247872E+01 -0.34454822437E+00 -0.51659068713E+01  0.74012579926E+01  0.10566000000E+00 0.  1.
        -14    1    4    4    0    0  0.12093963196E+02 -0.10309871633E+01 -0.99838310075E+01  0.15716353327E+02  0.00000000000E+00 0.  1.
<mgrwt>
<rscale>  0 0.79860831E+02</rscale>
<asrwt>0</asrwt>
<pdfrwt beam="1">  1        2 0.11591808E-01 0.79860831E+02</pdfrwt>
<pdfrwt beam="2">  1       -1 0.32555906E-02 0.79860831E+02</pdfrwt>
<totfact> 0.16520984E+05</totfact>
</mgrwt>
</event>
<event>
 8    1  0.1226832E-024  0.7969318E+02  0.7818608E-02  0.1329924E+00
         -1   -1    0    0    0  501 -0.00000000000E+00  0.00000000000E+00  0.17366868590E+02  0.17366869321E+02  0.50400000000E-02 0.  1.
          2   -1    0    0  501    0  0.00000000000E+00 -0.00000000000E+00 -0.91424112897E+02  0.91424112932E+02  0.25500000000E-02 0. -1.
         24    2    1    2    0    0  0.44408920985E-15  0.00000000000E+00 -0.74057244307E+02  0.10879098225E+03  0.79693176530E+02 0.  0.
         66    2    3    3    0    0  0.34625477625E+01  0.23926660638E+02  0.61445308041E+01  0.25024579554E+02  0.19999991873E+01 0.  0.
        -13    1    3    3    0    0 -0.34625477625E+01 -0.23926660638E+02 -0.80201775111E+02  0.83766402700E+02  0.10566000000E+00 0.  1.
         13    1    4    4    0    0  0.18054591164E+01  0.12622253881E+02  0.33764892558E+01  0.13190633775E+02  0.10566000000E+00 0. -1.
        -13    1    4    4    0    0  0.11604616840E+00  0.21289758883E+00 -0.85619207065E-01  0.27800500130E+00  0.10566000000E+00 0.  1.
        -14    1    4    4    0    0  0.15410424777E+01  0.11091509168E+02  0.28536607554E+01  0.11555940777E+02  0.00000000000E+00 0.  1.
<mgrwt>
<rscale>  0 0.79693177E+02</rscale>
<asrwt>0</asrwt>
<pdfrwt beam="1">  1        2 0.14065248E-01 0.79693177E+02</pdfrwt>
<pdfrwt beam="2">  1       -1 0.26718261E-02 0.79693177E+02</pdfrwt>
<totfact> 0.17473123E+05</totfact>
</mgrwt>
</event>
<event>
 8    1  0.1226832E-024  0.7991220E+02  0.7818608E-02  0.1329301E+00
         -1   -1    0    0    0  501 -0.00000000000E+00  0.00000000000E+00  0.11024382305E+03  0.11024382316E+03  0.50400000000E-02 0.  1.
          2   -1    0    0  501    0  0.00000000000E+00 -0.00000000000E+00 -0.14481445903E+02  0.14481446127E+02  0.25500000000E-02 0. -1.
         24    2    1    2    0    0  0.00000000000E+00  0.00000000000E+00  0.95762377147E+02  0.12472526929E+03  0.79912201341E+02 0.  0.
         66    2    3    3    0    0 -0.25128063648E+02  0.71282552905E+01  0.77006138822E+00  0.26207337810E+02  0.19999885902E+01 0.  0.
        -13    1    3    3    0    0  0.25128063648E+02 -0.71282552905E+01  0.94992315759E+02  0.98517931482E+02  0.10566000000E+00 0.  1.
         13    1    4    4    0    0 -0.15071284699E+02  0.47459672614E+01  0.45394435605E+00  0.15807753074E+02  0.10566000000E+00 0. -1.
        -13    1    4    4    0    0 -0.56744390416E+01  0.10465598899E+01 -0.28938802153E+00  0.57783609702E+01  0.10566000000E+00 0.  1.
        -14    1    4    4    0    0 -0.43823399074E+01  0.13357281393E+01  0.60550505370E+00  0.46212237660E+01  0.00000000000E+00 0.  1.
<mgrwt>
<rscale>  0 0.79912201E+02</rscale>
<asrwt>0</asrwt>
<pdfrwt beam="1">  1        2 0.22279149E-02 0.79912201E+02</pdfrwt>
<pdfrwt beam="2">  1       -1 0.16960588E-01 0.79912201E+02</pdfrwt>
<totfact> 0.11635840E+05</totfact>
</mgrwt>
</event>
<event>
 8    1  0.1226832E-024  0.8004865E+02  0.7818608E-02  0.1328913E+00
          2   -1    0    0  501    0  0.00000000000E+00  0.00000000000E+00  0.16964832198E+04  0.16964832198E+04  0.25500000000E-02 0. -1.
         -1   -1    0    0    0  501 -0.00000000000E+00 -0.00000000000E+00 -0.94426831137E+00  0.94428176169E+00  0.50400000000E-02 0.  1.
         24    2    1    2    0    0  0.17763568394E-14  0.00000000000E+00  0.16955389515E+04  0.16974275016E+04  0.80048654263E+02 0.  0.
         66    2    3    3    0    0  0.13458584631E+02 -0.23714362747E+01  0.16454409615E+04  0.16454989258E+04  0.19999992627E+01 0.  0.
        -13    1    3    3    0    0 -0.13458584631E+02  0.23714362747E+01  0.50097990009E+02  0.51928575729E+02  0.10566000000E+00 0.  1.
         13    1    4    4    0    0  0.34781186790E+01 -0.77046582618E+00  0.37721771807E+03  0.37723455425E+03  0.10566000000E+00 0.  1.
        -13    1    4    4    0    0  0.57723173650E+01 -0.13420409148E+01  0.81291146893E+03  0.81293307732E+03  0.10566000000E+00 0. -1.
        -14    1    4    4    0    0  0.42081485872E+01 -0.25892953376E+00  0.45531177448E+03  0.45533129427E+03  0.00000000000E+00 0.  1.
<mgrwt>
<rscale>  0 0.80048654E+02</rscale>
<asrwt>0</asrwt>
<pdfrwt beam="1">  1        2 0.26099656E+00 0.80048654E+02</pdfrwt>
<pdfrwt beam="2">  1       -1 0.14527356E-03 0.80048654E+02</pdfrwt>
<totfact> 0.31322683E+05</totfact>
</mgrwt>
</event>
<event>
 8    1  0.1226832E-024  0.7974791E+02  0.7818608E-02  0.1329768E+00
          2   -1    0    0  501    0  0.00000000000E+00  0.00000000000E+00  0.61534094105E+03  0.61534094106E+03  0.25500000000E-02 0. -1.
         -1   -1    0    0    0  501 -0.00000000000E+00 -0.00000000000E+00 -0.25838206535E+01  0.25838255690E+01  0.50400000000E-02 0.  1.
         24    2    1    2    0    0  0.35527136788E-14  0.35527136788E-14  0.61275712040E+03  0.61792476662E+03  0.79747906625E+02 0.  0.
         66    2    3    3    0    0 -0.25519638308E+02 -0.19917929109E+02  0.48662092996E+03  0.48770063084E+03  0.20000013452E+01 0.  0.
        -13    1    3    3    0    0  0.25519638308E+02  0.19917929109E+02  0.12613619044E+03  0.13022413579E+03  0.10566000000E+00 0.  1.
         13    1    4    4    0    0 -0.34408562863E+01 -0.31514253943E+01  0.72210320064E+02  0.72360987153E+02  0.10566000000E+00 0. -1.
        -13    1    4    4    0    0 -0.16729883736E+02 -0.13382820285E+02  0.31493359900E+03  0.31566148297E+03  0.10566000000E+00 0.  1.
        -14    1    4    4    0    0 -0.53488982861E+01 -0.33836834299E+01  0.99477010895E+02  0.99678160712E+02  0.00000000000E+00 0.  1.
<mgrwt>
<rscale>  0 0.79747907E+02</rscale>
<asrwt>0</asrwt>
<pdfrwt beam="1">  1        2 0.94667933E-01 0.79747907E+02</pdfrwt>
<pdfrwt beam="2">  1       -1 0.39751085E-03 0.79747907E+02</pdfrwt>
<totfact> 0.32654411E+05</totfact>
</mgrwt>
</event>
<event>
 8    1  0.1226832E-024  0.7990109E+02  0.7818608E-02  0.1329332E+00
         -1   -1    0    0    0  501 -0.00000000000E+00  0.00000000000E+00  0.37554525357E+01  0.37554559176E+01  0.50400000000E-02 0.  1.
          2   -1    0    0  501    0  0.00000000000E+00 -0.00000000000E+00 -0.42499413990E+03  0.42499413991E+03  0.25500000000E-02 0. -1.
         24    2    1    2    0    0  0.35527136788E-14  0.00000000000E+00 -0.42123868736E+03  0.42874959582E+03  0.79901090030E+02 0.  0.
         66    2    3    3    0    0  0.26762153846E+02  0.24863955549E+02 -0.29721056159E+03  0.29945374782E+03  0.19999998101E+01 0.  0.
        -13    1    3    3    0    0 -0.26762153846E+02 -0.24863955549E+02 -0.12402812577E+03  0.12929584800E+03  0.10566000000E+00 0.  1.
         13    1    4    4    0    0  0.10473726596E+02  0.90922634178E+01 -0.11129938819E+03  0.11216030125E+03  0.10566000000E+00 0. -1.
        -13    1    4    4    0    0  0.53861118867E+01  0.49597740600E+01 -0.55222748164E+02  0.55706127480E+02  0.10566000000E+00 0.  1.
        -14    1    4    4    0    0  0.10902315363E+02  0.10811918071E+02 -0.13068842524E+03  0.13158731909E+03  0.00000000000E+00 0.  1.
<mgrwt>
<rscale>  0 0.79901090E+02</rscale>
<asrwt>0</asrwt>
<pdfrwt beam="1">  1        2 0.65383676E-01 0.79901090E+02</pdfrwt>
<pdfrwt beam="2">  1       -1 0.57776253E-03 0.79901090E+02</pdfrwt>
<totfact> 0.28946409E+05</totfact>
</mgrwt>
</event>
<event>
 8    1  0.1226832E-024  0.8019676E+02  0.7818608E-02  0.1328494E+00
         -1   -1    0    0    0  501 -0.00000000000E+00  0.00000000000E+00  0.25414892784E+01  0.25414942758E+01  0.50400000000E-02 0.  1.
          2   -1    0    0  501    0  0.00000000000E+00 -0.00000000000E+00 -0.63265204197E+03  0.63265204197E+03  0.25500000000E-02 0. -1.
         24    2    1    2    0    0 -0.17763568394E-14  0.17763568394E-14 -0.63011055269E+03  0.63519353625E+03  0.80196757302E+02 0.  0.
         66    2    3    3    0    0  0.12041807982E+02 -0.89309248475E+01 -0.60960007251E+03  0.60978768024E+03  0.20000039477E+01 0.  0.
        -13    1    3    3    0    0 -0.12041807982E+02  0.89309248475E+01 -0.20510480183E+02  0.25405856007E+02  0.10566000000E+00 0.  1.
         13    1    4    4    0    0  0.13662319715E+01 -0.16986532662E+01 -0.88863734706E+02  0.88890531119E+02  0.10566000000E+00 0. -1.
        -13    1    4    4    0    0  0.10373713864E+02 -0.68073109663E+01 -0.50386700197E+03  0.50401976177E+03  0.10566000000E+00 0.  1.
        -14    1    4    4    0    0  0.30186214688E+00 -0.42496061506E+00 -0.16869335832E+02  0.16877387348E+02  0.00000000000E+00 0.  1.
<mgrwt>
<rscale>  0 0.80196757E+02</rscale>
<asrwt>0</asrwt>
<pdfrwt beam="1">  1        2 0.97330958E-01 0.80196757E+02</pdfrwt>
<pdfrwt beam="2">  1       -1 0.39099924E-03 0.80196757E+02</pdfrwt>
<totfact> 0.32420391E+05</totfact>
</mgrwt>
</event>
<event>
 8    1  0.1226832E-024  0.7930441E+02  0.7818608E-02  0.1331037E+00
         -1   -1    0    0    0  501 -0.00000000000E+00  0.00000000000E+00  0.70643784632E+01  0.70643802611E+01  0.50400000000E-02 0.  1.
          2   -1    0    0  501    0  0.00000000000E+00 -0.00000000000E+00 -0.22256694748E+03  0.22256694749E+03  0.25500000000E-02 0. -1.
         24    2    1    2    0    0  0.00000000000E+00  0.00000000000E+00 -0.21550256901E+03  0.22963132775E+03  0.79304409927E+02 0.  0.
         66    2    3    3    0    0  0.16793564471E+02 -0.21147711809E+02 -0.19179324284E+03  0.19369537314E+03  0.20000135336E+01 0.  0.
        -13    1    3    3    0    0 -0.16793564471E+02  0.21147711809E+02 -0.23709326176E+02  0.35935954616E+02  0.10566000000E+00 0.  1.
         13    1    4    4    0    0  0.13212323503E+01 -0.25906771862E+01 -0.20740740227E+02  0.20943894872E+02  0.10566000000E+00 0. -1.
        -13    1    4    4    0    0  0.13204915441E+01 -0.15106283143E+01 -0.15117706505E+02  0.15250636374E+02  0.10566000000E+00 0.  1.
         14    1    4    4    0    0  0.14151840577E+02 -0.17046406308E+02 -0.15593479610E+03  0.15750084189E+03  0.00000000000E+00 0. -1.
<mgrwt>
<rscale>  0 0.79304410E+02</rscale>
<asrwt>0</asrwt>
<pdfrwt beam="1">  1        2 0.34241064E-01 0.79304410E+02</pdfrwt>
<pdfrwt beam="2">  1       -1 0.10868278E-02 0.79304410E+02</pdfrwt>
<totfact> 0.23433467E+05</totfact>
</mgrwt>
</event>
<event>
 8    1  0.1226832E-024  0.7543783E+02  0.7818608E-02  0.1342521E+00
         -1   -1    0    0    0  501 -0.00000000000E+00  0.00000000000E+00  0.18324929642E+03  0.18324929649E+03  0.50400000000E-02 0.  1.
          2   -1    0    0  501    0  0.00000000000E+00 -0.00000000000E+00 -0.77638310366E+01  0.77638314554E+01  0.25500000000E-02 0. -1.
         24    2    1    2    0    0  0.71054273576E-14  0.88817841970E-15  0.17548546539E+03  0.19101312795E+03  0.75437831932E+02 0.  0.
         66    2    3    3    0    0  0.37000226875E+02  0.43785225250E+01  0.73364045659E+02  0.82307176963E+02  0.19999839768E+01 0.  0.
        -13    1    3    3    0    0 -0.37000226875E+02 -0.43785225250E+01  0.10212141973E+03  0.10870595099E+03  0.10566000000E+00 0.  1.
         13    1    4    4    0    0  0.26394270531E+01  0.34568856792E+00  0.50291551581E+01  0.56911898048E+01  0.10566000000E+00 0. -1.
        -13    1    4    4    0    0  0.34273196712E+01  0.75218543656E+00  0.79166581178E+01  0.86600775314E+01  0.10566000000E+00 0.  1.
        -14    1    4    4    0    0  0.30933480150E+02  0.32806485205E+01  0.60418232383E+02  0.67955909627E+02  0.00000000000E+00 0.  1.
<mgrwt>
<rscale>  0 0.75437832E+02</rscale>
<asrwt>0</asrwt>
<pdfrwt beam="1">  1        2 0.11944356E-02 0.75437832E+02</pdfrwt>
<pdfrwt beam="2">  1       -1 0.28192198E-01 0.75437832E+02</pdfrwt>
<totfact> 0.11862395E+05</totfact>
</mgrwt>
</event>
<event>
 8    1  0.1226832E-024  0.8074783E+02  0.7818608E-02  0.1326943E+00
          2   -1    0    0  501    0  0.00000000000E+00  0.00000000000E+00  0.60513177237E+02  0.60513177291E+02  0.25500000000E-02 0. -1.
         -1   -1    0    0    0  501 -0.00000000000E+00 -0.00000000000E+00 -0.26937155804E+02  0.26937156275E+02  0.50400000000E-02 0.  1.
         24    2    1    2    0    0 -0.35527136788E-14  0.00000000000E+00  0.33576021433E+02  0.87450333566E+02  0.80747827374E+02 0.  0.
         66    2    3    3    0    0  0.28824951204E+02 -0.27210736933E+02  0.24956548487E+02  0.46884233258E+02  0.19999998659E+01 0.  0.
        -13    1    3    3    0    0 -0.28824951204E+02  0.27210736933E+02  0.86194729465E+01  0.40566100309E+02  0.10566000000E+00 0.  1.
         13    1    4    4    0    0  0.78980958279E+01 -0.74020011498E+01  0.64815178013E+01  0.12617082697E+02  0.10566000000E+00 0. -1.
        -13    1    4    4    0    0  0.59842847613E+01 -0.48989476704E+01  0.54783234682E+01  0.94781086952E+01  0.10566000000E+00 0.  1.
         14    1    4    4    0    0  0.14942570614E+02 -0.14909788113E+02  0.12996707217E+02  0.24789041866E+02  0.00000000000E+00 0. -1.
<mgrwt>
<rscale>  0 0.80747827E+02</rscale>
<asrwt>0</asrwt>
<pdfrwt beam="1">  1        2 0.93097194E-02 0.80747827E+02</pdfrwt>
<pdfrwt beam="2">  1       -1 0.41441779E-02 0.80747827E+02</pdfrwt>
<totfact> 0.15206889E+05</totfact>
</mgrwt>
</event>
<event>
 8    1  0.1226832E-024  0.8377384E+02  0.7818608E-02  0.1318671E+00
          2   -1    0    0  501    0  0.00000000000E+00  0.00000000000E+00  0.52053297235E+03  0.52053297236E+03  0.25500000000E-02 0. -1.
         -1   -1    0    0    0  501 -0.00000000000E+00 -0.00000000000E+00 -0.33706088313E+01  0.33706125994E+01  0.50400000000E-02 0.  1.
         24    2    1    2    0    0 -0.71054273576E-14 -0.17763568394E-14  0.51716236352E+03  0.52390358496E+03  0.83773838930E+02 0.  0.
         66    2    3    3    0    0 -0.38648535201E+02 -0.93998216350E+01  0.34037372585E+03  0.34269569470E+03  0.19999983609E+01 0.  0.
        -13    1    3    3    0    0  0.38648535201E+02  0.93998216350E+01  0.17678863767E+03  0.18120789026E+03  0.10566000000E+00 0.  1.
         13    1    4    4    0    0 -0.11326281386E+02 -0.27518182883E+01  0.10323802218E+03  0.10389397260E+03  0.10566000000E+00 0. -1.
        -13    1    4    4    0    0 -0.12844144683E+02 -0.23984924466E+01  0.11189805691E+03  0.11265838240E+03  0.10566000000E+00 0.  1.
        -14    1    4    4    0    0 -0.14478109132E+02 -0.42495109000E+01  0.12523764675E+03  0.12614333970E+03  0.00000000000E+00 0.  1.
<mgrwt>
<rscale>  0 0.83773839E+02</rscale>
<asrwt>0</asrwt>
<pdfrwt beam="1">  1        2 0.80081996E-01 0.83773839E+02</pdfrwt>
<pdfrwt beam="2">  1       -1 0.51855550E-03 0.83773839E+02</pdfrwt>
<totfact> 0.27342516E+05</totfact>
</mgrwt>
</event>
<event>
 8    1  0.1226832E-024  0.8005982E+02  0.7818608E-02  0.1328882E+00
         -1   -1    0    0    0  501 -0.00000000000E+00  0.00000000000E+00  0.12798465169E+02  0.12798466161E+02  0.50400000000E-02 0.  1.
          2   -1    0    0  501    0  0.00000000000E+00 -0.00000000000E+00 -0.12520201410E+03  0.12520201412E+03  0.25500000000E-02 0. -1.
         24    2    1    2    0    0  0.35527136788E-14 -0.35527136788E-14 -0.11240354893E+03  0.13800048028E+03  0.80059819804E+02 0.  0.
         66    2    3    3    0    0 -0.18209629007E+02 -0.18768439317E+02 -0.10842138002E+03  0.11154837760E+03  0.19999993086E+01 0.  0.
        -13    1    3    3    0    0  0.18209629007E+02  0.18768439317E+02 -0.39821689057E+01  0.26452102680E+02  0.10566000000E+00 0.  1.
         13    1    4    4    0    0 -0.13760997700E+02 -0.14199439040E+02 -0.85148201681E+02  0.87414052305E+02  0.10566000000E+00 0. -1.
        -13    1    4    4    0    0 -0.14059679453E+01 -0.13560696548E+01 -0.77095030973E+01  0.79538212713E+01  0.10566000000E+00 0.  1.
        -14    1    4    4    0    0 -0.30426633621E+01 -0.32129306220E+01 -0.15563675242E+02  0.16180504027E+02  0.00000000000E+00 0.  1.
<mgrwt>
<rscale>  0 0.80059820E+02</rscale>
<asrwt>0</asrwt>
<pdfrwt beam="1">  1        2 0.19261848E-01 0.80059820E+02</pdfrwt>
<pdfrwt beam="2">  1       -1 0.19689948E-02 0.80059820E+02</pdfrwt>
<totfact> 0.18889730E+05</totfact>
</mgrwt>
</event>
<event>
 8    1  0.1226832E-024  0.8018689E+02  0.7818608E-02  0.1328522E+00
          2   -1    0    0  501    0  0.00000000000E+00  0.00000000000E+00  0.48459943469E+03  0.48459943469E+03  0.25500000000E-02 0. -1.
         -1   -1    0    0    0  501 -0.00000000000E+00 -0.00000000000E+00 -0.33171387178E+01  0.33171425466E+01  0.50400000000E-02 0.  1.
         24    2    1    2    0    0  0.00000000000E+00  0.00000000000E+00  0.48128229597E+03  0.48791657724E+03  0.80186893770E+02 0.  0.
         66    2    3    3    0    0 -0.37432636610E+02  0.14278941376E+02  0.24458576014E+03  0.24785335289E+03  0.20000056448E+01 0.  0.
        -13    1    3    3    0    0  0.37432636610E+02 -0.14278941376E+02  0.23669653583E+03  0.24006322435E+03  0.10566000000E+00 0.  1.
         13    1    4    4    0    0 -0.24080651456E+02  0.86570668448E+01  0.15870578688E+03  0.16075559254E+03  0.10566000000E+00 0. -1.
        -13    1    4    4    0    0 -0.23542477877E+00  0.14807036628E+00  0.20466296588E+01  0.20681408694E+01  0.10566000000E+00 0. -1.
        -14    1    4    4    0    0 -0.13116560375E+02  0.54738041654E+01  0.83833343607E+02  0.85029619478E+02  0.00000000000E+00 0.  1.
<mgrwt>
<rscale>  0 0.80186894E+02</rscale>
<asrwt>0</asrwt>
<pdfrwt beam="1">  1        2 0.74553740E-01 0.80186894E+02</pdfrwt>
<pdfrwt beam="2">  1       -1 0.51032946E-03 0.80186894E+02</pdfrwt>
<totfact> 0.29963795E+05</totfact>
</mgrwt>
</event>
<event>
 8    1  0.1226832E-024  0.7977531E+02  0.7818608E-02  0.1329690E+00
         -1   -1    0    0    0  501 -0.00000000000E+00  0.00000000000E+00  0.50967114063E+01  0.50967138983E+01  0.50400000000E-02 0.  1.
          2   -1    0    0  501    0  0.00000000000E+00 -0.00000000000E+00 -0.31216686832E+03  0.31216686833E+03  0.25500000000E-02 0. -1.
         24    2    1    2    0    0  0.17763568394E-14 -0.35527136788E-14 -0.30707015691E+03  0.31726358223E+03  0.79775305337E+02 0.  0.
         66    2    3    3    0    0  0.88633332807E+01 -0.24232357308E+02 -0.27447176766E+03  0.27568916746E+03  0.19999983435E+01 0.  0.
        -13    1    3    3    0    0 -0.88633332807E+01  0.24232357308E+02 -0.32598389252E+02  0.41574414769E+02  0.10566000000E+00 0.  1.
         13    1    4    4    0    0  0.51878677615E+01 -0.11384653139E+02 -0.13124746603E+03  0.13184245448E+03  0.10566000000E+00 0. -1.
        -13    1    4    4    0    0  0.17300178872E+01 -0.60593674887E+01 -0.69064960821E+02  0.69351920475E+02  0.10566000000E+00 0.  1.
         14    1    4    4    0    0  0.19454476320E+01 -0.67883366803E+01 -0.74159340812E+02  0.74494792509E+02  0.00000000000E+00 0. -1.
<mgrwt>
<rscale>  0 0.79775305E+02</rscale>
<asrwt>0</asrwt>
<pdfrwt beam="1">  1        2 0.48025657E-01 0.79775305E+02</pdfrwt>
<pdfrwt beam="2">  1       -1 0.78410989E-03 0.79775305E+02</pdfrwt>
<totfact> 0.26055069E+05</totfact>
</mgrwt>
</event>
<event>
 8    1  0.1226832E-024  0.7905218E+02  0.7818608E-02  0.1331763E+00
         -1   -1    0    0    0  501 -0.00000000000E+00  0.00000000000E+00  0.74534012364E+00  0.74535716372E+00  0.50400000000E-02 0.  1.
          2   -1    0    0  501    0  0.00000000000E+00 -0.00000000000E+00 -0.20960819163E+04  0.20960819163E+04  0.25500000000E-02 0. -1.
         24    2    1    2    0    0  0.00000000000E+00 -0.44408920985E-15 -0.20953365762E+04  0.20968272734E+04  0.79052180775E+02 0.  0.
         66    2    3    3    0    0  0.14506615990E+02 -0.20970945466E+01 -0.20212754243E+04  0.20213295577E+04  0.20000014213E+01 0.  0.
        -13    1    3    3    0    0 -0.14506615990E+02  0.20970945466E+01 -0.74061151804E+02  0.75497715751E+02  0.10566000000E+00 0.  1.
         13    1    4    4    0    0  0.16214369599E+01 -0.73562271770E-01 -0.29964957960E+03  0.29965399411E+03  0.10566000000E+00 0. -1.
        -13    1    4    4    0    0  0.11442856438E+01  0.69788768243E-02 -0.12664212184E+03  0.12664733565E+03  0.10566000000E+00 0.  1.
         14    1    4    4    0    0  0.11740893386E+02 -0.20305111516E+01 -0.15949837229E+04  0.15950282279E+04  0.00000000000E+00 0. -1.
<mgrwt>
<rscale>  0 0.79052181E+02</rscale>
<asrwt>0</asrwt>
<pdfrwt beam="1">  1        2 0.32246942E+00 0.79052181E+02</pdfrwt>
<pdfrwt beam="2">  1       -1 0.11467070E-03 0.79052181E+02</pdfrwt>
<totfact> 0.27340970E+05</totfact>
</mgrwt>
</event>
<event>
 8    1  0.1226832E-024  0.7861440E+02  0.7818608E-02  0.1333030E+00
         -1   -1    0    0    0  501 -0.00000000000E+00  0.00000000000E+00  0.46744935131E+02  0.46744935402E+02  0.50400000000E-02 0.  1.
          2   -1    0    0  501    0  0.00000000000E+00 -0.00000000000E+00 -0.33052906570E+02  0.33052906669E+02  0.25500000000E-02 0. -1.
         24    2    1    2    0    0  0.00000000000E+00 -0.88817841970E-15  0.13692028560E+02  0.79797842071E+02  0.78614400418E+02 0.  0.
         66    2    3    3    0    0 -0.38651924462E+02  0.69925209368E+01  0.64145094033E+01  0.39849875129E+02  0.20000008132E+01 0.  0.
        -13    1    3    3    0    0  0.38651924462E+02 -0.69925209368E+01  0.72775191570E+01  0.39947966942E+02  0.10566000000E+00 0.  1.
         13    1    4    4    0    0 -0.95366459061E+01  0.16992068603E+01  0.97044949193E+00  0.97359054712E+01  0.10566000000E+00 0.  1.
        -13    1    4    4    0    0 -0.26996687700E+02  0.45981371963E+01  0.49329913614E+01  0.27826418746E+02  0.10566000000E+00 0. -1.
         14    1    4    4    0    0 -0.21185908558E+01  0.69517688031E+00  0.51106854997E+00  0.22875509114E+01  0.00000000000E+00 0. -1.
<mgrwt>
<rscale>  0 0.78614400E+02</rscale>
<asrwt>0</asrwt>
<pdfrwt beam="1">  1        2 0.50850626E-02 0.78614400E+02</pdfrwt>
<pdfrwt beam="2">  1       -1 0.71915285E-02 0.78614400E+02</pdfrwt>
<totfact> 0.14400122E+05</totfact>
</mgrwt>
</event>
<event>
 8    1  0.1226832E-024  0.7686864E+02  0.7818608E-02  0.1338180E+00
         -1   -1    0    0    0  501 -0.00000000000E+00  0.00000000000E+00  0.11784726050E+03  0.11784726061E+03  0.50400000000E-02 0.  1.
          2   -1    0    0  501    0  0.00000000000E+00 -0.00000000000E+00 -0.12534842158E+02  0.12534842417E+02  0.25500000000E-02 0. -1.
         24    2    1    2    0    0  0.88817841970E-15  0.00000000000E+00  0.10531241835E+03  0.13038210303E+03  0.76868636858E+02 0.  0.
         66    2    3    3    0    0  0.43001219446E+01  0.19186848304E+02 -0.32706186276E+01  0.20033051021E+02  0.19999976132E+01 0.  0.
        -13    1    3    3    0    0 -0.43001219446E+01 -0.19186848304E+02  0.10858303697E+03  0.11034905201E+03  0.10566000000E+00 0.  1.
         13    1    4    4    0    0  0.24369874379E+01  0.11423169859E+02 -0.18393380122E+01  0.11824637235E+02  0.10566000000E+00 0. -1.
        -13    1    4    4    0    0  0.10026385082E+01  0.57559684370E+01 -0.14625704845E+01  0.60238470336E+01  0.10566000000E+00 0.  1.
         14    1    4    4    0    0  0.86049599853E+00  0.20077100080E+01  0.31289869056E-01  0.21845667524E+01  0.00000000000E+00 0. -1.
<mgrwt>
<rscale>  0 0.76868637E+02</rscale>
<asrwt>0</asrwt>
<pdfrwt beam="1">  1        2 0.19284373E-02 0.76868637E+02</pdfrwt>
<pdfrwt beam="2">  1       -1 0.18130347E-01 0.76868637E+02</pdfrwt>
<totfact> 0.12635505E+05</totfact>
</mgrwt>
</event>
<event>
 8    1  0.1425735E-024  0.7898267E+02  0.7818608E-02  0.1331963E+00
         -1   -1    0    0    0  501 -0.00000000000E+00  0.00000000000E+00  0.30009919965E+01  0.30009962287E+01  0.50400000000E-02 0.  1.
          2   -1    0    0  501    0  0.00000000000E+00 -0.00000000000E+00 -0.51968301204E+03  0.51968301205E+03  0.25500000000E-02 0. -1.
         24    2    1    2    0    0  0.00000000000E+00  0.00000000000E+00 -0.51668202004E+03  0.52268400828E+03  0.78982673228E+02 0.  0.
         66    2    3    3    0    0  0.24868991314E+02 -0.29287971802E+02 -0.31817892653E+03  0.32049661669E+03  0.19999987014E+01 0.  0.
        -13    1    3    3    0    0 -0.24868991314E+02  0.29287971802E+02 -0.19850309351E+03  0.20218739159E+03  0.10566000000E+00 0.  1.
         13    1    4    4    0    0  0.14061101106E+02 -0.16576307680E+02 -0.18181862834E+03  0.18311338923E+03  0.10566000000E+00 0. -1.
        -13    1    4    4    0    0  0.28966291239E+01 -0.41789141819E+01 -0.43911962574E+02  0.44205490668E+02  0.10566000000E+00 0.  1.
        -14    1    4    4    0    0  0.79112610841E+01 -0.85327499399E+01 -0.92448335621E+02  0.93177736786E+02  0.00000000000E+00 0.  1.
<mgrwt>
<rscale>  0 0.78982673E+02</rscale>
<asrwt>0</asrwt>
<pdfrwt beam="1">  1        2 0.79951161E-01 0.78982673E+02</pdfrwt>
<pdfrwt beam="2">  1       -1 0.46169182E-03 0.78982673E+02</pdfrwt>
<totfact> 0.31868404E+05</totfact>
</mgrwt>
</event>
<event>
 8    1  0.1226832E-024  0.7984393E+02  0.7818608E-02  0.1329495E+00
         -1   -1    0    0    0  501 -0.00000000000E+00  0.00000000000E+00  0.30160026327E+02  0.30160026748E+02  0.50400000000E-02 0.  1.
          2   -1    0    0  501    0  0.00000000000E+00 -0.00000000000E+00 -0.52843566245E+02  0.52843566306E+02  0.25500000000E-02 0. -1.
         24    2    1    2    0    0  0.00000000000E+00  0.00000000000E+00 -0.22683539918E+02  0.83003593055E+02  0.79843931997E+02 0.  0.
         66    2    3    3    0    0 -0.37697409764E+02 -0.11381374679E+02 -0.46819676286E+01  0.39705808337E+02  0.20000005889E+01 0.  0.
        -13    1    3    3    0    0  0.37697409764E+02  0.11381374679E+02 -0.18001572289E+02  0.43297784717E+02  0.10566000000E+00 0.  1.
         13    1    4    4    0    0 -0.19389918027E+02 -0.54625705860E+01 -0.30268749425E+01  0.20371100472E+02  0.10566000000E+00 0. -1.
        -13    1    4    4    0    0 -0.15064457775E+02 -0.45734697600E+01 -0.11248399664E+01  0.15783882370E+02  0.10566000000E+00 0.  1.
        -14    1    4    4    0    0 -0.32430339625E+01 -0.13453343334E+01 -0.53025271971E+00  0.35508254952E+01  0.00000000000E+00 0.  1.
<mgrwt>
<rscale>  0 0.79843932E+02</rscale>
<asrwt>0</asrwt>
<pdfrwt beam="1">  1        2 0.81297795E-02 0.79843932E+02</pdfrwt>
<pdfrwt beam="2">  1       -1 0.46400041E-02 0.79843932E+02</pdfrwt>
<totfact> 0.15206495E+05</totfact>
</mgrwt>
</event>
<event>
 8    1  0.1226832E-024  0.7735239E+02  0.7818608E-02  0.1336737E+00
         -1   -1    0    0    0  501 -0.00000000000E+00  0.00000000000E+00  0.16814360488E+02  0.16814361243E+02  0.50400000000E-02 0.  1.
          2   -1    0    0  501    0  0.00000000000E+00 -0.00000000000E+00 -0.88962519555E+02  0.88962519591E+02  0.25500000000E-02 0. -1.
         24    2    1    2    0    0  0.00000000000E+00  0.00000000000E+00 -0.72148159066E+02  0.10577688083E+03  0.77352386275E+02 0.  0.
         66    2    3    3    0    0 -0.32992834619E+02 -0.14511746988E+02 -0.55180307237E+02  0.65939246661E+02  0.20000016530E+01 0.  0.
        -13    1    3    3    0    0  0.32992834619E+02  0.14511746988E+02 -0.16967851829E+02  0.39837634173E+02  0.10566000000E+00 0.  1.
         13    1    4    4    0    0 -0.18145420710E+02 -0.81249363472E+01 -0.30099133221E+02  0.36072702534E+02  0.10566000000E+00 0. -1.
        -13    1    4    4    0    0 -0.11513363260E+02 -0.46823569503E+01 -0.20142670610E+02  0.23668974281E+02  0.10566000000E+00 0.  1.
        -14    1    4    4    0    0 -0.33340506484E+01 -0.17044536901E+01 -0.49385034066E+01  0.61975698467E+01  0.00000000000E+00 0.  1.
<mgrwt>
<rscale>  0 0.77352386E+02</rscale>
<asrwt>0</asrwt>
<pdfrwt beam="1">  1        2 0.13686541E-01 0.77352386E+02</pdfrwt>
<pdfrwt beam="2">  1       -1 0.25868248E-02 0.77352386E+02</pdfrwt>
<totfact> 0.18788719E+05</totfact>
</mgrwt>
</event>
<event>
 8    1  0.1226832E-024  0.8398886E+02  0.7818608E-02  0.1318098E+00
          2   -1    0    0  501    0  0.00000000000E+00  0.00000000000E+00  0.50731863353E+02  0.50731863418E+02  0.25500000000E-02 0. -1.
         -1   -1    0    0    0  501 -0.00000000000E+00 -0.00000000000E+00 -0.34761828481E+02  0.34761828846E+02  0.50400000000E-02 0.  1.
         24    2    1    2    0    0 -0.88817841970E-15  0.00000000000E+00  0.15970034872E+02  0.85493692264E+02  0.83988864756E+02 0.  0.
         66    2    3    3    0    0  0.61090149270E+01  0.37661217563E+02  0.25791150518E+02  0.46096321181E+02  0.20000024320E+01 0.  0.
        -13    1    3    3    0    0 -0.61090149270E+01 -0.37661217563E+02 -0.98211156453E+01  0.39397371083E+02  0.10566000000E+00 0.  1.
         13    1    4    4    0    0  0.71354673881E+00  0.37787806278E+01  0.22621897436E+01  0.44628464519E+01  0.10566000000E+00 0. -1.
        -13    1    4    4    0    0  0.15221741270E+00  0.38254797818E+01  0.23737517686E+01  0.45059213482E+01  0.10566000000E+00 0.  1.
        -14    1    4    4    0    0  0.52432507755E+01  0.30056957153E+02  0.21155209006E+02  0.37127553381E+02  0.00000000000E+00 0.  1.
<mgrwt>
<rscale>  0 0.83988865E+02</rscale>
<asrwt>0</asrwt>
<pdfrwt beam="1">  1        2 0.78049020E-02 0.83988865E+02</pdfrwt>
<pdfrwt beam="2">  1       -1 0.53479737E-02 0.83988865E+02</pdfrwt>
<totfact> 0.13114715E+05</totfact>
</mgrwt>
</event>
<event>
 8    1  0.1226832E-024  0.7964426E+02  0.7818608E-02  0.1330064E+00
         -1   -1    0    0    0  501 -0.00000000000E+00  0.00000000000E+00  0.71394901046E+01  0.71394918835E+01  0.50400000000E-02 0.  1.
          2   -1    0    0  501    0  0.00000000000E+00 -0.00000000000E+00 -0.22211698536E+03  0.22211698537E+03  0.25500000000E-02 0. -1.
         24    2    1    2    0    0 -0.35527136788E-14  0.00000000000E+00 -0.21497749525E+03  0.22925647725E+03  0.79644264692E+02 0.  0.
         66    2    3    3    0    0 -0.16336040341E+02 -0.17964020445E+02 -0.19831946809E+03  0.19981036923E+03  0.19999965149E+01 0.  0.
        -13    1    3    3    0    0  0.16336040341E+02  0.17964020445E+02 -0.16658027165E+02  0.29446108022E+02  0.10566000000E+00 0.  1.
         13    1    4    4    0    0 -0.12794188867E+02 -0.13329836930E+02 -0.15009377068E+03  0.15122674030E+03  0.10566000000E+00 0. -1.
        -13    1    4    4    0    0 -0.66468882957E+00 -0.10833760514E+01 -0.83401449161E+01  0.84371023560E+01  0.10566000000E+00 0.  1.
        -14    1    4    4    0    0 -0.28771626441E+01 -0.35508074634E+01 -0.39885552489E+02  0.40146526573E+02  0.00000000000E+00 0.  1.
<mgrwt>
<rscale>  0 0.79644265E+02</rscale>
<asrwt>0</asrwt>
<pdfrwt beam="1">  1        2 0.34171839E-01 0.79644265E+02</pdfrwt>
<pdfrwt beam="2">  1       -1 0.10983834E-02 0.79644265E+02</pdfrwt>
<totfact> 0.23154630E+05</totfact>
</mgrwt>
</event>
<event>
 8    1  0.1226832E-024  0.7897056E+02  0.7818608E-02  0.1331998E+00
          2   -1    0    0  501    0  0.00000000000E+00  0.00000000000E+00  0.24541698095E+02  0.24541698228E+02  0.25500000000E-02 0. -1.
         -1   -1    0    0    0  501 -0.00000000000E+00 -0.00000000000E+00 -0.63528092336E+02  0.63528092536E+02  0.50400000000E-02 0.  1.
         24    2    1    2    0    0  0.00000000000E+00  0.00000000000E+00 -0.38986394241E+02  0.88069790764E+02  0.78970558497E+02 0.  0.
         66    2    3    3    0    0  0.16279590592E+02 -0.35942529798E+02 -0.19994095483E+02  0.44279277017E+02  0.20000002055E+01 0.  0.
        -13    1    3    3    0    0 -0.16279590592E+02  0.35942529798E+02 -0.18992298758E+02  0.43790513747E+02  0.10566000000E+00 0.  1.
         13    1    4    4    0    0  0.10588562621E+02 -0.22704537656E+02 -0.12702056459E+02  0.28088558007E+02  0.10566000000E+00 0. -1.
        -13    1    4    4    0    0  0.88954601080E+00 -0.14199151178E+01 -0.57883756574E+00  0.17758569791E+01  0.10566000000E+00 0.  1.
         14    1    4    4    0    0  0.48014819601E+01 -0.11818077024E+02 -0.67132014581E+01  0.14414862031E+02  0.00000000000E+00 0. -1.
<mgrwt>
<rscale>  0 0.78970558E+02</rscale>
<asrwt>0</asrwt>
<pdfrwt beam="1">  1        2 0.37756459E-02 0.78970558E+02</pdfrwt>
<pdfrwt beam="2">  1       -1 0.97735527E-02 0.78970558E+02</pdfrwt>
<totfact> 0.13416122E+05</totfact>
</mgrwt>
</event>
<event>
 8    1  0.1226832E-024  0.7582114E+02  0.7818608E-02  0.1341347E+00
          2   -1    0    0  501    0  0.00000000000E+00  0.00000000000E+00  0.39019018203E+02  0.39019018286E+02  0.25500000000E-02 0. -1.
         -1   -1    0    0    0  501 -0.00000000000E+00 -0.00000000000E+00 -0.36833613301E+02  0.36833613646E+02  0.50400000000E-02 0.  1.
         24    2    1    2    0    0 -0.71054273576E-14  0.17763568394E-14  0.21854049013E+01  0.75852631932E+02  0.75821143334E+02 0.  0.
         66    2    3    3    0    0 -0.31370004905E+02  0.11809341454E+02  0.18754936411E+02  0.38461479345E+02  0.20000000771E+01 0.  0.
        -13    1    3    3    0    0  0.31370004905E+02 -0.11809341454E+02 -0.16569531509E+02  0.37391152587E+02  0.10566000000E+00 0.  1.
         13    1    4    4    0    0 -0.10771202749E+02  0.41469651794E+01  0.56893631739E+01  0.12868416617E+02  0.10566000000E+00 0. -1.
        -13    1    4    4    0    0 -0.83052225085E+01  0.36756106563E+01  0.53817383325E+01  0.10557514202E+02  0.10566000000E+00 0.  1.
        -14    1    4    4    0    0 -0.12293579648E+02  0.39867656183E+01  0.76838349041E+01  0.15035548526E+02  0.00000000000E+00 0.  1.
<mgrwt>
<rscale>  0 0.75821143E+02</rscale>
<asrwt>0</asrwt>
<pdfrwt beam="1">  1        2 0.60029258E-02 0.75821143E+02</pdfrwt>
<pdfrwt beam="2">  1       -1 0.56667098E-02 0.75821143E+02</pdfrwt>
<totfact> 0.16442894E+05</totfact>
</mgrwt>
</event>
<event>
 8    1  0.1226832E-024  0.8103413E+02  0.7818608E-02  0.1326142E+00
         -1   -1    0    0    0  501 -0.00000000000E+00  0.00000000000E+00  0.26868308849E+01  0.26868356119E+01  0.50400000000E-02 0.  1.
          2   -1    0    0  501    0  0.00000000000E+00 -0.00000000000E+00 -0.61099161890E+03  0.61099161891E+03  0.25500000000E-02 0. -1.
         24    2    1    2    0    0 -0.44408920985E-15  0.00000000000E+00 -0.60830478802E+03  0.61367845452E+03  0.81034131183E+02 0.  0.
         66    2    3    3    0    0 -0.27367444816E+01 -0.34803569497E+02 -0.45969609321E+03  0.46102416026E+03  0.20000022334E+01 0.  0.
        -13    1    3    3    0    0  0.27367444816E+01  0.34803569497E+02 -0.14860869480E+03  0.15265429426E+03  0.10566000000E+00 0.  1.
         13    1    4    4    0    0  0.33457541812E-01 -0.21737988826E+01 -0.25162685357E+02  0.25256650993E+02  0.10566000000E+00 0. -1.
        -13    1    4    4    0    0 -0.58715438665E+00 -0.57525911909E+01 -0.83221342404E+02  0.83422059740E+02  0.10566000000E+00 0.  1.
         14    1    4    4    0    0 -0.21830476367E+01 -0.26877179423E+02 -0.35131206545E+03  0.35234544953E+03  0.00000000000E+00 0. -1.
<mgrwt>
<rscale>  0 0.81034131E+02</rscale>
<asrwt>0</asrwt>
<pdfrwt beam="1">  1        2 0.93998600E-01 0.81034131E+02</pdfrwt>
<pdfrwt beam="2">  1       -1 0.41335945E-03 0.81034131E+02</pdfrwt>
<totfact> 0.31261910E+05</totfact>
</mgrwt>
</event>
<event>
 8    1  0.1226832E-024  0.8082382E+02  0.7818608E-02  0.1326730E+00
          2   -1    0    0  501    0  0.00000000000E+00  0.00000000000E+00  0.17663497804E+03  0.17663497806E+03  0.25500000000E-02 0. -1.
         -1   -1    0    0    0  501 -0.00000000000E+00 -0.00000000000E+00 -0.92457466381E+01  0.92457480118E+01  0.50400000000E-02 0.  1.
         24    2    1    2    0    0  0.00000000000E+00  0.00000000000E+00  0.16738923140E+03  0.18588072607E+03  0.80823817871E+02 0.  0.
         66    2    3    3    0    0 -0.27920777102E+02 -0.15929854046E+02  0.13997575743E+03  0.14363336209E+03  0.19999985348E+01 0.  0.
        -13    1    3    3    0    0  0.27920777102E+02  0.15929854046E+02  0.27413473977E+02  0.42247363982E+02  0.10566000000E+00 0.  1.
         13    1    4    4    0    0 -0.21878935110E+02 -0.12593958223E+02  0.10795819556E+03  0.11087054947E+03  0.10566000000E+00 0. -1.
        -13    1    4    4    0    0 -0.53197066313E+01 -0.30556185365E+01  0.29379872279E+02  0.30013732564E+02  0.10566000000E+00 0.  1.
        -14    1    4    4    0    0 -0.72213536130E+00 -0.28027728628E+00  0.26376895844E+01  0.27490800608E+01  0.00000000000E+00 0.  1.
<mgrwt>
<rscale>  0 0.80823818E+02</rscale>
<asrwt>0</asrwt>
<pdfrwt beam="1">  1        2 0.27174610E-01 0.80823818E+02</pdfrwt>
<pdfrwt beam="2">  1       -1 0.14224228E-02 0.80823818E+02</pdfrwt>
<totfact> 0.20573436E+05</totfact>
</mgrwt>
</event>
<event>
 8    1  0.1226832E-024  0.8225699E+02  0.7818608E-02  0.1322766E+00
         -1   -1    0    0    0  501 -0.00000000000E+00  0.00000000000E+00  0.41075153064E+01  0.41075183985E+01  0.50400000000E-02 0.  1.
          2   -1    0    0  501    0  0.00000000000E+00 -0.00000000000E+00 -0.41181886964E+03  0.41181886965E+03  0.25500000000E-02 0. -1.
         24    2    1    2    0    0 -0.35527136788E-14  0.00000000000E+00 -0.40771135433E+03  0.41592638805E+03  0.82256986456E+02 0.  0.
         66    2    3    3    0    0 -0.26254982181E+02  0.27500989287E+02 -0.28294672091E+03  0.28549689208E+03  0.20000029567E+01 0.  0.
        -13    1    3    3    0    0  0.26254982181E+02 -0.27500989287E+02 -0.12476463342E+03  0.13042949597E+03  0.10566000000E+00 0.  1.
         13    1    4    4    0    0 -0.97549503720E+01  0.90386349772E+01 -0.99537456435E+02  0.10042197158E+03  0.10566000000E+00 0.  1.
        -13    1    4    4    0    0 -0.13383941296E+02  0.14960497693E+02 -0.14627937496E+03  0.14765030673E+03  0.10566000000E+00 0. -1.
        -14    1    4    4    0    0 -0.31160905130E+01  0.35018566164E+01 -0.37129889518E+02  0.37424613765E+02  0.00000000000E+00 0.  1.
<mgrwt>
<rscale>  0 0.82256986E+02</rscale>
<asrwt>0</asrwt>
<pdfrwt beam="1">  1        2 0.63356717E-01 0.82256986E+02</pdfrwt>
<pdfrwt beam="2">  1       -1 0.63192600E-03 0.82256986E+02</pdfrwt>
<totfact> 0.26538740E+05</totfact>
</mgrwt>
</event>
<event>
 8    1  0.1226832E-024  0.8136022E+02  0.7818608E-02  0.1325235E+00
          2   -1    0    0  501    0  0.00000000000E+00  0.00000000000E+00  0.87646249670E+03  0.87646249671E+03  0.25500000000E-02 0. -1.
         -1   -1    0    0    0  501 -0.00000000000E+00 -0.00000000000E+00 -0.18881221878E+01  0.18881289145E+01  0.50400000000E-02 0.  1.
         24    2    1    2    0    0 -0.35527136788E-14  0.17763568394E-14  0.87457437452E+03  0.87835062562E+03  0.81360217369E+02 0.  0.
         66    2    3    3    0    0 -0.30555623009E+02 -0.13051405550E+02  0.69047752401E+03  0.69127939102E+03  0.20000012729E+01 0.  0.
        -13    1    3    3    0    0  0.30555623009E+02  0.13051405550E+02  0.18409685051E+03  0.18707123460E+03  0.10566000000E+00 0.  1.
         13    1    4    4    0    0 -0.17939421187E+02 -0.78539231731E+01  0.41683125451E+03  0.41729104093E+03  0.10566000000E+00 0. -1.
        -13    1    4    4    0    0 -0.65997489623E+01 -0.32898721181E+01  0.14847162468E+03  0.14865468187E+03  0.10566000000E+00 0.  1.
        -14    1    4    4    0    0 -0.60164528601E+01 -0.19076102589E+01  0.12517464482E+03  0.12533366821E+03  0.00000000000E+00 0.  1.
<mgrwt>
<rscale>  0 0.81360217E+02</rscale>
<asrwt>0</asrwt>
<pdfrwt beam="1">  1        2 0.13484075E+00 0.81360217E+02</pdfrwt>
<pdfrwt beam="2">  1       -1 0.29048007E-03 0.81360217E+02</pdfrwt>
<totfact> 0.33344174E+05</totfact>
</mgrwt>
</event>
<event>
 8    1  0.1226832E-024  0.8137803E+02  0.7818608E-02  0.1325186E+00
          2   -1    0    0  501    0  0.00000000000E+00  0.00000000000E+00  0.40963004177E+02  0.40963004256E+02  0.25500000000E-02 0. -1.
         -1   -1    0    0    0  501 -0.00000000000E+00 -0.00000000000E+00 -0.40416858598E+02  0.40416858912E+02  0.50400000000E-02 0.  1.
         24    2    1    2    0    0  0.00000000000E+00  0.00000000000E+00  0.54614557897E+00  0.81379863168E+02  0.81378030538E+02 0.  0.
         66    2    3    3    0    0 -0.30332275253E+02 -0.13429661413E+01  0.27324548833E+02  0.40895983352E+02  0.20000013423E+01 0.  0.
        -13    1    3    3    0    0  0.30332275253E+02  0.13429661413E+01 -0.26778403254E+02  0.40483879816E+02  0.10566000000E+00 0.  1.
         13    1    4    4    0    0 -0.58844119722E+01  0.12662414031E+00  0.49181452736E+01  0.76708314347E+01  0.10566000000E+00 0. -1.
        -13    1    4    4    0    0 -0.23076568178E+01 -0.63014636638E-01  0.16055973660E+01  0.28139576703E+01  0.10566000000E+00 0.  1.
         14    1    4    4    0    0 -0.22140206463E+02 -0.14065756450E+01  0.20800806193E+02  0.30411194247E+02  0.00000000000E+00 0. -1.
<mgrwt>
<rscale>  0 0.81378031E+02</rscale>
<asrwt>0</asrwt>
<pdfrwt beam="1">  1        2 0.63020006E-02 0.81378031E+02</pdfrwt>
<pdfrwt beam="2">  1       -1 0.62179784E-02 0.81378031E+02</pdfrwt>
<totfact> 0.13664476E+05</totfact>
</mgrwt>
</event>
<event>
 8    1  0.1226832E-024  0.8025314E+02  0.7818608E-02  0.1328335E+00
          2   -1    0    0  501    0  0.00000000000E+00  0.00000000000E+00  0.24596864595E+03  0.24596864597E+03  0.25500000000E-02 0. -1.
         -1   -1    0    0    0  501 -0.00000000000E+00 -0.00000000000E+00 -0.65461252111E+01  0.65461271513E+01  0.50400000000E-02 0.  1.
         24    2    1    2    0    0 -0.35527136788E-14  0.35527136788E-14  0.23942252074E+03  0.25251477312E+03  0.80253144513E+02 0.  0.
         66    2    3    3    0    0  0.24219539606E+02 -0.21088882370E+02  0.19535394257E+03  0.19798608521E+03  0.20000005732E+01 0.  0.
        -13    1    3    3    0    0 -0.24219539606E+02  0.21088882370E+02  0.44068578172E+02  0.54528687903E+02  0.10566000000E+00 0.  1.
         13    1    4    4    0    0  0.77755127595E+01 -0.70840261434E+01  0.65939768383E+02  0.66773544488E+02  0.10566000000E+00 0. -1.
        -13    1    4    4    0    0  0.14684328623E+02 -0.11897321414E+02  0.11387453238E+03  0.11543221411E+03  0.10566000000E+00 0.  1.
        -14    1    4    4    0    0  0.17596982240E+01 -0.21075348132E+01  0.15539641806E+02  0.15780326621E+02  0.00000000000E+00 0.  1.
<mgrwt>
<rscale>  0 0.80253145E+02</rscale>
<asrwt>0</asrwt>
<pdfrwt beam="1">  1        2 0.37841327E-01 0.80253145E+02</pdfrwt>
<pdfrwt beam="2">  1       -1 0.10070964E-02 0.80253145E+02</pdfrwt>
<totfact> 0.23533525E+05</totfact>
</mgrwt>
</event>
<event>
 8    1  0.1226832E-024  0.7782401E+02  0.7818608E-02  0.1335342E+00
         -1   -1    0    0    0  501 -0.00000000000E+00  0.00000000000E+00  0.62028344952E+01  0.62028365428E+01  0.50400000000E-02 0.  1.
          2   -1    0    0  501    0  0.00000000000E+00 -0.00000000000E+00 -0.24410515535E+03  0.24410515536E+03  0.25500000000E-02 0. -1.
         24    2    1    2    0    0  0.17763568394E-14  0.17763568394E-14 -0.23790232086E+03  0.25030799191E+03  0.77824010074E+02 0.  0.
         66    2    3    3    0    0 -0.93979479745E+01 -0.10227025350E+02 -0.23585043369E+03  0.23626751903E+03  0.20000007220E+01 0.  0.
        -13    1    3    3    0    0  0.93979479745E+01  0.10227025350E+02 -0.20518871650E+01  0.14040472877E+02  0.10566000000E+00 0.  1.
         13    1    4    4    0    0 -0.33451984090E+01 -0.33349152879E+01 -0.85908834643E+02  0.86038660184E+02  0.10566000000E+00 0. -1.
        -13    1    4    4    0    0 -0.30729246057E+00 -0.38726571972E-01 -0.71426725319E+01  0.71501652665E+01  0.10566000000E+00 0.  1.
         14    1    4    4    0    0 -0.57454571049E+01 -0.68533834897E+01 -0.14279892651E+03  0.14307869358E+03  0.00000000000E+00 0. -1.
<mgrwt>
<rscale>  0 0.77824010E+02</rscale>
<asrwt>0</asrwt>
<pdfrwt beam="1">  1        2 0.37554632E-01 0.77824010E+02</pdfrwt>
<pdfrwt beam="2">  1       -1 0.95428258E-03 0.77824010E+02</pdfrwt>
<totfact> 0.25442992E+05</totfact>
</mgrwt>
</event>
<event>
 8    1  0.1381200E-024  0.7844309E+02  0.7818608E-02  0.1333529E+00
         -1   -1    0    0    0  501 -0.00000000000E+00  0.00000000000E+00  0.90118111126E+02  0.90118111267E+02  0.50400000000E-02 0.  1.
          2   -1    0    0  501    0  0.00000000000E+00 -0.00000000000E+00 -0.17070149769E+02  0.17070149960E+02  0.25500000000E-02 0. -1.
         24    2    1    2    0    0  0.00000000000E+00  0.00000000000E+00  0.73047961357E+02  0.10718826123E+03  0.78443092025E+02 0.  0.
         66    2    3    3    0    0 -0.84106260304E+01  0.35777086197E+02  0.17932557216E+02  0.40942827688E+02  0.20000009531E+01 0.  0.
        -13    1    3    3    0    0  0.84106260304E+01 -0.35777086197E+02  0.55115404141E+02  0.66245433539E+02  0.10566000000E+00 0.  1.
         13    1    4    4    0    0 -0.40208983197E+01  0.17957327507E+02  0.90091406266E+01  0.20489241405E+02  0.10566000000E+00 0. -1.
        -13    1    4    4    0    0 -0.35199011776E+01  0.12553702648E+02  0.58069448707E+01  0.14272943888E+02  0.10566000000E+00 0.  1.
        -14    1    4    4    0    0 -0.86982653309E+00  0.52660560423E+01  0.31164717187E+01  0.61806423947E+01  0.00000000000E+00 0.  1.
<mgrwt>
<rscale>  0 0.78443092E+02</rscale>
<asrwt>0</asrwt>
<pdfrwt beam="1">  1        2 0.26261769E-02 0.78443092E+02</pdfrwt>
<pdfrwt beam="2">  1       -1 0.13864325E-01 0.78443092E+02</pdfrwt>
<totfact> 0.12721744E+05</totfact>
</mgrwt>
</event>
<event>
 8    1  0.1226832E-024  0.8035311E+02  0.7818608E-02  0.1328052E+00
          2   -1    0    0  501    0  0.00000000000E+00  0.00000000000E+00  0.10384997232E+04  0.10384997232E+04  0.25500000000E-02 0. -1.
         -1   -1    0    0    0  501 -0.00000000000E+00 -0.00000000000E+00 -0.15543108052E+01  0.15543189765E+01  0.50400000000E-02 0.  1.
         24    2    1    2    0    0  0.35527136788E-14  0.00000000000E+00  0.10369454124E+04  0.10400540422E+04  0.80353110504E+02 0.  0.
         66    2    3    3    0    0  0.17131886543E+02  0.19425418160E+02  0.91590934895E+03  0.91627767842E+03  0.20000176332E+01 0.  0.
        -13    1    3    3    0    0 -0.17131886543E+02 -0.19425418160E+02  0.12103606345E+03  0.12377636377E+03  0.10566000000E+00 0.  1.
         13    1    4    4    0    0  0.75705321497E+01  0.84708633844E+01  0.38063565453E+03  0.38080517479E+03  0.10566000000E+00 0.  1.
        -13    1    4    4    0    0  0.95948113889E+01  0.10874804035E+02  0.53251805985E+03  0.53271551226E+03  0.10566000000E+00 0. -1.
        -14    1    4    4    0    0 -0.33456996005E-01  0.79750740774E-01  0.27556345712E+01  0.27569913749E+01  0.00000000000E+00 0.  1.
<mgrwt>
<rscale>  0 0.80353111E+02</rscale>
<asrwt>0</asrwt>
<pdfrwt beam="1">  1        2 0.15976993E+00 0.80353111E+02</pdfrwt>
<pdfrwt beam="2">  1       -1 0.23912425E-03 0.80353111E+02</pdfrwt>
<totfact> 0.34867703E+05</totfact>
</mgrwt>
</event>
<event>
 8    1  0.1226832E-024  0.7903345E+02  0.7818608E-02  0.1331817E+00
          2   -1    0    0  501    0  0.00000000000E+00  0.00000000000E+00  0.26856649553E+02  0.26856649675E+02  0.25500000000E-02 0. -1.
         -1   -1    0    0    0  501 -0.00000000000E+00 -0.00000000000E+00 -0.58144690179E+02  0.58144690397E+02  0.50400000000E-02 0.  1.
         24    2    1    2    0    0  0.17763568394E-14  0.00000000000E+00 -0.31288040625E+02  0.85001340072E+02  0.79033450689E+02 0.  0.
         66    2    3    3    0    0  0.14654440679E+02 -0.89541409635E+01  0.22593029647E+02  0.28449503941E+02  0.20000034538E+01 0.  0.
        -13    1    3    3    0    0 -0.14654440679E+02  0.89541409635E+01 -0.53881070273E+02  0.56551836131E+02  0.10566000000E+00 0.  1.
         13    1    4    4    0    0  0.39307691387E+01 -0.23623187672E+01  0.72273916979E+01  0.85602482890E+01  0.10566000000E+00 0. -1.
        -13    1    4    4    0    0  0.22370941541E+01 -0.13132227555E+01  0.25705512409E+01  0.36534972256E+01  0.10566000000E+00 0.  1.
        -14    1    4    4    0    0  0.84865773863E+01 -0.52785994409E+01  0.12795086709E+02  0.16235758426E+02  0.00000000000E+00 0.  1.
<mgrwt>
<rscale>  0 0.79033451E+02</rscale>
<asrwt>0</asrwt>
<pdfrwt beam="1">  1        2 0.41317923E-02 0.79033451E+02</pdfrwt>
<pdfrwt beam="2">  1       -1 0.89453370E-02 0.79033451E+02</pdfrwt>
<totfact> 0.13623596E+05</totfact>
</mgrwt>
</event>
<event>
 8    1  0.1226832E-024  0.8105648E+02  0.7818608E-02  0.1326080E+00
          2   -1    0    0  501    0  0.00000000000E+00  0.00000000000E+00  0.15140892355E+02  0.15140892570E+02  0.25500000000E-02 0. -1.
         -1   -1    0    0    0  501 -0.00000000000E+00 -0.00000000000E+00 -0.10848357486E+03  0.10848357498E+03  0.50400000000E-02 0.  1.
         24    2    1    2    0    0  0.00000000000E+00  0.00000000000E+00 -0.93342682504E+02  0.12362446755E+03  0.81056477834E+02 0.  0.
         66    2    3    3    0    0 -0.70049427470E+01  0.39744303235E+02 -0.41448520987E+02  0.57884875014E+02  0.20000002369E+01 0.  0.
        -13    1    3    3    0    0  0.70049427470E+01 -0.39744303235E+02 -0.51894161517E+02  0.65739592531E+02  0.10566000000E+00 0.  1.
         13    1    4    4    0    0 -0.36151060748E+01  0.24832311753E+02 -0.25897620579E+02  0.36061206505E+02  0.10566000000E+00 0. -1.
        -13    1    4    4    0    0 -0.57144958225E+00  0.15966950987E+01 -0.16159002048E+01  0.23448427177E+01  0.10566000000E+00 0.  1.
        -14    1    4    4    0    0 -0.28183870900E+01  0.13315296383E+02 -0.13935000202E+02  0.19478825791E+02  0.00000000000E+00 0.  1.
<mgrwt>
<rscale>  0 0.81056478E+02</rscale>
<asrwt>0</asrwt>
<pdfrwt beam="1">  1        2 0.23293681E-02 0.81056478E+02</pdfrwt>
<pdfrwt beam="2">  1       -1 0.16689780E-01 0.81056478E+02</pdfrwt>
<totfact> 0.11269378E+05</totfact>
</mgrwt>
</event>
<event>
 8    1  0.1226832E-024  0.7657806E+02  0.7818608E-02  0.1339053E+00
          2   -1    0    0  501    0  0.00000000000E+00  0.00000000000E+00  0.13465542242E+03  0.13465542245E+03  0.25500000000E-02 0. -1.
         -1   -1    0    0    0  501 -0.00000000000E+00 -0.00000000000E+00 -0.10887416075E+02  0.10887417242E+02  0.50400000000E-02 0.  1.
         24    2    1    2    0    0  0.00000000000E+00  0.17763568394E-14  0.12376800635E+03  0.14554283969E+03  0.76578056840E+02 0.  0.
         66    2    3    3    0    0  0.35876257201E+02 -0.11009384060E+02  0.76114726384E+02  0.84886771373E+02  0.20000033768E+01 0.  0.
        -13    1    3    3    0    0 -0.35876257201E+02  0.11009384060E+02  0.47653279962E+02  0.60656068315E+02  0.10566000000E+00 0.  1.
         13    1    4    4    0    0  0.17076866337E+02 -0.49312573294E+01  0.35817116555E+02  0.39985168063E+02  0.10566000000E+00 0. -1.
        -13    1    4    4    0    0  0.14471336120E+02 -0.45302295795E+01  0.32150692154E+02  0.35547443215E+02  0.10566000000E+00 0.  1.
         14    1    4    4    0    0  0.43280547444E+01 -0.15478971515E+01  0.81469176751E+01  0.93541600941E+01  0.00000000000E+00 0. -1.
<mgrwt>
<rscale>  0 0.76578057E+02</rscale>
<asrwt>0</asrwt>
<pdfrwt beam="1">  1        2 0.20716218E-01 0.76578057E+02</pdfrwt>
<pdfrwt beam="2">  1       -1 0.16749872E-02 0.76578057E+02</pdfrwt>
<totfact> 0.21736848E+05</totfact>
</mgrwt>
</event>
<event>
 8    1  0.1226832E-024  0.8000371E+02  0.7818608E-02  0.1329041E+00
         -1   -1    0    0    0  501 -0.00000000000E+00  0.00000000000E+00  0.13974638931E+03  0.13974638940E+03  0.50400000000E-02 0.  1.
          2   -1    0    0  501    0  0.00000000000E+00 -0.00000000000E+00 -0.11450374411E+02  0.11450374695E+02  0.25500000000E-02 0. -1.
         24    2    1    2    0    0  0.17763568394E-14  0.00000000000E+00  0.12829601490E+03  0.15119676410E+03  0.80003712627E+02 0.  0.
         66    2    3    3    0    0  0.14865363411E+02 -0.30831861467E+02  0.25155799610E+02  0.42525250419E+02  0.19999895806E+01 0.  0.
        -13    1    3    3    0    0 -0.14865363411E+02  0.30831861467E+02  0.10314021529E+03  0.10867151368E+03  0.10566000000E+00 0.  1.
         13    1    4    4    0    0  0.11427171620E+02 -0.23338521688E+02  0.18127560784E+02  0.31684167494E+02  0.10566000000E+00 0. -1.
        -13    1    4    4    0    0  0.28637509265E+01 -0.59215339423E+01  0.57040486065E+01  0.87070642664E+01  0.10566000000E+00 0.  1.
         14    1    4    4    0    0  0.57444086441E+00 -0.15718058367E+01  0.13241902202E+01  0.21340186584E+01  0.00000000000E+00 0. -1.
<mgrwt>
<rscale>  0 0.80003713E+02</rscale>
<asrwt>0</asrwt>
<pdfrwt beam="1">  1        2 0.17615960E-02 0.80003713E+02</pdfrwt>
<pdfrwt beam="2">  1       -1 0.21499446E-01 0.80003713E+02</pdfrwt>
<totfact> 0.10978898E+05</totfact>
</mgrwt>
</event>
<event>
 8    1  0.1226832E-024  0.8077681E+02  0.7818608E-02  0.1326861E+00
          2   -1    0    0  501    0  0.00000000000E+00  0.00000000000E+00  0.31961024836E+03  0.31961024837E+03  0.25500000000E-02 0. -1.
         -1   -1    0    0    0  501 -0.00000000000E+00 -0.00000000000E+00 -0.51037872538E+01  0.51037897423E+01  0.50400000000E-02 0.  1.
         24    2    1    2    0    0  0.00000000000E+00  0.00000000000E+00  0.31450646110E+03  0.32471403811E+03  0.80776806508E+02 0.  0.
         66    2    3    3    0    0  0.22863252788E+02  0.55015652454E+01  0.28922526407E+03  0.29018657606E+03  0.20000000753E+01 0.  0.
        -13    1    3    3    0    0 -0.22863252788E+02 -0.55015652454E+01  0.25281197035E+02  0.34527462052E+02  0.10566000000E+00 0.  1.
         13    1    4    4    0    0  0.59264962518E+01  0.18323323943E+01  0.78159181942E+02  0.78405036099E+02  0.10566000000E+00 0. -1.
        -13    1    4    4    0    0  0.14005994547E+02  0.28457086026E+01  0.18006740827E+03  0.18063374166E+03  0.10566000000E+00 0.  1.
        -14    1    4    4    0    0  0.29307619894E+01  0.82352424849E+00  0.30998673860E+02  0.31147798303E+02  0.00000000000E+00 0.  1.
<mgrwt>
<rscale>  0 0.80776807E+02</rscale>
<asrwt>0</asrwt>
<pdfrwt beam="1">  1        2 0.49170826E-01 0.80776807E+02</pdfrwt>
<pdfrwt beam="2">  1       -1 0.78519794E-03 0.80776807E+02</pdfrwt>
<totfact> 0.25432460E+05</totfact>
</mgrwt>
</event>
<event>
 8    1  0.1226832E-024  0.8193009E+02  0.7818608E-02  0.1323662E+00
          2   -1    0    0  501    0  0.00000000000E+00  0.00000000000E+00  0.47291783116E+01  0.47291789991E+01  0.25500000000E-02 0. -1.
         -1   -1    0    0    0  501 -0.00000000000E+00 -0.00000000000E+00 -0.35484696880E+03  0.35484696884E+03  0.50400000000E-02 0.  1.
         24    2    1    2    0    0 -0.71054273576E-14 -0.35527136788E-14 -0.35011779049E+03  0.35957614784E+03  0.81930085289E+02 0.  0.
         66    2    3    3    0    0  0.26155530907E+02  0.25966658731E+02 -0.25339603898E+03  0.25607016955E+03  0.19999994779E+01 0.  0.
        -13    1    3    3    0    0 -0.26155530907E+02 -0.25966658731E+02 -0.96721751509E+02  0.10350597829E+03  0.10566000000E+00 0.  1.
         13    1    4    4    0    0  0.17295255137E+02  0.17532838709E+02 -0.16876251991E+03  0.17055006764E+03  0.10566000000E+00 0. -1.
        -13    1    4    4    0    0  0.34176763259E+01  0.39989869559E+01 -0.36458092807E+02  0.36835799208E+02  0.10566000000E+00 0.  1.
        -14    1    4    4    0    0  0.54425994444E+01  0.44348330660E+01 -0.48175426271E+02  0.48684302700E+02  0.00000000000E+00 0.  1.
<mgrwt>
<rscale>  0 0.81930085E+02</rscale>
<asrwt>0</asrwt>
<pdfrwt beam="1">  1        2 0.72756623E-03 0.81930085E+02</pdfrwt>
<pdfrwt beam="2">  1       -1 0.54591821E-01 0.81930085E+02</pdfrwt>
<totfact> 0.75586377E+04</totfact>
</mgrwt>
</event>
<event>
 8    1  0.1226832E-024  0.7625104E+02  0.7818608E-02  0.1340040E+00
          2   -1    0    0  501    0  0.00000000000E+00  0.00000000000E+00  0.73428840264E+01  0.73428844692E+01  0.25500000000E-02 0. -1.
         -1   -1    0    0    0  501 -0.00000000000E+00 -0.00000000000E+00 -0.19795427442E+03  0.19795427448E+03  0.50400000000E-02 0.  1.
         24    2    1    2    0    0  0.35527136788E-14  0.00000000000E+00 -0.19061139039E+03  0.20529715895E+03  0.76251041479E+02 0.  0.
         66    2    3    3    0    0  0.23982109105E+02 -0.20375563335E+02 -0.37547743821E+02  0.49032011833E+02  0.19999950129E+01 0.  0.
        -13    1    3    3    0    0 -0.23982109105E+02  0.20375563335E+02 -0.15306364657E+03  0.15626514712E+03  0.10566000000E+00 0.  1.
         13    1    4    4    0    0  0.12600643299E+02 -0.10330004625E+02 -0.20322533745E+02  0.26048066127E+02  0.10566000000E+00 0. -1.
        -13    1    4    4    0    0  0.95881136200E+00 -0.56543700970E+00 -0.14892952992E+01  0.18623111351E+01  0.10566000000E+00 0.  1.
         14    1    4    4    0    0  0.10422654444E+02 -0.94801216999E+01 -0.15735914777E+02  0.21121634571E+02  0.00000000000E+00 0. -1.
<mgrwt>
<rscale>  0 0.76251041E+02</rscale>
<asrwt>0</asrwt>
<pdfrwt beam="1">  1        2 0.11296747E-02 0.76251041E+02</pdfrwt>
<pdfrwt beam="2">  1       -1 0.30454500E-01 0.76251041E+02</pdfrwt>
<totfact> 0.11288049E+05</totfact>
</mgrwt>
</event>
<event>
 8    1  0.1226832E-024  0.8603798E+02  0.7818608E-02  0.1312740E+00
         -1   -1    0    0    0  501 -0.00000000000E+00  0.00000000000E+00  0.28761046588E+01  0.28761090748E+01  0.50400000000E-02 0.  1.
          2   -1    0    0  501    0  0.00000000000E+00 -0.00000000000E+00 -0.64345089798E+03  0.64345089799E+03  0.25500000000E-02 0. -1.
         24    2    1    2    0    0  0.88817841970E-15  0.00000000000E+00 -0.64057479332E+03  0.64632700706E+03  0.86037981243E+02 0.  0.
         66    2    3    3    0    0 -0.71421053864E+01  0.23457941498E+02 -0.58577093701E+03  0.58628736583E+03  0.19999987202E+01 0.  0.
        -13    1    3    3    0    0  0.71421053864E+01 -0.23457941498E+02 -0.54803856310E+02  0.60039641231E+02  0.10566000000E+00 0.  1.
         13    1    4    4    0    0 -0.44426793787E+01  0.11826935842E+02 -0.28874624846E+03  0.28902252676E+03  0.10566000000E+00 0. -1.
        -13    1    4    4    0    0 -0.22122631655E+01  0.94578180124E+01 -0.23795900343E+03  0.23815718109E+03  0.10566000000E+00 0.  1.
         14    1    4    4    0    0 -0.48716284223E+00  0.21731876437E+01 -0.59065685123E+02  0.59107657975E+02  0.00000000000E+00 0. -1.
<mgrwt>
<rscale>  0 0.86037981E+02</rscale>
<asrwt>0</asrwt>
<pdfrwt beam="1">  1        2 0.98992332E-01 0.86037981E+02</pdfrwt>
<pdfrwt beam="2">  1       -1 0.44247849E-03 0.86037981E+02</pdfrwt>
<totfact> 0.27103396E+05</totfact>
</mgrwt>
</event>
<event>
 8    1  0.1226832E-024  0.7863123E+02  0.7818608E-02  0.1332981E+00
         -1   -1    0    0    0  501 -0.00000000000E+00  0.00000000000E+00  0.38515991577E+01  0.38516024553E+01  0.50400000000E-02 0.  1.
          2   -1    0    0  501    0  0.00000000000E+00 -0.00000000000E+00 -0.40131823531E+03  0.40131823531E+03  0.25500000000E-02 0. -1.
         24    2    1    2    0    0  0.00000000000E+00 -0.17763568394E-14 -0.39746663615E+03  0.40516983777E+03  0.78631231626E+02 0.  0.
         66    2    3    3    0    0  0.26312588519E+02 -0.11794354861E+02 -0.33637946758E+03  0.33761902394E+03  0.19999991451E+01 0.  0.
        -13    1    3    3    0    0 -0.26312588519E+02  0.11794354861E+02 -0.61087168571E+02  0.67550813831E+02  0.10566000000E+00 0.  1.
         13    1    4    4    0    0  0.49847038841E+01 -0.16034187591E+01 -0.58051944100E+02  0.58287713992E+02  0.10566000000E+00 0. -1.
        -13    1    4    4    0    0  0.31514813273E+01 -0.11453645982E+01 -0.38271147657E+02  0.38417907304E+02  0.10566000000E+00 0.  1.
         14    1    4    4    0    0  0.18176403307E+02 -0.90455715035E+01 -0.24005637582E+03  0.24091340264E+03  0.00000000000E+00 0. -1.
<mgrwt>
<rscale>  0 0.78631232E+02</rscale>
<asrwt>0</asrwt>
<pdfrwt beam="1">  1        2 0.61741234E-01 0.78631232E+02</pdfrwt>
<pdfrwt beam="2">  1       -1 0.59255429E-03 0.78631232E+02</pdfrwt>
<totfact> 0.29589256E+05</totfact>
</mgrwt>
</event>
<event>
 8    1  0.1226832E-024  0.7906146E+02  0.7818608E-02  0.1331736E+00
          2   -1    0    0  501    0  0.00000000000E+00  0.00000000000E+00  0.12383845459E+04  0.12383845459E+04  0.25500000000E-02 0. -1.
         -1   -1    0    0    0  501 -0.00000000000E+00 -0.00000000000E+00 -0.12618636648E+01  0.12618737299E+01  0.50400000000E-02 0.  1.
         24    2    1    2    0    0  0.88817841970E-15  0.35527136788E-14  0.12371226822E+04  0.12396464196E+04  0.79061462212E+02 0.  0.
         66    2    3    3    0    0 -0.76288972212E+01 -0.18701202876E+02  0.11513074991E+04  0.11514863840E+04  0.19999999031E+01 0.  0.
        -13    1    3    3    0    0  0.76288972212E+01  0.18701202876E+02  0.85815183190E+02  0.88160035684E+02  0.10566000000E+00 0.  1.
         13    1    4    4    0    0 -0.27624899051E+01 -0.58287852897E+01  0.35399201668E+03  0.35405079455E+03  0.10566000000E+00 0. -1.
        -13    1    4    4    0    0 -0.34280127294E+01 -0.89602553405E+01  0.51533694590E+03  0.51542624731E+03  0.10566000000E+00 0.  1.
         14    1    4    4    0    0 -0.14383945866E+01 -0.39121622458E+01  0.28197853648E+03  0.28200934209E+03  0.00000000000E+00 0. -1.
<mgrwt>
<rscale>  0 0.79061462E+02</rscale>
<asrwt>0</asrwt>
<pdfrwt beam="1">  1        2 0.19052087E+00 0.79061462E+02</pdfrwt>
<pdfrwt beam="2">  1       -1 0.19413347E-03 0.79061462E+02</pdfrwt>
<totfact> 0.35984704E+05</totfact>
</mgrwt>
</event>
<event>
 8    1  0.1226832E-024  0.7808169E+02  0.7818608E-02  0.1334585E+00
          2   -1    0    0  501    0  0.00000000000E+00  0.00000000000E+00  0.26359763809E+03  0.26359763810E+03  0.25500000000E-02 0. -1.
         -1   -1    0    0    0  501 -0.00000000000E+00 -0.00000000000E+00 -0.57822496927E+01  0.57822518892E+01  0.50400000000E-02 0.  1.
         24    2    1    2    0    0  0.00000000000E+00  0.00000000000E+00  0.25781538839E+03  0.26937988999E+03  0.78081692075E+02 0.  0.
         66    2    3    3    0    0 -0.18886592465E+02  0.23160669848E+02  0.21552128111E+03  0.21759260702E+03  0.20000033494E+01 0.  0.
        -13    1    3    3    0    0  0.18886592465E+02 -0.23160669848E+02  0.42294107282E+02  0.51787282971E+02  0.10566000000E+00 0.  1.
         13    1    4    4    0    0 -0.46731245794E+01  0.49246767689E+01  0.47671939214E+02  0.48153042345E+02  0.10566000000E+00 0. -1.
        -13    1    4    4    0    0 -0.13969914525E+02  0.18130948338E+02  0.16549615209E+03  0.16707147369E+03  0.10566000000E+00 0.  1.
        -14    1    4    4    0    0 -0.24355336124E+00  0.10504474073E+00  0.23531898080E+01  0.23680909843E+01  0.00000000000E+00 0.  1.
<mgrwt>
<rscale>  0 0.78081692E+02</rscale>
<asrwt>0</asrwt>
<pdfrwt beam="1">  1        2 0.40553475E-01 0.78081692E+02</pdfrwt>
<pdfrwt beam="2">  1       -1 0.88957721E-03 0.78081692E+02</pdfrwt>
<totfact> 0.25927179E+05</totfact>
</mgrwt>
</event>
<event>
 8    1  0.1226832E-024  0.7833143E+02  0.7818608E-02  0.1333854E+00
          2   -1    0    0  501    0  0.00000000000E+00  0.00000000000E+00  0.70642810248E+03  0.70642810249E+03  0.25500000000E-02 0. -1.
         -1   -1    0    0    0  501 -0.00000000000E+00 -0.00000000000E+00 -0.21714188067E+01  0.21714246557E+01  0.50400000000E-02 0.  1.
         24    2    1    2    0    0  0.00000000000E+00  0.35527136788E-14  0.70425668368E+03  0.70859952714E+03  0.78331432803E+02 0.  0.
         66    2    3    3    0    0 -0.34717811149E+02 -0.10262514141E+02  0.48693035197E+03  0.48827841780E+03  0.20000018176E+01 0.  0.
        -13    1    3    3    0    0  0.34717811149E+02  0.10262514141E+02  0.21732633170E+03  0.22032110934E+03  0.10566000000E+00 0.  1.
         13    1    4    4    0    0 -0.60041559373E+01 -0.21013835152E+01  0.82724619411E+02  0.82968906959E+02  0.10566000000E+00 0. -1.
        -13    1    4    4    0    0 -0.24197188698E+01 -0.25695668807E+00  0.32895337749E+02  0.32985382760E+02  0.10566000000E+00 0.  1.
         14    1    4    4    0    0 -0.26293936342E+02 -0.79041739380E+01  0.37131039481E+03  0.37232412808E+03  0.00000000000E+00 0. -1.
<mgrwt>
<rscale>  0 0.78331433E+02</rscale>
<asrwt>0</asrwt>
<pdfrwt beam="1">  1        2 0.10868120E+00 0.78331433E+02</pdfrwt>
<pdfrwt beam="2">  1       -1 0.33406502E-03 0.78331433E+02</pdfrwt>
<totfact> 0.35407009E+05</totfact>
</mgrwt>
</event>
<event>
 8    1  0.1226832E-024  0.7091423E+02  0.7818608E-02  0.1357011E+00
          2   -1    0    0  501    0  0.00000000000E+00  0.00000000000E+00  0.49749025084E+02  0.49749025149E+02  0.25500000000E-02 0. -1.
         -1   -1    0    0    0  501 -0.00000000000E+00 -0.00000000000E+00 -0.25270984593E+02  0.25270985096E+02  0.50400000000E-02 0.  1.
         24    2    1    2    0    0  0.00000000000E+00 -0.44408920985E-15  0.24478040490E+02  0.75020010245E+02  0.70914226153E+02 0.  0.
         66    2    3    3    0    0 -0.13627956598E+02 -0.31506382405E+01  0.46684147140E+02  0.48775581142E+02  0.19999998027E+01 0.  0.
        -13    1    3    3    0    0  0.13627956598E+02  0.31506382405E+01 -0.22206106650E+02  0.26244429103E+02  0.10566000000E+00 0.  1.
         13    1    4    4    0    0 -0.50710172293E+01 -0.58341511384E+00  0.15401545062E+02  0.16225730901E+02  0.10566000000E+00 0. -1.
        -13    1    4    4    0    0 -0.25203867337E+01 -0.88542762022E+00  0.11063483264E+02  0.11381922391E+02  0.10566000000E+00 0.  1.
         14    1    4    4    0    0 -0.60365526346E+01 -0.16817955064E+01  0.20219118815E+02  0.21167927850E+02  0.00000000000E+00 0. -1.
<mgrwt>
<rscale>  0 0.70914226E+02</rscale>
<asrwt>0</asrwt>
<pdfrwt beam="1">  1        2 0.76536961E-02 0.70914226E+02</pdfrwt>
<pdfrwt beam="2">  1       -1 0.38878439E-02 0.70914226E+02</pdfrwt>
<totfact> 0.20702516E+05</totfact>
</mgrwt>
</event>
<event>
 8    1  0.1226832E-024  0.8000392E+02  0.7818608E-02  0.1329040E+00
          2   -1    0    0  501    0  0.00000000000E+00  0.00000000000E+00  0.56404979784E+02  0.56404979842E+02  0.25500000000E-02 0. -1.
         -1   -1    0    0    0  501 -0.00000000000E+00 -0.00000000000E+00 -0.28369068077E+02  0.28369068525E+02  0.50400000000E-02 0.  1.
         24    2    1    2    0    0  0.00000000000E+00  0.00000000000E+00  0.28035911707E+02  0.84774048367E+02  0.80003918225E+02 0.  0.
         66    2    3    3    0    0  0.11235825372E+02 -0.12110213386E+02  0.52601226143E+02  0.55170554022E+02  0.19999998222E+01 0.  0.
        -13    1    3    3    0    0 -0.11235825372E+02  0.12110213386E+02 -0.24565314436E+02  0.29603494345E+02  0.10566000000E+00 0.  1.
         13    1    4    4    0    0  0.36104418155E+01 -0.45208127510E+01  0.19344530961E+02  0.20191460576E+02  0.10566000000E+00 0. -1.
        -13    1    4    4    0    0  0.32003031979E+01 -0.39713723148E+01  0.14533223907E+02  0.15402580945E+02  0.10566000000E+00 0.  1.
         14    1    4    4    0    0  0.44250803591E+01 -0.36180283199E+01  0.18723471275E+02  0.19576512501E+02  0.00000000000E+00 0. -1.
<mgrwt>
<rscale>  0 0.80003918E+02</rscale>
<asrwt>0</asrwt>
<pdfrwt beam="1">  1        2 0.86776893E-02 0.80003918E+02</pdfrwt>
<pdfrwt beam="2">  1       -1 0.43644720E-02 0.80003918E+02</pdfrwt>
<totfact> 0.15345871E+05</totfact>
</mgrwt>
</event>
<event>
 8    1  0.1226832E-024  0.7866787E+02  0.7818608E-02  0.1332875E+00
         -1   -1    0    0    0  501 -0.00000000000E+00  0.00000000000E+00  0.33109891518E+02  0.33109891901E+02  0.50400000000E-02 0.  1.
          2   -1    0    0  501    0  0.00000000000E+00 -0.00000000000E+00 -0.46727978205E+02  0.46727978274E+02  0.25500000000E-02 0. -1.
         24    2    1    2    0    0  0.00000000000E+00  0.35527136788E-14 -0.13618086687E+02  0.79837870176E+02  0.78667866560E+02 0.  0.
         66    2    3    3    0    0  0.19732528541E+02 -0.27544698672E+02 -0.27036416595E+02  0.43394134787E+02  0.20000010194E+01 0.  0.
        -13    1    3    3    0    0 -0.19732528541E+02  0.27544698672E+02  0.13418329908E+02  0.36443735389E+02  0.10566000000E+00 0.  1.
         13    1    4    4    0    0  0.12012157126E+02 -0.17572042434E+02 -0.17236971386E+02  0.27389650249E+02  0.10566000000E+00 0. -1.
        -13    1    4    4    0    0  0.21472384446E+01 -0.32173544264E+01 -0.25325657430E+01  0.46246141160E+01  0.10566000000E+00 0.  1.
        -14    1    4    4    0    0  0.55731329701E+01 -0.67553018107E+01 -0.72668794653E+01  0.11379870422E+02  0.00000000000E+00 0.  1.
<mgrwt>
<rscale>  0 0.78667867E+02</rscale>
<asrwt>0</asrwt>
<pdfrwt beam="1">  1        2 0.71889197E-02 0.78667867E+02</pdfrwt>
<pdfrwt beam="2">  1       -1 0.50938295E-02 0.78667867E+02</pdfrwt>
<totfact> 0.15420815E+05</totfact>
</mgrwt>
</event>
<event>
 8    1  0.1226832E-024  0.8029496E+02  0.7818608E-02  0.1328216E+00
          2   -1    0    0  501    0  0.00000000000E+00  0.00000000000E+00  0.19814635872E+02  0.19814636036E+02  0.25500000000E-02 0. -1.
         -1   -1    0    0    0  501 -0.00000000000E+00 -0.00000000000E+00 -0.81344929393E+02  0.81344929549E+02  0.50400000000E-02 0.  1.
         24    2    1    2    0    0  0.88817841970E-15  0.71054273576E-14 -0.61530293521E+02  0.10115956559E+03  0.80294960544E+02 0.  0.
         66    2    3    3    0    0  0.78223639007E+01  0.36453742971E+02 -0.12108193902E+02  0.39251409028E+02  0.19999993895E+01 0.  0.
        -13    1    3    3    0    0 -0.78223639007E+01 -0.36453742971E+02 -0.49422099619E+02  0.61908156558E+02  0.10566000000E+00 0.  1.
         13    1    4    4    0    0  0.35484828267E+01  0.14107940394E+02 -0.40135749866E+01  0.15091244506E+02  0.10566000000E+00 0. -1.
        -13    1    4    4    0    0  0.21078926751E+00  0.93463846372E+00 -0.46243686054E+00  0.10691085346E+01  0.10566000000E+00 0.  1.
         14    1    4    4    0    0  0.40630918064E+01  0.21411164113E+02 -0.76321820545E+01  0.23091055987E+02  0.00000000000E+00 0. -1.
<mgrwt>
<rscale>  0 0.80294961E+02</rscale>
<asrwt>0</asrwt>
<pdfrwt beam="1">  1        2 0.30484056E-02 0.80294961E+02</pdfrwt>
<pdfrwt beam="2">  1       -1 0.12514604E-01 0.80294961E+02</pdfrwt>
<totfact> 0.12261904E+05</totfact>
</mgrwt>
</event>
<event>
 8    1  0.1226832E-024  0.8141986E+02  0.7818608E-02  0.1325070E+00
          2   -1    0    0  501    0  0.00000000000E+00  0.00000000000E+00  0.42794965802E+02  0.42794965878E+02  0.25500000000E-02 0. -1.
         -1   -1    0    0    0  501 -0.00000000000E+00 -0.00000000000E+00 -0.38726479142E+02  0.38726479470E+02  0.50400000000E-02 0.  1.
         24    2    1    2    0    0  0.00000000000E+00 -0.17763568394E-14  0.40684866597E+01  0.81521445348E+02  0.81419859174E+02 0.  0.
         66    2    3    3    0    0  0.15939378312E+02 -0.14717791491E+02  0.36496664575E+02  0.42505101922E+02  0.19999992421E+01 0.  0.
        -13    1    3    3    0    0 -0.15939378312E+02  0.14717791491E+02 -0.32428177915E+02  0.39016343425E+02  0.10566000000E+00 0.  1.
         13    1    4    4    0    0  0.42845704911E+01 -0.34066936385E+01  0.86629547770E+01  0.10247978110E+02  0.10566000000E+00 0. -1.
        -13    1    4    4    0    0  0.41287537073E+01 -0.48882777652E+01  0.11486627272E+02  0.13148978546E+02  0.10566000000E+00 0.  1.
        -14    1    4    4    0    0  0.75260541132E+01 -0.64228200875E+01  0.16347082526E+02  0.19108145266E+02  0.00000000000E+00 0.  1.
<mgrwt>
<rscale>  0 0.81419859E+02</rscale>
<asrwt>0</asrwt>
<pdfrwt beam="1">  1        2 0.65838409E-02 0.81419859E+02</pdfrwt>
<pdfrwt beam="2">  1       -1 0.59579199E-02 0.81419859E+02</pdfrwt>
<totfact> 0.13770803E+05</totfact>
</mgrwt>
</event>
<event>
 8    1  0.1226832E-024  0.8102730E+02  0.7818608E-02  0.1326161E+00
         -1   -1    0    0    0  501 -0.00000000000E+00  0.00000000000E+00  0.11601948819E+03  0.11601948830E+03  0.50400000000E-02 0.  1.
          2   -1    0    0  501    0  0.00000000000E+00 -0.00000000000E+00 -0.14147243046E+02  0.14147243276E+02  0.25500000000E-02 0. -1.
         24    2    1    2    0    0  0.00000000000E+00  0.00000000000E+00  0.10187224514E+03  0.13016673158E+03  0.81027302056E+02 0.  0.
         66    2    3    3    0    0 -0.21766230771E+02  0.18972463868E+02  0.53701147622E+01  0.29437413503E+02  0.19999984908E+01 0.  0.
        -13    1    3    3    0    0  0.21766230771E+02 -0.18972463868E+02  0.96502130381E+02  0.10072931807E+03  0.10566000000E+00 0.  1.
         13    1    4    4    0    0 -0.12308417145E+02  0.11489978161E+02  0.26228592938E+01  0.17041340489E+02  0.10566000000E+00 0. -1.
        -13    1    4    4    0    0 -0.85257316352E+01  0.65826253940E+01  0.26726596173E+01  0.11098348096E+02  0.10566000000E+00 0.  1.
        -14    1    4    4    0    0 -0.93208199101E+00  0.89986031282E+00  0.74595851058E-01  0.12977249175E+01  0.00000000000E+00 0.  1.
<mgrwt>
<rscale>  0 0.81027302E+02</rscale>
<asrwt>0</asrwt>
<pdfrwt beam="1">  1        2 0.21764989E-02 0.81027302E+02</pdfrwt>
<pdfrwt beam="2">  1       -1 0.17849152E-01 0.81027302E+02</pdfrwt>
<totfact> 0.11110966E+05</totfact>
</mgrwt>
</event>
<event>
 8    1  0.1226832E-024  0.8119958E+02  0.7818608E-02  0.1325681E+00
         -1   -1    0    0    0  501 -0.00000000000E+00  0.00000000000E+00  0.10343912187E+01  0.10344034972E+01  0.50400000000E-02 0.  1.
          2   -1    0    0  501    0  0.00000000000E+00 -0.00000000000E+00 -0.15935296073E+04  0.15935296073E+04  0.25500000000E-02 0. -1.
         24    2    1    2    0    0 -0.17763568394E-14  0.00000000000E+00 -0.15924952161E+04  0.15945640108E+04  0.81199576934E+02 0.  0.
         66    2    3    3    0    0  0.13479493147E+02  0.10847286758E+02 -0.15174522812E+04  0.15175522350E+04  0.20000001800E+01 0.  0.
        -13    1    3    3    0    0 -0.13479493147E+02 -0.10847286758E+02 -0.75042934905E+02  0.77011775779E+02  0.10566000000E+00 0.  1.
         13    1    4    4    0    0  0.70849885910E+01  0.59615592267E+01 -0.78454844932E+03  0.78460309567E+03  0.10566000000E+00 0. -1.
        -13    1    4    4    0    0  0.21200249161E+01  0.10865081170E+01 -0.25287439969E+03  0.25288564252E+03  0.10566000000E+00 0.  1.
        -14    1    4    4    0    0  0.42744796400E+01  0.37992194145E+01 -0.48002943215E+03  0.48006349682E+03  0.00000000000E+00 0.  1.
<mgrwt>
<rscale>  0 0.81199577E+02</rscale>
<asrwt>0</asrwt>
<pdfrwt beam="1">  1        2 0.24515644E+00 0.81199577E+02</pdfrwt>
<pdfrwt beam="2">  1       -1 0.15913933E-03 0.81199577E+02</pdfrwt>
<totfact> 0.31182364E+05</totfact>
</mgrwt>
</event>
<event>
 8    1  0.1226832E-024  0.7673576E+02  0.7818608E-02  0.1338579E+00
          2   -1    0    0  501    0  0.00000000000E+00  0.00000000000E+00  0.11951016000E+04  0.11951016000E+04  0.25500000000E-02 0. -1.
         -1   -1    0    0    0  501 -0.00000000000E+00 -0.00000000000E+00 -0.12317682288E+01  0.12317785398E+01  0.50400000000E-02 0.  1.
         24    2    1    2    0    0  0.00000000000E+00  0.00000000000E+00  0.11938698318E+04  0.11963333785E+04  0.76735763511E+02 0.  0.
         66    2    3    3    0    0 -0.91238066987E+01 -0.56181865453E+01  0.11712828199E+04  0.11713335358E+04  0.19999961134E+01 0.  0.
        -13    1    3    3    0    0  0.91238066987E+01  0.56181865453E+01  0.22587011862E+02  0.24999842752E+02  0.10566000000E+00 0.  1.
         13    1    4    4    0    0 -0.43917751672E+01 -0.25462487082E+01  0.52083617058E+03  0.52086092080E+03  0.10566000000E+00 0. -1.
        -13    1    4    4    0    0 -0.42482886453E+01 -0.26053290413E+01  0.61015044918E+03  0.61017081010E+03  0.10566000000E+00 0.  1.
        -14    1    4    4    0    0 -0.48374288631E+00 -0.46660879581E+00  0.40296200152E+02  0.40301804893E+02  0.00000000000E+00 0.  1.
<mgrwt>
<rscale>  0 0.76735764E+02</rscale>
<asrwt>0</asrwt>
<pdfrwt beam="1">  1        2 0.18386255E+00 0.76735764E+02</pdfrwt>
<pdfrwt beam="2">  1       -1 0.18950281E-03 0.76735764E+02</pdfrwt>
<totfact> 0.39048267E+05</totfact>
</mgrwt>
</event>
<event>
 8    1  0.1226832E-024  0.8005973E+02  0.7818608E-02  0.1328882E+00
         -1   -1    0    0    0  501 -0.00000000000E+00  0.00000000000E+00  0.33768033714E+02  0.33768034090E+02  0.50400000000E-02 0.  1.
          2   -1    0    0  501    0  0.00000000000E+00 -0.00000000000E+00 -0.47452866754E+02  0.47452866823E+02  0.25500000000E-02 0. -1.
         24    2    1    2    0    0  0.35527136788E-14 -0.35527136788E-14 -0.13684833040E+02  0.81220900913E+02  0.80059728265E+02 0.  0.
         66    2    3    3    0    0 -0.29727979625E+02  0.23289684805E+02 -0.20237467103E+02  0.42891925345E+02  0.19999985307E+01 0.  0.
        -13    1    3    3    0    0  0.29727979625E+02 -0.23289684805E+02  0.65526340630E+01  0.38328975568E+02  0.10566000000E+00 0.  1.
         13    1    4    4    0    0 -0.69041358938E+00  0.59847617237E+00 -0.70033730468E+00  0.11560627272E+01  0.10566000000E+00 0. -1.
        -13    1    4    4    0    0 -0.12272031151E+02  0.93123086764E+01 -0.89358577118E+01  0.17809619831E+02  0.10566000000E+00 0.  1.
         14    1    4    4    0    0 -0.16765534885E+02  0.13378899956E+02 -0.10601272087E+02  0.23926242786E+02  0.00000000000E+00 0. -1.
<mgrwt>
<rscale>  0 0.80059728E+02</rscale>
<asrwt>0</asrwt>
<pdfrwt beam="1">  1        2 0.73004411E-02 0.80059728E+02</pdfrwt>
<pdfrwt beam="2">  1       -1 0.51950821E-02 0.80059728E+02</pdfrwt>
<totfact> 0.14744942E+05</totfact>
</mgrwt>
</event>
<event>
 8    1  0.1226832E-024  0.7972635E+02  0.7818608E-02  0.1329830E+00
          2   -1    0    0  501    0  0.00000000000E+00  0.00000000000E+00  0.43501104857E+03  0.43501104858E+03  0.25500000000E-02 0. -1.
         -1   -1    0    0    0  501 -0.00000000000E+00 -0.00000000000E+00 -0.36529465570E+01  0.36529500338E+01  0.50400000000E-02 0.  1.
         24    2    1    2    0    0  0.17763568394E-14 -0.71054273576E-14  0.43135810201E+03  0.43866399861E+03  0.79726353895E+02 0.  0.
         66    2    3    3    0    0  0.11360515368E+02  0.38163353161E+02  0.22269775176E+03  0.22623835099E+03  0.19999968823E+01 0.  0.
        -13    1    3    3    0    0 -0.11360515368E+02 -0.38163353161E+02  0.20866035025E+03  0.21242564762E+03  0.10566000000E+00 0.  1.
         13    1    4    4    0    0  0.50831327817E+01  0.16240741336E+02  0.94118205162E+02  0.95644381042E+02  0.10566000000E+00 0. -1.
        -13    1    4    4    0    0  0.17336628346E+01  0.45166894356E+01  0.25043465249E+02  0.25506712567E+02  0.10566000000E+00 0.  1.
         14    1    4    4    0    0  0.45437197519E+01  0.17405922390E+02  0.10353608135E+03  0.10508725738E+03  0.00000000000E+00 0. -1.
<mgrwt>
<rscale>  0 0.79726354E+02</rscale>
<asrwt>0</asrwt>
<pdfrwt beam="1">  1        2 0.66924746E-01 0.79726354E+02</pdfrwt>
<pdfrwt beam="2">  1       -1 0.56199230E-03 0.79726354E+02</pdfrwt>
<totfact> 0.29344826E+05</totfact>
</mgrwt>
</event>
<event>
 8    1  0.1226832E-024  0.8121554E+02  0.7818608E-02  0.1325637E+00
         -1   -1    0    0    0  501 -0.00000000000E+00  0.00000000000E+00  0.25454282737E+01  0.25454332634E+01  0.50400000000E-02 0.  1.
          2   -1    0    0  501    0  0.00000000000E+00 -0.00000000000E+00 -0.64782388285E+03  0.64782388286E+03  0.25500000000E-02 0. -1.
         24    2    1    2    0    0  0.00000000000E+00  0.00000000000E+00 -0.64527845458E+03  0.65036931612E+03  0.81215536740E+02 0.  0.
         66    2    3    3    0    0 -0.19219745671E+02 -0.17615778182E+02 -0.57188927092E+03  0.57248672688E+03  0.19999992675E+01 0.  0.
        -13    1    3    3    0    0  0.19219745671E+02  0.17615778182E+02 -0.73389183663E+02  0.77882589244E+02  0.10566000000E+00 0.  1.
         13    1    4    4    0    0 -0.89695834623E+01 -0.84040251417E+01 -0.26462637481E+03  0.26491170317E+03  0.10566000000E+00 0. -1.
        -13    1    4    4    0    0 -0.89033960546E+01 -0.76559611232E+01 -0.27019399559E+03  0.27044905365E+03  0.10566000000E+00 0.  1.
         14    1    4    4    0    0 -0.13467661539E+01 -0.15557919168E+01 -0.37068900517E+02  0.37125970063E+02  0.00000000000E+00 0. -1.
<mgrwt>
<rscale>  0 0.81215537E+02</rscale>
<asrwt>0</asrwt>
<pdfrwt beam="1">  1        2 0.99665082E-01 0.81215537E+02</pdfrwt>
<pdfrwt beam="2">  1       -1 0.39160525E-03 0.81215537E+02</pdfrwt>
<totfact> 0.31565704E+05</totfact>
</mgrwt>
</event>
<event>
 8    1  0.1226832E-024  0.8410658E+02  0.7818608E-02  0.1317786E+00
          2   -1    0    0  501    0  0.00000000000E+00  0.00000000000E+00  0.26022167639E+03  0.26022167640E+03  0.25500000000E-02 0. -1.
         -1   -1    0    0    0  501 -0.00000000000E+00 -0.00000000000E+00 -0.67960470975E+01  0.67960489663E+01  0.50400000000E-02 0.  1.
         24    2    1    2    0    0 -0.88817841970E-15  0.71054273576E-14  0.25342562929E+03  0.26701772537E+03  0.84106575717E+02 0.  0.
         66    2    3    3    0    0  0.57109907292E+01 -0.40148670295E+02  0.16184236090E+03  0.16685766669E+03  0.20000022852E+01 0.  0.
        -13    1    3    3    0    0 -0.57109907292E+01  0.40148670295E+02  0.91583268391E+02  0.10016005868E+03  0.10566000000E+00 0.  1.
         13    1    4    4    0    0  0.13522656404E+01 -0.95036886092E+01  0.39545917805E+02  0.40694465209E+02  0.10566000000E+00 0. -1.
        -13    1    4    4    0    0  0.34288200078E+01 -0.26162803109E+02  0.10614462657E+03  0.10937523480E+03  0.10566000000E+00 0.  1.
        -14    1    4    4    0    0  0.92990508101E+00 -0.44821785764E+01  0.16151816520E+02  0.16787966677E+02  0.00000000000E+00 0.  1.
<mgrwt>
<rscale>  0 0.84106576E+02</rscale>
<asrwt>0</asrwt>
<pdfrwt beam="1">  1        2 0.40034104E-01 0.84106576E+02</pdfrwt>
<pdfrwt beam="2">  1       -1 0.10455459E-02 0.84106576E+02</pdfrwt>
<totfact> 0.21223481E+05</totfact>
</mgrwt>
</event>
<event>
 8    1  0.1226832E-024  0.8215615E+02  0.7818608E-02  0.1323042E+00
         -1   -1    0    0    0  501 -0.00000000000E+00  0.00000000000E+00  0.37169907765E+02  0.37169908106E+02  0.50400000000E-02 0.  1.
          2   -1    0    0  501    0  0.00000000000E+00 -0.00000000000E+00 -0.45397158073E+02  0.45397158145E+02  0.25500000000E-02 0. -1.
         24    2    1    2    0    0  0.00000000000E+00  0.00000000000E+00 -0.82272503083E+01  0.82567066251E+02  0.82156148776E+02 0.  0.
         66    2    3    3    0    0 -0.39231779575E+02 -0.62303959370E+01 -0.14533849335E+02  0.42345993198E+02  0.20000003237E+01 0.  0.
        -13    1    3    3    0    0  0.39231779575E+02  0.62303959370E+01  0.63065990265E+01  0.40221073053E+02  0.10566000000E+00 0.  1.
         13    1    4    4    0    0 -0.29006225257E+02 -0.50471624722E+01 -0.10891451329E+02  0.31392193755E+02  0.10566000000E+00 0. -1.
        -13    1    4    4    0    0 -0.17108571799E+01 -0.22345483645E+00 -0.29027523704E+00  0.17528228955E+01  0.10566000000E+00 0.  1.
        -14    1    4    4    0    0 -0.85146971389E+01 -0.95977862835E+00 -0.33521227687E+01  0.92009765482E+01  0.00000000000E+00 0.  1.
<mgrwt>
<rscale>  0 0.82156149E+02</rscale>
<asrwt>0</asrwt>
<pdfrwt beam="1">  1        2 0.69841782E-02 0.82156149E+02</pdfrwt>
<pdfrwt beam="2">  1       -1 0.57184474E-02 0.82156149E+02</pdfrwt>
<totfact> 0.13602328E+05</totfact>
</mgrwt>
</event>
<event>
 8    1  0.1226832E-024  0.7901447E+02  0.7818608E-02  0.1331872E+00
          2   -1    0    0  501    0  0.00000000000E+00  0.00000000000E+00  0.55485679147E+02  0.55485679205E+02  0.25500000000E-02 0. -1.
         -1   -1    0    0    0  501 -0.00000000000E+00 -0.00000000000E+00 -0.28130169593E+02  0.28130170045E+02  0.50400000000E-02 0.  1.
         24    2    1    2    0    0  0.00000000000E+00  0.00000000000E+00  0.27355509553E+02  0.83615849250E+02  0.79014469200E+02 0.  0.
         66    2    3    3    0    0  0.21895653968E+02 -0.18904515583E+02  0.42121639979E+02  0.51137392638E+02  0.19999998053E+01 0.  0.
        -13    1    3    3    0    0 -0.21895653968E+02  0.18904515583E+02 -0.14766130426E+02  0.32478456612E+02  0.10566000000E+00 0.  1.
         13    1    4    4    0    0  0.68345288506E+01 -0.52078794330E+01  0.13588393632E+02  0.16077574392E+02  0.10566000000E+00 0. -1.
        -13    1    4    4    0    0  0.52196299121E+01 -0.42659714608E+01  0.94946688520E+01  0.11644867950E+02  0.10566000000E+00 0.  1.
        -14    1    4    4    0    0  0.98414952050E+01 -0.94306646894E+01  0.19038577494E+02  0.23414950296E+02  0.00000000000E+00 0.  1.
<mgrwt>
<rscale>  0 0.79014469E+02</rscale>
<asrwt>0</asrwt>
<pdfrwt beam="1">  1        2 0.85362583E-02 0.79014469E+02</pdfrwt>
<pdfrwt beam="2">  1       -1 0.43277185E-02 0.79014469E+02</pdfrwt>
<totfact> 0.15816730E+05</totfact>
</mgrwt>
</event>
<event>
 8    1  0.1226832E-024  0.8012091E+02  0.7818608E-02  0.1328709E+00
         -1   -1    0    0    0  501 -0.00000000000E+00  0.00000000000E+00  0.97765264943E+02  0.97765265072E+02  0.50400000000E-02 0.  1.
          2   -1    0    0  501    0  0.00000000000E+00 -0.00000000000E+00 -0.16415238903E+02  0.16415239101E+02  0.25500000000E-02 0. -1.
         24    2    1    2    0    0 -0.71054273576E-14  0.00000000000E+00  0.81350026040E+02  0.11418050417E+03  0.80120913604E+02 0.  0.
         66    2    3    3    0    0  0.37188464048E+02  0.10116951582E+02  0.25252502003E+02  0.46119664224E+02  0.20000008067E+01 0.  0.
        -13    1    3    3    0    0 -0.37188464048E+02 -0.10116951582E+02  0.56097524037E+02  0.68060839949E+02  0.10566000000E+00 0.  1.
         13    1    4    4    0    0  0.42838734213E+01  0.77584789188E+00  0.26698256727E+01  0.51080959857E+01  0.10566000000E+00 0. -1.
        -13    1    4    4    0    0  0.14404374739E+02  0.40529013442E+01  0.90471136691E+01  0.17486379005E+02  0.10566000000E+00 0.  1.
         14    1    4    4    0    0  0.18500215888E+02  0.52882023458E+01  0.13535562661E+02  0.23525189234E+02  0.00000000000E+00 0. -1.
<mgrwt>
<rscale>  0 0.80120914E+02</rscale>
<asrwt>0</asrwt>
<pdfrwt beam="1">  1        2 0.25254214E-02 0.80120914E+02</pdfrwt>
<pdfrwt beam="2">  1       -1 0.15040810E-01 0.80120914E+02</pdfrwt>
<totfact> 0.11865633E+05</totfact>
</mgrwt>
</event>
<event>
 8    1  0.1226832E-024  0.7931291E+02  0.7818608E-02  0.1331013E+00
         -1   -1    0    0    0  501 -0.00000000000E+00  0.00000000000E+00  0.42965110932E+01  0.42965140493E+01  0.50400000000E-02 0.  1.
          2   -1    0    0  501    0  0.00000000000E+00 -0.00000000000E+00 -0.36602578716E+03  0.36602578717E+03  0.25500000000E-02 0. -1.
         24    2    1    2    0    0  0.00000000000E+00  0.17763568394E-14 -0.36172927607E+03  0.37032230122E+03  0.79312909515E+02 0.  0.
         66    2    3    3    0    0 -0.69549169187E+01 -0.15600407986E+02 -0.34795448774E+03  0.34837920308E+03  0.19999992050E+01 0.  0.
        -13    1    3    3    0    0  0.69549169187E+01  0.15600407986E+02 -0.13774788324E+02  0.21943098143E+02  0.10566000000E+00 0.  1.
         13    1    4    4    0    0 -0.12497343824E+01 -0.20895618865E+01 -0.47692857402E+02  0.47755082621E+02  0.10566000000E+00 0. -1.
        -13    1    4    4    0    0 -0.20421831065E+01 -0.53002648860E+01 -0.13253368696E+03  0.13265539063E+03  0.10566000000E+00 0.  1.
         14    1    4    4    0    0 -0.36629994298E+01 -0.82105812137E+01 -0.16772794338E+03  0.16796872982E+03  0.00000000000E+00 0. -1.
<mgrwt>
<rscale>  0 0.79312910E+02</rscale>
<asrwt>0</asrwt>
<pdfrwt beam="1">  1        2 0.56311635E-01 0.79312910E+02</pdfrwt>
<pdfrwt beam="2">  1       -1 0.66100223E-03 0.79312910E+02</pdfrwt>
<totfact> 0.28006701E+05</totfact>
</mgrwt>
</event>
<event>
 8    1  0.1226832E-024  0.8058141E+02  0.7818608E-02  0.1327410E+00
         -1   -1    0    0    0  501 -0.00000000000E+00  0.00000000000E+00  0.55104591180E+01  0.55104614229E+01  0.50400000000E-02 0.  1.
          2   -1    0    0  501    0  0.00000000000E+00 -0.00000000000E+00 -0.29459259700E+03  0.29459259701E+03  0.25500000000E-02 0. -1.
         24    2    1    2    0    0 -0.35527136788E-14 -0.17763568394E-14 -0.28908213788E+03  0.30010305843E+03  0.80581407527E+02 0.  0.
         66    2    3    3    0    0 -0.23389516332E+02 -0.12705392577E+02 -0.25715064467E+03  0.25853230071E+03  0.19999956734E+01 0.  0.
        -13    1    3    3    0    0  0.23389516332E+02  0.12705392577E+02 -0.31931493213E+02  0.41570757722E+02  0.10566000000E+00 0.  1.
         13    1    4    4    0    0 -0.14242769406E+02 -0.77973880517E+01 -0.16272144745E+03  0.16352961922E+03  0.10566000000E+00 0. -1.
        -13    1    4    4    0    0 -0.12121544357E+00 -0.34183292742E-01 -0.13290934466E+01  0.13392218288E+01  0.10566000000E+00 0. -1.
         14    1    4    4    0    0 -0.90255314821E+01 -0.48738212326E+01 -0.93100103776E+02  0.93663459658E+02  0.00000000000E+00 0. -1.
<mgrwt>
<rscale>  0 0.80581408E+02</rscale>
<asrwt>0</asrwt>
<pdfrwt beam="1">  1        2 0.45321926E-01 0.80581408E+02</pdfrwt>
<pdfrwt beam="2">  1       -1 0.84776335E-03 0.80581408E+02</pdfrwt>
<totfact> 0.24850510E+05</totfact>
</mgrwt>
</event>
<event>
 8    1  0.1300094E-024  0.8971356E+02  0.7818608E-02  0.1303547E+00
         -1   -1    0    0    0  501 -0.00000000000E+00  0.00000000000E+00  0.73192564993E+00  0.73194300230E+00  0.50400000000E-02 0.  1.
          2   -1    0    0  501    0  0.00000000000E+00 -0.00000000000E+00 -0.27490591531E+04  0.27490591531E+04  0.25500000000E-02 0. -1.
         24    2    1    2    0    0  0.88817841970E-15  0.88817841970E-15 -0.27483272275E+04  0.27497910961E+04  0.89713561219E+02 0.  0.
         66    2    3    3    0    0 -0.76646094844E+01 -0.64609588683E+01 -0.27142648309E+04  0.27142840792E+04  0.19999990074E+01 0.  0.
        -13    1    3    3    0    0  0.76646094844E+01  0.64609588683E+01 -0.34062396530E+02  0.35507016904E+02  0.10566000000E+00 0.  1.
         13    1    4    4    0    0 -0.25883282340E+01 -0.19240847230E+01 -0.74492821461E+03  0.74493520365E+03  0.10566000000E+00 0. -1.
        -13    1    4    4    0    0 -0.32668263457E+01 -0.20026795436E+01 -0.11075910675E+04  0.11075977008E+04  0.10566000000E+00 0.  1.
        -14    1    4    4    0    0 -0.18094549047E+01 -0.25341946017E+01 -0.86174554880E+03  0.86175117472E+03  0.00000000000E+00 0.  1.
<mgrwt>
<rscale>  0 0.89713561E+02</rscale>
<asrwt>0</asrwt>
<pdfrwt beam="1">  1        2 0.42292391E+00 0.89713561E+02</pdfrwt>
<pdfrwt beam="2">  1       -1 0.11260748E-03 0.89713561E+02</pdfrwt>
<totfact> 0.13017519E+05</totfact>
</mgrwt>
</event>
<event>
 8    1  0.1226832E-024  0.7751485E+02  0.7818608E-02  0.1336256E+00
          2   -1    0    0  501    0  0.00000000000E+00  0.00000000000E+00  0.24940023067E+02  0.24940023198E+02  0.25500000000E-02 0. -1.
         -1   -1    0    0    0  501 -0.00000000000E+00 -0.00000000000E+00 -0.60230020693E+02  0.60230020904E+02  0.50400000000E-02 0.  1.
         24    2    1    2    0    0 -0.17763568394E-14 -0.35527136788E-14 -0.35289997625E+02  0.85170044101E+02  0.77514853285E+02 0.  0.
         66    2    3    3    0    0  0.78845762764E+01  0.15553167910E+02  0.20342924228E+02  0.26868236813E+02  0.20000020512E+01 0.  0.
        -13    1    3    3    0    0 -0.78845762764E+01 -0.15553167910E+02 -0.55632921853E+02  0.58301807288E+02  0.10566000000E+00 0.  1.
         13    1    4    4    0    0  0.53218481453E+01  0.87195098668E+01  0.11954302738E+02  0.15724771477E+02  0.10566000000E+00 0.  1.
        -13    1    4    4    0    0  0.24093242268E+01  0.57931859403E+01  0.73663716385E+01  0.96767991465E+01  0.10566000000E+00 0. -1.
         14    1    4    4    0    0  0.15340390435E+00  0.10404721025E+01  0.10222498512E+01  0.14666661898E+01  0.00000000000E+00 0. -1.
<mgrwt>
<rscale>  0 0.77514853E+02</rscale>
<asrwt>0</asrwt>
<pdfrwt beam="1">  1        2 0.38369267E-02 0.77514853E+02</pdfrwt>
<pdfrwt beam="2">  1       -1 0.92661570E-02 0.77514853E+02</pdfrwt>
<totfact> 0.14183505E+05</totfact>
</mgrwt>
</event>
<event>
 8    1  0.1226832E-024  0.7975120E+02  0.7818608E-02  0.1329759E+00
          2   -1    0    0  501    0  0.00000000000E+00  0.00000000000E+00  0.14103935447E+02  0.14103935677E+02  0.25500000000E-02 0. -1.
         -1   -1    0    0    0  501 -0.00000000000E+00 -0.00000000000E+00 -0.11273898490E+03  0.11273898501E+03  0.50400000000E-02 0.  1.
         24    2    1    2    0    0  0.00000000000E+00  0.00000000000E+00 -0.98635049450E+02  0.12684292069E+03  0.79751197787E+02 0.  0.
         66    2    3    3    0    0  0.62196607023E+01 -0.27453688515E+02 -0.44847319423E+01  0.28574499294E+02  0.19999992439E+01 0.  0.
        -13    1    3    3    0    0 -0.62196607023E+01  0.27453688515E+02 -0.94150317508E+02  0.98268421394E+02  0.10566000000E+00 0.  1.
         13    1    4    4    0    0  0.16732438511E+01 -0.53872023253E+01 -0.60540645820E+00  0.56744493031E+01  0.10566000000E+00 0. -1.
        -13    1    4    4    0    0  0.87698933955E+00 -0.24397782270E+01 -0.63595696028E+00  0.26715601040E+01  0.10566000000E+00 0.  1.
        -14    1    4    4    0    0  0.36694275116E+01 -0.19626707962E+02 -0.32433685238E+01  0.20228489886E+02  0.00000000000E+00 0.  1.
<mgrwt>
<rscale>  0 0.79751198E+02</rscale>
<asrwt>0</asrwt>
<pdfrwt beam="1">  1        2 0.21698363E-02 0.79751198E+02</pdfrwt>
<pdfrwt beam="2">  1       -1 0.17344459E-01 0.79751198E+02</pdfrwt>
<totfact> 0.11636709E+05</totfact>
</mgrwt>
</event>
<event>
 8    1  0.1226832E-024  0.7963809E+02  0.7818608E-02  0.1330082E+00
          2   -1    0    0  501    0  0.00000000000E+00  0.00000000000E+00  0.38191125897E+03  0.38191125898E+03  0.25500000000E-02 0. -1.
         -1   -1    0    0    0  501 -0.00000000000E+00 -0.00000000000E+00 -0.41516337350E+01  0.41516367942E+01  0.50400000000E-02 0.  1.
         24    2    1    2    0    0  0.00000000000E+00  0.00000000000E+00  0.37775962523E+03  0.38606289577E+03  0.79638087840E+02 0.  0.
         66    2    3    3    0    0 -0.35466384916E+02  0.33566828677E+01  0.27495773182E+03  0.27726320721E+03  0.20000006226E+01 0.  0.
        -13    1    3    3    0    0  0.35466384916E+02 -0.33566828677E+01  0.10280189341E+03  0.10879968856E+03  0.10566000000E+00 0.  1.
         13    1    4    4    0    0 -0.14006750301E+02  0.17637506804E+01  0.10672835472E+03  0.10765803610E+03  0.10566000000E+00 0. -1.
        -13    1    4    4    0    0 -0.49270852022E+01  0.54521461061E+00  0.42971381068E+02  0.43256492952E+02  0.10566000000E+00 0.  1.
         14    1    4    4    0    0 -0.16532549413E+02  0.10477175767E+01  0.12525799603E+03  0.12634867816E+03  0.00000000000E+00 0. -1.
<mgrwt>
<rscale>  0 0.79638088E+02</rscale>
<asrwt>0</asrwt>
<pdfrwt beam="1">  1        2 0.58755567E-01 0.79638088E+02</pdfrwt>
<pdfrwt beam="2">  1       -1 0.63871324E-03 0.79638088E+02</pdfrwt>
<totfact> 0.28128905E+05</totfact>
</mgrwt>
</event>
<event>
 8    1  0.1226832E-024  0.7917546E+02  0.7818608E-02  0.1331408E+00
          2   -1    0    0  501    0  0.00000000000E+00  0.00000000000E+00  0.46302361895E+02  0.46302361965E+02  0.25500000000E-02 0. -1.
         -1   -1    0    0    0  501 -0.00000000000E+00 -0.00000000000E+00 -0.33846829937E+02  0.33846830312E+02  0.50400000000E-02 0.  1.
         24    2    1    2    0    0  0.00000000000E+00 -0.88817841970E-15  0.12455531958E+02  0.80149192277E+02  0.79175455454E+02 0.  0.
         66    2    3    3    0    0  0.84446099683E+01 -0.76574082644E+01  0.44582157547E+02  0.46059918677E+02  0.19999995505E+01 0.  0.
        -13    1    3    3    0    0 -0.84446099683E+01  0.76574082644E+01 -0.32126625588E+02  0.34089273600E+02  0.10566000000E+00 0.  1.
         13    1    4    4    0    0  0.22132684028E+01 -0.20152909171E+01  0.10351750264E+02  0.10776356160E+02  0.10566000000E+00 0. -1.
        -13    1    4    4    0    0  0.59020252468E+01 -0.46623363188E+01  0.29975455257E+02  0.30904859874E+02  0.10566000000E+00 0.  1.
         14    1    4    4    0    0  0.32931631864E+00 -0.97978102846E+00  0.42549520253E+01  0.43787026434E+01  0.00000000000E+00 0. -1.
<mgrwt>
<rscale>  0 0.79175455E+02</rscale>
<asrwt>0</asrwt>
<pdfrwt beam="1">  1        2 0.71234402E-02 0.79175455E+02</pdfrwt>
<pdfrwt beam="2">  1       -1 0.52072047E-02 0.79175455E+02</pdfrwt>
<totfact> 0.15121966E+05</totfact>
</mgrwt>
</event>
<event>
 8    1  0.1226832E-024  0.7896057E+02  0.7818608E-02  0.1332027E+00
          2   -1    0    0  501    0  0.00000000000E+00  0.00000000000E+00  0.32604615748E+03  0.32604615749E+03  0.25500000000E-02 0. -1.
         -1   -1    0    0    0  501 -0.00000000000E+00 -0.00000000000E+00 -0.47805878237E+01  0.47805904805E+01  0.50400000000E-02 0.  1.
         24    2    1    2    0    0 -0.35527136788E-14  0.00000000000E+00  0.32126556966E+03  0.33082674797E+03  0.78960565640E+02 0.  0.
         66    2    3    3    0    0 -0.18820718428E+02 -0.14732568718E+02  0.29225833915E+03  0.29324086487E+03  0.20000000381E+01 0.  0.
        -13    1    3    3    0    0  0.18820718428E+02  0.14732568718E+02  0.29007230503E+02  0.37585883104E+02  0.10566000000E+00 0.  1.
         13    1    4    4    0    0 -0.37924599776E+01 -0.30184034091E+01  0.55223349828E+02  0.55435755989E+02  0.10566000000E+00 0. -1.
        -13    1    4    4    0    0 -0.55704569908E+00 -0.14794035425E+00  0.59779354137E+01  0.60065848954E+01  0.10566000000E+00 0.  1.
        -14    1    4    4    0    0 -0.14471212751E+02 -0.11566224955E+02  0.23105705391E+03  0.23179852398E+03  0.00000000000E+00 0.  1.
<mgrwt>
<rscale>  0 0.78960566E+02</rscale>
<asrwt>0</asrwt>
<pdfrwt beam="1">  1        2 0.50160960E-01 0.78960566E+02</pdfrwt>
<pdfrwt beam="2">  1       -1 0.73547507E-03 0.78960566E+02</pdfrwt>
<totfact> 0.27187724E+05</totfact>
</mgrwt>
</event>
<event>
 8    1  0.1226832E-024  0.8065314E+02  0.7818608E-02  0.1327208E+00
          2   -1    0    0  501    0  0.00000000000E+00  0.00000000000E+00  0.45897881236E+03  0.45897881237E+03  0.25500000000E-02 0. -1.
         -1   -1    0    0    0  501 -0.00000000000E+00 -0.00000000000E+00 -0.35431511629E+01  0.35431547475E+01  0.50400000000E-02 0.  1.
         24    2    1    2    0    0  0.00000000000E+00  0.00000000000E+00  0.45543566120E+03  0.46252196711E+03  0.80653137406E+02 0.  0.
         66    2    3    3    0    0 -0.18148862595E+02  0.18883860002E+02  0.40351606496E+03  0.40437012260E+03  0.19999988148E+01 0.  0.
        -13    1    3    3    0    0  0.18148862595E+02 -0.18883860002E+02  0.51919596239E+02  0.58151844509E+02  0.10566000000E+00 0.  1.
         13    1    4    4    0    0 -0.10931473469E+02  0.10823336632E+02  0.22543377535E+03  0.22595804911E+03  0.10566000000E+00 0. -1.
        -13    1    4    4    0    0 -0.39581149405E+01  0.46726579688E+01  0.10566377214E+03  0.10584112771E+03  0.10566000000E+00 0.  1.
        -14    1    4    4    0    0 -0.32592741849E+01  0.33878654019E+01  0.72418517466E+02  0.72570945785E+02  0.00000000000E+00 0.  1.
<mgrwt>
<rscale>  0 0.80653137E+02</rscale>
<asrwt>0</asrwt>
<pdfrwt beam="1">  1        2 0.70612130E-01 0.80653137E+02</pdfrwt>
<pdfrwt beam="2">  1       -1 0.54510042E-03 0.80653137E+02</pdfrwt>
<totfact> 0.28991692E+05</totfact>
</mgrwt>
</event>
<event>
 8    1  0.1226832E-024  0.8002754E+02  0.7818608E-02  0.1328973E+00
         -1   -1    0    0    0  501 -0.00000000000E+00  0.00000000000E+00  0.14720342620E+02  0.14720343483E+02  0.50400000000E-02 0.  1.
          2   -1    0    0  501    0  0.00000000000E+00 -0.00000000000E+00 -0.10876795359E+03  0.10876795362E+03  0.25500000000E-02 0. -1.
         24    2    1    2    0    0  0.71054273576E-14  0.17763568394E-14 -0.94047610968E+02  0.12348829710E+03  0.80027535212E+02 0.  0.
         66    2    3    3    0    0  0.38690980810E+02  0.91339671290E+01 -0.40384717908E+02  0.56704027941E+02  0.19999981748E+01 0.  0.
        -13    1    3    3    0    0 -0.38690980810E+02 -0.91339671290E+01 -0.53662893060E+02  0.66784269160E+02  0.10566000000E+00 0.  1.
         13    1    4    4    0    0  0.17577208044E+02  0.34248661609E+01 -0.18495404601E+02  0.25744496621E+02  0.10566000000E+00 0. -1.
        -13    1    4    4    0    0  0.66514541798E+01  0.17046695596E+01 -0.62599379076E+01  0.92922401851E+01  0.10566000000E+00 0.  1.
         14    1    4    4    0    0  0.14462318586E+02  0.40044314084E+01 -0.15629375399E+02  0.21667291135E+02  0.00000000000E+00 0. -1.
<mgrwt>
<rscale>  0 0.80027535E+02</rscale>
<asrwt>0</asrwt>
<pdfrwt beam="1">  1        2 0.16733531E-01 0.80027535E+02</pdfrwt>
<pdfrwt beam="2">  1       -1 0.22646682E-02 0.80027535E+02</pdfrwt>
<totfact> 0.18137824E+05</totfact>
</mgrwt>
</event>
<event>
 8    1  0.1226832E-024  0.8077141E+02  0.7818608E-02  0.1326876E+00
         -1   -1    0    0    0  501 -0.00000000000E+00  0.00000000000E+00  0.24882916207E+01  0.24882967249E+01  0.50400000000E-02 0.  1.
          2   -1    0    0  501    0  0.00000000000E+00 -0.00000000000E+00 -0.65547113465E+03  0.65547113466E+03  0.25500000000E-02 0. -1.
         24    2    1    2    0    0  0.00000000000E+00  0.00000000000E+00 -0.65298284303E+03  0.65795943138E+03  0.80771406148E+02 0.  0.
         66    2    3    3    0    0 -0.86901901116E+01  0.30685354583E+02 -0.52819242179E+03  0.52915814727E+03  0.20000002363E+01 0.  0.
        -13    1    3    3    0    0  0.86901901116E+01 -0.30685354583E+02 -0.12479042125E+03  0.12880128411E+03  0.10566000000E+00 0.  1.
         13    1    4    4    0    0 -0.13247076734E+01  0.49186294192E+01 -0.76866184102E+02  0.77034856969E+02  0.10566000000E+00 0. -1.
        -13    1    4    4    0    0 -0.14343216533E+01  0.61052447262E+01 -0.11419393565E+03  0.11436606750E+03  0.10566000000E+00 0.  1.
         14    1    4    4    0    0 -0.59311607848E+01  0.19661480437E+02 -0.33713230203E+03  0.33775722280E+03  0.00000000000E+00 0. -1.
<mgrwt>
<rscale>  0 0.80771406E+02</rscale>
<asrwt>0</asrwt>
<pdfrwt beam="1">  1        2 0.10084158E+00 0.80771406E+02</pdfrwt>
<pdfrwt beam="2">  1       -1 0.38281501E-03 0.80771406E+02</pdfrwt>
<totfact> 0.32115144E+05</totfact>
</mgrwt>
</event>
<event>
 8    1  0.1226832E-024  0.7569862E+02  0.7818608E-02  0.1341721E+00
          2   -1    0    0  501    0  0.00000000000E+00  0.00000000000E+00  0.96835503816E+01  0.96835507173E+01  0.25500000000E-02 0. -1.
         -1   -1    0    0    0  501 -0.00000000000E+00 -0.00000000000E+00 -0.14793853113E+03  0.14793853122E+03  0.50400000000E-02 0.  1.
         24    2    1    2    0    0 -0.35527136788E-14  0.00000000000E+00 -0.13825498075E+03  0.15762208194E+03  0.75698619613E+02 0.  0.
         66    2    3    3    0    0  0.20109164712E+02 -0.17371692192E+02 -0.13132572094E+02  0.29708898459E+02  0.20000007023E+01 0.  0.
        -13    1    3    3    0    0 -0.20109164712E+02  0.17371692192E+02 -0.12512240866E+03  0.12791318348E+03  0.10566000000E+00 0.  1.
         13    1    4    4    0    0  0.16899668014E+02 -0.14779608360E+02 -0.10967656671E+02  0.24986721657E+02  0.10566000000E+00 0. -1.
        -13    1    4    4    0    0  0.30181342040E+01 -0.21924183201E+01 -0.20752173375E+01  0.42700729733E+01  0.10566000000E+00 0.  1.
         14    1    4    4    0    0  0.19136249388E+00 -0.39966551179E+00 -0.89698084957E-01  0.45210382858E+00  0.00000000000E+00 0. -1.
<mgrwt>
<rscale>  0 0.75698620E+02</rscale>
<asrwt>0</asrwt>
<pdfrwt beam="1">  1        2 0.14897771E-02 0.75698620E+02</pdfrwt>
<pdfrwt beam="2">  1       -1 0.22759773E-01 0.75698620E+02</pdfrwt>
<totfact> 0.12446249E+05</totfact>
</mgrwt>
</event>
<event>
 8    1  0.1226832E-024  0.7184125E+02  0.7818608E-02  0.1353941E+00
         -1   -1    0    0    0  501 -0.00000000000E+00  0.00000000000E+00  0.13487628729E+02  0.13487629670E+02  0.50400000000E-02 0.  1.
          2   -1    0    0  501    0  0.00000000000E+00 -0.00000000000E+00 -0.95664796114E+02  0.95664796148E+02  0.25500000000E-02 0. -1.
         24    2    1    2    0    0  0.00000000000E+00  0.00000000000E+00 -0.82177167386E+02  0.10915242582E+03  0.71841250146E+02 0.  0.
         66    2    3    3    0    0  0.28322272007E+02  0.20973309480E+02 -0.30786966622E+02  0.46838745934E+02  0.20000011685E+01 0.  0.
        -13    1    3    3    0    0 -0.28322272007E+02 -0.20973309480E+02 -0.51390200764E+02  0.62313679885E+02  0.10566000000E+00 0.  1.
         13    1    4    4    0    0  0.68679110339E+01  0.50075606515E+01 -0.66438696972E+01  0.10788699377E+02  0.10566000000E+00 0.  1.
        -13    1    4    4    0    0  0.14254623274E+02  0.10173381671E+02 -0.16428963604E+02  0.24012788019E+02  0.10566000000E+00 0. -1.
        -14    1    4    4    0    0  0.71997376991E+01  0.57923671578E+01 -0.77141333204E+01  0.12037258538E+02  0.00000000000E+00 0.  1.
<mgrwt>
<rscale>  0 0.71841250E+02</rscale>
<asrwt>0</asrwt>
<pdfrwt beam="1">  1        2 0.14717661E-01 0.71841250E+02</pdfrwt>
<pdfrwt beam="2">  1       -1 0.20750200E-02 0.71841250E+02</pdfrwt>
<totfact> 0.23315433E+05</totfact>
</mgrwt>
</event>
<event>
 8    1  0.1226832E-024  0.7839969E+02  0.7818608E-02  0.1333655E+00
          2   -1    0    0  501    0  0.00000000000E+00  0.00000000000E+00  0.64140775754E+02  0.64140775805E+02  0.25500000000E-02 0. -1.
         -1   -1    0    0    0  501 -0.00000000000E+00 -0.00000000000E+00 -0.23957114129E+02  0.23957114659E+02  0.50400000000E-02 0.  1.
         24    2    1    2    0    0 -0.17763568394E-14  0.00000000000E+00  0.40183661625E+02  0.88097890464E+02  0.78399691597E+02 0.  0.
         66    2    3    3    0    0 -0.81551985309E+01 -0.36816434330E+02  0.32032312759E+02  0.49517937739E+02  0.19999993352E+01 0.  0.
        -13    1    3    3    0    0  0.81551985309E+01  0.36816434330E+02  0.81513488661E+01  0.38579952725E+02  0.10566000000E+00 0.  1.
         13    1    4    4    0    0 -0.40008119635E+01 -0.20949922924E+02  0.18225906583E+02  0.28055313252E+02  0.10566000000E+00 0. -1.
        -13    1    4    4    0    0 -0.31824839005E+01 -0.12523384379E+02  0.10339385204E+02  0.16549241992E+02  0.10566000000E+00 0.  1.
        -14    1    4    4    0    0 -0.97190266687E+00 -0.33431270277E+01  0.34670209716E+01  0.49133824942E+01  0.00000000000E+00 0.  1.
<mgrwt>
<rscale>  0 0.78399692E+02</rscale>
<asrwt>0</asrwt>
<pdfrwt beam="1">  1        2 0.98678116E-02 0.78399692E+02</pdfrwt>
<pdfrwt beam="2">  1       -1 0.36857099E-02 0.78399692E+02</pdfrwt>
<totfact> 0.16701114E+05</totfact>
</mgrwt>
</event>
<event>
 8    1  0.1226832E-024  0.7901850E+02  0.7818608E-02  0.1331860E+00
          2   -1    0    0  501    0  0.00000000000E+00  0.00000000000E+00  0.65059555888E+02  0.65059555938E+02  0.25500000000E-02 0. -1.
         -1   -1    0    0    0  501 -0.00000000000E+00 -0.00000000000E+00 -0.23993104222E+02  0.23993104751E+02  0.50400000000E-02 0.  1.
         24    2    1    2    0    0  0.00000000000E+00  0.00000000000E+00  0.41066451666E+02  0.89052660689E+02  0.79018497349E+02 0.  0.
         66    2    3    3    0    0 -0.24688775438E+02  0.21963651967E+02  0.44901689499E+02  0.55786193284E+02  0.20000002264E+01 0.  0.
        -13    1    3    3    0    0  0.24688775438E+02 -0.21963651967E+02 -0.38352378323E+01  0.33266467405E+02  0.10566000000E+00 0.  1.
         13    1    4    4    0    0 -0.28772193736E+00  0.29052014991E+00  0.43444737124E+00  0.60588317745E+00  0.10566000000E+00 0.  1.
        -13    1    4    4    0    0 -0.54099298252E+01  0.41392796776E+01  0.99142977128E+01  0.12029357428E+02  0.10566000000E+00 0.  1.
         14    1    4    4    0    0 -0.18991123675E+02  0.17533852140E+02  0.34552944415E+02  0.43150952678E+02  0.00000000000E+00 0. -1.
<mgrwt>
<rscale>  0 0.79018497E+02</rscale>
<asrwt>0</asrwt>
<pdfrwt beam="1">  1        2 0.10009162E-01 0.79018497E+02</pdfrwt>
<pdfrwt beam="2">  1       -1 0.36912469E-02 0.79018497E+02</pdfrwt>
<totfact> 0.16404183E+05</totfact>
</mgrwt>
</event>
<event>
 8    1  0.1226832E-024  0.8016552E+02  0.7818608E-02  0.1328582E+00
          2   -1    0    0  501    0  0.00000000000E+00  0.00000000000E+00  0.42815132473E+03  0.42815132473E+03  0.25500000000E-02 0. -1.
         -1   -1    0    0    0  501 -0.00000000000E+00 -0.00000000000E+00 -0.37524740416E+01  0.37524774262E+01  0.50400000000E-02 0.  1.
         24    2    1    2    0    0 -0.71054273576E-14  0.00000000000E+00  0.42439885068E+03  0.43190380216E+03  0.80165515391E+02 0.  0.
         66    2    3    3    0    0 -0.39466758930E+02 -0.57583863573E+01  0.19228905152E+03  0.19639211645E+03  0.19999987924E+01 0.  0.
        -13    1    3    3    0    0  0.39466758930E+02  0.57583863573E+01  0.23210979916E+03  0.23551168571E+03  0.10566000000E+00 0.  1.
         13    1    4    4    0    0 -0.12422214862E+02 -0.26032172788E+01  0.61468920658E+02  0.62765655682E+02  0.10566000000E+00 0. -1.
        -13    1    4    4    0    0 -0.48412211116E+01 -0.33192536718E+00  0.22247940490E+02  0.22771245385E+02  0.10566000000E+00 0.  1.
         14    1    4    4    0    0 -0.22203322957E+02 -0.28232437113E+01  0.10857219038E+03  0.11085521539E+03  0.00000000000E+00 0. -1.
<mgrwt>
<rscale>  0 0.80165515E+02</rscale>
<asrwt>0</asrwt>
<pdfrwt beam="1">  1        2 0.65869365E-01 0.80165515E+02</pdfrwt>
<pdfrwt beam="2">  1       -1 0.57730457E-03 0.80165515E+02</pdfrwt>
<totfact> 0.28770682E+05</totfact>
</mgrwt>
</event>
<event>
 8    1  0.1226832E-024  0.7910237E+02  0.7818608E-02  0.1331618E+00
          2   -1    0    0  501    0  0.00000000000E+00  0.00000000000E+00  0.73571520414E+03  0.73571520415E+03  0.25500000000E-02 0. -1.
         -1   -1    0    0    0  501 -0.00000000000E+00 -0.00000000000E+00 -0.21262222848E+01  0.21262282583E+01  0.50400000000E-02 0.  1.
         24    2    1    2    0    0  0.00000000000E+00  0.00000000000E+00  0.73358898186E+03  0.73784143241E+03  0.79102370829E+02 0.  0.
         66    2    3    3    0    0 -0.28058907248E+02 -0.85612917906E+01  0.61411378814E+03  0.61481732472E+03  0.20000007500E+01 0.  0.
        -13    1    3    3    0    0  0.28058907248E+02  0.85612917906E+01  0.11947519372E+03  0.12302410769E+03  0.10566000000E+00 0.  1.
         13    1    4    4    0    0 -0.17763659968E+02 -0.50721206193E+01  0.38323698179E+03  0.38368198994E+03  0.10566000000E+00 0. -1.
        -13    1    4    4    0    0 -0.40189646909E+01 -0.19407461149E+01  0.95109981740E+02  0.95214696152E+02  0.10566000000E+00 0.  1.
        -14    1    4    4    0    0 -0.62762825889E+01 -0.15484250564E+01  0.13576682460E+03  0.13592063863E+03  0.00000000000E+00 0.  1.
<mgrwt>
<rscale>  0 0.79102371E+02</rscale>
<asrwt>0</asrwt>
<pdfrwt beam="1">  1        2 0.11318697E+00 0.79102371E+02</pdfrwt>
<pdfrwt beam="2">  1       -1 0.32711155E-03 0.79102371E+02</pdfrwt>
<totfact> 0.34824630E+05</totfact>
</mgrwt>
</event>
<event>
 8    1  0.1226832E-024  0.8011324E+02  0.7818608E-02  0.1328730E+00
         -1   -1    0    0    0  501 -0.00000000000E+00  0.00000000000E+00  0.17076237193E+03  0.17076237200E+03  0.50400000000E-02 0.  1.
          2   -1    0    0  501    0  0.00000000000E+00 -0.00000000000E+00 -0.93962896511E+01  0.93962899971E+01  0.25500000000E-02 0. -1.
         24    2    1    2    0    0 -0.35527136788E-14  0.35527136788E-14  0.16136608228E+03  0.18015866200E+03  0.80113238506E+02 0.  0.
         66    2    3    3    0    0 -0.12751832928E+02  0.26443266290E+02  0.19531428509E+02  0.35317591344E+02  0.19999959162E+01 0.  0.
        -13    1    3    3    0    0  0.12751832928E+02 -0.26443266290E+02  0.14183465377E+03  0.14484107065E+03  0.10566000000E+00 0.  1.
         13    1    4    4    0    0 -0.10360057953E+02  0.21114188721E+02  0.16390094480E+02  0.28666812297E+02  0.10566000000E+00 0. -1.
        -13    1    4    4    0    0 -0.24125822045E+00  0.43312048173E+00  0.17871510478E+00  0.53749605106E+00  0.10566000000E+00 0. -1.
        -14    1    4    4    0    0 -0.21505167551E+01  0.48959570866E+01  0.29626189239E+01  0.61132829965E+01  0.00000000000E+00 0.  1.
<mgrwt>
<rscale>  0 0.80113239E+02</rscale>
<asrwt>0</asrwt>
<pdfrwt beam="1">  1        2 0.14455832E-02 0.80113239E+02</pdfrwt>
<pdfrwt beam="2">  1       -1 0.26271132E-01 0.80113239E+02</pdfrwt>
<totfact> 0.10386843E+05</totfact>
</mgrwt>
</event>
<event>
 8    1  0.1226832E-024  0.8157205E+02  0.7818608E-02  0.1324648E+00
         -1   -1    0    0    0  501 -0.00000000000E+00  0.00000000000E+00  0.79108511988E+00  0.79110117463E+00  0.50400000000E-02 0.  1.
          2   -1    0    0  501    0  0.00000000000E+00 -0.00000000000E+00 -0.21027861777E+04  0.21027861777E+04  0.25500000000E-02 0. -1.
         24    2    1    2    0    0  0.00000000000E+00  0.00000000000E+00 -0.21019950926E+04  0.21035772789E+04  0.81572047745E+02 0.  0.
         66    2    3    3    0    0 -0.19113739910E+01  0.14143223767E+02 -0.20362453370E+04  0.20362963332E+04  0.20000000804E+01 0.  0.
        -13    1    3    3    0    0  0.19113739910E+01 -0.14143223767E+02 -0.65749755644E+02  0.67280945745E+02  0.10566000000E+00 0.  1.
         13    1    4    4    0    0 -0.78147192944E+00  0.65462219064E+01 -0.10422791461E+04  0.10423000016E+04  0.10566000000E+00 0. -1.
        -13    1    4    4    0    0 -0.70785211177E-01  0.25941761726E+00 -0.61075962695E+02  0.61076646038E+02  0.10566000000E+00 0.  1.
         14    1    4    4    0    0 -0.10591168504E+01  0.73375842434E+01 -0.93289022818E+03  0.93291968556E+03  0.00000000000E+00 0. -1.
<mgrwt>
<rscale>  0 0.81572048E+02</rscale>
<asrwt>0</asrwt>
<pdfrwt beam="1">  1        2 0.32350109E+00 0.81572048E+02</pdfrwt>
<pdfrwt beam="2">  1       -1 0.12170832E-03 0.81572048E+02</pdfrwt>
<totfact> 0.25104970E+05</totfact>
</mgrwt>
</event>
<event>
 8    1  0.1226832E-024  0.8335548E+02  0.7818608E-02  0.1319790E+00
          2   -1    0    0  501    0  0.00000000000E+00  0.00000000000E+00  0.51580233997E+01  0.51580240300E+01  0.25500000000E-02 0. -1.
         -1   -1    0    0    0  501 -0.00000000000E+00 -0.00000000000E+00 -0.33676345471E+03  0.33676345475E+03  0.50400000000E-02 0.  1.
         24    2    1    2    0    0  0.71054273576E-14 -0.44408920985E-15 -0.33160543131E+03  0.34192147878E+03  0.83355477175E+02 0.  0.
         66    2    3    3    0    0 -0.40918480886E+02  0.35963934414E+01 -0.19424981783E+03  0.19855540245E+03  0.19999975419E+01 0.  0.
        -13    1    3    3    0    0  0.40918480886E+02 -0.35963934414E+01 -0.13735561348E+03  0.14336607633E+03  0.10566000000E+00 0.  1.
         13    1    4    4    0    0 -0.91498672575E+01  0.52768024430E+00 -0.44315564176E+02  0.45253496103E+02  0.10566000000E+00 0. -1.
        -13    1    4    4    0    0 -0.14110726329E+02  0.66825345040E+00 -0.68100751230E+02  0.69550576147E+02  0.10566000000E+00 0.  1.
        -14    1    4    4    0    0 -0.17657887300E+02  0.24004597467E+01 -0.81833502426E+02  0.83751330200E+02  0.00000000000E+00 0.  1.
<mgrwt>
<rscale>  0 0.83355477E+02</rscale>
<asrwt>0</asrwt>
<pdfrwt beam="1">  1        2 0.79354238E-03 0.83355477E+02</pdfrwt>
<pdfrwt beam="2">  1       -1 0.51809745E-01 0.83355477E+02</pdfrwt>
<totfact> 0.74045123E+04</totfact>
</mgrwt>
</event>
<event>
 8    1  0.1226832E-024  0.7921773E+02  0.7818608E-02  0.1331286E+00
          2   -1    0    0  501    0  0.00000000000E+00  0.00000000000E+00  0.15569736611E+03  0.15569736613E+03  0.25500000000E-02 0. -1.
         -1   -1    0    0    0  501 -0.00000000000E+00 -0.00000000000E+00 -0.10076354817E+02  0.10076356077E+02  0.50400000000E-02 0.  1.
         24    2    1    2    0    0  0.00000000000E+00 -0.88817841970E-15  0.14562101129E+03  0.16577372221E+03  0.79217725571E+02 0.  0.
         66    2    3    3    0    0  0.32223986364E+02  0.77418615646E+01  0.11815327052E+03  0.12272944657E+03  0.20000010754E+01 0.  0.
        -13    1    3    3    0    0 -0.32223986364E+02 -0.77418615646E+01  0.27467740776E+02  0.43044275636E+02  0.10566000000E+00 0.  1.
         13    1    4    4    0    0  0.43661243774E+01  0.13907049611E+01  0.16267910202E+02  0.16901277133E+02  0.10566000000E+00 0. -1.
        -13    1    4    4    0    0  0.24667819781E+02  0.55911281911E+01  0.91957751630E+02  0.95372958936E+02  0.10566000000E+00 0.  1.
        -14    1    4    4    0    0  0.31900422049E+01  0.76002841242E+00  0.99276086849E+01  0.10455210503E+02  0.00000000000E+00 0.  1.
<mgrwt>
<rscale>  0 0.79217726E+02</rscale>
<asrwt>0</asrwt>
<pdfrwt beam="1">  1        2 0.23953440E-01 0.79217726E+02</pdfrwt>
<pdfrwt beam="2">  1       -1 0.15502086E-02 0.79217726E+02</pdfrwt>
<totfact> 0.20808249E+05</totfact>
</mgrwt>
</event>
<event>
 8    1  0.1226832E-024  0.7920488E+02  0.7818608E-02  0.1331323E+00
          2   -1    0    0  501    0  0.00000000000E+00  0.00000000000E+00  0.56997018521E+01  0.56997024225E+01  0.25500000000E-02 0. -1.
         -1   -1    0    0    0  501 -0.00000000000E+00 -0.00000000000E+00 -0.27516407550E+03  0.27516407555E+03  0.50400000000E-02 0.  1.
         24    2    1    2    0    0  0.71054273576E-14  0.00000000000E+00 -0.26946437365E+03  0.28086377797E+03  0.79204880591E+02 0.  0.
         66    2    3    3    0    0 -0.31776236561E+02  0.23233923927E+02 -0.12028172470E+03  0.12657502808E+03  0.20000013978E+01 0.  0.
        -13    1    3    3    0    0  0.31776236561E+02 -0.23233923927E+02 -0.14918264895E+03  0.15428874989E+03  0.10566000000E+00 0.  1.
         13    1    4    4    0    0 -0.15715233788E+02  0.12245049449E+02 -0.58858469029E+02  0.62138879532E+02  0.10566000000E+00 0. -1.
        -13    1    4    4    0    0 -0.13484953066E+02  0.89257413039E+01 -0.51254388595E+02  0.53745105184E+02  0.10566000000E+00 0.  1.
        -14    1    4    4    0    0 -0.25760497075E+01  0.20631331745E+01 -0.10168867078E+02  0.10691043365E+02  0.00000000000E+00 0.  1.
<mgrwt>
<rscale>  0 0.79204881E+02</rscale>
<asrwt>0</asrwt>
<pdfrwt beam="1">  1        2 0.87687747E-03 0.79204881E+02</pdfrwt>
<pdfrwt beam="2">  1       -1 0.42332924E-01 0.79204881E+02</pdfrwt>
<totfact> 0.91728520E+04</totfact>
</mgrwt>
</event>
<event>
 8    1  0.1226832E-024  0.7898476E+02  0.7818608E-02  0.1331957E+00
          2   -1    0    0  501    0  0.00000000000E+00  0.00000000000E+00  0.18805513536E+03  0.18805513538E+03  0.25500000000E-02 0. -1.
         -1   -1    0    0    0  501 -0.00000000000E+00 -0.00000000000E+00 -0.82935665410E+01  0.82935680724E+01  0.50400000000E-02 0.  1.
         24    2    1    2    0    0  0.00000000000E+00  0.17763568394E-14  0.17976156882E+03  0.19634870345E+03  0.78984756265E+02 0.  0.
         66    2    3    3    0    0 -0.33802376622E+02  0.11003868002E+02  0.13255956549E+03  0.13725787456E+03  0.19999876517E+01 0.  0.
        -13    1    3    3    0    0  0.33802376622E+02 -0.11003868002E+02  0.47202003338E+02  0.59090828895E+02  0.10566000000E+00 0.  1.
         13    1    4    4    0    0 -0.31527768793E+02  0.10187243908E+02  0.12317757896E+03  0.12755589859E+03  0.10566000000E+00 0. -1.
        -13    1    4    4    0    0 -0.10650974204E+01  0.41474222041E+00  0.54130109630E+01  0.55333801013E+01  0.10566000000E+00 0.  1.
        -14    1    4    4    0    0 -0.12095104087E+01  0.40188187338E+00  0.39689755671E+01  0.41685958693E+01  0.00000000000E+00 0.  1.
<mgrwt>
<rscale>  0 0.78984756E+02</rscale>
<asrwt>0</asrwt>
<pdfrwt beam="1">  1        2 0.28931558E-01 0.78984756E+02</pdfrwt>
<pdfrwt beam="2">  1       -1 0.12759335E-02 0.78984756E+02</pdfrwt>
<totfact> 0.22335127E+05</totfact>
</mgrwt>
</event>
<event>
 8    1  0.1226832E-024  0.7956966E+02  0.7818608E-02  0.1330277E+00
         -1   -1    0    0    0  501 -0.00000000000E+00  0.00000000000E+00  0.28179687652E+01  0.28179732723E+01  0.50400000000E-02 0.  1.
          2   -1    0    0  501    0  0.00000000000E+00 -0.00000000000E+00 -0.56169239333E+03  0.56169239334E+03  0.25500000000E-02 0. -1.
         24    2    1    2    0    0  0.35527136788E-14 -0.17763568394E-14 -0.55887442457E+03  0.56451036661E+03  0.79569664919E+02 0.  0.
         66    2    3    3    0    0 -0.28083930989E+02  0.13214101326E+02 -0.45591061331E+03  0.45697024737E+03  0.19999996959E+01 0.  0.
        -13    1    3    3    0    0  0.28083930989E+02 -0.13214101326E+02 -0.10296381125E+03  0.10754011924E+03  0.10566000000E+00 0.  1.
         13    1    4    4    0    0 -0.21707943236E+02  0.10050542264E+02 -0.34518084825E+03  0.34600878221E+03  0.10566000000E+00 0. -1.
        -13    1    4    4    0    0 -0.32805823922E+01  0.12668567738E+01 -0.50526533180E+02  0.50648878232E+02  0.10566000000E+00 0.  1.
         14    1    4    4    0    0 -0.30954053608E+01  0.18967022879E+01 -0.60203231882E+02  0.60312586936E+02  0.00000000000E+00 0. -1.
<mgrwt>
<rscale>  0 0.79569665E+02</rscale>
<asrwt>0</asrwt>
<pdfrwt beam="1">  1        2 0.86414125E-01 0.79569665E+02</pdfrwt>
<pdfrwt beam="2">  1       -1 0.43353445E-03 0.79569665E+02</pdfrwt>
<totfact> 0.32006375E+05</totfact>
</mgrwt>
</event>
<event>
 8    1  0.1226832E-024  0.8276592E+02  0.7818608E-02  0.1321380E+00
         -1   -1    0    0    0  501 -0.00000000000E+00  0.00000000000E+00  0.37134661163E+02  0.37134661505E+02  0.50400000000E-02 0.  1.
          2   -1    0    0  501    0  0.00000000000E+00 -0.00000000000E+00 -0.46117270068E+02  0.46117270139E+02  0.25500000000E-02 0. -1.
         24    2    1    2    0    0  0.17763568394E-14  0.00000000000E+00 -0.89826089052E+01  0.83251931644E+02  0.82765916051E+02 0.  0.
         66    2    3    3    0    0  0.13397156564E+02 -0.16035495000E+02 -0.40395571944E+02  0.45523874249E+02  0.19999975254E+01 0.  0.
        -13    1    3    3    0    0 -0.13397156564E+02  0.16035495000E+02  0.31412963038E+02  0.37728057395E+02  0.10566000000E+00 0.  1.
         13    1    4    4    0    0  0.38757581589E+01 -0.46273536120E+01 -0.13049729056E+02  0.14378473327E+02  0.10566000000E+00 0.  1.
        -13    1    4    4    0    0  0.37595416006E+01 -0.44368877342E+01 -0.11929332664E+02  0.13271784644E+02  0.10566000000E+00 0. -1.
        -14    1    4    4    0    0  0.57618568042E+01 -0.69712536542E+01 -0.15416510224E+02  0.17873616278E+02  0.00000000000E+00 0.  1.
<mgrwt>
<rscale>  0 0.82765916E+02</rscale>
<asrwt>0</asrwt>
<pdfrwt beam="1">  1        2 0.70949646E-02 0.82765916E+02</pdfrwt>
<pdfrwt beam="2">  1       -1 0.57130249E-02 0.82765916E+02</pdfrwt>
<totfact> 0.13372724E+05</totfact>
</mgrwt>
</event>
<event>
 8    1  0.1226832E-024  0.7942118E+02  0.7818608E-02  0.1330702E+00
         -1   -1    0    0    0  501 -0.00000000000E+00  0.00000000000E+00  0.52063194445E+01  0.52063218840E+01  0.50400000000E-02 0.  1.
          2   -1    0    0  501    0  0.00000000000E+00 -0.00000000000E+00 -0.30288782598E+03  0.30288782599E+03  0.25500000000E-02 0. -1.
         24    2    1    2    0    0  0.35527136788E-14 -0.35527136788E-14 -0.29768150654E+03  0.30809414788E+03  0.79421184967E+02 0.  0.
         66    2    3    3    0    0 -0.28678409547E+02  0.17211908546E+02 -0.23179331342E+03  0.23420256429E+03  0.19999998835E+01 0.  0.
        -13    1    3    3    0    0  0.28678409547E+02 -0.17211908546E+02 -0.65888193114E+02  0.73891583593E+02  0.10566000000E+00 0.  1.
         13    1    4    4    0    0 -0.25242718512E+01  0.18592035471E+01 -0.22645792892E+02  0.22862014040E+02  0.10566000000E+00 0. -1.
        -13    1    4    4    0    0 -0.24564816402E+01  0.16915284735E+01 -0.23490887333E+02  0.23679706974E+02  0.10566000000E+00 0.  1.
         14    1    4    4    0    0 -0.23697656056E+02  0.13661176526E+02 -0.18565663320E+03  0.18766084327E+03  0.00000000000E+00 0. -1.
<mgrwt>
<rscale>  0 0.79421185E+02</rscale>
<asrwt>0</asrwt>
<pdfrwt beam="1">  1        2 0.46598113E-01 0.79421185E+02</pdfrwt>
<pdfrwt beam="2">  1       -1 0.80097265E-03 0.79421185E+02</pdfrwt>
<totfact> 0.26074525E+05</totfact>
</mgrwt>
</event>
<event>
 8    1  0.1226832E-024  0.8285950E+02  0.7818608E-02  0.1321127E+00
          2   -1    0    0  501    0  0.00000000000E+00  0.00000000000E+00  0.50925810815E+02  0.50925810879E+02  0.25500000000E-02 0. -1.
         -1   -1    0    0    0  501 -0.00000000000E+00 -0.00000000000E+00 -0.33704403279E+02  0.33704403656E+02  0.50400000000E-02 0.  1.
         24    2    1    2    0    0  0.00000000000E+00 -0.17763568394E-14  0.17221407537E+02  0.84630214535E+02  0.82859497553E+02 0.  0.
         66    2    3    3    0    0  0.34725991670E+02  0.13385003289E+02  0.27151991816E+02  0.46111641370E+02  0.19999999444E+01 0.  0.
        -13    1    3    3    0    0 -0.34725991670E+02 -0.13385003289E+02 -0.99305842791E+01  0.38518573165E+02  0.10566000000E+00 0.  1.
         13    1    4    4    0    0  0.13307244436E+02  0.48334414151E+01  0.10589548792E+02  0.17680345530E+02  0.10566000000E+00 0. -1.
        -13    1    4    4    0    0  0.16981725311E+02  0.65037589716E+01  0.12378500832E+02  0.21998098149E+02  0.10566000000E+00 0.  1.
        -14    1    4    4    0    0  0.44370219223E+01  0.20478029021E+01  0.41839421913E+01  0.64331976905E+01  0.00000000000E+00 0.  1.
<mgrwt>
<rscale>  0 0.82859498E+02</rscale>
<asrwt>0</asrwt>
<pdfrwt beam="1">  1        2 0.78347401E-02 0.82859498E+02</pdfrwt>
<pdfrwt beam="2">  1       -1 0.51852929E-02 0.82859498E+02</pdfrwt>
<totfact> 0.13624514E+05</totfact>
</mgrwt>
</event>
<event>
 8    1  0.1226832E-024  0.7580417E+02  0.7818608E-02  0.1341399E+00
         -1   -1    0    0    0  501 -0.00000000000E+00  0.00000000000E+00  0.95293260152E+01  0.95293273480E+01  0.50400000000E-02 0.  1.
          2   -1    0    0  501    0  0.00000000000E+00 -0.00000000000E+00 -0.15075229400E+03  0.15075229403E+03  0.25500000000E-02 0. -1.
         24    2    1    2    0    0  0.00000000000E+00 -0.35527136788E-14 -0.14122296799E+03  0.16028162137E+03  0.75804165206E+02 0.  0.
         66    2    3    3    0    0 -0.61023332965E+01 -0.17057076408E+02 -0.14099087636E+03  0.14216402336E+03  0.19999981078E+01 0.  0.
        -13    1    3    3    0    0  0.61023332965E+01  0.17057076408E+02 -0.23209162432E+00  0.18117598014E+02  0.10566000000E+00 0.  1.
         13    1    4    4    0    0 -0.46764668336E+01 -0.12495056582E+02 -0.99400120576E+02  0.10029152963E+03  0.10566000000E+00 0. -1.
        -13    1    4    4    0    0 -0.10600199995E+00 -0.15221821638E+01 -0.14092918650E+02  0.14175676177E+02  0.10566000000E+00 0.  1.
         14    1    4    4    0    0 -0.13198644629E+01 -0.30398376618E+01 -0.27497837138E+02  0.27696817551E+02  0.00000000000E+00 0. -1.
<mgrwt>
<rscale>  0 0.75804165E+02</rscale>
<asrwt>0</asrwt>
<pdfrwt beam="1">  1        2 0.23192659E-01 0.75804165E+02</pdfrwt>
<pdfrwt beam="2">  1       -1 0.14660504E-02 0.75804165E+02</pdfrwt>
<totfact> 0.23135442E+05</totfact>
</mgrwt>
</event>
<event>
 8    1  0.1226832E-024  0.7693108E+02  0.7818608E-02  0.1337993E+00
          2   -1    0    0  501    0  0.00000000000E+00  0.00000000000E+00  0.40887329206E+02  0.40887329286E+02  0.25500000000E-02 0. -1.
         -1   -1    0    0    0  501 -0.00000000000E+00 -0.00000000000E+00 -0.36187198008E+02  0.36187198359E+02  0.50400000000E-02 0.  1.
         24    2    1    2    0    0  0.00000000000E+00  0.44408920985E-15  0.47001311985E+01  0.77074527644E+02  0.76931083304E+02 0.  0.
         66    2    3    3    0    0  0.37026795411E+02 -0.31980774378E+01  0.12187373540E+02  0.39163035460E+02  0.19999987403E+01 0.  0.
        -13    1    3    3    0    0 -0.37026795411E+02  0.31980774378E+01 -0.74872423415E+01  0.37911492184E+02  0.10566000000E+00 0.  1.
         13    1    4    4    0    0  0.21876816174E+02 -0.11429255754E+01  0.73916381862E+01  0.23120312366E+02  0.10566000000E+00 0. -1.
        -13    1    4    4    0    0  0.99715771876E+01 -0.98181003183E+00  0.31884602041E+01  0.10515405130E+02  0.10566000000E+00 0.  1.
        -14    1    4    4    0    0  0.51784020490E+01 -0.10733418305E+01  0.16072751496E+01  0.55273179638E+01  0.00000000000E+00 0.  1.
<mgrwt>
<rscale>  0 0.76931083E+02</rscale>
<asrwt>0</asrwt>
<pdfrwt beam="1">  1        2 0.62903583E-02 0.76931083E+02</pdfrwt>
<pdfrwt beam="2">  1       -1 0.55672613E-02 0.76931083E+02</pdfrwt>
<totfact> 0.15948299E+05</totfact>
</mgrwt>
</event>
<event>
 8    1  0.1226832E-024  0.7922492E+02  0.7818608E-02  0.1331265E+00
         -1   -1    0    0    0  501 -0.00000000000E+00  0.00000000000E+00  0.14007108159E+02  0.14007109066E+02  0.50400000000E-02 0.  1.
          2   -1    0    0  501    0  0.00000000000E+00 -0.00000000000E+00 -0.11202505632E+03  0.11202505635E+03  0.25500000000E-02 0. -1.
         24    2    1    2    0    0  0.00000000000E+00  0.00000000000E+00 -0.98017948164E+02  0.12603216542E+03  0.79224923842E+02 0.  0.
         66    2    3    3    0    0 -0.30899738636E+02 -0.24610407781E+02 -0.44929726682E+02  0.59859388213E+02  0.19999996511E+01 0.  0.
        -13    1    3    3    0    0  0.30899738636E+02  0.24610407781E+02 -0.53088221482E+02  0.66172777205E+02  0.10566000000E+00 0.  1.
         13    1    4    4    0    0 -0.63380864032E+01 -0.47878334737E+01 -0.99811063687E+01  0.12756501754E+02  0.10566000000E+00 0. -1.
        -13    1    4    4    0    0 -0.96951252995E+00 -0.92956790722E+00 -0.12894815467E+01  0.18649337079E+01  0.10566000000E+00 0.  1.
         14    1    4    4    0    0 -0.23592139703E+02 -0.18893006400E+02 -0.33659138767E+02  0.45237952751E+02  0.00000000000E+00 0. -1.
<mgrwt>
<rscale>  0 0.79224924E+02</rscale>
<asrwt>0</asrwt>
<pdfrwt beam="1">  1        2 0.17234623E-01 0.79224924E+02</pdfrwt>
<pdfrwt beam="2">  1       -1 0.21549399E-02 0.79224924E+02</pdfrwt>
<totfact> 0.18792854E+05</totfact>
</mgrwt>
</event>
<event>
 8    1  0.1226832E-024  0.7890547E+02  0.7818608E-02  0.1332187E+00
          2   -1    0    0  501    0  0.00000000000E+00  0.00000000000E+00  0.15390807162E+03  0.15390807164E+03  0.25500000000E-02 0. -1.
         -1   -1    0    0    0  501 -0.00000000000E+00 -0.00000000000E+00 -0.10113296778E+02  0.10113298034E+02  0.50400000000E-02 0.  1.
         24    2    1    2    0    0  0.35527136788E-14 -0.17763568394E-14  0.14379477484E+03  0.16402136968E+03  0.78905465201E+02 0.  0.
         66    2    3    3    0    0  0.13967777390E+02 -0.95428982871E+01  0.14597425440E+03  0.14696478713E+03  0.19999990165E+01 0.  0.
        -13    1    3    3    0    0 -0.13967777390E+02  0.95428982871E+01 -0.21794795577E+01  0.17056582545E+02  0.10566000000E+00 0.  1.
         13    1    4    4    0    0  0.60307228044E+01 -0.40040266479E+01  0.65505860076E+02  0.65904709356E+02  0.10566000000E+00 0. -1.
        -13    1    4    4    0    0  0.40967484717E+01 -0.26513408095E+01  0.46044437089E+02  0.46302422259E+02  0.10566000000E+00 0.  1.
         14    1    4    4    0    0  0.38403061135E+01 -0.28875308298E+01  0.34423957237E+02  0.34757655519E+02  0.00000000000E+00 0. -1.
<mgrwt>
<rscale>  0 0.78905465E+02</rscale>
<asrwt>0</asrwt>
<pdfrwt beam="1">  1        2 0.23678165E-01 0.78905465E+02</pdfrwt>
<pdfrwt beam="2">  1       -1 0.15558919E-02 0.78905465E+02</pdfrwt>
<totfact> 0.20948320E+05</totfact>
</mgrwt>
</event>
<event>
 8    1  0.1226832E-024  0.7984650E+02  0.7818608E-02  0.1329488E+00
          2   -1    0    0  501    0  0.00000000000E+00  0.00000000000E+00  0.61446053926E+02  0.61446053979E+02  0.25500000000E-02 0. -1.
         -1   -1    0    0    0  501 -0.00000000000E+00 -0.00000000000E+00 -0.25939271008E+02  0.25939271498E+02  0.50400000000E-02 0.  1.
         24    2    1    2    0    0  0.00000000000E+00  0.00000000000E+00  0.35506782918E+02  0.87385325477E+02  0.79846499457E+02 0.  0.
         66    2    3    3    0    0 -0.19061435454E+02  0.33686683435E+02  0.28360007775E+02  0.48025212145E+02  0.19999995395E+01 0.  0.
        -13    1    3    3    0    0  0.19061435454E+02 -0.33686683435E+02  0.71467751433E+01  0.39360113331E+02  0.10566000000E+00 0.  1.
         13    1    4    4    0    0 -0.87918635299E+01  0.15086576275E+02  0.12337377564E+02  0.21380451287E+02  0.10566000000E+00 0. -1.
        -13    1    4    4    0    0 -0.66498446678E+01  0.11387753995E+02  0.92298705165E+01  0.16096678196E+02  0.10566000000E+00 0.  1.
        -14    1    4    4    0    0 -0.36197272568E+01  0.72123531648E+01  0.67927596939E+01  0.10548082662E+02  0.00000000000E+00 0.  1.
<mgrwt>
<rscale>  0 0.79846499E+02</rscale>
<asrwt>0</asrwt>
<pdfrwt beam="1">  1        2 0.94532391E-02 0.79846499E+02</pdfrwt>
<pdfrwt beam="2">  1       -1 0.39906571E-02 0.79846499E+02</pdfrwt>
<totfact> 0.15734331E+05</totfact>
</mgrwt>
</event>
<event>
 8    1  0.1226832E-024  0.7792595E+02  0.7818608E-02  0.1335042E+00
         -1   -1    0    0    0  501 -0.00000000000E+00  0.00000000000E+00  0.17624133512E+01  0.17624205577E+01  0.50400000000E-02 0.  1.
          2   -1    0    0  501    0  0.00000000000E+00 -0.00000000000E+00 -0.86138159571E+03  0.86138159571E+03  0.25500000000E-02 0. -1.
         24    2    1    2    0    0  0.00000000000E+00  0.00000000000E+00 -0.85961918236E+03  0.86314401627E+03  0.77925952968E+02 0.  0.
         66    2    3    3    0    0 -0.93272457561E+01  0.10544952845E+02 -0.83220190312E+03  0.83232337532E+03  0.19999997244E+01 0.  0.
        -13    1    3    3    0    0  0.93272457561E+01 -0.10544952845E+02 -0.27417279233E+02  0.30820640948E+02  0.10566000000E+00 0.  1.
         13    1    4    4    0    0 -0.71260639986E+01  0.84159674587E+01 -0.64010152547E+03  0.64019651934E+03  0.10566000000E+00 0. -1.
        -13    1    4    4    0    0 -0.17479099072E+01  0.17357249329E+01 -0.17155419219E+03  0.17157190898E+03  0.10566000000E+00 0.  1.
         14    1    4    4    0    0 -0.45327185032E+00  0.39326045342E+00 -0.20546185462E+02  0.20554947000E+02  0.00000000000E+00 0. -1.
<mgrwt>
<rscale>  0 0.77925953E+02</rscale>
<asrwt>0</asrwt>
<pdfrwt beam="1">  1        2 0.13251991E+00 0.77925953E+02</pdfrwt>
<pdfrwt beam="2">  1       -1 0.27114176E-03 0.77925953E+02</pdfrwt>
<totfact> 0.37209683E+05</totfact>
</mgrwt>
</event>
<event>
 8    1  0.1226832E-024  0.7928729E+02  0.7818608E-02  0.1331086E+00
         -1   -1    0    0    0  501 -0.00000000000E+00  0.00000000000E+00  0.20041106104E+01  0.20041169477E+01  0.50400000000E-02 0.  1.
          2   -1    0    0  501    0  0.00000000000E+00 -0.00000000000E+00 -0.78419629891E+03  0.78419629892E+03  0.25500000000E-02 0. -1.
         24    2    1    2    0    0  0.00000000000E+00 -0.35527136788E-14 -0.78219218830E+03  0.78620041587E+03  0.79287290687E+02 0.  0.
         66    2    3    3    0    0  0.43480904386E+01 -0.27564615884E+02 -0.67020693359E+03  0.67079061395E+03  0.20000004262E+01 0.  0.
        -13    1    3    3    0    0 -0.43480904386E+01  0.27564615884E+02 -0.11198525472E+03  0.11540980191E+03  0.10566000000E+00 0.  1.
         13    1    4    4    0    0  0.15459485467E+01 -0.14065704453E+02 -0.33456348515E+03  0.33486261475E+03  0.10566000000E+00 0. -1.
        -13    1    4    4    0    0  0.21148708701E-01 -0.84311791228E+00 -0.17099732334E+02  0.17120844168E+02  0.10566000000E+00 0.  1.
         14    1    4    4    0    0  0.27809931832E+01 -0.12655793519E+02 -0.31854371610E+03  0.31880715504E+03  0.00000000000E+00 0. -1.
<mgrwt>
<rscale>  0 0.79287291E+02</rscale>
<asrwt>0</asrwt>
<pdfrwt beam="1">  1        2 0.12064534E+00 0.79287291E+02</pdfrwt>
<pdfrwt beam="2">  1       -1 0.30832583E-03 0.79287291E+02</pdfrwt>
<totfact> 0.35049470E+05</totfact>
</mgrwt>
</event>
<event>
 8    1  0.1226832E-024  0.7725214E+02  0.7818608E-02  0.1337035E+00
         -1   -1    0    0    0  501 -0.00000000000E+00  0.00000000000E+00  0.96895560252E+01  0.96895573360E+01  0.50400000000E-02 0.  1.
          2   -1    0    0  501    0  0.00000000000E+00 -0.00000000000E+00 -0.15397745854E+03  0.15397745856E+03  0.25500000000E-02 0. -1.
         24    2    1    2    0    0  0.00000000000E+00  0.17763568394E-14 -0.14428790251E+03  0.16366701589E+03  0.77252140944E+02 0.  0.
         66    2    3    3    0    0 -0.77981647460E+01 -0.10899640143E+02 -0.14888329529E+03  0.14949865934E+03  0.19999999648E+01 0.  0.
        -13    1    3    3    0    0  0.77981647460E+01  0.10899640143E+02  0.45953927760E+01  0.14168356555E+02  0.10566000000E+00 0.  1.
         13    1    4    4    0    0 -0.41010104976E+01 -0.45455688698E+01 -0.61453275418E+02  0.61757563966E+02  0.10566000000E+00 0. -1.
        -13    1    4    4    0    0 -0.28716092198E+01 -0.45686783418E+01 -0.66659858470E+02  0.66877999795E+02  0.10566000000E+00 0.  1.
         14    1    4    4    0    0 -0.82554502858E+00 -0.17853929317E+01 -0.20770161398E+02  0.20863095576E+02  0.00000000000E+00 0. -1.
<mgrwt>
<rscale>  0 0.77252141E+02</rscale>
<asrwt>0</asrwt>
<pdfrwt beam="1">  1        2 0.23688838E-01 0.77252141E+02</pdfrwt>
<pdfrwt beam="2">  1       -1 0.14907012E-02 0.77252141E+02</pdfrwt>
<totfact> 0.22158397E+05</totfact>
</mgrwt>
</event>
<event>
 8    1  0.1226832E-024  0.7998941E+02  0.7818608E-02  0.1329081E+00
          2   -1    0    0  501    0  0.00000000000E+00  0.00000000000E+00  0.38444638230E+02  0.38444638315E+02  0.25500000000E-02 0. -1.
         -1   -1    0    0    0  501 -0.00000000000E+00 -0.00000000000E+00 -0.41607274174E+02  0.41607274479E+02  0.50400000000E-02 0.  1.
         24    2    1    2    0    0 -0.35527136788E-14  0.00000000000E+00 -0.31626359437E+01  0.80051912794E+02  0.79989414774E+02 0.  0.
         66    2    3    3    0    0  0.22927675393E+02 -0.23030484201E+02  0.21705819940E+02  0.39130857534E+02  0.19999726491E+01 0.  0.
        -13    1    3    3    0    0 -0.22927675393E+02  0.23030484201E+02 -0.24868455884E+02  0.40921055260E+02  0.10566000000E+00 0.  1.
         13    1    4    4    0    0  0.69637148010E+01 -0.71426929956E+01  0.67600175790E+01  0.12050742250E+02  0.10566000000E+00 0. -1.
        -13    1    4    4    0    0  0.73370593843E+01 -0.61668028548E+01  0.62887921873E+01  0.11463942126E+02  0.10566000000E+00 0.  1.
        -14    1    4    4    0    0  0.86269012081E+01 -0.97209883507E+01  0.86570101740E+01  0.15616173159E+02  0.00000000000E+00 0.  1.
<mgrwt>
<rscale>  0 0.79989415E+02</rscale>
<asrwt>0</asrwt>
<pdfrwt beam="1">  1        2 0.59145598E-02 0.79989415E+02</pdfrwt>
<pdfrwt beam="2">  1       -1 0.64011191E-02 0.79989415E+02</pdfrwt>
<totfact> 0.14145126E+05</totfact>
</mgrwt>
</event>
<event>
 8    1  0.1226832E-024  0.7698233E+02  0.7818608E-02  0.1337840E+00
          2   -1    0    0  501    0  0.00000000000E+00  0.00000000000E+00  0.78502649793E+03  0.78502649793E+03  0.25500000000E-02 0. -1.
         -1   -1    0    0    0  501 -0.00000000000E+00 -0.00000000000E+00 -0.18872831349E+01  0.18872898646E+01  0.50400000000E-02 0.  1.
         24    2    1    2    0    0 -0.88817841970E-15  0.35527136788E-14  0.78313921479E+03  0.78691378780E+03  0.76982333544E+02 0.  0.
         66    2    3    3    0    0  0.74773080994E+01 -0.18234992968E+02  0.72949058711E+03  0.72975950956E+03  0.19999998474E+01 0.  0.
        -13    1    3    3    0    0 -0.74773080994E+01  0.18234992968E+02  0.53648627681E+02  0.57154278240E+02  0.10566000000E+00 0.  1.
         13    1    4    4    0    0  0.37919457986E+01 -0.88726037614E+01  0.33252690466E+03  0.33266688359E+03  0.10566000000E+00 0.  1.
        -13    1    4    4    0    0  0.29540622155E+01 -0.82815905158E+01  0.33658856138E+03  0.33670340367E+03  0.10566000000E+00 0. -1.
        -14    1    4    4    0    0  0.73130008531E+00 -0.10807986912E+01  0.60375121075E+02  0.60389222304E+02  0.00000000000E+00 0.  1.
<mgrwt>
<rscale>  0 0.76982334E+02</rscale>
<asrwt>0</asrwt>
<pdfrwt beam="1">  1        2 0.12077315E+00 0.76982334E+02</pdfrwt>
<pdfrwt beam="2">  1       -1 0.29035214E-03 0.76982334E+02</pdfrwt>
<totfact> 0.37841650E+05</totfact>
</mgrwt>
</event>
<event>
 8    1  0.1226832E-024  0.7765639E+02  0.7818608E-02  0.1335837E+00
         -1   -1    0    0    0  501 -0.00000000000E+00  0.00000000000E+00  0.48734420118E+01  0.48734446179E+01  0.50400000000E-02 0.  1.
          2   -1    0    0  501    0  0.00000000000E+00 -0.00000000000E+00 -0.30935594241E+03  0.30935594242E+03  0.25500000000E-02 0. -1.
         24    2    1    2    0    0  0.00000000000E+00 -0.71054273576E-14 -0.30448250040E+03  0.31422938704E+03  0.77656388210E+02 0.  0.
         66    2    3    3    0    0 -0.95426173946E+01 -0.36913250584E+02 -0.18151374616E+03  0.18548555108E+03  0.19999993726E+01 0.  0.
        -13    1    3    3    0    0  0.95426173946E+01  0.36913250584E+02 -0.12296875423E+03  0.12874383596E+03  0.10566000000E+00 0.  1.
         13    1    4    4    0    0 -0.78704771333E+01 -0.30417979664E+02 -0.14712557448E+03  0.15044315780E+03  0.10566000000E+00 0. -1.
        -13    1    4    4    0    0 -0.13974577894E+01 -0.47006256506E+01 -0.23884799092E+02  0.24383263963E+02  0.10566000000E+00 0.  1.
         14    1    4    4    0    0 -0.27468247193E+00 -0.17946452690E+01 -0.10503372588E+02  0.10659129318E+02  0.00000000000E+00 0. -1.
<mgrwt>
<rscale>  0 0.77656388E+02</rscale>
<asrwt>0</asrwt>
<pdfrwt beam="1">  1        2 0.47593207E-01 0.77656388E+02</pdfrwt>
<pdfrwt beam="2">  1       -1 0.74976075E-03 0.77656388E+02</pdfrwt>
<totfact> 0.27865220E+05</totfact>
</mgrwt>
</event>
<event>
 8    1  0.1226832E-024  0.8048400E+02  0.7818608E-02  0.1327683E+00
         -1   -1    0    0    0  501 -0.00000000000E+00  0.00000000000E+00  0.50393053063E+02  0.50393053315E+02  0.50400000000E-02 0.  1.
          2   -1    0    0  501    0  0.00000000000E+00 -0.00000000000E+00 -0.32135752848E+02  0.32135752949E+02  0.25500000000E-02 0. -1.
         24    2    1    2    0    0  0.00000000000E+00  0.00000000000E+00  0.18257300215E+02  0.82528806264E+02  0.80484003704E+02 0.  0.
         66    2    3    3    0    0 -0.18110829969E+02 -0.11778586878E+02 -0.25649174862E+02  0.33594901977E+02  0.19999991890E+01 0.  0.
        -13    1    3    3    0    0  0.18110829969E+02  0.11778586878E+02  0.43906475078E+02  0.48933904287E+02  0.10566000000E+00 0.  1.
         13    1    4    4    0    0 -0.32150379434E+01 -0.24089655614E+01 -0.49152631372E+01  0.63490597569E+01  0.10566000000E+00 0. -1.
        -13    1    4    4    0    0 -0.19489790293E+01 -0.77791459520E+00 -0.30716109427E+01  0.37215088597E+01  0.10566000000E+00 0.  1.
         14    1    4    4    0    0 -0.12946812996E+02 -0.85917067210E+01 -0.17662300783E+02  0.23524333361E+02  0.00000000000E+00 0. -1.
<mgrwt>
<rscale>  0 0.80484004E+02</rscale>
<asrwt>0</asrwt>
<pdfrwt beam="1">  1        2 0.49439620E-02 0.80484004E+02</pdfrwt>
<pdfrwt beam="2">  1       -1 0.77527774E-02 0.80484004E+02</pdfrwt>
<totfact> 0.13411645E+05</totfact>
</mgrwt>
</event>
<event>
 8    1  0.1226832E-024  0.7977120E+02  0.7818608E-02  0.1329702E+00
          2   -1    0    0  501    0  0.00000000000E+00  0.00000000000E+00  0.24163765510E+03  0.24163765512E+03  0.25500000000E-02 0. -1.
         -1   -1    0    0    0  501 -0.00000000000E+00 -0.00000000000E+00 -0.65836635345E+01  0.65836654636E+01  0.50400000000E-02 0.  1.
         24    2    1    2    0    0  0.00000000000E+00  0.00000000000E+00  0.23505399157E+03  0.24822132058E+03  0.79771204317E+02 0.  0.
         66    2    3    3    0    0 -0.24857126629E+01  0.36713637568E+02  0.16527990820E+03  0.16933847185E+03  0.20000101269E+01 0.  0.
        -13    1    3    3    0    0  0.24857126629E+01 -0.36713637568E+02  0.69774083368E+02  0.78882848737E+02  0.10566000000E+00 0.  1.
         13    1    4    4    0    0 -0.73586119910E+00  0.88528549510E+01  0.37952125918E+02  0.38978065091E+02  0.10566000000E+00 0. -1.
        -13    1    4    4    0    0 -0.12958814984E+01  0.10945206449E+02  0.52019646483E+02  0.53174539371E+02  0.10566000000E+00 0.  1.
        -14    1    4    4    0    0 -0.45396996541E+00  0.16915576169E+02  0.75308135801E+02  0.77185867383E+02  0.00000000000E+00 0.  1.
<mgrwt>
<rscale>  0 0.79771204E+02</rscale>
<asrwt>0</asrwt>
<pdfrwt beam="1">  1        2 0.37175023E-01 0.79771204E+02</pdfrwt>
<pdfrwt beam="2">  1       -1 0.10128715E-02 0.79771204E+02</pdfrwt>
<totfact> 0.23758003E+05</totfact>
</mgrwt>
</event>
<event>
 8    1  0.1226832E-024  0.7976735E+02  0.7818608E-02  0.1329713E+00
          2   -1    0    0  501    0  0.00000000000E+00  0.00000000000E+00  0.48382876475E+02  0.48382876542E+02  0.25500000000E-02 0. -1.
         -1   -1    0    0    0  501 -0.00000000000E+00 -0.00000000000E+00 -0.32877489031E+02  0.32877489418E+02  0.50400000000E-02 0.  1.
         24    2    1    2    0    0  0.00000000000E+00 -0.35527136788E-14  0.15505387444E+02  0.81260365960E+02  0.79767349436E+02 0.  0.
         66    2    3    3    0    0  0.17098649369E+02 -0.17295869131E+02  0.39926951505E+02  0.46793935125E+02  0.20000021826E+01 0.  0.
        -13    1    3    3    0    0 -0.17098649369E+02  0.17295869131E+02 -0.24421564061E+02  0.34466430835E+02  0.10566000000E+00 0.  1.
         13    1    4    4    0    0  0.40201040861E+01 -0.48759064320E+01  0.10285249880E+02  0.12072001885E+02  0.10566000000E+00 0. -1.
        -13    1    4    4    0    0  0.22190219830E+01 -0.25592860276E+01  0.48719193870E+01  0.59347085928E+01  0.10566000000E+00 0.  1.
        -14    1    4    4    0    0  0.10859523300E+02 -0.98606766716E+01  0.24769782238E+02  0.28787224647E+02  0.00000000000E+00 0.  1.
<mgrwt>
<rscale>  0 0.79767349E+02</rscale>
<asrwt>0</asrwt>
<pdfrwt beam="1">  1        2 0.74435194E-02 0.79767349E+02</pdfrwt>
<pdfrwt beam="2">  1       -1 0.50580753E-02 0.79767349E+02</pdfrwt>
<totfact> 0.14955922E+05</totfact>
</mgrwt>
</event>
<event>
 8    1  0.1226832E-024  0.8094434E+02  0.7818608E-02  0.1326393E+00
         -1   -1    0    0    0  501 -0.00000000000E+00  0.00000000000E+00  0.73864324943E+02  0.73864325115E+02  0.50400000000E-02 0.  1.
          2   -1    0    0  501    0  0.00000000000E+00 -0.00000000000E+00 -0.22175748880E+02  0.22175749026E+02  0.25500000000E-02 0. -1.
         24    2    1    2    0    0  0.00000000000E+00  0.00000000000E+00  0.51688576064E+02  0.96040074141E+02  0.80944344741E+02 0.  0.
         66    2    3    3    0    0  0.12581635912E+02 -0.15031824397E+02 -0.16118077505E+02  0.25456742262E+02  0.19999993062E+01 0.  0.
        -13    1    3    3    0    0 -0.12581635912E+02  0.15031824397E+02  0.67806653569E+02  0.70583331879E+02  0.10566000000E+00 0.  1.
         13    1    4    4    0    0  0.10404028444E+02 -0.13106387978E+02 -0.14117473090E+02  0.21893730248E+02  0.10566000000E+00 0. -1.
        -13    1    4    4    0    0  0.36820169771E+00 -0.39272294182E+00 -0.19395766398E+00  0.58188264302E+00  0.10566000000E+00 0.  1.
         14    1    4    4    0    0  0.18094057701E+01 -0.15327134769E+01 -0.18066467517E+01  0.29811293713E+01  0.00000000000E+00 0. -1.
<mgrwt>
<rscale>  0 0.80944345E+02</rscale>
<asrwt>0</asrwt>
<pdfrwt beam="1">  1        2 0.34116537E-02 0.80944345E+02</pdfrwt>
<pdfrwt beam="2">  1       -1 0.11363742E-01 0.80944345E+02</pdfrwt>
<totfact> 0.12257915E+05</totfact>
</mgrwt>
</event>
<event>
 8    1  0.1226832E-024  0.8809897E+02  0.7818608E-02  0.1307522E+00
          2   -1    0    0  501    0  0.00000000000E+00  0.00000000000E+00  0.24030928563E+02  0.24030928699E+02  0.25500000000E-02 0. -1.
         -1   -1    0    0    0  501 -0.00000000000E+00 -0.00000000000E+00 -0.80744154496E+02  0.80744154653E+02  0.50400000000E-02 0.  1.
         24    2    1    2    0    0  0.00000000000E+00  0.00000000000E+00 -0.56713225933E+02  0.10477508335E+03  0.88098967620E+02 0.  0.
         66    2    3    3    0    0  0.71943070362E+01 -0.32310132901E+02  0.61519789830E+01  0.33727578857E+02  0.19999970948E+01 0.  0.
        -13    1    3    3    0    0 -0.71943070362E+01  0.32310132901E+02 -0.62865204916E+02  0.71047504495E+02  0.10566000000E+00 0.  1.
         13    1    4    4    0    0  0.86205203706E-01 -0.74972716699E+00  0.37924712418E+00  0.85118422147E+00  0.10566000000E+00 0. -1.
        -13    1    4    4    0    0  0.17283486833E+01 -0.83765276726E+01  0.19238519442E+01  0.87673128928E+01  0.10566000000E+00 0.  1.
         14    1    4    4    0    0  0.53797531493E+01 -0.23183878061E+02  0.38488799145E+01  0.24109081743E+02  0.00000000000E+00 0. -1.
<mgrwt>
<rscale>  0 0.88098968E+02</rscale>
<asrwt>0</asrwt>
<pdfrwt beam="1">  1        2 0.36970660E-02 0.88098968E+02</pdfrwt>
<pdfrwt beam="2">  1       -1 0.12422178E-01 0.88098968E+02</pdfrwt>
<totfact> 0.97704281E+04</totfact>
</mgrwt>
</event>
<event>
 8    1  0.1226832E-024  0.7957528E+02  0.7818608E-02  0.1330261E+00
          2   -1    0    0  501    0  0.00000000000E+00  0.00000000000E+00  0.23691757379E+03  0.23691757380E+03  0.25500000000E-02 0. -1.
         -1   -1    0    0    0  501 -0.00000000000E+00 -0.00000000000E+00 -0.66818850093E+01  0.66818869101E+01  0.50400000000E-02 0.  1.
         24    2    1    2    0    0  0.00000000000E+00 -0.35527136788E-14  0.23023568878E+03  0.24359946071E+03  0.79575278018E+02 0.  0.
         66    2    3    3    0    0  0.16934556683E+01 -0.27403127818E+02  0.20323787167E+03  0.20509371440E+03  0.19999998026E+01 0.  0.
        -13    1    3    3    0    0 -0.16934556683E+01  0.27403127818E+02  0.26997817107E+02  0.38505746310E+02  0.10566000000E+00 0.  1.
         13    1    4    4    0    0  0.15272022659E+01 -0.22627705192E+02  0.16222141027E+03  0.16379909188E+03  0.10566000000E+00 0. -1.
        -13    1    4    4    0    0  0.15139387692E+00 -0.17912232401E+01  0.15447997706E+02  0.15552594573E+02  0.10566000000E+00 0.  1.
         14    1    4    4    0    0  0.14859525500E-01 -0.29841993860E+01  0.25568463700E+02  0.25742027946E+02  0.00000000000E+00 0. -1.
<mgrwt>
<rscale>  0 0.79575278E+02</rscale>
<asrwt>0</asrwt>
<pdfrwt beam="1">  1        2 0.36448855E-01 0.79575278E+02</pdfrwt>
<pdfrwt beam="2">  1       -1 0.10279825E-02 0.79575278E+02</pdfrwt>
<totfact> 0.23744567E+05</totfact>
</mgrwt>
</event>
<event>
 8    1  0.1226832E-024  0.8095624E+02  0.7818608E-02  0.1326359E+00
         -1   -1    0    0    0  501 -0.00000000000E+00  0.00000000000E+00  0.11104934799E+03  0.11104934811E+03  0.50400000000E-02 0.  1.
          2   -1    0    0  501    0  0.00000000000E+00 -0.00000000000E+00 -0.14754504639E+02  0.14754504859E+02  0.25500000000E-02 0. -1.
         24    2    1    2    0    0  0.88817841970E-15 -0.35527136788E-14  0.96294843355E+02  0.12580385297E+03  0.80956238578E+02 0.  0.
         66    2    3    3    0    0  0.55574380449E+01 -0.20947495881E+02 -0.49043922608E+01  0.22309992499E+02  0.20000001380E+01 0.  0.
        -13    1    3    3    0    0 -0.55574380449E+01  0.20947495881E+02  0.10119923562E+03  0.10349386047E+03  0.10566000000E+00 0.  1.
         13    1    4    4    0    0  0.11528626020E+01 -0.44461265478E+01 -0.15479893328E+01  0.48481510361E+01  0.10566000000E+00 0. -1.
        -13    1    4    4    0    0  0.31134293298E+01 -0.92011319972E+01 -0.16307868765E+01  0.98501219329E+01  0.10566000000E+00 0.  1.
        -14    1    4    4    0    0  0.12911461132E+01 -0.73002373363E+01 -0.17256160516E+01  0.76117195304E+01  0.00000000000E+00 0.  1.
<mgrwt>
<rscale>  0 0.80956239E+02</rscale>
<asrwt>0</asrwt>
<pdfrwt beam="1">  1        2 0.22699237E-02 0.80956239E+02</pdfrwt>
<pdfrwt beam="2">  1       -1 0.17084516E-01 0.80956239E+02</pdfrwt>
<totfact> 0.11245714E+05</totfact>
</mgrwt>
</event>
<event>
 8    1  0.1226832E-024  0.8471630E+02  0.7818608E-02  0.1316176E+00
         -1   -1    0    0    0  501 -0.00000000000E+00  0.00000000000E+00  0.46709968429E+02  0.46709968701E+02  0.50400000000E-02 0.  1.
          2   -1    0    0  501    0  0.00000000000E+00 -0.00000000000E+00 -0.38411780034E+02  0.38411780119E+02  0.25500000000E-02 0. -1.
         24    2    1    2    0    0  0.00000000000E+00  0.00000000000E+00  0.82981883945E+01  0.85121748820E+02  0.84716304166E+02 0.  0.
         66    2    3    3    0    0  0.34309630198E+02 -0.23870897658E+02  0.10909475524E+02  0.43243347898E+02  0.20000004713E+01 0.  0.
        -13    1    3    3    0    0 -0.34309630198E+02  0.23870897658E+02 -0.26112871293E+01  0.41878400922E+02  0.10566000000E+00 0.  1.
         13    1    4    4    0    0  0.11517150704E+02 -0.81946073415E+01  0.29361204797E+01  0.14437046697E+02  0.10566000000E+00 0. -1.
        -13    1    4    4    0    0  0.77883809896E+01 -0.54157932785E+01  0.22563132307E+01  0.97515028946E+01  0.10566000000E+00 0.  1.
        -14    1    4    4    0    0  0.15004098504E+02 -0.10260497038E+02  0.57170418134E+01  0.19054798306E+02  0.00000000000E+00 0.  1.
<mgrwt>
<rscale>  0 0.84716304E+02</rscale>
<asrwt>0</asrwt>
<pdfrwt beam="1">  1        2 0.59095047E-02 0.84716304E+02</pdfrwt>
<pdfrwt beam="2">  1       -1 0.71861490E-02 0.84716304E+02</pdfrwt>
<totfact> 0.12054791E+05</totfact>
</mgrwt>
</event>
<event>
 8    1  0.1226832E-024  0.7436887E+02  0.7818608E-02  0.1345837E+00
         -1   -1    0    0    0  501 -0.00000000000E+00  0.00000000000E+00  0.65674675088E+01  0.65674694427E+01  0.50400000000E-02 0.  1.
          2   -1    0    0  501    0  0.00000000000E+00 -0.00000000000E+00 -0.21053502503E+03  0.21053502504E+03  0.25500000000E-02 0. -1.
         24    2    1    2    0    0  0.00000000000E+00  0.44408920985E-15 -0.20396755752E+03  0.21710249449E+03  0.74368868431E+02 0.  0.
         66    2    3    3    0    0 -0.33625406247E+02  0.24107043447E+01 -0.14767620388E+03  0.15148841750E+03  0.20000005670E+01 0.  0.
        -13    1    3    3    0    0  0.33625406247E+02 -0.24107043447E+01 -0.56291353641E+02  0.65614076992E+02  0.10566000000E+00 0.  1.
         13    1    4    4    0    0 -0.15448280047E+02  0.91830053279E+00 -0.64591216779E+02  0.66419342675E+02  0.10566000000E+00 0. -1.
        -13    1    4    4    0    0 -0.72748207047E+01  0.10552777064E+01 -0.34181817806E+02  0.34963473224E+02  0.10566000000E+00 0.  1.
         14    1    4    4    0    0 -0.10902305496E+02  0.43712610545E+00 -0.48903169295E+02  0.50105601597E+02  0.00000000000E+00 0. -1.
<mgrwt>
<rscale>  0 0.74368868E+02</rscale>
<asrwt>0</asrwt>
<pdfrwt beam="1">  1        2 0.32389999E-01 0.74368868E+02</pdfrwt>
<pdfrwt beam="2">  1       -1 0.10103799E-02 0.74368868E+02</pdfrwt>
<totfact> 0.27200996E+05</totfact>
</mgrwt>
</event>
<event>
 8    1  0.1226832E-024  0.8048270E+02  0.7818608E-02  0.1327687E+00
         -1   -1    0    0    0  501 -0.00000000000E+00  0.00000000000E+00  0.76580387400E+02  0.76580387566E+02  0.50400000000E-02 0.  1.
          2   -1    0    0  501    0  0.00000000000E+00 -0.00000000000E+00 -0.21145964091E+02  0.21145964245E+02  0.25500000000E-02 0. -1.
         24    2    1    2    0    0  0.00000000000E+00  0.00000000000E+00  0.55434423309E+02  0.97726351811E+02  0.80482697214E+02 0.  0.
         66    2    3    3    0    0 -0.73350944539E+01  0.39532351852E+02  0.28786354883E+02  0.49490046310E+02  0.20000006623E+01 0.  0.
        -13    1    3    3    0    0  0.73350944539E+01 -0.39532351852E+02  0.26648068425E+02  0.48236305502E+02  0.10566000000E+00 0.  1.
         13    1    4    4    0    0 -0.40287510660E+01  0.19626877673E+02  0.13415503431E+02  0.24112902328E+02  0.10566000000E+00 0. -1.
        -13    1    4    4    0    0 -0.77288314484E+00  0.30870126471E+01  0.24679655474E+01  0.40285249680E+01  0.10566000000E+00 0. -1.
         14    1    4    4    0    0 -0.25334602430E+01  0.16818461533E+02  0.12902885905E+02  0.21348619014E+02  0.00000000000E+00 0. -1.
<mgrwt>
<rscale>  0 0.80482697E+02</rscale>
<asrwt>0</asrwt>
<pdfrwt beam="1">  1        2 0.32532252E-02 0.80482697E+02</pdfrwt>
<pdfrwt beam="2">  1       -1 0.11781598E-01 0.80482697E+02</pdfrwt>
<totfact> 0.12341408E+05</totfact>
</mgrwt>
</event>
<event>
 8    1  0.1226832E-024  0.8319376E+02  0.7818608E-02  0.1320225E+00
         -1   -1    0    0    0  501 -0.00000000000E+00  0.00000000000E+00  0.20107852368E+01  0.20107915532E+01  0.50400000000E-02 0.  1.
          2   -1    0    0  501    0  0.00000000000E+00 -0.00000000000E+00 -0.86050855386E+03  0.86050855386E+03  0.25500000000E-02 0. -1.
         24    2    1    2    0    0  0.00000000000E+00  0.00000000000E+00 -0.85849776862E+03  0.86251934542E+03  0.83193764715E+02 0.  0.
         66    2    3    3    0    0  0.16189989126E+02 -0.23913245871E+02 -0.73954399839E+03  0.74011031922E+03  0.19999990223E+01 0.  0.
        -13    1    3    3    0    0 -0.16189989126E+02  0.23913245871E+02 -0.11895377024E+03  0.12240902619E+03  0.10566000000E+00 0.  1.
         13    1    4    4    0    0  0.86937841458E+01 -0.13119093089E+02 -0.40622495710E+03  0.40652972759E+03  0.10566000000E+00 0. -1.
        -13    1    4    4    0    0  0.66201800292E+01 -0.87317698824E+01 -0.27217968842E+03  0.27240019189E+03  0.10566000000E+00 0. -1.
         14    1    4    4    0    0  0.87602495123E+00 -0.20623828995E+01 -0.61139352871E+02  0.61180399741E+02  0.00000000000E+00 0. -1.
<mgrwt>
<rscale>  0 0.83193765E+02</rscale>
<asrwt>0</asrwt>
<pdfrwt beam="1">  1        2 0.13238564E+00 0.83193765E+02</pdfrwt>
<pdfrwt beam="2">  1       -1 0.30935275E-03 0.83193765E+02</pdfrwt>
<totfact> 0.31388678E+05</totfact>
</mgrwt>
</event>
<event>
 8    1  0.1226832E-024  0.7975919E+02  0.7818608E-02  0.1329736E+00
          2   -1    0    0  501    0  0.00000000000E+00  0.00000000000E+00  0.32242470458E+03  0.32242470459E+03  0.25500000000E-02 0. -1.
         -1   -1    0    0    0  501 -0.00000000000E+00 -0.00000000000E+00 -0.49325671013E+01  0.49325696762E+01  0.50400000000E-02 0.  1.
         24    2    1    2    0    0  0.00000000000E+00  0.00000000000E+00  0.31749213748E+03  0.32735727427E+03  0.79759185391E+02 0.  0.
         66    2    3    3    0    0  0.22307131631E+02  0.31987054842E+02  0.19259030145E+03  0.19650904307E+03  0.19999994572E+01 0.  0.
        -13    1    3    3    0    0 -0.22307131631E+02 -0.31987054842E+02  0.12490183603E+03  0.13084823120E+03  0.10566000000E+00 0.  1.
         13    1    4    4    0    0  0.79610539914E+01  0.11753045563E+02  0.71021271450E+02  0.72426132184E+02  0.10566000000E+00 0. -1.
        -13    1    4    4    0    0  0.30381450196E+01  0.33462167363E+01  0.21141202266E+02  0.21619183354E+02  0.10566000000E+00 0.  1.
        -14    1    4    4    0    0  0.11307932620E+02  0.16887792543E+02  0.10042782773E+03  0.10246372753E+03  0.00000000000E+00 0.  1.
<mgrwt>
<rscale>  0 0.79759185E+02</rscale>
<asrwt>0</asrwt>
<pdfrwt beam="1">  1        2 0.49603799E-01 0.79759185E+02</pdfrwt>
<pdfrwt beam="2">  1       -1 0.75885670E-03 0.79759185E+02</pdfrwt>
<totfact> 0.26374788E+05</totfact>
</mgrwt>
</event>
<event>
 8    1  0.1226832E-024  0.7998940E+02  0.7818608E-02  0.1329082E+00
         -1   -1    0    0    0  501 -0.00000000000E+00  0.00000000000E+00  0.72790680635E+02  0.72790680809E+02  0.50400000000E-02 0.  1.
          2   -1    0    0  501    0  0.00000000000E+00 -0.00000000000E+00 -0.21975012603E+02  0.21975012751E+02  0.25500000000E-02 0. -1.
         24    2    1    2    0    0 -0.35527136788E-14  0.35527136788E-14  0.50815668032E+02  0.94765693560E+02  0.79989402788E+02 0.  0.
         66    2    3    3    0    0 -0.29958744575E+02  0.19806652133E+02  0.46405125723E+01  0.36267950091E+02  0.20000004171E+01 0.  0.
        -13    1    3    3    0    0  0.29958744575E+02 -0.19806652133E+02  0.46175155459E+02  0.58497743469E+02  0.10566000000E+00 0.  1.
         13    1    4    4    0    0 -0.45222332312E+00  0.16171674519E+00 -0.23673339549E-01  0.49232377787E+00  0.10566000000E+00 0.  1.
        -13    1    4    4    0    0 -0.19152547647E+01  0.10522858388E+01  0.71049242959E-01  0.21889993903E+01  0.10566000000E+00 0.  1.
         14    1    4    4    0    0 -0.27591266487E+02  0.18592649549E+02  0.45931366688E+01  0.33586626923E+02  0.00000000000E+00 0. -1.
<mgrwt>
<rscale>  0 0.79989403E+02</rscale>
<asrwt>0</asrwt>
<pdfrwt beam="1">  1        2 0.33807713E-02 0.79989403E+02</pdfrwt>
<pdfrwt beam="2">  1       -1 0.11198566E-01 0.79989403E+02</pdfrwt>
<totfact> 0.12657517E+05</totfact>
</mgrwt>
</event>
<event>
 8    1  0.1226832E-024  0.7951676E+02  0.7818608E-02  0.1330428E+00
          2   -1    0    0  501    0  0.00000000000E+00  0.00000000000E+00  0.28520820491E+02  0.28520820605E+02  0.25500000000E-02 0. -1.
         -1   -1    0    0    0  501 -0.00000000000E+00 -0.00000000000E+00 -0.55423676434E+02  0.55423676663E+02  0.50400000000E-02 0.  1.
         24    2    1    2    0    0  0.35527136788E-14  0.35527136788E-14 -0.26902855943E+02  0.83944497268E+02  0.79516759012E+02 0.  0.
         66    2    3    3    0    0  0.19524557742E+02  0.22196065665E+02  0.14567429919E+02  0.33016416021E+02  0.20000065872E+01 0.  0.
        -13    1    3    3    0    0 -0.19524557742E+02 -0.22196065665E+02 -0.41470285862E+02  0.50928081247E+02  0.10566000000E+00 0.  1.
         13    1    4    4    0    0  0.35167635808E+01  0.48300878200E+01  0.29237773928E+01  0.66525944346E+01  0.10566000000E+00 0. -1.
        -13    1    4    4    0    0  0.47638927889E+01  0.52107968977E+01  0.41349478906E+01  0.81826668579E+01  0.10566000000E+00 0.  1.
         14    1    4    4    0    0  0.11243901373E+02  0.12155180948E+02  0.75087046357E+01  0.18181154728E+02  0.00000000000E+00 0. -1.
<mgrwt>
<rscale>  0 0.79516759E+02</rscale>
<asrwt>0</asrwt>
<pdfrwt beam="1">  1        2 0.43878185E-02 0.79516759E+02</pdfrwt>
<pdfrwt beam="2">  1       -1 0.85267195E-02 0.79516759E+02</pdfrwt>
<totfact> 0.13550436E+05</totfact>
</mgrwt>
</event>
<event>
 8    1  0.1226832E-024  0.8589605E+02  0.7818608E-02  0.1313106E+00
         -1   -1    0    0    0  501 -0.00000000000E+00  0.00000000000E+00  0.19657977972E+02  0.19657978618E+02  0.50400000000E-02 0.  1.
          2   -1    0    0  501    0  0.00000000000E+00 -0.00000000000E+00 -0.93831258099E+02  0.93831258134E+02  0.25500000000E-02 0. -1.
         24    2    1    2    0    0 -0.17763568394E-14  0.00000000000E+00 -0.74173280127E+02  0.11348923675E+03  0.85896049815E+02 0.  0.
         66    2    3    3    0    0  0.67569836791E+01  0.91828452575E+01 -0.91783434574E+02  0.92510433661E+02  0.19999996328E+01 0.  0.
        -13    1    3    3    0    0 -0.67569836791E+01 -0.91828452575E+01  0.17610154447E+02  0.20978803091E+02  0.10566000000E+00 0.  1.
         13    1    4    4    0    0  0.55694708809E+01  0.67418581065E+01 -0.69714214486E+02  0.70260618571E+02  0.10566000000E+00 0. -1.
        -13    1    4    4    0    0  0.30305310623E+00  0.10159078705E+01 -0.11385902821E+02  0.11435639775E+02  0.10566000000E+00 0.  1.
        -14    1    4    4    0    0  0.88445969196E+00  0.14250792805E+01 -0.10683317267E+02  0.10814175314E+02  0.00000000000E+00 0.  1.
<mgrwt>
<rscale>  0 0.85896050E+02</rscale>
<asrwt>0</asrwt>
<pdfrwt beam="1">  1        2 0.14435578E-01 0.85896050E+02</pdfrwt>
<pdfrwt beam="2">  1       -1 0.30243044E-02 0.85896050E+02</pdfrwt>
<totfact> 0.14378960E+05</totfact>
</mgrwt>
</event>
<event>
 8    1  0.1226832E-024  0.7935960E+02  0.7818608E-02  0.1330879E+00
          2   -1    0    0  501    0  0.00000000000E+00  0.00000000000E+00  0.16766692997E+03  0.16766692999E+03  0.25500000000E-02 0. -1.
         -1   -1    0    0    0  501 -0.00000000000E+00 -0.00000000000E+00 -0.93905597815E+01  0.93905611340E+01  0.50400000000E-02 0.  1.
         24    2    1    2    0    0  0.35527136788E-14  0.35527136788E-14  0.15827637019E+03  0.17705749113E+03  0.79359598052E+02 0.  0.
         66    2    3    3    0    0  0.24144783250E+02  0.19221452040E+02  0.13474380691E+03  0.13824734458E+03  0.20000011759E+01 0.  0.
        -13    1    3    3    0    0 -0.24144783250E+02 -0.19221452040E+02  0.23532563281E+02  0.38810146551E+02  0.10566000000E+00 0.  1.
         13    1    4    4    0    0  0.16864473115E+02  0.12450318193E+02  0.92152935390E+02  0.94507118999E+02  0.10566000000E+00 0. -1.
        -13    1    4    4    0    0  0.41820431499E+01  0.34869537182E+01  0.23399420096E+02  0.24024827908E+02  0.10566000000E+00 0.  1.
         14    1    4    4    0    0  0.30982669851E+01  0.32841801285E+01  0.19191451425E+02  0.19715397669E+02  0.00000000000E+00 0. -1.
<mgrwt>
<rscale>  0 0.79359598E+02</rscale>
<asrwt>0</asrwt>
<pdfrwt beam="1">  1        2 0.25794909E-01 0.79359598E+02</pdfrwt>
<pdfrwt beam="2">  1       -1 0.14447018E-02 0.79359598E+02</pdfrwt>
<totfact> 0.21220118E+05</totfact>
</mgrwt>
</event>
<event>
 8    1  0.1226832E-024  0.8109392E+02  0.7818608E-02  0.1325975E+00
         -1   -1    0    0    0  501 -0.00000000000E+00  0.00000000000E+00  0.32165204610E+01  0.32165244096E+01  0.50400000000E-02 0.  1.
          2   -1    0    0  501    0  0.00000000000E+00 -0.00000000000E+00 -0.51112833734E+03  0.51112833735E+03  0.25500000000E-02 0. -1.
         24    2    1    2    0    0  0.35527136788E-14  0.35527136788E-14 -0.50791181688E+03  0.51434486176E+03  0.81093915243E+02 0.  0.
         66    2    3    3    0    0 -0.25898557071E+02 -0.29036811629E+02 -0.32591826514E+03  0.32823861327E+03  0.19999999329E+01 0.  0.
        -13    1    3    3    0    0  0.25898557071E+02  0.29036811629E+02 -0.18199355174E+03  0.18610624849E+03  0.10566000000E+00 0.  1.
         13    1    4    4    0    0 -0.93692840664E+01 -0.10549861924E+02 -0.11982912091E+03  0.12065700333E+03  0.10566000000E+00 0. -1.
        -13    1    4    4    0    0 -0.43420401562E+01 -0.46395657699E+01 -0.58468470147E+02  0.58812856151E+02  0.10566000000E+00 0.  1.
        -14    1    4    4    0    0 -0.12187232848E+02 -0.13847383936E+02 -0.14762067409E+03  0.14876875379E+03  0.00000000000E+00 0.  1.
<mgrwt>
<rscale>  0 0.81093915E+02</rscale>
<asrwt>0</asrwt>
<pdfrwt beam="1">  1        2 0.78635065E-01 0.81093915E+02</pdfrwt>
<pdfrwt beam="2">  1       -1 0.49485001E-03 0.81093915E+02</pdfrwt>
<totfact> 0.29597406E+05</totfact>
</mgrwt>
</event>
<event>
 8    1  0.1226832E-024  0.7766797E+02  0.7818608E-02  0.1335803E+00
          2   -1    0    0  501    0  0.00000000000E+00  0.00000000000E+00  0.21382957784E+02  0.21382957936E+02  0.25500000000E-02 0. -1.
         -1   -1    0    0    0  501 -0.00000000000E+00 -0.00000000000E+00 -0.70527112324E+02  0.70527112504E+02  0.50400000000E-02 0.  1.
         24    2    1    2    0    0 -0.17763568394E-14  0.00000000000E+00 -0.49144154540E+02  0.91910070441E+02  0.77667967161E+02 0.  0.
         66    2    3    3    0    0  0.12992051151E+02  0.25791065175E+02  0.60904772099E+01  0.29581520445E+02  0.20000008099E+01 0.  0.
        -13    1    3    3    0    0 -0.12992051151E+02 -0.25791065175E+02 -0.55234631750E+02  0.62328549996E+02  0.10566000000E+00 0.  1.
         13    1    4    4    0    0  0.50976652676E+01  0.85152914759E+01  0.19416346342E+01  0.10113233370E+02  0.10566000000E+00 0.  1.
        -13    1    4    4    0    0  0.40813831080E+01  0.79324321950E+01  0.16618198394E+01  0.90749092456E+01  0.10566000000E+00 0. -1.
        -14    1    4    4    0    0  0.38130027758E+01  0.93433415037E+01  0.24870227363E+01  0.10393377830E+02  0.00000000000E+00 0.  1.
<mgrwt>
<rscale>  0 0.77667967E+02</rscale>
<asrwt>0</asrwt>
<pdfrwt beam="1">  1        2 0.32896858E-02 0.77667967E+02</pdfrwt>
<pdfrwt beam="2">  1       -1 0.10850325E-01 0.77667967E+02</pdfrwt>
<totfact> 0.13691304E+05</totfact>
</mgrwt>
</event>
<event>
 8    1  0.1226832E-024  0.7873661E+02  0.7818608E-02  0.1332675E+00
          2   -1    0    0  501    0  0.00000000000E+00  0.00000000000E+00  0.10153519229E+02  0.10153519549E+02  0.25500000000E-02 0. -1.
         -1   -1    0    0    0  501 -0.00000000000E+00 -0.00000000000E+00 -0.15264298414E+03  0.15264298423E+03  0.50400000000E-02 0.  1.
         24    2    1    2    0    0  0.00000000000E+00  0.00000000000E+00 -0.14248946492E+03  0.16279650378E+03  0.78736611750E+02 0.  0.
         66    2    3    3    0    0 -0.18884311142E+02  0.34406479779E+02 -0.76928554385E+02  0.86385331742E+02  0.20000005662E+01 0.  0.
        -13    1    3    3    0    0  0.18884311142E+02 -0.34406479779E+02 -0.65560910531E+02  0.76411172035E+02  0.10566000000E+00 0.  1.
         13    1    4    4    0    0 -0.14881478464E+02  0.26583120987E+02 -0.58483643248E+02  0.65942917848E+02  0.10566000000E+00 0. -1.
        -13    1    4    4    0    0 -0.19460249910E+01  0.39075875036E+01 -0.84133499393E+01  0.94790228716E+01  0.10566000000E+00 0.  1.
        -14    1    4    4    0    0 -0.20568076871E+01  0.39157712882E+01 -0.10031561198E+02  0.10963391022E+02  0.00000000000E+00 0.  1.
<mgrwt>
<rscale>  0 0.78736612E+02</rscale>
<asrwt>0</asrwt>
<pdfrwt beam="1">  1        2 0.15620800E-02 0.78736612E+02</pdfrwt>
<pdfrwt beam="2">  1       -1 0.23483535E-01 0.78736612E+02</pdfrwt>
<totfact> 0.11180132E+05</totfact>
</mgrwt>
</event>
<event>
 8    1  0.1257032E-024  0.7019498E+02  0.7818608E-02  0.1359431E+00
          2   -1    0    0  501    0  0.00000000000E+00  0.00000000000E+00  0.51770480985E+03  0.51770480986E+03  0.25500000000E-02 0. -1.
         -1   -1    0    0    0  501 -0.00000000000E+00 -0.00000000000E+00 -0.23794107967E+01  0.23794161345E+01  0.50400000000E-02 0.  1.
         24    2    1    2    0    0  0.17763568394E-14  0.00000000000E+00  0.51532539905E+03  0.52008422599E+03  0.70194979984E+02 0.  0.
         66    2    3    3    0    0 -0.14690091134E+02  0.12649906319E+02  0.47439184308E+03  0.47479199624E+03  0.20000005754E+01 0.  0.
        -13    1    3    3    0    0  0.14690091134E+02 -0.12649906319E+02  0.40933555971E+02  0.45292229752E+02  0.10566000000E+00 0.  1.
         13    1    4    4    0    0 -0.73358766026E+01  0.61959737771E+01  0.24043600614E+03  0.24062769871E+03  0.10566000000E+00 0. -1.
        -13    1    4    4    0    0 -0.93489745136E+00  0.30451832395E+00  0.23099157018E+02  0.23120315388E+02  0.10566000000E+00 0.  1.
        -14    1    4    4    0    0 -0.64193170804E+01  0.61494142178E+01  0.21085667993E+03  0.21104398214E+03  0.00000000000E+00 0.  1.
<mgrwt>
<rscale>  0 0.70194980E+02</rscale>
<asrwt>0</asrwt>
<pdfrwt beam="1">  1        2 0.79647070E-01 0.70194980E+02</pdfrwt>
<pdfrwt beam="2">  1       -1 0.36606280E-03 0.70194980E+02</pdfrwt>
<totfact> 0.43180786E+05</totfact>
</mgrwt>
</event>
<event>
 8    1  0.1226832E-024  0.7386296E+02  0.7818608E-02  0.1347429E+00
         -1   -1    0    0    0  501 -0.00000000000E+00  0.00000000000E+00  0.23563811432E+01  0.23563865331E+01  0.50400000000E-02 0.  1.
          2   -1    0    0  501    0  0.00000000000E+00 -0.00000000000E+00 -0.57882510359E+03  0.57882510360E+03  0.25500000000E-02 0. -1.
         24    2    1    2    0    0  0.00000000000E+00  0.00000000000E+00 -0.57646872245E+03  0.58118149013E+03  0.73862957623E+02 0.  0.
         66    2    3    3    0    0 -0.29722697017E+02 -0.80921929306E+01 -0.44835073229E+03  0.44941217325E+03  0.20000043886E+01 0.  0.
        -13    1    3    3    0    0  0.29722697017E+02  0.80921929306E+01 -0.12811799016E+03  0.13176931688E+03  0.10566000000E+00 0.  1.
         13    1    4    4    0    0 -0.23418764994E+02 -0.65068060984E+01 -0.35750074055E+03  0.35832606344E+03  0.10566000000E+00 0. -1.
        -13    1    4    4    0    0 -0.15995249815E+01 -0.23701195586E+00 -0.18524437483E+02  0.18595176873E+02  0.10566000000E+00 0.  1.
        -14    1    4    4    0    0 -0.47044070413E+01 -0.13483748764E+01 -0.72325554253E+02  0.72490932939E+02  0.00000000000E+00 0.  1.
<mgrwt>
<rscale>  0 0.73862958E+02</rscale>
<asrwt>0</asrwt>
<pdfrwt beam="1">  1        2 0.89049903E-01 0.73862958E+02</pdfrwt>
<pdfrwt beam="2">  1       -1 0.36252105E-03 0.73862958E+02</pdfrwt>
<totfact> 0.39155779E+05</totfact>
</mgrwt>
</event>
<event>
 8    1  0.1226832E-024  0.8112163E+02  0.7818608E-02  0.1325898E+00
          2   -1    0    0  501    0  0.00000000000E+00  0.00000000000E+00  0.40856699324E+03  0.40856699325E+03  0.25500000000E-02 0. -1.
         -1   -1    0    0    0  501 -0.00000000000E+00 -0.00000000000E+00 -0.40267057637E+01  0.40267089178E+01  0.50400000000E-02 0.  1.
         24    2    1    2    0    0 -0.71054273576E-14  0.00000000000E+00  0.40454028748E+03  0.41259370216E+03  0.81121630133E+02 0.  0.
         66    2    3    3    0    0  0.36395561330E+02 -0.14027744944E+02  0.25851545964E+03  0.26144914877E+03  0.20000016305E+01 0.  0.
        -13    1    3    3    0    0 -0.36395561330E+02  0.14027744944E+02  0.14602482783E+03  0.15114455339E+03  0.10566000000E+00 0.  1.
         13    1    4    4    0    0  0.25707004478E+02 -0.94493173927E+01  0.18042163467E+03  0.18248867663E+03  0.10566000000E+00 0. -1.
        -13    1    4    4    0    0  0.61967946418E+01 -0.22594591525E+01  0.42223796794E+02  0.42735998868E+02  0.10566000000E+00 0.  1.
         14    1    4    4    0    0  0.44917622107E+01 -0.23189683985E+01  0.35870028180E+02  0.36224473272E+02  0.00000000000E+00 0. -1.
<mgrwt>
<rscale>  0 0.81121630E+02</rscale>
<asrwt>0</asrwt>
<pdfrwt beam="1">  1        2 0.62856455E-01 0.81121630E+02</pdfrwt>
<pdfrwt beam="2">  1       -1 0.61949350E-03 0.81121630E+02</pdfrwt>
<totfact> 0.27445997E+05</totfact>
</mgrwt>
</event>
<event>
 8    1  0.1226832E-024  0.8004238E+02  0.7818608E-02  0.1328931E+00
         -1   -1    0    0    0  501 -0.00000000000E+00  0.00000000000E+00  0.24988637295E+01  0.24988688121E+01  0.50400000000E-02 0.  1.
          2   -1    0    0  501    0  0.00000000000E+00 -0.00000000000E+00 -0.64096899744E+03  0.64096899744E+03  0.25500000000E-02 0. -1.
         24    2    1    2    0    0 -0.88817841970E-15  0.00000000000E+00 -0.63847013371E+03  0.64346786625E+03  0.80042384180E+02 0.  0.
         66    2    3    3    0    0  0.40844962263E+01 -0.32755936886E+02 -0.50099204478E+03  0.50208232736E+03  0.19999995657E+01 0.  0.
        -13    1    3    3    0    0 -0.40844962263E+01  0.32755936886E+02 -0.13747808892E+03  0.14138553890E+03  0.10566000000E+00 0.  1.
         13    1    4    4    0    0  0.68450580447E+00 -0.54836025978E+01 -0.74112121348E+02  0.74317939560E+02  0.10566000000E+00 0. -1.
        -13    1    4    4    0    0  0.23184393828E+01 -0.15760076536E+02 -0.24883145097E+03  0.24934084570E+03  0.10566000000E+00 0.  1.
         14    1    4    4    0    0  0.10815510390E+01 -0.11512257752E+02 -0.17804847246E+03  0.17842354210E+03  0.00000000000E+00 0. -1.
<mgrwt>
<rscale>  0 0.80042384E+02</rscale>
<asrwt>0</asrwt>
<pdfrwt beam="1">  1        2 0.98610484E-01 0.80042384E+02</pdfrwt>
<pdfrwt beam="2">  1       -1 0.38444148E-03 0.80042384E+02</pdfrwt>
<totfact> 0.32694505E+05</totfact>
</mgrwt>
</event>
<event>
 8    1  0.1226832E-024  0.7939617E+02  0.7818608E-02  0.1330774E+00
          2   -1    0    0  501    0  0.00000000000E+00  0.00000000000E+00  0.21794831422E+02  0.21794831571E+02  0.25500000000E-02 0. -1.
         -1   -1    0    0    0  501 -0.00000000000E+00 -0.00000000000E+00 -0.72307868712E+02  0.72307868888E+02  0.50400000000E-02 0.  1.
         24    2    1    2    0    0  0.00000000000E+00  0.00000000000E+00 -0.50513037290E+02  0.94102700459E+02  0.79396166768E+02 0.  0.
         66    2    3    3    0    0  0.35785264228E+02  0.24835550356E+01 -0.51871501089E+01  0.36299582946E+02  0.20000035788E+01 0.  0.
        -13    1    3    3    0    0 -0.35785264228E+02 -0.24835550356E+01 -0.45325887181E+02  0.57803117513E+02  0.10566000000E+00 0.  1.
         13    1    4    4    0    0  0.43963857443E+01  0.95616697010E-01 -0.11133939728E+01  0.45374178053E+01  0.10566000000E+00 0.  1.
        -13    1    4    4    0    0  0.12807713064E+02  0.96173266928E+00 -0.11090599648E+01  0.12891998360E+02  0.10566000000E+00 0. -1.
         14    1    4    4    0    0  0.18581165419E+02  0.14262056693E+01 -0.29646961713E+01  0.18870166781E+02  0.00000000000E+00 0. -1.
<mgrwt>
<rscale>  0 0.79396167E+02</rscale>
<asrwt>0</asrwt>
<pdfrwt beam="1">  1        2 0.33530511E-02 0.79396167E+02</pdfrwt>
<pdfrwt beam="2">  1       -1 0.11124287E-01 0.79396167E+02</pdfrwt>
<totfact> 0.12908050E+05</totfact>
</mgrwt>
</event>
<event>
 8    1  0.1226832E-024  0.7925543E+02  0.7818608E-02  0.1331178E+00
          2   -1    0    0  501    0  0.00000000000E+00  0.00000000000E+00  0.71793019735E+02  0.71793019780E+02  0.25500000000E-02 0. -1.
         -1   -1    0    0    0  501 -0.00000000000E+00 -0.00000000000E+00 -0.21873374609E+02  0.21873375190E+02  0.50400000000E-02 0.  1.
         24    2    1    2    0    0  0.00000000000E+00  0.00000000000E+00  0.49919645126E+02  0.93666394970E+02  0.79255426168E+02 0.  0.
         66    2    3    3    0    0 -0.31357299812E+02  0.21083327413E+02  0.38987393168E+02  0.54330504955E+02  0.19999991019E+01 0.  0.
        -13    1    3    3    0    0  0.31357299812E+02 -0.21083327413E+02  0.10932251958E+02  0.39335890014E+02  0.10566000000E+00 0.  1.
         13    1    4    4    0    0 -0.18527358073E+02  0.12214730490E+02  0.23304713620E+02  0.32180482891E+02  0.10566000000E+00 0. -1.
        -13    1    4    4    0    0 -0.92319771999E+01  0.61899143215E+01  0.10430481765E+02  0.15243049439E+02  0.10566000000E+00 0.  1.
        -14    1    4    4    0    0 -0.35979645384E+01  0.26786826020E+01  0.52521977826E+01  0.69069726255E+01  0.00000000000E+00 0.  1.
<mgrwt>
<rscale>  0 0.79255426E+02</rscale>
<asrwt>0</asrwt>
<pdfrwt beam="1">  1        2 0.11045080E-01 0.79255426E+02</pdfrwt>
<pdfrwt beam="2">  1       -1 0.33651347E-02 0.79255426E+02</pdfrwt>
<totfact> 0.16662914E+05</totfact>
</mgrwt>
</event>
<event>
 8    1  0.1226832E-024  0.7969203E+02  0.7818608E-02  0.1329928E+00
          2   -1    0    0  501    0  0.00000000000E+00  0.00000000000E+00  0.17752300320E+03  0.17752300322E+03  0.25500000000E-02 0. -1.
         -1   -1    0    0    0  501 -0.00000000000E+00 -0.00000000000E+00 -0.89436560588E+01  0.89436574789E+01  0.50400000000E-02 0.  1.
         24    2    1    2    0    0  0.00000000000E+00  0.00000000000E+00  0.16857934714E+03  0.18646666070E+03  0.79692027637E+02 0.  0.
         66    2    3    3    0    0  0.15653818468E+02 -0.28508991385E+02  0.13810272933E+03  0.14189492055E+03  0.20000018633E+01 0.  0.
        -13    1    3    3    0    0 -0.15653818468E+02  0.28508991385E+02  0.30476617811E+02  0.44571740146E+02  0.10566000000E+00 0.  1.
         13    1    4    4    0    0  0.26822935854E+01 -0.45864824125E+01  0.20453631262E+02  0.21132740372E+02  0.10566000000E+00 0. -1.
        -13    1    4    4    0    0  0.88068238700E+01 -0.16565096780E+02  0.83585487530E+02  0.85665088966E+02  0.10566000000E+00 0.  1.
        -14    1    4    4    0    0  0.41647010126E+01 -0.73574121917E+01  0.34063610537E+02  0.35097091212E+02  0.00000000000E+00 0.  1.
<mgrwt>
<rscale>  0 0.79692028E+02</rscale>
<asrwt>0</asrwt>
<pdfrwt beam="1">  1        2 0.27311229E-01 0.79692028E+02</pdfrwt>
<pdfrwt beam="2">  1       -1 0.13759473E-02 0.79692028E+02</pdfrwt>
<totfact> 0.21391776E+05</totfact>
</mgrwt>
</event>
<event>
 8    1  0.1226832E-024  0.7817323E+02  0.7818608E-02  0.1334317E+00
         -1   -1    0    0    0  501 -0.00000000000E+00  0.00000000000E+00  0.42399356460E+01  0.42399386415E+01  0.50400000000E-02 0.  1.
          2   -1    0    0  501    0  0.00000000000E+00 -0.00000000000E+00 -0.36032692657E+03  0.36032692657E+03  0.25500000000E-02 0. -1.
         24    2    1    2    0    0  0.00000000000E+00  0.00000000000E+00 -0.35608699092E+03  0.36456686522E+03  0.78173231425E+02 0.  0.
         66    2    3    3    0    0 -0.13422801179E+00 -0.32775908254E+02 -0.27725170775E+03  0.27918951919E+03  0.19999981732E+01 0.  0.
        -13    1    3    3    0    0  0.13422801179E+00  0.32775908254E+02 -0.78835283167E+02  0.85377346030E+02  0.10566000000E+00 0.  1.
         13    1    4    4    0    0  0.23491920623E-01 -0.24863719822E+02 -0.20945164851E+03  0.21092228271E+03  0.10566000000E+00 0. -1.
        -13    1    4    4    0    0 -0.36996876573E+00 -0.62988243108E+01 -0.56314321980E+02  0.56666798821E+02  0.10566000000E+00 0.  1.
         14    1    4    4    0    0  0.21224883331E+00 -0.16133641218E+01 -0.11485737260E+02  0.11600437654E+02  0.00000000000E+00 0. -1.
<mgrwt>
<rscale>  0 0.78173231E+02</rscale>
<asrwt>0</asrwt>
<pdfrwt beam="1">  1        2 0.55434888E-01 0.78173231E+02</pdfrwt>
<pdfrwt beam="2">  1       -1 0.65229831E-03 0.78173231E+02</pdfrwt>
<totfact> 0.28924101E+05</totfact>
</mgrwt>
</event>
<event>
 8    1  0.1226832E-024  0.7959046E+02  0.7818608E-02  0.1330218E+00
          2   -1    0    0  501    0  0.00000000000E+00  0.00000000000E+00  0.89618078599E+02  0.89618078636E+02  0.25500000000E-02 0. -1.
         -1   -1    0    0    0  501 -0.00000000000E+00 -0.00000000000E+00 -0.17671215386E+02  0.17671216105E+02  0.50400000000E-02 0.  1.
         24    2    1    2    0    0  0.35527136788E-14  0.00000000000E+00  0.71946863213E+02  0.10728929474E+03  0.79590461989E+02 0.  0.
         66    2    3    3    0    0 -0.18745363579E+02 -0.34414848840E+02  0.45127342110E+02  0.59801734762E+02  0.19999995618E+01 0.  0.
        -13    1    3    3    0    0  0.18745363579E+02  0.34414848840E+02  0.26819521104E+02  0.47487559978E+02  0.10566000000E+00 0.  1.
         13    1    4    4    0    0 -0.40545969952E+01 -0.81649472637E+01  0.10795530382E+02  0.14130136619E+02  0.10566000000E+00 0.  1.
        -13    1    4    4    0    0 -0.26625738854E+01 -0.44905442809E+01  0.68308971465E+01  0.85980583562E+01  0.10566000000E+00 0. -1.
         14    1    4    4    0    0 -0.12028192699E+02 -0.21759357296E+02  0.27500914582E+02  0.37073539787E+02  0.00000000000E+00 0. -1.
<mgrwt>
<rscale>  0 0.79590462E+02</rscale>
<asrwt>0</asrwt>
<pdfrwt beam="1">  1        2 0.13787397E-01 0.79590462E+02</pdfrwt>
<pdfrwt beam="2">  1       -1 0.27186486E-02 0.79590462E+02</pdfrwt>
<totfact> 0.17439798E+05</totfact>
</mgrwt>
</event>
<event>
 8    1  0.1226832E-024  0.8097206E+02  0.7818608E-02  0.1326315E+00
         -1   -1    0    0    0  501 -0.00000000000E+00  0.00000000000E+00  0.10869759050E+02  0.10869760219E+02  0.50400000000E-02 0.  1.
          2   -1    0    0  501    0  0.00000000000E+00 -0.00000000000E+00 -0.15079622580E+03  0.15079622582E+03  0.25500000000E-02 0. -1.
         24    2    1    2    0    0  0.00000000000E+00  0.00000000000E+00 -0.13992646675E+03  0.16166598604E+03  0.80972062745E+02 0.  0.
         66    2    3    3    0    0 -0.48446715819E+01  0.22575896983E+02 -0.13634380794E+03  0.13829958761E+03  0.20000005658E+01 0.  0.
        -13    1    3    3    0    0  0.48446715819E+01 -0.22575896983E+02 -0.35826588072E+01  0.23366398427E+02  0.10566000000E+00 0.  1.
         13    1    4    4    0    0 -0.22349507356E+01  0.11323683512E+02 -0.63074375852E+02  0.64121828313E+02  0.10566000000E+00 0. -1.
        -13    1    4    4    0    0 -0.25723413760E+01  0.10216422867E+02 -0.66498527651E+02  0.67327985119E+02  0.10566000000E+00 0.  1.
        -14    1    4    4    0    0 -0.37379470393E-01  0.10357906037E+01 -0.67709044373E+01  0.68497741786E+01  0.00000000000E+00 0.  1.
<mgrwt>
<rscale>  0 0.80972063E+02</rscale>
<asrwt>0</asrwt>
<pdfrwt beam="1">  1        2 0.23199418E-01 0.80972063E+02</pdfrwt>
<pdfrwt beam="2">  1       -1 0.16722708E-02 0.80972063E+02</pdfrwt>
<totfact> 0.19431081E+05</totfact>
</mgrwt>
</event>
<event>
 8    1  0.1226832E-024  0.7893504E+02  0.7818608E-02  0.1332101E+00
          2   -1    0    0  501    0  0.00000000000E+00  0.00000000000E+00  0.49974601446E+03  0.49974601447E+03  0.25500000000E-02 0. -1.
         -1   -1    0    0    0  501 -0.00000000000E+00 -0.00000000000E+00 -0.31169519118E+01  0.31169559865E+01  0.50400000000E-02 0.  1.
         24    2    1    2    0    0  0.00000000000E+00  0.00000000000E+00  0.49662906255E+03  0.50286297045E+03  0.78935044722E+02 0.  0.
         66    2    3    3    0    0 -0.50452390875E+01  0.19472008430E+02  0.46461097025E+03  0.46505049965E+03  0.19999997473E+01 0.  0.
        -13    1    3    3    0    0  0.50452390875E+01 -0.19472008430E+02  0.32018092301E+02  0.37812470805E+02  0.10566000000E+00 0.  1.
         13    1    4    4    0    0 -0.13378893436E+01  0.59209005657E+01  0.15859495797E+03  0.15871111766E+03  0.10566000000E+00 0. -1.
        -13    1    4    4    0    0 -0.15309299132E+01  0.60449761421E+01  0.12778708354E+03  0.12793918621E+03  0.10566000000E+00 0.  1.
        -14    1    4    4    0    0 -0.21764198307E+01  0.75061317222E+01  0.17822892873E+03  0.17840019578E+03  0.00000000000E+00 0.  1.
<mgrwt>
<rscale>  0 0.78935045E+02</rscale>
<asrwt>0</asrwt>
<pdfrwt beam="1">  1        2 0.76883959E-01 0.78935045E+02</pdfrwt>
<pdfrwt beam="2">  1       -1 0.47953165E-03 0.78935045E+02</pdfrwt>
<totfact> 0.31527868E+05</totfact>
</mgrwt>
</event>
<event>
 8    1  0.1226832E-024  0.7889520E+02  0.7818608E-02  0.1332216E+00
          2   -1    0    0  501    0  0.00000000000E+00  0.00000000000E+00  0.71582697724E+03  0.71582697724E+03  0.25500000000E-02 0. -1.
         -1   -1    0    0    0  501 -0.00000000000E+00 -0.00000000000E+00 -0.21738645107E+01  0.21738703531E+01  0.50400000000E-02 0.  1.
         24    2    1    2    0    0  0.00000000000E+00  0.00000000000E+00  0.71365311273E+03  0.71800084759E+03  0.78895195308E+02 0.  0.
         66    2    3    3    0    0  0.18848569223E+02  0.22083551103E+02  0.59974803154E+03  0.60045370609E+03  0.20000084888E+01 0.  0.
        -13    1    3    3    0    0 -0.18848569223E+02 -0.22083551103E+02  0.11390508119E+03  0.11754714150E+03  0.10566000000E+00 0.  1.
         13    1    4    4    0    0  0.65003647569E+01  0.76696407214E+01  0.22055751155E+03  0.22078656027E+03  0.10566000000E+00 0. -1.
        -13    1    4    4    0    0  0.16416529186E+01  0.24406509267E+01  0.63951502322E+02  0.64019197234E+02  0.10566000000E+00 0. -1.
         14    1    4    4    0    0  0.10706551547E+02  0.11973259455E+02  0.31523901767E+03  0.31564794859E+03  0.00000000000E+00 0. -1.
<mgrwt>
<rscale>  0 0.78895195E+02</rscale>
<asrwt>0</asrwt>
<pdfrwt beam="1">  1        2 0.11012730E+00 0.78895195E+02</pdfrwt>
<pdfrwt beam="2">  1       -1 0.33444094E-03 0.78895195E+02</pdfrwt>
<totfact> 0.34856693E+05</totfact>
</mgrwt>
</event>
<event>
 8    1  0.1226832E-024  0.7990752E+02  0.7818608E-02  0.1329314E+00
          2   -1    0    0  501    0  0.00000000000E+00  0.00000000000E+00  0.65998236819E+03  0.65998236819E+03  0.25500000000E-02 0. -1.
         -1   -1    0    0    0  501 -0.00000000000E+00 -0.00000000000E+00 -0.24187028878E+01  0.24187081388E+01  0.50400000000E-02 0.  1.
         24    2    1    2    0    0  0.35527136788E-14  0.00000000000E+00  0.65756366530E+03  0.66240107633E+03  0.79907521563E+02 0.  0.
         66    2    3    3    0    0  0.27284476725E+02  0.91301165715E+01  0.55849024650E+03  0.55923443843E+03  0.19999984857E+01 0.  0.
        -13    1    3    3    0    0 -0.27284476725E+02 -0.91301165715E+01  0.99073418803E+02  0.10316663790E+03  0.10566000000E+00 0.  1.
         13    1    4    4    0    0  0.31107166171E+01  0.14239097271E+01  0.65715204809E+02  0.65804280894E+02  0.10566000000E+00 0.  1.
        -13    1    4    4    0    0  0.86155113039E+01  0.22508811199E+01  0.16236182019E+03  0.16260585881E+03  0.10566000000E+00 0. -1.
         14    1    4    4    0    0  0.15558248804E+02  0.54553257245E+01  0.33041322150E+03  0.33082429872E+03  0.00000000000E+00 0. -1.
<mgrwt>
<rscale>  0 0.79907522E+02</rscale>
<asrwt>0</asrwt>
<pdfrwt beam="1">  1        2 0.10153576E+00 0.79907522E+02</pdfrwt>
<pdfrwt beam="2">  1       -1 0.37210852E-03 0.79907522E+02</pdfrwt>
<totfact> 0.33083084E+05</totfact>
</mgrwt>
</event>
<event>
 8    1  0.1226832E-024  0.7814100E+02  0.7818608E-02  0.1334411E+00
          2   -1    0    0  501    0  0.00000000000E+00  0.00000000000E+00  0.18327314992E+03  0.18327314994E+03  0.25500000000E-02 0. -1.
         -1   -1    0    0    0  501 -0.00000000000E+00 -0.00000000000E+00 -0.83291177195E+01  0.83291192444E+01  0.50400000000E-02 0.  1.
         24    2    1    2    0    0 -0.88817841970E-15  0.35527136788E-14  0.17494403220E+03  0.19160226918E+03  0.78140995343E+02 0.  0.
         66    2    3    3    0    0  0.67483675268E+01 -0.28162911330E+02  0.23316117598E+02  0.37233471527E+02  0.20000058124E+01 0.  0.
        -13    1    3    3    0    0 -0.67483675268E+01  0.28162911330E+02  0.15162791460E+03  0.15436879766E+03  0.10566000000E+00 0.  1.
         13    1    4    4    0    0  0.23280260836E+01 -0.79341097062E+01  0.71199279769E+01  0.10912118983E+02  0.10566000000E+00 0. -1.
        -13    1    4    4    0    0  0.27043629284E+01 -0.11423232494E+02  0.83901560764E+01  0.14429473396E+02  0.10566000000E+00 0.  1.
         14    1    4    4    0    0  0.17159785147E+01 -0.88055691297E+01  0.78060335447E+01  0.11891879148E+02  0.00000000000E+00 0. -1.
<mgrwt>
<rscale>  0 0.78140995E+02</rscale>
<asrwt>0</asrwt>
<pdfrwt beam="1">  1        2 0.28195871E-01 0.78140995E+02</pdfrwt>
<pdfrwt beam="2">  1       -1 0.12814028E-02 0.78140995E+02</pdfrwt>
<totfact> 0.22775797E+05</totfact>
</mgrwt>
</event>
<event>
 8    1  0.1226832E-024  0.8153196E+02  0.7818608E-02  0.1324759E+00
          2   -1    0    0  501    0  0.00000000000E+00  0.00000000000E+00  0.19944434247E+02  0.19944434410E+02  0.25500000000E-02 0. -1.
         -1   -1    0    0    0  501 -0.00000000000E+00 -0.00000000000E+00 -0.83324755152E+02  0.83324755305E+02  0.50400000000E-02 0.  1.
         24    2    1    2    0    0  0.88817841970E-15 -0.35527136788E-14 -0.63380320905E+02  0.10326918972E+03  0.81531959785E+02 0.  0.
         66    2    3    3    0    0  0.77804855194E+01 -0.17578022316E+02  0.13789055185E+02  0.23741542990E+02  0.19999993010E+01 0.  0.
        -13    1    3    3    0    0 -0.77804855194E+01  0.17578022316E+02 -0.77169376090E+02  0.79527646725E+02  0.10566000000E+00 0.  1.
         13    1    4    4    0    0  0.34482119162E+01 -0.75164227944E+01  0.64892119666E+01  0.10512269642E+02  0.10566000000E+00 0. -1.
        -13    1    4    4    0    0  0.18665936321E+01 -0.33560396540E+01  0.19813635224E+01  0.43225154008E+01  0.10566000000E+00 0.  1.
        -14    1    4    4    0    0  0.24656799712E+01 -0.67055598677E+01  0.53184796958E+01  0.89067579474E+01  0.00000000000E+00 0.  1.
<mgrwt>
<rscale>  0 0.81531960E+02</rscale>
<asrwt>0</asrwt>
<pdfrwt beam="1">  1        2 0.30683746E-02 0.81531960E+02</pdfrwt>
<pdfrwt beam="2">  1       -1 0.12819193E-01 0.81531960E+02</pdfrwt>
<totfact> 0.11749405E+05</totfact>
</mgrwt>
</event>
<event>
 8    1  0.1226832E-024  0.8545293E+02  0.7818608E-02  0.1314252E+00
          2   -1    0    0  501    0  0.00000000000E+00  0.00000000000E+00  0.91572374632E+01  0.91572378182E+01  0.25500000000E-02 0. -1.
         -1   -1    0    0    0  501 -0.00000000000E+00 -0.00000000000E+00 -0.19935606180E+03  0.19935606186E+03  0.50400000000E-02 0.  1.
         24    2    1    2    0    0  0.14210854715E-13 -0.17763568394E-14 -0.19019882433E+03  0.20851329968E+03  0.85452930699E+02 0.  0.
         66    2    3    3    0    0  0.36649072333E+02 -0.12179177013E+02 -0.50686759366E+02  0.63754485470E+02  0.19999967337E+01 0.  0.
        -13    1    3    3    0    0 -0.36649072333E+02  0.12179177013E+02 -0.13951206497E+03  0.14475881421E+03  0.10566000000E+00 0.  1.
         13    1    4    4    0    0  0.18577146330E+02 -0.55098332385E+01 -0.26091539435E+02  0.32499972649E+02  0.10566000000E+00 0. -1.
        -13    1    4    4    0    0  0.29776121206E+01 -0.10757987225E+01 -0.45902057979E+01  0.55771560974E+01  0.10566000000E+00 0.  1.
         14    1    4    4    0    0  0.15094313883E+02 -0.55935450524E+01 -0.20005014133E+02  0.25677356724E+02  0.00000000000E+00 0. -1.
<mgrwt>
<rscale>  0 0.85452931E+02</rscale>
<asrwt>0</asrwt>
<pdfrwt beam="1">  1        2 0.14088059E-02 0.85452931E+02</pdfrwt>
<pdfrwt beam="2">  1       -1 0.30670160E-01 0.85452931E+02</pdfrwt>
<totfact> 0.84281210E+04</totfact>
</mgrwt>
</event>
<event>
 8    1  0.1226832E-024  0.7581047E+02  0.7818608E-02  0.1341379E+00
          2   -1    0    0  501    0  0.00000000000E+00  0.00000000000E+00  0.81057658144E+01  0.81057662155E+01  0.25500000000E-02 0. -1.
         -1   -1    0    0    0  501 -0.00000000000E+00 -0.00000000000E+00 -0.17725735779E+03  0.17725735786E+03  0.50400000000E-02 0.  1.
         24    2    1    2    0    0 -0.71054273576E-14  0.00000000000E+00 -0.16915159198E+03  0.18536312408E+03  0.75810465636E+02 0.  0.
         66    2    3    3    0    0  0.26145680572E+02 -0.21646699225E+02 -0.43528997244E+02  0.55235403468E+02  0.19999988081E+01 0.  0.
        -13    1    3    3    0    0 -0.26145680572E+02  0.21646699225E+02 -0.12562259473E+03  0.13012772061E+03  0.10566000000E+00 0.  1.
         13    1    4    4    0    0  0.79905274295E+01 -0.63447915537E+01 -0.13715437024E+02  0.17094715127E+02  0.10566000000E+00 0. -1.
        -13    1    4    4    0    0  0.90542132770E+01 -0.84787309231E+01 -0.16059634550E+02  0.20292626297E+02  0.10566000000E+00 0.  1.
        -14    1    4    4    0    0  0.91009398657E+01 -0.68231767484E+01 -0.13753925670E+02  0.17848062044E+02  0.00000000000E+00 0.  1.
<mgrwt>
<rscale>  0 0.75810466E+02</rscale>
<asrwt>0</asrwt>
<pdfrwt beam="1">  1        2 0.12470411E-02 0.75810466E+02</pdfrwt>
<pdfrwt beam="2">  1       -1 0.27270360E-01 0.75810466E+02</pdfrwt>
<totfact> 0.11824862E+05</totfact>
</mgrwt>
</event>
<event>
 8    1  0.1226832E-024  0.8035742E+02  0.7818608E-02  0.1328040E+00
          2   -1    0    0  501    0  0.00000000000E+00  0.00000000000E+00  0.52134189852E+03  0.52134189853E+03  0.25500000000E-02 0. -1.
         -1   -1    0    0    0  501 -0.00000000000E+00 -0.00000000000E+00 -0.30964854410E+01  0.30964895427E+01  0.50400000000E-02 0.  1.
         24    2    1    2    0    0  0.00000000000E+00  0.00000000000E+00  0.51824541308E+03  0.52443838807E+03  0.80357418468E+02 0.  0.
         66    2    3    3    0    0  0.15709319052E+02  0.68007529611E+01  0.49633211716E+03  0.49663125503E+03  0.20000001309E+01 0.  0.
        -13    1    3    3    0    0 -0.15709319052E+02 -0.68007529611E+01  0.21913295924E+02  0.27807133046E+02  0.10566000000E+00 0.  1.
         13    1    4    4    0    0  0.10594108454E+02  0.44963953168E+01  0.31220036821E+03  0.31241244178E+03  0.10566000000E+00 0. -1.
        -13    1    4    4    0    0  0.37265826244E+01  0.19779633016E+01  0.13128376367E+03  0.13135157983E+03  0.10566000000E+00 0.  1.
         14    1    4    4    0    0  0.13886279743E+01  0.32639434271E+00  0.52847985273E+02  0.52867233410E+02  0.00000000000E+00 0. -1.
<mgrwt>
<rscale>  0 0.80357418E+02</rscale>
<asrwt>0</asrwt>
<pdfrwt beam="1">  1        2 0.80206412E-01 0.80357418E+02</pdfrwt>
<pdfrwt beam="2">  1       -1 0.47638289E-03 0.80357418E+02</pdfrwt>
<totfact> 0.30498219E+05</totfact>
</mgrwt>
</event>
<event>
 8    1  0.1226832E-024  0.8202683E+02  0.7818608E-02  0.1323396E+00
          2   -1    0    0  501    0  0.00000000000E+00  0.00000000000E+00  0.90227425488E+03  0.90227425489E+03  0.25500000000E-02 0. -1.
         -1   -1    0    0    0  501 -0.00000000000E+00 -0.00000000000E+00 -0.18642858626E+01  0.18642926752E+01  0.50400000000E-02 0.  1.
         24    2    1    2    0    0  0.00000000000E+00  0.00000000000E+00  0.90040996902E+03  0.90413854756E+03  0.82026830219E+02 0.  0.
         66    2    3    3    0    0  0.59250797138E+01 -0.27736880754E+02  0.77664288575E+03  0.77716318307E+03  0.20000008200E+01 0.  0.
        -13    1    3    3    0    0 -0.59250797138E+01  0.27736880754E+02  0.12376708327E+03  0.12697536450E+03  0.10566000000E+00 0.  1.
         13    1    4    4    0    0  0.29626688246E+01 -0.11967164085E+02  0.32785844317E+03  0.32809017106E+03  0.10566000000E+00 0. -1.
        -13    1    4    4    0    0  0.24869612355E+01 -0.99698827174E+01  0.28389607897E+03  0.28408199231E+03  0.10566000000E+00 0.  1.
         14    1    4    4    0    0  0.47544965364E+00 -0.57998339520E+01  0.16488836361E+03  0.16499101970E+03  0.00000000000E+00 0. -1.
<mgrwt>
<rscale>  0 0.82026830E+02</rscale>
<asrwt>0</asrwt>
<pdfrwt beam="1">  1        2 0.13881159E+00 0.82026830E+02</pdfrwt>
<pdfrwt beam="2">  1       -1 0.28681340E-03 0.82026830E+02</pdfrwt>
<totfact> 0.32754720E+05</totfact>
</mgrwt>
</event>
<event>
 8    1  0.1226832E-024  0.8001774E+02  0.7818608E-02  0.1329001E+00
         -1   -1    0    0    0  501 -0.00000000000E+00  0.00000000000E+00  0.30374546205E+01  0.30374588019E+01  0.50400000000E-02 0.  1.
          2   -1    0    0  501    0  0.00000000000E+00 -0.00000000000E+00 -0.52699016835E+03  0.52699016836E+03  0.25500000000E-02 0. -1.
         24    2    1    2    0    0  0.00000000000E+00  0.00000000000E+00 -0.52395271373E+03  0.53002762716E+03  0.80017743822E+02 0.  0.
         66    2    3    3    0    0  0.22582895463E+02  0.21717131262E+02 -0.42668442185E+03  0.42783783938E+03  0.19999986822E+01 0.  0.
        -13    1    3    3    0    0 -0.22582895463E+02 -0.21717131262E+02 -0.97268291880E+02  0.10218978778E+03  0.10566000000E+00 0.  1.
         13    1    4    4    0    0  0.21988644940E+01  0.21194949962E+01 -0.46241169164E+02  0.46342034416E+02  0.10566000000E+00 0. -1.
        -13    1    4    4    0    0  0.50452870626E+01  0.57986414710E+01 -0.10324346236E+03  0.10352923668E+03  0.10566000000E+00 0.  1.
        -14    1    4    4    0    0  0.15338743907E+02  0.13798994795E+02 -0.27719979033E+03  0.27796656828E+03  0.00000000000E+00 0.  1.
<mgrwt>
<rscale>  0 0.80017744E+02</rscale>
<asrwt>0</asrwt>
<pdfrwt beam="1">  1        2 0.81075338E-01 0.80017744E+02</pdfrwt>
<pdfrwt beam="2">  1       -1 0.46730146E-03 0.80017744E+02</pdfrwt>
<totfact> 0.30939774E+05</totfact>
</mgrwt>
</event>
<event>
 8    1  0.1226832E-024  0.7818933E+02  0.7818608E-02  0.1334270E+00
          2   -1    0    0  501    0  0.00000000000E+00  0.00000000000E+00  0.78846336026E+03  0.78846336026E+03  0.25500000000E-02 0. -1.
         -1   -1    0    0    0  501 -0.00000000000E+00 -0.00000000000E+00 -0.19384417326E+01  0.19384482846E+01  0.50400000000E-02 0.  1.
         24    2    1    2    0    0 -0.17763568394E-14 -0.17763568394E-14  0.78652491852E+03  0.79040180855E+03  0.78189331066E+02 0.  0.
         66    2    3    3    0    0 -0.11955174386E+02  0.15175783745E+02  0.73679604922E+03  0.73705199868E+03  0.19999996024E+01 0.  0.
        -13    1    3    3    0    0  0.11955174386E+02 -0.15175783745E+02  0.49728869304E+02  0.53349809870E+02  0.10566000000E+00 0.  1.
         13    1    4    4    0    0 -0.11487996694E+01  0.14718109855E+01  0.64144228929E+02  0.64171483052E+02  0.10566000000E+00 0. -1.
        -13    1    4    4    0    0 -0.74462636552E+01  0.89669203747E+01  0.41806641642E+03  0.41822887538E+03  0.10566000000E+00 0.  1.
         14    1    4    4    0    0 -0.33601110613E+01  0.47370523845E+01  0.25458540388E+03  0.25465164024E+03  0.00000000000E+00 0. -1.
<mgrwt>
<rscale>  0 0.78189331E+02</rscale>
<asrwt>0</asrwt>
<pdfrwt beam="1">  1        2 0.12130197E+00 0.78189331E+02</pdfrwt>
<pdfrwt beam="2">  1       -1 0.29822253E-03 0.78189331E+02</pdfrwt>
<totfact> 0.36375915E+05</totfact>
</mgrwt>
</event>
<event>
 8    1  0.1226832E-024  0.8240740E+02  0.7818608E-02  0.1322355E+00
          2   -1    0    0  501    0  0.00000000000E+00  0.00000000000E+00  0.13610614802E+02  0.13610615041E+02  0.25500000000E-02 0. -1.
         -1   -1    0    0    0  501 -0.00000000000E+00 -0.00000000000E+00 -0.12473681583E+03  0.12473681594E+03  0.50400000000E-02 0.  1.
         24    2    1    2    0    0  0.22204460493E-15  0.00000000000E+00 -0.11112620103E+03  0.13834743098E+03  0.82407397132E+02 0.  0.
         66    2    3    3    0    0 -0.18366583929E+01 -0.39328916536E+02 -0.35338055191E+02  0.52942564581E+02  0.20000024544E+01 0.  0.
        -13    1    3    3    0    0  0.18366583929E+01  0.39328916536E+02 -0.75788145841E+02  0.85404866395E+02  0.10566000000E+00 0.  1.
         13    1    4    4    0    0 -0.15375055587E+01 -0.17649918589E+02 -0.16015949916E+02  0.23883160706E+02  0.10566000000E+00 0. -1.
        -13    1    4    4    0    0  0.37803541076E-01 -0.17622192763E+02 -0.15318283541E+02  0.23349605597E+02  0.10566000000E+00 0.  1.
        -14    1    4    4    0    0 -0.33695637526E+00 -0.40568051839E+01 -0.40038217339E+01  0.57097982780E+01  0.00000000000E+00 0.  1.
<mgrwt>
<rscale>  0 0.82407397E+02</rscale>
<asrwt>0</asrwt>
<pdfrwt beam="1">  1        2 0.20939408E-02 0.82407397E+02</pdfrwt>
<pdfrwt beam="2">  1       -1 0.19190279E-01 0.82407397E+02</pdfrwt>
<totfact> 0.10472750E+05</totfact>
</mgrwt>
</event>
<event>
 8    1  0.1226832E-024  0.7918364E+02  0.7818608E-02  0.1331384E+00
         -1   -1    0    0    0  501 -0.00000000000E+00  0.00000000000E+00  0.11419472799E+02  0.11419473912E+02  0.50400000000E-02 0.  1.
          2   -1    0    0  501    0  0.00000000000E+00 -0.00000000000E+00 -0.13726660461E+03  0.13726660463E+03  0.25500000000E-02 0. -1.
         24    2    1    2    0    0  0.00000000000E+00  0.00000000000E+00 -0.12584713181E+03  0.14868607854E+03  0.79183643311E+02 0.  0.
         66    2    3    3    0    0  0.13584662955E+02 -0.18210405143E+02 -0.12379027068E+03  0.12587371863E+03  0.20000010527E+01 0.  0.
        -13    1    3    3    0    0 -0.13584662955E+02  0.18210405143E+02 -0.20568611309E+01  0.22812359913E+02  0.10566000000E+00 0.  1.
         13    1    4    4    0    0  0.80657021976E+01 -0.11960883238E+02 -0.80344878441E+02  0.81629828712E+02  0.10566000000E+00 0. -1.
        -13    1    4    4    0    0  0.53071987849E+01 -0.59255038914E+01 -0.40578330955E+02  0.41350816950E+02  0.10566000000E+00 0.  1.
        -14    1    4    4    0    0  0.21176197207E+00 -0.32401801333E+00 -0.28670612791E+01  0.28930729656E+01  0.00000000000E+00 0.  1.
<mgrwt>
<rscale>  0 0.79183643E+02</rscale>
<asrwt>0</asrwt>
<pdfrwt beam="1">  1        2 0.21117938E-01 0.79183643E+02</pdfrwt>
<pdfrwt beam="2">  1       -1 0.17568422E-02 0.79183643E+02</pdfrwt>
<totfact> 0.20010958E+05</totfact>
</mgrwt>
</event>
<event>
 8    1  0.1226832E-024  0.7874331E+02  0.7818608E-02  0.1332656E+00
          2   -1    0    0  501    0  0.00000000000E+00  0.00000000000E+00  0.51646607285E+02  0.51646607348E+02  0.25500000000E-02 0. -1.
         -1   -1    0    0    0  501 -0.00000000000E+00 -0.00000000000E+00 -0.30014116548E+02  0.30014116971E+02  0.50400000000E-02 0.  1.
         24    2    1    2    0    0  0.35527136788E-14  0.00000000000E+00  0.21632490737E+02  0.81660724319E+02  0.78743312356E+02 0.  0.
         66    2    3    3    0    0  0.31251514390E+02  0.23818889437E+02  0.87167601380E+01  0.40298617184E+02  0.19999984925E+01 0.  0.
        -13    1    3    3    0    0 -0.31251514390E+02 -0.23818889437E+02  0.12915730599E+02  0.41362107135E+02  0.10566000000E+00 0.  1.
         13    1    4    4    0    0  0.22083844329E+02  0.17323946255E+02  0.56212998313E+01  0.28625608640E+02  0.10566000000E+00 0. -1.
        -13    1    4    4    0    0  0.67120374200E+01  0.47059813253E+01  0.19562592472E+01  0.84282750809E+01  0.10566000000E+00 0.  1.
        -14    1    4    4    0    0  0.24556326408E+01  0.17889618575E+01  0.11392010595E+01  0.32447334633E+01  0.00000000000E+00 0.  1.
<mgrwt>
<rscale>  0 0.78743312E+02</rscale>
<asrwt>0</asrwt>
<pdfrwt beam="1">  1        2 0.79456319E-02 0.78743312E+02</pdfrwt>
<pdfrwt beam="2">  1       -1 0.46175565E-02 0.78743312E+02</pdfrwt>
<totfact> 0.15714761E+05</totfact>
</mgrwt>
</event>
<event>
 8    1  0.1226832E-024  0.8008525E+02  0.7818608E-02  0.1328810E+00
         -1   -1    0    0    0  501 -0.00000000000E+00  0.00000000000E+00  0.94051155335E+02  0.94051155470E+02  0.50400000000E-02 0.  1.
          2   -1    0    0  501    0  0.00000000000E+00 -0.00000000000E+00 -0.17048295279E+02  0.17048295469E+02  0.25500000000E-02 0. -1.
         24    2    1    2    0    0  0.00000000000E+00  0.00000000000E+00  0.77002860056E+02  0.11109945094E+03  0.80085251715E+02 0.  0.
         66    2    3    3    0    0 -0.21295017592E+02  0.33216405968E+02  0.29260822503E+02  0.49163026168E+02  0.20000021860E+01 0.  0.
        -13    1    3    3    0    0  0.21295017592E+02 -0.33216405968E+02  0.47742037554E+02  0.61936424772E+02  0.10566000000E+00 0.  1.
         13    1    4    4    0    0 -0.14362864658E+02  0.21391655298E+02  0.18938183454E+02  0.31977503876E+02  0.10566000000E+00 0. -1.
        -13    1    4    4    0    0 -0.18393257663E+01  0.26526641062E+01  0.20530635579E+01  0.38270066819E+01  0.10566000000E+00 0.  1.
         14    1    4    4    0    0 -0.50928271681E+01  0.91720865643E+01  0.82695754906E+01  0.13358515610E+02  0.00000000000E+00 0. -1.
<mgrwt>
<rscale>  0 0.80085252E+02</rscale>
<asrwt>0</asrwt>
<pdfrwt beam="1">  1        2 0.26228147E-02 0.80085252E+02</pdfrwt>
<pdfrwt beam="2">  1       -1 0.14469408E-01 0.80085252E+02</pdfrwt>
<totfact> 0.11976603E+05</totfact>
</mgrwt>
</event>
<event>
 8    1  0.1226832E-024  0.8044505E+02  0.7818608E-02  0.1327793E+00
          2   -1    0    0  501    0  0.00000000000E+00  0.00000000000E+00  0.48670636581E+02  0.48670636648E+02  0.25500000000E-02 0. -1.
         -1   -1    0    0    0  501 -0.00000000000E+00 -0.00000000000E+00 -0.33240810542E+02  0.33240810924E+02  0.50400000000E-02 0.  1.
         24    2    1    2    0    0  0.00000000000E+00 -0.35527136788E-14  0.15429826039E+02  0.81911447572E+02  0.80445047776E+02 0.  0.
         66    2    3    3    0    0 -0.32210139103E+02  0.20925722406E+02  0.19787611902E+02  0.43254231158E+02  0.20000022522E+01 0.  0.
        -13    1    3    3    0    0  0.32210139103E+02 -0.20925722406E+02 -0.43577858631E+01  0.38657216414E+02  0.10566000000E+00 0.  1.
         13    1    4    4    0    0 -0.30039943248E+02  0.19605439060E+02  0.18194228672E+02  0.40222040625E+02  0.10566000000E+00 0. -1.
        -13    1    4    4    0    0 -0.63300424653E+00  0.61374196472E+00  0.54946974787E+00  0.10442483492E+01  0.10566000000E+00 0.  1.
         14    1    4    4    0    0 -0.15371916087E+01  0.70654138147E+00  0.10439134819E+01  0.19879421830E+01  0.00000000000E+00 0. -1.
<mgrwt>
<rscale>  0 0.80445048E+02</rscale>
<asrwt>0</asrwt>
<pdfrwt beam="1">  1        2 0.74877902E-02 0.80445048E+02</pdfrwt>
<pdfrwt beam="2">  1       -1 0.51139710E-02 0.80445048E+02</pdfrwt>
<totfact> 0.14631579E+05</totfact>
</mgrwt>
</event>
<event>
 8    1  0.1226832E-024  0.7858033E+02  0.7818608E-02  0.1333129E+00
          2   -1    0    0  501    0  0.00000000000E+00  0.00000000000E+00  0.39802835667E+03  0.39802835668E+03  0.25500000000E-02 0. -1.
         -1   -1    0    0    0  501 -0.00000000000E+00 -0.00000000000E+00 -0.38784077905E+01  0.38784110652E+01  0.50400000000E-02 0.  1.
         24    2    1    2    0    0  0.71054273576E-14  0.00000000000E+00  0.39414994888E+03  0.40190676774E+03  0.78580326776E+02 0.  0.
         66    2    3    3    0    0 -0.37490587888E+02  0.27968206420E+01  0.25514541888E+03  0.25790802848E+03  0.19999978916E+01 0.  0.
        -13    1    3    3    0    0  0.37490587888E+02 -0.27968206420E+01  0.13900453000E+03  0.14399873927E+03  0.10566000000E+00 0.  1.
         13    1    4    4    0    0 -0.13670625315E+02  0.98947927102E+00  0.94188515173E+02  0.95180631539E+02  0.10566000000E+00 0. -1.
        -13    1    4    4    0    0 -0.13935864865E+02  0.11632072240E+01  0.89021562288E+02  0.90113323637E+02  0.10566000000E+00 0.  1.
        -14    1    4    4    0    0 -0.98840977081E+01  0.64413414698E+00  0.71935341419E+02  0.72614073301E+02  0.00000000000E+00 0.  1.
<mgrwt>
<rscale>  0 0.78580327E+02</rscale>
<asrwt>0</asrwt>
<pdfrwt beam="1">  1        2 0.61235121E-01 0.78580327E+02</pdfrwt>
<pdfrwt beam="2">  1       -1 0.59667848E-03 0.78580327E+02</pdfrwt>
<totfact> 0.29554223E+05</totfact>
</mgrwt>
</event>
<event>
 8    1  0.1226832E-024  0.8031769E+02  0.7818608E-02  0.1328152E+00
         -1   -1    0    0    0  501 -0.00000000000E+00  0.00000000000E+00  0.16949554889E+02  0.16949555638E+02  0.50400000000E-02 0.  1.
          2   -1    0    0  501    0  0.00000000000E+00 -0.00000000000E+00 -0.95148981885E+02  0.95148981919E+02  0.25500000000E-02 0. -1.
         24    2    1    2    0    0 -0.17763568394E-14  0.00000000000E+00 -0.78199426996E+02  0.11209853756E+03  0.80317692571E+02 0.  0.
         66    2    3    3    0    0  0.89558076860E+01 -0.37608261865E+02 -0.54164998685E+02  0.66576534525E+02  0.20000037666E+01 0.  0.
        -13    1    3    3    0    0 -0.89558076860E+01  0.37608261865E+02 -0.24034428311E+02  0.45522003032E+02  0.10566000000E+00 0.  1.
         13    1    4    4    0    0  0.50883409750E+01 -0.19771473212E+02 -0.27505275514E+02  0.34254251006E+02  0.10566000000E+00 0. -1.
        -13    1    4    4    0    0  0.16437833644E+01 -0.65852866396E+01 -0.10613517945E+02  0.12598648780E+02  0.10566000000E+00 0.  1.
         14    1    4    4    0    0  0.22236833466E+01 -0.11251502013E+02 -0.16046205225E+02  0.19723634739E+02  0.00000000000E+00 0. -1.
<mgrwt>
<rscale>  0 0.80317693E+02</rscale>
<asrwt>0</asrwt>
<pdfrwt beam="1">  1        2 0.14638305E-01 0.80317693E+02</pdfrwt>
<pdfrwt beam="2">  1       -1 0.26076239E-02 0.80317693E+02</pdfrwt>
<totfact> 0.17298187E+05</totfact>
</mgrwt>
</event>
<event>
 8    1  0.1226832E-024  0.7960149E+02  0.7818608E-02  0.1330186E+00
         -1   -1    0    0    0  501 -0.00000000000E+00  0.00000000000E+00  0.24602754065E+01  0.24602805688E+01  0.50400000000E-02 0.  1.
          2   -1    0    0  501    0  0.00000000000E+00 -0.00000000000E+00 -0.64386997752E+03  0.64386997753E+03  0.25500000000E-02 0. -1.
         24    2    1    2    0    0  0.00000000000E+00 -0.35527136788E-14 -0.64140970212E+03  0.64633025810E+03  0.79601485931E+02 0.  0.
         66    2    3    3    0    0  0.11343545333E+02  0.27953764791E+02 -0.53139100088E+03  0.53225039671E+03  0.20000005887E+01 0.  0.
        -13    1    3    3    0    0 -0.11343545333E+02 -0.27953764791E+02 -0.11001870124E+03  0.11407986139E+03  0.10566000000E+00 0.  1.
         13    1    4    4    0    0  0.65769896672E+01  0.14544856501E+02 -0.26983893245E+03  0.27031069212E+03  0.10566000000E+00 0. -1.
        -13    1    4    4    0    0  0.25794540774E+01  0.64058161816E+01 -0.12903155694E+03  0.12921626025E+03  0.10566000000E+00 0.  1.
         14    1    4    4    0    0  0.21871015886E+01  0.70030921081E+01 -0.13252051149E+03  0.13272344434E+03  0.00000000000E+00 0. -1.
<mgrwt>
<rscale>  0 0.79601486E+02</rscale>
<asrwt>0</asrwt>
<pdfrwt beam="1">  1        2 0.99056786E-01 0.79601486E+02</pdfrwt>
<pdfrwt beam="2">  1       -1 0.37850482E-03 0.79601486E+02</pdfrwt>
<totfact> 0.33206156E+05</totfact>
</mgrwt>
</event>
<event>
 8    1  0.1226832E-024  0.7989016E+02  0.7818608E-02  0.1329363E+00
         -1   -1    0    0    0  501 -0.00000000000E+00  0.00000000000E+00  0.72450034965E+02  0.72450035140E+02  0.50400000000E-02 0.  1.
          2   -1    0    0  501    0  0.00000000000E+00 -0.00000000000E+00 -0.22023581012E+02  0.22023581160E+02  0.25500000000E-02 0. -1.
         24    2    1    2    0    0  0.00000000000E+00  0.00000000000E+00  0.50426453952E+02  0.94473616300E+02  0.79890155330E+02 0.  0.
         66    2    3    3    0    0 -0.21854141715E+01  0.23591265569E+02 -0.12765111706E+02  0.26986513972E+02  0.20000033107E+01 0.  0.
        -13    1    3    3    0    0  0.21854141715E+01 -0.23591265569E+02  0.63191565658E+02  0.67487102328E+02  0.10566000000E+00 0.  1.
         13    1    4    4    0    0 -0.83342227466E+00  0.90117422357E+01 -0.57681102219E+01  0.10732583584E+02  0.10566000000E+00 0. -1.
        -13    1    4    4    0    0 -0.48555007252E-01  0.48677169617E+01 -0.24728116772E+01  0.54610427240E+01  0.10566000000E+00 0.  1.
        -14    1    4    4    0    0 -0.13034368896E+01  0.97118063718E+01 -0.45241898068E+01  0.10792887664E+02  0.00000000000E+00 0.  1.
<mgrwt>
<rscale>  0 0.79890155E+02</rscale>
<asrwt>0</asrwt>
<pdfrwt beam="1">  1        2 0.33882433E-02 0.79890155E+02</pdfrwt>
<pdfrwt beam="2">  1       -1 0.11146159E-01 0.79890155E+02</pdfrwt>
<totfact> 0.12708031E+05</totfact>
</mgrwt>
</event>
<event>
 8    1  0.1226832E-024  0.7368163E+02  0.7818608E-02  0.1348003E+00
          2   -1    0    0  501    0  0.00000000000E+00  0.00000000000E+00  0.68194211206E+02  0.68194211254E+02  0.25500000000E-02 0. -1.
         -1   -1    0    0    0  501 -0.00000000000E+00 -0.00000000000E+00 -0.19902649387E+02  0.19902650025E+02  0.50400000000E-02 0.  1.
         24    2    1    2    0    0 -0.35527136788E-14  0.00000000000E+00  0.48291561820E+02  0.88096861279E+02  0.73681626096E+02 0.  0.
         66    2    3    3    0    0  0.28796941354E+02  0.21612612385E+02  0.33337440684E+02  0.49109610177E+02  0.20000037330E+01 0.  0.
        -13    1    3    3    0    0 -0.28796941354E+02 -0.21612612385E+02  0.14954121136E+02  0.38987251101E+02  0.10566000000E+00 0.  1.
         13    1    4    4    0    0  0.23141746647E+02  0.18232318970E+02  0.26961590081E+02  0.39936154004E+02  0.10566000000E+00 0. -1.
        -13    1    4    4    0    0  0.36059162379E+01  0.22650528075E+01  0.42469425016E+01  0.60150461995E+01  0.10566000000E+00 0.  1.
         14    1    4    4    0    0  0.20492784690E+01  0.11152406076E+01  0.21289081015E+01  0.31584099736E+01  0.00000000000E+00 0. -1.
<mgrwt>
<rscale>  0 0.73681626E+02</rscale>
<asrwt>0</asrwt>
<pdfrwt beam="1">  1        2 0.10491417E-01 0.73681626E+02</pdfrwt>
<pdfrwt beam="2">  1       -1 0.30619461E-02 0.73681626E+02</pdfrwt>
<totfact> 0.20023760E+05</totfact>
</mgrwt>
</event>
<event>
 8    1  0.1226832E-024  0.8159450E+02  0.7818608E-02  0.1324586E+00
         -1   -1    0    0    0  501 -0.00000000000E+00  0.00000000000E+00  0.52395976921E+02  0.52395977164E+02  0.50400000000E-02 0.  1.
          2   -1    0    0  501    0  0.00000000000E+00 -0.00000000000E+00 -0.31766095067E+02  0.31766095170E+02  0.25500000000E-02 0. -1.
         24    2    1    2    0    0  0.71054273576E-14  0.00000000000E+00  0.20629881854E+02  0.84162072333E+02  0.81594499779E+02 0.  0.
         66    2    3    3    0    0 -0.37280661809E+02 -0.96528025323E+00 -0.66787368299E+01  0.37939228096E+02  0.19999980095E+01 0.  0.
        -13    1    3    3    0    0  0.37280661809E+02  0.96528025323E+00  0.27308618684E+02  0.46222844237E+02  0.10566000000E+00 0.  1.
         13    1    4    4    0    0 -0.27002536872E+02 -0.19719288439E+00 -0.44510943627E+01  0.27367851352E+02  0.10566000000E+00 0. -1.
        -13    1    4    4    0    0 -0.13003229483E+01 -0.65265710799E-01 -0.53310387660E-01  0.13073275856E+01  0.10566000000E+00 0. -1.
         14    1    4    4    0    0 -0.89778019881E+01 -0.70282165804E+00 -0.21743320795E+01  0.92640491586E+01  0.00000000000E+00 0. -1.
<mgrwt>
<rscale>  0 0.81594500E+02</rscale>
<asrwt>0</asrwt>
<pdfrwt beam="1">  1        2 0.48870916E-02 0.81594500E+02</pdfrwt>
<pdfrwt beam="2">  1       -1 0.80609195E-02 0.81594500E+02</pdfrwt>
<totfact> 0.12876947E+05</totfact>
</mgrwt>
</event>
<event>
 8    1  0.1226832E-024  0.7997005E+02  0.7818608E-02  0.1329136E+00
          2   -1    0    0  501    0  0.00000000000E+00  0.00000000000E+00  0.17196911988E+03  0.17196911990E+03  0.25500000000E-02 0. -1.
         -1   -1    0    0    0  501 -0.00000000000E+00 -0.00000000000E+00 -0.92970302225E+01  0.92970315886E+01  0.50400000000E-02 0.  1.
         24    2    1    2    0    0  0.00000000000E+00  0.00000000000E+00  0.16267208966E+03  0.18126615149E+03  0.79970050154E+02 0.  0.
         66    2    3    3    0    0  0.17678330470E+02 -0.10412947408E+02  0.15911241093E+03  0.16044223931E+03  0.20000001770E+01 0.  0.
        -13    1    3    3    0    0 -0.17678330470E+02  0.10412947408E+02  0.35596787336E+01  0.20823912184E+02  0.10566000000E+00 0.  1.
         13    1    4    4    0    0  0.16852045077E+02 -0.97868606881E+01  0.15156753603E+03  0.15281525843E+03  0.10566000000E+00 0. -1.
        -13    1    4    4    0    0  0.49073948329E+00 -0.47739742997E+00  0.36735152871E+01  0.37382632527E+01  0.10566000000E+00 0.  1.
         14    1    4    4    0    0  0.33554591038E+00 -0.14868928968E+00  0.38713596050E+01  0.38887176234E+01  0.00000000000E+00 0. -1.
<mgrwt>
<rscale>  0 0.79970050E+02</rscale>
<asrwt>0</asrwt>
<pdfrwt beam="1">  1        2 0.26456786E-01 0.79970050E+02</pdfrwt>
<pdfrwt beam="2">  1       -1 0.14303125E-02 0.79970050E+02</pdfrwt>
<totfact> 0.20970532E+05</totfact>
</mgrwt>
</event>
<event>
 8    1  0.1226832E-024  0.8060704E+02  0.7818608E-02  0.1327338E+00
         -1   -1    0    0    0  501 -0.00000000000E+00  0.00000000000E+00  0.10721971155E+02  0.10721972340E+02  0.50400000000E-02 0.  1.
          2   -1    0    0  501    0  0.00000000000E+00 -0.00000000000E+00 -0.15149954601E+03  0.15149954603E+03  0.25500000000E-02 0. -1.
         24    2    1    2    0    0  0.00000000000E+00  0.17763568394E-14 -0.14077757486E+03  0.16222151837E+03  0.80607043370E+02 0.  0.
         66    2    3    3    0    0 -0.37097391634E+02  0.14987873611E+02 -0.79767055006E+02  0.89261614878E+02  0.20000012426E+01 0.  0.
        -13    1    3    3    0    0  0.37097391634E+02 -0.14987873611E+02 -0.61010519851E+02  0.72959903495E+02  0.10566000000E+00 0.  1.
         13    1    4    4    0    0 -0.22627425322E+02  0.94804914111E+01 -0.47721631871E+02  0.53658600491E+02  0.10566000000E+00 0. -1.
        -13    1    4    4    0    0 -0.55079406796E+00  0.39091023387E+00 -0.14214781716E+01  0.15773234114E+01  0.10566000000E+00 0. -1.
         14    1    4    4    0    0 -0.13919172244E+02  0.51164719664E+01 -0.30623944963E+02  0.34025690976E+02  0.00000000000E+00 0. -1.
<mgrwt>
<rscale>  0 0.80607043E+02</rscale>
<asrwt>0</asrwt>
<pdfrwt beam="1">  1        2 0.23307621E-01 0.80607043E+02</pdfrwt>
<pdfrwt beam="2">  1       -1 0.16495342E-02 0.80607043E+02</pdfrwt>
<totfact> 0.19695275E+05</totfact>
</mgrwt>
</event>
<event>
 8    1  0.1226832E-024  0.8236911E+02  0.7818608E-02  0.1322460E+00
         -1   -1    0    0    0  501 -0.00000000000E+00  0.00000000000E+00  0.98915205855E+02  0.98915205984E+02  0.50400000000E-02 0.  1.
          2   -1    0    0  501    0  0.00000000000E+00 -0.00000000000E+00 -0.17147693458E+02  0.17147693648E+02  0.25500000000E-02 0. -1.
         24    2    1    2    0    0  0.00000000000E+00  0.35527136788E-14  0.81767512397E+02  0.11606289963E+03  0.82369111852E+02 0.  0.
         66    2    3    3    0    0 -0.31365294912E+02  0.21892124225E+02  0.19486588654E+02  0.42974108054E+02  0.19999994229E+01 0.  0.
        -13    1    3    3    0    0  0.31365294912E+02 -0.21892124225E+02  0.62280923743E+02  0.73088791578E+02  0.10566000000E+00 0.  1.
         13    1    4    4    0    0 -0.14433489663E+02  0.10288179520E+02  0.86066660949E+01  0.19704266720E+02  0.10566000000E+00 0. -1.
        -13    1    4    4    0    0 -0.33008463248E+01  0.18762915301E+01  0.24685336844E+01  0.45299976769E+01  0.10566000000E+00 0.  1.
        -14    1    4    4    0    0 -0.13630958924E+02  0.97276531744E+01  0.84113888745E+01  0.18739843656E+02  0.00000000000E+00 0.  1.
<mgrwt>
<rscale>  0 0.82369112E+02</rscale>
<asrwt>0</asrwt>
<pdfrwt beam="1">  1        2 0.26381067E-02 0.82369112E+02</pdfrwt>
<pdfrwt beam="2">  1       -1 0.15217724E-01 0.82369112E+02</pdfrwt>
<totfact> 0.11047599E+05</totfact>
</mgrwt>
</event>
<event>
 8    1  0.1226832E-024  0.7973959E+02  0.7818608E-02  0.1329792E+00
          2   -1    0    0  501    0  0.00000000000E+00  0.00000000000E+00  0.10946471089E+03  0.10946471092E+03  0.25500000000E-02 0. -1.
         -1   -1    0    0    0  501 -0.00000000000E+00 -0.00000000000E+00 -0.14521580512E+02  0.14521581386E+02  0.50400000000E-02 0.  1.
         24    2    1    2    0    0  0.00000000000E+00  0.00000000000E+00  0.94943130383E+02  0.12398629231E+03  0.79739592889E+02 0.  0.
         66    2    3    3    0    0 -0.17277443574E+02  0.22418806716E+02  0.91107146066E+02  0.95423398712E+02  0.20000016177E+01 0.  0.
        -13    1    3    3    0    0  0.17277443574E+02 -0.22418806716E+02  0.38359843170E+01  0.28562893599E+02  0.10566000000E+00 0.  1.
         13    1    4    4    0    0 -0.30177468355E+01  0.46937392434E+01  0.18544807870E+02  0.19366441259E+02  0.10566000000E+00 0.  1.
        -13    1    4    4    0    0 -0.47813411964E+01  0.66199654440E+01  0.24418973134E+02  0.25748448090E+02  0.10566000000E+00 0.  1.
         14    1    4    4    0    0 -0.94783555424E+01  0.11105102028E+02  0.48143365062E+02  0.50308509363E+02  0.00000000000E+00 0. -1.
<mgrwt>
<rscale>  0 0.79739593E+02</rscale>
<asrwt>0</asrwt>
<pdfrwt beam="1">  1        2 0.16840725E-01 0.79739593E+02</pdfrwt>
<pdfrwt beam="2">  1       -1 0.22340893E-02 0.79739593E+02</pdfrwt>
<totfact> 0.18347218E+05</totfact>
</mgrwt>
</event>
<event>
 8    1  0.1226832E-024  0.8835626E+02  0.7818608E-02  0.1306882E+00
         -1   -1    0    0    0  501 -0.00000000000E+00  0.00000000000E+00  0.82370201447E+01  0.82370216866E+01  0.50400000000E-02 0.  1.
          2   -1    0    0  501    0  0.00000000000E+00 -0.00000000000E+00 -0.23694332371E+03  0.23694332372E+03  0.25500000000E-02 0. -1.
         24    2    1    2    0    0  0.00000000000E+00  0.00000000000E+00 -0.22870630356E+03  0.24518034541E+03  0.88356258890E+02 0.  0.
         66    2    3    3    0    0 -0.91088191776E+01  0.20838083180E+02 -0.21943750593E+03  0.22062188310E+03  0.19999991899E+01 0.  0.
        -13    1    3    3    0    0  0.91088191776E+01 -0.20838083180E+02 -0.92687976368E+01  0.24558462311E+02  0.10566000000E+00 0.  1.
         13    1    4    4    0    0 -0.40382483285E+01  0.10819507513E+02 -0.11648760058E+03  0.11705870939E+03  0.10566000000E+00 0. -1.
        -13    1    4    4    0    0 -0.29390481990E+01  0.49915623638E+01 -0.53127802509E+02  0.53442756877E+02  0.10566000000E+00 0.  1.
        -14    1    4    4    0    0 -0.21315226501E+01  0.50270133025E+01 -0.49822102839E+02  0.50120416826E+02  0.00000000000E+00 0.  1.
<mgrwt>
<rscale>  0 0.88356259E+02</rscale>
<asrwt>0</asrwt>
<pdfrwt beam="1">  1        2 0.36452814E-01 0.88356259E+02</pdfrwt>
<pdfrwt beam="2">  1       -1 0.12672342E-02 0.88356259E+02</pdfrwt>
<totfact> 0.18005148E+05</totfact>
</mgrwt>
</event>
<event>
 8    1  0.1226832E-024  0.7840713E+02  0.7818608E-02  0.1333634E+00
          2   -1    0    0  501    0  0.00000000000E+00  0.00000000000E+00  0.14357949183E+03  0.14357949185E+03  0.25500000000E-02 0. -1.
         -1   -1    0    0    0  501 -0.00000000000E+00 -0.00000000000E+00 -0.10704309995E+02  0.10704311181E+02  0.50400000000E-02 0.  1.
         24    2    1    2    0    0  0.00000000000E+00  0.00000000000E+00  0.13287518184E+03  0.15428380303E+03  0.78407129338E+02 0.  0.
         66    2    3    3    0    0 -0.12319011492E+02 -0.46028238943E+01  0.13909942560E+03  0.13973401244E+03  0.19999994578E+01 0.  0.
        -13    1    3    3    0    0  0.12319011492E+02  0.46028238943E+01 -0.62242437642E+01  0.14549790597E+02  0.10566000000E+00 0.  1.
         13    1    4    4    0    0 -0.58173531942E+01 -0.16671664800E+01  0.66219641004E+02  0.66495661971E+02  0.10566000000E+00 0. -1.
        -13    1    4    4    0    0 -0.14688714880E+01 -0.10385975543E+01  0.22593626230E+02  0.22665378412E+02  0.10566000000E+00 0. -1.
        -14    1    4    4    0    0 -0.50327868097E+01 -0.18970598600E+01  0.50286158366E+02  0.50572972054E+02  0.00000000000E+00 0.  1.
<mgrwt>
<rscale>  0 0.78407129E+02</rscale>
<asrwt>0</asrwt>
<pdfrwt beam="1">  1        2 0.22089152E-01 0.78407129E+02</pdfrwt>
<pdfrwt beam="2">  1       -1 0.16468171E-02 0.78407129E+02</pdfrwt>
<totfact> 0.20833947E+05</totfact>
</mgrwt>
</event>
<event>
 8    1  0.1226832E-024  0.7954696E+02  0.7818608E-02  0.1330342E+00
          2   -1    0    0  501    0  0.00000000000E+00  0.00000000000E+00  0.86139409224E+01  0.86139412998E+01  0.25500000000E-02 0. -1.
         -1   -1    0    0    0  501 -0.00000000000E+00 -0.00000000000E+00 -0.18364761919E+03  0.18364761925E+03  0.50400000000E-02 0.  1.
         24    2    1    2    0    0  0.00000000000E+00  0.00000000000E+00 -0.17503367826E+03  0.19226156055E+03  0.79546961856E+02 0.  0.
         66    2    3    3    0    0 -0.21646689926E+02  0.32230471750E+02 -0.10815766023E+03  0.11493242345E+03  0.19999996902E+01 0.  0.
        -13    1    3    3    0    0  0.21646689926E+02 -0.32230471750E+02 -0.66876018032E+02  0.77329137107E+02  0.10566000000E+00 0.  1.
         13    1    4    4    0    0 -0.10796091331E+02  0.14854446639E+02 -0.50602253327E+02  0.53831304821E+02  0.10566000000E+00 0. -1.
        -13    1    4    4    0    0 -0.31554559160E+00  0.66608188268E+00 -0.17132572867E+01  0.18680601331E+01  0.10566000000E+00 0. -1.
         14    1    4    4    0    0 -0.10535053004E+02  0.16709943228E+02 -0.55842149618E+02  0.59233058493E+02  0.00000000000E+00 0. -1.
<mgrwt>
<rscale>  0 0.79546962E+02</rscale>
<asrwt>0</asrwt>
<pdfrwt beam="1">  1        2 0.13252219E-02 0.79546962E+02</pdfrwt>
<pdfrwt beam="2">  1       -1 0.28253477E-01 0.79546962E+02</pdfrwt>
<totfact> 0.10362227E+05</totfact>
</mgrwt>
</event>
<event>
 8    1  0.1226832E-024  0.7955964E+02  0.7818608E-02  0.1330306E+00
         -1   -1    0    0    0  501 -0.00000000000E+00  0.00000000000E+00  0.43665056871E+01  0.43665085958E+01  0.50400000000E-02 0.  1.
          2   -1    0    0  501    0  0.00000000000E+00 -0.00000000000E+00 -0.36240270126E+03  0.36240270127E+03  0.25500000000E-02 0. -1.
         24    2    1    2    0    0  0.00000000000E+00 -0.17763568394E-14 -0.35803619558E+03  0.36676920987E+03  0.79559637786E+02 0.  0.
         66    2    3    3    0    0  0.37704562891E+02  0.95532288121E+01 -0.21701448960E+03  0.22048171565E+03  0.19999992561E+01 0.  0.
        -13    1    3    3    0    0 -0.37704562891E+02 -0.95532288121E+01 -0.14102170598E+03  0.14628749422E+03  0.10566000000E+00 0.  1.
         13    1    4    4    0    0  0.11935465443E+02  0.33688857898E+01 -0.73121945665E+02  0.74166264761E+02  0.10566000000E+00 0. -1.
        -13    1    4    4    0    0  0.21352248024E+02  0.54463115752E+01 -0.11880071497E+03  0.12082715691E+03  0.10566000000E+00 0.  1.
        -14    1    4    4    0    0  0.44168494245E+01  0.73803144717E+00 -0.25091828959E+02  0.25488293975E+02  0.00000000000E+00 0.  1.
<mgrwt>
<rscale>  0 0.79559638E+02</rscale>
<asrwt>0</asrwt>
<pdfrwt beam="1">  1        2 0.55754238E-01 0.79559638E+02</pdfrwt>
<pdfrwt beam="2">  1       -1 0.67177062E-03 0.79559638E+02</pdfrwt>
<totfact> 0.27682487E+05</totfact>
</mgrwt>
</event>
<event>
 8    1  0.1226832E-024  0.7982701E+02  0.7818608E-02  0.1329543E+00
         -1   -1    0    0    0  501 -0.00000000000E+00  0.00000000000E+00  0.11509163938E+03  0.11509163949E+03  0.50400000000E-02 0.  1.
          2   -1    0    0  501    0  0.00000000000E+00 -0.00000000000E+00 -0.13841907980E+02  0.13841908215E+02  0.25500000000E-02 0. -1.
         24    2    1    2    0    0  0.35527136788E-14 -0.35527136788E-14  0.10124973140E+03  0.12893354770E+03  0.79827010560E+02 0.  0.
         66    2    3    3    0    0  0.24346395915E+02 -0.26218340900E+02  0.22175861240E+02  0.42141632760E+02  0.19999990905E+01 0.  0.
        -13    1    3    3    0    0 -0.24346395915E+02  0.26218340900E+02  0.79073870158E+02  0.86791914942E+02  0.10566000000E+00 0.  1.
         13    1    4    4    0    0  0.18263253980E+02 -0.20248992078E+02  0.17486758766E+02  0.32393919526E+02  0.10566000000E+00 0. -1.
        -13    1    4    4    0    0  0.29787783694E+01 -0.26968087120E+01  0.25026805158E+01  0.47350260403E+01  0.10566000000E+00 0.  1.
        -14    1    4    4    0    0  0.31043635657E+01 -0.32725401102E+01  0.21864219582E+01  0.50126871936E+01  0.00000000000E+00 0.  1.
<mgrwt>
<rscale>  0 0.79827011E+02</rscale>
<asrwt>0</asrwt>
<pdfrwt beam="1">  1        2 0.21295242E-02 0.79827011E+02</pdfrwt>
<pdfrwt beam="2">  1       -1 0.17706407E-01 0.79827011E+02</pdfrwt>
<totfact> 0.11555453E+05</totfact>
</mgrwt>
</event>
<event>
 8    1  0.1226832E-024  0.7856100E+02  0.7818608E-02  0.1333185E+00
         -1   -1    0    0    0  501 -0.00000000000E+00  0.00000000000E+00  0.27943327110E+01  0.27943372561E+01  0.50400000000E-02 0.  1.
          2   -1    0    0  501    0  0.00000000000E+00 -0.00000000000E+00 -0.55217352708E+03  0.55217352709E+03  0.25500000000E-02 0. -1.
         24    2    1    2    0    0  0.27755575616E-16 -0.35527136788E-14 -0.54937919437E+03  0.55496786435E+03  0.78561003347E+02 0.  0.
         66    2    3    3    0    0 -0.23468068567E+00 -0.26322484243E+02 -0.48058169494E+03  0.48130623699E+03  0.20000017817E+01 0.  0.
        -13    1    3    3    0    0  0.23468068567E+00  0.26322484243E+02 -0.68797499435E+02  0.73661627353E+02  0.10566000000E+00 0.  1.
         13    1    4    4    0    0 -0.88434781642E+00 -0.11960405755E+02 -0.22009816582E+03  0.22042469720E+03  0.10566000000E+00 0. -1.
        -13    1    4    4    0    0  0.44817761147E+00 -0.13100579794E+02 -0.24089176542E+03  0.24124817070E+03  0.10566000000E+00 0.  1.
        -14    1    4    4    0    0  0.20148951928E+00 -0.12614986940E+01 -0.19591763694E+02  0.19633369085E+02  0.00000000000E+00 0.  1.
<mgrwt>
<rscale>  0 0.78561003E+02</rscale>
<asrwt>0</asrwt>
<pdfrwt beam="1">  1        2 0.84949687E-01 0.78561003E+02</pdfrwt>
<pdfrwt beam="2">  1       -1 0.42989813E-03 0.78561003E+02</pdfrwt>
<totfact> 0.32918477E+05</totfact>
</mgrwt>
</event>
<event>
 8    1  0.1226832E-024  0.8009221E+02  0.7818608E-02  0.1328790E+00
         -1   -1    0    0    0  501 -0.00000000000E+00  0.00000000000E+00  0.12817161670E+02  0.12817162661E+02  0.50400000000E-02 0.  1.
          2   -1    0    0  501    0  0.00000000000E+00 -0.00000000000E+00 -0.12512056197E+03  0.12512056199E+03  0.25500000000E-02 0. -1.
         24    2    1    2    0    0  0.00000000000E+00  0.44408920985E-15 -0.11230340030E+03  0.13793772466E+03  0.80092210387E+02 0.  0.
         66    2    3    3    0    0 -0.36913463324E+02 -0.22591627489E+01 -0.29842706410E+02  0.47563586809E+02  0.20000183448E+01 0.  0.
        -13    1    3    3    0    0  0.36913463324E+02  0.22591627489E+01 -0.82460693888E+02  0.90374137846E+02  0.10566000000E+00 0.  1.
         13    1    4    4    0    0 -0.24548934521E+02 -0.21938900939E+01 -0.20143318518E+02  0.31831239134E+02  0.10566000000E+00 0. -1.
        -13    1    4    4    0    0 -0.33832332215E+01 -0.17032506577E+00 -0.30143856032E+01  0.45357427462E+01  0.10566000000E+00 0.  1.
         14    1    4    4    0    0 -0.89812955820E+01  0.10505241070E+00 -0.66850022886E+01  0.11196604929E+02  0.00000000000E+00 0. -1.
<mgrwt>
<rscale>  0 0.80092210E+02</rscale>
<asrwt>0</asrwt>
<pdfrwt beam="1">  1        2 0.19249316E-01 0.80092210E+02</pdfrwt>
<pdfrwt beam="2">  1       -1 0.19718712E-02 0.80092210E+02</pdfrwt>
<totfact> 0.18865649E+05</totfact>
</mgrwt>
</event>
<event>
 8    1  0.1226832E-024  0.7987020E+02  0.7818608E-02  0.1329420E+00
          2   -1    0    0  501    0  0.00000000000E+00  0.00000000000E+00  0.68715323133E+02  0.68715323180E+02  0.25500000000E-02 0. -1.
         -1   -1    0    0    0  501 -0.00000000000E+00 -0.00000000000E+00 -0.23208977362E+02  0.23208977909E+02  0.50400000000E-02 0.  1.
         24    2    1    2    0    0  0.44408920985E-15  0.00000000000E+00  0.45506345771E+02  0.91924301089E+02  0.79870204866E+02 0.  0.
         66    2    3    3    0    0  0.31512712602E+01 -0.23225221113E+02  0.59945286654E+02  0.64395487381E+02  0.19999991889E+01 0.  0.
        -13    1    3    3    0    0 -0.31512712602E+01  0.23225221113E+02 -0.14438940883E+02  0.27528813708E+02  0.10566000000E+00 0.  1.
         13    1    4    4    0    0  0.35572726053E+00 -0.43232588603E+01  0.12146420077E+02  0.12898208937E+02  0.10566000000E+00 0. -1.
        -13    1    4    4    0    0  0.21852628785E+00 -0.58320704104E+01  0.14036701184E+02  0.15202004578E+02  0.10566000000E+00 0.  1.
         14    1    4    4    0    0  0.25770177118E+01 -0.13069891842E+02  0.33762165393E+02  0.36295273867E+02  0.00000000000E+00 0. -1.
<mgrwt>
<rscale>  0 0.79870205E+02</rscale>
<asrwt>0</asrwt>
<pdfrwt beam="1">  1        2 0.10571588E-01 0.79870205E+02</pdfrwt>
<pdfrwt beam="2">  1       -1 0.35706119E-02 0.79870205E+02</pdfrwt>
<totfact> 0.16144721E+05</totfact>
</mgrwt>
</event>
<event>
 8    1  0.1226832E-024  0.7610233E+02  0.7818608E-02  0.1340491E+00
         -1   -1    0    0    0  501 -0.00000000000E+00  0.00000000000E+00  0.14130806187E+02  0.14130807086E+02  0.50400000000E-02 0.  1.
          2   -1    0    0  501    0  0.00000000000E+00 -0.00000000000E+00 -0.10246344079E+03  0.10246344082E+03  0.25500000000E-02 0. -1.
         24    2    1    2    0    0  0.00000000000E+00  0.00000000000E+00 -0.88332634602E+02  0.11659424791E+03  0.76102327884E+02 0.  0.
         66    2    3    3    0    0 -0.23972577730E+02 -0.24081916656E+02 -0.70343734127E+02  0.78146427460E+02  0.20000002534E+01 0.  0.
        -13    1    3    3    0    0  0.23972577730E+02  0.24081916656E+02 -0.17988900476E+02  0.38447820448E+02  0.10566000000E+00 0.  1.
         13    1    4    4    0    0 -0.44782825563E+01 -0.51219872437E+01 -0.14338584751E+02  0.15871230093E+02  0.10566000000E+00 0.  1.
        -13    1    4    4    0    0 -0.94389127909E+01 -0.10149034405E+02 -0.28971422386E+02  0.32116202346E+02  0.10566000000E+00 0. -1.
        -14    1    4    4    0    0 -0.10055382383E+02 -0.88108950066E+01 -0.27033726990E+02  0.30158995020E+02  0.00000000000E+00 0.  1.
<mgrwt>
<rscale>  0 0.76102328E+02</rscale>
<asrwt>0</asrwt>
<pdfrwt beam="1">  1        2 0.15763606E-01 0.76102328E+02</pdfrwt>
<pdfrwt beam="2">  1       -1 0.21739703E-02 0.76102328E+02</pdfrwt>
<totfact> 0.20393089E+05</totfact>
</mgrwt>
</event>
<event>
 8    1  0.1226832E-024  0.7896388E+02  0.7818608E-02  0.1332018E+00
          2   -1    0    0  501    0  0.00000000000E+00  0.00000000000E+00  0.82836850109E+02  0.82836850149E+02  0.25500000000E-02 0. -1.
         -1   -1    0    0    0  501 -0.00000000000E+00 -0.00000000000E+00 -0.18817994592E+02  0.18817995267E+02  0.50400000000E-02 0.  1.
         24    2    1    2    0    0  0.17763568394E-14  0.00000000000E+00  0.64018855518E+02  0.10165484542E+03  0.78963876137E+02 0.  0.
         66    2    3    3    0    0 -0.13165178705E+02 -0.32766979076E+02  0.54689675302E+02  0.65130310981E+02  0.19999939238E+01 0.  0.
        -13    1    3    3    0    0  0.13165178705E+02  0.32766979076E+02  0.93291802159E+01  0.36524534435E+02  0.10566000000E+00 0.  1.
         13    1    4    4    0    0 -0.31025045450E+01 -0.79092202989E+01  0.11941300939E+02  0.14655617774E+02  0.10566000000E+00 0. -1.
        -13    1    4    4    0    0 -0.50225762026E+01 -0.13348146303E+02  0.23442655831E+02  0.27440272554E+02  0.10566000000E+00 0.  1.
         14    1    4    4    0    0 -0.50400979576E+01 -0.11509612475E+02  0.19305718533E+02  0.23034420653E+02  0.00000000000E+00 0. -1.
<mgrwt>
<rscale>  0 0.78963876E+02</rscale>
<asrwt>0</asrwt>
<pdfrwt beam="1">  1        2 0.12744131E-01 0.78963876E+02</pdfrwt>
<pdfrwt beam="2">  1       -1 0.28950762E-02 0.78963876E+02</pdfrwt>
<totfact> 0.17448219E+05</totfact>
</mgrwt>
</event>
<event>
 8    1  0.1226832E-024  0.8051826E+02  0.7818608E-02  0.1327587E+00
         -1   -1    0    0    0  501 -0.00000000000E+00  0.00000000000E+00  0.58323381298E+02  0.58323381516E+02  0.50400000000E-02 0.  1.
          2   -1    0    0  501    0  0.00000000000E+00 -0.00000000000E+00 -0.27789838550E+02  0.27789838667E+02  0.25500000000E-02 0. -1.
         24    2    1    2    0    0  0.17763568394E-14  0.00000000000E+00  0.30533542748E+02  0.86113220183E+02  0.80518255431E+02 0.  0.
         66    2    3    3    0    0 -0.10671697796E+02 -0.60133224916E+00 -0.26207600110E+02  0.28374020404E+02  0.19999989991E+01 0.  0.
        -13    1    3    3    0    0  0.10671697796E+02  0.60133224916E+00  0.56741142858E+02  0.57739199780E+02  0.10566000000E+00 0.  1.
         13    1    4    4    0    0 -0.20150161134E+01 -0.61508111045E+00 -0.47061331045E+01  0.51572732662E+01  0.10566000000E+00 0. -1.
        -13    1    4    4    0    0 -0.18708755956E+01  0.63177185604E-01 -0.62171345684E+01  0.64936964148E+01  0.10566000000E+00 0.  1.
         14    1    4    4    0    0 -0.67858060867E+01 -0.49428324306E-01 -0.15284332438E+02  0.16723050723E+02  0.00000000000E+00 0. -1.
<mgrwt>
<rscale>  0 0.80518255E+02</rscale>
<asrwt>0</asrwt>
<pdfrwt beam="1">  1        2 0.42753599E-02 0.80518255E+02</pdfrwt>
<pdfrwt beam="2">  1       -1 0.89728278E-02 0.80518255E+02</pdfrwt>
<totfact> 0.13015032E+05</totfact>
</mgrwt>
</event>
<event>
 8    1  0.1226832E-024  0.8716492E+02  0.7818608E-02  0.1309866E+00
         -1   -1    0    0    0  501 -0.00000000000E+00  0.00000000000E+00  0.33306593028E+01  0.33306631161E+01  0.50400000000E-02 0.  1.
          2   -1    0    0  501    0  0.00000000000E+00 -0.00000000000E+00 -0.57028645355E+03  0.57028645355E+03  0.25500000000E-02 0. -1.
         24    2    1    2    0    0  0.35527136788E-14 -0.17763568394E-14 -0.56695579424E+03  0.57361711667E+03  0.87164923613E+02 0.  0.
         66    2    3    3    0    0  0.24152382748E+02 -0.10311596457E+02 -0.51232903057E+03  0.51300555764E+03  0.19999987494E+01 0.  0.
        -13    1    3    3    0    0 -0.24152382748E+02  0.10311596457E+02 -0.54626763678E+02  0.60611559029E+02  0.10566000000E+00 0.  1.
         13    1    4    4    0    0  0.30405348796E+01 -0.13056773892E+01 -0.72893791574E+02  0.72968936266E+02  0.10566000000E+00 0. -1.
        -13    1    4    4    0    0  0.12938786181E+02 -0.62337291283E+01 -0.27009626881E+03  0.27047786815E+03  0.10566000000E+00 0.  1.
        -14    1    4    4    0    0  0.81730616872E+01 -0.27721899399E+01 -0.16933897018E+03  0.16955875323E+03  0.00000000000E+00 0.  1.
<mgrwt>
<rscale>  0 0.87164924E+02</rscale>
<asrwt>0</asrwt>
<pdfrwt beam="1">  1        2 0.87736300E-01 0.87164924E+02</pdfrwt>
<pdfrwt beam="2">  1       -1 0.51240987E-03 0.87164924E+02</pdfrwt>
<totfact> 0.25333336E+05</totfact>
</mgrwt>
</event>
<event>
 8    1  0.1226832E-024  0.7955198E+02  0.7818608E-02  0.1330328E+00
         -1   -1    0    0    0  501 -0.00000000000E+00  0.00000000000E+00  0.14825364127E+01  0.14825449796E+01  0.50400000000E-02 0.  1.
          2   -1    0    0  501    0  0.00000000000E+00 -0.00000000000E+00 -0.10671742103E+04  0.10671742103E+04  0.25500000000E-02 0. -1.
         24    2    1    2    0    0  0.00000000000E+00  0.17763568394E-14 -0.10656916739E+04  0.10686567553E+04  0.79551975580E+02 0.  0.
         66    2    3    3    0    0 -0.18978749713E+02 -0.10684322528E+02 -0.97988683430E+03  0.98013088704E+03  0.19999992694E+01 0.  0.
        -13    1    3    3    0    0  0.18978749713E+02  0.10684322528E+02 -0.85804839622E+02  0.88525868282E+02  0.10566000000E+00 0.  1.
         13    1    4    4    0    0 -0.12481434050E+02 -0.71465830563E+01 -0.65624255122E+03  0.65640015010E+03  0.10566000000E+00 0. -1.
        -13    1    4    4    0    0 -0.11558964062E+01 -0.36124519439E+00 -0.68463950070E+02  0.68474741458E+02  0.10566000000E+00 0.  1.
         14    1    4    4    0    0 -0.53414192570E+01 -0.31764942772E+01 -0.25518033301E+03  0.25525599548E+03  0.00000000000E+00 0. -1.
<mgrwt>
<rscale>  0 0.79551976E+02</rscale>
<asrwt>0</asrwt>
<pdfrwt beam="1">  1        2 0.16418003E+00 0.79551976E+02</pdfrwt>
<pdfrwt beam="2">  1       -1 0.22808404E-03 0.79551976E+02</pdfrwt>
<totfact> 0.35790243E+05</totfact>
</mgrwt>
</event>
<event>
 8    1  0.1226832E-024  0.7815787E+02  0.7818608E-02  0.1334362E+00
         -1   -1    0    0    0  501 -0.00000000000E+00  0.00000000000E+00  0.72167147353E+01  0.72167164952E+01  0.50400000000E-02 0.  1.
          2   -1    0    0  501    0  0.00000000000E+00 -0.00000000000E+00 -0.21161472323E+03  0.21161472325E+03  0.25500000000E-02 0. -1.
         24    2    1    2    0    0  0.00000000000E+00  0.00000000000E+00 -0.20439800850E+03  0.21883143974E+03  0.78157873196E+02 0.  0.
         66    2    3    3    0    0  0.18971677712E+02  0.96145222855E+01 -0.19397122203E+03  0.19514404575E+03  0.20000059512E+01 0.  0.
        -13    1    3    3    0    0 -0.18971677712E+02 -0.96145222855E+01 -0.10426786471E+02  0.23687393992E+02  0.10566000000E+00 0.  1.
         13    1    4    4    0    0  0.83342001777E+01  0.49639079452E+01 -0.92359373864E+02  0.92867455975E+02  0.10566000000E+00 0. -1.
        -13    1    4    4    0    0  0.49148852343E+01  0.22875783481E+01 -0.43896826396E+02  0.44230437972E+02  0.10566000000E+00 0.  1.
        -14    1    4    4    0    0  0.57225923000E+01  0.23630359922E+01 -0.57715021767E+02  0.58046151804E+02  0.00000000000E+00 0.  1.
<mgrwt>
<rscale>  0 0.78157873E+02</rscale>
<asrwt>0</asrwt>
<pdfrwt beam="1">  1        2 0.32556107E-01 0.78157873E+02</pdfrwt>
<pdfrwt beam="2">  1       -1 0.11102641E-02 0.78157873E+02</pdfrwt>
<totfact> 0.23920635E+05</totfact>
</mgrwt>
</event>
<event>
 8    1  0.1226832E-024  0.8072915E+02  0.7818608E-02  0.1326995E+00
          2   -1    0    0  501    0  0.00000000000E+00  0.00000000000E+00  0.56589484344E+03  0.56589484345E+03  0.25500000000E-02 0. -1.
         -1   -1    0    0    0  501 -0.00000000000E+00 -0.00000000000E+00 -0.28791528033E+01  0.28791572146E+01  0.50400000000E-02 0.  1.
         24    2    1    2    0    0  0.00000000000E+00  0.00000000000E+00  0.56301569064E+03  0.56877400066E+03  0.80729151637E+02 0.  0.
         66    2    3    3    0    0  0.21516360211E+02 -0.14132146445E+01  0.52188208342E+03  0.52233117841E+03  0.20000016200E+01 0.  0.
        -13    1    3    3    0    0 -0.21516360211E+02  0.14132146445E+01  0.41133607217E+02  0.46442822255E+02  0.10566000000E+00 0.  1.
         13    1    4    4    0    0  0.51173557754E+01 -0.10662888539E+00  0.11286993569E+03  0.11298598252E+03  0.10566000000E+00 0.  1.
        -13    1    4    4    0    0  0.29721381721E+01 -0.34974092689E+00  0.88036521539E+02  0.88087435045E+02  0.10566000000E+00 0. -1.
         14    1    4    4    0    0  0.13426866264E+02 -0.95684483218E+00  0.32097562620E+03  0.32125776084E+03  0.00000000000E+00 0. -1.
<mgrwt>
<rscale>  0 0.80729152E+02</rscale>
<asrwt>0</asrwt>
<pdfrwt beam="1">  1        2 0.87060785E-01 0.80729152E+02</pdfrwt>
<pdfrwt beam="2">  1       -1 0.44294672E-03 0.80729152E+02</pdfrwt>
<totfact> 0.30890873E+05</totfact>
</mgrwt>
</event>
<event>
 8    1  0.1226832E-024  0.7992301E+02  0.7818608E-02  0.1329270E+00
          2   -1    0    0  501    0  0.00000000000E+00  0.00000000000E+00  0.25493235427E+04  0.25493235427E+04  0.25500000000E-02 0. -1.
         -1   -1    0    0    0  501 -0.00000000000E+00 -0.00000000000E+00 -0.62639998111E+00  0.62642025664E+00  0.50400000000E-02 0.  1.
         24    2    1    2    0    0  0.00000000000E+00  0.00000000000E+00  0.25486971427E+04  0.25499499630E+04  0.79923014744E+02 0.  0.
         66    2    3    3    0    0 -0.92533931975E+01 -0.83035523394E+01  0.24860010240E+04  0.24860329172E+04  0.20000001511E+01 0.  0.
        -13    1    3    3    0    0  0.92533931975E+01  0.83035523394E+01  0.62696118784E+02  0.63917045784E+02  0.10566000000E+00 0.  1.
         13    1    4    4    0    0 -0.14923610449E+01 -0.12477450448E+01  0.51368073385E+03  0.51368442793E+03  0.10566000000E+00 0. -1.
        -13    1    4    4    0    0 -0.48356570846E+01 -0.37771660314E+01  0.12023338349E+04  0.12023494968E+04  0.10566000000E+00 0.  1.
        -14    1    4    4    0    0 -0.29253750680E+01 -0.32786412632E+01  0.76998645519E+03  0.76999899252E+03  0.00000000000E+00 0.  1.
<mgrwt>
<rscale>  0 0.79923015E+02</rscale>
<asrwt>0</asrwt>
<pdfrwt beam="1">  1        2 0.39220891E+00 0.79923015E+02</pdfrwt>
<pdfrwt beam="2">  1       -1 0.96369488E-04 0.79923015E+02</pdfrwt>
<totfact> 0.20363136E+05</totfact>
</mgrwt>
</event>
<event>
 8    1  0.1226832E-024  0.8228630E+02  0.7818608E-02  0.1322686E+00
         -1   -1    0    0    0  501 -0.00000000000E+00  0.00000000000E+00  0.21981174822E+02  0.21981175399E+02  0.50400000000E-02 0.  1.
          2   -1    0    0  501    0  0.00000000000E+00 -0.00000000000E+00 -0.77009472234E+02  0.77009472276E+02  0.25500000000E-02 0. -1.
         24    2    1    2    0    0  0.00000000000E+00  0.22204460493E-15 -0.55028297412E+02  0.98990647676E+02  0.82286297834E+02 0.  0.
         66    2    3    3    0    0 -0.10900271710E+02  0.17284630485E+01 -0.75181269888E+02  0.76013333396E+02  0.20000010509E+01 0.  0.
        -13    1    3    3    0    0  0.10900271710E+02 -0.17284630485E+01  0.20152972476E+02  0.22977314279E+02  0.10566000000E+00 0.  1.
         13    1    4    4    0    0 -0.22727051482E+01  0.34234331848E+00 -0.20674624245E+02  0.20802250824E+02  0.10566000000E+00 0. -1.
        -13    1    4    4    0    0 -0.20736302848E+01  0.29612381190E+00 -0.10719388809E+02  0.10922641272E+02  0.10566000000E+00 0. -1.
         14    1    4    4    0    0 -0.65539362765E+01  0.10899959181E+01 -0.43787256834E+02  0.44288441301E+02  0.00000000000E+00 0. -1.
<mgrwt>
<rscale>  0 0.82286298E+02</rscale>
<asrwt>0</asrwt>
<pdfrwt beam="1">  1        2 0.11847611E-01 0.82286298E+02</pdfrwt>
<pdfrwt beam="2">  1       -1 0.33817193E-02 0.82286298E+02</pdfrwt>
<totfact> 0.15321330E+05</totfact>
</mgrwt>
</event>
<event>
 8    1  0.1226832E-024  0.7942104E+02  0.7818608E-02  0.1330703E+00
         -1   -1    0    0    0  501 -0.00000000000E+00  0.00000000000E+00  0.58292418825E+01  0.58292440613E+01  0.50400000000E-02 0.  1.
          2   -1    0    0  501    0  0.00000000000E+00 -0.00000000000E+00 -0.27051972461E+03  0.27051972462E+03  0.25500000000E-02 0. -1.
         24    2    1    2    0    0  0.00000000000E+00  0.00000000000E+00 -0.26469048273E+03  0.27634896868E+03  0.79421035285E+02 0.  0.
         66    2    3    3    0    0 -0.32847593033E+02  0.12561340742E+02 -0.68442345420E+02  0.76974712045E+02  0.19999996317E+01 0.  0.
        -13    1    3    3    0    0  0.32847593033E+02 -0.12561340742E+02 -0.19624813731E+03  0.19937425664E+03  0.10566000000E+00 0.  1.
         13    1    4    4    0    0 -0.65193503933E+01  0.20114140411E+01 -0.12483750133E+02  0.14226837225E+02  0.10566000000E+00 0. -1.
        -13    1    4    4    0    0 -0.15328328745E+02  0.55136271034E+01 -0.32336329098E+02  0.36207831881E+02  0.10566000000E+00 0.  1.
        -14    1    4    4    0    0 -0.10999913894E+02  0.50362995977E+01 -0.23622266190E+02  0.26540042940E+02  0.00000000000E+00 0.  1.
<mgrwt>
<rscale>  0 0.79421035E+02</rscale>
<asrwt>0</asrwt>
<pdfrwt beam="1">  1        2 0.41618409E-01 0.79421035E+02</pdfrwt>
<pdfrwt beam="2">  1       -1 0.89680682E-03 0.79421035E+02</pdfrwt>
<totfact> 0.25029590E+05</totfact>
</mgrwt>
</event>
<event>
 8    1  0.1226832E-024  0.7918417E+02  0.7818608E-02  0.1331383E+00
          2   -1    0    0  501    0  0.00000000000E+00  0.00000000000E+00  0.66656160685E+01  0.66656165563E+01  0.25500000000E-02 0. -1.
         -1   -1    0    0    0  501 -0.00000000000E+00 -0.00000000000E+00 -0.23516701474E+03  0.23516701479E+03  0.50400000000E-02 0.  1.
         24    2    1    2    0    0  0.35527136788E-14 -0.35527136788E-14 -0.22850139867E+03  0.24183263135E+03  0.79184167552E+02 0.  0.
         66    2    3    3    0    0 -0.22830094805E+02  0.22917369545E+02 -0.44739946112E+02  0.55245649847E+02  0.19999983111E+01 0.  0.
        -13    1    3    3    0    0  0.22830094805E+02 -0.22917369545E+02 -0.18376145256E+03  0.18658698150E+03  0.10566000000E+00 0.  1.
         13    1    4    4    0    0 -0.34847511852E+01  0.42404948581E+01 -0.68756506339E+01  0.87983534334E+01  0.10566000000E+00 0. -1.
        -13    1    4    4    0    0 -0.44015125291E+01  0.45752124969E+01 -0.92909262552E+01  0.11253370902E+02  0.10566000000E+00 0.  1.
         14    1    4    4    0    0 -0.14943831091E+02  0.14101662190E+02 -0.28573369223E+02  0.35193925512E+02  0.00000000000E+00 0. -1.
<mgrwt>
<rscale>  0 0.79184168E+02</rscale>
<asrwt>0</asrwt>
<pdfrwt beam="1">  1        2 0.10254796E-02 0.79184168E+02</pdfrwt>
<pdfrwt beam="2">  1       -1 0.36179535E-01 0.79184168E+02</pdfrwt>
<totfact> 0.97089295E+04</totfact>
</mgrwt>
</event>
<event>
 8    1  0.1226832E-024  0.8141193E+02  0.7818608E-02  0.1325092E+00
         -1   -1    0    0    0  501 -0.00000000000E+00  0.00000000000E+00  0.20491270343E+01  0.20491332324E+01  0.50400000000E-02 0.  1.
          2   -1    0    0  501    0  0.00000000000E+00 -0.00000000000E+00 -0.80862383614E+03  0.80862383614E+03  0.25500000000E-02 0. -1.
         24    2    1    2    0    0 -0.17763568394E-14  0.00000000000E+00 -0.80657470911E+03  0.81067296938E+03  0.81411927312E+02 0.  0.
         66    2    3    3    0    0  0.15590388889E+02 -0.31208732701E+02 -0.61191084347E+03  0.61290776270E+03  0.20000005684E+01 0.  0.
        -13    1    3    3    0    0 -0.15590388889E+02  0.31208732701E+02 -0.19466386564E+03  0.19776520668E+03  0.10566000000E+00 0.  1.
         13    1    4    4    0    0  0.96995350153E+01 -0.20527372321E+02 -0.39228261799E+03  0.39293907611E+03  0.10566000000E+00 0. -1.
        -13    1    4    4    0    0  0.37335370441E+01 -0.63549373328E+01 -0.13981648120E+03  0.14001065712E+03  0.10566000000E+00 0.  1.
        -14    1    4    4    0    0  0.21573168293E+01 -0.43264230473E+01 -0.79811744279E+02  0.79958029472E+02  0.00000000000E+00 0.  1.
<mgrwt>
<rscale>  0 0.81411927E+02</rscale>
<asrwt>0</asrwt>
<pdfrwt beam="1">  1        2 0.12440341E+00 0.81411927E+02</pdfrwt>
<pdfrwt beam="2">  1       -1 0.31525144E-03 0.81411927E+02</pdfrwt>
<totfact> 0.32897404E+05</totfact>
</mgrwt>
</event>
<event>
 8    1  0.1228954E-024  0.8032054E+02  0.7818608E-02  0.1328144E+00
         -1   -1    0    0    0  501 -0.00000000000E+00  0.00000000000E+00  0.34154853231E+01  0.34154890417E+01  0.50400000000E-02 0.  1.
          2   -1    0    0  501    0  0.00000000000E+00 -0.00000000000E+00 -0.47221588063E+03  0.47221588063E+03  0.25500000000E-02 0. -1.
         24    2    1    2    0    0  0.00000000000E+00  0.88817841970E-15 -0.46880039530E+03  0.47563136967E+03  0.80320540227E+02 0.  0.
         66    2    3    3    0    0 -0.18438070883E+02 -0.75769156519E+01 -0.44082574658E+03  0.44128076206E+03  0.20000004751E+01 0.  0.
        -13    1    3    3    0    0  0.18438070883E+02  0.75769156519E+01 -0.27974648718E+02  0.34350607616E+02  0.10566000000E+00 0.  1.
         13    1    4    4    0    0 -0.14624527356E+02 -0.61532085720E+01 -0.34859671179E+03  0.34895761549E+03  0.10566000000E+00 0. -1.
        -13    1    4    4    0    0 -0.36455510728E+00 -0.38340193329E+00 -0.15894205897E+02  0.15903359475E+02  0.10566000000E+00 0. -1.
        -14    1    4    4    0    0 -0.34489884196E+01 -0.10403051466E+01 -0.76334828897E+02  0.76419787088E+02  0.00000000000E+00 0.  1.
<mgrwt>
<rscale>  0 0.80320540E+02</rscale>
<asrwt>0</asrwt>
<pdfrwt beam="1">  1        2 0.72648545E-01 0.80320540E+02</pdfrwt>
<pdfrwt beam="2">  1       -1 0.52545994E-03 0.80320540E+02</pdfrwt>
<totfact> 0.29582928E+05</totfact>
</mgrwt>
</event>
<event>
 8    1  0.1226832E-024  0.7729516E+02  0.7818608E-02  0.1336907E+00
          2   -1    0    0  501    0  0.00000000000E+00  0.00000000000E+00  0.10774213045E+04  0.10774213045E+04  0.25500000000E-02 0. -1.
         -1   -1    0    0    0  501 -0.00000000000E+00 -0.00000000000E+00 -0.13863010714E+01  0.13863102330E+01  0.50400000000E-02 0.  1.
         24    2    1    2    0    0  0.00000000000E+00  0.00000000000E+00  0.10760350034E+04  0.10788076147E+04  0.77295155144E+02 0.  0.
         66    2    3    3    0    0  0.25526876161E+02 -0.10046874591E+02  0.91780899907E+03  0.91822106263E+03  0.20000001079E+01 0.  0.
        -13    1    3    3    0    0 -0.25526876161E+02  0.10046874591E+02  0.15822600432E+03  0.16058655206E+03  0.10566000000E+00 0.  1.
         13    1    4    4    0    0  0.76119500564E+01 -0.33871171992E+01  0.26038823916E+03  0.26052151659E+03  0.10566000000E+00 0. -1.
        -13    1    4    4    0    0  0.89274650980E+01 -0.30924202773E+01  0.30660311809E+03  0.30674866892E+03  0.10566000000E+00 0.  1.
        -14    1    4    4    0    0  0.89874610068E+01 -0.35673371149E+01  0.35081764182E+03  0.35095087713E+03  0.00000000000E+00 0.  1.
<mgrwt>
<rscale>  0 0.77295155E+02</rscale>
<asrwt>0</asrwt>
<pdfrwt beam="1">  1        2 0.16575727E+00 0.77295155E+02</pdfrwt>
<pdfrwt beam="2">  1       -1 0.21327760E-03 0.77295155E+02</pdfrwt>
<totfact> 0.38556759E+05</totfact>
</mgrwt>
</event>
<event>
 8    1  0.1226832E-024  0.7896194E+02  0.7818608E-02  0.1332023E+00
          2   -1    0    0  501    0  0.00000000000E+00  0.00000000000E+00  0.14252617698E+02  0.14252617926E+02  0.25500000000E-02 0. -1.
         -1   -1    0    0    0  501 -0.00000000000E+00 -0.00000000000E+00 -0.10936566658E+03  0.10936566670E+03  0.50400000000E-02 0.  1.
         24    2    1    2    0    0  0.71054273576E-14 -0.35527136788E-14 -0.95113048884E+02  0.12361828462E+03  0.78961941627E+02 0.  0.
         66    2    3    3    0    0  0.33622711584E+02  0.18860559839E+02 -0.60735143742E+02  0.71965027441E+02  0.20000093726E+01 0.  0.
        -13    1    3    3    0    0 -0.33622711584E+02 -0.18860559839E+02 -0.34377905142E+02  0.51653257184E+02  0.10566000000E+00 0.  1.
         13    1    4    4    0    0  0.16588858993E+02  0.99231387299E+01 -0.30502361579E+02  0.36111828406E+02  0.10566000000E+00 0. -1.
        -13    1    4    4    0    0  0.88066156612E+01  0.50299987712E+01 -0.15068975129E+02  0.18164320591E+02  0.10566000000E+00 0.  1.
        -14    1    4    4    0    0  0.82272369305E+01  0.39074223376E+01 -0.15163807034E+02  0.17688878444E+02  0.00000000000E+00 0.  1.
<mgrwt>
<rscale>  0 0.78961942E+02</rscale>
<asrwt>0</asrwt>
<pdfrwt beam="1">  1        2 0.21927105E-02 0.78961942E+02</pdfrwt>
<pdfrwt beam="2">  1       -1 0.16825487E-01 0.78961942E+02</pdfrwt>
<totfact> 0.12010506E+05</totfact>
</mgrwt>
</event>
<event>
 8    1  0.1226832E-024  0.8050124E+02  0.7818608E-02  0.1327635E+00
         -1   -1    0    0    0  501 -0.00000000000E+00  0.00000000000E+00  0.18622227378E+01  0.18622295580E+01  0.50400000000E-02 0.  1.
          2   -1    0    0  501    0  0.00000000000E+00 -0.00000000000E+00 -0.86998701176E+03  0.86998701176E+03  0.25500000000E-02 0. -1.
         24    2    1    2    0    0  0.00000000000E+00  0.17763568394E-14 -0.86812478902E+03  0.87184924132E+03  0.80501243956E+02 0.  0.
         66    2    3    3    0    0  0.29230970942E+01  0.14380758695E+02 -0.83995951127E+03  0.84009007332E+03  0.20000000240E+01 0.  0.
        -13    1    3    3    0    0 -0.29230970942E+01 -0.14380758695E+02 -0.28165277748E+02  0.31759167998E+02  0.10566000000E+00 0.  1.
         13    1    4    4    0    0  0.12583237899E+01  0.82840313552E+01 -0.43619196380E+03  0.43627244814E+03  0.10566000000E+00 0. -1.
        -13    1    4    4    0    0  0.11772981382E+01  0.49648892513E+01 -0.33805667227E+03  0.33809519516E+03  0.10566000000E+00 0.  1.
        -14    1    4    4    0    0  0.48747516610E+00  0.11318380884E+01 -0.65710875200E+02  0.65722430030E+02  0.00000000000E+00 0.  1.
<mgrwt>
<rscale>  0 0.80501244E+02</rscale>
<asrwt>0</asrwt>
<pdfrwt beam="1">  1        2 0.13384383E+00 0.80501244E+02</pdfrwt>
<pdfrwt beam="2">  1       -1 0.28649703E-03 0.80501244E+02</pdfrwt>
<totfact> 0.34244720E+05</totfact>
</mgrwt>
</event>
<event>
 8    1  0.1226832E-024  0.7586167E+02  0.7818608E-02  0.1341223E+00
         -1   -1    0    0    0  501 -0.00000000000E+00  0.00000000000E+00  0.50533546076E+02  0.50533546328E+02  0.50400000000E-02 0.  1.
          2   -1    0    0  501    0  0.00000000000E+00 -0.00000000000E+00 -0.28471149030E+02  0.28471149145E+02  0.25500000000E-02 0. -1.
         24    2    1    2    0    0  0.00000000000E+00  0.00000000000E+00  0.22062397046E+02  0.79004695472E+02  0.75861667153E+02 0.  0.
         66    2    3    3    0    0 -0.10456974469E+02  0.30363209759E+02 -0.99317196416E+01  0.33673608031E+02  0.20000002111E+01 0.  0.
        -13    1    3    3    0    0  0.10456974469E+02 -0.30363209759E+02  0.31994116688E+02  0.45331087441E+02  0.10566000000E+00 0.  1.
         13    1    4    4    0    0 -0.32566926973E+01  0.10049750342E+02 -0.23592226039E+01  0.10824999981E+02  0.10566000000E+00 0.  1.
        -13    1    4    4    0    0 -0.23303615599E+01  0.62674746088E+01 -0.21598628904E+01  0.70276592627E+01  0.10566000000E+00 0. -1.
         14    1    4    4    0    0 -0.48699202119E+01  0.14045984809E+02 -0.54126341472E+01  0.15820948788E+02  0.00000000000E+00 0. -1.
<mgrwt>
<rscale>  0 0.75861667E+02</rscale>
<asrwt>0</asrwt>
<pdfrwt beam="1">  1        2 0.43801769E-02 0.75861667E+02</pdfrwt>
<pdfrwt beam="2">  1       -1 0.77743916E-02 0.75861667E+02</pdfrwt>
<totfact> 0.15450828E+05</totfact>
</mgrwt>
</event>
<event>
 8    1  0.1226832E-024  0.7929227E+02  0.7818608E-02  0.1331072E+00
         -1   -1    0    0    0  501 -0.00000000000E+00  0.00000000000E+00  0.36760257893E+02  0.36760258239E+02  0.50400000000E-02 0.  1.
          2   -1    0    0  501    0  0.00000000000E+00 -0.00000000000E+00 -0.42758566502E+02  0.42758566579E+02  0.25500000000E-02 0. -1.
         24    2    1    2    0    0  0.00000000000E+00  0.00000000000E+00 -0.59983086093E+01  0.79518824817E+02  0.79292268186E+02 0.  0.
         66    2    3    3    0    0 -0.19498487353E+02 -0.18553839494E+02 -0.32159465815E+02  0.41984130474E+02  0.20000002912E+01 0.  0.
        -13    1    3    3    0    0  0.19498487353E+02  0.18553839494E+02  0.26161157206E+02  0.37534694343E+02  0.10566000000E+00 0.  1.
         13    1    4    4    0    0 -0.79928070485E+01 -0.69428913978E+01 -0.13444875252E+02  0.17113285484E+02  0.10566000000E+00 0. -1.
        -13    1    4    4    0    0 -0.32709584579E+01 -0.26872708775E+01 -0.46195709276E+01  0.62667530343E+01  0.10566000000E+00 0.  1.
        -14    1    4    4    0    0 -0.82347218465E+01 -0.89236772184E+01 -0.14095019636E+02  0.18604091957E+02  0.00000000000E+00 0.  1.
<mgrwt>
<rscale>  0 0.79292268E+02</rscale>
<asrwt>0</asrwt>
<pdfrwt beam="1">  1        2 0.65782410E-02 0.79292268E+02</pdfrwt>
<pdfrwt beam="2">  1       -1 0.56554243E-02 0.79292268E+02</pdfrwt>
<totfact> 0.14811533E+05</totfact>
</mgrwt>
</event>
<event>
 8    1  0.1226832E-024  0.7768101E+02  0.7818608E-02  0.1335764E+00
         -1   -1    0    0    0  501 -0.00000000000E+00  0.00000000000E+00  0.17563518953E+01  0.17563591266E+01  0.50400000000E-02 0.  1.
          2   -1    0    0  501    0  0.00000000000E+00 -0.00000000000E+00 -0.85892906093E+03  0.85892906093E+03  0.25500000000E-02 0. -1.
         24    2    1    2    0    0 -0.35527136788E-14  0.00000000000E+00 -0.85717270903E+03  0.86068542006E+03  0.77681009202E+02 0.  0.
         66    2    3    3    0    0  0.20543088191E+02  0.22468711229E+02 -0.69564036477E+03  0.69630911136E+03  0.19999996173E+01 0.  0.
        -13    1    3    3    0    0 -0.20543088191E+02 -0.22468711229E+02 -0.16153234426E+03  0.16437630870E+03  0.10566000000E+00 0.  1.
         13    1    4    4    0    0  0.24655925231E+01  0.25416916378E+01 -0.84917766581E+02  0.84991632459E+02  0.10566000000E+00 0. -1.
        -13    1    4    4    0    0  0.16751673692E+00  0.24159804163E+00 -0.43973023695E+01  0.44083856042E+01  0.10566000000E+00 0.  1.
         14    1    4    4    0    0  0.17909978931E+02  0.19685421549E+02 -0.60632529582E+03  0.60690909329E+03  0.00000000000E+00 0. -1.
<mgrwt>
<rscale>  0 0.77681009E+02</rscale>
<asrwt>0</asrwt>
<pdfrwt beam="1">  1        2 0.13214260E+00 0.77681009E+02</pdfrwt>
<pdfrwt beam="2">  1       -1 0.27020923E-03 0.77681009E+02</pdfrwt>
<totfact> 0.37499806E+05</totfact>
</mgrwt>
</event>
<event>
 8    1  0.1226832E-024  0.7203976E+02  0.7818608E-02  0.1353291E+00
          2   -1    0    0  501    0  0.00000000000E+00  0.00000000000E+00  0.91505406766E+03  0.91505406766E+03  0.25500000000E-02 0. -1.
         -1   -1    0    0    0  501 -0.00000000000E+00 -0.00000000000E+00 -0.14178700444E+01  0.14178790020E+01  0.50400000000E-02 0.  1.
         24    2    1    2    0    0  0.00000000000E+00  0.00000000000E+00  0.91363619761E+03  0.91647194666E+03  0.72039762850E+02 0.  0.
         66    2    3    3    0    0 -0.61580380732E+01 -0.88039595298E+01  0.89417496075E+03  0.89424174108E+03  0.19999766894E+01 0.  0.
        -13    1    3    3    0    0  0.61580380732E+01  0.88039595298E+01  0.19461236857E+02  0.22230205585E+02  0.10566000000E+00 0.  1.
         13    1    4    4    0    0 -0.11640092324E+01 -0.11062188165E+01  0.11115184468E+03  0.11116349390E+03  0.10566000000E+00 0. -1.
        -13    1    4    4    0    0 -0.27487956323E+01 -0.55017116053E+01  0.51561737541E+03  0.51565406398E+03  0.10566000000E+00 0.  1.
        -14    1    4    4    0    0 -0.22452332085E+01 -0.21960291080E+01  0.26740574066E+03  0.26742418319E+03  0.00000000000E+00 0.  1.
<mgrwt>
<rscale>  0 0.72039763E+02</rscale>
<asrwt>0</asrwt>
<pdfrwt beam="1">  1        2 0.14077751E+00 0.72039763E+02</pdfrwt>
<pdfrwt beam="2">  1       -1 0.21813460E-03 0.72039763E+02</pdfrwt>
<totfact> 0.45889845E+05</totfact>
</mgrwt>
</event>
<event>
 8    1  0.1226832E-024  0.8016505E+02  0.7818608E-02  0.1328584E+00
         -1   -1    0    0    0  501 -0.00000000000E+00  0.00000000000E+00  0.37881664478E+01  0.37881698006E+01  0.50400000000E-02 0.  1.
          2   -1    0    0  501    0  0.00000000000E+00 -0.00000000000E+00 -0.42411233157E+03  0.42411233158E+03  0.25500000000E-02 0. -1.
         24    2    1    2    0    0  0.00000000000E+00  0.88817841970E-15 -0.42032416512E+03  0.42790050138E+03  0.80165050328E+02 0.  0.
         66    2    3    3    0    0 -0.31196803754E+02  0.44353226735E+01 -0.34230770133E+03  0.34376078163E+03  0.19999874203E+01 0.  0.
        -13    1    3    3    0    0  0.31196803754E+02 -0.44353226735E+01 -0.78016463798E+02  0.84139719748E+02  0.10566000000E+00 0.  1.
         13    1    4    4    0    0 -0.12629904522E+02  0.16838261757E+01 -0.13270238697E+03  0.13331273169E+03  0.10566000000E+00 0. -1.
        -13    1    4    4    0    0 -0.12332864764E+02  0.20841460586E+01 -0.14569894895E+03  0.14623487309E+03  0.10566000000E+00 0.  1.
        -14    1    4    4    0    0 -0.62340344680E+01  0.66735043914E+00 -0.63906365398E+02  0.64213176847E+02  0.00000000000E+00 0.  1.
<mgrwt>
<rscale>  0 0.80165050E+02</rscale>
<asrwt>0</asrwt>
<pdfrwt beam="1">  1        2 0.65248013E-01 0.80165050E+02</pdfrwt>
<pdfrwt beam="2">  1       -1 0.58279543E-03 0.80165050E+02</pdfrwt>
<totfact> 0.28677798E+05</totfact>
</mgrwt>
</event>
<event>
 8    1  0.1226832E-024  0.8051250E+02  0.7818608E-02  0.1327603E+00
         -1   -1    0    0    0  501 -0.00000000000E+00  0.00000000000E+00  0.82207947356E+01  0.82207962806E+01  0.50400000000E-02 0.  1.
          2   -1    0    0  501    0  0.00000000000E+00 -0.00000000000E+00 -0.19713005261E+03  0.19713005262E+03  0.25500000000E-02 0. -1.
         24    2    1    2    0    0  0.00000000000E+00  0.00000000000E+00 -0.18890925787E+03  0.20535084890E+03  0.80512504843E+02 0.  0.
         66    2    3    3    0    0  0.27517364053E+01 -0.17724849739E+02 -0.18636139956E+03  0.18723331327E+03  0.20000001645E+01 0.  0.
        -13    1    3    3    0    0 -0.27517364053E+01  0.17724849739E+02 -0.25478583141E+01  0.18117535637E+02  0.10566000000E+00 0.  1.
         13    1    4    4    0    0 -0.63421211132E-01 -0.37585535500E+01 -0.42931336015E+02  0.43095725114E+02  0.10566000000E+00 0. -1.
        -13    1    4    4    0    0  0.18473032205E+00 -0.14062599865E+01 -0.15936610558E+02  0.15999950392E+02  0.10566000000E+00 0. -1.
         14    1    4    4    0    0  0.26304272944E+01 -0.12560036203E+02 -0.12749345298E+03  0.12813763776E+03  0.00000000000E+00 0. -1.
<mgrwt>
<rscale>  0 0.80512505E+02</rscale>
<asrwt>0</asrwt>
<pdfrwt beam="1">  1        2 0.30327697E-01 0.80512505E+02</pdfrwt>
<pdfrwt beam="2">  1       -1 0.12647379E-02 0.80512505E+02</pdfrwt>
<totfact> 0.21581322E+05</totfact>
</mgrwt>
</event>
<event>
 8    1  0.1226832E-024  0.7999279E+02  0.7818608E-02  0.1329072E+00
          2   -1    0    0  501    0  0.00000000000E+00  0.00000000000E+00  0.23293530521E+03  0.23293530522E+03  0.25500000000E-02 0. -1.
         -1   -1    0    0    0  501 -0.00000000000E+00 -0.00000000000E+00 -0.68676207388E+01  0.68676225882E+01  0.50400000000E-02 0.  1.
         24    2    1    2    0    0  0.00000000000E+00  0.00000000000E+00  0.22606768447E+03  0.23980292781E+03  0.79992788582E+02 0.  0.
         66    2    3    3    0    0  0.36951035610E+01 -0.17111191230E+02  0.22082781084E+03  0.22152961133E+03  0.19999996771E+01 0.  0.
        -13    1    3    3    0    0 -0.36951035610E+01  0.17111191230E+02  0.52398736303E+01  0.18273316484E+02  0.10566000000E+00 0.  1.
         13    1    4    4    0    0  0.13775449854E+01 -0.65466440678E+01  0.84551479361E+02  0.84815800444E+02  0.10566000000E+00 0. -1.
        -13    1    4    4    0    0  0.11584461462E+01 -0.41519354421E+01  0.45483068901E+02  0.45686992526E+02  0.10566000000E+00 0.  1.
         14    1    4    4    0    0  0.11591124294E+01 -0.64126117201E+01  0.90793262576E+02  0.91026818356E+02  0.00000000000E+00 0. -1.
<mgrwt>
<rscale>  0 0.79992789E+02</rscale>
<asrwt>0</asrwt>
<pdfrwt beam="1">  1        2 0.35836190E-01 0.79992789E+02</pdfrwt>
<pdfrwt beam="2">  1       -1 0.10565575E-02 0.79992789E+02</pdfrwt>
<totfact> 0.23279073E+05</totfact>
</mgrwt>
</event>
<event>
 8    1  0.1226832E-024  0.8135667E+02  0.7818608E-02  0.1325245E+00
         -1   -1    0    0    0  501 -0.00000000000E+00  0.00000000000E+00  0.61287578929E+01  0.61287599652E+01  0.50400000000E-02 0.  1.
          2   -1    0    0  501    0  0.00000000000E+00 -0.00000000000E+00 -0.26999383282E+03  0.26999383284E+03  0.25500000000E-02 0. -1.
         24    2    1    2    0    0 -0.35527136788E-14  0.00000000000E+00 -0.26386507493E+03  0.27612259280E+03  0.81356674508E+02 0.  0.
         66    2    3    3    0    0  0.16126967765E+02 -0.18949589271E+02 -0.24112486689E+03  0.24241362888E+03  0.20000027277E+01 0.  0.
        -13    1    3    3    0    0 -0.16126967765E+02  0.18949589271E+02 -0.22740208038E+02  0.33708963918E+02  0.10566000000E+00 0.  1.
         13    1    4    4    0    0  0.13434471062E+01 -0.18761448587E+01 -0.20130414508E+02  0.20262515193E+02  0.10566000000E+00 0. -1.
        -13    1    4    4    0    0  0.54795752181E+01 -0.59325439187E+01 -0.72179536450E+02  0.72630003911E+02  0.10566000000E+00 0.  1.
         14    1    4    4    0    0  0.93039454409E+01 -0.11140900493E+02 -0.14881491594E+03  0.14952110978E+03  0.00000000000E+00 0. -1.
<mgrwt>
<rscale>  0 0.81356675E+02</rscale>
<asrwt>0</asrwt>
<pdfrwt beam="1">  1        2 0.41537504E-01 0.81356675E+02</pdfrwt>
<pdfrwt beam="2">  1       -1 0.94288620E-03 0.81356675E+02</pdfrwt>
<totfact> 0.23478811E+05</totfact>
</mgrwt>
</event>
<event>
 8    1  0.1226832E-024  0.8015646E+02  0.7818608E-02  0.1328608E+00
          2   -1    0    0  501    0  0.00000000000E+00  0.00000000000E+00  0.68861094779E+03  0.68861094779E+03  0.25500000000E-02 0. -1.
         -1   -1    0    0    0  501 -0.00000000000E+00 -0.00000000000E+00 -0.23326128870E+01  0.23326183319E+01  0.50400000000E-02 0.  1.
         24    2    1    2    0    0  0.00000000000E+00  0.00000000000E+00  0.68627833490E+03  0.69094356612E+03  0.80156463336E+02 0.  0.
         66    2    3    3    0    0  0.30898734367E+02 -0.17438705534E+02  0.50355769881E+03  0.50481005959E+03  0.19999998045E+01 0.  0.
        -13    1    3    3    0    0 -0.30898734367E+02  0.17438705534E+02  0.18272063609E+03  0.18613350653E+03  0.10566000000E+00 0.  1.
         13    1    4    4    0    0  0.25856506137E+02 -0.14527343546E+02  0.42625942723E+03  0.42728996371E+03  0.10566000000E+00 0. -1.
        -13    1    4    4    0    0  0.10347823126E+01 -0.68294863295E+00  0.19977579962E+02  0.20016294823E+02  0.10566000000E+00 0.  1.
         14    1    4    4    0    0  0.40074459177E+01 -0.22284133552E+01  0.57320691618E+02  0.57503801061E+02  0.00000000000E+00 0. -1.
<mgrwt>
<rscale>  0 0.80156463E+02</rscale>
<asrwt>0</asrwt>
<pdfrwt beam="1">  1        2 0.10594007E+00 0.80156463E+02</pdfrwt>
<pdfrwt beam="2">  1       -1 0.35886420E-03 0.80156463E+02</pdfrwt>
<totfact> 0.33155860E+05</totfact>
</mgrwt>
</event>
<event>
 8    1  0.1226832E-024  0.7661550E+02  0.7818608E-02  0.1338940E+00
         -1   -1    0    0    0  501 -0.00000000000E+00  0.00000000000E+00  0.21175512128E+02  0.21175512727E+02  0.50400000000E-02 0.  1.
          2   -1    0    0  501    0  0.00000000000E+00 -0.00000000000E+00 -0.69300971249E+02  0.69300971296E+02  0.25500000000E-02 0. -1.
         24    2    1    2    0    0 -0.71054273576E-14  0.00000000000E+00 -0.48125459122E+02  0.90476484024E+02  0.76615496772E+02 0.  0.
         66    2    3    3    0    0 -0.24920663555E+02  0.17158203406E+02 -0.51774909547E+02  0.60000705631E+02  0.20000003739E+01 0.  0.
        -13    1    3    3    0    0  0.24920663555E+02 -0.17158203406E+02  0.36494504251E+01  0.30475778392E+02  0.10566000000E+00 0.  1.
         13    1    4    4    0    0 -0.18355569342E+01  0.12414533050E+01 -0.30288688051E+01  0.37544221714E+01  0.10566000000E+00 0.  1.
        -13    1    4    4    0    0 -0.62566965223E+01  0.44500784578E+01 -0.14300181185E+02  0.16231321438E+02  0.10566000000E+00 0. -1.
        -14    1    4    4    0    0 -0.16828410099E+02  0.11466671643E+02 -0.34445859557E+02  0.40014962022E+02  0.00000000000E+00 0.  1.
<mgrwt>
<rscale>  0 0.76615497E+02</rscale>
<asrwt>0</asrwt>
<pdfrwt beam="1">  1        2 0.10661688E-01 0.76615497E+02</pdfrwt>
<pdfrwt beam="2">  1       -1 0.32577712E-02 0.76615497E+02</pdfrwt>
<totfact> 0.18101207E+05</totfact>
</mgrwt>
</event>
<event>
 8    1  0.1589066E-024  0.7315316E+02  0.7818608E-02  0.1349687E+00
          2   -1    0    0  501    0  0.00000000000E+00  0.00000000000E+00  0.64670485794E+02  0.64670485844E+02  0.25500000000E-02 0. -1.
         -1   -1    0    0    0  501 -0.00000000000E+00 -0.00000000000E+00 -0.20687122750E+02  0.20687123364E+02  0.50400000000E-02 0.  1.
         24    2    1    2    0    0  0.44408920985E-15 -0.35527136788E-14  0.43983363044E+02  0.85357609208E+02  0.73153162782E+02 0.  0.
         66    2    3    3    0    0  0.35199948975E+01 -0.14689676592E+02  0.60842174648E+02  0.62721186010E+02  0.19999990602E+01 0.  0.
        -13    1    3    3    0    0 -0.35199948975E+01  0.14689676592E+02 -0.16858811604E+02  0.22636423198E+02  0.10566000000E+00 0.  1.
         13    1    4    4    0    0  0.18300224583E+01 -0.97407193554E+01  0.40276152955E+02  0.41477828495E+02  0.10566000000E+00 0. -1.
        -13    1    4    4    0    0  0.34726574498E+00 -0.18968603353E+01  0.90812553721E+01  0.92843435846E+01  0.10566000000E+00 0.  1.
        -14    1    4    4    0    0  0.13427066941E+01 -0.30520969011E+01  0.11484766321E+02  0.11959013931E+02  0.00000000000E+00 0.  1.
<mgrwt>
<rscale>  0 0.73153163E+02</rscale>
<asrwt>0</asrwt>
<pdfrwt beam="1">  1        2 0.99493055E-02 0.73153163E+02</pdfrwt>
<pdfrwt beam="2">  1       -1 0.31826344E-02 0.73153163E+02</pdfrwt>
<totfact> 0.20163039E+05</totfact>
</mgrwt>
</event>
<event>
 8    1  0.1226832E-024  0.8053105E+02  0.7818608E-02  0.1327551E+00
          2   -1    0    0  501    0  0.00000000000E+00  0.00000000000E+00  0.45274286086E+03  0.45274286087E+03  0.25500000000E-02 0. -1.
         -1   -1    0    0    0  501 -0.00000000000E+00 -0.00000000000E+00 -0.35810870131E+01  0.35810905598E+01  0.50400000000E-02 0.  1.
         24    2    1    2    0    0  0.71054273576E-14  0.00000000000E+00  0.44916177385E+03  0.45632395143E+03  0.80531047185E+02 0.  0.
         66    2    3    3    0    0  0.37730921074E+02  0.10993938675E+02  0.27373231241E+03  0.27654632157E+03  0.20000060512E+01 0.  0.
        -13    1    3    3    0    0 -0.37730921074E+02 -0.10993938675E+02  0.17542946144E+03  0.17977762986E+03  0.10566000000E+00 0.  1.
         13    1    4    4    0    0  0.17623516284E+02  0.44592846845E+01  0.12659727937E+03  0.12789587895E+03  0.10566000000E+00 0. -1.
        -13    1    4    4    0    0  0.11992525598E+02  0.41273593680E+01  0.91666443664E+02  0.92539741860E+02  0.10566000000E+00 0.  1.
         14    1    4    4    0    0  0.81148791926E+01  0.24072946228E+01  0.55468589374E+02  0.56110700752E+02  0.00000000000E+00 0. -1.
<mgrwt>
<rscale>  0 0.80531047E+02</rscale>
<asrwt>0</asrwt>
<pdfrwt beam="1">  1        2 0.69652724E-01 0.80531047E+02</pdfrwt>
<pdfrwt beam="2">  1       -1 0.55093693E-03 0.80531047E+02</pdfrwt>
<totfact> 0.28973889E+05</totfact>
</mgrwt>
</event>
<event>
 8    1  0.1226832E-024  0.7847754E+02  0.7818608E-02  0.1333428E+00
         -1   -1    0    0    0  501 -0.00000000000E+00  0.00000000000E+00  0.90248287456E+01  0.90248301530E+01  0.50400000000E-02 0.  1.
          2   -1    0    0  501    0  0.00000000000E+00 -0.00000000000E+00 -0.17060499727E+03  0.17060499729E+03  0.25500000000E-02 0. -1.
         24    2    1    2    0    0  0.00000000000E+00 -0.35527136788E-14 -0.16158016852E+03  0.17962982744E+03  0.78477538484E+02 0.  0.
         66    2    3    3    0    0  0.12460909668E+01  0.23997402902E+02 -0.15177156457E+03  0.15367509831E+03  0.19999850954E+01 0.  0.
        -13    1    3    3    0    0 -0.12460909668E+01 -0.23997402902E+02 -0.98086039570E+01  0.25954729133E+02  0.10566000000E+00 0.  1.
         13    1    4    4    0    0  0.15731833815E+01  0.14590905030E+02 -0.90956525652E+02  0.92132893900E+02  0.10566000000E+00 0. -1.
        -13    1    4    4    0    0 -0.21780865739E+00  0.29464887934E+01 -0.20752307711E+02  0.20961838569E+02  0.10566000000E+00 0.  1.
         14    1    4    4    0    0 -0.10928375737E+00  0.64600090786E+01 -0.40062731203E+02  0.40580365839E+02  0.00000000000E+00 0. -1.
<mgrwt>
<rscale>  0 0.78477538E+02</rscale>
<asrwt>0</asrwt>
<pdfrwt beam="1">  1        2 0.26246920E-01 0.78477538E+02</pdfrwt>
<pdfrwt beam="2">  1       -1 0.13884354E-02 0.78477538E+02</pdfrwt>
<totfact> 0.21982962E+05</totfact>
</mgrwt>
</event>
<event>
 8    1  0.1226832E-024  0.8023342E+02  0.7818608E-02  0.1328390E+00
         -1   -1    0    0    0  501 -0.00000000000E+00  0.00000000000E+00  0.43929675380E+02  0.43929675669E+02  0.50400000000E-02 0.  1.
          2   -1    0    0  501    0  0.00000000000E+00 -0.00000000000E+00 -0.36634696758E+02  0.36634696847E+02  0.25500000000E-02 0. -1.
         24    2    1    2    0    0  0.00000000000E+00  0.00000000000E+00  0.72949786216E+01  0.80564372516E+02  0.80233418260E+02 0.  0.
         66    2    3    3    0    0  0.13827041433E+02 -0.36640768840E+02 -0.49654063169E+01  0.39527057559E+02  0.20000008342E+01 0.  0.
        -13    1    3    3    0    0 -0.13827041433E+02  0.36640768840E+02  0.12260384939E+02  0.41037314957E+02  0.10566000000E+00 0.  1.
         13    1    4    4    0    0  0.53625311210E+01 -0.12481197931E+02 -0.17568640354E+01  0.13697984417E+02  0.10566000000E+00 0. -1.
        -13    1    4    4    0    0  0.62403347009E+01 -0.19095813654E+02 -0.22425318057E+01  0.20214647888E+02  0.10566000000E+00 0.  1.
        -14    1    4    4    0    0  0.22241756111E+01 -0.50637572558E+01 -0.96601047581E+00  0.56144252541E+01  0.00000000000E+00 0.  1.
<mgrwt>
<rscale>  0 0.80233418E+02</rscale>
<asrwt>0</asrwt>
<pdfrwt beam="1">  1        2 0.56361072E-02 0.80233418E+02</pdfrwt>
<pdfrwt beam="2">  1       -1 0.67584117E-02 0.80233418E+02</pdfrwt>
<totfact> 0.13889359E+05</totfact>
</mgrwt>
</event>
<event>
 8    1  0.1226832E-024  0.7700447E+02  0.7818608E-02  0.1337774E+00
         -1   -1    0    0    0  501 -0.00000000000E+00  0.00000000000E+00  0.67874752532E+02  0.67874752719E+02  0.50400000000E-02 0.  1.
          2   -1    0    0  501    0  0.00000000000E+00 -0.00000000000E+00 -0.21840550866E+02  0.21840551014E+02  0.25500000000E-02 0. -1.
         24    2    1    2    0    0  0.71054273576E-14 -0.88817841970E-15  0.46034201666E+02  0.89715303733E+02  0.77004467409E+02 0.  0.
         66    2    3    3    0    0 -0.37337518468E+02  0.36628549136E+01  0.32980796487E+02  0.49992396712E+02  0.20000001602E+01 0.  0.
        -13    1    3    3    0    0  0.37337518468E+02 -0.36628549136E+01  0.13053405179E+02  0.39722907022E+02  0.10566000000E+00 0.  1.
         13    1    4    4    0    0 -0.15723077005E+01 -0.25819613291E-01  0.10960239310E+01  0.19197006668E+01  0.10566000000E+00 0. -1.
        -13    1    4    4    0    0 -0.20006381321E+02  0.15601951770E+01  0.18281325502E+02  0.27146040756E+02  0.10566000000E+00 0.  1.
        -14    1    4    4    0    0 -0.15758829446E+02  0.21284793499E+01  0.13603447054E+02  0.20926655289E+02  0.00000000000E+00 0.  1.
<mgrwt>
<rscale>  0 0.77004467E+02</rscale>
<asrwt>0</asrwt>
<pdfrwt beam="1">  1        2 0.33600847E-02 0.77004467E+02</pdfrwt>
<pdfrwt beam="2">  1       -1 0.10442270E-01 0.77004467E+02</pdfrwt>
<totfact> 0.14086507E+05</totfact>
</mgrwt>
</event>
<event>
 8    1  0.1395119E-024  0.7881158E+02  0.7818608E-02  0.1332458E+00
          2   -1    0    0  501    0  0.00000000000E+00  0.00000000000E+00  0.24715276166E+03  0.24715276167E+03  0.25500000000E-02 0. -1.
         -1   -1    0    0    0  501 -0.00000000000E+00 -0.00000000000E+00 -0.62828182505E+01  0.62828202720E+01  0.50400000000E-02 0.  1.
         24    2    1    2    0    0  0.00000000000E+00  0.00000000000E+00  0.24086994341E+03  0.25343558195E+03  0.78811576293E+02 0.  0.
         66    2    3    3    0    0  0.99554927511E+01 -0.37878395842E+02  0.13374235038E+03  0.13937324347E+03  0.20000002516E+01 0.  0.
        -13    1    3    3    0    0 -0.99554927511E+01  0.37878395842E+02  0.10712759303E+03  0.11406233848E+03  0.10566000000E+00 0.  1.
         13    1    4    4    0    0  0.54991965557E+01 -0.21427500428E+02  0.75182686334E+02  0.78369805574E+02  0.10566000000E+00 0.  1.
        -13    1    4    4    0    0  0.37477031540E+01 -0.15192248418E+02  0.53425321016E+02  0.55669792353E+02  0.10566000000E+00 0. -1.
        -14    1    4    4    0    0  0.70859304142E+00 -0.12586469962E+01  0.51343430349E+01  0.53336455413E+01  0.00000000000E+00 0.  1.
<mgrwt>
<rscale>  0 0.78811576E+02</rscale>
<asrwt>0</asrwt>
<pdfrwt beam="1">  1        2 0.38023500E-01 0.78811576E+02</pdfrwt>
<pdfrwt beam="2">  1       -1 0.96658763E-03 0.78811576E+02</pdfrwt>
<totfact> 0.24724084E+05</totfact>
</mgrwt>
</event>
<event>
 8    1  0.1226832E-024  0.7942391E+02  0.7818608E-02  0.1330694E+00
          2   -1    0    0  501    0  0.00000000000E+00  0.00000000000E+00  0.12468380251E+04  0.12468380251E+04  0.25500000000E-02 0. -1.
         -1   -1    0    0    0  501 -0.00000000000E+00 -0.00000000000E+00 -0.12648259819E+01  0.12648360234E+01  0.50400000000E-02 0.  1.
         24    2    1    2    0    0  0.00000000000E+00  0.00000000000E+00  0.12455731991E+04  0.12481028611E+04  0.79423910692E+02 0.  0.
         66    2    3    3    0    0 -0.19924125960E+02  0.58730450093E+01  0.11545915731E+04  0.11547801367E+04  0.20000117616E+01 0.  0.
        -13    1    3    3    0    0  0.19924125960E+02 -0.58730450093E+01  0.90981626057E+02  0.93322724440E+02  0.10566000000E+00 0.  1.
         13    1    4    4    0    0 -0.65771926915E+01  0.23632848189E+01  0.38008822636E+03  0.38015248988E+03  0.10566000000E+00 0. -1.
        -13    1    4    4    0    0 -0.60674844014E+01  0.10999505004E+01  0.31582887720E+03  0.31588908669E+03  0.10566000000E+00 0.  1.
        -14    1    4    4    0    0 -0.72794488670E+01  0.24098096899E+01  0.45867446953E+03  0.45873856014E+03  0.00000000000E+00 0.  1.
<mgrwt>
<rscale>  0 0.79423911E+02</rscale>
<asrwt>0</asrwt>
<pdfrwt beam="1">  1        2 0.19182189E+00 0.79423911E+02</pdfrwt>
<pdfrwt beam="2">  1       -1 0.19458873E-03 0.79423911E+02</pdfrwt>
<totfact> 0.35525153E+05</totfact>
</mgrwt>
</event>
<event>
 8    1  0.1226832E-024  0.8090780E+02  0.7818608E-02  0.1326495E+00
         -1   -1    0    0    0  501 -0.00000000000E+00  0.00000000000E+00  0.15297209451E+01  0.15297292477E+01  0.50400000000E-02 0.  1.
          2   -1    0    0  501    0  0.00000000000E+00 -0.00000000000E+00 -0.10698118716E+04  0.10698118716E+04  0.25500000000E-02 0. -1.
         24    2    1    2    0    0  0.00000000000E+00 -0.17763568394E-14 -0.10682821506E+04  0.10713416008E+04  0.80907801264E+02 0.  0.
         66    2    3    3    0    0  0.96498012705E+01  0.12311951477E+02 -0.10281122222E+04  0.10282331663E+04  0.20000024825E+01 0.  0.
        -13    1    3    3    0    0 -0.96498012705E+01 -0.12311951477E+02 -0.40169928394E+02  0.43108434499E+02  0.10566000000E+00 0.  1.
         13    1    4    4    0    0  0.51016314634E+01  0.64552859519E+01 -0.50366799333E+03  0.50373520428E+03  0.10566000000E+00 0. -1.
        -13    1    4    4    0    0  0.71122004929E+00  0.11051432441E+01 -0.67053064829E+02  0.67066025994E+02  0.10566000000E+00 0.  1.
         14    1    4    4    0    0  0.38369497579E+01  0.47515222810E+01 -0.45739116408E+03  0.45743193605E+03  0.00000000000E+00 0. -1.
<mgrwt>
<rscale>  0 0.80907801E+02</rscale>
<asrwt>0</asrwt>
<pdfrwt beam="1">  1        2 0.16458584E+00 0.80907801E+02</pdfrwt>
<pdfrwt beam="2">  1       -1 0.23534318E-03 0.80907801E+02</pdfrwt>
<totfact> 0.34252832E+05</totfact>
</mgrwt>
</event>
<event>
 8    1  0.1226832E-024  0.8388371E+02  0.7818608E-02  0.1318378E+00
          2   -1    0    0  501    0  0.00000000000E+00  0.00000000000E+00  0.32802721550E+03  0.32802721551E+03  0.25500000000E-02 0. -1.
         -1   -1    0    0    0  501 -0.00000000000E+00 -0.00000000000E+00 -0.53627224016E+01  0.53627247700E+01  0.50400000000E-02 0.  1.
         24    2    1    2    0    0 -0.35527136788E-14 -0.88817841970E-15  0.32266449310E+03  0.33338994028E+03  0.83883712206E+02 0.  0.
         66    2    3    3    0    0  0.30195225002E+02  0.47004922572E+01  0.27546062194E+03  0.27715771769E+03  0.19999997333E+01 0.  0.
        -13    1    3    3    0    0 -0.30195225002E+02 -0.47004922572E+01  0.47203871163E+02  0.56232222588E+02  0.10566000000E+00 0.  1.
         13    1    4    4    0    0  0.23399759581E+02  0.37228292121E+01  0.21179425366E+03  0.21311552091E+03  0.10566000000E+00 0. -1.
        -13    1    4    4    0    0  0.63430452949E+01  0.10731449387E+01  0.57600907714E+02  0.57959137306E+02  0.10566000000E+00 0.  1.
        -14    1    4    4    0    0  0.45242012572E+00 -0.95481893586E-01  0.60654605650E+01  0.60830594793E+01  0.00000000000E+00 0.  1.
<mgrwt>
<rscale>  0 0.83883712E+02</rscale>
<asrwt>0</asrwt>
<pdfrwt beam="1">  1        2 0.50465716E-01 0.83883712E+02</pdfrwt>
<pdfrwt beam="2">  1       -1 0.82503456E-03 0.83883712E+02</pdfrwt>
<totfact> 0.23249666E+05</totfact>
</mgrwt>
</event>
<event>
 8    1  0.1226832E-024  0.8276447E+02  0.7818608E-02  0.1321384E+00
         -1   -1    0    0    0  501 -0.00000000000E+00  0.00000000000E+00  0.18143259440E+01  0.18143329443E+01  0.50400000000E-02 0.  1.
          2   -1    0    0  501    0  0.00000000000E+00 -0.00000000000E+00 -0.94386893826E+03  0.94386893826E+03  0.25500000000E-02 0. -1.
         24    2    1    2    0    0  0.44408920985E-15  0.17763568394E-14 -0.94205461231E+03  0.94568327121E+03  0.82764466145E+02 0.  0.
         66    2    3    3    0    0 -0.24903989211E+01 -0.13205556886E+02 -0.91822454296E+03  0.91832505144E+03  0.19999960500E+01 0.  0.
        -13    1    3    3    0    0  0.24903989211E+01  0.13205556886E+02 -0.23830069356E+02  0.27358219770E+02  0.10566000000E+00 0.  1.
         13    1    4    4    0    0 -0.77068308432E+00 -0.39897830104E+01 -0.26298429445E+03  0.26301570792E+03  0.10566000000E+00 0. -1.
        -13    1    4    4    0    0 -0.15117400463E+01 -0.43367641630E+01 -0.34714193756E+03  0.34717233308E+03  0.10566000000E+00 0.  1.
        -14    1    4    4    0    0 -0.20797579047E+00 -0.48790097122E+01 -0.30809831094E+03  0.30813701043E+03  0.00000000000E+00 0.  1.
<mgrwt>
<rscale>  0 0.82764466E+02</rscale>
<asrwt>0</asrwt>
<pdfrwt beam="1">  1        2 0.14521021E+00 0.82764466E+02</pdfrwt>
<pdfrwt beam="2">  1       -1 0.27912836E-03 0.82764466E+02</pdfrwt>
<totfact> 0.32137172E+05</totfact>
</mgrwt>
</event>
<event>
 8    1  0.1226832E-024  0.7886085E+02  0.7818608E-02  0.1332316E+00
         -1   -1    0    0    0  501 -0.00000000000E+00  0.00000000000E+00  0.24639656393E+02  0.24639656909E+02  0.50400000000E-02 0.  1.
          2   -1    0    0  501    0  0.00000000000E+00 -0.00000000000E+00 -0.63099845030E+02  0.63099845081E+02  0.25500000000E-02 0. -1.
         24    2    1    2    0    0 -0.35527136788E-14 -0.35527136788E-14 -0.38460188636E+02  0.87739501990E+02  0.78860852769E+02 0.  0.
         66    2    3    3    0    0 -0.27137700444E+02 -0.21257153118E+02 -0.40481820836E+02  0.53208074205E+02  0.19999995922E+01 0.  0.
        -13    1    3    3    0    0  0.27137700444E+02  0.21257153118E+02  0.20216322001E+01  0.34531427784E+02  0.10566000000E+00 0.  1.
         13    1    4    4    0    0 -0.15288696401E+02 -0.12894036881E+02 -0.23880038683E+02  0.31149122560E+02  0.10566000000E+00 0. -1.
        -13    1    4    4    0    0 -0.19731260943E+01 -0.12653823719E+01 -0.30892714840E+01  0.38793274505E+01  0.10566000000E+00 0.  1.
        -14    1    4    4    0    0 -0.98758779486E+01 -0.70977338648E+01 -0.13512510670E+02  0.18179624195E+02  0.00000000000E+00 0.  1.
<mgrwt>
<rscale>  0 0.78860853E+02</rscale>
<asrwt>0</asrwt>
<pdfrwt beam="1">  1        2 0.97076684E-02 0.78860853E+02</pdfrwt>
<pdfrwt beam="2">  1       -1 0.37907164E-02 0.78860853E+02</pdfrwt>
<totfact> 0.16374974E+05</totfact>
</mgrwt>
</event>
<event>
 8    1  0.1515612E-024  0.7946045E+02  0.7818608E-02  0.1330590E+00
          2   -1    0    0  501    0  0.00000000000E+00  0.00000000000E+00  0.44598343562E+03  0.44598343563E+03  0.25500000000E-02 0. -1.
         -1   -1    0    0    0  501 -0.00000000000E+00 -0.00000000000E+00 -0.35393470452E+01  0.35393506336E+01  0.50400000000E-02 0.  1.
         24    2    1    2    0    0  0.35527136788E-14  0.71054273576E-14  0.44244408857E+03  0.44952278626E+03  0.79460454648E+02 0.  0.
         66    2    3    3    0    0 -0.17647727101E+02 -0.24858650971E+02  0.36526929686E+03  0.36654475037E+03  0.19999989196E+01 0.  0.
        -13    1    3    3    0    0  0.17647727101E+02  0.24858650971E+02  0.77174791710E+02  0.82978035886E+02  0.10566000000E+00 0.  1.
         13    1    4    4    0    0 -0.11711527056E+02 -0.16021810318E+02  0.23440377017E+03  0.23524242156E+03  0.10566000000E+00 0. -1.
        -13    1    4    4    0    0 -0.31085614671E+01 -0.55781812883E+01  0.78196586750E+02  0.78456972948E+02  0.10566000000E+00 0.  1.
        -14    1    4    4    0    0 -0.28276385771E+01 -0.32586593645E+01  0.52668939949E+02  0.52845355861E+02  0.00000000000E+00 0.  1.
<mgrwt>
<rscale>  0 0.79460455E+02</rscale>
<asrwt>0</asrwt>
<pdfrwt beam="1">  1        2 0.68612811E-01 0.79460455E+02</pdfrwt>
<pdfrwt beam="2">  1       -1 0.54451541E-03 0.79460455E+02</pdfrwt>
<totfact> 0.29852224E+05</totfact>
</mgrwt>
</event>
<event>
 8    1  0.1226832E-024  0.8113847E+02  0.7818608E-02  0.1325851E+00
         -1   -1    0    0    0  501 -0.00000000000E+00  0.00000000000E+00  0.41427977828E+02  0.41427978135E+02  0.50400000000E-02 0.  1.
          2   -1    0    0  501    0  0.00000000000E+00 -0.00000000000E+00 -0.39728291379E+02  0.39728291461E+02  0.25500000000E-02 0. -1.
         24    2    1    2    0    0  0.00000000000E+00 -0.71054273576E-14  0.16996864494E+01  0.81156269596E+02  0.81138469055E+02 0.  0.
         66    2    3    3    0    0 -0.64504919760E+01 -0.39208743503E+02 -0.72089156053E+01  0.40433932133E+02  0.19999974358E+01 0.  0.
        -13    1    3    3    0    0  0.64504919760E+01  0.39208743503E+02  0.89086020546E+01  0.40722337462E+02  0.10566000000E+00 0.  1.
         13    1    4    4    0    0 -0.34797999449E+01 -0.17708804002E+02 -0.34168987640E+01  0.18368372493E+02  0.10566000000E+00 0. -1.
        -13    1    4    4    0    0 -0.26623814374E+00 -0.54177017461E+01 -0.76448237255E+00  0.54788659677E+01  0.10566000000E+00 0.  1.
         14    1    4    4    0    0 -0.27044538874E+01 -0.16082237754E+02 -0.30275344687E+01  0.16586693672E+02  0.00000000000E+00 0. -1.
<mgrwt>
<rscale>  0 0.81138469E+02</rscale>
<asrwt>0</asrwt>
<pdfrwt beam="1">  1        2 0.61120449E-02 0.81138469E+02</pdfrwt>
<pdfrwt beam="2">  1       -1 0.63735351E-02 0.81138469E+02</pdfrwt>
<totfact> 0.13689158E+05</totfact>
</mgrwt>
</event>
<event>
 8    1  0.1226832E-024  0.8235638E+02  0.7818608E-02  0.1322494E+00
          2   -1    0    0  501    0  0.00000000000E+00  0.00000000000E+00  0.88632921078E+03  0.88632921079E+03  0.25500000000E-02 0. -1.
         -1   -1    0    0    0  501 -0.00000000000E+00 -0.00000000000E+00 -0.19131043470E+01  0.19131109859E+01  0.50400000000E-02 0.  1.
         24    2    1    2    0    0  0.00000000000E+00  0.00000000000E+00  0.88441610644E+03  0.88824232177E+03  0.82356377194E+02 0.  0.
         66    2    3    3    0    0  0.18429432367E+02 -0.27748668899E+02  0.70310912022E+03  0.70390060914E+03  0.20000006134E+01 0.  0.
        -13    1    3    3    0    0 -0.18429432367E+02  0.27748668899E+02  0.18130698622E+03  0.18434171264E+03  0.10566000000E+00 0.  1.
         13    1    4    4    0    0  0.64243246431E+01 -0.91388237037E+01  0.23042781403E+03  0.23069845836E+03  0.10566000000E+00 0. -1.
        -13    1    4    4    0    0  0.30329608306E+01 -0.51782680457E+01  0.14128272935E+03  0.14141016261E+03  0.10566000000E+00 0.  1.
        -14    1    4    4    0    0  0.89721468937E+01 -0.13431577149E+02  0.33139857684E+03  0.33179198817E+03  0.00000000000E+00 0.  1.
<mgrwt>
<rscale>  0 0.82356377E+02</rscale>
<asrwt>0</asrwt>
<pdfrwt beam="1">  1        2 0.13635826E+00 0.82356377E+02</pdfrwt>
<pdfrwt beam="2">  1       -1 0.29432444E-03 0.82356377E+02</pdfrwt>
<totfact> 0.32348778E+05</totfact>
</mgrwt>
</event>
<event>
 8    1  0.1226832E-024  0.8043516E+02  0.7818608E-02  0.1327821E+00
         -1   -1    0    0    0  501 -0.00000000000E+00  0.00000000000E+00  0.15529427814E+01  0.15529509599E+01  0.50400000000E-02 0.  1.
          2   -1    0    0  501    0  0.00000000000E+00 -0.00000000000E+00 -0.10415383335E+04  0.10415383335E+04  0.25500000000E-02 0. -1.
         24    2    1    2    0    0  0.00000000000E+00  0.00000000000E+00 -0.10399853908E+04  0.10430912845E+04  0.80435159070E+02 0.  0.
         66    2    3    3    0    0 -0.11096603810E+02 -0.20300464963E+02 -0.94652907369E+03  0.94681388395E+03  0.19999998966E+01 0.  0.
        -13    1    3    3    0    0  0.11096603810E+02  0.20300464963E+02 -0.93456317070E+02  0.96277400558E+02  0.10566000000E+00 0.  1.
         13    1    4    4    0    0 -0.58334228778E+01 -0.96575712877E+01 -0.44208601684E+03  0.44222997971E+03  0.10566000000E+00 0. -1.
        -13    1    4    4    0    0 -0.39643327485E+01 -0.75044691296E+01 -0.34166973230E+03  0.34177514557E+03  0.10566000000E+00 0.  1.
        -14    1    4    4    0    0 -0.12988481838E+01 -0.31384245461E+01 -0.16277332454E+03  0.16280875867E+03  0.00000000000E+00 0.  1.
<mgrwt>
<rscale>  0 0.80435159E+02</rscale>
<asrwt>0</asrwt>
<pdfrwt beam="1">  1        2 0.16023611E+00 0.80435159E+02</pdfrwt>
<pdfrwt beam="2">  1       -1 0.23891574E-03 0.80435159E+02</pdfrwt>
<totfact> 0.34776724E+05</totfact>
</mgrwt>
</event>
<event>
 8    1  0.1226832E-024  0.8085149E+02  0.7818608E-02  0.1326652E+00
          2   -1    0    0  501    0  0.00000000000E+00  0.00000000000E+00  0.10811440871E+03  0.10811440874E+03  0.25500000000E-02 0. -1.
         -1   -1    0    0    0  501 -0.00000000000E+00 -0.00000000000E+00 -0.15115847918E+02  0.15115848758E+02  0.50400000000E-02 0.  1.
         24    2    1    2    0    0  0.00000000000E+00  0.00000000000E+00  0.92998560796E+02  0.12323025750E+03  0.80851493825E+02 0.  0.
         66    2    3    3    0    0 -0.69055692463E+01 -0.34814582259E+02  0.75944015925E+02  0.83852463134E+02  0.19999985451E+01 0.  0.
        -13    1    3    3    0    0  0.69055692463E+01  0.34814582259E+02  0.17054544871E+02  0.39377794368E+02  0.10566000000E+00 0.  1.
         13    1    4    4    0    0 -0.43727903927E+01 -0.25188491128E+02  0.54396353519E+02  0.60104540771E+02  0.10566000000E+00 0. -1.
        -13    1    4    4    0    0 -0.10219706366E+01 -0.28478459810E+01  0.60385401104E+01  0.67549819700E+01  0.10566000000E+00 0.  1.
         14    1    4    4    0    0 -0.15108082169E+01 -0.67782451504E+01  0.15509122296E+02  0.16992940392E+02  0.00000000000E+00 0. -1.
<mgrwt>
<rscale>  0 0.80851494E+02</rscale>
<asrwt>0</asrwt>
<pdfrwt beam="1">  1        2 0.16632986E-01 0.80851494E+02</pdfrwt>
<pdfrwt beam="2">  1       -1 0.23255151E-02 0.80851494E+02</pdfrwt>
<totfact> 0.17616877E+05</totfact>
</mgrwt>
</event>
<event>
 8    1  0.1226832E-024  0.8076390E+02  0.7818608E-02  0.1326897E+00
         -1   -1    0    0    0  501 -0.00000000000E+00  0.00000000000E+00  0.14591353461E+01  0.14591440504E+01  0.50400000000E-02 0.  1.
          2   -1    0    0  501    0  0.00000000000E+00 -0.00000000000E+00 -0.11175776522E+04  0.11175776522E+04  0.25500000000E-02 0. -1.
         24    2    1    2    0    0  0.00000000000E+00  0.17763568394E-14 -0.11161185169E+04  0.11190367963E+04  0.80763900999E+02 0.  0.
         66    2    3    3    0    0 -0.37456231689E+00  0.15235857606E+02 -0.10761693915E+04  0.10762791602E+04  0.19999978567E+01 0.  0.
        -13    1    3    3    0    0  0.37456231689E+00 -0.15235857606E+02 -0.39949125398E+02  0.42757636020E+02  0.10566000000E+00 0.  1.
         13    1    4    4    0    0 -0.43766863621E+00  0.11916078989E+02 -0.86754432174E+03  0.86762627083E+03  0.10566000000E+00 0. -1.
        -13    1    4    4    0    0  0.14906853864E+00  0.15888664619E+00 -0.12763046211E+02  0.12765342887E+02  0.10566000000E+00 0. -1.
         14    1    4    4    0    0 -0.85962219329E-01  0.31608919712E+01 -0.19586202351E+03  0.19588754652E+03  0.00000000000E+00 0. -1.
<mgrwt>
<rscale>  0 0.80763901E+02</rscale>
<asrwt>0</asrwt>
<pdfrwt beam="1">  1        2 0.17193434E+00 0.80763901E+02</pdfrwt>
<pdfrwt beam="2">  1       -1 0.22448392E-03 0.80763901E+02</pdfrwt>
<totfact> 0.34371482E+05</totfact>
</mgrwt>
</event>
<event>
 8    1  0.1226832E-024  0.8321735E+02  0.7818608E-02  0.1320161E+00
          2   -1    0    0  501    0  0.00000000000E+00  0.00000000000E+00  0.72308007836E+01  0.72308012332E+01  0.25500000000E-02 0. -1.
         -1   -1    0    0    0  501 -0.00000000000E+00 -0.00000000000E+00 -0.23943153159E+03  0.23943153165E+03  0.50400000000E-02 0.  1.
         24    2    1    2    0    0  0.00000000000E+00  0.00000000000E+00 -0.23220073081E+03  0.24666233288E+03  0.83217348390E+02 0.  0.
         66    2    3    3    0    0  0.45153741077E+01  0.39597112000E+02 -0.15135827864E+03  0.15653002392E+03  0.19999981270E+01 0.  0.
        -13    1    3    3    0    0 -0.45153741077E+01 -0.39597112000E+02 -0.80842452170E+02  0.90132308963E+02  0.10566000000E+00 0.  1.
         13    1    4    4    0    0  0.14873545634E+01  0.13802995743E+02 -0.54426326121E+02  0.56169129014E+02  0.10566000000E+00 0. -1.
        -13    1    4    4    0    0  0.21036985737E+01  0.22029278087E+02 -0.83046177574E+02  0.85944129610E+02  0.10566000000E+00 0.  1.
        -14    1    4    4    0    0  0.92432097053E+00  0.37648381697E+01 -0.13885774944E+02  0.14416765293E+02  0.00000000000E+00 0.  1.
<mgrwt>
<rscale>  0 0.83217348E+02</rscale>
<asrwt>0</asrwt>
<pdfrwt beam="1">  1        2 0.11124311E-02 0.83217348E+02</pdfrwt>
<pdfrwt beam="2">  1       -1 0.36835614E-01 0.83217348E+02</pdfrwt>
<totfact> 0.84991306E+04</totfact>
</mgrwt>
</event>
<event>
 8    1  0.1226832E-024  0.7837940E+02  0.7818608E-02  0.1333714E+00
         -1   -1    0    0    0  501 -0.00000000000E+00  0.00000000000E+00  0.31246445058E+01  0.31246485705E+01  0.50400000000E-02 0.  1.
          2   -1    0    0  501    0  0.00000000000E+00 -0.00000000000E+00 -0.49152197738E+03  0.49152197739E+03  0.25500000000E-02 0. -1.
         24    2    1    2    0    0 -0.17763568394E-14  0.00000000000E+00 -0.48839733287E+03  0.49464662596E+03  0.78379396604E+02 0.  0.
         66    2    3    3    0    0  0.13865037932E+02  0.31955419433E+02 -0.35732799531E+03  0.35902741448E+03  0.20000020335E+01 0.  0.
        -13    1    3    3    0    0 -0.13865037932E+02 -0.31955419433E+02 -0.13106933757E+03  0.13561921148E+03  0.10566000000E+00 0.  1.
         13    1    4    4    0    0  0.14984947234E+01  0.32989868175E+01 -0.42932600553E+02  0.43085358937E+02  0.10566000000E+00 0. -1.
        -13    1    4    4    0    0  0.55014521261E+01  0.12161621936E+02 -0.13074967298E+03  0.13142929343E+03  0.10566000000E+00 0.  1.
         14    1    4    4    0    0  0.68650910829E+01  0.16494810680E+02 -0.18364572178E+03  0.18451276211E+03  0.00000000000E+00 0. -1.
<mgrwt>
<rscale>  0 0.78379397E+02</rscale>
<asrwt>0</asrwt>
<pdfrwt beam="1">  1        2 0.75618704E-01 0.78379397E+02</pdfrwt>
<pdfrwt beam="2">  1       -1 0.48071524E-03 0.78379397E+02</pdfrwt>
<totfact> 0.31942794E+05</totfact>
</mgrwt>
</event>
<event>
 8    1  0.1226832E-024  0.8027703E+02  0.7818608E-02  0.1328267E+00
         -1   -1    0    0    0  501 -0.00000000000E+00  0.00000000000E+00  0.10525080928E+03  0.10525080940E+03  0.50400000000E-02 0.  1.
          2   -1    0    0  501    0  0.00000000000E+00 -0.00000000000E+00 -0.15307247566E+02  0.15307247779E+02  0.25500000000E-02 0. -1.
         24    2    1    2    0    0  0.00000000000E+00  0.35527136788E-14  0.89943561715E+02  0.12055805718E+03  0.80277025713E+02 0.  0.
         66    2    3    3    0    0  0.17168776377E+02 -0.28591526794E+02  0.11524745953E+02  0.35342072083E+02  0.20000007894E+01 0.  0.
        -13    1    3    3    0    0 -0.17168776377E+02  0.28591526794E+02  0.78418815762E+02  0.85215985098E+02  0.10566000000E+00 0.  1.
         13    1    4    4    0    0  0.55155228084E+01 -0.84969039812E+01  0.43962165403E+01  0.11043380507E+02  0.10566000000E+00 0. -1.
        -13    1    4    4    0    0  0.84171436612E+01 -0.14468877211E+02  0.51299333855E+01  0.17507829555E+02  0.10566000000E+00 0.  1.
         14    1    4    4    0    0  0.32361099071E+01 -0.56257456019E+01  0.19985960275E+01  0.67908620210E+01  0.00000000000E+00 0. -1.
<mgrwt>
<rscale>  0 0.80277026E+02</rscale>
<asrwt>0</asrwt>
<pdfrwt beam="1">  1        2 0.23549611E-02 0.80277026E+02</pdfrwt>
<pdfrwt beam="2">  1       -1 0.16192433E-01 0.80277026E+02</pdfrwt>
<totfact> 0.11621881E+05</totfact>
</mgrwt>
</event>
<event>
 8    1  0.1226832E-024  0.7974679E+02  0.7818608E-02  0.1329772E+00
         -1   -1    0    0    0  501 -0.00000000000E+00  0.00000000000E+00  0.10978383226E+01  0.10978498914E+01  0.50400000000E-02 0.  1.
          2   -1    0    0  501    0  0.00000000000E+00 -0.00000000000E+00 -0.14481906050E+04  0.14481906050E+04  0.25500000000E-02 0. -1.
         24    2    1    2    0    0  0.00000000000E+00  0.00000000000E+00 -0.14470927666E+04  0.14492884549E+04  0.79746787508E+02 0.  0.
         66    2    3    3    0    0 -0.17040049967E+02 -0.53554236947E+01 -0.13713586908E+04  0.13714764681E+04  0.20000069901E+01 0.  0.
        -13    1    3    3    0    0  0.17040049967E+02  0.53554236947E+01 -0.75734075872E+02  0.77811986725E+02  0.10566000000E+00 0.  1.
         13    1    4    4    0    0 -0.65248545224E+01 -0.13755149732E+01 -0.53845290272E+03  0.53849420181E+03  0.10566000000E+00 0. -1.
        -13    1    4    4    0    0 -0.29283700634E+01 -0.11987205809E+01 -0.20391840681E+03  0.20394298243E+03  0.10566000000E+00 0.  1.
         14    1    4    4    0    0 -0.75868253809E+01 -0.27811881406E+01 -0.62898738125E+03  0.62903928390E+03  0.00000000000E+00 0. -1.
<mgrwt>
<rscale>  0 0.79746788E+02</rscale>
<asrwt>0</asrwt>
<pdfrwt beam="1">  1        2 0.22279703E+00 0.79746788E+02</pdfrwt>
<pdfrwt beam="2">  1       -1 0.16890025E-03 0.79746788E+02</pdfrwt>
<totfact> 0.33943515E+05</totfact>
</mgrwt>
</event>
<event>
 8    1  0.1226832E-024  0.8493457E+02  0.7818608E-02  0.1315604E+00
         -1   -1    0    0    0  501 -0.00000000000E+00  0.00000000000E+00  0.39827071453E+01  0.39827103343E+01  0.50400000000E-02 0.  1.
          2   -1    0    0  501    0  0.00000000000E+00 -0.00000000000E+00 -0.45282508844E+03  0.45282508844E+03  0.25500000000E-02 0. -1.
         24    2    1    2    0    0  0.71054273576E-14  0.88817841970E-15 -0.44884238129E+03  0.45680779878E+03  0.84934573533E+02 0.  0.
         66    2    3    3    0    0 -0.38429662603E+02 -0.75376844680E+01 -0.31256139759E+03  0.31501155998E+03  0.20000005392E+01 0.  0.
        -13    1    3    3    0    0  0.38429662603E+02  0.75376844680E+01 -0.13628098370E+03  0.14179623880E+03  0.10566000000E+00 0.  1.
         13    1    4    4    0    0 -0.10697387957E+01 -0.36810582322E+00 -0.96769105263E+01  0.97433877249E+01  0.10566000000E+00 0. -1.
        -13    1    4    4    0    0 -0.19636433328E+02 -0.41727656770E+01 -0.15438488227E+03  0.15568463163E+03  0.10566000000E+00 0.  1.
        -14    1    4    4    0    0 -0.17723490480E+02 -0.29968129678E+01 -0.14849960479E+03  0.14958354062E+03  0.00000000000E+00 0.  1.
<mgrwt>
<rscale>  0 0.84934574E+02</rscale>
<asrwt>0</asrwt>
<pdfrwt beam="1">  1        2 0.69665358E-01 0.84934574E+02</pdfrwt>
<pdfrwt beam="2">  1       -1 0.61272478E-03 0.84934574E+02</pdfrwt>
<totfact> 0.25206936E+05</totfact>
</mgrwt>
</event>
<event>
 8    1  0.1226832E-024  0.7954309E+02  0.7818608E-02  0.1330353E+00
         -1   -1    0    0    0  501 -0.00000000000E+00  0.00000000000E+00  0.23002479179E+01  0.23002534394E+01  0.50400000000E-02 0.  1.
          2   -1    0    0  501    0  0.00000000000E+00 -0.00000000000E+00 -0.68765367330E+03  0.68765367331E+03  0.25500000000E-02 0. -1.
         24    2    1    2    0    0 -0.35527136788E-14  0.35527136788E-14 -0.68535342539E+03  0.68995392675E+03  0.79543091132E+02 0.  0.
         66    2    3    3    0    0 -0.23605022758E+02  0.25201967931E+02 -0.51362549499E+03  0.51478877745E+03  0.19999990538E+01 0.  0.
        -13    1    3    3    0    0  0.23605022758E+02 -0.25201967931E+02 -0.17172793039E+03  0.17516514930E+03  0.10566000000E+00 0.  1.
         13    1    4    4    0    0 -0.76993492085E+01  0.75835125708E+01 -0.15165533518E+03  0.15203993388E+03  0.10566000000E+00 0. -1.
        -13    1    4    4    0    0 -0.39680967212E+01  0.38197294558E+01 -0.82623772006E+02  0.82807215804E+02  0.10566000000E+00 0.  1.
         14    1    4    4    0    0 -0.11937576828E+02  0.13798725905E+02 -0.27934638781E+03  0.27994162777E+03  0.00000000000E+00 0. -1.
<mgrwt>
<rscale>  0 0.79543091E+02</rscale>
<asrwt>0</asrwt>
<pdfrwt beam="1">  1        2 0.10579271E+00 0.79543091E+02</pdfrwt>
<pdfrwt beam="2">  1       -1 0.35388527E-03 0.79543091E+02</pdfrwt>
<totfact> 0.33813463E+05</totfact>
</mgrwt>
</event>
<event>
 8    1  0.1226832E-024  0.7788875E+02  0.7818608E-02  0.1335152E+00
         -1   -1    0    0    0  501 -0.00000000000E+00  0.00000000000E+00  0.20921117883E+03  0.20921117889E+03  0.50400000000E-02 0.  1.
          2   -1    0    0  501    0  0.00000000000E+00 -0.00000000000E+00 -0.72494428135E+01  0.72494432620E+01  0.25500000000E-02 0. -1.
         24    2    1    2    0    0  0.00000000000E+00  0.00000000000E+00  0.20196173602E+03  0.21646062215E+03  0.77888754823E+02 0.  0.
         66    2    3    3    0    0  0.38590352561E+02  0.49914463361E+01  0.10307001403E+03  0.11018873646E+03  0.20000007529E+01 0.  0.
        -13    1    3    3    0    0 -0.38590352561E+02 -0.49914463361E+01  0.98891721985E+02  0.10627188569E+03  0.10566000000E+00 0.  1.
         13    1    4    4    0    0  0.53473302567E+01  0.10281338860E+01  0.13320555160E+02  0.14390946945E+02  0.10566000000E+00 0.  1.
        -13    1    4    4    0    0  0.10455363506E+02  0.12499369218E+01  0.26673940897E+02  0.28677295119E+02  0.10566000000E+00 0. -1.
         14    1    4    4    0    0  0.22787658799E+02  0.27133755283E+01  0.63075517975E+02  0.67120494397E+02  0.00000000000E+00 0. -1.
<mgrwt>
<rscale>  0 0.77888755E+02</rscale>
<asrwt>0</asrwt>
<pdfrwt beam="1">  1        2 0.11152990E-02 0.77888755E+02</pdfrwt>
<pdfrwt beam="2">  1       -1 0.32186334E-01 0.77888755E+02</pdfrwt>
<totfact> 0.10515979E+05</totfact>
</mgrwt>
</event>
<event>
 8    1  0.1226832E-024  0.8052936E+02  0.7818608E-02  0.1327556E+00
          2   -1    0    0  501    0  0.00000000000E+00  0.00000000000E+00  0.23482301319E+02  0.23482301458E+02  0.25500000000E-02 0. -1.
         -1   -1    0    0    0  501 -0.00000000000E+00 -0.00000000000E+00 -0.69041125845E+02  0.69041126029E+02  0.50400000000E-02 0.  1.
         24    2    1    2    0    0 -0.35527136788E-14  0.00000000000E+00 -0.45558824525E+02  0.92523427487E+02  0.80529361985E+02 0.  0.
         66    2    3    3    0    0 -0.16325528059E+02 -0.36297864659E+02 -0.29608270153E+02  0.49645820347E+02  0.19999928262E+01 0.  0.
        -13    1    3    3    0    0  0.16325528059E+02  0.36297864659E+02 -0.15950554372E+02  0.42877607139E+02  0.10566000000E+00 0.  1.
         13    1    4    4    0    0 -0.89691731755E+01 -0.19512864598E+02 -0.16193123231E+02  0.26896586331E+02  0.10566000000E+00 0. -1.
        -13    1    4    4    0    0 -0.41371363485E+01 -0.10700570870E+02 -0.88452615582E+01  0.14486819188E+02  0.10566000000E+00 0.  1.
        -14    1    4    4    0    0 -0.32192185347E+01 -0.60844291904E+01 -0.45698853639E+01  0.82624148278E+01  0.00000000000E+00 0.  1.
<mgrwt>
<rscale>  0 0.80529362E+02</rscale>
<asrwt>0</asrwt>
<pdfrwt beam="1">  1        2 0.36126618E-02 0.80529362E+02</pdfrwt>
<pdfrwt beam="2">  1       -1 0.10621712E-01 0.80529362E+02</pdfrwt>
<totfact> 0.12582411E+05</totfact>
</mgrwt>
</event>
<event>
 8    1  0.1226832E-024  0.8285651E+02  0.7818608E-02  0.1321135E+00
          2   -1    0    0  501    0  0.00000000000E+00  0.00000000000E+00  0.19718718698E+03  0.19718718699E+03  0.25500000000E-02 0. -1.
         -1   -1    0    0    0  501 -0.00000000000E+00 -0.00000000000E+00 -0.87039131268E+01  0.87039145860E+01  0.50400000000E-02 0.  1.
         24    2    1    2    0    0  0.00000000000E+00  0.00000000000E+00  0.18848327385E+03  0.20589110158E+03  0.82856509631E+02 0.  0.
         66    2    3    3    0    0  0.10589746577E+02 -0.39489115962E+02  0.78046841591E+02  0.88129691320E+02  0.19999994706E+01 0.  0.
        -13    1    3    3    0    0 -0.10589746577E+02  0.39489115962E+02  0.11043643226E+03  0.11776141026E+03  0.10566000000E+00 0.  1.
         13    1    4    4    0    0  0.45023262114E+01 -0.14675723037E+02  0.29251797313E+02  0.33035232677E+02  0.10566000000E+00 0. -1.
        -13    1    4    4    0    0  0.47599083718E+00 -0.34699618567E+01  0.72091379661E+01  0.80156120673E+01  0.10566000000E+00 0.  1.
        -14    1    4    4    0    0  0.56114295283E+01 -0.21343431068E+02  0.41585906312E+02  0.47078846576E+02  0.00000000000E+00 0.  1.
<mgrwt>
<rscale>  0 0.82856510E+02</rscale>
<asrwt>0</asrwt>
<pdfrwt beam="1">  1        2 0.30336489E-01 0.82856510E+02</pdfrwt>
<pdfrwt beam="2">  1       -1 0.13390637E-02 0.82856510E+02</pdfrwt>
<totfact> 0.20005806E+05</totfact>
</mgrwt>
</event>
<event>
 8    1  0.1226832E-024  0.7925176E+02  0.7818608E-02  0.1331188E+00
         -1   -1    0    0    0  501 -0.00000000000E+00  0.00000000000E+00  0.57439812263E+01  0.57439834375E+01  0.50400000000E-02 0.  1.
          2   -1    0    0  501    0  0.00000000000E+00 -0.00000000000E+00 -0.27336614118E+03  0.27336614119E+03  0.25500000000E-02 0. -1.
         24    2    1    2    0    0  0.17763568394E-14  0.00000000000E+00 -0.26762215995E+03  0.27911012462E+03  0.79251758165E+02 0.  0.
         66    2    3    3    0    0  0.15589327584E+02 -0.19018400777E+02 -0.24321306720E+03  0.24446129095E+03  0.20000022952E+01 0.  0.
        -13    1    3    3    0    0 -0.15589327584E+02  0.19018400777E+02 -0.24409092744E+02  0.34648833679E+02  0.10566000000E+00 0.  1.
         13    1    4    4    0    0  0.90114196604E+01 -0.11493970180E+02 -0.14416490573E+03  0.14490289246E+03  0.10566000000E+00 0. -1.
        -13    1    4    4    0    0  0.37229118097E+01 -0.37159137729E+01 -0.56710101010E+02  0.56953619799E+02  0.10566000000E+00 0.  1.
        -14    1    4    4    0    0  0.28549961141E+01 -0.38085168245E+01 -0.42338060467E+02  0.42604778691E+02  0.00000000000E+00 0.  1.
<mgrwt>
<rscale>  0 0.79251758E+02</rscale>
<asrwt>0</asrwt>
<pdfrwt beam="1">  1        2 0.42056319E-01 0.79251758E+02</pdfrwt>
<pdfrwt beam="2">  1       -1 0.88368981E-03 0.79251758E+02</pdfrwt>
<totfact> 0.25265549E+05</totfact>
</mgrwt>
</event>
<event>
 8    1  0.1226832E-024  0.8887014E+02  0.7818608E-02  0.1305611E+00
          2   -1    0    0  501    0  0.00000000000E+00  0.00000000000E+00  0.96493586647E+03  0.96493586647E+03  0.25500000000E-02 0. -1.
         -1   -1    0    0    0  501 -0.00000000000E+00 -0.00000000000E+00 -0.20462214723E+01  0.20462276793E+01  0.50400000000E-02 0.  1.
         24    2    1    2    0    0  0.00000000000E+00  0.00000000000E+00  0.96288964500E+03  0.96698209415E+03  0.88870141038E+02 0.  0.
         66    2    3    3    0    0 -0.12269964717E+02 -0.67021356479E+01  0.94036421976E+03  0.94047027410E+03  0.20000006835E+01 0.  0.
        -13    1    3    3    0    0  0.12269964717E+02  0.67021356479E+01  0.22525425241E+02  0.26511820057E+02  0.10566000000E+00 0.  1.
         13    1    4    4    0    0 -0.85706186523E+01 -0.54404797966E+01  0.68150404181E+03  0.68157965382E+03  0.10566000000E+00 0. -1.
        -13    1    4    4    0    0 -0.29654129628E+01 -0.92667622543E+00  0.18599497934E+03  0.18602095555E+03  0.10566000000E+00 0.  1.
         14    1    4    4    0    0 -0.73393310219E+00 -0.33497962582E+00  0.72865198606E+02  0.72869664725E+02  0.00000000000E+00 0. -1.
<mgrwt>
<rscale>  0 0.88870141E+02</rscale>
<asrwt>0</asrwt>
<pdfrwt beam="1">  1        2 0.14845169E+00 0.88870141E+02</pdfrwt>
<pdfrwt beam="2">  1       -1 0.31480374E-03 0.88870141E+02</pdfrwt>
<totfact> 0.26723712E+05</totfact>
</mgrwt>
</event>
<event>
 8    1  0.1226832E-024  0.8055272E+02  0.7818608E-02  0.1327490E+00
         -1   -1    0    0    0  501 -0.00000000000E+00  0.00000000000E+00  0.20862573597E+01  0.20862634475E+01  0.50400000000E-02 0.  1.
          2   -1    0    0  501    0  0.00000000000E+00 -0.00000000000E+00 -0.77755642659E+03  0.77755642660E+03  0.25500000000E-02 0. -1.
         24    2    1    2    0    0  0.17763568394E-14  0.35527136788E-14 -0.77547016923E+03  0.77964269004E+03  0.80552720435E+02 0.  0.
         66    2    3    3    0    0  0.12697338483E+02  0.26219363318E+02 -0.65680741315E+03  0.65745620035E+03  0.19999997810E+01 0.  0.
        -13    1    3    3    0    0 -0.12697338483E+02 -0.26219363318E+02 -0.11866275608E+03  0.12218648969E+03  0.10566000000E+00 0.  1.
         13    1    4    4    0    0  0.49994815696E+01  0.11263702201E+02 -0.28490456903E+03  0.28517098453E+03  0.10566000000E+00 0. -1.
        -13    1    4    4    0    0  0.70223374441E+01  0.12857506861E+02 -0.32815493050E+03  0.32848180814E+03  0.10566000000E+00 0.  1.
        -14    1    4    4    0    0  0.67551946939E+00  0.20981542563E+01 -0.43747913621E+02  0.43803407676E+02  0.00000000000E+00 0.  1.
<mgrwt>
<rscale>  0 0.80552720E+02</rscale>
<asrwt>0</asrwt>
<pdfrwt beam="1">  1        2 0.11962383E+00 0.80552720E+02</pdfrwt>
<pdfrwt beam="2">  1       -1 0.32096376E-03 0.80552720E+02</pdfrwt>
<totfact> 0.33584539E+05</totfact>
</mgrwt>
</event>
<event>
 8    1  0.1226832E-024  0.8071064E+02  0.7818608E-02  0.1327047E+00
          2   -1    0    0  501    0  0.00000000000E+00  0.00000000000E+00  0.43921658415E+02  0.43921658489E+02  0.25500000000E-02 0. -1.
         -1   -1    0    0    0  501 -0.00000000000E+00 -0.00000000000E+00 -0.37078556419E+02  0.37078556761E+02  0.50400000000E-02 0.  1.
         24    2    1    2    0    0  0.00000000000E+00  0.00000000000E+00  0.68431019966E+01  0.81000215250E+02  0.80710636385E+02 0.  0.
         66    2    3    3    0    0  0.18305286743E+02 -0.34909185975E+02  0.11987252702E+02  0.41248382102E+02  0.20000026260E+01 0.  0.
        -13    1    3    3    0    0 -0.18305286743E+02  0.34909185975E+02 -0.51441507051E+01  0.39751833149E+02  0.10566000000E+00 0.  1.
         13    1    4    4    0    0  0.76941187426E+01 -0.16216657798E+02  0.57830842385E+01  0.18858278837E+02  0.10566000000E+00 0. -1.
        -13    1    4    4    0    0  0.38164837694E+01 -0.75011567755E+01  0.22188958231E+01  0.87044565621E+01  0.10566000000E+00 0.  1.
         14    1    4    4    0    0  0.67946842310E+01 -0.11191371402E+02  0.39852726401E+01  0.13685646702E+02  0.00000000000E+00 0. -1.
<mgrwt>
<rscale>  0 0.80710636E+02</rscale>
<asrwt>0</asrwt>
<pdfrwt beam="1">  1        2 0.67571782E-02 0.80710636E+02</pdfrwt>
<pdfrwt beam="2">  1       -1 0.57043934E-02 0.80710636E+02</pdfrwt>
<totfact> 0.14184912E+05</totfact>
</mgrwt>
</event>
<event>
 8    1  0.1226832E-024  0.7898847E+02  0.7818608E-02  0.1331947E+00
          2   -1    0    0  501    0  0.00000000000E+00  0.00000000000E+00  0.70828984102E+03  0.70828984103E+03  0.25500000000E-02 0. -1.
         -1   -1    0    0    0  501 -0.00000000000E+00 -0.00000000000E+00 -0.22021955278E+01  0.22022012952E+01  0.50400000000E-02 0.  1.
         24    2    1    2    0    0  0.00000000000E+00  0.00000000000E+00  0.70608764549E+03  0.71049204232E+03  0.78988474368E+02 0.  0.
         66    2    3    3    0    0  0.17538876669E+02 -0.26880666752E+02  0.55987933618E+03  0.56080215183E+03  0.19999930827E+01 0.  0.
        -13    1    3    3    0    0 -0.17538876669E+02  0.26880666752E+02  0.14620830931E+03  0.14968989049E+03  0.10566000000E+00 0.  1.
         13    1    4    4    0    0  0.92158774410E+01 -0.14932718473E+02  0.31543140996E+03  0.31591914160E+03  0.10566000000E+00 0. -1.
        -13    1    4    4    0    0  0.12566689033E+01 -0.20843384921E+01  0.36162952130E+02  0.36244916257E+02  0.10566000000E+00 0. -1.
         14    1    4    4    0    0  0.70663303247E+01 -0.98636097863E+01  0.20828497409E+03  0.20863809397E+03  0.00000000000E+00 0. -1.
<mgrwt>
<rscale>  0 0.78988474E+02</rscale>
<asrwt>0</asrwt>
<pdfrwt beam="1">  1        2 0.10896769E+00 0.78988474E+02</pdfrwt>
<pdfrwt beam="2">  1       -1 0.33879969E-03 0.78988474E+02</pdfrwt>
<totfact> 0.34668299E+05</totfact>
</mgrwt>
</event>
<event>
 8    1  0.1226832E-024  0.8120516E+02  0.7818608E-02  0.1325666E+00
          2   -1    0    0  501    0  0.00000000000E+00  0.00000000000E+00  0.76470496101E+01  0.76470500353E+01  0.25500000000E-02 0. -1.
         -1   -1    0    0    0  501 -0.00000000000E+00 -0.00000000000E+00 -0.21558241034E+03  0.21558241040E+03  0.50400000000E-02 0.  1.
         24    2    1    2    0    0  0.00000000000E+00  0.00000000000E+00 -0.20793536073E+03  0.22322946044E+03  0.81205158481E+02 0.  0.
         66    2    3    3    0    0 -0.26504874934E+02 -0.24198935472E+02 -0.51983914661E+02  0.63201457984E+02  0.20000086340E+01 0.  0.
        -13    1    3    3    0    0  0.26504874934E+02  0.24198935472E+02 -0.15595144607E+03  0.16002800245E+03  0.10566000000E+00 0.  1.
         13    1    4    4    0    0 -0.32119640266E+00 -0.17332593656E+00 -0.54790158211E+00  0.66676021825E+00  0.10566000000E+00 0.  1.
        -13    1    4    4    0    0 -0.12323710022E+02 -0.12082789150E+02 -0.25746005226E+02  0.30995734731E+02  0.10566000000E+00 0.  1.
         14    1    4    4    0    0 -0.13859968509E+02 -0.11942820385E+02 -0.25690007853E+02  0.31538963035E+02  0.00000000000E+00 0. -1.
<mgrwt>
<rscale>  0 0.81205158E+02</rscale>
<asrwt>0</asrwt>
<pdfrwt beam="1">  1        2 0.11764694E-02 0.81205158E+02</pdfrwt>
<pdfrwt beam="2">  1       -1 0.33166520E-01 0.81205158E+02</pdfrwt>
<totfact> 0.93672471E+04</totfact>
</mgrwt>
</event>
<event>
 8    1  0.1226832E-024  0.7939257E+02  0.7818608E-02  0.1330784E+00
          2   -1    0    0  501    0  0.00000000000E+00  0.00000000000E+00  0.12603340078E+04  0.12603340078E+04  0.25500000000E-02 0. -1.
         -1   -1    0    0    0  501 -0.00000000000E+00 -0.00000000000E+00 -0.12502944699E+01  0.12503046281E+01  0.50400000000E-02 0.  1.
         24    2    1    2    0    0  0.88817841970E-15 -0.17763568394E-14  0.12590837133E+04  0.12615843124E+04  0.79392570169E+02 0.  0.
         66    2    3    3    0    0 -0.68846232522E+01  0.15649830467E+02  0.11987820007E+04  0.11989055845E+04  0.19999970605E+01 0.  0.
        -13    1    3    3    0    0  0.68846232522E+01 -0.15649830467E+02  0.60301712552E+02  0.62678727905E+02  0.10566000000E+00 0.  1.
         13    1    4    4    0    0 -0.30247993985E+01  0.74353531317E+01  0.52989828132E+03  0.52995908672E+03  0.10566000000E+00 0. -1.
        -13    1    4    4    0    0 -0.27622136751E+00  0.77039148314E+00  0.90712143672E+02  0.90715897035E+02  0.10566000000E+00 0.  1.
        -14    1    4    4    0    0 -0.35836024862E+01  0.74440858517E+01  0.57817157576E+03  0.57823060074E+03  0.00000000000E+00 0.  1.
<mgrwt>
<rscale>  0 0.79392570E+02</rscale>
<asrwt>0</asrwt>
<pdfrwt beam="1">  1        2 0.19389738E+00 0.79392570E+02</pdfrwt>
<pdfrwt beam="2">  1       -1 0.19235393E-03 0.79392570E+02</pdfrwt>
<totfact> 0.35502563E+05</totfact>
</mgrwt>
</event>
<event>
 8    1  0.1226832E-024  0.8224158E+02  0.7818608E-02  0.1322808E+00
          2   -1    0    0  501    0  0.00000000000E+00  0.00000000000E+00  0.12835074734E+03  0.12835074737E+03  0.25500000000E-02 0. -1.
         -1   -1    0    0    0  501 -0.00000000000E+00 -0.00000000000E+00 -0.13174206183E+02  0.13174207147E+02  0.50400000000E-02 0.  1.
         24    2    1    2    0    0  0.00000000000E+00  0.00000000000E+00  0.11517654116E+03  0.14152495451E+03  0.82241577787E+02 0.  0.
         66    2    3    3    0    0 -0.13786693332E+02  0.17174600814E+02  0.11733018708E+03  0.11939603269E+03  0.19999992992E+01 0.  0.
        -13    1    3    3    0    0  0.13786693332E+02 -0.17174600814E+02 -0.21536459189E+01  0.22128921820E+02  0.10566000000E+00 0.  1.
         13    1    4    4    0    0 -0.76641617438E+01  0.10194496784E+02  0.63848623488E+02  0.65110099257E+02  0.10566000000E+00 0. -1.
        -13    1    4    4    0    0 -0.45777936688E+01  0.48708555778E+01  0.39595188543E+02  0.40155591749E+02  0.10566000000E+00 0.  1.
        -14    1    4    4    0    0 -0.15447379195E+01  0.21092484521E+01  0.13886375046E+02  0.14130341687E+02  0.00000000000E+00 0.  1.
<mgrwt>
<rscale>  0 0.82241578E+02</rscale>
<asrwt>0</asrwt>
<pdfrwt beam="1">  1        2 0.19746268E-01 0.82241578E+02</pdfrwt>
<pdfrwt beam="2">  1       -1 0.20268011E-02 0.82241578E+02</pdfrwt>
<totfact> 0.17716705E+05</totfact>
</mgrwt>
</event>
<event>
 8    1  0.1226832E-024  0.7952001E+02  0.7818608E-02  0.1330419E+00
          2   -1    0    0  501    0  0.00000000000E+00  0.00000000000E+00  0.41543856799E+02  0.41543856878E+02  0.25500000000E-02 0. -1.
         -1   -1    0    0    0  501 -0.00000000000E+00 -0.00000000000E+00 -0.38052748046E+02  0.38052748379E+02  0.50400000000E-02 0.  1.
         24    2    1    2    0    0  0.00000000000E+00  0.00000000000E+00  0.34911087535E+01  0.79596605257E+02  0.79520008351E+02 0.  0.
         66    2    3    3    0    0 -0.28220195715E+02  0.23319407532E+02 -0.13717457874E+02  0.39145151102E+02  0.19999975964E+01 0.  0.
        -13    1    3    3    0    0  0.28220195715E+02 -0.23319407532E+02  0.17208566627E+02  0.40451454155E+02  0.10566000000E+00 0.  1.
         13    1    4    4    0    0 -0.72168326252E+01  0.57168124156E+01 -0.28079448262E+01  0.96260238686E+01  0.10566000000E+00 0. -1.
        -13    1    4    4    0    0 -0.24946069358E+01  0.18847635964E+01 -0.15975082480E+01  0.35126335158E+01  0.10566000000E+00 0.  1.
        -14    1    4    4    0    0 -0.18508756154E+02  0.15717831520E+02 -0.93120047994E+01  0.26006493717E+02  0.00000000000E+00 0.  1.
<mgrwt>
<rscale>  0 0.79520008E+02</rscale>
<asrwt>0</asrwt>
<pdfrwt beam="1">  1        2 0.63913626E-02 0.79520008E+02</pdfrwt>
<pdfrwt beam="2">  1       -1 0.58542690E-02 0.79520008E+02</pdfrwt>
<totfact> 0.14607555E+05</totfact>
</mgrwt>
</event>
<event>
 8    1  0.1226832E-024  0.7991160E+02  0.7818608E-02  0.1329302E+00
          2   -1    0    0  501    0  0.00000000000E+00  0.00000000000E+00  0.25741006656E+02  0.25741006782E+02  0.25500000000E-02 0. -1.
         -1   -1    0    0    0  501 -0.00000000000E+00 -0.00000000000E+00 -0.62020337285E+02  0.62020337489E+02  0.50400000000E-02 0.  1.
         24    2    1    2    0    0  0.00000000000E+00  0.00000000000E+00 -0.36279330629E+02  0.87761344271E+02  0.79911599392E+02 0.  0.
         66    2    3    3    0    0 -0.18027224550E+02 -0.24084812620E+02  0.10684650442E+02  0.31987822722E+02  0.20000058824E+01 0.  0.
        -13    1    3    3    0    0  0.18027224550E+02  0.24084812620E+02 -0.46963981071E+02  0.55773521549E+02  0.10566000000E+00 0.  1.
         13    1    4    4    0    0 -0.11368284406E+02 -0.16085910362E+02  0.64609019387E+01  0.20730383991E+02  0.10566000000E+00 0. -1.
        -13    1    4    4    0    0 -0.15125376969E+00 -0.17479863243E+00  0.55624593829E-01  0.26017377997E+00  0.10566000000E+00 0. -1.
        -14    1    4    4    0    0 -0.65076863736E+01 -0.78241036260E+01  0.41681239098E+01  0.10997264952E+02  0.00000000000E+00 0.  1.
<mgrwt>
<rscale>  0 0.79911599E+02</rscale>
<asrwt>0</asrwt>
<pdfrwt beam="1">  1        2 0.39601549E-02 0.79911599E+02</pdfrwt>
<pdfrwt beam="2">  1       -1 0.95415904E-02 0.79911599E+02</pdfrwt>
<totfact> 0.13096244E+05</totfact>
</mgrwt>
</event>
<event>
 8    1  0.1226832E-024  0.7991278E+02  0.7818608E-02  0.1329299E+00
         -1   -1    0    0    0  501 -0.00000000000E+00  0.00000000000E+00  0.21855151395E+01  0.21855209509E+01  0.50400000000E-02 0.  1.
          2   -1    0    0  501    0  0.00000000000E+00 -0.00000000000E+00 -0.73049640009E+03  0.73049640009E+03  0.25500000000E-02 0. -1.
         24    2    1    2    0    0  0.00000000000E+00  0.00000000000E+00 -0.72831088495E+03  0.73268192104E+03  0.79912779262E+02 0.  0.
         66    2    3    3    0    0 -0.31096548050E+02  0.15342654860E+02 -0.54593713650E+03  0.54704090282E+03  0.19999981306E+01 0.  0.
        -13    1    3    3    0    0  0.31096548050E+02 -0.15342654860E+02 -0.18237374845E+03  0.18564101822E+03  0.10566000000E+00 0.  1.
         13    1    4    4    0    0 -0.19741492661E+02  0.95311123392E+01 -0.34427064022E+03  0.34496790215E+03  0.10566000000E+00 0. -1.
        -13    1    4    4    0    0 -0.82931115232E+00  0.12675502062E+00 -0.14372211059E+02  0.14397063540E+02  0.10566000000E+00 0.  1.
         14    1    4    4    0    0 -0.10525744236E+02  0.56847875005E+01 -0.18729428522E+03  0.18767593713E+03  0.00000000000E+00 0. -1.
<mgrwt>
<rscale>  0 0.79912779E+02</rscale>
<asrwt>0</asrwt>
<pdfrwt beam="1">  1        2 0.11238387E+00 0.79912779E+02</pdfrwt>
<pdfrwt beam="2">  1       -1 0.33623413E-03 0.79912779E+02</pdfrwt>
<totfact> 0.33863912E+05</totfact>
</mgrwt>
</event>
<event>
 8    1  0.1226832E-024  0.8221044E+02  0.7818608E-02  0.1322893E+00
         -1   -1    0    0    0  501 -0.00000000000E+00  0.00000000000E+00  0.63391416650E+02  0.63391416850E+02  0.50400000000E-02 0.  1.
          2   -1    0    0  501    0  0.00000000000E+00 -0.00000000000E+00 -0.26654068254E+02  0.26654068376E+02  0.25500000000E-02 0. -1.
         24    2    1    2    0    0  0.00000000000E+00 -0.44408920985E-15  0.36737348396E+02  0.90045485226E+02  0.82210441200E+02 0.  0.
         66    2    3    3    0    0  0.27652692053E+02 -0.38513262701E+01 -0.14627708217E+02  0.31582810837E+02  0.20000002124E+01 0.  0.
        -13    1    3    3    0    0 -0.27652692053E+02  0.38513262701E+01  0.51365056613E+02  0.58462674389E+02  0.10566000000E+00 0.  1.
         13    1    4    4    0    0  0.60278098852E+01 -0.75059832699E+00 -0.24251063074E+01  0.65414214432E+01  0.10566000000E+00 0. -1.
        -13    1    4    4    0    0  0.15535144411E+02 -0.19088048584E+01 -0.90676379761E+01  0.18089153390E+02  0.10566000000E+00 0.  1.
         14    1    4    4    0    0  0.60897377563E+01 -0.11919230847E+01 -0.31349639336E+01  0.69522360033E+01  0.00000000000E+00 0. -1.
<mgrwt>
<rscale>  0 0.82210441E+02</rscale>
<asrwt>0</asrwt>
<pdfrwt beam="1">  1        2 0.41006260E-02 0.82210441E+02</pdfrwt>
<pdfrwt beam="2">  1       -1 0.97525256E-02 0.82210441E+02</pdfrwt>
<totfact> 0.12170139E+05</totfact>
</mgrwt>
</event>
<event>
 8    1  0.1226832E-024  0.8033306E+02  0.7818608E-02  0.1328109E+00
          2   -1    0    0  501    0  0.00000000000E+00  0.00000000000E+00  0.25015128982E+03  0.25015128983E+03  0.25500000000E-02 0. -1.
         -1   -1    0    0    0  501 -0.00000000000E+00 -0.00000000000E+00 -0.64494973380E+01  0.64494993073E+01  0.50400000000E-02 0.  1.
         24    2    1    2    0    0  0.00000000000E+00 -0.88817841970E-15  0.24370179248E+03  0.25660078914E+03  0.80333064976E+02 0.  0.
         66    2    3    3    0    0 -0.19671917602E+02  0.63059712937E+01  0.23186444089E+03  0.23279147010E+03  0.19999973082E+01 0.  0.
        -13    1    3    3    0    0  0.19671917602E+02 -0.63059712937E+01  0.11837351592E+02  0.23809319034E+02  0.10566000000E+00 0.  1.
         13    1    4    4    0    0 -0.24625091029E+01  0.54563432805E+00  0.24484045351E+02  0.24613843842E+02  0.10566000000E+00 0. -1.
        -13    1    4    4    0    0 -0.47508458868E+01  0.11178895225E+01  0.60598415236E+02  0.60794730912E+02  0.10566000000E+00 0.  1.
         14    1    4    4    0    0 -0.12458562612E+02  0.46424474431E+01  0.14678198030E+03  0.14738289535E+03  0.00000000000E+00 0. -1.
<mgrwt>
<rscale>  0 0.80333065E+02</rscale>
<asrwt>0</asrwt>
<pdfrwt beam="1">  1        2 0.38484816E-01 0.80333065E+02</pdfrwt>
<pdfrwt beam="2">  1       -1 0.99223046E-03 0.80333065E+02</pdfrwt>
<totfact> 0.23614148E+05</totfact>
</mgrwt>
</event>
<event>
 8    1  0.1226832E-024  0.7920820E+02  0.7818608E-02  0.1331314E+00
          2   -1    0    0  501    0  0.00000000000E+00  0.00000000000E+00  0.41359681764E+03  0.41359681765E+03  0.25500000000E-02 0. -1.
         -1   -1    0    0    0  501 -0.00000000000E+00 -0.00000000000E+00 -0.37923017904E+01  0.37923051395E+01  0.50400000000E-02 0.  1.
         24    2    1    2    0    0 -0.17763568394E-14  0.00000000000E+00  0.40980451585E+03  0.41738912279E+03  0.79208197874E+02 0.  0.
         66    2    3    3    0    0 -0.15489889515E+02 -0.19886525573E+02  0.36582361249E+03  0.36669650399E+03  0.20000008783E+01 0.  0.
        -13    1    3    3    0    0  0.15489889515E+02  0.19886525573E+02  0.43980903354E+02  0.50692618797E+02  0.10566000000E+00 0.  1.
         13    1    4    4    0    0 -0.74243698202E+01 -0.87544639934E+01  0.16693901979E+03  0.16733322861E+03  0.10566000000E+00 0. -1.
        -13    1    4    4    0    0 -0.21356676498E+01 -0.35414942651E+01  0.53205578419E+02  0.53366169029E+02  0.10566000000E+00 0.  1.
        -14    1    4    4    0    0 -0.59298520452E+01 -0.75905673143E+01  0.14567901429E+03  0.14599710635E+03  0.00000000000E+00 0.  1.
<mgrwt>
<rscale>  0 0.79208198E+02</rscale>
<asrwt>0</asrwt>
<pdfrwt beam="1">  1        2 0.63630267E-01 0.79208198E+02</pdfrwt>
<pdfrwt beam="2">  1       -1 0.58343142E-03 0.79208198E+02</pdfrwt>
<totfact> 0.29335846E+05</totfact>
</mgrwt>
</event>
<event>
 8    1  0.1226832E-024  0.7972807E+02  0.7818608E-02  0.1329825E+00
         -1   -1    0    0    0  501 -0.00000000000E+00  0.00000000000E+00  0.69372994185E+02  0.69372994368E+02  0.50400000000E-02 0.  1.
          2   -1    0    0  501    0  0.00000000000E+00 -0.00000000000E+00 -0.22907205777E+02  0.22907205919E+02  0.25500000000E-02 0. -1.
         24    2    1    2    0    0 -0.17763568394E-14  0.00000000000E+00  0.46465788407E+02  0.92280200287E+02  0.79728074558E+02 0.  0.
         66    2    3    3    0    0 -0.15554090244E+02  0.34800459006E+02  0.98424351158E+01  0.39419223748E+02  0.20000003713E+01 0.  0.
        -13    1    3    3    0    0  0.15554090244E+02 -0.34800459006E+02  0.36623353292E+02  0.52860976540E+02  0.10566000000E+00 0.  1.
         13    1    4    4    0    0 -0.93673483559E+01  0.21881884812E+02  0.56921672234E+01  0.24473986800E+02  0.10566000000E+00 0. -1.
        -13    1    4    4    0    0 -0.14095193345E+01  0.37091999727E+01  0.14382424618E+01  0.42219207248E+01  0.10566000000E+00 0.  1.
         14    1    4    4    0    0 -0.47772225535E+01  0.92093742211E+01  0.27120254306E+01  0.10723316222E+02  0.00000000000E+00 0. -1.
<mgrwt>
<rscale>  0 0.79728075E+02</rscale>
<asrwt>0</asrwt>
<pdfrwt beam="1">  1        2 0.35241855E-02 0.79728075E+02</pdfrwt>
<pdfrwt beam="2">  1       -1 0.10672768E-01 0.79728075E+02</pdfrwt>
<totfact> 0.12881984E+05</totfact>
</mgrwt>
</event>
<event>
 8    1  0.1226832E-024  0.8256335E+02  0.7818608E-02  0.1321930E+00
          2   -1    0    0  501    0  0.00000000000E+00  0.00000000000E+00  0.20127848437E+02  0.20127848598E+02  0.25500000000E-02 0. -1.
         -1   -1    0    0    0  501 -0.00000000000E+00 -0.00000000000E+00 -0.84667596258E+02  0.84667596408E+02  0.50400000000E-02 0.  1.
         24    2    1    2    0    0  0.00000000000E+00  0.00000000000E+00 -0.64539747821E+02  0.10479544501E+03  0.82563346864E+02 0.  0.
         66    2    3    3    0    0  0.36256827751E+02  0.17829726572E+02 -0.21690906398E+02  0.45901548178E+02  0.19999991434E+01 0.  0.
        -13    1    3    3    0    0 -0.36256827751E+02 -0.17829726572E+02 -0.42848841424E+02  0.58893896828E+02  0.10566000000E+00 0.  1.
         13    1    4    4    0    0  0.19623848147E+02  0.92555459379E+01 -0.12196901700E+02  0.24890482555E+02  0.10566000000E+00 0. -1.
        -13    1    4    4    0    0  0.23425852154E+01  0.14088475283E+01 -0.17547513405E+01  0.32500574075E+01  0.10566000000E+00 0.  1.
         14    1    4    4    0    0  0.14290394389E+02  0.71653331061E+01 -0.77392533567E+01  0.17761008216E+02  0.00000000000E+00 0. -1.
<mgrwt>
<rscale>  0 0.82563347E+02</rscale>
<asrwt>0</asrwt>
<pdfrwt beam="1">  1        2 0.30965921E-02 0.82563347E+02</pdfrwt>
<pdfrwt beam="2">  1       -1 0.13025784E-01 0.82563347E+02</pdfrwt>
<totfact> 0.11352169E+05</totfact>
</mgrwt>
</event>
<event>
 8    1  0.1226832E-024  0.7942370E+02  0.7818608E-02  0.1330695E+00
          2   -1    0    0  501    0  0.00000000000E+00  0.00000000000E+00  0.24547510685E+03  0.24547510686E+03  0.25500000000E-02 0. -1.
         -1   -1    0    0    0  501 -0.00000000000E+00 -0.00000000000E+00 -0.64244027334E+01  0.64244047104E+01  0.50400000000E-02 0.  1.
         24    2    1    2    0    0 -0.17763568394E-14  0.71054273576E-14  0.23905070412E+03  0.25189951157E+03  0.79423704223E+02 0.  0.
         66    2    3    3    0    0 -0.87400193299E+01 -0.34594666787E+02  0.64498487201E+02  0.73737600655E+02  0.19999977975E+01 0.  0.
        -13    1    3    3    0    0  0.87400193299E+01  0.34594666787E+02  0.17455221692E+03  0.17816191092E+03  0.10566000000E+00 0.  1.
         13    1    4    4    0    0 -0.34976576623E+01 -0.14299492033E+02  0.25161626305E+02  0.29151804128E+02  0.10566000000E+00 0. -1.
        -13    1    4    4    0    0 -0.57865670691E+00 -0.20898800017E+01  0.47595045512E+01  0.52312990370E+01  0.10566000000E+00 0.  1.
        -14    1    4    4    0    0 -0.46637049607E+01 -0.18205294752E+02  0.34577356344E+02  0.39354497490E+02  0.00000000000E+00 0.  1.
<mgrwt>
<rscale>  0 0.79423704E+02</rscale>
<asrwt>0</asrwt>
<pdfrwt beam="1">  1        2 0.37765399E-01 0.79423704E+02</pdfrwt>
<pdfrwt beam="2">  1       -1 0.98836987E-03 0.79423704E+02</pdfrwt>
<totfact> 0.24167828E+05</totfact>
</mgrwt>
</event>
<event>
 8    1  0.1226832E-024  0.7991429E+02  0.7818608E-02  0.1329295E+00
          2   -1    0    0  501    0  0.00000000000E+00  0.00000000000E+00  0.14615179250E+03  0.14615179252E+03  0.25500000000E-02 0. -1.
         -1   -1    0    0    0  501 -0.00000000000E+00 -0.00000000000E+00 -0.10924076866E+02  0.10924078028E+02  0.50400000000E-02 0.  1.
         24    2    1    2    0    0 -0.71054273576E-14  0.00000000000E+00  0.13522771564E+03  0.15707587055E+03  0.79914291798E+02 0.  0.
         66    2    3    3    0    0  0.36375338247E+02  0.26990044076E+01  0.99599742615E+02  0.10608750440E+03  0.20000008200E+01 0.  0.
        -13    1    3    3    0    0 -0.36375338247E+02 -0.26990044076E+01  0.35627973022E+02  0.50988366154E+02  0.10566000000E+00 0.  1.
         13    1    4    4    0    0  0.10560831046E+02  0.35559099060E+00  0.29147479873E+02  0.31003940787E+02  0.10566000000E+00 0. -1.
        -13    1    4    4    0    0  0.21770677901E+02  0.15166001425E+01  0.60016223362E+02  0.63860948341E+02  0.10566000000E+00 0.  1.
        -14    1    4    4    0    0  0.40438292996E+01  0.82681327454E+00  0.10436039380E+02  0.11222615272E+02  0.00000000000E+00 0.  1.
<mgrwt>
<rscale>  0 0.79914292E+02</rscale>
<asrwt>0</asrwt>
<pdfrwt beam="1">  1        2 0.22484890E-01 0.79914292E+02</pdfrwt>
<pdfrwt beam="2">  1       -1 0.16806274E-02 0.79914292E+02</pdfrwt>
<totfact> 0.19920224E+05</totfact>
</mgrwt>
</event>
<event>
 8    1  0.1226832E-024  0.8090733E+02  0.7818608E-02  0.1326496E+00
         -1   -1    0    0    0  501 -0.00000000000E+00  0.00000000000E+00  0.10787324625E+01  0.10787442363E+01  0.50400000000E-02 0.  1.
          2   -1    0    0  501    0  0.00000000000E+00 -0.00000000000E+00 -0.15170491761E+04  0.15170491761E+04  0.25500000000E-02 0. -1.
         24    2    1    2    0    0 -0.35527136788E-14  0.44408920985E-15 -0.15159704436E+04  0.15181279203E+04  0.80907332971E+02 0.  0.
         66    2    3    3    0    0 -0.15163744944E+02  0.36487741254E+01 -0.14583241263E+04  0.14584088967E+04  0.20000036190E+01 0.  0.
        -13    1    3    3    0    0  0.15163744944E+02 -0.36487741254E+01 -0.57646317296E+02  0.59719023562E+02  0.10566000000E+00 0.  1.
         13    1    4    4    0    0 -0.12515050790E+02  0.28861969441E+01 -0.11885610111E+04  0.11886304072E+04  0.10566000000E+00 0. -1.
        -13    1    4    4    0    0 -0.52587818167E+00  0.48482289184E+00 -0.81282792207E+02  0.81286007862E+02  0.10566000000E+00 0.  1.
         14    1    4    4    0    0 -0.21228159724E+01  0.27775428940E+00 -0.18848032297E+03  0.18849248166E+03  0.00000000000E+00 0. -1.
<mgrwt>
<rscale>  0 0.80907333E+02</rscale>
<asrwt>0</asrwt>
<pdfrwt beam="1">  1        2 0.23339047E+00 0.80907333E+02</pdfrwt>
<pdfrwt beam="2">  1       -1 0.16596096E-03 0.80907333E+02</pdfrwt>
<totfact> 0.32150393E+05</totfact>
</mgrwt>
</event>
<event>
 8    1  0.1226832E-024  0.8359529E+02  0.7818608E-02  0.1319147E+00
         -1   -1    0    0    0  501 -0.00000000000E+00  0.00000000000E+00  0.12550136821E+01  0.12550238021E+01  0.50400000000E-02 0.  1.
          2   -1    0    0  501    0  0.00000000000E+00 -0.00000000000E+00 -0.13920455418E+04  0.13920455418E+04  0.25500000000E-02 0. -1.
         24    2    1    2    0    0  0.00000000000E+00  0.35527136788E-14 -0.13907905282E+04  0.13933005656E+04  0.83595292996E+02 0.  0.
         66    2    3    3    0    0 -0.89301493253E+01 -0.20027769212E+02 -0.12883999049E+04  0.12885880545E+04  0.20000004245E+01 0.  0.
        -13    1    3    3    0    0  0.89301493253E+01  0.20027769212E+02 -0.10239062321E+03  0.10471251116E+03  0.10566000000E+00 0.  1.
         13    1    4    4    0    0 -0.60314455481E+01 -0.15090617934E+02 -0.93126807963E+03  0.93140987347E+03  0.10566000000E+00 0. -1.
        -13    1    4    4    0    0 -0.21456476101E+01 -0.40907157726E+01 -0.28425213601E+03  0.28428968632E+03  0.10566000000E+00 0.  1.
         14    1    4    4    0    0 -0.75305616713E+00 -0.84643550621E+00 -0.72879689307E+02  0.72888494703E+02  0.00000000000E+00 0. -1.
<mgrwt>
<rscale>  0 0.83595293E+02</rscale>
<asrwt>0</asrwt>
<pdfrwt beam="1">  1        2 0.21415962E+00 0.83595293E+02</pdfrwt>
<pdfrwt beam="2">  1       -1 0.19308092E-03 0.83595293E+02</pdfrwt>
<totfact> 0.30383131E+05</totfact>
</mgrwt>
</event>
<event>
 8    1  0.1226832E-024  0.7817742E+02  0.7818608E-02  0.1334305E+00
          2   -1    0    0  501    0  0.00000000000E+00  0.00000000000E+00  0.10665468322E+03  0.10665468325E+03  0.25500000000E-02 0. -1.
         -1   -1    0    0    0  501 -0.00000000000E+00 -0.00000000000E+00 -0.14325925442E+02  0.14325926329E+02  0.50400000000E-02 0.  1.
         24    2    1    2    0    0  0.00000000000E+00  0.00000000000E+00  0.92328757781E+02  0.12098060958E+03  0.78177416059E+02 0.  0.
         66    2    3    3    0    0  0.14851017105E+02 -0.19497068959E+02  0.93266241672E+02  0.96453513401E+02  0.20000011867E+01 0.  0.
        -13    1    3    3    0    0 -0.14851017105E+02  0.19497068959E+02 -0.93748389085E+00  0.24527096182E+02  0.10566000000E+00 0.  1.
         13    1    4    4    0    0  0.62202462982E+01 -0.89776506708E+01  0.41423488756E+02  0.42839307421E+02  0.10566000000E+00 0.  1.
        -13    1    4    4    0    0  0.86062481170E+01 -0.10291976213E+02  0.50485691954E+02  0.52237998977E+02  0.10566000000E+00 0. -1.
        -14    1    4    4    0    0  0.24522690038E-01 -0.22744207488E+00  0.13570609622E+01  0.13762070029E+01  0.00000000000E+00 0.  1.
<mgrwt>
<rscale>  0 0.78177416E+02</rscale>
<asrwt>0</asrwt>
<pdfrwt beam="1">  1        2 0.16408413E-01 0.78177416E+02</pdfrwt>
<pdfrwt beam="2">  1       -1 0.22039886E-02 0.78177416E+02</pdfrwt>
<totfact> 0.19198419E+05</totfact>
</mgrwt>
</event>
<event>
 8    1  0.1226832E-024  0.8243031E+02  0.7818608E-02  0.1322293E+00
          2   -1    0    0  501    0  0.00000000000E+00  0.00000000000E+00  0.95364280376E+01  0.95364283785E+01  0.25500000000E-02 0. -1.
         -1   -1    0    0    0  501 -0.00000000000E+00 -0.00000000000E+00 -0.17812634370E+03  0.17812634377E+03  0.50400000000E-02 0.  1.
         24    2    1    2    0    0  0.00000000000E+00  0.71054273576E-14 -0.16858991567E+03  0.18766277215E+03  0.82430312313E+02 0.  0.
         66    2    3    3    0    0 -0.23056818206E+02 -0.34133076427E+02 -0.84303381588E+02  0.93849581380E+02  0.20000014662E+01 0.  0.
        -13    1    3    3    0    0  0.23056818206E+02  0.34133076427E+02 -0.84286534078E+02  0.93813190774E+02  0.10566000000E+00 0.  1.
         13    1    4    4    0    0 -0.54882601971E+01 -0.73250216303E+01 -0.19603216115E+02  0.21635022255E+02  0.10566000000E+00 0. -1.
        -13    1    4    4    0    0 -0.71500364119E+01 -0.11758247603E+02 -0.28631526559E+02  0.31767198248E+02  0.10566000000E+00 0.  1.
         14    1    4    4    0    0 -0.10418521597E+02 -0.15049807194E+02 -0.36068638914E+02  0.40447360877E+02  0.00000000000E+00 0. -1.
<mgrwt>
<rscale>  0 0.82430312E+02</rscale>
<asrwt>0</asrwt>
<pdfrwt beam="1">  1        2 0.14671429E-02 0.82430312E+02</pdfrwt>
<pdfrwt beam="2">  1       -1 0.27404051E-01 0.82430312E+02</pdfrwt>
<totfact> 0.95486576E+04</totfact>
</mgrwt>
</event>
<event>
 8    1  0.1226832E-024  0.7845789E+02  0.7818608E-02  0.1333486E+00
          2   -1    0    0  501    0  0.00000000000E+00  0.00000000000E+00  0.12171019137E+04  0.12171019137E+04  0.25500000000E-02 0. -1.
         -1   -1    0    0    0  501 -0.00000000000E+00 -0.00000000000E+00 -0.12644002628E+01  0.12644103077E+01  0.50400000000E-02 0.  1.
         24    2    1    2    0    0 -0.17763568394E-14 -0.17763568394E-14  0.12158375134E+04  0.12183663240E+04  0.78457889350E+02 0.  0.
         66    2    3    3    0    0  0.94847317665E+01  0.97421318567E+01  0.11793117242E+04  0.11793917975E+04  0.20000013396E+01 0.  0.
        -13    1    3    3    0    0 -0.94847317665E+01 -0.97421318567E+01  0.36525789204E+02  0.38974526435E+02  0.10566000000E+00 0.  1.
         13    1    4    4    0    0  0.47717950964E+01  0.55097039461E+01  0.58636930980E+03  0.58641461911E+03  0.10566000000E+00 0. -1.
        -13    1    4    4    0    0  0.45073039763E+01  0.36484295871E+01  0.53985025667E+03  0.53988141069E+03  0.10566000000E+00 0.  1.
        -14    1    4    4    0    0  0.20563269383E+00  0.58399832348E+00  0.53092157722E+02  0.53095767726E+02  0.00000000000E+00 0.  1.
<mgrwt>
<rscale>  0 0.78457889E+02</rscale>
<asrwt>0</asrwt>
<pdfrwt beam="1">  1        2 0.18724527E+00 0.78457889E+02</pdfrwt>
<pdfrwt beam="2">  1       -1 0.19452511E-03 0.78457889E+02</pdfrwt>
<totfact> 0.36791366E+05</totfact>
</mgrwt>
</event>
<event>
 8    1  0.1226832E-024  0.8012774E+02  0.7818608E-02  0.1328689E+00
          2   -1    0    0  501    0  0.00000000000E+00  0.00000000000E+00  0.51869044734E+03  0.51869044734E+03  0.25500000000E-02 0. -1.
         -1   -1    0    0    0  501 -0.00000000000E+00 -0.00000000000E+00 -0.30945480527E+01  0.30945521569E+01  0.50400000000E-02 0.  1.
         24    2    1    2    0    0 -0.17763568394E-14  0.71054273576E-14  0.51559589929E+03  0.52178499950E+03  0.80127737673E+02 0.  0.
         66    2    3    3    0    0 -0.94377758095E+01  0.37991152291E+02  0.31271605940E+03  0.31516302617E+03  0.19999993880E+01 0.  0.
        -13    1    3    3    0    0  0.94377758095E+01 -0.37991152291E+02  0.20287983989E+03  0.20662197333E+03  0.10566000000E+00 0.  1.
         13    1    4    4    0    0 -0.67229799573E+01  0.25278741582E+02  0.20405213574E+03  0.20572189602E+03  0.10566000000E+00 0. -1.
        -13    1    4    4    0    0 -0.26115447599E+01  0.11441494244E+02  0.96790991034E+02  0.97499923415E+02  0.10566000000E+00 0.  1.
         14    1    4    4    0    0 -0.10325109228E+00  0.12709164650E+01  0.11872932623E+02  0.11941206745E+02  0.00000000000E+00 0. -1.
<mgrwt>
<rscale>  0 0.80127738E+02</rscale>
<asrwt>0</asrwt>
<pdfrwt beam="1">  1        2 0.79798560E-01 0.80127738E+02</pdfrwt>
<pdfrwt beam="2">  1       -1 0.47608446E-03 0.80127738E+02</pdfrwt>
<totfact> 0.30677853E+05</totfact>
</mgrwt>
</event>
<event>
 8    1  0.1226832E-024  0.7998423E+02  0.7818608E-02  0.1329096E+00
          2   -1    0    0  501    0  0.00000000000E+00  0.00000000000E+00  0.50585263600E+03  0.50585263601E+03  0.25500000000E-02 0. -1.
         -1   -1    0    0    0  501 -0.00000000000E+00 -0.00000000000E+00 -0.31617274577E+01  0.31617314748E+01  0.50400000000E-02 0.  1.
         24    2    1    2    0    0 -0.35527136788E-14  0.00000000000E+00  0.50269090855E+03  0.50901436748E+03  0.79984228266E+02 0.  0.
         66    2    3    3    0    0  0.27411697681E+02  0.11350076397E+02  0.42192481329E+03  0.42297136248E+03  0.20000002239E+01 0.  0.
        -13    1    3    3    0    0 -0.27411697681E+02 -0.11350076397E+02  0.80766095251E+02  0.86043005004E+02  0.10566000000E+00 0.  1.
         13    1    4    4    0    0  0.11324359553E+02  0.50683228169E+01  0.16882253627E+03  0.16927784536E+03  0.10566000000E+00 0. -1.
        -13    1    4    4    0    0  0.51314807473E+01  0.15109949253E+01  0.74313563417E+02  0.74505919711E+02  0.10566000000E+00 0.  1.
        -14    1    4    4    0    0  0.10955857381E+02  0.47707586552E+01  0.17878871361E+03  0.17918759740E+03  0.00000000000E+00 0.  1.
<mgrwt>
<rscale>  0 0.79984228E+02</rscale>
<asrwt>0</asrwt>
<pdfrwt beam="1">  1        2 0.77823442E-01 0.79984228E+02</pdfrwt>
<pdfrwt beam="2">  1       -1 0.48642017E-03 0.79984228E+02</pdfrwt>
<totfact> 0.30579791E+05</totfact>
</mgrwt>
</event>
<event>
 8    1  0.1226832E-024  0.7917687E+02  0.7818608E-02  0.1331404E+00
          2   -1    0    0  501    0  0.00000000000E+00  0.00000000000E+00  0.27420606592E+03  0.27420606593E+03  0.25500000000E-02 0. -1.
         -1   -1    0    0    0  501 -0.00000000000E+00 -0.00000000000E+00 -0.57155695053E+01  0.57155717274E+01  0.50400000000E-02 0.  1.
         24    2    1    2    0    0  0.11102230246E-15  0.00000000000E+00  0.26849049641E+03  0.27992163766E+03  0.79176868875E+02 0.  0.
         66    2    3    3    0    0 -0.44722251696E+00  0.37959911048E+02  0.17371256285E+03  0.17782353430E+03  0.20000010487E+01 0.  0.
        -13    1    3    3    0    0  0.44722251696E+00 -0.37959911048E+02  0.94777933561E+02  0.10209810336E+03  0.10566000000E+00 0.  1.
         13    1    4    4    0    0  0.33021641212E+00  0.71352784414E+01  0.34048763143E+02  0.34790094523E+02  0.10566000000E+00 0. -1.
        -13    1    4    4    0    0 -0.57240846097E+00  0.18758834178E+02  0.81972034855E+02  0.84093086360E+02  0.10566000000E+00 0.  1.
        -14    1    4    4    0    0 -0.20503046811E+00  0.12065798428E+02  0.57691764854E+02  0.58940353419E+02  0.00000000000E+00 0.  1.
<mgrwt>
<rscale>  0 0.79176869E+02</rscale>
<asrwt>0</asrwt>
<pdfrwt beam="1">  1        2 0.42185532E-01 0.79176869E+02</pdfrwt>
<pdfrwt beam="2">  1       -1 0.87931891E-03 0.79176869E+02</pdfrwt>
<totfact> 0.25356391E+05</totfact>
</mgrwt>
</event>
<event>
 8    1  0.1226832E-024  0.7090171E+02  0.7818608E-02  0.1357053E+00
          2   -1    0    0  501    0  0.00000000000E+00  0.00000000000E+00  0.17193604066E+03  0.17193604068E+03  0.25500000000E-02 0. -1.
         -1   -1    0    0    0  501 -0.00000000000E+00 -0.00000000000E+00 -0.73094803981E+01  0.73094821357E+01  0.50400000000E-02 0.  1.
         24    2    1    2    0    0 -0.35527136788E-14  0.00000000000E+00  0.16462656026E+03  0.17924552281E+03  0.70901714404E+02 0.  0.
         66    2    3    3    0    0 -0.27966808709E+02  0.93247125849E+01  0.32731118421E+02  0.44095563893E+02  0.19999969409E+01 0.  0.
        -13    1    3    3    0    0  0.27966808709E+02 -0.93247125849E+01  0.13189544184E+03  0.13514995892E+03  0.10566000000E+00 0.  1.
         13    1    4    4    0    0 -0.10593012495E+02  0.31430355738E+01  0.12392781583E+02  0.16603697954E+02  0.10566000000E+00 0. -1.
        -13    1    4    4    0    0 -0.76550051297E+01  0.29583253810E+01  0.80451193007E+01  0.11492863055E+02  0.10566000000E+00 0.  1.
        -14    1    4    4    0    0 -0.97187910841E+01  0.32233516301E+01  0.12293217538E+02  0.15999002884E+02  0.00000000000E+00 0.  1.
<mgrwt>
<rscale>  0 0.70901714E+02</rscale>
<asrwt>0</asrwt>
<pdfrwt beam="1">  1        2 0.26451697E-01 0.70901714E+02</pdfrwt>
<pdfrwt beam="2">  1       -1 0.11245357E-02 0.70901714E+02</pdfrwt>
<totfact> 0.28766373E+05</totfact>
</mgrwt>
</event>
<event>
 8    1  0.1226832E-024  0.8412715E+02  0.7818608E-02  0.1317731E+00
         -1   -1    0    0    0  501 -0.00000000000E+00  0.00000000000E+00  0.14335290000E+02  0.14335290886E+02  0.50400000000E-02 0.  1.
          2   -1    0    0  501    0  0.00000000000E+00 -0.00000000000E+00 -0.12342576790E+03  0.12342576793E+03  0.25500000000E-02 0. -1.
         24    2    1    2    0    0  0.17763568394E-14 -0.71054273576E-14 -0.10909047790E+03  0.13776105881E+03  0.84127147560E+02 0.  0.
         66    2    3    3    0    0 -0.96551097980E+01  0.39395607970E+02 -0.72670852787E+02  0.83248350845E+02  0.20000002708E+01 0.  0.
        -13    1    3    3    0    0  0.96551097980E+01 -0.39395607970E+02 -0.36419625113E+02  0.54512707967E+02  0.10566000000E+00 0.  1.
         13    1    4    4    0    0 -0.44427242837E+01  0.18168848352E+02 -0.33373355778E+02  0.38257507621E+02  0.10566000000E+00 0. -1.
        -13    1    4    4    0    0 -0.39149092737E+01  0.15865108064E+02 -0.28036276073E+02  0.32451072534E+02  0.10566000000E+00 0.  1.
         14    1    4    4    0    0 -0.12974762406E+01  0.53616515536E+01 -0.11261220936E+02  0.12539770690E+02  0.00000000000E+00 0. -1.
<mgrwt>
<rscale>  0 0.84127148E+02</rscale>
<asrwt>0</asrwt>
<pdfrwt beam="1">  1        2 0.18988579E-01 0.84127148E+02</pdfrwt>
<pdfrwt beam="2">  1       -1 0.22054294E-02 0.84127148E+02</pdfrwt>
<totfact> 0.16474761E+05</totfact>
</mgrwt>
</event>
<event>
 8    1  0.1226832E-024  0.8122993E+02  0.7818608E-02  0.1325597E+00
         -1   -1    0    0    0  501 -0.00000000000E+00  0.00000000000E+00  0.45861153460E+02  0.45861153737E+02  0.50400000000E-02 0.  1.
          2   -1    0    0  501    0  0.00000000000E+00 -0.00000000000E+00 -0.35968898842E+02  0.35968898933E+02  0.25500000000E-02 0. -1.
         24    2    1    2    0    0  0.00000000000E+00  0.35527136788E-14  0.98922546172E+01  0.81830052669E+02  0.81229925634E+02 0.  0.
         66    2    3    3    0    0  0.24582081618E+02 -0.30906179168E+02 -0.45063645341E+01  0.39796708228E+02  0.20000042493E+01 0.  0.
        -13    1    3    3    0    0 -0.24582081618E+02  0.30906179168E+02  0.14398619151E+02  0.42033344442E+02  0.10566000000E+00 0.  1.
         13    1    4    4    0    0  0.60222785500E+01 -0.67898487810E+01 -0.75004032029E+00  0.91073382456E+01  0.10566000000E+00 0. -1.
        -13    1    4    4    0    0  0.13001620832E+02 -0.16920386195E+02 -0.20407283995E+01  0.21436355793E+02  0.10566000000E+00 0. -1.
        -14    1    4    4    0    0  0.55581822361E+01 -0.71959441921E+01 -0.17155958144E+01  0.92530141891E+01  0.00000000000E+00 0.  1.
<mgrwt>
<rscale>  0 0.81229926E+02</rscale>
<asrwt>0</asrwt>
<pdfrwt beam="1">  1        2 0.55336767E-02 0.81229926E+02</pdfrwt>
<pdfrwt beam="2">  1       -1 0.70555621E-02 0.81229926E+02</pdfrwt>
<totfact> 0.13370808E+05</totfact>
</mgrwt>
</event>
<event>
 8    1  0.1226832E-024  0.7944892E+02  0.7818608E-02  0.1330623E+00
          2   -1    0    0  501    0  0.00000000000E+00  0.00000000000E+00  0.47151493349E+03  0.47151493350E+03  0.25500000000E-02 0. -1.
         -1   -1    0    0    0  501 -0.00000000000E+00 -0.00000000000E+00 -0.33467267311E+01  0.33467305261E+01  0.50400000000E-02 0.  1.
         24    2    1    2    0    0  0.00000000000E+00  0.00000000000E+00  0.46816820676E+03  0.47486166402E+03  0.79448915278E+02 0.  0.
         66    2    3    3    0    0 -0.22175810712E+02  0.28140488235E+02  0.33643145466E+03  0.33833973657E+03  0.19999990821E+01 0.  0.
        -13    1    3    3    0    0  0.22175810712E+02 -0.28140488235E+02  0.13173675210E+03  0.13652192745E+03  0.10566000000E+00 0.  1.
         13    1    4    4    0    0 -0.26001750984E+01  0.27694148071E+01  0.38905898943E+02  0.39091056592E+02  0.10566000000E+00 0. -1.
        -13    1    4    4    0    0 -0.18871841248E+02  0.24053562838E+02  0.28392968860E+03  0.28557100608E+03  0.10566000000E+00 0.  1.
        -14    1    4    4    0    0 -0.70379436494E+00  0.13175105901E+01  0.13595867115E+02  0.13677673898E+02  0.00000000000E+00 0.  1.
<mgrwt>
<rscale>  0 0.79448915E+02</rscale>
<asrwt>0</asrwt>
<pdfrwt beam="1">  1        2 0.72540692E-01 0.79448915E+02</pdfrwt>
<pdfrwt beam="2">  1       -1 0.51488180E-03 0.79448915E+02</pdfrwt>
<totfact> 0.30421754E+05</totfact>
</mgrwt>
</event>
<event>
 8    1  0.1226832E-024  0.8024877E+02  0.7818608E-02  0.1328347E+00
         -1   -1    0    0    0  501 -0.00000000000E+00  0.00000000000E+00  0.22313231770E+02  0.22313232340E+02  0.50400000000E-02 0.  1.
          2   -1    0    0  501    0  0.00000000000E+00 -0.00000000000E+00 -0.72152975832E+02  0.72152975877E+02  0.25500000000E-02 0. -1.
         24    2    1    2    0    0  0.35527136788E-14 -0.71054273576E-14 -0.49839744061E+02  0.94466208216E+02  0.80248765764E+02 0.  0.
         66    2    3    3    0    0 -0.22575319412E+02 -0.32273131360E+02 -0.33804078939E+02  0.51941465133E+02  0.19999982282E+01 0.  0.
        -13    1    3    3    0    0  0.22575319412E+02  0.32273131360E+02 -0.16035665122E+02  0.42524743083E+02  0.10566000000E+00 0.  1.
         13    1    4    4    0    0 -0.11711826726E+02 -0.17665467174E+02 -0.17315456779E+02  0.27369176517E+02  0.10566000000E+00 0. -1.
        -13    1    4    4    0    0 -0.20659662820E+01 -0.25913604670E+01 -0.26881609777E+01  0.42685757842E+01  0.10566000000E+00 0.  1.
        -14    1    4    4    0    0 -0.87975264038E+01 -0.12016303720E+02 -0.13800461182E+02  0.20303712832E+02  0.00000000000E+00 0.  1.
<mgrwt>
<rscale>  0 0.80248766E+02</rscale>
<asrwt>0</asrwt>
<pdfrwt beam="1">  1        2 0.11100458E-01 0.80248766E+02</pdfrwt>
<pdfrwt beam="2">  1       -1 0.34328050E-02 0.80248766E+02</pdfrwt>
<totfact> 0.16131046E+05</totfact>
</mgrwt>
</event>
<event>
 8    1  0.1226832E-024  0.7936918E+02  0.7818608E-02  0.1330851E+00
         -1   -1    0    0    0  501 -0.00000000000E+00  0.00000000000E+00  0.54730593918E+02  0.54730594150E+02  0.50400000000E-02 0.  1.
          2   -1    0    0  501    0  0.00000000000E+00 -0.00000000000E+00 -0.28774888202E+02  0.28774888315E+02  0.25500000000E-02 0. -1.
         24    2    1    2    0    0  0.55511151231E-16  0.00000000000E+00  0.25955705716E+02  0.83505482465E+02  0.79369181315E+02 0.  0.
         66    2    3    3    0    0  0.16525197468E+00 -0.27233681396E+02 -0.17346253620E+02  0.32351093045E+02  0.19999989935E+01 0.  0.
        -13    1    3    3    0    0 -0.16525197468E+00  0.27233681396E+02  0.43301959336E+02  0.51154389420E+02  0.10566000000E+00 0.  1.
         13    1    4    4    0    0 -0.10868243161E+00 -0.10282825695E+02 -0.60538940558E+01  0.11933528959E+02  0.10566000000E+00 0. -1.
        -13    1    4    4    0    0 -0.36333950186E+00 -0.74368185277E+01 -0.43649298955E+01  0.86314577237E+01  0.10566000000E+00 0.  1.
        -14    1    4    4    0    0  0.63727390815E+00 -0.95140371729E+01 -0.69274296685E+01  0.11786106362E+02  0.00000000000E+00 0.  1.
<mgrwt>
<rscale>  0 0.79369181E+02</rscale>
<asrwt>0</asrwt>
<pdfrwt beam="1">  1        2 0.44269059E-02 0.79369181E+02</pdfrwt>
<pdfrwt beam="2">  1       -1 0.84200914E-02 0.79369181E+02</pdfrwt>
<totfact> 0.13644945E+05</totfact>
</mgrwt>
</event>
<event>
 8    1  0.1226832E-024  0.8046435E+02  0.7818608E-02  0.1327739E+00
         -1   -1    0    0    0  501 -0.00000000000E+00  0.00000000000E+00  0.20131932776E+01  0.20131995863E+01  0.50400000000E-02 0.  1.
          2   -1    0    0  501    0  0.00000000000E+00 -0.00000000000E+00 -0.80400897067E+03  0.80400897068E+03  0.25500000000E-02 0. -1.
         24    2    1    2    0    0  0.00000000000E+00  0.17763568394E-14 -0.80199577740E+03  0.80602217026E+03  0.80464352331E+02 0.  0.
         66    2    3    3    0    0 -0.12662521827E+02 -0.90256684558E+01 -0.77266599868E+03  0.77282504338E+03  0.20000002612E+01 0.  0.
        -13    1    3    3    0    0  0.12662521827E+02  0.90256684558E+01 -0.29329778713E+02  0.33197126886E+02  0.10566000000E+00 0.  1.
         13    1    4    4    0    0 -0.48087311736E+01 -0.32805717239E+01 -0.30284994413E+03  0.30290590266E+03  0.10566000000E+00 0. -1.
        -13    1    4    4    0    0 -0.48058870446E+01 -0.43028203906E+01 -0.32212885209E+03  0.32219345016E+03  0.10566000000E+00 0.  1.
         14    1    4    4    0    0 -0.30479036092E+01 -0.14422763413E+01 -0.14768720246E+03  0.14772569055E+03  0.00000000000E+00 0. -1.
<mgrwt>
<rscale>  0 0.80464352E+02</rscale>
<asrwt>0</asrwt>
<pdfrwt beam="1">  1        2 0.12369343E+00 0.80464352E+02</pdfrwt>
<pdfrwt beam="2">  1       -1 0.30972317E-03 0.80464352E+02</pdfrwt>
<totfact> 0.33881695E+05</totfact>
</mgrwt>
</event>
<event>
 8    1  0.1226832E-024  0.8135796E+02  0.7818608E-02  0.1325241E+00
          2   -1    0    0  501    0  0.00000000000E+00  0.00000000000E+00  0.42604698339E+02  0.42604698415E+02  0.25500000000E-02 0. -1.
         -1   -1    0    0    0  501 -0.00000000000E+00 -0.00000000000E+00 -0.38840302082E+02  0.38840302409E+02  0.50400000000E-02 0.  1.
         24    2    1    2    0    0  0.00000000000E+00 -0.17763568394E-14  0.37643962572E+01  0.81445000824E+02  0.81357958923E+02 0.  0.
         66    2    3    3    0    0 -0.23582089779E+02  0.95126261905E+01  0.33637441687E+02  0.42214718864E+02  0.19999975488E+01 0.  0.
        -13    1    3    3    0    0  0.23582089779E+02 -0.95126261905E+01 -0.29873045430E+02  0.39230281960E+02  0.10566000000E+00 0.  1.
         13    1    4    4    0    0 -0.12236392445E+02  0.59246683185E+01  0.18342634435E+02  0.22831872390E+02  0.10566000000E+00 0. -1.
        -13    1    4    4    0    0 -0.39656474818E+01  0.13080850421E+01  0.50989056094E+01  0.65914678848E+01  0.10566000000E+00 0.  1.
         14    1    4    4    0    0 -0.73800498518E+01  0.22798728299E+01  0.10195901642E+02  0.12791378590E+02  0.00000000000E+00 0. -1.
<mgrwt>
<rscale>  0 0.81357959E+02</rscale>
<asrwt>0</asrwt>
<pdfrwt beam="1">  1        2 0.65545690E-02 0.81357959E+02</pdfrwt>
<pdfrwt beam="2">  1       -1 0.59754311E-02 0.81357959E+02</pdfrwt>
<totfact> 0.13786841E+05</totfact>
</mgrwt>
</event>
<event>
 8    1  0.1226832E-024  0.8014285E+02  0.7818608E-02  0.1328647E+00
         -1   -1    0    0    0  501 -0.00000000000E+00  0.00000000000E+00  0.18782629628E+03  0.18782629635E+03  0.50400000000E-02 0.  1.
          2   -1    0    0  501    0  0.00000000000E+00 -0.00000000000E+00 -0.85489572779E+01  0.85489576582E+01  0.25500000000E-02 0. -1.
         24    2    1    2    0    0  0.00000000000E+00  0.88817841970E-15  0.17927733900E+03  0.19637525401E+03  0.80142848129E+02 0.  0.
         66    2    3    3    0    0  0.38440948830E+02  0.50429546922E+01  0.65120701608E+02  0.75814535012E+02  0.20000005814E+01 0.  0.
        -13    1    3    3    0    0 -0.38440948830E+02 -0.50429546922E+01  0.11415663739E+03  0.12056071899E+03  0.10566000000E+00 0.  1.
         13    1    4    4    0    0  0.62130377388E+01  0.63295929581E+00  0.10042016818E+02  0.11826061949E+02  0.10566000000E+00 0. -1.
        -13    1    4    4    0    0  0.21516645720E+02  0.25828385468E+01  0.38035399894E+02  0.43776019773E+02  0.10566000000E+00 0.  1.
        -14    1    4    4    0    0  0.10711265371E+02  0.18271568496E+01  0.17043284896E+02  0.20212453291E+02  0.00000000000E+00 0.  1.
<mgrwt>
<rscale>  0 0.80142848E+02</rscale>
<asrwt>0</asrwt>
<pdfrwt beam="1">  1        2 0.13152242E-02 0.80142848E+02</pdfrwt>
<pdfrwt beam="2">  1       -1 0.28896354E-01 0.80142848E+02</pdfrwt>
<totfact> 0.10101753E+05</totfact>
</mgrwt>
</event>
<event>
 8    1  0.1226832E-024  0.7851026E+02  0.7818608E-02  0.1333333E+00
          2   -1    0    0  501    0  0.00000000000E+00  0.00000000000E+00  0.31637470962E+03  0.31637470963E+03  0.25500000000E-02 0. -1.
         -1   -1    0    0    0  501 -0.00000000000E+00 -0.00000000000E+00 -0.48706948212E+01  0.48706974288E+01  0.50400000000E-02 0.  1.
         24    2    1    2    0    0 -0.35527136788E-14  0.00000000000E+00  0.31150401480E+03  0.32124540706E+03  0.78510256150E+02 0.  0.
         66    2    3    3    0    0  0.31110265175E+02 -0.23468928304E+02  0.17429795545E+03  0.17861247579E+03  0.20000101494E+01 0.  0.
        -13    1    3    3    0    0 -0.31110265175E+02  0.23468928304E+02  0.13720605935E+03  0.14263293127E+03  0.10566000000E+00 0.  1.
         13    1    4    4    0    0  0.12254676310E+02 -0.87724246821E+01  0.65660062725E+02  0.67367555450E+02  0.10566000000E+00 0. -1.
        -13    1    4    4    0    0  0.42318208750E+01 -0.39610792770E+01  0.25464971662E+02  0.26116554190E+02  0.10566000000E+00 0.  1.
        -14    1    4    4    0    0  0.14623767989E+02 -0.10735424344E+02  0.83172921062E+02  0.85128366154E+02  0.00000000000E+00 0.  1.
<mgrwt>
<rscale>  0 0.78510256E+02</rscale>
<asrwt>0</asrwt>
<pdfrwt beam="1">  1        2 0.48673031E-01 0.78510256E+02</pdfrwt>
<pdfrwt beam="2">  1       -1 0.74933789E-03 0.78510256E+02</pdfrwt>
<totfact> 0.27299846E+05</totfact>
</mgrwt>
</event>
<event>
 8    1  0.1226832E-024  0.7588970E+02  0.7818608E-02  0.1341138E+00
         -1   -1    0    0    0  501 -0.00000000000E+00  0.00000000000E+00  0.31979156877E+02  0.31979157274E+02  0.50400000000E-02 0.  1.
          2   -1    0    0  501    0  0.00000000000E+00 -0.00000000000E+00 -0.45023444972E+02  0.45023445044E+02  0.25500000000E-02 0. -1.
         24    2    1    2    0    0 -0.88817841970E-15 -0.35527136788E-14 -0.13044288095E+02  0.77002602319E+02  0.75889704914E+02 0.  0.
         66    2    3    3    0    0 -0.56716818442E+01  0.23670994308E+02 -0.36027467083E+02  0.43525421629E+02  0.19999992646E+01 0.  0.
        -13    1    3    3    0    0  0.56716818442E+01 -0.23670994308E+02  0.22983178988E+02  0.33477180690E+02  0.10566000000E+00 0.  1.
         13    1    4    4    0    0 -0.72927434618E+00  0.18723177284E+01 -0.26466224735E+01  0.33246337093E+01  0.10566000000E+00 0. -1.
        -13    1    4    4    0    0 -0.22396801050E+01  0.76185736181E+01 -0.10960580796E+02  0.13535299271E+02  0.10566000000E+00 0.  1.
         14    1    4    4    0    0 -0.27027273929E+01  0.14180102962E+02 -0.22420263814E+02  0.26665488648E+02  0.00000000000E+00 0. -1.
<mgrwt>
<rscale>  0 0.75889705E+02</rscale>
<asrwt>0</asrwt>
<pdfrwt beam="1">  1        2 0.69266838E-02 0.75889705E+02</pdfrwt>
<pdfrwt beam="2">  1       -1 0.49198704E-02 0.75889705E+02</pdfrwt>
<totfact> 0.16882651E+05</totfact>
</mgrwt>
</event>
<event>
 8    1  0.1226832E-024  0.7840461E+02  0.7818608E-02  0.1333641E+00
         -1   -1    0    0    0  501 -0.00000000000E+00  0.00000000000E+00  0.46641662962E+02  0.46641663235E+02  0.50400000000E-02 0.  1.
          2   -1    0    0  501    0  0.00000000000E+00 -0.00000000000E+00 -0.32949524746E+02  0.32949524845E+02  0.25500000000E-02 0. -1.
         24    2    1    2    0    0  0.00000000000E+00  0.00000000000E+00  0.13692138216E+02  0.79591188080E+02  0.78404608098E+02 0.  0.
         66    2    3    3    0    0  0.25727380477E+02  0.29339963459E+02  0.10379346548E+02  0.40428484972E+02  0.20000001066E+01 0.  0.
        -13    1    3    3    0    0 -0.25727380477E+02 -0.29339963459E+02  0.33127916685E+01  0.39162703107E+02  0.10566000000E+00 0.  1.
         13    1    4    4    0    0  0.14186315551E+02  0.16133149923E+02  0.50541590944E+01  0.22070019564E+02  0.10566000000E+00 0. -1.
        -13    1    4    4    0    0  0.70386580116E+01  0.77275352118E+01  0.36436705802E+01  0.11070004805E+02  0.10566000000E+00 0.  1.
        -14    1    4    4    0    0  0.45024069143E+01  0.54792783241E+01  0.16815168731E+01  0.72884606035E+01  0.00000000000E+00 0.  1.
<mgrwt>
<rscale>  0 0.78404608E+02</rscale>
<asrwt>0</asrwt>
<pdfrwt beam="1">  1        2 0.50691576E-02 0.78404608E+02</pdfrwt>
<pdfrwt beam="2">  1       -1 0.71756405E-02 0.78404608E+02</pdfrwt>
<totfact> 0.14498594E+05</totfact>
</mgrwt>
</event>
<event>
 8    1  0.1226832E-024  0.7858119E+02  0.7818608E-02  0.1333127E+00
         -1   -1    0    0    0  501 -0.00000000000E+00  0.00000000000E+00  0.87821444194E+02  0.87821444339E+02  0.50400000000E-02 0.  1.
          2   -1    0    0  501    0  0.00000000000E+00 -0.00000000000E+00 -0.17578290440E+02  0.17578290625E+02  0.25500000000E-02 0. -1.
         24    2    1    2    0    0  0.00000000000E+00  0.00000000000E+00  0.70243153754E+02  0.10539973496E+03  0.78581190378E+02 0.  0.
         66    2    3    3    0    0  0.34473925746E+02  0.14820976736E+02  0.50649479931E+02  0.63067287295E+02  0.20000004408E+01 0.  0.
        -13    1    3    3    0    0 -0.34473925746E+02 -0.14820976736E+02  0.19593673824E+02  0.42332447669E+02  0.10566000000E+00 0.  1.
         13    1    4    4    0    0  0.20480980259E+02  0.92561818149E+01  0.29659234281E+02  0.37213287900E+02  0.10566000000E+00 0. -1.
        -13    1    4    4    0    0  0.73808167991E+00  0.38084906712E+00  0.15363263603E+01  0.17496494790E+01  0.10566000000E+00 0.  1.
        -14    1    4    4    0    0  0.13254863807E+02  0.51839458542E+01  0.19453919289E+02  0.24104349916E+02  0.00000000000E+00 0.  1.
<mgrwt>
<rscale>  0 0.78581190E+02</rscale>
<asrwt>0</asrwt>
<pdfrwt beam="1">  1        2 0.27043524E-02 0.78581190E+02</pdfrwt>
<pdfrwt beam="2">  1       -1 0.13510991E-01 0.78581190E+02</pdfrwt>
<totfact> 0.12733670E+05</totfact>
</mgrwt>
</event>
<event>
 8    1  0.1226832E-024  0.7840134E+02  0.7818608E-02  0.1333650E+00
         -1   -1    0    0    0  501 -0.00000000000E+00  0.00000000000E+00  0.72890652964E+01  0.72890670388E+01  0.50400000000E-02 0.  1.
          2   -1    0    0  501    0  0.00000000000E+00 -0.00000000000E+00 -0.21082156922E+03  0.21082156923E+03  0.25500000000E-02 0. -1.
         24    2    1    2    0    0  0.00000000000E+00  0.35527136788E-14 -0.20353250392E+03  0.21811063627E+03  0.78401336101E+02 0.  0.
         66    2    3    3    0    0 -0.27515106852E+02  0.27544049767E+02 -0.11393681566E+03  0.12042156676E+03  0.19999990094E+01 0.  0.
        -13    1    3    3    0    0  0.27515106852E+02 -0.27544049767E+02 -0.89595688261E+02  0.97689069509E+02  0.10566000000E+00 0.  1.
         13    1    4    4    0    0 -0.57516960772E+01  0.62996545316E+01 -0.23691895981E+02  0.25181039578E+02  0.10566000000E+00 0. -1.
        -13    1    4    4    0    0 -0.20946259098E+01  0.15869029709E+01 -0.81421455765E+01  0.85563670659E+01  0.10566000000E+00 0.  1.
        -14    1    4    4    0    0 -0.19668784865E+02  0.19657492265E+02 -0.82102774102E+02  0.86684160119E+02  0.00000000000E+00 0.  1.
<mgrwt>
<rscale>  0 0.78401336E+02</rscale>
<asrwt>0</asrwt>
<pdfrwt beam="1">  1        2 0.32434083E-01 0.78401336E+02</pdfrwt>
<pdfrwt beam="2">  1       -1 0.11213950E-02 0.78401336E+02</pdfrwt>
<totfact> 0.23694611E+05</totfact>
</mgrwt>
</event>
<event>
 8    1  0.1226832E-024  0.7999019E+02  0.7818608E-02  0.1329079E+00
         -1   -1    0    0    0  501 -0.00000000000E+00  0.00000000000E+00  0.16048347618E+02  0.16048348409E+02  0.50400000000E-02 0.  1.
          2   -1    0    0  501    0  0.00000000000E+00 -0.00000000000E+00 -0.99674279959E+02  0.99674279992E+02  0.25500000000E-02 0. -1.
         24    2    1    2    0    0  0.00000000000E+00  0.35527136788E-14 -0.83625932342E+02  0.11572262840E+03  0.79990187923E+02 0.  0.
         66    2    3    3    0    0  0.37231746839E+01 -0.29284592817E+02 -0.80823866965E+02  0.86069430587E+02  0.20000010384E+01 0.  0.
        -13    1    3    3    0    0 -0.37231746839E+01  0.29284592817E+02 -0.28020653766E+01  0.29653197814E+02  0.10566000000E+00 0.  1.
         13    1    4    4    0    0  0.10004330861E+01 -0.68798860360E+01 -0.19357608136E+02  0.20568467493E+02  0.10566000000E+00 0. -1.
        -13    1    4    4    0    0  0.15393744169E+01 -0.64209325191E+01 -0.18358055738E+02  0.19509675100E+02  0.10566000000E+00 0.  1.
        -14    1    4    4    0    0  0.11833671810E+01 -0.15983774262E+02 -0.43108203092E+02  0.45991287994E+02  0.00000000000E+00 0.  1.
<mgrwt>
<rscale>  0 0.79990188E+02</rscale>
<asrwt>0</asrwt>
<pdfrwt beam="1">  1        2 0.15334504E-01 0.79990188E+02</pdfrwt>
<pdfrwt beam="2">  1       -1 0.24689767E-02 0.79990188E+02</pdfrwt>
<totfact> 0.17715502E+05</totfact>
</mgrwt>
</event>
<event>
 8    1  0.1226832E-024  0.8084127E+02  0.7818608E-02  0.1326681E+00
          2   -1    0    0  501    0  0.00000000000E+00  0.00000000000E+00  0.73768286884E+02  0.73768286928E+02  0.25500000000E-02 0. -1.
         -1   -1    0    0    0  501 -0.00000000000E+00 -0.00000000000E+00 -0.22148101533E+02  0.22148102107E+02  0.50400000000E-02 0.  1.
         24    2    1    2    0    0  0.00000000000E+00  0.00000000000E+00  0.51620185351E+02  0.95916389035E+02  0.80841265143E+02 0.  0.
         66    2    3    3    0    0  0.28612544692E+02 -0.71220791532E+01 -0.69351501671E+01  0.30356186115E+02  0.20000006038E+01 0.  0.
        -13    1    3    3    0    0 -0.28612544692E+02  0.71220791532E+01  0.58555335518E+02  0.65560202920E+02  0.10566000000E+00 0.  1.
         13    1    4    4    0    0  0.18473947339E+02 -0.37538378412E+01 -0.41391137922E+01  0.19300814901E+02  0.10566000000E+00 0. -1.
        -13    1    4    4    0    0  0.31113763568E+01 -0.11891757980E+01 -0.69972406358E+00  0.34052282909E+01  0.10566000000E+00 0.  1.
         14    1    4    4    0    0  0.70272209965E+01 -0.21790655140E+01 -0.20963123114E+01  0.76501429238E+01  0.00000000000E+00 0. -1.
<mgrwt>
<rscale>  0 0.80841265E+02</rscale>
<asrwt>0</asrwt>
<pdfrwt beam="1">  1        2 0.11348967E-01 0.80841265E+02</pdfrwt>
<pdfrwt beam="2">  1       -1 0.34074003E-02 0.80841265E+02</pdfrwt>
<totfact> 0.15900427E+05</totfact>
</mgrwt>
</event>
<event>
 8    1  0.1226832E-024  0.8020954E+02  0.7818608E-02  0.1328458E+00
          2   -1    0    0  501    0  0.00000000000E+00  0.00000000000E+00  0.32130399944E+03  0.32130399945E+03  0.25500000000E-02 0. -1.
         -1   -1    0    0    0  501 -0.00000000000E+00 -0.00000000000E+00 -0.50058269717E+01  0.50058295089E+01  0.50400000000E-02 0.  1.
         24    2    1    2    0    0 -0.17763568394E-14  0.17763568394E-14  0.31629817247E+03  0.32630982896E+03  0.80209541630E+02 0.  0.
         66    2    3    3    0    0  0.97723495777E+01 -0.13349951811E+02  0.30676033674E+03  0.30721266938E+03  0.20000001130E+01 0.  0.
        -13    1    3    3    0    0 -0.97723495777E+01  0.13349951811E+02  0.95378357287E+01  0.19097159581E+02  0.10566000000E+00 0.  1.
         13    1    4    4    0    0  0.30764092497E+01 -0.48464289628E+01  0.99831075950E+02  0.99996035206E+02  0.10566000000E+00 0. -1.
        -13    1    4    4    0    0  0.91598589413E+00 -0.19835883356E+01  0.38273826647E+02  0.38336283376E+02  0.10566000000E+00 0.  1.
        -14    1    4    4    0    0  0.57799544339E+01 -0.65199345126E+01  0.16865543414E+03  0.16888035079E+03  0.00000000000E+00 0.  1.
<mgrwt>
<rscale>  0 0.80209542E+02</rscale>
<asrwt>0</asrwt>
<pdfrwt beam="1">  1        2 0.49431400E-01 0.80209542E+02</pdfrwt>
<pdfrwt beam="2">  1       -1 0.77012719E-03 0.80209542E+02</pdfrwt>
<totfact> 0.25956067E+05</totfact>
</mgrwt>
</event>
<event>
 8    1  0.1226832E-024  0.8030776E+02  0.7818608E-02  0.1328180E+00
          2   -1    0    0  501    0  0.00000000000E+00  0.00000000000E+00  0.90323017314E+03  0.90323017314E+03  0.25500000000E-02 0. -1.
         -1   -1    0    0    0  501 -0.00000000000E+00 -0.00000000000E+00 -0.17850721621E+01  0.17850792771E+01  0.50400000000E-02 0.  1.
         24    2    1    2    0    0 -0.88817841970E-15  0.00000000000E+00  0.90144510098E+03  0.90501525242E+03  0.80307764488E+02 0.  0.
         66    2    3    3    0    0  0.71185717784E+01  0.29572168774E+02  0.74597867238E+03  0.74660121007E+03  0.19999989418E+01 0.  0.
        -13    1    3    3    0    0 -0.71185717784E+01 -0.29572168774E+02  0.15546642860E+03  0.15841404235E+03  0.10566000000E+00 0.  1.
         13    1    4    4    0    0  0.12390350236E+01  0.65447813444E+01  0.16628335977E+03  0.16641675478E+03  0.10566000000E+00 0. -1.
        -13    1    4    4    0    0  0.40454532144E+00  0.98967195719E+00  0.20240244502E+02  0.20268738714E+02  0.10566000000E+00 0.  1.
         14    1    4    4    0    0  0.54749914333E+01  0.22037715473E+02  0.55945506811E+03  0.55991571658E+03  0.00000000000E+00 0. -1.
<mgrwt>
<rscale>  0 0.80307764E+02</rscale>
<asrwt>0</asrwt>
<pdfrwt beam="1">  1        2 0.13895851E+00 0.80307764E+02</pdfrwt>
<pdfrwt beam="2">  1       -1 0.27462698E-03 0.80307764E+02</pdfrwt>
<totfact> 0.34613316E+05</totfact>
</mgrwt>
</event>
<event>
 8    1  0.1226832E-024  0.7920684E+02  0.7818608E-02  0.1331317E+00
          2   -1    0    0  501    0  0.00000000000E+00  0.00000000000E+00  0.15423170363E+03  0.15423170365E+03  0.25500000000E-02 0. -1.
         -1   -1    0    0    0  501 -0.00000000000E+00 -0.00000000000E+00 -0.10169315303E+02  0.10169316552E+02  0.50400000000E-02 0.  1.
         24    2    1    2    0    0 -0.35527136788E-14  0.00000000000E+00  0.14406238832E+03  0.16440102020E+03  0.79206841330E+02 0.  0.
         66    2    3    3    0    0  0.19913211192E+02 -0.32110569483E+02  0.96530356419E+02  0.10368092572E+03  0.19999988950E+01 0.  0.
        -13    1    3    3    0    0 -0.19913211192E+02  0.32110569483E+02  0.47532031906E+02  0.60720094480E+02  0.10566000000E+00 0.  1.
         13    1    4    4    0    0  0.39692292295E+01 -0.58196277771E+01  0.16938656498E+02  0.18345356255E+02  0.10566000000E+00 0. -1.
        -13    1    4    4    0    0  0.50488002097E+01 -0.86228099431E+01  0.27610210752E+02  0.29362870035E+02  0.10566000000E+00 0.  1.
         14    1    4    4    0    0  0.10895181753E+02 -0.17668131763E+02  0.51981489169E+02  0.55972699432E+02  0.00000000000E+00 0. -1.
<mgrwt>
<rscale>  0 0.79206841E+02</rscale>
<asrwt>0</asrwt>
<pdfrwt beam="1">  1        2 0.23727953E-01 0.79206841E+02</pdfrwt>
<pdfrwt beam="2">  1       -1 0.15645103E-02 0.79206841E+02</pdfrwt>
<totfact> 0.20751990E+05</totfact>
</mgrwt>
</event>
<event>
 8    1  0.1226832E-024  0.8009126E+02  0.7818608E-02  0.1328793E+00
          2   -1    0    0  501    0  0.00000000000E+00  0.00000000000E+00  0.28214496680E+03  0.28214496681E+03  0.25500000000E-02 0. -1.
         -1   -1    0    0    0  501 -0.00000000000E+00 -0.00000000000E+00 -0.56837872688E+01  0.56837895034E+01  0.50400000000E-02 0.  1.
         24    2    1    2    0    0  0.00000000000E+00  0.00000000000E+00  0.27646117953E+03  0.28782875631E+03  0.80091255291E+02 0.  0.
         66    2    3    3    0    0 -0.13217267739E+02 -0.11731859287E+02  0.26735778963E+03  0.26794872713E+03  0.20000009752E+01 0.  0.
        -13    1    3    3    0    0  0.13217267739E+02  0.11731859287E+02  0.91033899010E+01  0.19880029189E+02  0.10566000000E+00 0.  1.
         13    1    4    4    0    0 -0.70768007409E+01 -0.72975995036E+01  0.15228382546E+03  0.15262277264E+03  0.10566000000E+00 0.  1.
        -13    1    4    4    0    0 -0.15781080895E+00 -0.15875400532E+00  0.25534830915E+01  0.25654525955E+01  0.10566000000E+00 0. -1.
         14    1    4    4    0    0 -0.59826561891E+01 -0.42755057781E+01  0.11252048108E+03  0.11276050189E+03  0.00000000000E+00 0. -1.
<mgrwt>
<rscale>  0 0.80091255E+02</rscale>
<asrwt>0</asrwt>
<pdfrwt beam="1">  1        2 0.43406909E-01 0.80091255E+02</pdfrwt>
<pdfrwt beam="2">  1       -1 0.87442918E-03 0.80091255E+02</pdfrwt>
<totfact> 0.24859540E+05</totfact>
</mgrwt>
</event>
<event>
 8    1  0.1226832E-024  0.7822127E+02  0.7818608E-02  0.1334176E+00
          2   -1    0    0  501    0  0.00000000000E+00  0.00000000000E+00  0.41147100952E+03  0.41147100953E+03  0.25500000000E-02 0. -1.
         -1   -1    0    0    0  501 -0.00000000000E+00 -0.00000000000E+00 -0.37174939624E+01  0.37174973789E+01  0.50400000000E-02 0.  1.
         24    2    1    2    0    0  0.88817841970E-15  0.71054273576E-14  0.40775351556E+03  0.41518850691E+03  0.78221268323E+02 0.  0.
         66    2    3    3    0    0  0.43894104594E+01  0.38833899442E+02  0.20690766677E+03  0.21057569008E+03  0.20000037492E+01 0.  0.
        -13    1    3    3    0    0 -0.43894104594E+01 -0.38833899442E+02  0.20084584879E+03  0.20461281683E+03  0.10566000000E+00 0.  1.
         13    1    4    4    0    0  0.48309959637E+00  0.82983386503E+01  0.44747374953E+02  0.45513015048E+02  0.10566000000E+00 0. -1.
        -13    1    4    4    0    0  0.16763654685E+01  0.10112342430E+02  0.56965402574E+02  0.57880375993E+02  0.10566000000E+00 0.  1.
        -14    1    4    4    0    0  0.22299453946E+01  0.20423218362E+02  0.10519488924E+03  0.10718229904E+03  0.00000000000E+00 0.  1.
<mgrwt>
<rscale>  0 0.78221268E+02</rscale>
<asrwt>0</asrwt>
<pdfrwt beam="1">  1        2 0.63303233E-01 0.78221268E+02</pdfrwt>
<pdfrwt beam="2">  1       -1 0.57192240E-03 0.78221268E+02</pdfrwt>
<totfact> 0.30256666E+05</totfact>
</mgrwt>
</event>
<event>
 8    1  0.1226832E-024  0.7928752E+02  0.7818608E-02  0.1331086E+00
          2   -1    0    0  501    0  0.00000000000E+00  0.00000000000E+00  0.78389521853E+02  0.78389521895E+02  0.25500000000E-02 0. -1.
         -1   -1    0    0    0  501 -0.00000000000E+00 -0.00000000000E+00 -0.20048949255E+02  0.20048949888E+02  0.50400000000E-02 0.  1.
         24    2    1    2    0    0  0.00000000000E+00 -0.17763568394E-14  0.58340572598E+02  0.98438471783E+02  0.79287516772E+02 0.  0.
         66    2    3    3    0    0  0.17807087644E+02 -0.13871798272E+02  0.69612319414E+02  0.73207883246E+02  0.19999993741E+01 0.  0.
        -13    1    3    3    0    0 -0.17807087644E+02  0.13871798272E+02 -0.11271746816E+02  0.25230588538E+02  0.10566000000E+00 0.  1.
         13    1    4    4    0    0  0.10798882284E+02 -0.79992154010E+01  0.41841520138E+02  0.43946868797E+02  0.10566000000E+00 0. -1.
        -13    1    4    4    0    0  0.16060599490E+01 -0.87563574446E+00  0.46773152211E+01  0.50234060387E+01  0.10566000000E+00 0.  1.
        -14    1    4    4    0    0  0.54021454109E+01 -0.49969471260E+01  0.23093484055E+02  0.24237608410E+02  0.00000000000E+00 0.  1.
<mgrwt>
<rscale>  0 0.79287517E+02</rscale>
<asrwt>0</asrwt>
<pdfrwt beam="1">  1        2 0.12059926E-01 0.79287517E+02</pdfrwt>
<pdfrwt beam="2">  1       -1 0.30844538E-02 0.79287517E+02</pdfrwt>
<totfact> 0.17014445E+05</totfact>
</mgrwt>
</event>
<event>
 8    1  0.1226832E-024  0.8035373E+02  0.7818608E-02  0.1328051E+00
         -1   -1    0    0    0  501 -0.00000000000E+00  0.00000000000E+00  0.13613731306E+01  0.13613824600E+01  0.50400000000E-02 0.  1.
          2   -1    0    0  501    0  0.00000000000E+00 -0.00000000000E+00 -0.11856960703E+04  0.11856960703E+04  0.25500000000E-02 0. -1.
         24    2    1    2    0    0 -0.35527136788E-14 -0.88817841970E-15 -0.11843346971E+04  0.11870574527E+04  0.80353725738E+02 0.  0.
         66    2    3    3    0    0 -0.23191044509E+02 -0.79918055512E+01 -0.10621352211E+04  0.10624203130E+04  0.19999986290E+01 0.  0.
        -13    1    3    3    0    0  0.23191044509E+02  0.79918055512E+01 -0.12219947600E+03  0.12463713973E+03  0.10566000000E+00 0.  1.
         13    1    4    4    0    0 -0.11483516749E+02 -0.40332657822E+01 -0.51700053285E+03  0.51714379096E+03  0.10566000000E+00 0. -1.
        -13    1    4    4    0    0 -0.38439467212E+01 -0.19845719439E+01 -0.18603164585E+03  0.18608196816E+03  0.10566000000E+00 0. -1.
         14    1    4    4    0    0 -0.78635810384E+01 -0.19739678251E+01 -0.35910304242E+03  0.35919455387E+03  0.00000000000E+00 0. -1.
<mgrwt>
<rscale>  0 0.80353726E+02</rscale>
<asrwt>0</asrwt>
<pdfrwt beam="1">  1        2 0.18241395E+00 0.80353726E+02</pdfrwt>
<pdfrwt beam="2">  1       -1 0.20944369E-03 0.80353726E+02</pdfrwt>
<totfact> 0.34682382E+05</totfact>
</mgrwt>
</event>
<event>
 8    1  0.1226832E-024  0.7932495E+02  0.7818608E-02  0.1330978E+00
         -1   -1    0    0    0  501 -0.00000000000E+00  0.00000000000E+00  0.53016390596E+01  0.53016414553E+01  0.50400000000E-02 0.  1.
          2   -1    0    0  501    0  0.00000000000E+00 -0.00000000000E+00 -0.29672176273E+03  0.29672176274E+03  0.25500000000E-02 0. -1.
         24    2    1    2    0    0 -0.88817841970E-15  0.00000000000E+00 -0.29142012367E+03  0.30202340420E+03  0.79324953213E+02 0.  0.
         66    2    3    3    0    0  0.57691903673E+01 -0.39041194427E+02 -0.15984798144E+03  0.16465987848E+03  0.19999983950E+01 0.  0.
        -13    1    3    3    0    0 -0.57691903673E+01  0.39041194427E+02 -0.13157214223E+03  0.13736352571E+03  0.10566000000E+00 0.  1.
         13    1    4    4    0    0  0.40510424755E+01 -0.23363703718E+02 -0.94991303913E+02  0.97906243824E+02  0.10566000000E+00 0. -1.
        -13    1    4    4    0    0  0.16960550215E+00 -0.54272583573E+01 -0.21670214795E+02  0.22340395533E+02  0.10566000000E+00 0.  1.
         14    1    4    4    0    0  0.15485423897E+01 -0.10250232352E+02 -0.43186462727E+02  0.44413239126E+02  0.00000000000E+00 0. -1.
<mgrwt>
<rscale>  0 0.79324953E+02</rscale>
<asrwt>0</asrwt>
<pdfrwt beam="1">  1        2 0.45649489E-01 0.79324953E+02</pdfrwt>
<pdfrwt beam="2">  1       -1 0.81563720E-03 0.79324953E+02</pdfrwt>
<totfact> 0.25963566E+05</totfact>
</mgrwt>
</event>
<event>
 8    1  0.1226832E-024  0.7998038E+02  0.7818608E-02  0.1329107E+00
          2   -1    0    0  501    0  0.00000000000E+00  0.00000000000E+00  0.10332789395E+03  0.10332789398E+03  0.25500000000E-02 0. -1.
         -1   -1    0    0    0  501 -0.00000000000E+00 -0.00000000000E+00 -0.15477090468E+02  0.15477091289E+02  0.50400000000E-02 0.  1.
         24    2    1    2    0    0  0.35527136788E-14  0.88817841970E-15  0.87850803479E+02  0.11880498527E+03  0.79980377922E+02 0.  0.
         66    2    3    3    0    0 -0.18382209763E+02 -0.47962507971E+01  0.96181977280E+02  0.98060605826E+02  0.20000010067E+01 0.  0.
        -13    1    3    3    0    0  0.18382209763E+02  0.47962507971E+01 -0.83311738011E+01  0.20744379441E+02  0.10566000000E+00 0.  1.
         13    1    4    4    0    0 -0.25275595871E+01 -0.87003961760E+00  0.15595971363E+02  0.15823748393E+02  0.10566000000E+00 0. -1.
        -13    1    4    4    0    0 -0.13947966451E+01  0.17662804654E-01  0.61909663735E+01  0.63470464256E+01  0.10566000000E+00 0.  1.
         14    1    4    4    0    0 -0.14459853531E+02 -0.39438739841E+01  0.74395039544E+02  0.75889811008E+02  0.00000000000E+00 0. -1.
<mgrwt>
<rscale>  0 0.79980378E+02</rscale>
<asrwt>0</asrwt>
<pdfrwt beam="1">  1        2 0.15896599E-01 0.79980378E+02</pdfrwt>
<pdfrwt beam="2">  1       -1 0.23810910E-02 0.79980378E+02</pdfrwt>
<totfact> 0.17901775E+05</totfact>
</mgrwt>
</event>
<event>
 8    1  0.1226832E-024  0.7860733E+02  0.7818608E-02  0.1333051E+00
          2   -1    0    0  501    0  0.00000000000E+00  0.00000000000E+00  0.41376498743E+02  0.41376498822E+02  0.25500000000E-02 0. -1.
         -1   -1    0    0    0  501 -0.00000000000E+00 -0.00000000000E+00 -0.37334669069E+02  0.37334669409E+02  0.50400000000E-02 0.  1.
         24    2    1    2    0    0 -0.17763568394E-14 -0.35527136788E-14  0.40418296740E+01  0.78711168231E+02  0.78607325468E+02 0.  0.
         66    2    3    3    0    0  0.15734578505E+02  0.29862377402E+02  0.22134429320E+02  0.40413754861E+02  0.20000189561E+01 0.  0.
        -13    1    3    3    0    0 -0.15734578505E+02 -0.29862377402E+02 -0.18092599646E+02  0.38297413370E+02  0.10566000000E+00 0.  1.
         13    1    4    4    0    0  0.69115565378E+01  0.13367707038E+02  0.11031022690E+02  0.18659041531E+02  0.10566000000E+00 0. -1.
        -13    1    4    4    0    0  0.61115895579E+01  0.11633744419E+02  0.77959404804E+01  0.15280163224E+02  0.10566000000E+00 0.  1.
         14    1    4    4    0    0  0.27114324091E+01  0.48609259447E+01  0.33074661502E+01  0.64745501066E+01  0.00000000000E+00 0. -1.
<mgrwt>
<rscale>  0 0.78607325E+02</rscale>
<asrwt>0</asrwt>
<pdfrwt beam="1">  1        2 0.63656152E-02 0.78607325E+02</pdfrwt>
<pdfrwt beam="2">  1       -1 0.57437953E-02 0.78607325E+02</pdfrwt>
<totfact> 0.15067092E+05</totfact>
</mgrwt>
</event>
<event>
 8    1  0.1226832E-024  0.7938722E+02  0.7818608E-02  0.1330799E+00
          2   -1    0    0  501    0  0.00000000000E+00  0.00000000000E+00  0.18911044286E+02  0.18911044458E+02  0.25500000000E-02 0. -1.
         -1   -1    0    0    0  501 -0.00000000000E+00 -0.00000000000E+00 -0.83315470651E+02  0.83315470804E+02  0.50400000000E-02 0.  1.
         24    2    1    2    0    0  0.00000000000E+00  0.00000000000E+00 -0.64404426365E+02  0.10222651526E+03  0.79387217404E+02 0.  0.
         66    2    3    3    0    0 -0.52350052541E+01  0.38864738039E+02 -0.24528203610E+02  0.46298012259E+02  0.20000059872E+01 0.  0.
        -13    1    3    3    0    0  0.52350052541E+01 -0.38864738039E+02 -0.39876222755E+02  0.55928503003E+02  0.10566000000E+00 0.  1.
         13    1    4    4    0    0 -0.25219875907E+01  0.15342882636E+02 -0.96259705689E+01  0.18287562506E+02  0.10566000000E+00 0. -1.
        -13    1    4    4    0    0 -0.11941499632E+01  0.56420415721E+01 -0.33783792060E+01  0.66845521414E+01  0.10566000000E+00 0.  1.
         14    1    4    4    0    0 -0.15188677002E+01  0.17879813832E+02 -0.11523853835E+02  0.21325897612E+02  0.00000000000E+00 0. -1.
<mgrwt>
<rscale>  0 0.79387217E+02</rscale>
<asrwt>0</asrwt>
<pdfrwt beam="1">  1        2 0.29093915E-02 0.79387217E+02</pdfrwt>
<pdfrwt beam="2">  1       -1 0.12817765E-01 0.79387217E+02</pdfrwt>
<totfact> 0.12550108E+05</totfact>
</mgrwt>
</event>
<event>
 8    1  0.1226832E-024  0.7691734E+02  0.7818608E-02  0.1338034E+00
          2   -1    0    0  501    0  0.00000000000E+00  0.00000000000E+00  0.11794323156E+04  0.11794323156E+04  0.25500000000E-02 0. -1.
         -1   -1    0    0    0  501 -0.00000000000E+00 -0.00000000000E+00 -0.12540467459E+01  0.12540568737E+01  0.50400000000E-02 0.  1.
         24    2    1    2    0    0  0.35527136788E-14  0.00000000000E+00  0.11781782688E+04  0.11806863724E+04  0.76917338432E+02 0.  0.
         66    2    3    3    0    0 -0.23877903195E+02  0.94196743948E+01  0.10285572317E+04  0.10288794212E+04  0.20000000108E+01 0.  0.
        -13    1    3    3    0    0  0.23877903195E+02 -0.94196743948E+01  0.14962103713E+03  0.15180695123E+03  0.10566000000E+00 0.  1.
         13    1    4    4    0    0 -0.18085009357E+02  0.67945487154E+01  0.74860109071E+03  0.74885034395E+03  0.10566000000E+00 0. -1.
        -13    1    4    4    0    0 -0.27665946382E+00  0.40541952425E-01  0.12580082017E+02  0.12583632690E+02  0.10566000000E+00 0.  1.
         14    1    4    4    0    0 -0.55162343746E+01  0.25845837269E+01  0.26737605896E+03  0.26744544457E+03  0.00000000000E+00 0. -1.
<mgrwt>
<rscale>  0 0.76917338E+02</rscale>
<asrwt>0</asrwt>
<pdfrwt beam="1">  1        2 0.18145177E+00 0.76917338E+02</pdfrwt>
<pdfrwt beam="2">  1       -1 0.19293037E-03 0.76917338E+02</pdfrwt>
<totfact> 0.38861529E+05</totfact>
</mgrwt>
</event>
<event>
 8    1  0.1226832E-024  0.8016324E+02  0.7818608E-02  0.1328589E+00
          2   -1    0    0  501    0  0.00000000000E+00  0.00000000000E+00  0.45949101909E+03  0.45949101910E+03  0.25500000000E-02 0. -1.
         -1   -1    0    0    0  501 -0.00000000000E+00 -0.00000000000E+00 -0.34963367172E+01  0.34963403498E+01  0.50400000000E-02 0.  1.
         24    2    1    2    0    0  0.00000000000E+00  0.35527136788E-14  0.45599468237E+03  0.46298735945E+03  0.80163237555E+02 0.  0.
         66    2    3    3    0    0 -0.20638360463E+01 -0.28483734718E+02  0.39036403865E+03  0.39141239789E+03  0.19999965120E+01 0.  0.
        -13    1    3    3    0    0  0.20638360463E+01  0.28483734718E+02  0.65630643719E+02  0.71574961555E+02  0.10566000000E+00 0.  1.
         13    1    4    4    0    0 -0.21907639005E+01 -0.20217086825E+02  0.27872850534E+03  0.27946935592E+03  0.10566000000E+00 0. -1.
        -13    1    4    4    0    0  0.23582066364E+00 -0.22860476776E+01  0.28665813662E+02  0.28757984323E+02  0.10566000000E+00 0. -1.
         14    1    4    4    0    0 -0.10889280936E+00 -0.59806002148E+01  0.82969719651E+02  0.83185057646E+02  0.00000000000E+00 0. -1.
<mgrwt>
<rscale>  0 0.80163238E+02</rscale>
<asrwt>0</asrwt>
<pdfrwt beam="1">  1        2 0.70690924E-01 0.80163238E+02</pdfrwt>
<pdfrwt beam="2">  1       -1 0.53789826E-03 0.80163238E+02</pdfrwt>
<totfact> 0.29467277E+05</totfact>
</mgrwt>
</event>
<event>
 8    1  0.1226832E-024  0.7766380E+02  0.7818608E-02  0.1335815E+00
         -1   -1    0    0    0  501 -0.00000000000E+00  0.00000000000E+00  0.16475774270E+02  0.16475775041E+02  0.50400000000E-02 0.  1.
          2   -1    0    0  501    0  0.00000000000E+00 -0.00000000000E+00 -0.91523245510E+02  0.91523245546E+02  0.25500000000E-02 0. -1.
         24    2    1    2    0    0  0.00000000000E+00  0.00000000000E+00 -0.75047471240E+02  0.10799902059E+03  0.77663797925E+02 0.  0.
         66    2    3    3    0    0 -0.34063951310E+02  0.68366596921E+01 -0.61586926555E+02  0.70739255131E+02  0.19999998526E+01 0.  0.
        -13    1    3    3    0    0  0.34063951310E+02 -0.68366596921E+01 -0.13460544685E+02  0.37259765456E+02  0.10566000000E+00 0.  1.
         13    1    4    4    0    0 -0.41178121726E+01  0.28401839927E+00 -0.70642901487E+01  0.81824447985E+01  0.10566000000E+00 0.  1.
        -13    1    4    4    0    0 -0.15754902436E+02  0.29661682500E+01 -0.28352970159E+02  0.32571723714E+02  0.10566000000E+00 0. -1.
        -14    1    4    4    0    0 -0.14191236701E+02  0.35864730428E+01 -0.26169666248E+02  0.29985086618E+02  0.00000000000E+00 0.  1.
<mgrwt>
<rscale>  0 0.77663798E+02</rscale>
<asrwt>0</asrwt>
<pdfrwt beam="1">  1        2 0.14080499E-01 0.77663798E+02</pdfrwt>
<pdfrwt beam="2">  1       -1 0.25347346E-02 0.77663798E+02</pdfrwt>
<totfact> 0.18729131E+05</totfact>
</mgrwt>
</event>
<event>
 8    1  0.1226832E-024  0.8111514E+02  0.7818608E-02  0.1325916E+00
         -1   -1    0    0    0  501 -0.00000000000E+00  0.00000000000E+00  0.92512137830E+01  0.92512151559E+01  0.50400000000E-02 0.  1.
          2   -1    0    0  501    0  0.00000000000E+00 -0.00000000000E+00 -0.17780547436E+03  0.17780547438E+03  0.25500000000E-02 0. -1.
         24    2    1    2    0    0  0.00000000000E+00 -0.17763568394E-14 -0.16855426057E+03  0.18705668953E+03  0.81115142487E+02 0.  0.
         66    2    3    3    0    0  0.38121774352E+02 -0.10100358799E+02 -0.62741608041E+02  0.74133638175E+02  0.20000004633E+01 0.  0.
        -13    1    3    3    0    0 -0.38121774352E+02  0.10100358799E+02 -0.10581265253E+03  0.11292305136E+03  0.10566000000E+00 0.  1.
         13    1    4    4    0    0  0.19498902389E+02 -0.51736231849E+01 -0.30758494682E+02  0.36784096161E+02  0.10566000000E+00 0. -1.
        -13    1    4    4    0    0  0.47241227304E+01 -0.87867197850E+00 -0.83975479572E+01  0.96757106068E+01  0.10566000000E+00 0.  1.
        -14    1    4    4    0    0  0.13898749233E+02 -0.40480636356E+01 -0.23585565402E+02  0.27673831407E+02  0.00000000000E+00 0.  1.
<mgrwt>
<rscale>  0 0.81115142E+02</rscale>
<asrwt>0</asrwt>
<pdfrwt beam="1">  1        2 0.27354686E-01 0.81115142E+02</pdfrwt>
<pdfrwt beam="2">  1       -1 0.14232639E-02 0.81115142E+02</pdfrwt>
<totfact> 0.20424014E+05</totfact>
</mgrwt>
</event>
<event>
 8    1  0.1226832E-024  0.7931352E+02  0.7818608E-02  0.1331011E+00
         -1   -1    0    0    0  501 -0.00000000000E+00  0.00000000000E+00  0.30204246449E+02  0.30204246869E+02  0.50400000000E-02 0.  1.
          2   -1    0    0  501    0  0.00000000000E+00 -0.00000000000E+00 -0.52067460336E+02  0.52067460399E+02  0.25500000000E-02 0. -1.
         24    2    1    2    0    0  0.00000000000E+00  0.71054273576E-14 -0.21863213888E+02  0.82271707268E+02  0.79313515212E+02 0.  0.
         66    2    3    3    0    0  0.10646020510E+02  0.37937826700E+02 -0.65331338352E+01  0.39991227542E+02  0.19999988027E+01 0.  0.
        -13    1    3    3    0    0 -0.10646020510E+02 -0.37937826700E+02 -0.15330080053E+02  0.42280479726E+02  0.10566000000E+00 0.  1.
         13    1    4    4    0    0  0.10457509259E+01  0.39044049825E+01 -0.10595031190E+01  0.41799143725E+01  0.10566000000E+00 0.  1.
        -13    1    4    4    0    0  0.54066226534E+01  0.16924019315E+02 -0.23748632398E+01  0.17924986408E+02  0.10566000000E+00 0. -1.
         14    1    4    4    0    0  0.41936469304E+01  0.17109402402E+02 -0.30987674764E+01  0.17886326761E+02  0.00000000000E+00 0. -1.
<mgrwt>
<rscale>  0 0.79313515E+02</rscale>
<asrwt>0</asrwt>
<pdfrwt beam="1">  1        2 0.80103785E-02 0.79313515E+02</pdfrwt>
<pdfrwt beam="2">  1       -1 0.46468072E-02 0.79313515E+02</pdfrwt>
<totfact> 0.15435556E+05</totfact>
</mgrwt>
</event>
<event>
 8    1  0.1226832E-024  0.7950607E+02  0.7818608E-02  0.1330459E+00
         -1   -1    0    0    0  501 -0.00000000000E+00  0.00000000000E+00  0.26870821294E+01  0.26870868561E+01  0.50400000000E-02 0.  1.
          2   -1    0    0  501    0  0.00000000000E+00 -0.00000000000E+00 -0.58811096524E+03  0.58811096524E+03  0.25500000000E-02 0. -1.
         24    2    1    2    0    0  0.00000000000E+00  0.17763568394E-14 -0.58542388311E+03  0.59079805210E+03  0.79506071786E+02 0.  0.
         66    2    3    3    0    0 -0.19744234292E+02  0.12274512271E+02 -0.53228096406E+03  0.53279219508E+03  0.20000002326E+01 0.  0.
        -13    1    3    3    0    0  0.19744234292E+02 -0.12274512271E+02 -0.53142919049E+02  0.58005857018E+02  0.10566000000E+00 0.  1.
         13    1    4    4    0    0 -0.83861354221E+01  0.61838132505E+01 -0.22948772883E+03  0.22972417300E+03  0.10566000000E+00 0. -1.
        -13    1    4    4    0    0 -0.99606349793E+01  0.51261316555E+01 -0.26110266094E+03  0.26134288242E+03  0.10566000000E+00 0.  1.
        -14    1    4    4    0    0 -0.13974638901E+01  0.96456736534E+00 -0.41690574291E+02  0.41725139668E+02  0.00000000000E+00 0.  1.
<mgrwt>
<rscale>  0 0.79506072E+02</rscale>
<asrwt>0</asrwt>
<pdfrwt beam="1">  1        2 0.90478508E-01 0.79506072E+02</pdfrwt>
<pdfrwt beam="2">  1       -1 0.41339808E-03 0.79506072E+02</pdfrwt>
<totfact> 0.32502646E+05</totfact>
</mgrwt>
</event>
<event>
 8    1  0.1226832E-024  0.7999953E+02  0.7818608E-02  0.1329053E+00
         -1   -1    0    0    0  501 -0.00000000000E+00  0.00000000000E+00  0.76382343892E+02  0.76382344058E+02  0.50400000000E-02 0.  1.
          2   -1    0    0  501    0  0.00000000000E+00 -0.00000000000E+00 -0.20947002621E+02  0.20947002776E+02  0.25500000000E-02 0. -1.
         24    2    1    2    0    0  0.35527136788E-14  0.00000000000E+00  0.55435341271E+02  0.97329346834E+02  0.79999529332E+02 0.  0.
         66    2    3    3    0    0  0.25735746465E+02  0.28662555108E+02  0.14738946592E+02  0.41292944243E+02  0.19999965361E+01 0.  0.
        -13    1    3    3    0    0 -0.25735746465E+02 -0.28662555108E+02  0.40696394679E+02  0.56036402591E+02  0.10566000000E+00 0.  1.
         13    1    4    4    0    0  0.12370610922E+02  0.12789394236E+02  0.69053982765E+01  0.19086547852E+02  0.10566000000E+00 0. -1.
        -13    1    4    4    0    0  0.89104568186E+01  0.10567345315E+02  0.57572531789E+01  0.14974049417E+02  0.10566000000E+00 0.  1.
        -14    1    4    4    0    0  0.44546787248E+01  0.53058155566E+01  0.20762951363E+01  0.72323469742E+01  0.00000000000E+00 0.  1.
<mgrwt>
<rscale>  0 0.79999529E+02</rscale>
<asrwt>0</asrwt>
<pdfrwt beam="1">  1        2 0.32226158E-02 0.79999529E+02</pdfrwt>
<pdfrwt beam="2">  1       -1 0.11751130E-01 0.79999529E+02</pdfrwt>
<totfact> 0.12532231E+05</totfact>
</mgrwt>
</event>
<event>
 8    1  0.1226832E-024  0.7917432E+02  0.7818608E-02  0.1331411E+00
          2   -1    0    0  501    0  0.00000000000E+00  0.00000000000E+00  0.15628813089E+02  0.15628813297E+02  0.25500000000E-02 0. -1.
         -1   -1    0    0    0  501 -0.00000000000E+00 -0.00000000000E+00 -0.10027270452E+03  0.10027270465E+03  0.50400000000E-02 0.  1.
         24    2    1    2    0    0  0.00000000000E+00  0.00000000000E+00 -0.84643891434E+02  0.11590151795E+03  0.79174323522E+02 0.  0.
         66    2    3    3    0    0  0.34511765393E+02  0.41338236520E+01 -0.14690189270E+02  0.37788253650E+02  0.20000011564E+01 0.  0.
        -13    1    3    3    0    0 -0.34511765393E+02 -0.41338236520E+01 -0.69953702163E+02  0.78113264296E+02  0.10566000000E+00 0.  1.
         13    1    4    4    0    0  0.22248671788E+02  0.30594186780E+01 -0.10021092322E+02  0.24592618696E+02  0.10566000000E+00 0. -1.
        -13    1    4    4    0    0  0.11932183447E+02  0.11662921281E+01 -0.44523150102E+01  0.12789507892E+02  0.10566000000E+00 0.  1.
         14    1    4    4    0    0  0.33091015830E+00 -0.91887154149E-01 -0.21678193805E+00  0.40612706218E+00  0.00000000000E+00 0. -1.
<mgrwt>
<rscale>  0 0.79174324E+02</rscale>
<asrwt>0</asrwt>
<pdfrwt beam="1">  1        2 0.24044329E-02 0.79174324E+02</pdfrwt>
<pdfrwt beam="2">  1       -1 0.15426570E-01 0.79174324E+02</pdfrwt>
<totfact> 0.12156452E+05</totfact>
</mgrwt>
</event>
<event>
 8    1  0.1226832E-024  0.8123408E+02  0.7818608E-02  0.1325585E+00
         -1   -1    0    0    0  501 -0.00000000000E+00  0.00000000000E+00  0.13676358189E+02  0.13676359118E+02  0.50400000000E-02 0.  1.
          2   -1    0    0  501    0  0.00000000000E+00 -0.00000000000E+00 -0.12062743934E+03  0.12062743937E+03  0.25500000000E-02 0. -1.
         24    2    1    2    0    0  0.00000000000E+00  0.35527136788E-14 -0.10695108115E+03  0.13430379849E+03  0.81234084769E+02 0.  0.
         66    2    3    3    0    0 -0.16923672430E+02  0.17853424703E+02 -0.10689117076E+03  0.10970359086E+03  0.19999997262E+01 0.  0.
        -13    1    3    3    0    0  0.16923672430E+02 -0.17853424703E+02 -0.59910395072E-01  0.24600207630E+02  0.10566000000E+00 0.  1.
         13    1    4    4    0    0 -0.98003122393E+00  0.15048936128E+01 -0.92207637313E+01  0.93946162141E+01  0.10566000000E+00 0. -1.
        -13    1    4    4    0    0 -0.21740594955E+01  0.26601763223E+01 -0.15250880310E+02  0.15633412520E+02  0.10566000000E+00 0.  1.
         14    1    4    4    0    0 -0.13769581710E+02  0.13688354768E+02 -0.82419526718E+02  0.84675562125E+02  0.00000000000E+00 0. -1.
<mgrwt>
<rscale>  0 0.81234085E+02</rscale>
<asrwt>0</asrwt>
<pdfrwt beam="1">  1        2 0.18558067E-01 0.81234085E+02</pdfrwt>
<pdfrwt beam="2">  1       -1 0.21040553E-02 0.81234085E+02</pdfrwt>
<totfact> 0.17966512E+05</totfact>
</mgrwt>
</event>
<event>
 8    1  0.1226832E-024  0.8225584E+02  0.7818608E-02  0.1322769E+00
          2   -1    0    0  501    0  0.00000000000E+00  0.00000000000E+00  0.44149436228E+03  0.44149436229E+03  0.25500000000E-02 0. -1.
         -1   -1    0    0    0  501 -0.00000000000E+00 -0.00000000000E+00 -0.38313170382E+01  0.38313203532E+01  0.50400000000E-02 0.  1.
         24    2    1    2    0    0  0.17763568394E-14  0.00000000000E+00  0.43766304524E+03  0.44532568264E+03  0.82255835349E+02 0.  0.
         66    2    3    3    0    0  0.82426979805E+01 -0.26840373114E+02  0.38148182662E+03  0.38251892990E+03  0.19999995771E+01 0.  0.
        -13    1    3    3    0    0 -0.82426979805E+01  0.26840373114E+02  0.56181218628E+02  0.62806752738E+02  0.10566000000E+00 0.  1.
         13    1    4    4    0    0  0.44360266623E+01 -0.13266077421E+02  0.18511256796E+03  0.18564035424E+03  0.10566000000E+00 0. -1.
        -13    1    4    4    0    0  0.19219346720E+01 -0.47907266753E+01  0.68963635697E+02  0.69156627358E+02  0.10566000000E+00 0.  1.
         14    1    4    4    0    0  0.18847366463E+01 -0.87835690176E+01  0.12740562296E+03  0.12772194830E+03  0.00000000000E+00 0. -1.
<mgrwt>
<rscale>  0 0.82255835E+02</rscale>
<asrwt>0</asrwt>
<pdfrwt beam="1">  1        2 0.67922158E-01 0.82255835E+02</pdfrwt>
<pdfrwt beam="2">  1       -1 0.58943409E-03 0.82255835E+02</pdfrwt>
<totfact> 0.27181395E+05</totfact>
</mgrwt>
</event>
<event>
 8    1  0.1226832E-024  0.7782619E+02  0.7818608E-02  0.1335336E+00
          2   -1    0    0  501    0  0.00000000000E+00  0.00000000000E+00  0.29151405224E+03  0.29151405225E+03  0.25500000000E-02 0. -1.
         -1   -1    0    0    0  501 -0.00000000000E+00 -0.00000000000E+00 -0.51943589809E+01  0.51943614261E+01  0.50400000000E-02 0.  1.
         24    2    1    2    0    0  0.71054273576E-14  0.17763568394E-14  0.28631969326E+03  0.29670841367E+03  0.77826190956E+02 0.  0.
         66    2    3    3    0    0 -0.33848788069E+02 -0.88339539036E+01  0.20800348937E+03  0.21093418590E+03  0.19999988427E+01 0.  0.
        -13    1    3    3    0    0  0.33848788069E+02  0.88339539036E+01  0.78316203887E+02  0.85774227777E+02  0.10566000000E+00 0.  1.
         13    1    4    4    0    0 -0.18203168544E+02 -0.45540140427E+01  0.11028963892E+03  0.11187452796E+03  0.10566000000E+00 0. -1.
        -13    1    4    4    0    0 -0.24874151705E+01 -0.99147667417E+00  0.18499414024E+02  0.18692505009E+02  0.10566000000E+00 0.  1.
        -14    1    4    4    0    0 -0.13158204354E+02 -0.32884631868E+01  0.79214436425E+02  0.80367152930E+02  0.00000000000E+00 0.  1.
<mgrwt>
<rscale>  0 0.77826191E+02</rscale>
<asrwt>0</asrwt>
<pdfrwt beam="1">  1        2 0.44848319E-01 0.77826191E+02</pdfrwt>
<pdfrwt beam="2">  1       -1 0.79913228E-03 0.77826191E+02</pdfrwt>
<totfact> 0.27118763E+05</totfact>
</mgrwt>
</event>
<event>
 8    1  0.1226832E-024  0.8043789E+02  0.7818608E-02  0.1327813E+00
         -1   -1    0    0    0  501 -0.00000000000E+00  0.00000000000E+00  0.21593229671E+02  0.21593230259E+02  0.50400000000E-02 0.  1.
          2   -1    0    0  501    0  0.00000000000E+00 -0.00000000000E+00 -0.74910670656E+02  0.74910670700E+02  0.25500000000E-02 0. -1.
         24    2    1    2    0    0  0.35527136788E-14  0.00000000000E+00 -0.53317440985E+02  0.96503900959E+02  0.80437885273E+02 0.  0.
         66    2    3    3    0    0  0.25545928666E+02 -0.86772295993E+01 -0.62419710381E+02  0.68030206834E+02  0.20000032288E+01 0.  0.
        -13    1    3    3    0    0 -0.25545928666E+02  0.86772295993E+01  0.91022693961E+01  0.28473694125E+02  0.10566000000E+00 0.  1.
         13    1    4    4    0    0  0.56839734546E+01 -0.16123494193E+01 -0.14173849828E+02  0.15356314918E+02  0.10566000000E+00 0. -1.
        -13    1    4    4    0    0  0.12799614304E+02 -0.37709513362E+01 -0.30047281931E+02  0.32877051507E+02  0.10566000000E+00 0.  1.
        -14    1    4    4    0    0  0.70623409070E+01 -0.32939288438E+01 -0.18198578622E+02  0.19796840409E+02  0.00000000000E+00 0.  1.
<mgrwt>
<rscale>  0 0.80437885E+02</rscale>
<asrwt>0</asrwt>
<pdfrwt beam="1">  1        2 0.11524718E-01 0.80437885E+02</pdfrwt>
<pdfrwt beam="2">  1       -1 0.33220354E-02 0.80437885E+02</pdfrwt>
<totfact> 0.16179157E+05</totfact>
</mgrwt>
</event>
<event>
 8    1  0.1226832E-024  0.8108731E+02  0.7818608E-02  0.1325994E+00
          2   -1    0    0  501    0  0.00000000000E+00  0.00000000000E+00  0.12933965567E+03  0.12933965570E+03  0.25500000000E-02 0. -1.
         -1   -1    0    0    0  501 -0.00000000000E+00 -0.00000000000E+00 -0.12709077749E+02  0.12709078748E+02  0.50400000000E-02 0.  1.
         24    2    1    2    0    0 -0.17763568394E-14  0.00000000000E+00  0.11663057792E+03  0.14204873444E+03  0.81087306348E+02 0.  0.
         66    2    3    3    0    0  0.10511397341E+02  0.37637703873E+02  0.77111830493E+02  0.86471501792E+02  0.19999983258E+01 0.  0.
        -13    1    3    3    0    0 -0.10511397341E+02 -0.37637703873E+02  0.39518747428E+02  0.55577232651E+02  0.10566000000E+00 0.  1.
         13    1    4    4    0    0  0.34763670333E+01  0.15132910828E+02  0.30053964566E+02  0.33828125400E+02  0.10566000000E+00 0. -1.
        -13    1    4    4    0    0  0.64485904231E+00  0.30136808422E+01  0.64249545516E+01  0.71266626431E+01  0.10566000000E+00 0.  1.
         14    1    4    4    0    0  0.63901712649E+01  0.19491112202E+02  0.40632911375E+02  0.45516713749E+02  0.00000000000E+00 0. -1.
<mgrwt>
<rscale>  0 0.81087306E+02</rscale>
<asrwt>0</asrwt>
<pdfrwt beam="1">  1        2 0.19898409E-01 0.81087306E+02</pdfrwt>
<pdfrwt beam="2">  1       -1 0.19552427E-02 0.81087306E+02</pdfrwt>
<totfact> 0.18441282E+05</totfact>
</mgrwt>
</event>
<event>
 8    1  0.1226832E-024  0.7901769E+02  0.7818608E-02  0.1331862E+00
          2   -1    0    0  501    0  0.00000000000E+00  0.00000000000E+00  0.46602218956E+01  0.46602225933E+01  0.25500000000E-02 0. -1.
         -1   -1    0    0    0  501 -0.00000000000E+00 -0.00000000000E+00 -0.33495159539E+03  0.33495159543E+03  0.50400000000E-02 0.  1.
         24    2    1    2    0    0  0.00000000000E+00  0.00000000000E+00 -0.33029137350E+03  0.33961181803E+03  0.79017691278E+02 0.  0.
         66    2    3    3    0    0 -0.30278393280E+02 -0.24390672411E+02 -0.19479700063E+03  0.19864933279E+03  0.19999909389E+01 0.  0.
        -13    1    3    3    0    0  0.30278393280E+02  0.24390672411E+02 -0.13549437287E+03  0.14096248523E+03  0.10566000000E+00 0.  1.
         13    1    4    4    0    0 -0.24897545211E+02 -0.20872681462E+02 -0.16102087073E+03  0.16426590810E+03  0.10566000000E+00 0. -1.
        -13    1    4    4    0    0 -0.40417268723E+01 -0.27094055475E+01 -0.25148019654E+02  0.25614653835E+02  0.10566000000E+00 0. -1.
         14    1    4    4    0    0 -0.13391211969E+01 -0.80858540072E+00 -0.86281102470E+01  0.87687708583E+01  0.00000000000E+00 0. -1.
<mgrwt>
<rscale>  0 0.79017691E+02</rscale>
<asrwt>0</asrwt>
<pdfrwt beam="1">  1        2 0.71695753E-03 0.79017691E+02</pdfrwt>
<pdfrwt beam="2">  1       -1 0.51530996E-01 0.79017691E+02</pdfrwt>
<totfact> 0.85149910E+04</totfact>
</mgrwt>
</event>
<event>
 8    1  0.1226832E-024  0.8063260E+02  0.7818608E-02  0.1327266E+00
         -1   -1    0    0    0  501 -0.00000000000E+00  0.00000000000E+00  0.18268228173E+01  0.18268297697E+01  0.50400000000E-02 0.  1.
          2   -1    0    0  501    0  0.00000000000E+00 -0.00000000000E+00 -0.88974194140E+03  0.88974194140E+03  0.25500000000E-02 0. -1.
         24    2    1    2    0    0  0.00000000000E+00  0.11102230246E-15 -0.88791511858E+03  0.89156877117E+03  0.80632598394E+02 0.  0.
         66    2    3    3    0    0 -0.22271811682E+02  0.57479015828E+00 -0.81543415110E+03  0.81574090169E+03  0.19999820579E+01 0.  0.
        -13    1    3    3    0    0  0.22271811682E+02 -0.57479015828E+00 -0.72480967479E+02  0.75827869481E+02  0.10566000000E+00 0.  1.
         13    1    4    4    0    0 -0.10769447984E+01  0.21217346994E+00 -0.36039706322E+02  0.36056572543E+02  0.10566000000E+00 0. -1.
        -13    1    4    4    0    0 -0.20519762966E+01  0.46342064580E+00 -0.84589182493E+02  0.84615402406E+02  0.10566000000E+00 0.  1.
         14    1    4    4    0    0 -0.19142890587E+02 -0.10080395747E+00 -0.69480526229E+03  0.69506892674E+03  0.00000000000E+00 0. -1.
<mgrwt>
<rscale>  0 0.80632598E+02</rscale>
<asrwt>0</asrwt>
<pdfrwt beam="1">  1        2 0.13688303E+00 0.80632598E+02</pdfrwt>
<pdfrwt beam="2">  1       -1 0.28105091E-03 0.80632598E+02</pdfrwt>
<totfact> 0.34194325E+05</totfact>
</mgrwt>
</event>
<event>
 8    1  0.1226832E-024  0.7973153E+02  0.7818608E-02  0.1329815E+00
          2   -1    0    0  501    0  0.00000000000E+00  0.00000000000E+00  0.51592784289E+03  0.51592784289E+03  0.25500000000E-02 0. -1.
         -1   -1    0    0    0  501 -0.00000000000E+00 -0.00000000000E+00 -0.30804268583E+01  0.30804309813E+01  0.50400000000E-02 0.  1.
         24    2    1    2    0    0  0.44408920985E-15  0.00000000000E+00  0.51284741603E+03  0.51900827387E+03  0.79731525904E+02 0.  0.
         66    2    3    3    0    0  0.37496060301E+01  0.28701250382E+02  0.43478815031E+03  0.43575515713E+03  0.19999994641E+01 0.  0.
        -13    1    3    3    0    0 -0.37496060301E+01 -0.28701250382E+02  0.78059265718E+02  0.83253116742E+02  0.10566000000E+00 0.  1.
         13    1    4    4    0    0  0.28493285360E+01  0.16303214262E+02  0.25233761079E+03  0.25287980238E+03  0.10566000000E+00 0. -1.
        -13    1    4    4    0    0 -0.16001854663E-01  0.51871262395E+01  0.76910802317E+02  0.77085596656E+02  0.10566000000E+00 0.  1.
        -14    1    4    4    0    0  0.91627934873E+00  0.72109098802E+01  0.10553973720E+03  0.10578975809E+03  0.00000000000E+00 0.  1.
<mgrwt>
<rscale>  0 0.79731526E+02</rscale>
<asrwt>0</asrwt>
<pdfrwt beam="1">  1        2 0.79373464E-01 0.79731526E+02</pdfrwt>
<pdfrwt beam="2">  1       -1 0.47391245E-03 0.79731526E+02</pdfrwt>
<totfact> 0.31024817E+05</totfact>
</mgrwt>
</event>
<event>
 8    1  0.1226832E-024  0.8075744E+02  0.7818608E-02  0.1326916E+00
         -1   -1    0    0    0  501 -0.00000000000E+00  0.00000000000E+00  0.36979066610E+01  0.36979100956E+01  0.50400000000E-02 0.  1.
          2   -1    0    0  501    0  0.00000000000E+00 -0.00000000000E+00 -0.44090893202E+03  0.44090893203E+03  0.25500000000E-02 0. -1.
         24    2    1    2    0    0 -0.35527136788E-14  0.00000000000E+00 -0.43721102536E+03  0.44460684212E+03  0.80757435368E+02 0.  0.
         66    2    3    3    0    0 -0.24603621553E+02 -0.20896125198E+02 -0.35206341415E+03  0.35354580161E+03  0.20000016865E+01 0.  0.
        -13    1    3    3    0    0  0.24603621553E+02  0.20896125198E+02 -0.85147611204E+02  0.91061040514E+02  0.10566000000E+00 0.  1.
         13    1    4    4    0    0 -0.11229713134E+02 -0.99768185102E+01 -0.16840132502E+03  0.16906998786E+03  0.10566000000E+00 0. -1.
        -13    1    4    4    0    0 -0.66136032451E+01 -0.50333921081E+01 -0.82732461218E+02  0.83148939183E+02  0.10566000000E+00 0.  1.
        -14    1    4    4    0    0 -0.67603051740E+01 -0.58859145795E+01 -0.10092962792E+03  0.10132687456E+03  0.00000000000E+00 0.  1.
<mgrwt>
<rscale>  0 0.80757435E+02</rscale>
<asrwt>0</asrwt>
<pdfrwt beam="1">  1        2 0.67832102E-01 0.80757435E+02</pdfrwt>
<pdfrwt beam="2">  1       -1 0.56890933E-03 0.80757435E+02</pdfrwt>
<totfact> 0.28506820E+05</totfact>
</mgrwt>
</event>
<event>
 8    1  0.1226832E-024  0.7992412E+02  0.7818608E-02  0.1329267E+00
          2   -1    0    0  501    0  0.00000000000E+00  0.00000000000E+00  0.64175485748E+03  0.64175485748E+03  0.25500000000E-02 0. -1.
         -1   -1    0    0    0  501 -0.00000000000E+00 -0.00000000000E+00 -0.24884338534E+01  0.24884389574E+01  0.50400000000E-02 0.  1.
         24    2    1    2    0    0  0.35527136788E-14  0.00000000000E+00  0.63926642363E+03  0.64424329644E+03  0.79924117979E+02 0.  0.
         66    2    3    3    0    0  0.24025049122E+02  0.30026277681E+02  0.40671671390E+03  0.40853551338E+03  0.19999982664E+01 0.  0.
        -13    1    3    3    0    0 -0.24025049122E+02 -0.30026277681E+02  0.23254970973E+03  0.23570778306E+03  0.10566000000E+00 0.  1.
         13    1    4    4    0    0  0.59336738898E+01  0.70665521094E+01  0.93718062838E+02  0.94171286020E+02  0.10566000000E+00 0. -1.
        -13    1    4    4    0    0  0.42751242179E+01  0.64167732553E+01  0.79986224981E+02  0.80357071978E+02  0.10566000000E+00 0.  1.
         14    1    4    4    0    0  0.13816251014E+02  0.16542952316E+02  0.23301242608E+03  0.23400715538E+03  0.00000000000E+00 0. -1.
<mgrwt>
<rscale>  0 0.79924118E+02</rscale>
<asrwt>0</asrwt>
<pdfrwt beam="1">  1        2 0.98731534E-01 0.79924118E+02</pdfrwt>
<pdfrwt beam="2">  1       -1 0.38283630E-03 0.79924118E+02</pdfrwt>
<totfact> 0.32830896E+05</totfact>
</mgrwt>
</event>
<event>
 8    1  0.1226832E-024  0.8120552E+02  0.7818608E-02  0.1325665E+00
          2   -1    0    0  501    0  0.00000000000E+00  0.00000000000E+00  0.55599213414E+03  0.55599213415E+03  0.25500000000E-02 0. -1.
         -1   -1    0    0    0  501 -0.00000000000E+00 -0.00000000000E+00 -0.29651188427E+01  0.29651231261E+01  0.50400000000E-02 0.  1.
         24    2    1    2    0    0 -0.17763568394E-14  0.00000000000E+00  0.55302701530E+03  0.55895725727E+03  0.81205515873E+02 0.  0.
         66    2    3    3    0    0 -0.14315388710E+02  0.74210573764E+01  0.53299043708E+03  0.53323804117E+03  0.20000198288E+01 0.  0.
        -13    1    3    3    0    0  0.14315388710E+02 -0.74210573764E+01  0.20036578216E+02  0.25719216106E+02  0.10566000000E+00 0.  1.
         13    1    4    4    0    0 -0.69711795477E+01  0.40338132901E+01  0.28454833396E+03  0.28466231664E+03  0.10566000000E+00 0. -1.
        -13    1    4    4    0    0 -0.27013720049E+01  0.14286480387E+01  0.10789051647E+03  0.10793383693E+03  0.10566000000E+00 0.  1.
         14    1    4    4    0    0 -0.46428371570E+01  0.19585960475E+01  0.14055158665E+03  0.14064188759E+03  0.00000000000E+00 0. -1.
<mgrwt>
<rscale>  0 0.81205516E+02</rscale>
<asrwt>0</asrwt>
<pdfrwt beam="1">  1        2 0.85537224E-01 0.81205516E+02</pdfrwt>
<pdfrwt beam="2">  1       -1 0.45617261E-03 0.81205516E+02</pdfrwt>
<totfact> 0.30262225E+05</totfact>
</mgrwt>
</event>
<event>
 8    1  0.1226832E-024  0.8355846E+02  0.7818608E-02  0.1319246E+00
          2   -1    0    0  501    0  0.00000000000E+00  0.00000000000E+00  0.24640711703E+03  0.24640711704E+03  0.25500000000E-02 0. -1.
         -1   -1    0    0    0  501 -0.00000000000E+00 -0.00000000000E+00 -0.70838213547E+01  0.70838231477E+01  0.50400000000E-02 0.  1.
         24    2    1    2    0    0 -0.71054273576E-14  0.44408920985E-15  0.23932329567E+03  0.25349094019E+03  0.83558463999E+02 0.  0.
         66    2    3    3    0    0 -0.40909035355E+02 -0.20010250392E+01  0.95094247800E+02  0.10355901334E+03  0.20000009936E+01 0.  0.
        -13    1    3    3    0    0  0.40909035355E+02  0.20010250392E+01  0.14422904787E+03  0.14993192685E+03  0.10566000000E+00 0.  1.
         13    1    4    4    0    0 -0.25053466166E+02 -0.13384309949E+01  0.60153498153E+02  0.65176085097E+02  0.10566000000E+00 0. -1.
        -13    1    4    4    0    0 -0.14954466010E+01  0.94948039710E-01  0.30420163785E+01  0.33926985350E+01  0.10566000000E+00 0.  1.
        -14    1    4    4    0    0 -0.14360122588E+02 -0.75754208401E+00  0.31898733269E+02  0.34990229706E+02  0.00000000000E+00 0.  1.
<mgrwt>
<rscale>  0 0.83558464E+02</rscale>
<asrwt>0</asrwt>
<pdfrwt beam="1">  1        2 0.37908784E-01 0.83558464E+02</pdfrwt>
<pdfrwt beam="2">  1       -1 0.10898189E-02 0.83558464E+02</pdfrwt>
<totfact> 0.21172031E+05</totfact>
</mgrwt>
</event>
<event>
 8    1  0.1226832E-024  0.7967869E+02  0.7818608E-02  0.1329966E+00
          2   -1    0    0  501    0  0.00000000000E+00  0.00000000000E+00  0.17619595721E+03  0.17619595723E+03  0.25500000000E-02 0. -1.
         -1   -1    0    0    0  501 -0.00000000000E+00 -0.00000000000E+00 -0.90080014989E+01  0.90080029088E+01  0.50400000000E-02 0.  1.
         24    2    1    2    0    0  0.00000000000E+00  0.00000000000E+00  0.16718795571E+03  0.18520396014E+03  0.79678694239E+02 0.  0.
         66    2    3    3    0    0  0.39713871114E+02 -0.20791518174E+01  0.88089779197E+02  0.96671214088E+02  0.20000007880E+01 0.  0.
        -13    1    3    3    0    0 -0.39713871114E+02  0.20791518174E+01  0.79098176512E+02  0.88532746047E+02  0.10566000000E+00 0.  1.
         13    1    4    4    0    0  0.25456783265E+02 -0.15260278289E+01  0.58411982145E+02  0.63736546795E+02  0.10566000000E+00 0. -1.
        -13    1    4    4    0    0  0.17582946070E+01 -0.11170649618E+00  0.33095154043E+01  0.37507511932E+01  0.10566000000E+00 0.  1.
         14    1    4    4    0    0  0.12498793241E+02 -0.44141749239E+00  0.26368281648E+02  0.29183916100E+02  0.00000000000E+00 0. -1.
<mgrwt>
<rscale>  0 0.79678694E+02</rscale>
<asrwt>0</asrwt>
<pdfrwt beam="1">  1        2 0.27107070E-01 0.79678694E+02</pdfrwt>
<pdfrwt beam="2">  1       -1 0.13858465E-02 0.79678694E+02</pdfrwt>
<totfact> 0.21347132E+05</totfact>
</mgrwt>
</event>
<event>
 8    1  0.1226832E-024  0.7507685E+02  0.7818608E-02  0.1343633E+00
         -1   -1    0    0    0  501 -0.00000000000E+00  0.00000000000E+00  0.97828053778E+02  0.97828053908E+02  0.50400000000E-02 0.  1.
          2   -1    0    0  501    0  0.00000000000E+00 -0.00000000000E+00 -0.14404183944E+02  0.14404184169E+02  0.25500000000E-02 0. -1.
         24    2    1    2    0    0  0.00000000000E+00  0.00000000000E+00  0.83423869835E+02  0.11223223808E+03  0.75076848667E+02 0.  0.
         66    2    3    3    0    0  0.46423961411E+00  0.37166604047E+02  0.34184237468E+02  0.50538441514E+02  0.20000011422E+01 0.  0.
        -13    1    3    3    0    0 -0.46423961411E+00 -0.37166604047E+02  0.49239632366E+02  0.61693796564E+02  0.10566000000E+00 0.  1.
         13    1    4    4    0    0  0.37572217601E+00  0.58977698600E+01  0.54835209987E+01  0.80625692589E+01  0.10566000000E+00 0. -1.
        -13    1    4    4    0    0 -0.26820237781E+00  0.14673091573E+02  0.14499107054E+02  0.20630240382E+02  0.10566000000E+00 0.  1.
         14    1    4    4    0    0  0.35671981591E+00  0.16595742614E+02  0.14201609415E+02  0.21845631873E+02  0.00000000000E+00 0. -1.
<mgrwt>
<rscale>  0 0.75076849E+02</rscale>
<asrwt>0</asrwt>
<pdfrwt beam="1">  1        2 0.22160282E-02 0.75076849E+02</pdfrwt>
<pdfrwt beam="2">  1       -1 0.15050470E-01 0.75076849E+02</pdfrwt>
<totfact> 0.13949296E+05</totfact>
</mgrwt>
</event>
<event>
 8    1  0.1226832E-024  0.8009210E+02  0.7818608E-02  0.1328790E+00
          2   -1    0    0  501    0  0.00000000000E+00  0.00000000000E+00  0.16046582341E+03  0.16046582343E+03  0.25500000000E-02 0. -1.
         -1   -1    0    0    0  501 -0.00000000000E+00 -0.00000000000E+00 -0.99939410073E+01  0.99939422782E+01  0.50400000000E-02 0.  1.
         24    2    1    2    0    0  0.00000000000E+00  0.00000000000E+00  0.15047188240E+03  0.17045976571E+03  0.80092099058E+02 0.  0.
         66    2    3    3    0    0  0.18037466395E+02  0.26604974379E+02  0.12602849384E+03  0.13007826915E+03  0.19999975141E+01 0.  0.
        -13    1    3    3    0    0 -0.18037466395E+02 -0.26604974379E+02  0.24443388559E+02  0.40381496554E+02  0.10566000000E+00 0.  1.
         13    1    4    4    0    0  0.70405302379E+01  0.11014734511E+02  0.51511488964E+02  0.53144502083E+02  0.10566000000E+00 0. -1.
        -13    1    4    4    0    0  0.86480105127E+01  0.11181732002E+02  0.54874599207E+02  0.56666145259E+02  0.10566000000E+00 0.  1.
         14    1    4    4    0    0  0.23489256441E+01  0.44085078658E+01  0.19642405671E+02  0.20267621810E+02  0.00000000000E+00 0. -1.
<mgrwt>
<rscale>  0 0.80092099E+02</rscale>
<asrwt>0</asrwt>
<pdfrwt beam="1">  1        2 0.24687050E-01 0.80092099E+02</pdfrwt>
<pdfrwt beam="2">  1       -1 0.15375295E-02 0.80092099E+02</pdfrwt>
<totfact> 0.20412071E+05</totfact>
</mgrwt>
</event>
<event>
 8    1  0.1226832E-024  0.7830722E+02  0.7818608E-02  0.1333925E+00
          2   -1    0    0  501    0  0.00000000000E+00  0.00000000000E+00  0.42202810465E+02  0.42202810542E+02  0.25500000000E-02 0. -1.
         -1   -1    0    0    0  501 -0.00000000000E+00 -0.00000000000E+00 -0.36324715964E+02  0.36324716314E+02  0.50400000000E-02 0.  1.
         24    2    1    2    0    0  0.00000000000E+00  0.00000000000E+00  0.58780945006E+01  0.78527526855E+02  0.78307218563E+02 0.  0.
         66    2    3    3    0    0  0.18428171197E+02 -0.22378349749E+02  0.29294394172E+02  0.41261962516E+02  0.19999974023E+01 0.  0.
        -13    1    3    3    0    0 -0.18428171197E+02  0.22378349749E+02 -0.23416299672E+02  0.37265564339E+02  0.10566000000E+00 0.  1.
         13    1    4    4    0    0  0.57977616689E+01 -0.80806030860E+01  0.10921832140E+02  0.14771857295E+02  0.10566000000E+00 0. -1.
        -13    1    4    4    0    0  0.35110141542E+01 -0.36911849565E+01  0.49145072276E+01  0.70792381017E+01  0.10566000000E+00 0.  1.
         14    1    4    4    0    0  0.91193953739E+01 -0.10606561706E+02  0.13458054805E+02  0.19410867120E+02  0.00000000000E+00 0. -1.
<mgrwt>
<rscale>  0 0.78307219E+02</rscale>
<asrwt>0</asrwt>
<pdfrwt beam="1">  1        2 0.64927401E-02 0.78307219E+02</pdfrwt>
<pdfrwt beam="2">  1       -1 0.55884179E-02 0.78307219E+02</pdfrwt>
<totfact> 0.15288387E+05</totfact>
</mgrwt>
</event>
<event>
 8    1  0.1226832E-024  0.7865572E+02  0.7818608E-02  0.1332910E+00
         -1   -1    0    0    0  501 -0.00000000000E+00  0.00000000000E+00  0.90801992085E+01  0.90802006072E+01  0.50400000000E-02 0.  1.
          2   -1    0    0  501    0  0.00000000000E+00 -0.00000000000E+00 -0.17033550476E+03  0.17033550478E+03  0.25500000000E-02 0. -1.
         24    2    1    2    0    0  0.00000000000E+00  0.00000000000E+00 -0.16125530556E+03  0.17941570539E+03  0.78655716709E+02 0.  0.
         66    2    3    3    0    0 -0.17729618832E+02 -0.21241795432E+02 -0.14434936069E+03  0.14699078607E+03  0.20000001035E+01 0.  0.
        -13    1    3    3    0    0  0.17729618832E+02  0.21241795432E+02 -0.16905944863E+02  0.32424919319E+02  0.10566000000E+00 0.  1.
         13    1    4    4    0    0 -0.53794663907E+01 -0.72282435575E+01 -0.45019423567E+02  0.45912371164E+02  0.10566000000E+00 0. -1.
        -13    1    4    4    0    0 -0.72250866361E+01 -0.76143798420E+01 -0.58267633431E+02  0.59205649451E+02  0.10566000000E+00 0.  1.
        -14    1    4    4    0    0 -0.51250658049E+01 -0.63991720329E+01 -0.41062303696E+02  0.41872765457E+02  0.00000000000E+00 0.  1.
<mgrwt>
<rscale>  0 0.78655717E+02</rscale>
<asrwt>0</asrwt>
<pdfrwt beam="1">  1        2 0.26205460E-01 0.78655717E+02</pdfrwt>
<pdfrwt beam="2">  1       -1 0.13969540E-02 0.78655717E+02</pdfrwt>
<totfact> 0.21840164E+05</totfact>
</mgrwt>
</event>
<event>
 8    1  0.1226832E-024  0.8149080E+02  0.7818608E-02  0.1324873E+00
          2   -1    0    0  501    0  0.00000000000E+00  0.00000000000E+00  0.12298786652E+04  0.12298786652E+04  0.25500000000E-02 0. -1.
         -1   -1    0    0    0  501 -0.00000000000E+00 -0.00000000000E+00 -0.13498745416E+01  0.13498839504E+01  0.50400000000E-02 0.  1.
         24    2    1    2    0    0  0.22204460493E-15  0.00000000000E+00  0.12285287907E+04  0.12312285492E+04  0.81490801770E+02 0.  0.
         66    2    3    3    0    0  0.11312129028E+01 -0.28175028977E+02  0.10585008121E+04  0.10588782183E+04  0.20000001436E+01 0.  0.
        -13    1    3    3    0    0 -0.11312129028E+01  0.28175028977E+02  0.17002797860E+03  0.17235033093E+03  0.10566000000E+00 0.  1.
         13    1    4    4    0    0  0.38129299588E+00 -0.23175211450E+01  0.93550752920E+02  0.93580290791E+02  0.10566000000E+00 0. -1.
        -13    1    4    4    0    0  0.12044204440E+01 -0.19833161490E+02  0.74407614246E+03  0.74434140141E+03  0.10566000000E+00 0.  1.
         14    1    4    4    0    0 -0.45450053708E+00 -0.60243463417E+01  0.22087391673E+03  0.22095652606E+03  0.00000000000E+00 0. -1.
<mgrwt>
<rscale>  0 0.81490802E+02</rscale>
<asrwt>0</asrwt>
<pdfrwt beam="1">  1        2 0.18921318E+00 0.81490802E+02</pdfrwt>
<pdfrwt beam="2">  1       -1 0.20767255E-03 0.81490802E+02</pdfrwt>
<totfact> 0.33296021E+05</totfact>
</mgrwt>
</event>
<event>
 8    1  0.1226832E-024  0.8443818E+02  0.7818608E-02  0.1316908E+00
          2   -1    0    0  501    0  0.00000000000E+00  0.00000000000E+00  0.39903753987E+02  0.39903754068E+02  0.25500000000E-02 0. -1.
         -1   -1    0    0    0  501 -0.00000000000E+00 -0.00000000000E+00 -0.44668767700E+02  0.44668767985E+02  0.50400000000E-02 0.  1.
         24    2    1    2    0    0  0.00000000000E+00  0.88817841970E-15 -0.47650137136E+01  0.84572522053E+02  0.84438179342E+02 0.  0.
         66    2    3    3    0    0 -0.95171795210E+01  0.78482163413E+01  0.38032254152E+02  0.40032781297E+02  0.20000041705E+01 0.  0.
        -13    1    3    3    0    0  0.95171795210E+01 -0.78482163413E+01 -0.42797267866E+02  0.44539740756E+02  0.10566000000E+00 0.  1.
         13    1    4    4    0    0 -0.22252810692E+01  0.13998732395E+01  0.99228607494E+01  0.10265761073E+02  0.10566000000E+00 0. -1.
        -13    1    4    4    0    0 -0.23767901126E+01  0.19551855015E+01  0.74682032991E+01  0.80781870576E+01  0.10566000000E+00 0.  1.
         14    1    4    4    0    0 -0.49151083391E+01  0.44931576003E+01  0.20641190104E+02  0.21688833166E+02  0.00000000000E+00 0. -1.
<mgrwt>
<rscale>  0 0.84438179E+02</rscale>
<asrwt>0</asrwt>
<pdfrwt beam="1">  1        2 0.61390391E-02 0.84438179E+02</pdfrwt>
<pdfrwt beam="2">  1       -1 0.68721182E-02 0.84438179E+02</pdfrwt>
<totfact> 0.12264546E+05</totfact>
</mgrwt>
</event>
<event>
 8    1  0.1226832E-024  0.8054785E+02  0.7818608E-02  0.1327504E+00
          2   -1    0    0  501    0  0.00000000000E+00  0.00000000000E+00  0.15745913864E+03  0.15745913866E+03  0.25500000000E-02 0. -1.
         -1   -1    0    0    0  501 -0.00000000000E+00 -0.00000000000E+00 -0.10301014582E+02  0.10301015815E+02  0.50400000000E-02 0.  1.
         24    2    1    2    0    0 -0.35527136788E-14 -0.88817841970E-15  0.14715812406E+03  0.16776015448E+03  0.80547848844E+02 0.  0.
         66    2    3    3    0    0 -0.22046753491E+02  0.67046735008E+01  0.14235380677E+03  0.14422072766E+03  0.19999995987E+01 0.  0.
        -13    1    3    3    0    0  0.22046753491E+02 -0.67046735008E+01  0.48043172888E+01  0.23539426817E+02  0.10566000000E+00 0.  1.
         13    1    4    4    0    0 -0.42988806945E+01  0.90610932923E+00  0.26055643185E+02  0.26423646894E+02  0.10566000000E+00 0. -1.
        -13    1    4    4    0    0 -0.61875669304E+01  0.13413517706E+01  0.41181137165E+02  0.41665122480E+02  0.10566000000E+00 0.  1.
         14    1    4    4    0    0 -0.11560305866E+02  0.44572124010E+01  0.75117026421E+02  0.76131958285E+02  0.00000000000E+00 0. -1.
<mgrwt>
<rscale>  0 0.80547849E+02</rscale>
<asrwt>0</asrwt>
<pdfrwt beam="1">  1        2 0.24224480E-01 0.80547849E+02</pdfrwt>
<pdfrwt beam="2">  1       -1 0.15847718E-02 0.80547849E+02</pdfrwt>
<totfact> 0.19982980E+05</totfact>
</mgrwt>
</event>
<event>
 8    1  0.1226832E-024  0.8090188E+02  0.7818608E-02  0.1326511E+00
          2   -1    0    0  501    0  0.00000000000E+00  0.00000000000E+00  0.75437794717E+02  0.75437794760E+02  0.25500000000E-02 0. -1.
         -1   -1    0    0    0  501 -0.00000000000E+00 -0.00000000000E+00 -0.21690433654E+02  0.21690434239E+02  0.50400000000E-02 0.  1.
         24    2    1    2    0    0  0.00000000000E+00  0.00000000000E+00  0.53747361063E+02  0.97128228999E+02  0.80901879133E+02 0.  0.
         66    2    3    3    0    0  0.93115840646E+01 -0.23777943591E+02  0.64515518114E+02  0.69414323293E+02  0.20000003772E+01 0.  0.
        -13    1    3    3    0    0 -0.93115840646E+01  0.23777943591E+02 -0.10768157051E+02  0.27713905706E+02  0.10566000000E+00 0.  1.
         13    1    4    4    0    0  0.83945911187E+01 -0.21413906289E+02  0.58516066447E+02  0.62874205673E+02  0.10566000000E+00 0. -1.
        -13    1    4    4    0    0 -0.40113891583E-01 -0.13575295917E+00  0.47606355906E+00  0.50777804018E+00  0.10566000000E+00 0.  1.
         14    1    4    4    0    0  0.95710683748E+00 -0.22282843423E+01  0.55233881082E+01  0.60323395795E+01  0.00000000000E+00 0. -1.
<mgrwt>
<rscale>  0 0.80901879E+02</rscale>
<asrwt>0</asrwt>
<pdfrwt beam="1">  1        2 0.11605814E-01 0.80901879E+02</pdfrwt>
<pdfrwt beam="2">  1       -1 0.33369899E-02 0.80901879E+02</pdfrwt>
<totfact> 0.15957615E+05</totfact>
</mgrwt>
</event>
<event>
 8    1  0.1226832E-024  0.8054794E+02  0.7818608E-02  0.1327504E+00
          2   -1    0    0  501    0  0.00000000000E+00  0.00000000000E+00  0.27592503129E+02  0.27592503247E+02  0.25500000000E-02 0. -1.
         -1   -1    0    0    0  501 -0.00000000000E+00 -0.00000000000E+00 -0.58783813382E+02  0.58783813598E+02  0.50400000000E-02 0.  1.
         24    2    1    2    0    0  0.00000000000E+00  0.00000000000E+00 -0.31191310253E+02  0.86376316845E+02  0.80547937755E+02 0.  0.
         66    2    3    3    0    0  0.27037631572E+02 -0.22063555462E+02  0.58995976656E+01  0.35449107861E+02  0.19999987159E+01 0.  0.
        -13    1    3    3    0    0 -0.27037631572E+02  0.22063555462E+02 -0.37090907918E+02  0.50927208984E+02  0.10566000000E+00 0.  1.
         13    1    4    4    0    0  0.54078218470E+01 -0.50182417670E+01  0.63524130729E+00  0.74055373279E+01  0.10566000000E+00 0. -1.
        -13    1    4    4    0    0  0.20974856110E+02 -0.16647998351E+02  0.51099642059E+01  0.27262122737E+02  0.10566000000E+00 0.  1.
         14    1    4    4    0    0  0.65495361524E+00 -0.39731534463E+00  0.15439215245E+00  0.78144779604E+00  0.00000000000E+00 0. -1.
<mgrwt>
<rscale>  0 0.80547938E+02</rscale>
<asrwt>0</asrwt>
<pdfrwt beam="1">  1        2 0.42450005E-02 0.80547938E+02</pdfrwt>
<pdfrwt beam="2">  1       -1 0.90436636E-02 0.80547938E+02</pdfrwt>
<totfact> 0.12983189E+05</totfact>
</mgrwt>
</event>
<event>
 8    1  0.1226832E-024  0.7946436E+02  0.7818608E-02  0.1330578E+00
          2   -1    0    0  501    0  0.00000000000E+00  0.00000000000E+00  0.28964661303E+02  0.28964661415E+02  0.25500000000E-02 0. -1.
         -1   -1    0    0    0  501 -0.00000000000E+00 -0.00000000000E+00 -0.54502484181E+02  0.54502484415E+02  0.50400000000E-02 0.  1.
         24    2    1    2    0    0  0.17763568394E-14 -0.71054273576E-14 -0.25537822879E+02  0.83467145830E+02  0.79464357013E+02 0.  0.
         66    2    3    3    0    0  0.10182868989E+02 -0.34540771208E+02  0.47955116786E+01  0.36383411421E+02  0.19999994694E+01 0.  0.
        -13    1    3    3    0    0 -0.10182868989E+02  0.34540771208E+02 -0.30333334557E+02  0.47083734409E+02  0.10566000000E+00 0.  1.
         13    1    4    4    0    0  0.32849349160E+01 -0.99140416120E+01  0.21068493302E+01  0.10654998668E+02  0.10566000000E+00 0. -1.
        -13    1    4    4    0    0  0.13324630349E+00 -0.41404621437E+00  0.51753642221E-01  0.45058996895E+00  0.10566000000E+00 0. -1.
        -14    1    4    4    0    0  0.67646877691E+01 -0.24212683382E+02  0.26369087062E+01  0.25277822784E+02  0.00000000000E+00 0.  1.
<mgrwt>
<rscale>  0 0.79464357E+02</rscale>
<asrwt>0</asrwt>
<pdfrwt beam="1">  1        2 0.44561018E-02 0.79464357E+02</pdfrwt>
<pdfrwt beam="2">  1       -1 0.83849976E-02 0.79464357E+02</pdfrwt>
<totfact> 0.13616677E+05</totfact>
</mgrwt>
</event>
<event>
 8    1  0.1226832E-024  0.7965528E+02  0.7818608E-02  0.1330033E+00
          2   -1    0    0  501    0  0.00000000000E+00  0.00000000000E+00  0.24022604036E+02  0.24022604171E+02  0.25500000000E-02 0. -1.
         -1   -1    0    0    0  501 -0.00000000000E+00 -0.00000000000E+00 -0.66031174019E+02  0.66031174211E+02  0.50400000000E-02 0.  1.
         24    2    1    2    0    0 -0.17763568394E-14  0.35527136788E-14 -0.42008569983E+02  0.90053778382E+02  0.79655276340E+02 0.  0.
         66    2    3    3    0    0  0.11056014436E+02 -0.24094315682E+02  0.12547750291E+02  0.29397577138E+02  0.20000002099E+01 0.  0.
        -13    1    3    3    0    0 -0.11056014436E+02  0.24094315682E+02 -0.54556320274E+02  0.60656201244E+02  0.10566000000E+00 0.  1.
         13    1    4    4    0    0  0.82491078379E+01 -0.17872275803E+02  0.88900382396E+01  0.21598841785E+02  0.10566000000E+00 0. -1.
        -13    1    4    4    0    0  0.14771614106E+01 -0.42362933229E+01  0.25873824496E+01  0.51801446820E+01  0.10566000000E+00 0.  1.
        -14    1    4    4    0    0  0.13297451874E+01 -0.19857465558E+01  0.10703296019E+01  0.26185906714E+01  0.00000000000E+00 0.  1.
<mgrwt>
<rscale>  0 0.79655276E+02</rscale>
<asrwt>0</asrwt>
<pdfrwt beam="1">  1        2 0.36957853E-02 0.79655276E+02</pdfrwt>
<pdfrwt beam="2">  1       -1 0.10158642E-01 0.79655276E+02</pdfrwt>
<totfact> 0.13037282E+05</totfact>
</mgrwt>
</event>
<event>
 8    1  0.1226832E-024  0.8772038E+02  0.7818608E-02  0.1308468E+00
          2   -1    0    0  501    0  0.00000000000E+00  0.00000000000E+00  0.21223709978E+03  0.21223709980E+03  0.25500000000E-02 0. -1.
         -1   -1    0    0    0  501 -0.00000000000E+00 -0.00000000000E+00 -0.90639957204E+01  0.90639971216E+01  0.50400000000E-02 0.  1.
         24    2    1    2    0    0  0.00000000000E+00 -0.17763568394E-14  0.20317310406E+03  0.22130109692E+03  0.87720381232E+02 0.  0.
         66    2    3    3    0    0  0.25634750586E+02 -0.12051765570E+02  0.18604287735E+03  0.18819760281E+03  0.19999999865E+01 0.  0.
        -13    1    3    3    0    0 -0.25634750586E+02  0.12051765570E+02  0.17130226711E+02  0.33103494108E+02  0.10566000000E+00 0.  1.
         13    1    4    4    0    0  0.58662997759E+01 -0.21801241899E+01  0.38396528671E+02  0.38903354516E+02  0.10566000000E+00 0.  1.
        -13    1    4    4    0    0  0.14438447987E+02 -0.67310105694E+01  0.10754818972E+03  0.10872166095E+03  0.10566000000E+00 0. -1.
        -14    1    4    4    0    0  0.53300028231E+01 -0.31406308111E+01  0.40098158960E+02  0.40572587347E+02  0.00000000000E+00 0.  1.
<mgrwt>
<rscale>  0 0.87720381E+02</rscale>
<asrwt>0</asrwt>
<pdfrwt beam="1">  1        2 0.32651857E-01 0.87720381E+02</pdfrwt>
<pdfrwt beam="2">  1       -1 0.13944612E-02 0.87720381E+02</pdfrwt>
<totfact> 0.17644685E+05</totfact>
</mgrwt>
</event>
<event>
 8    1  0.1226832E-024  0.7962330E+02  0.7818608E-02  0.1330124E+00
          2   -1    0    0  501    0  0.00000000000E+00  0.00000000000E+00  0.44911003501E+03  0.44911003502E+03  0.25500000000E-02 0. -1.
         -1   -1    0    0    0  501 -0.00000000000E+00 -0.00000000000E+00 -0.35291276545E+01  0.35291312533E+01  0.50400000000E-02 0.  1.
         24    2    1    2    0    0  0.00000000000E+00  0.00000000000E+00  0.44558090736E+03  0.45263916627E+03  0.79623299620E+02 0.  0.
         66    2    3    3    0    0 -0.22132693834E+02  0.21210197899E+02  0.36710776839E+03  0.36839088241E+03  0.19999988113E+01 0.  0.
        -13    1    3    3    0    0  0.22132693834E+02 -0.21210197899E+02  0.78473138965E+02  0.84248283865E+02  0.10566000000E+00 0.  1.
         13    1    4    4    0    0 -0.39371669394E+01  0.39739906083E+01  0.69789198929E+02  0.70013122599E+02  0.10566000000E+00 0. -1.
        -13    1    4    4    0    0 -0.31308315869E+01  0.30219577662E+01  0.44621414177E+02  0.44833203124E+02  0.10566000000E+00 0.  1.
         14    1    4    4    0    0 -0.15064695307E+02  0.14214249524E+02  0.25269715529E+03  0.25354455668E+03  0.00000000000E+00 0. -1.
<mgrwt>
<rscale>  0 0.79623300E+02</rscale>
<asrwt>0</asrwt>
<pdfrwt beam="1">  1        2 0.69093856E-01 0.79623300E+02</pdfrwt>
<pdfrwt beam="2">  1       -1 0.54294296E-03 0.79623300E+02</pdfrwt>
<totfact> 0.29763121E+05</totfact>
</mgrwt>
</event>
<event>
 8    1  0.1226832E-024  0.8268671E+02  0.7818608E-02  0.1321595E+00
         -1   -1    0    0    0  501 -0.00000000000E+00  0.00000000000E+00  0.70473705384E+02  0.70473705565E+02  0.50400000000E-02 0.  1.
          2   -1    0    0  501    0  0.00000000000E+00 -0.00000000000E+00 -0.24254054215E+02  0.24254054349E+02  0.25500000000E-02 0. -1.
         24    2    1    2    0    0  0.27755575616E-16  0.00000000000E+00  0.46219651169E+02  0.94727759914E+02  0.82686712017E+02 0.  0.
         66    2    3    3    0    0  0.15916898680E+00 -0.31951641933E+02 -0.68897121699E+01  0.32747534073E+02  0.20000242857E+01 0.  0.
        -13    1    3    3    0    0 -0.15916898680E+00  0.31951641933E+02  0.53109363339E+02  0.61980225841E+02  0.10566000000E+00 0.  1.
         13    1    4    4    0    0  0.25872632655E+00 -0.52356394917E+01 -0.17832359431E+01  0.55380461052E+01  0.10566000000E+00 0. -1.
        -13    1    4    4    0    0 -0.29935499780E+00 -0.14860737517E+02 -0.25804733018E+01  0.15086455497E+02  0.10566000000E+00 0.  1.
         14    1    4    4    0    0  0.19979765804E+00 -0.11855264923E+02 -0.25260029250E+01  0.12123032471E+02  0.00000000000E+00 0. -1.
<mgrwt>
<rscale>  0 0.82686712E+02</rscale>
<asrwt>0</asrwt>
<pdfrwt beam="1">  1        2 0.37313929E-02 0.82686712E+02</pdfrwt>
<pdfrwt beam="2">  1       -1 0.10842109E-01 0.82686712E+02</pdfrwt>
<totfact> 0.11745365E+05</totfact>
</mgrwt>
</event>
<event>
 8    1  0.1557462E-024  0.7878737E+02  0.7818608E-02  0.1332528E+00
          2   -1    0    0  501    0  0.00000000000E+00  0.00000000000E+00  0.76098663365E+02  0.76098663407E+02  0.25500000000E-02 0. -1.
         -1   -1    0    0    0  501 -0.00000000000E+00 -0.00000000000E+00 -0.20392766441E+02  0.20392767064E+02  0.50400000000E-02 0.  1.
         24    2    1    2    0    0  0.00000000000E+00  0.00000000000E+00  0.55705896924E+02  0.96491430471E+02  0.78787367022E+02 0.  0.
         66    2    3    3    0    0  0.66223789358E+01 -0.18727840600E+02  0.69497720658E+02  0.72308513314E+02  0.20000011687E+01 0.  0.
        -13    1    3    3    0    0 -0.66223789358E+01  0.18727840600E+02 -0.13791823734E+02  0.24182917158E+02  0.10566000000E+00 0.  1.
         13    1    4    4    0    0  0.31174273892E+01 -0.82198934261E+01  0.30675896777E+02  0.31910919896E+02  0.10566000000E+00 0. -1.
        -13    1    4    4    0    0  0.32538996628E+01 -0.79170229470E+01  0.30455293526E+02  0.31635473494E+02  0.10566000000E+00 0.  1.
        -14    1    4    4    0    0  0.25105188378E+00 -0.25909242265E+01  0.83665303541E+01  0.87621199240E+01  0.00000000000E+00 0.  1.
<mgrwt>
<rscale>  0 0.78787367E+02</rscale>
<asrwt>0</asrwt>
<pdfrwt beam="1">  1        2 0.11707487E-01 0.78787367E+02</pdfrwt>
<pdfrwt beam="2">  1       -1 0.31373488E-02 0.78787367E+02</pdfrwt>
<totfact> 0.17177935E+05</totfact>
</mgrwt>
</event>
<event>
 8    1  0.1226832E-024  0.8119884E+02  0.7818608E-02  0.1325683E+00
          2   -1    0    0  501    0  0.00000000000E+00  0.00000000000E+00  0.11248841108E+03  0.11248841111E+03  0.25500000000E-02 0. -1.
         -1   -1    0    0    0  501 -0.00000000000E+00 -0.00000000000E+00 -0.14653179955E+02  0.14653180822E+02  0.50400000000E-02 0.  1.
         24    2    1    2    0    0 -0.35527136788E-14  0.00000000000E+00  0.97835231124E+02  0.12714159193E+03  0.81198842046E+02 0.  0.
         66    2    3    3    0    0 -0.18297418234E+02  0.24491690843E+01  0.10552273431E+03  0.10714402177E+03  0.20000001051E+01 0.  0.
        -13    1    3    3    0    0  0.18297418234E+02 -0.24491690843E+01 -0.76875031864E+01  0.19997570166E+02  0.10566000000E+00 0.  1.
         13    1    4    4    0    0 -0.10105907382E+02  0.83420182054E+00  0.60062411907E+02  0.60912476102E+02  0.10566000000E+00 0. -1.
        -13    1    4    4    0    0 -0.33332148421E+01  0.30428250478E+00  0.16333289810E+02  0.16673044985E+02  0.10566000000E+00 0.  1.
        -14    1    4    4    0    0 -0.48582960103E+01  0.13106847589E+01  0.29127032593E+02  0.29558500678E+02  0.00000000000E+00 0.  1.
<mgrwt>
<rscale>  0 0.81198842E+02</rscale>
<asrwt>0</asrwt>
<pdfrwt beam="1">  1        2 0.17305909E-01 0.81198842E+02</pdfrwt>
<pdfrwt beam="2">  1       -1 0.22543355E-02 0.81198842E+02</pdfrwt>
<totfact> 0.17618103E+05</totfact>
</mgrwt>
</event>
<event>
 8    1  0.1226832E-024  0.7867695E+02  0.7818608E-02  0.1332849E+00
         -1   -1    0    0    0  501 -0.00000000000E+00  0.00000000000E+00  0.27054146495E+03  0.27054146500E+03  0.50400000000E-02 0.  1.
          2   -1    0    0  501    0  0.00000000000E+00 -0.00000000000E+00 -0.57200677474E+01  0.57200683158E+01  0.25500000000E-02 0. -1.
         24    2    1    2    0    0  0.00000000000E+00  0.00000000000E+00  0.26482139720E+03  0.27626153331E+03  0.78676949432E+02 0.  0.
         66    2    3    3    0    0  0.33732418573E+02 -0.87144756422E+01  0.68545995799E+02  0.76917954262E+02  0.19999998305E+01 0.  0.
        -13    1    3    3    0    0 -0.33732418573E+02  0.87144756422E+01  0.19627540140E+03  0.19934357905E+03  0.10566000000E+00 0.  1.
         13    1    4    4    0    0  0.61614591200E+01 -0.14627018848E+01  0.11848319475E+02  0.13434913982E+02  0.10566000000E+00 0. -1.
        -13    1    4    4    0    0  0.11037798236E+02 -0.37345292700E+01  0.23291661743E+02  0.26044046720E+02  0.10566000000E+00 0.  1.
        -14    1    4    4    0    0  0.16533161217E+02 -0.35172444874E+01  0.33406014581E+02  0.37438993560E+02  0.00000000000E+00 0.  1.
<mgrwt>
<rscale>  0 0.78676949E+02</rscale>
<asrwt>0</asrwt>
<pdfrwt beam="1">  1        2 0.88001049E-03 0.78676949E+02</pdfrwt>
<pdfrwt beam="2">  1       -1 0.41621763E-01 0.78676949E+02</pdfrwt>
<totfact> 0.93908754E+04</totfact>
</mgrwt>
</event>
<event>
 8    1  0.1226832E-024  0.8231234E+02  0.7818608E-02  0.1322615E+00
         -1   -1    0    0    0  501 -0.00000000000E+00  0.00000000000E+00  0.83729018899E+01  0.83729034068E+01  0.50400000000E-02 0.  1.
          2   -1    0    0  501    0  0.00000000000E+00 -0.00000000000E+00 -0.20229907966E+03  0.20229907967E+03  0.25500000000E-02 0. -1.
         24    2    1    2    0    0  0.17763568394E-14  0.71054273576E-14 -0.19392617777E+03  0.21067198308E+03  0.82312344345E+02 0.  0.
         66    2    3    3    0    0 -0.15252888350E+02 -0.34749061334E+02 -0.13762373596E+03  0.14277408927E+03  0.20000000424E+01 0.  0.
        -13    1    3    3    0    0  0.15252888350E+02  0.34749061334E+02 -0.56302441812E+02  0.67897893816E+02  0.10566000000E+00 0.  1.
         13    1    4    4    0    0 -0.12003994133E+01 -0.26305615021E+01 -0.11552326694E+02  0.11909165741E+02  0.10566000000E+00 0. -1.
        -13    1    4    4    0    0 -0.30296075081E+01 -0.64792372627E+01 -0.28074531117E+02  0.28971529104E+02  0.10566000000E+00 0.  1.
        -14    1    4    4    0    0 -0.11022881429E+02 -0.25639262570E+02 -0.97996878146E+02  0.10189339442E+03  0.00000000000E+00 0.  1.
<mgrwt>
<rscale>  0 0.82312344E+02</rscale>
<asrwt>0</asrwt>
<pdfrwt beam="1">  1        2 0.31122932E-01 0.82312344E+02</pdfrwt>
<pdfrwt beam="2">  1       -1 0.12881390E-02 0.82312344E+02</pdfrwt>
<totfact> 0.20540342E+05</totfact>
</mgrwt>
</event>
<event>
 8    1  0.1226832E-024  0.7946542E+02  0.7818608E-02  0.1330575E+00
         -1   -1    0    0    0  501 -0.00000000000E+00  0.00000000000E+00  0.18968146261E+01  0.18968213220E+01  0.50400000000E-02 0.  1.
          2   -1    0    0  501    0  0.00000000000E+00 -0.00000000000E+00 -0.83228238980E+03  0.83228238980E+03  0.25500000000E-02 0. -1.
         24    2    1    2    0    0  0.00000000000E+00  0.00000000000E+00 -0.83038557517E+03  0.83417921112E+03  0.79465419006E+02 0.  0.
         66    2    3    3    0    0  0.21315473535E+02  0.19405600694E+02 -0.70212337720E+03  0.70271769834E+03  0.20000004494E+01 0.  0.
        -13    1    3    3    0    0 -0.21315473535E+02 -0.19405600694E+02 -0.12826219797E+03  0.13146151278E+03  0.10566000000E+00 0.  1.
         13    1    4    4    0    0  0.15288666629E+01  0.14229747681E+01 -0.55515471181E+02  0.55554846728E+02  0.10566000000E+00 0. -1.
        -13    1    4    4    0    0  0.33626515818E+01  0.27233773364E+01 -0.91137345232E+02  0.91240073815E+02  0.10566000000E+00 0.  1.
         14    1    4    4    0    0  0.16423955290E+02  0.15259248590E+02 -0.55547056079E+03  0.55592277780E+03  0.00000000000E+00 0. -1.
<mgrwt>
<rscale>  0 0.79465419E+02</rscale>
<asrwt>0</asrwt>
<pdfrwt beam="1">  1        2 0.12804315E+00 0.79465419E+02</pdfrwt>
<pdfrwt beam="2">  1       -1 0.29181882E-03 0.79465419E+02</pdfrwt>
<totfact> 0.35195040E+05</totfact>
</mgrwt>
</event>
<event>
 8    1  0.1226832E-024  0.7883003E+02  0.7818608E-02  0.1332405E+00
         -1   -1    0    0    0  501 -0.00000000000E+00  0.00000000000E+00  0.13611384151E+03  0.13611384160E+03  0.50400000000E-02 0.  1.
          2   -1    0    0  501    0  0.00000000000E+00 -0.00000000000E+00 -0.11413559313E+02  0.11413559598E+02  0.25500000000E-02 0. -1.
         24    2    1    2    0    0  0.00000000000E+00  0.35527136788E-14  0.12470028219E+03  0.14752740120E+03  0.78830030605E+02 0.  0.
         66    2    3    3    0    0 -0.97791129178E+01 -0.29232866914E+02  0.16497469808E+02  0.35019395574E+02  0.19999997010E+01 0.  0.
        -13    1    3    3    0    0  0.97791129178E+01  0.29232866914E+02  0.10820281238E+03  0.11250800562E+03  0.10566000000E+00 0.  1.
         13    1    4    4    0    0 -0.22554864905E-01 -0.10036535730E+00  0.68973429878E-01  0.16279833078E+00  0.10566000000E+00 0. -1.
        -13    1    4    4    0    0 -0.42996125829E+01 -0.12185256323E+02  0.63533211690E+01  0.14399409499E+02  0.10566000000E+00 0. -1.
         14    1    4    4    0    0 -0.54569454700E+01 -0.16947245234E+02  0.10075175210E+02  0.20457187744E+02  0.00000000000E+00 0. -1.
<mgrwt>
<rscale>  0 0.78830031E+02</rscale>
<asrwt>0</asrwt>
<pdfrwt beam="1">  1        2 0.17559323E-02 0.78830031E+02</pdfrwt>
<pdfrwt beam="2">  1       -1 0.20940590E-01 0.78830031E+02</pdfrwt>
<totfact> 0.11469045E+05</totfact>
</mgrwt>
</event>
<event>
 8    1  0.1639622E-024  0.8007079E+02  0.7818608E-02  0.1328851E+00
         -1   -1    0    0    0  501 -0.00000000000E+00  0.00000000000E+00  0.13254427723E+03  0.13254427733E+03  0.50400000000E-02 0.  1.
          2   -1    0    0  501    0  0.00000000000E+00 -0.00000000000E+00 -0.12092809619E+02  0.12092809888E+02  0.25500000000E-02 0. -1.
         24    2    1    2    0    0 -0.17763568394E-14 -0.35527136788E-14  0.12045146762E+03  0.14463708722E+03  0.80070787110E+02 0.  0.
         66    2    3    3    0    0 -0.13751826559E+02 -0.21098477968E+02  0.41038550580E+01  0.25594924024E+02  0.20000007971E+01 0.  0.
        -13    1    3    3    0    0  0.13751826559E+02  0.21098477968E+02  0.11634761256E+03  0.11904216320E+03  0.10566000000E+00 0.  1.
         13    1    4    4    0    0 -0.79546869059E+01 -0.12508099584E+02  0.23114363236E+01  0.15002783105E+02  0.10566000000E+00 0. -1.
        -13    1    4    4    0    0 -0.57507392070E+01 -0.85660407153E+01  0.16611117356E+01  0.10450766058E+02  0.10566000000E+00 0.  1.
        -14    1    4    4    0    0 -0.46400446020E-01 -0.24337668668E-01  0.13130699880E+00  0.14137486142E+00  0.00000000000E+00 0.  1.
<mgrwt>
<rscale>  0 0.80070787E+02</rscale>
<asrwt>0</asrwt>
<pdfrwt beam="1">  1        2 0.18604323E-02 0.80070787E+02</pdfrwt>
<pdfrwt beam="2">  1       -1 0.20391427E-01 0.80070787E+02</pdfrwt>
<totfact> 0.11097432E+05</totfact>
</mgrwt>
</event>
<event>
 8    1  0.1226832E-024  0.8013683E+02  0.7818608E-02  0.1328664E+00
         -1   -1    0    0    0  501 -0.00000000000E+00  0.00000000000E+00  0.52887618327E+02  0.52887618567E+02  0.50400000000E-02 0.  1.
          2   -1    0    0  501    0  0.00000000000E+00 -0.00000000000E+00 -0.30356399533E+02  0.30356399640E+02  0.25500000000E-02 0. -1.
         24    2    1    2    0    0  0.00000000000E+00  0.00000000000E+00  0.22531218794E+02  0.83244018207E+02  0.80136825161E+02 0.  0.
         66    2    3    3    0    0 -0.36285185559E+02  0.15464236720E+02  0.18448075535E+02  0.43590007927E+02  0.19999979303E+01 0.  0.
        -13    1    3    3    0    0  0.36285185559E+02 -0.15464236720E+02  0.40831432595E+01  0.39654010280E+02  0.10566000000E+00 0.  1.
         13    1    4    4    0    0 -0.96101808824E+01  0.46872971470E+01  0.54788991673E+01  0.12014817155E+02  0.10566000000E+00 0. -1.
        -13    1    4    4    0    0 -0.69799564382E+01  0.28040025664E+01  0.38892814955E+01  0.84687600544E+01  0.10566000000E+00 0.  1.
        -14    1    4    4    0    0 -0.19695048238E+02  0.79729370066E+01  0.90798948718E+01  0.23106430718E+02  0.00000000000E+00 0.  1.
<mgrwt>
<rscale>  0 0.80136825E+02</rscale>
<asrwt>0</asrwt>
<pdfrwt beam="1">  1        2 0.46702153E-02 0.80136825E+02</pdfrwt>
<pdfrwt beam="2">  1       -1 0.81365567E-02 0.80136825E+02</pdfrwt>
<totfact> 0.13422227E+05</totfact>
</mgrwt>
</event>
<event>
 8    1  0.1226832E-024  0.7508031E+02  0.7818608E-02  0.1343623E+00
         -1   -1    0    0    0  501 -0.00000000000E+00  0.00000000000E+00  0.16482719443E+03  0.16482719451E+03  0.50400000000E-02 0.  1.
          2   -1    0    0  501    0  0.00000000000E+00 -0.00000000000E+00 -0.85499438771E+01  0.85499442574E+01  0.25500000000E-02 0. -1.
         24    2    1    2    0    0  0.35527136788E-14  0.00000000000E+00  0.15627725055E+03  0.17337713876E+03  0.75080311705E+02 0.  0.
         66    2    3    3    0    0 -0.27209172509E+02 -0.24330870723E+02  0.58205055955E+02  0.68732517039E+02  0.20000052717E+01 0.  0.
        -13    1    3    3    0    0  0.27209172509E+02  0.24330870723E+02  0.98072194598E+02  0.10464462173E+03  0.10566000000E+00 0.  1.
         13    1    4    4    0    0 -0.12584613697E+02 -0.11164172513E+02  0.26929750241E+02  0.31752698498E+02  0.10566000000E+00 0. -1.
        -13    1    4    4    0    0 -0.44578328413E+01 -0.48711257334E+01  0.10019859904E+02  0.12000370664E+02  0.10566000000E+00 0.  1.
        -14    1    4    4    0    0 -0.10166725970E+02 -0.82955724761E+01  0.21255445810E+02  0.24979447877E+02  0.00000000000E+00 0.  1.
<mgrwt>
<rscale>  0 0.75080312E+02</rscale>
<asrwt>0</asrwt>
<pdfrwt beam="1">  1        2 0.13153759E-02 0.75080312E+02</pdfrwt>
<pdfrwt beam="2">  1       -1 0.25358031E-01 0.75080312E+02</pdfrwt>
<totfact> 0.12358708E+05</totfact>
</mgrwt>
</event>
<event>
 8    1  0.1226832E-024  0.8453888E+02  0.7818608E-02  0.1316643E+00
         -1   -1    0    0    0  501 -0.00000000000E+00  0.00000000000E+00  0.15185796284E+02  0.15185797120E+02  0.50400000000E-02 0.  1.
          2   -1    0    0  501    0  0.00000000000E+00 -0.00000000000E+00 -0.11765635030E+03  0.11765635033E+03  0.25500000000E-02 0. -1.
         24    2    1    2    0    0 -0.35527136788E-14  0.35527136788E-14 -0.10247055401E+03  0.13284214745E+03  0.84538876845E+02 0.  0.
         66    2    3    3    0    0 -0.31420801076E+02  0.25881339196E+02 -0.69013434511E+02  0.80149638791E+02  0.19999991387E+01 0.  0.
        -13    1    3    3    0    0  0.31420801076E+02 -0.25881339196E+02 -0.33457119504E+02  0.52692508656E+02  0.10566000000E+00 0.  1.
         13    1    4    4    0    0 -0.10672785005E+02  0.89416641531E+01 -0.21889588670E+02  0.25942763033E+02  0.10566000000E+00 0.  1.
        -13    1    4    4    0    0 -0.88439923142E+01  0.73099899155E+01 -0.19687251137E+02  0.22787083490E+02  0.10566000000E+00 0. -1.
        -14    1    4    4    0    0 -0.11904023757E+02  0.96296851277E+01 -0.27436594704E+02  0.31419792269E+02  0.00000000000E+00 0.  1.
<mgrwt>
<rscale>  0 0.84538877E+02</rscale>
<asrwt>0</asrwt>
<pdfrwt beam="1">  1        2 0.18100976E-01 0.84538877E+02</pdfrwt>
<pdfrwt beam="2">  1       -1 0.23362765E-02 0.84538877E+02</pdfrwt>
<totfact> 0.16026113E+05</totfact>
</mgrwt>
</event>
<event>
 8    1  0.1226832E-024  0.7997222E+02  0.7818608E-02  0.1329130E+00
          2   -1    0    0  501    0  0.00000000000E+00  0.00000000000E+00  0.29033917809E+03  0.29033917810E+03  0.25500000000E-02 0. -1.
         -1   -1    0    0    0  501 -0.00000000000E+00 -0.00000000000E+00 -0.55069681119E+01  0.55069704182E+01  0.50400000000E-02 0.  1.
         24    2    1    2    0    0  0.71054273576E-14  0.17763568394E-14  0.28483220998E+03  0.29584614852E+03  0.79972218630E+02 0.  0.
         66    2    3    3    0    0 -0.31978351157E+02 -0.83909277732E+01  0.22554396568E+03  0.22796294229E+03  0.19999980736E+01 0.  0.
        -13    1    3    3    0    0  0.31978351157E+02  0.83909277732E+01  0.59288244294E+02  0.67883206223E+02  0.10566000000E+00 0.  1.
         13    1    4    4    0    0 -0.13801060516E+02 -0.43463909339E+01  0.10055889375E+03  0.10159459956E+03  0.10566000000E+00 0.  1.
        -13    1    4    4    0    0 -0.81434794066E+01 -0.22890487771E+01  0.57159634489E+02  0.57782272195E+02  0.10566000000E+00 0. -1.
        -14    1    4    4    0    0 -0.10033811235E+02 -0.17554880621E+01  0.67825437448E+02  0.68586070534E+02  0.00000000000E+00 0.  1.
<mgrwt>
<rscale>  0 0.79972219E+02</rscale>
<asrwt>0</asrwt>
<pdfrwt beam="1">  1        2 0.44667562E-01 0.79972219E+02</pdfrwt>
<pdfrwt beam="2">  1       -1 0.84722611E-03 0.79972219E+02</pdfrwt>
<totfact> 0.25216977E+05</totfact>
</mgrwt>
</event>
<event>
 8    1  0.1226832E-024  0.7967724E+02  0.7818608E-02  0.1329970E+00
          2   -1    0    0  501    0  0.00000000000E+00  0.00000000000E+00  0.11181534680E+02  0.11181534971E+02  0.25500000000E-02 0. -1.
         -1   -1    0    0    0  501 -0.00000000000E+00 -0.00000000000E+00 -0.14194075251E+03  0.14194075260E+03  0.50400000000E-02 0.  1.
         24    2    1    2    0    0 -0.35527136788E-14  0.00000000000E+00 -0.13075921783E+03  0.15312228757E+03  0.79677235791E+02 0.  0.
         66    2    3    3    0    0  0.30704260573E+02 -0.25234532376E+01 -0.16955526763E+02  0.35222284610E+02  0.20000029399E+01 0.  0.
        -13    1    3    3    0    0 -0.30704260573E+02  0.25234532376E+01 -0.11380369107E+03  0.11790000296E+03  0.10566000000E+00 0.  1.
         13    1    4    4    0    0  0.19890770443E+02 -0.15668005956E+01 -0.11736508444E+02  0.23148529271E+02  0.10566000000E+00 0.  1.
        -13    1    4    4    0    0  0.84346494694E+01 -0.10869118174E+01 -0.40898071217E+01  0.94372864372E+01  0.10566000000E+00 0. -1.
        -14    1    4    4    0    0  0.23788406605E+01  0.13025917541E+00 -0.11292111972E+01  0.26364689015E+01  0.00000000000E+00 0.  1.
<mgrwt>
<rscale>  0 0.79677236E+02</rscale>
<asrwt>0</asrwt>
<pdfrwt beam="1">  1        2 0.17202362E-02 0.79677236E+02</pdfrwt>
<pdfrwt beam="2">  1       -1 0.21837038E-01 0.79677236E+02</pdfrwt>
<totfact> 0.11050177E+05</totfact>
</mgrwt>
</event>
<event>
 8    1  0.1226832E-024  0.7927482E+02  0.7818608E-02  0.1331122E+00
         -1   -1    0    0    0  501 -0.00000000000E+00  0.00000000000E+00  0.51183071634E+01  0.51183096449E+01  0.50400000000E-02 0.  1.
          2   -1    0    0  501    0  0.00000000000E+00 -0.00000000000E+00 -0.30696161913E+03  0.30696161914E+03  0.25500000000E-02 0. -1.
         24    2    1    2    0    0 -0.71054273576E-14  0.88817841970E-15 -0.30184331196E+03  0.31207992878E+03  0.79274819279E+02 0.  0.
         66    2    3    3    0    0 -0.38141747114E+02  0.64243798420E+01 -0.11737001855E+03  0.12359525388E+03  0.19999989959E+01 0.  0.
        -13    1    3    3    0    0  0.38141747114E+02 -0.64243798420E+01 -0.18447329341E+03  0.18848467491E+03  0.10566000000E+00 0.  1.
         13    1    4    4    0    0 -0.98087994244E+01  0.15504246719E+01 -0.29659454988E+02  0.31277960244E+02  0.10566000000E+00 0. -1.
        -13    1    4    4    0    0 -0.15346396354E+02  0.28754588472E+01 -0.50187840378E+02  0.52560542525E+02  0.10566000000E+00 0.  1.
        -14    1    4    4    0    0 -0.12986551336E+02  0.19984963229E+01 -0.37522723187E+02  0.39756751107E+02  0.00000000000E+00 0.  1.
<mgrwt>
<rscale>  0 0.79274819E+02</rscale>
<asrwt>0</asrwt>
<pdfrwt beam="1">  1        2 0.47224850E-01 0.79274819E+02</pdfrwt>
<pdfrwt beam="2">  1       -1 0.78743231E-03 0.79274819E+02</pdfrwt>
<totfact> 0.26327657E+05</totfact>
</mgrwt>
</event>
<event>
 8    1  0.1226832E-024  0.7727632E+02  0.7818608E-02  0.1336963E+00
          2   -1    0    0  501    0  0.00000000000E+00  0.00000000000E+00  0.37027340066E+03  0.37027340067E+03  0.25500000000E-02 0. -1.
         -1   -1    0    0    0  501 -0.00000000000E+00 -0.00000000000E+00 -0.40319039249E+01  0.40319070750E+01  0.50400000000E-02 0.  1.
         24    2    1    2    0    0 -0.44408920985E-15  0.00000000000E+00  0.36624149674E+03  0.37430530775E+03  0.77276318976E+02 0.  0.
         66    2    3    3    0    0  0.37572573582E+01  0.17321995526E+02  0.34940008827E+03  0.34985509885E+03  0.19999993993E+01 0.  0.
        -13    1    3    3    0    0 -0.37572573582E+01 -0.17321995526E+02  0.16841408473E+02  0.24450208900E+02  0.10566000000E+00 0.  1.
         13    1    4    4    0    0  0.19904758573E+01  0.74995052611E+01  0.14043203893E+03  0.14064627010E+03  0.10566000000E+00 0. -1.
        -13    1    4    4    0    0  0.35040649245E+00  0.47866711086E+01  0.97667161177E+02  0.97785073203E+02  0.10566000000E+00 0.  1.
        -14    1    4    4    0    0  0.14163750084E+01  0.50358191564E+01  0.11130088816E+03  0.11142375554E+03  0.00000000000E+00 0.  1.
<mgrwt>
<rscale>  0 0.77276319E+02</rscale>
<asrwt>0</asrwt>
<pdfrwt beam="1">  1        2 0.56965129E-01 0.77276319E+02</pdfrwt>
<pdfrwt beam="2">  1       -1 0.62029327E-03 0.77276319E+02</pdfrwt>
<totfact> 0.30096021E+05</totfact>
</mgrwt>
</event>
<event>
 8    1  0.1226832E-024  0.8135209E+02  0.7818608E-02  0.1325258E+00
          2   -1    0    0  501    0  0.00000000000E+00  0.00000000000E+00  0.47876675663E+03  0.47876675664E+03  0.25500000000E-02 0. -1.
         -1   -1    0    0    0  501 -0.00000000000E+00 -0.00000000000E+00 -0.34558365882E+01  0.34558402633E+01  0.50400000000E-02 0.  1.
         24    2    1    2    0    0  0.00000000000E+00 -0.71054273576E-14  0.47531092005E+03  0.48222259690E+03  0.81352088173E+02 0.  0.
         66    2    3    3    0    0 -0.78123081679E+01 -0.33525771569E+02  0.36596733444E+03  0.36758821988E+03  0.20000000612E+01 0.  0.
        -13    1    3    3    0    0  0.78123081679E+01  0.33525771569E+02  0.10934358560E+03  0.11463437702E+03  0.10566000000E+00 0.  1.
         13    1    4    4    0    0 -0.25277465075E+01 -0.13457676729E+02  0.15217011562E+03  0.15278499212E+03  0.10566000000E+00 0. -1.
        -13    1    4    4    0    0 -0.41336214693E+01 -0.15156473765E+02  0.15896379195E+03  0.15973823537E+03  0.10566000000E+00 0.  1.
        -14    1    4    4    0    0 -0.11509401911E+01 -0.49116210742E+01  0.54833426869E+02  0.55064992391E+02  0.00000000000E+00 0.  1.
<mgrwt>
<rscale>  0 0.81352088E+02</rscale>
<asrwt>0</asrwt>
<pdfrwt beam="1">  1        2 0.73656337E-01 0.81352088E+02</pdfrwt>
<pdfrwt beam="2">  1       -1 0.53166808E-03 0.81352088E+02</pdfrwt>
<totfact> 0.28743224E+05</totfact>
</mgrwt>
</event>
<event>
 8    1  0.1226832E-024  0.7985081E+02  0.7818608E-02  0.1329475E+00
          2   -1    0    0  501    0  0.00000000000E+00  0.00000000000E+00  0.84499534167E+02  0.84499534206E+02  0.25500000000E-02 0. -1.
         -1   -1    0    0    0  501 -0.00000000000E+00 -0.00000000000E+00 -0.18864457162E+02  0.18864457836E+02  0.50400000000E-02 0.  1.
         24    2    1    2    0    0  0.00000000000E+00  0.00000000000E+00  0.65635077005E+02  0.10336399204E+03  0.79850807869E+02 0.  0.
         66    2    3    3    0    0  0.26629912224E+02  0.24534159284E+02  0.54535529003E+02  0.65491992798E+02  0.20000000425E+01 0.  0.
        -13    1    3    3    0    0 -0.26629912224E+02 -0.24534159284E+02  0.11099548002E+02  0.37871999244E+02  0.10566000000E+00 0.  1.
         13    1    4    4    0    0  0.64167639612E+01  0.59147221050E+01  0.12526928854E+02  0.15267413267E+02  0.10566000000E+00 0. -1.
        -13    1    4    4    0    0  0.17147458297E+02  0.15696728702E+02  0.34448323190E+02  0.41558642334E+02  0.10566000000E+00 0.  1.
         14    1    4    4    0    0  0.30656899651E+01  0.29227084770E+01  0.75602769591E+01  0.86659371970E+01  0.00000000000E+00 0. -1.
<mgrwt>
<rscale>  0 0.79850808E+02</rscale>
<asrwt>0</asrwt>
<pdfrwt beam="1">  1        2 0.12999928E-01 0.79850808E+02</pdfrwt>
<pdfrwt beam="2">  1       -1 0.29022242E-02 0.79850808E+02</pdfrwt>
<totfact> 0.17019814E+05</totfact>
</mgrwt>
</event>
<event>
 8    1  0.1226832E-024  0.8286750E+02  0.7818608E-02  0.1321105E+00
         -1   -1    0    0    0  501 -0.00000000000E+00  0.00000000000E+00  0.92583323651E+00  0.92584695465E+00  0.50400000000E-02 0.  1.
          2   -1    0    0  501    0  0.00000000000E+00 -0.00000000000E+00 -0.18542678111E+04  0.18542678111E+04  0.25500000000E-02 0. -1.
         24    2    1    2    0    0  0.35527136788E-14  0.17763568394E-14 -0.18533419778E+04  0.18551936580E+04  0.82867496533E+02 0.  0.
         66    2    3    3    0    0  0.15613364028E+02  0.13324188375E+02 -0.17323616198E+04  0.17324843701E+04  0.20000000369E+01 0.  0.
        -13    1    3    3    0    0 -0.15613364028E+02 -0.13324188375E+02 -0.12098035809E+03  0.12270928791E+03  0.10566000000E+00 0.  1.
         13    1    4    4    0    0  0.56402134792E+01  0.45513265597E+01 -0.59999361988E+03  0.60003740020E+03  0.10566000000E+00 0. -1.
        -13    1    4    4    0    0  0.37850093993E+01  0.31428883620E+01 -0.35908155704E+03  0.35911527371E+03  0.10566000000E+00 0. -1.
         14    1    4    4    0    0  0.61881411492E+01  0.56299734532E+01 -0.77328644283E+03  0.77333169621E+03  0.00000000000E+00 0. -1.
<mgrwt>
<rscale>  0 0.82867497E+02</rscale>
<asrwt>0</asrwt>
<pdfrwt beam="1">  1        2 0.28526900E+00 0.82867497E+02</pdfrwt>
<pdfrwt beam="2">  1       -1 0.14243842E-03 0.82867497E+02</pdfrwt>
<totfact> 0.26981113E+05</totfact>
</mgrwt>
</event>
<event>
 8    1  0.1226832E-024  0.7996710E+02  0.7818608E-02  0.1329145E+00
         -1   -1    0    0    0  501 -0.00000000000E+00  0.00000000000E+00  0.15856001602E+02  0.15856002403E+02  0.50400000000E-02 0.  1.
          2   -1    0    0  501    0  0.00000000000E+00 -0.00000000000E+00 -0.10082517638E+03  0.10082517641E+03  0.25500000000E-02 0. -1.
         24    2    1    2    0    0  0.00000000000E+00  0.00000000000E+00 -0.84969174774E+02  0.11668117881E+03  0.79967098402E+02 0.  0.
         66    2    3    3    0    0  0.15149730689E+02 -0.28865115224E+02 -0.76228009235E+02  0.82930203182E+02  0.19999977559E+01 0.  0.
        -13    1    3    3    0    0 -0.15149730689E+02  0.28865115224E+02 -0.87411655386E+01  0.33750975628E+02  0.10566000000E+00 0.  1.
         13    1    4    4    0    0  0.54548911205E+01 -0.93042074706E+01 -0.26180426049E+02  0.28315190021E+02  0.10566000000E+00 0. -1.
        -13    1    4    4    0    0  0.40354669959E+01 -0.86984420953E+01 -0.23312035668E+02  0.25207341387E+02  0.10566000000E+00 0.  1.
         14    1    4    4    0    0  0.56593725731E+01 -0.10862465658E+02 -0.26735547519E+02  0.29407671775E+02  0.00000000000E+00 0. -1.
<mgrwt>
<rscale>  0 0.79967098E+02</rscale>
<asrwt>0</asrwt>
<pdfrwt beam="1">  1        2 0.15511565E-01 0.79967098E+02</pdfrwt>
<pdfrwt beam="2">  1       -1 0.24393850E-02 0.79967098E+02</pdfrwt>
<totfact> 0.17786317E+05</totfact>
</mgrwt>
</event>
<event>
 8    1  0.1226832E-024  0.8598702E+02  0.7818608E-02  0.1312871E+00
          2   -1    0    0  501    0  0.00000000000E+00  0.00000000000E+00  0.11864034063E+04  0.11864034063E+04  0.25500000000E-02 0. -1.
         -1   -1    0    0    0  501 -0.00000000000E+00 -0.00000000000E+00 -0.15580172427E+01  0.15580253946E+01  0.50400000000E-02 0.  1.
         24    2    1    2    0    0  0.00000000000E+00  0.00000000000E+00  0.11848453891E+04  0.11879614317E+04  0.85987017800E+02 0.  0.
         66    2    3    3    0    0 -0.56954497439E+01 -0.28018261184E+02  0.10359139827E+04  0.10363103978E+04  0.20000005066E+01 0.  0.
        -13    1    3    3    0    0  0.56954497439E+01  0.28018261184E+02  0.14893140635E+03  0.15165103385E+03  0.10566000000E+00 0.  1.
         13    1    4    4    0    0 -0.29519074577E+01 -0.17644246537E+02  0.66544714461E+03  0.66568757433E+03  0.10566000000E+00 0. -1.
        -13    1    4    4    0    0 -0.94603229708E+00 -0.28408526404E+01  0.96001418199E+02  0.96048159176E+02  0.10566000000E+00 0.  1.
         14    1    4    4    0    0 -0.17975099891E+01 -0.75331620066E+01  0.27446541990E+03  0.27457466433E+03  0.00000000000E+00 0. -1.
<mgrwt>
<rscale>  0 0.85987018E+02</rscale>
<asrwt>0</asrwt>
<pdfrwt beam="1">  1        2 0.18252329E+00 0.85987018E+02</pdfrwt>
<pdfrwt beam="2">  1       -1 0.23969600E-03 0.85987018E+02</pdfrwt>
<totfact> 0.29065471E+05</totfact>
</mgrwt>
</event>
<event>
 8    1  0.1226832E-024  0.8018715E+02  0.7818608E-02  0.1328521E+00
         -1   -1    0    0    0  501 -0.00000000000E+00  0.00000000000E+00  0.63276821910E+01  0.63276841982E+01  0.50400000000E-02 0.  1.
          2   -1    0    0  501    0  0.00000000000E+00 -0.00000000000E+00 -0.25404157465E+03  0.25404157466E+03  0.25500000000E-02 0. -1.
         24    2    1    2    0    0  0.17763568394E-14  0.35527136788E-14 -0.24771389246E+03  0.26036925886E+03  0.80187146368E+02 0.  0.
         66    2    3    3    0    0 -0.12124451298E+02 -0.16699731449E+02 -0.23545396797E+03  0.23636508709E+03  0.20000037315E+01 0.  0.
        -13    1    3    3    0    0  0.12124451298E+02  0.16699731449E+02 -0.12259924493E+02  0.24004171770E+02  0.10566000000E+00 0.  1.
         13    1    4    4    0    0 -0.77948577264E+01 -0.10259297072E+02 -0.13750159785E+03  0.13810399544E+03  0.10566000000E+00 0.  1.
        -13    1    4    4    0    0 -0.76148456183E+00 -0.15329748312E+01 -0.22081747862E+02  0.22148241990E+02  0.10566000000E+00 0. -1.
         14    1    4    4    0    0 -0.35681090103E+01 -0.49074595450E+01 -0.75870622260E+02  0.76112849659E+02  0.00000000000E+00 0. -1.
<mgrwt>
<rscale>  0 0.80187146E+02</rscale>
<asrwt>0</asrwt>
<pdfrwt beam="1">  1        2 0.39083311E-01 0.80187146E+02</pdfrwt>
<pdfrwt beam="2">  1       -1 0.97348992E-03 0.80187146E+02</pdfrwt>
<totfact> 0.23858969E+05</totfact>
</mgrwt>
</event>
<event>
 8    1  0.1226832E-024  0.7578096E+02  0.7818608E-02  0.1341470E+00
          2   -1    0    0  501    0  0.00000000000E+00  0.00000000000E+00  0.17476240930E+03  0.17476240931E+03  0.25500000000E-02 0. -1.
         -1   -1    0    0    0  501 -0.00000000000E+00 -0.00000000000E+00 -0.82150857073E+01  0.82150872533E+01  0.50400000000E-02 0.  1.
         24    2    1    2    0    0 -0.17763568394E-14 -0.35527136788E-14  0.16654732359E+03  0.18297749657E+03  0.75780955759E+02 0.  0.
         66    2    3    3    0    0 -0.14778969960E+02 -0.19785251259E+02  0.15263432929E+03  0.15463218488E+03  0.20000002050E+01 0.  0.
        -13    1    3    3    0    0  0.14778969960E+02  0.19785251259E+02  0.13912994294E+02  0.28345311689E+02  0.10566000000E+00 0.  1.
         13    1    4    4    0    0 -0.77675820032E+01 -0.10783916251E+02  0.77698378566E+02  0.78826882317E+02  0.10566000000E+00 0. -1.
        -13    1    4    4    0    0 -0.10618631420E+01 -0.99960184925E+00  0.83885439115E+01  0.85150214433E+01  0.10566000000E+00 0.  1.
         14    1    4    4    0    0 -0.59495248152E+01 -0.80017331594E+01  0.66547406816E+02  0.67290281119E+02  0.00000000000E+00 0. -1.
<mgrwt>
<rscale>  0 0.75780956E+02</rscale>
<asrwt>0</asrwt>
<pdfrwt beam="1">  1        2 0.26886522E-01 0.75780956E+02</pdfrwt>
<pdfrwt beam="2">  1       -1 0.12638596E-02 0.75780956E+02</pdfrwt>
<totfact> 0.24298996E+05</totfact>
</mgrwt>
</event>
<event>
 8    1  0.1226832E-024  0.7558111E+02  0.7818608E-02  0.1342081E+00
         -1   -1    0    0    0  501 -0.00000000000E+00  0.00000000000E+00  0.55808100042E+01  0.55808122800E+01  0.50400000000E-02 0.  1.
          2   -1    0    0  501    0  0.00000000000E+00 -0.00000000000E+00 -0.25589933694E+03  0.25589933695E+03  0.25500000000E-02 0. -1.
         24    2    1    2    0    0  0.00000000000E+00 -0.35527136788E-14 -0.25031852694E+03  0.26148014923E+03  0.75581105546E+02 0.  0.
         66    2    3    3    0    0  0.23844777601E+02  0.27046333464E+02 -0.16408722442E+03  0.16801397209E+03  0.20000064640E+01 0.  0.
        -13    1    3    3    0    0 -0.23844777601E+02 -0.27046333464E+02 -0.86231302516E+02  0.93466177147E+02  0.10566000000E+00 0.  1.
         13    1    4    4    0    0  0.29267421157E+01  0.28628630712E+01 -0.16744550442E+02  0.17238124547E+02  0.10566000000E+00 0. -1.
        -13    1    4    4    0    0  0.93014479241E+01  0.10306840607E+02 -0.65947353656E+02  0.67392970813E+02  0.10566000000E+00 0.  1.
         14    1    4    4    0    0  0.11616587562E+02  0.13876629785E+02 -0.81395320322E+02  0.83382876726E+02  0.00000000000E+00 0. -1.
<mgrwt>
<rscale>  0 0.75581106E+02</rscale>
<asrwt>0</asrwt>
<pdfrwt beam="1">  1        2 0.39369120E-01 0.75581106E+02</pdfrwt>
<pdfrwt beam="2">  1       -1 0.85858653E-03 0.75581106E+02</pdfrwt>
<totfact> 0.27932848E+05</totfact>
</mgrwt>
</event>
<event>
 8    1  0.1226832E-024  0.8121890E+02  0.7818608E-02  0.1325628E+00
          2   -1    0    0  501    0  0.00000000000E+00  0.00000000000E+00  0.12726326642E+02  0.12726326897E+02  0.25500000000E-02 0. -1.
         -1   -1    0    0    0  501 -0.00000000000E+00 -0.00000000000E+00 -0.12958391384E+03  0.12958391393E+03  0.50400000000E-02 0.  1.
         24    2    1    2    0    0  0.00000000000E+00  0.00000000000E+00 -0.11685758719E+03  0.14231024083E+03  0.81218895342E+02 0.  0.
         66    2    3    3    0    0 -0.35246378377E+02 -0.93371338107E+01 -0.27236289175E+02  0.45555512372E+02  0.20000007403E+01 0.  0.
        -13    1    3    3    0    0  0.35246378377E+02  0.93371338107E+01 -0.89621298020E+02  0.96754728460E+02  0.10566000000E+00 0.  1.
         13    1    4    4    0    0 -0.19874875938E+02 -0.53837852572E+01 -0.15166797211E+02  0.25574181099E+02  0.10566000000E+00 0. -1.
        -13    1    4    4    0    0 -0.13600433154E+02 -0.32166894122E+01 -0.10996107556E+02  0.17783262304E+02  0.10566000000E+00 0.  1.
        -14    1    4    4    0    0 -0.17710692854E+01 -0.73665914125E+00 -0.10733844084E+01  0.21980689689E+01  0.00000000000E+00 0.  1.
<mgrwt>
<rscale>  0 0.81218895E+02</rscale>
<asrwt>0</asrwt>
<pdfrwt beam="1">  1        2 0.19578965E-02 0.81218895E+02</pdfrwt>
<pdfrwt beam="2">  1       -1 0.19935986E-01 0.81218895E+02</pdfrwt>
<totfact> 0.10764765E+05</totfact>
</mgrwt>
</event>
<event>
 8    1  0.1226832E-024  0.8043895E+02  0.7818608E-02  0.1327810E+00
         -1   -1    0    0    0  501 -0.00000000000E+00  0.00000000000E+00  0.90270840520E+02  0.90270840661E+02  0.50400000000E-02 0.  1.
          2   -1    0    0  501    0  0.00000000000E+00 -0.00000000000E+00 -0.17919474063E+02  0.17919474245E+02  0.25500000000E-02 0. -1.
         24    2    1    2    0    0  0.00000000000E+00  0.00000000000E+00  0.72351366457E+02  0.10819031491E+03  0.80438945860E+02 0.  0.
         66    2    3    3    0    0  0.18304613245E+02 -0.35545901757E+02  0.30647350713E+02  0.50416565754E+02  0.19999997363E+01 0.  0.
        -13    1    3    3    0    0 -0.18304613245E+02  0.35545901757E+02  0.41704015744E+02  0.57773749151E+02  0.10566000000E+00 0.  1.
         13    1    4    4    0    0  0.99574882972E+00 -0.19672943734E+01  0.17218524614E+01  0.27995897589E+01  0.10566000000E+00 0. -1.
        -13    1    4    4    0    0  0.10056020515E+02 -0.18473409126E+02  0.17113052404E+02  0.27115643454E+02  0.10566000000E+00 0.  1.
        -14    1    4    4    0    0  0.72528439006E+01 -0.15105198258E+02  0.11812445847E+02  0.20501332541E+02  0.00000000000E+00 0.  1.
<mgrwt>
<rscale>  0 0.80438946E+02</rscale>
<asrwt>0</asrwt>
<pdfrwt beam="1">  1        2 0.27568421E-02 0.80438946E+02</pdfrwt>
<pdfrwt beam="2">  1       -1 0.13887822E-01 0.80438946E+02</pdfrwt>
<totfact> 0.11948561E+05</totfact>
</mgrwt>
</event>
<event>
 8    1  0.1226832E-024  0.7836686E+02  0.7818608E-02  0.1333751E+00
         -1   -1    0    0    0  501 -0.00000000000E+00  0.00000000000E+00  0.57174475831E+03  0.57174475833E+03  0.50400000000E-02 0.  1.
          2   -1    0    0  501    0  0.00000000000E+00 -0.00000000000E+00 -0.26853607563E+01  0.26853619670E+01  0.25500000000E-02 0. -1.
         24    2    1    2    0    0  0.00000000000E+00  0.00000000000E+00  0.56905939755E+03  0.57443012030E+03  0.78366862658E+02 0.  0.
         66    2    3    3    0    0  0.13579379352E+02 -0.35377964946E+02  0.35703183490E+03  0.35904279840E+03  0.20000003283E+01 0.  0.
        -13    1    3    3    0    0 -0.13579379352E+02  0.35377964946E+02  0.21202756265E+03  0.21538732190E+03  0.10566000000E+00 0.  1.
         13    1    4    4    0    0  0.99045378034E+01 -0.24359074769E+02  0.24826592688E+03  0.24965465348E+03  0.10566000000E+00 0. -1.
        -13    1    4    4    0    0  0.78349896995E+00 -0.33702278367E+01  0.30101852538E+02  0.30300247467E+02  0.10566000000E+00 0.  1.
        -14    1    4    4    0    0  0.28913425783E+01 -0.76486623407E+01  0.78664055485E+02  0.79087897449E+02  0.00000000000E+00 0.  1.
<mgrwt>
<rscale>  0 0.78366863E+02</rscale>
<asrwt>0</asrwt>
<pdfrwt beam="1">  1        2 0.41313238E-03 0.78366863E+02</pdfrwt>
<pdfrwt beam="2">  1       -1 0.87960761E-01 0.78366863E+02</pdfrwt>
<totfact> 0.64443029E+04</totfact>
</mgrwt>
</event>
<event>
 8    1  0.1226832E-024  0.8029030E+02  0.7818608E-02  0.1328230E+00
          2   -1    0    0  501    0  0.00000000000E+00  0.00000000000E+00  0.14305399268E+03  0.14305399271E+03  0.25500000000E-02 0. -1.
         -1   -1    0    0    0  501 -0.00000000000E+00 -0.00000000000E+00 -0.11265908233E+02  0.11265909361E+02  0.50400000000E-02 0.  1.
         24    2    1    2    0    0  0.00000000000E+00  0.17763568394E-14  0.13178808445E+03  0.15431990207E+03  0.80290304339E+02 0.  0.
         66    2    3    3    0    0  0.27450924741E+02  0.12742585449E+02  0.11655749765E+03  0.12043910084E+03  0.20000002652E+01 0.  0.
        -13    1    3    3    0    0 -0.27450924741E+02 -0.12742585449E+02  0.15230586801E+02  0.33880801221E+02  0.10566000000E+00 0.  1.
         13    1    4    4    0    0  0.31158577421E+01  0.15666074396E+01  0.15772565080E+02  0.16153878840E+02  0.10566000000E+00 0. -1.
        -13    1    4    4    0    0  0.18244890601E+01  0.67169154643E+00  0.68708366124E+01  0.71413926971E+01  0.10566000000E+00 0.  1.
         14    1    4    4    0    0  0.22510577939E+02  0.10504286463E+02  0.93914095956E+02  0.97143829307E+02  0.00000000000E+00 0. -1.
<mgrwt>
<rscale>  0 0.80290304E+02</rscale>
<asrwt>0</asrwt>
<pdfrwt beam="1">  1        2 0.22008306E-01 0.80290304E+02</pdfrwt>
<pdfrwt beam="2">  1       -1 0.17332168E-02 0.80290304E+02</pdfrwt>
<totfact> 0.19539526E+05</totfact>
</mgrwt>
</event>
<event>
 8    1  0.1226832E-024  0.7753884E+02  0.7818608E-02  0.1336185E+00
         -1   -1    0    0    0  501 -0.00000000000E+00  0.00000000000E+00  0.58912445620E+01  0.58912467178E+01  0.50400000000E-02 0.  1.
          2   -1    0    0  501    0  0.00000000000E+00 -0.00000000000E+00 -0.25513581993E+03  0.25513581995E+03  0.25500000000E-02 0. -1.
         24    2    1    2    0    0  0.00000000000E+00  0.00000000000E+00 -0.24924457537E+03  0.26102706666E+03  0.77538836586E+02 0.  0.
         66    2    3    3    0    0 -0.16984917092E+02  0.96240552483E+01 -0.23736403940E+03  0.23817387986E+03  0.19999998891E+01 0.  0.
        -13    1    3    3    0    0  0.16984917092E+02 -0.96240552483E+01 -0.11880535971E+02  0.22853186803E+02  0.10566000000E+00 0.  1.
         13    1    4    4    0    0 -0.94404207147E+01  0.60375378480E+01 -0.14075454212E+03  0.14119994936E+03  0.10566000000E+00 0. -1.
        -13    1    4    4    0    0 -0.23916895409E+00  0.77635465533E-02 -0.34845397810E+01  0.34943445139E+01  0.10566000000E+00 0.  1.
         14    1    4    4    0    0 -0.73053274234E+01  0.35787538537E+01 -0.93124957497E+02  0.93479585989E+02  0.00000000000E+00 0. -1.
<mgrwt>
<rscale>  0 0.77538837E+02</rscale>
<asrwt>0</asrwt>
<pdfrwt beam="1">  1        2 0.39251656E-01 0.77538837E+02</pdfrwt>
<pdfrwt beam="2">  1       -1 0.90634569E-03 0.77538837E+02</pdfrwt>
<totfact> 0.26097334E+05</totfact>
</mgrwt>
</event>
<event>
 8    1  0.1226832E-024  0.8348625E+02  0.7818608E-02  0.1319439E+00
         -1   -1    0    0    0  501 -0.00000000000E+00  0.00000000000E+00  0.53909338906E+01  0.53909362466E+01  0.50400000000E-02 0.  1.
          2   -1    0    0  501    0  0.00000000000E+00 -0.00000000000E+00 -0.32322568111E+03  0.32322568112E+03  0.25500000000E-02 0. -1.
         24    2    1    2    0    0  0.88817841970E-15  0.00000000000E+00 -0.31783474722E+03  0.32861661737E+03  0.83486254375E+02 0.  0.
         66    2    3    3    0    0 -0.54130337356E+01 -0.20187734696E+02 -0.30112762209E+03  0.30185872581E+03  0.19999993931E+01 0.  0.
        -13    1    3    3    0    0  0.54130337356E+01  0.20187734696E+02 -0.16707125135E+02  0.26757891559E+02  0.10566000000E+00 0.  1.
         13    1    4    4    0    0 -0.80256120492E+00 -0.51413175294E+01 -0.69839043627E+02  0.70032709710E+02  0.10566000000E+00 0. -1.
        -13    1    4    4    0    0 -0.25521545505E+01 -0.79847889160E+01 -0.11518935974E+03  0.11549402629E+03  0.10566000000E+00 0.  1.
        -14    1    4    4    0    0 -0.20583179802E+01 -0.70616282507E+01 -0.11609921872E+03  0.11633198981E+03  0.00000000000E+00 0.  1.
<mgrwt>
<rscale>  0 0.83486254E+02</rscale>
<asrwt>0</asrwt>
<pdfrwt beam="1">  1        2 0.49727013E-01 0.83486254E+02</pdfrwt>
<pdfrwt beam="2">  1       -1 0.82937488E-03 0.83486254E+02</pdfrwt>
<totfact> 0.23416725E+05</totfact>
</mgrwt>
</event>
<event>
 8    1  0.1226832E-024  0.8165211E+02  0.7818608E-02  0.1324427E+00
          2   -1    0    0  501    0  0.00000000000E+00  0.00000000000E+00  0.60474181400E+02  0.60474181454E+02  0.25500000000E-02 0. -1.
         -1   -1    0    0    0  501 -0.00000000000E+00 -0.00000000000E+00 -0.27561622637E+02  0.27561623097E+02  0.50400000000E-02 0.  1.
         24    2    1    2    0    0  0.88817841970E-15 -0.35527136788E-14  0.32912558763E+02  0.88035804551E+02  0.81652105659E+02 0.  0.
         66    2    3    3    0    0  0.75015490670E+01 -0.20684296188E+02  0.53513054055E+02  0.57894389231E+02  0.20000007366E+01 0.  0.
        -13    1    3    3    0    0 -0.75015490670E+01  0.20684296188E+02 -0.20600495291E+02  0.30141415320E+02  0.10566000000E+00 0.  1.
         13    1    4    4    0    0  0.45210657227E+01 -0.13093097569E+02  0.32232371235E+02  0.35082847072E+02  0.10566000000E+00 0. -1.
        -13    1    4    4    0    0  0.25441893803E+00 -0.17271559370E+01  0.44912985328E+01  0.48198260521E+01  0.10566000000E+00 0.  1.
        -14    1    4    4    0    0  0.27260644063E+01 -0.58640426824E+01  0.16789384287E+02  0.17991716107E+02  0.00000000000E+00 0.  1.
<mgrwt>
<rscale>  0 0.81652106E+02</rscale>
<asrwt>0</asrwt>
<pdfrwt beam="1">  1        2 0.93037202E-02 0.81652106E+02</pdfrwt>
<pdfrwt beam="2">  1       -1 0.42402497E-02 0.81652106E+02</pdfrwt>
<totfact> 0.14750045E+05</totfact>
</mgrwt>
</event>
<event>
 8    1  0.1226832E-024  0.7807534E+02  0.7818608E-02  0.1334604E+00
         -1   -1    0    0    0  501 -0.00000000000E+00  0.00000000000E+00  0.92724711123E+01  0.92724724820E+01  0.50400000000E-02 0.  1.
          2   -1    0    0  501    0  0.00000000000E+00 -0.00000000000E+00 -0.16435095001E+03  0.16435095003E+03  0.25500000000E-02 0. -1.
         24    2    1    2    0    0  0.00000000000E+00  0.35527136788E-14 -0.15507847890E+03  0.17362342251E+03  0.78075336870E+02 0.  0.
         66    2    3    3    0    0 -0.13521238454E+02 -0.29627608701E+02 -0.12535318631E+03  0.12953007528E+03  0.19999991598E+01 0.  0.
        -13    1    3    3    0    0  0.13521238454E+02  0.29627608701E+02 -0.29725292581E+02  0.44093347228E+02  0.10566000000E+00 0.  1.
         13    1    4    4    0    0 -0.26256629718E+01 -0.51434817508E+01 -0.24398940150E+02  0.25073271725E+02  0.10566000000E+00 0. -1.
        -13    1    4    4    0    0 -0.71147010799E+01 -0.14841528359E+02 -0.63068124872E+02  0.65180437820E+02  0.10566000000E+00 0.  1.
        -14    1    4    4    0    0 -0.37808744026E+01 -0.96425985915E+01 -0.37886121292E+02  0.39276365736E+02  0.00000000000E+00 0.  1.
<mgrwt>
<rscale>  0 0.78075337E+02</rscale>
<asrwt>0</asrwt>
<pdfrwt beam="1">  1        2 0.25284759E-01 0.78075337E+02</pdfrwt>
<pdfrwt beam="2">  1       -1 0.14265343E-02 0.78075337E+02</pdfrwt>
<totfact> 0.22009508E+05</totfact>
</mgrwt>
</event>
<event>
 8    1  0.1226832E-024  0.8027495E+02  0.7818608E-02  0.1328273E+00
         -1   -1    0    0    0  501 -0.00000000000E+00  0.00000000000E+00  0.10019362856E+02  0.10019364123E+02  0.50400000000E-02 0.  1.
          2   -1    0    0  501    0  0.00000000000E+00 -0.00000000000E+00 -0.16079033170E+03  0.16079033172E+03  0.25500000000E-02 0. -1.
         24    2    1    2    0    0 -0.71054273576E-14 -0.71054273576E-14 -0.15077096884E+03  0.17080969584E+03  0.80274947199E+02 0.  0.
         66    2    3    3    0    0 -0.29975219443E+02 -0.25768823232E+02 -0.89936527435E+02  0.98260495593E+02  0.19999989016E+01 0.  0.
        -13    1    3    3    0    0  0.29975219443E+02  0.25768823232E+02 -0.60834441405E+02  0.72549200247E+02  0.10566000000E+00 0.  1.
         13    1    4    4    0    0 -0.11858474402E+02 -0.97680859423E+01 -0.34355809332E+02  0.37634714254E+02  0.10566000000E+00 0. -1.
        -13    1    4    4    0    0 -0.25496203743E+00 -0.40994107750E+00 -0.14017462226E+01  0.14863087956E+01  0.10566000000E+00 0.  1.
         14    1    4    4    0    0 -0.17861783004E+02 -0.15590796212E+02 -0.54178971881E+02  0.59139472543E+02  0.00000000000E+00 0. -1.
<mgrwt>
<rscale>  0 0.80274947E+02</rscale>
<asrwt>0</asrwt>
<pdfrwt beam="1">  1        2 0.24736972E-01 0.80274947E+02</pdfrwt>
<pdfrwt beam="2">  1       -1 0.15414407E-02 0.80274947E+02</pdfrwt>
<totfact> 0.20302547E+05</totfact>
</mgrwt>
</event>
<event>
 8    1  0.1226832E-024  0.7726670E+02  0.7818608E-02  0.1336992E+00
          2   -1    0    0  501    0  0.00000000000E+00  0.00000000000E+00  0.14355333478E+03  0.14355333480E+03  0.25500000000E-02 0. -1.
         -1   -1    0    0    0  501 -0.00000000000E+00 -0.00000000000E+00 -0.10397080717E+02  0.10397081938E+02  0.50400000000E-02 0.  1.
         24    2    1    2    0    0  0.00000000000E+00  0.00000000000E+00  0.13315625406E+03  0.15395041674E+03  0.77266699285E+02 0.  0.
         66    2    3    3    0    0  0.27364619656E+02  0.17598344303E+02  0.10803532797E+03  0.11284571843E+03  0.19999868270E+01 0.  0.
        -13    1    3    3    0    0 -0.27364619656E+02 -0.17598344303E+02  0.25120926085E+02  0.41104698303E+02  0.10566000000E+00 0.  1.
         13    1    4    4    0    0  0.15037913763E+02  0.90078846473E+01  0.56656561268E+02  0.59306474646E+02  0.10566000000E+00 0. -1.
        -13    1    4    4    0    0  0.75737368012E+01  0.49885576343E+01  0.32410651651E+02  0.33655738008E+02  0.10566000000E+00 0.  1.
         14    1    4    4    0    0  0.47529690922E+01  0.36019020216E+01  0.18968115055E+02  0.19883505780E+02  0.00000000000E+00 0. -1.
<mgrwt>
<rscale>  0 0.77266699E+02</rscale>
<asrwt>0</asrwt>
<pdfrwt beam="1">  1        2 0.22085127E-01 0.77266699E+02</pdfrwt>
<pdfrwt beam="2">  1       -1 0.15995511E-02 0.77266699E+02</pdfrwt>
<totfact> 0.21656883E+05</totfact>
</mgrwt>
</event>
<event>
 8    1  0.1226832E-024  0.7878799E+02  0.7818608E-02  0.1332527E+00
          2   -1    0    0  501    0  0.00000000000E+00  0.00000000000E+00  0.68292387848E+02  0.68292387896E+02  0.25500000000E-02 0. -1.
         -1   -1    0    0    0  501 -0.00000000000E+00 -0.00000000000E+00 -0.22724154636E+02  0.22724155195E+02  0.50400000000E-02 0.  1.
         24    2    1    2    0    0 -0.22204460493E-15  0.00000000000E+00  0.45568233213E+02  0.91016543091E+02  0.78787989174E+02 0.  0.
         66    2    3    3    0    0  0.19315404576E+01  0.34729097210E+02  0.44101025633E+02  0.56202682292E+02  0.19999983427E+01 0.  0.
        -13    1    3    3    0    0 -0.19315404576E+01 -0.34729097210E+02  0.14672075799E+01  0.34813860799E+02  0.10566000000E+00 0.  1.
         13    1    4    4    0    0  0.34521208143E+00  0.23838665700E+01  0.37039520260E+01  0.44195492815E+01  0.10566000000E+00 0. -1.
        -13    1    4    4    0    0  0.92684678958E-01  0.41861320041E+01  0.48042042881E+01  0.63736829606E+01  0.10566000000E+00 0.  1.
         14    1    4    4    0    0  0.14936436972E+01  0.28159098636E+02  0.35592869319E+02  0.45409450050E+02  0.00000000000E+00 0. -1.
<mgrwt>
<rscale>  0 0.78787989E+02</rscale>
<asrwt>0</asrwt>
<pdfrwt beam="1">  1        2 0.10506521E-01 0.78787989E+02</pdfrwt>
<pdfrwt beam="2">  1       -1 0.34960239E-02 0.78787989E+02</pdfrwt>
<totfact> 0.16726842E+05</totfact>
</mgrwt>
</event>
<event>
 8    1  0.1226832E-024  0.7998314E+02  0.7818608E-02  0.1329099E+00
         -1   -1    0    0    0  501 -0.00000000000E+00  0.00000000000E+00  0.21134521139E+01  0.21134581234E+01  0.50400000000E-02 0.  1.
          2   -1    0    0  501    0  0.00000000000E+00 -0.00000000000E+00 -0.75673510942E+03  0.75673510942E+03  0.25500000000E-02 0. -1.
         24    2    1    2    0    0  0.44408920985E-15  0.00000000000E+00 -0.75462165730E+03  0.75884856754E+03  0.79983140684E+02 0.  0.
         66    2    3    3    0    0  0.24104719820E+01  0.33426113574E+02 -0.58415063044E+03  0.58511458236E+03  0.20000011368E+01 0.  0.
        -13    1    3    3    0    0 -0.24104719820E+01 -0.33426113574E+02 -0.17047102686E+03  0.17373398518E+03  0.10566000000E+00 0.  1.
         13    1    4    4    0    0  0.85194384726E+00  0.12806722462E+02 -0.23573636233E+03  0.23608553882E+03  0.10566000000E+00 0. -1.
        -13    1    4    4    0    0 -0.65355421893E-01  0.14808189319E+01 -0.28463532030E+02  0.28502296674E+02  0.10566000000E+00 0.  1.
         14    1    4    4    0    0  0.16238835567E+01  0.19138572180E+02 -0.31995073608E+03  0.32052674687E+03  0.00000000000E+00 0. -1.
<mgrwt>
<rscale>  0 0.79983141E+02</rscale>
<asrwt>0</asrwt>
<pdfrwt beam="1">  1        2 0.11642057E+00 0.79983141E+02</pdfrwt>
<pdfrwt beam="2">  1       -1 0.32514755E-03 0.79983141E+02</pdfrwt>
<totfact> 0.34032044E+05</totfact>
</mgrwt>
</event>
<event>
 8    1  0.1226832E-024  0.7986324E+02  0.7818608E-02  0.1329440E+00
          2   -1    0    0  501    0  0.00000000000E+00  0.00000000000E+00  0.27799490403E+03  0.27799490404E+03  0.25500000000E-02 0. -1.
         -1   -1    0    0    0  501 -0.00000000000E+00 -0.00000000000E+00 -0.57358384878E+01  0.57358407020E+01  0.50400000000E-02 0.  1.
         24    2    1    2    0    0  0.88817841970E-15  0.17763568394E-14  0.27225906554E+03  0.28373074475E+03  0.79863237744E+02 0.  0.
         66    2    3    3    0    0  0.78899620209E+01  0.15130259157E+02  0.26437600759E+03  0.26493367025E+03  0.20000000175E+01 0.  0.
        -13    1    3    3    0    0 -0.78899620209E+01 -0.15130259157E+02  0.78830579544E+01  0.18797074496E+02  0.10566000000E+00 0.  1.
         13    1    4    4    0    0  0.13759369218E+01  0.29565962884E+01  0.54366198342E+02  0.54464018859E+02  0.10566000000E+00 0. -1.
        -13    1    4    4    0    0  0.33706561527E+01  0.76812365853E+01  0.11977584350E+03  0.12006925738E+03  0.10566000000E+00 0.  1.
        -14    1    4    4    0    0  0.31433689463E+01  0.44924262835E+01  0.90233965750E+02  0.90400394010E+02  0.00000000000E+00 0.  1.
<mgrwt>
<rscale>  0 0.79863238E+02</rscale>
<asrwt>0</asrwt>
<pdfrwt beam="1">  1        2 0.42768432E-01 0.79863238E+02</pdfrwt>
<pdfrwt beam="2">  1       -1 0.88243717E-03 0.79863238E+02</pdfrwt>
<totfact> 0.24912137E+05</totfact>
</mgrwt>
</event>
<event>
 8    1  0.1226832E-024  0.7960375E+02  0.7818608E-02  0.1330180E+00
         -1   -1    0    0    0  501 -0.00000000000E+00  0.00000000000E+00  0.92916243521E+01  0.92916257190E+01  0.50400000000E-02 0.  1.
          2   -1    0    0  501    0  0.00000000000E+00 -0.00000000000E+00 -0.17049645897E+03  0.17049645898E+03  0.25500000000E-02 0. -1.
         24    2    1    2    0    0  0.00000000000E+00 -0.35527136788E-14 -0.16120483461E+03  0.17978808470E+03  0.79603748019E+02 0.  0.
         66    2    3    3    0    0 -0.20396809887E+01 -0.26245636335E+02 -0.14800116886E+03  0.15033741954E+03  0.20000012306E+01 0.  0.
        -13    1    3    3    0    0  0.20396809887E+01  0.26245636335E+02 -0.13203665751E+02  0.29450665162E+02  0.10566000000E+00 0.  1.
         13    1    4    4    0    0 -0.12724176636E+01 -0.19441672952E+02 -0.11236862291E+03  0.11404523784E+03  0.10566000000E+00 0. -1.
        -13    1    4    4    0    0 -0.59183050712E+00 -0.47030781844E+01 -0.26357798198E+02  0.26780849457E+02  0.10566000000E+00 0.  1.
        -14    1    4    4    0    0 -0.17543281801E+00 -0.21008851984E+01 -0.92747477484E+01  0.95113322457E+01  0.00000000000E+00 0.  1.
<mgrwt>
<rscale>  0 0.79603748E+02</rscale>
<asrwt>0</asrwt>
<pdfrwt beam="1">  1        2 0.26230222E-01 0.79603748E+02</pdfrwt>
<pdfrwt beam="2">  1       -1 0.14294809E-02 0.79603748E+02</pdfrwt>
<totfact> 0.21165916E+05</totfact>
</mgrwt>
</event>
<event>
 8    1  0.1226832E-024  0.7998353E+02  0.7818608E-02  0.1329098E+00
         -1   -1    0    0    0  501 -0.00000000000E+00  0.00000000000E+00  0.12423979288E+03  0.12423979298E+03  0.50400000000E-02 0.  1.
          2   -1    0    0  501    0  0.00000000000E+00 -0.00000000000E+00 -0.12873019402E+02  0.12873019654E+02  0.25500000000E-02 0. -1.
         24    2    1    2    0    0 -0.35527136788E-14 -0.35527136788E-14  0.11136677347E+03  0.13711281263E+03  0.79983530516E+02 0.  0.
         66    2    3    3    0    0  0.31430642164E+02  0.21262445193E+02  0.77222337729E+02  0.86065476768E+02  0.20000011379E+01 0.  0.
        -13    1    3    3    0    0 -0.31430642164E+02 -0.21262445193E+02  0.34144435745E+02  0.51047335864E+02  0.10566000000E+00 0.  1.
         13    1    4    4    0    0  0.78133139415E+01  0.44889078538E+01  0.17996491430E+02  0.20126674745E+02  0.10566000000E+00 0. -1.
        -13    1    4    4    0    0  0.47107733899E+01  0.38153103178E+01  0.12028028172E+02  0.13469692071E+02  0.10566000000E+00 0.  1.
         14    1    4    4    0    0  0.18906554833E+02  0.12958227021E+02  0.47197818127E+02  0.52469109952E+02  0.00000000000E+00 0. -1.
<mgrwt>
<rscale>  0 0.79983531E+02</rscale>
<asrwt>0</asrwt>
<pdfrwt beam="1">  1        2 0.19804645E-02 0.79983531E+02</pdfrwt>
<pdfrwt beam="2">  1       -1 0.19113815E-01 0.79983531E+02</pdfrwt>
<totfact> 0.11299379E+05</totfact>
</mgrwt>
</event>
<event>
 8    1  0.1226832E-024  0.8106398E+02  0.7818608E-02  0.1326059E+00
         -1   -1    0    0    0  501 -0.00000000000E+00  0.00000000000E+00  0.15551802496E+01  0.15551884164E+01  0.50400000000E-02 0.  1.
          2   -1    0    0  501    0  0.00000000000E+00 -0.00000000000E+00 -0.10563649382E+04  0.10563649382E+04  0.25500000000E-02 0. -1.
         24    2    1    2    0    0  0.00000000000E+00  0.00000000000E+00 -0.10548097579E+04  0.10579201266E+04  0.81063979912E+02 0.  0.
         66    2    3    3    0    0  0.29058840471E+02  0.39570402307E+01 -0.89238199380E+03  0.89286600184E+03  0.20000000521E+01 0.  0.
        -13    1    3    3    0    0 -0.29058840471E+02 -0.39570402307E+01 -0.16242776414E+03  0.16505412478E+03  0.10566000000E+00 0.  1.
         13    1    4    4    0    0  0.20258636151E+02  0.33356972074E+01 -0.63685297449E+03  0.63718385219E+03  0.10566000000E+00 0. -1.
        -13    1    4    4    0    0  0.76662657384E+01  0.59119192032E+00 -0.22844354069E+03  0.22857292838E+03  0.10566000000E+00 0.  1.
        -14    1    4    4    0    0  0.11339385812E+01  0.30151102966E-01 -0.27085478620E+02  0.27109221270E+02  0.00000000000E+00 0.  1.
<mgrwt>
<rscale>  0 0.81063980E+02</rscale>
<asrwt>0</asrwt>
<pdfrwt beam="1">  1        2 0.16251711E+00 0.81063980E+02</pdfrwt>
<pdfrwt beam="2">  1       -1 0.23925997E-03 0.81063980E+02</pdfrwt>
<totfact> 0.34083220E+05</totfact>
</mgrwt>
</event>
<event>
 8    1  0.1226832E-024  0.8062439E+02  0.7818608E-02  0.1327289E+00
         -1   -1    0    0    0  501 -0.00000000000E+00  0.00000000000E+00  0.11505322775E+01  0.11505433165E+01  0.50400000000E-02 0.  1.
          2   -1    0    0  501    0  0.00000000000E+00 -0.00000000000E+00 -0.14124464523E+04  0.14124464523E+04  0.25500000000E-02 0. -1.
         24    2    1    2    0    0  0.22204460493E-15 -0.35527136788E-14 -0.14112959200E+04  0.14135969956E+04  0.80624389301E+02 0.  0.
         66    2    3    3    0    0 -0.18606779798E+01  0.23880702048E+02 -0.12740344207E+04  0.12742611409E+04  0.19999994711E+01 0.  0.
        -13    1    3    3    0    0  0.18606779798E+01 -0.23880702048E+02 -0.13726149927E+03  0.13933585468E+03  0.10566000000E+00 0.  1.
         13    1    4    4    0    0 -0.26273760280E+00  0.37089310283E+01 -0.21665302974E+03  0.21668495947E+03  0.10566000000E+00 0.  1.
        -13    1    4    4    0    0 -0.18738882872E+01  0.18820324345E+02 -0.97995734430E+03  0.98013984914E+03  0.10566000000E+00 0. -1.
         14    1    4    4    0    0  0.27594791020E+00  0.13514466750E+01 -0.77424046665E+02  0.77436332283E+02  0.00000000000E+00 0. -1.
<mgrwt>
<rscale>  0 0.80624389E+02</rscale>
<asrwt>0</asrwt>
<pdfrwt beam="1">  1        2 0.21729807E+00 0.80624389E+02</pdfrwt>
<pdfrwt beam="2">  1       -1 0.17700695E-03 0.80624389E+02</pdfrwt>
<totfact> 0.33248497E+05</totfact>
</mgrwt>
</event>
<event>
 8    1  0.1226832E-024  0.7992788E+02  0.7818608E-02  0.1329256E+00
         -1   -1    0    0    0  501 -0.00000000000E+00  0.00000000000E+00  0.17421141766E+01  0.17421214671E+01  0.50400000000E-02 0.  1.
          2   -1    0    0  501    0  0.00000000000E+00 -0.00000000000E+00 -0.91676725659E+03  0.91676725659E+03  0.25500000000E-02 0. -1.
         24    2    1    2    0    0  0.00000000000E+00  0.88817841970E-15 -0.91502514241E+03  0.91850937806E+03  0.79927882098E+02 0.  0.
         66    2    3    3    0    0 -0.30090155841E+02  0.79748325350E+01 -0.74534323374E+03  0.74599567795E+03  0.19999995331E+01 0.  0.
        -13    1    3    3    0    0  0.30090155841E+02 -0.79748325350E+01 -0.16968190867E+03  0.17251370011E+03  0.10566000000E+00 0.  1.
         13    1    4    4    0    0 -0.40263298640E+01  0.14596676484E+01 -0.10744324855E+03  0.10752862309E+03  0.10566000000E+00 0. -1.
        -13    1    4    4    0    0 -0.11071710325E+02  0.32317929937E+01 -0.26110264371E+03  0.26135728222E+03  0.10566000000E+00 0.  1.
         14    1    4    4    0    0 -0.14992115652E+02  0.32833718930E+01 -0.37679734149E+03  0.37710977263E+03  0.00000000000E+00 0. -1.
<mgrwt>
<rscale>  0 0.79927882E+02</rscale>
<asrwt>0</asrwt>
<pdfrwt beam="1">  1        2 0.14104073E+00 0.79927882E+02</pdfrwt>
<pdfrwt beam="2">  1       -1 0.26801886E-03 0.79927882E+02</pdfrwt>
<totfact> 0.35096129E+05</totfact>
</mgrwt>
</event>
<event>
 8    1  0.1226832E-024  0.8020428E+02  0.7818608E-02  0.1328473E+00
         -1   -1    0    0    0  501 -0.00000000000E+00  0.00000000000E+00  0.88000830714E+01  0.88000845146E+01  0.50400000000E-02 0.  1.
          2   -1    0    0  501    0  0.00000000000E+00 -0.00000000000E+00 -0.18274619102E+03  0.18274619104E+03  0.25500000000E-02 0. -1.
         24    2    1    2    0    0  0.00000000000E+00 -0.35527136788E-14 -0.17394610795E+03  0.19154627555E+03  0.80204284221E+02 0.  0.
         66    2    3    3    0    0 -0.25008606538E+02 -0.20072143310E+02 -0.14443674977E+03  0.14796721266E+03  0.20000003346E+01 0.  0.
        -13    1    3    3    0    0  0.25008606538E+02  0.20072143310E+02 -0.29509358177E+02  0.43579062887E+02  0.10566000000E+00 0.  1.
         13    1    4    4    0    0 -0.32015076547E+01 -0.26289384779E+01 -0.17693799230E+02  0.18172580004E+02  0.10566000000E+00 0. -1.
        -13    1    4    4    0    0 -0.17316803116E+01 -0.18941000202E+01 -0.13072690934E+02  0.13322640274E+02  0.10566000000E+00 0.  1.
        -14    1    4    4    0    0 -0.20075418572E+02 -0.15549104812E+02 -0.11367025961E+03  0.11647199239E+03  0.00000000000E+00 0.  1.
<mgrwt>
<rscale>  0 0.80204284E+02</rscale>
<asrwt>0</asrwt>
<pdfrwt beam="1">  1        2 0.28114796E-01 0.80204284E+02</pdfrwt>
<pdfrwt beam="2">  1       -1 0.13538592E-02 0.80204284E+02</pdfrwt>
<totfact> 0.21240611E+05</totfact>
</mgrwt>
</event>
<event>
 8    1  0.1226832E-024  0.7793537E+02  0.7818608E-02  0.1335015E+00
          2   -1    0    0  501    0  0.00000000000E+00  0.00000000000E+00  0.33053013084E+02  0.33053013183E+02  0.25500000000E-02 0. -1.
         -1   -1    0    0    0  501 -0.00000000000E+00 -0.00000000000E+00 -0.45940759958E+02  0.45940760235E+02  0.50400000000E-02 0.  1.
         24    2    1    2    0    0  0.00000000000E+00  0.00000000000E+00 -0.12887746874E+02  0.78993773417E+02  0.77935372067E+02 0.  0.
         66    2    3    3    0    0 -0.32843515927E+02  0.84444681417E+01  0.12955279244E+02  0.36357184159E+02  0.19999997553E+01 0.  0.
        -13    1    3    3    0    0  0.32843515927E+02 -0.84444681417E+01 -0.25843026118E+02  0.42636589259E+02  0.10566000000E+00 0.  1.
         13    1    4    4    0    0 -0.50900063925E+01  0.17814114685E+01  0.21671335885E+01  0.58128498967E+01  0.10566000000E+00 0. -1.
        -13    1    4    4    0    0 -0.78213499943E+01  0.25070293641E+01  0.32103696511E+01  0.88190900494E+01  0.10566000000E+00 0.  1.
         14    1    4    4    0    0 -0.19932159540E+02  0.41560273091E+01  0.75777760045E+01  0.21725244213E+02  0.00000000000E+00 0. -1.
<mgrwt>
<rscale>  0 0.77935372E+02</rscale>
<asrwt>0</asrwt>
<pdfrwt beam="1">  1        2 0.50850790E-02 0.77935372E+02</pdfrwt>
<pdfrwt beam="2">  1       -1 0.70678092E-02 0.77935372E+02</pdfrwt>
<totfact> 0.14751536E+05</totfact>
</mgrwt>
</event>
<event>
 8    1  0.1226832E-024  0.7954623E+02  0.7818608E-02  0.1330344E+00
          2   -1    0    0  501    0  0.00000000000E+00  0.00000000000E+00  0.14871747534E+04  0.14871747534E+04  0.25500000000E-02 0. -1.
         -1   -1    0    0    0  501 -0.00000000000E+00 -0.00000000000E+00 -0.10636893449E+01  0.10637012852E+01  0.50400000000E-02 0.  1.
         24    2    1    2    0    0  0.00000000000E+00  0.00000000000E+00  0.14861110640E+04  0.14882384547E+04  0.79546233745E+02 0.  0.
         66    2    3    3    0    0  0.11337418659E+02  0.72941781649E+01  0.14430926439E+04  0.14431569981E+04  0.20000010280E+01 0.  0.
        -13    1    3    3    0    0 -0.11337418659E+02 -0.72941781649E+01  0.43018420103E+02  0.45081456600E+02  0.10566000000E+00 0.  1.
         13    1    4    4    0    0  0.24791549294E+01  0.13881330340E+01  0.28545123793E+03  0.28546539811E+03  0.10566000000E+00 0. -1.
        -13    1    4    4    0    0  0.66478588995E+00  0.49092155091E+00  0.53151631959E+02  0.53158161068E+02  0.10566000000E+00 0.  1.
         14    1    4    4    0    0  0.81934778394E+01  0.54151235800E+01  0.11044897740E+04  0.11045334389E+04  0.00000000000E+00 0. -1.
<mgrwt>
<rscale>  0 0.79546234E+02</rscale>
<asrwt>0</asrwt>
<pdfrwt beam="1">  1        2 0.22879482E+00 0.79546234E+02</pdfrwt>
<pdfrwt beam="2">  1       -1 0.16364636E-03 0.79546234E+02</pdfrwt>
<totfact> 0.33854226E+05</totfact>
</mgrwt>
</event>
<event>
 8    1  0.1226832E-024  0.7892329E+02  0.7818608E-02  0.1332135E+00
          2   -1    0    0  501    0  0.00000000000E+00  0.00000000000E+00  0.32821545960E+03  0.32821545961E+03  0.25500000000E-02 0. -1.
         -1   -1    0    0    0  501 -0.00000000000E+00 -0.00000000000E+00 -0.47445080645E+01  0.47445107414E+01  0.50400000000E-02 0.  1.
         24    2    1    2    0    0  0.00000000000E+00  0.00000000000E+00  0.32347095154E+03  0.33295997035E+03  0.78923287876E+02 0.  0.
         66    2    3    3    0    0  0.10539056097E+02 -0.34975782065E+02  0.22453292055E+03  0.22749375693E+03  0.19999990033E+01 0.  0.
        -13    1    3    3    0    0 -0.10539056097E+02  0.34975782065E+02  0.98938030983E+02  0.10546621342E+03  0.10566000000E+00 0.  1.
         13    1    4    4    0    0  0.78148438196E+01 -0.23474928172E+02  0.15269665285E+03  0.15468814755E+03  0.10566000000E+00 0. -1.
        -13    1    4    4    0    0  0.79039961230E+00 -0.41648595007E+01  0.24093931667E+02  0.24464249292E+02  0.10566000000E+00 0.  1.
         14    1    4    4    0    0  0.19338126648E+01 -0.73359943923E+01  0.47742336040E+02  0.48341360094E+02  0.00000000000E+00 0. -1.
<mgrwt>
<rscale>  0 0.78923288E+02</rscale>
<asrwt>0</asrwt>
<pdfrwt beam="1">  1        2 0.50494700E-01 0.78923288E+02</pdfrwt>
<pdfrwt beam="2">  1       -1 0.72992433E-03 0.78923288E+02</pdfrwt>
<totfact> 0.27286305E+05</totfact>
</mgrwt>
</event>
<event>
 8    1  0.1226832E-024  0.7475985E+02  0.7818608E-02  0.1344616E+00
         -1   -1    0    0    0  501 -0.00000000000E+00  0.00000000000E+00  0.91155718705E+01  0.91155732638E+01  0.50400000000E-02 0.  1.
          2   -1    0    0  501    0  0.00000000000E+00 -0.00000000000E+00 -0.15328259318E+03  0.15328259320E+03  0.25500000000E-02 0. -1.
         24    2    1    2    0    0  0.00000000000E+00  0.00000000000E+00 -0.14416702131E+03  0.16239816647E+03  0.74759845091E+02 0.  0.
         66    2    3    3    0    0 -0.32610217203E+02 -0.17442096324E+02 -0.60722655574E+02  0.71125901635E+02  0.19999983046E+01 0.  0.
        -13    1    3    3    0    0  0.32610217203E+02  0.17442096324E+02 -0.83444365738E+02  0.91272264833E+02  0.10566000000E+00 0.  1.
         13    1    4    4    0    0 -0.37955612504E+01 -0.23791920512E+01 -0.78508512849E+01  0.90395724431E+01  0.10566000000E+00 0. -1.
        -13    1    4    4    0    0 -0.26536086516E+02 -0.13557423231E+02 -0.48962317051E+02  0.57317425511E+02  0.10566000000E+00 0.  1.
        -14    1    4    4    0    0 -0.22785694371E+01 -0.15054810423E+01 -0.39094872386E+01  0.47689036808E+01  0.00000000000E+00 0.  1.
<mgrwt>
<rscale>  0 0.74759845E+02</rscale>
<asrwt>0</asrwt>
<pdfrwt beam="1">  1        2 0.23581936E-01 0.74759845E+02</pdfrwt>
<pdfrwt beam="2">  1       -1 0.14023959E-02 0.74759845E+02</pdfrwt>
<totfact> 0.24124119E+05</totfact>
</mgrwt>
</event>
<event>
 8    1  0.1226832E-024  0.7878163E+02  0.7818608E-02  0.1332545E+00
         -1   -1    0    0    0  501 -0.00000000000E+00  0.00000000000E+00  0.15065035583E+01  0.15065119889E+01  0.50400000000E-02 0.  1.
          2   -1    0    0  501    0  0.00000000000E+00 -0.00000000000E+00 -0.10299557690E+04  0.10299557690E+04  0.25500000000E-02 0. -1.
         24    2    1    2    0    0  0.00000000000E+00  0.00000000000E+00 -0.10284492654E+04  0.10314622810E+04  0.78781631880E+02 0.  0.
         66    2    3    3    0    0 -0.11131977571E+02 -0.16208434482E+02 -0.96105125361E+03  0.96125446493E+03  0.20000027635E+01 0.  0.
        -13    1    3    3    0    0  0.11131977571E+02  0.16208434482E+02 -0.67398011798E+02  0.70207816027E+02  0.10566000000E+00 0.  1.
         13    1    4    4    0    0 -0.39825613146E+01 -0.44219857258E+01 -0.28773268387E+03  0.28779423775E+03  0.10566000000E+00 0. -1.
        -13    1    4    4    0    0 -0.10615587695E+00 -0.34887437226E+00 -0.19398562943E+02  0.19402277977E+02  0.10566000000E+00 0.  1.
         14    1    4    4    0    0 -0.70432603793E+01 -0.11437574384E+02 -0.65392000680E+03  0.65405794921E+03  0.00000000000E+00 0. -1.
<mgrwt>
<rscale>  0 0.78781632E+02</rscale>
<asrwt>0</asrwt>
<pdfrwt beam="1">  1        2 0.15845417E+00 0.78781632E+02</pdfrwt>
<pdfrwt beam="2">  1       -1 0.23177125E-03 0.78781632E+02</pdfrwt>
<totfact> 0.36695889E+05</totfact>
</mgrwt>
</event>
<event>
 8    1  0.1226832E-024  0.7889325E+02  0.7818608E-02  0.1332222E+00
          2   -1    0    0  501    0  0.00000000000E+00  0.00000000000E+00  0.10307487714E+03  0.10307487717E+03  0.25500000000E-02 0. -1.
         -1   -1    0    0    0  501 -0.00000000000E+00 -0.00000000000E+00 -0.15096171546E+02  0.15096172387E+02  0.50400000000E-02 0.  1.
         24    2    1    2    0    0  0.71054273576E-14  0.88817841970E-15  0.87978705594E+02  0.11817104956E+03  0.78893246326E+02 0.  0.
         66    2    3    3    0    0  0.38791521680E+02 -0.61178180546E+01  0.49167503848E+02  0.62957551237E+02  0.19999927553E+01 0.  0.
        -13    1    3    3    0    0 -0.38791521680E+02  0.61178180546E+01  0.38811201745E+02  0.55213498322E+02  0.10566000000E+00 0.  1.
         13    1    4    4    0    0  0.13152442203E+02 -0.19473489824E+01  0.16321525740E+02  0.21051894700E+02  0.10566000000E+00 0. -1.
        -13    1    4    4    0    0  0.18671622061E+01  0.86894955451E-01  0.24708549573E+01  0.31000215632E+01  0.10566000000E+00 0.  1.
        -14    1    4    4    0    0  0.23771917271E+02 -0.42573640277E+01  0.30375123151E+02  0.38805634973E+02  0.00000000000E+00 0.  1.
<mgrwt>
<rscale>  0 0.78893246E+02</rscale>
<asrwt>0</asrwt>
<pdfrwt beam="1">  1        2 0.15857674E-01 0.78893246E+02</pdfrwt>
<pdfrwt beam="2">  1       -1 0.23224880E-02 0.78893246E+02</pdfrwt>
<totfact> 0.18556292E+05</totfact>
</mgrwt>
</event>
<event>
 8    1  0.1226832E-024  0.8027483E+02  0.7818608E-02  0.1328273E+00
         -1   -1    0    0    0  501 -0.00000000000E+00  0.00000000000E+00  0.14306366254E+01  0.14306455031E+01  0.50400000000E-02 0.  1.
          2   -1    0    0  501    0  0.00000000000E+00 -0.00000000000E+00 -0.11260769593E+04  0.11260769593E+04  0.25500000000E-02 0. -1.
         24    2    1    2    0    0  0.00000000000E+00  0.27755575616E-16 -0.11246463226E+04  0.11275076048E+04  0.80274826623E+02 0.  0.
         66    2    3    3    0    0  0.10946313813E+02 -0.24864832301E+00 -0.11046789205E+04  0.11047349913E+04  0.19999996505E+01 0.  0.
        -13    1    3    3    0    0 -0.10946313813E+02  0.24864832301E+00 -0.19967402163E+02  0.22772613492E+02  0.10566000000E+00 0.  1.
         13    1    4    4    0    0  0.62806617534E+01  0.60721695776E+00 -0.64347997220E+03  0.64351091770E+03  0.10566000000E+00 0. -1.
        -13    1    4    4    0    0  0.14519414650E+01 -0.61744925447E+00 -0.16633264502E+03  0.16634016154E+03  0.10566000000E+00 0.  1.
        -14    1    4    4    0    0  0.32137105946E+01 -0.23841602629E+00 -0.29486630326E+03  0.29488391203E+03  0.00000000000E+00 0.  1.
<mgrwt>
<rscale>  0 0.80274827E+02</rscale>
<asrwt>0</asrwt>
<pdfrwt beam="1">  1        2 0.17324190E+00 0.80274827E+02</pdfrwt>
<pdfrwt beam="2">  1       -1 0.22009953E-03 0.80274827E+02</pdfrwt>
<totfact> 0.34905378E+05</totfact>
</mgrwt>
</event>
<event>
 8    1  0.1226832E-024  0.7661396E+02  0.7818608E-02  0.1338945E+00
         -1   -1    0    0    0  501 -0.00000000000E+00  0.00000000000E+00  0.45537019222E+01  0.45537047113E+01  0.50400000000E-02 0.  1.
          2   -1    0    0  501    0  0.00000000000E+00 -0.00000000000E+00 -0.32224867602E+03  0.32224867603E+03  0.25500000000E-02 0. -1.
         24    2    1    2    0    0  0.00000000000E+00  0.22204460493E-15 -0.31769497410E+03  0.32680238074E+03  0.76613964075E+02 0.  0.
         66    2    3    3    0    0 -0.37601795416E+02  0.17067003861E+01 -0.18869602468E+03  0.19242400465E+03  0.19999981719E+01 0.  0.
        -13    1    3    3    0    0  0.37601795416E+02 -0.17067003861E+01 -0.12899894942E+03  0.13437837609E+03  0.10566000000E+00 0.  1.
         13    1    4    4    0    0 -0.19559925769E+02  0.10232062540E+00 -0.97017788195E+02  0.98970013417E+02  0.10566000000E+00 0. -1.
        -13    1    4    4    0    0 -0.63762688167E+01  0.23886059466E+00 -0.33286003567E+02  0.33892227072E+02  0.10566000000E+00 0.  1.
         14    1    4    4    0    0 -0.11665600830E+02  0.13655191660E+01 -0.58392232915E+02  0.59561764162E+02  0.00000000000E+00 0. -1.
<mgrwt>
<rscale>  0 0.76613964E+02</rscale>
<asrwt>0</asrwt>
<pdfrwt beam="1">  1        2 0.49576701E-01 0.76613964E+02</pdfrwt>
<pdfrwt beam="2">  1       -1 0.70057000E-03 0.76613964E+02</pdfrwt>
<totfact> 0.29293031E+05</totfact>
</mgrwt>
</event>
<event>
 8    1  0.1226832E-024  0.7008079E+02  0.7818608E-02  0.1359819E+00
         -1   -1    0    0    0  501 -0.00000000000E+00  0.00000000000E+00  0.29857059292E+01  0.29857101831E+01  0.50400000000E-02 0.  1.
          2   -1    0    0  501    0  0.00000000000E+00 -0.00000000000E+00 -0.41123558877E+03  0.41123558878E+03  0.25500000000E-02 0. -1.
         24    2    1    2    0    0 -0.88817841970E-15  0.17763568394E-14 -0.40824988284E+03  0.41422129896E+03  0.70080793898E+02 0.  0.
         66    2    3    3    0    0 -0.47955613484E+01  0.10132400430E+02 -0.40033839098E+03  0.40050029992E+03  0.20000001146E+01 0.  0.
        -13    1    3    3    0    0  0.47955613484E+01 -0.10132400430E+02 -0.79114918675E+01  0.13720999043E+02  0.10566000000E+00 0.  1.
         13    1    4    4    0    0 -0.33994790637E+01  0.73766873916E+01 -0.27374832725E+03  0.27386881861E+03  0.10566000000E+00 0. -1.
        -13    1    4    4    0    0 -0.54792562066E+00  0.43262727490E+00 -0.19282219204E+02  0.19295142661E+02  0.10566000000E+00 0.  1.
        -14    1    4    4    0    0 -0.84815666401E+00  0.23230857636E+01 -0.10730784453E+03  0.10733633865E+03  0.00000000000E+00 0.  1.
<mgrwt>
<rscale>  0 0.70080794E+02</rscale>
<asrwt>0</asrwt>
<pdfrwt beam="1">  1        2 0.63266969E-01 0.70080794E+02</pdfrwt>
<pdfrwt beam="2">  1       -1 0.45934003E-03 0.70080794E+02</pdfrwt>
<totfact> 0.40209394E+05</totfact>
</mgrwt>
</event>
<event>
 8    1  0.1226832E-024  0.7767318E+02  0.7818608E-02  0.1335787E+00
         -1   -1    0    0    0  501 -0.00000000000E+00  0.00000000000E+00  0.42582843632E+02  0.42582843930E+02  0.50400000000E-02 0.  1.
          2   -1    0    0  501    0  0.00000000000E+00 -0.00000000000E+00 -0.35419919206E+02  0.35419919298E+02  0.25500000000E-02 0. -1.
         24    2    1    2    0    0  0.00000000000E+00 -0.71054273576E-14  0.71629244262E+01  0.78002763228E+02  0.77673184464E+02 0.  0.
         66    2    3    3    0    0  0.19612574402E+01 -0.37188735750E+02 -0.73908235493E+01  0.38019374907E+02  0.19999995270E+01 0.  0.
        -13    1    3    3    0    0 -0.19612574402E+01  0.37188735750E+02  0.14553747976E+02  0.39983388321E+02  0.10566000000E+00 0.  1.
         13    1    4    4    0    0  0.16401213777E+01 -0.15215113922E+02 -0.34654891801E+01  0.15691095216E+02  0.10566000000E+00 0. -1.
        -13    1    4    4    0    0 -0.76071858762E-01 -0.86772007494E+01 -0.15443756059E+01  0.88145255018E+01  0.10566000000E+00 0.  1.
         14    1    4    4    0    0  0.39720792129E+00 -0.13296421079E+02 -0.23809587633E+01  0.13513754189E+02  0.00000000000E+00 0. -1.
<mgrwt>
<rscale>  0 0.77673184E+02</rscale>
<asrwt>0</asrwt>
<pdfrwt beam="1">  1        2 0.54492183E-02 0.77673184E+02</pdfrwt>
<pdfrwt beam="2">  1       -1 0.65512068E-02 0.77673184E+02</pdfrwt>
<totfact> 0.15093654E+05</totfact>
</mgrwt>
</event>
<event>
 8    1  0.1226832E-024  0.8064379E+02  0.7818608E-02  0.1327234E+00
         -1   -1    0    0    0  501 -0.00000000000E+00  0.00000000000E+00  0.91726634269E+01  0.91726648115E+01  0.50400000000E-02 0.  1.
          2   -1    0    0  501    0  0.00000000000E+00 -0.00000000000E+00 -0.17725006854E+03  0.17725006856E+03  0.25500000000E-02 0. -1.
         24    2    1    2    0    0  0.00000000000E+00  0.00000000000E+00 -0.16807740511E+03  0.18642273337E+03  0.80643793360E+02 0.  0.
         66    2    3    3    0    0 -0.71327057256E+01  0.96013028070E+01 -0.17304612335E+03  0.17347051999E+03  0.19999976988E+01 0.  0.
        -13    1    3    3    0    0  0.71327057256E+01 -0.96013028070E+01  0.49687182385E+01  0.12952213383E+02  0.10566000000E+00 0.  1.
         13    1    4    4    0    0 -0.61590202735E+00  0.10493221071E+01 -0.19631129808E+02  0.19669083196E+02  0.10566000000E+00 0. -1.
        -13    1    4    4    0    0 -0.28368824198E+01  0.32095917135E+01 -0.72705230433E+02  0.72831387995E+02  0.10566000000E+00 0.  1.
         14    1    4    4    0    0 -0.36799212784E+01  0.53423889865E+01 -0.80709763109E+02  0.80970048795E+02  0.00000000000E+00 0. -1.
<mgrwt>
<rscale>  0 0.80643793E+02</rscale>
<asrwt>0</asrwt>
<pdfrwt beam="1">  1        2 0.27269239E-01 0.80643793E+02</pdfrwt>
<pdfrwt beam="2">  1       -1 0.14111792E-02 0.80643793E+02</pdfrwt>
<totfact> 0.20719617E+05</totfact>
</mgrwt>
</event>
<event>
 8    1  0.1226832E-024  0.7741618E+02  0.7818608E-02  0.1336548E+00
          2   -1    0    0  501    0  0.00000000000E+00  0.00000000000E+00  0.11834144323E+04  0.11834144323E+04  0.25500000000E-02 0. -1.
         -1   -1    0    0    0  501 -0.00000000000E+00 -0.00000000000E+00 -0.12660910326E+01  0.12661010640E+01  0.50400000000E-02 0.  1.
         24    2    1    2    0    0  0.35527136788E-14  0.00000000000E+00  0.11821483413E+04  0.11846805334E+04  0.77416182913E+02 0.  0.
         66    2    3    3    0    0 -0.21487241027E+02 -0.78298755774E+01  0.10688797668E+04  0.10691262621E+04  0.19999977856E+01 0.  0.
        -13    1    3    3    0    0  0.21487241027E+02  0.78298755774E+01  0.11326857445E+03  0.11555427123E+03  0.10566000000E+00 0.  1.
         13    1    4    4    0    0 -0.42473494677E+01 -0.97138643807E+00  0.21774694165E+03  0.21779055382E+03  0.10566000000E+00 0. -1.
        -13    1    4    4    0    0 -0.10694783135E+02 -0.44872870738E+01  0.51019015371E+03  0.51032197507E+03  0.10566000000E+00 0.  1.
         14    1    4    4    0    0 -0.65451084248E+01 -0.23712020655E+01  0.34094267144E+03  0.34101373324E+03  0.00000000000E+00 0. -1.
<mgrwt>
<rscale>  0 0.77416183E+02</rscale>
<asrwt>0</asrwt>
<pdfrwt beam="1">  1        2 0.18206308E+00 0.77416183E+02</pdfrwt>
<pdfrwt beam="2">  1       -1 0.19478474E-03 0.77416183E+02</pdfrwt>
<totfact> 0.38204960E+05</totfact>
</mgrwt>
</event>
<event>
 8    1  0.1226832E-024  0.7955616E+02  0.7818608E-02  0.1330316E+00
         -1   -1    0    0    0  501 -0.00000000000E+00  0.00000000000E+00  0.11676210482E+02  0.11676211570E+02  0.50400000000E-02 0.  1.
          2   -1    0    0  501    0  0.00000000000E+00 -0.00000000000E+00 -0.13551447735E+03  0.13551447738E+03  0.25500000000E-02 0. -1.
         24    2    1    2    0    0  0.00000000000E+00 -0.35527136788E-14 -0.12383826687E+03  0.14719068895E+03  0.79556159857E+02 0.  0.
         66    2    3    3    0    0  0.22322664205E+02 -0.26555427918E+02 -0.97871940678E+02  0.10385763748E+03  0.20000006287E+01 0.  0.
        -13    1    3    3    0    0 -0.22322664205E+02  0.26555427918E+02 -0.25966326192E+02  0.43333051462E+02  0.10566000000E+00 0.  1.
         13    1    4    4    0    0  0.14391293379E+02 -0.16209155193E+02 -0.62158271665E+02  0.65829385062E+02  0.10566000000E+00 0. -1.
        -13    1    4    4    0    0  0.52822285250E+00 -0.74759147483E+00 -0.20160008604E+01  0.22166045881E+01  0.10566000000E+00 0. -1.
        -14    1    4    4    0    0  0.74031479729E+01 -0.95986812504E+01 -0.33697668152E+02  0.35811647833E+02  0.00000000000E+00 0.  1.
<mgrwt>
<rscale>  0 0.79556160E+02</rscale>
<asrwt>0</asrwt>
<pdfrwt beam="1">  1        2 0.20848380E-01 0.79556160E+02</pdfrwt>
<pdfrwt beam="2">  1       -1 0.17963403E-02 0.79556160E+02</pdfrwt>
<totfact> 0.19683834E+05</totfact>
</mgrwt>
</event>
<event>
 8    1  0.1226832E-024  0.8043299E+02  0.7818608E-02  0.1327827E+00
          2   -1    0    0  501    0  0.00000000000E+00  0.00000000000E+00  0.41295206252E+02  0.41295206330E+02  0.25500000000E-02 0. -1.
         -1   -1    0    0    0  501 -0.00000000000E+00 -0.00000000000E+00 -0.39165963011E+02  0.39165963335E+02  0.50400000000E-02 0.  1.
         24    2    1    2    0    0  0.00000000000E+00  0.17763568394E-14  0.21292432410E+01  0.80461169665E+02  0.80432991659E+02 0.  0.
         66    2    3    3    0    0 -0.19182103913E+02 -0.13720316215E+02  0.33621439023E+02  0.41116922986E+02  0.20000015577E+01 0.  0.
        -13    1    3    3    0    0  0.19182103913E+02  0.13720316215E+02 -0.31492195782E+02  0.39344246680E+02  0.10566000000E+00 0.  1.
         13    1    4    4    0    0 -0.16427187964E+02 -0.11242729788E+02  0.27877228164E+02  0.34254963022E+02  0.10566000000E+00 0. -1.
        -13    1    4    4    0    0 -0.16168644281E+01 -0.11313937256E+01  0.33379410334E+01  0.38790870988E+01  0.10566000000E+00 0.  1.
         14    1    4    4    0    0 -0.11380515212E+01 -0.13461927010E+01  0.24062698261E+01  0.29828728651E+01  0.00000000000E+00 0. -1.
<mgrwt>
<rscale>  0 0.80432992E+02</rscale>
<asrwt>0</asrwt>
<pdfrwt beam="1">  1        2 0.63531086E-02 0.80432992E+02</pdfrwt>
<pdfrwt beam="2">  1       -1 0.60255328E-02 0.80432992E+02</pdfrwt>
<totfact> 0.14136901E+05</totfact>
</mgrwt>
</event>
<event>
 8    1  0.1226832E-024  0.7771000E+02  0.7818608E-02  0.1335679E+00
          2   -1    0    0  501    0  0.00000000000E+00  0.00000000000E+00  0.35818272967E+01  0.35818282044E+01  0.25500000000E-02 0. -1.
         -1   -1    0    0    0  501 -0.00000000000E+00 -0.00000000000E+00 -0.42149182843E+03  0.42149182846E+03  0.50400000000E-02 0.  1.
         24    2    1    2    0    0  0.00000000000E+00  0.00000000000E+00 -0.41791000113E+03  0.42507365666E+03  0.77710002850E+02 0.  0.
         66    2    3    3    0    0  0.20125795834E+02 -0.33004533171E+02 -0.22908611303E+03  0.23233336832E+03  0.19999962532E+01 0.  0.
        -13    1    3    3    0    0 -0.20125795834E+02  0.33004533171E+02 -0.18882388810E+03  0.19274028834E+03  0.10566000000E+00 0.  1.
         13    1    4    4    0    0  0.55920335112E+01 -0.79661480858E+01 -0.55043479339E+02  0.55897460907E+02  0.10566000000E+00 0.  1.
        -13    1    4    4    0    0  0.11016465771E+02 -0.18368565947E+02 -0.12971027122E+03  0.13146684889E+03  0.10566000000E+00 0. -1.
        -14    1    4    4    0    0  0.35172965522E+01 -0.66698191374E+01 -0.44332362472E+02  0.44969058526E+02  0.00000000000E+00 0.  1.
<mgrwt>
<rscale>  0 0.77710003E+02</rscale>
<asrwt>0</asrwt>
<pdfrwt beam="1">  1        2 0.55105076E-03 0.77710003E+02</pdfrwt>
<pdfrwt beam="2">  1       -1 0.64844858E-01 0.77710003E+02</pdfrwt>
<totfact> 0.79460647E+04</totfact>
</mgrwt>
</event>
<event>
 8    1  0.1226832E-024  0.7886239E+02  0.7818608E-02  0.1332311E+00
          2   -1    0    0  501    0  0.00000000000E+00  0.00000000000E+00  0.28883196926E+03  0.28883196927E+03  0.25500000000E-02 0. -1.
         -1   -1    0    0    0  501 -0.00000000000E+00 -0.00000000000E+00 -0.53831253957E+01  0.53831277551E+01  0.50400000000E-02 0.  1.
         24    2    1    2    0    0  0.44408920985E-15 -0.35527136788E-14  0.28344884386E+03  0.29421509702E+03  0.78862387931E+02 0.  0.
         66    2    3    3    0    0  0.30677083513E+01 -0.31629110912E+02  0.22875058653E+03  0.23095593159E+03  0.20000023598E+01 0.  0.
        -13    1    3    3    0    0 -0.30677083513E+01  0.31629110912E+02  0.54698257335E+02  0.63259165432E+02  0.10566000000E+00 0.  1.
         13    1    4    4    0    0  0.68803968633E+00 -0.93162419972E+01  0.66115478263E+02  0.66772250176E+02  0.10566000000E+00 0. -1.
        -13    1    4    4    0    0  0.75819427561E+00 -0.13775693834E+02  0.97388018577E+02  0.98360469323E+02  0.10566000000E+00 0.  1.
        -14    1    4    4    0    0  0.16214743894E+01 -0.85371750815E+01  0.65247089686E+02  0.65823212092E+02  0.00000000000E+00 0.  1.
<mgrwt>
<rscale>  0 0.78862388E+02</rscale>
<asrwt>0</asrwt>
<pdfrwt beam="1">  1        2 0.44435695E-01 0.78862388E+02</pdfrwt>
<pdfrwt beam="2">  1       -1 0.82817319E-03 0.78862388E+02</pdfrwt>
<totfact> 0.26108570E+05</totfact>
</mgrwt>
</event>
<event>
 8    1  0.1226832E-024  0.7898234E+02  0.7818608E-02  0.1331964E+00
         -1   -1    0    0    0  501 -0.00000000000E+00  0.00000000000E+00  0.60347684314E+01  0.60347705360E+01  0.50400000000E-02 0.  1.
          2   -1    0    0  501    0  0.00000000000E+00 -0.00000000000E+00 -0.25842786242E+03  0.25842786243E+03  0.25500000000E-02 0. -1.
         24    2    1    2    0    0  0.00000000000E+00  0.55511151231E-16 -0.25239309399E+03  0.26446263297E+03  0.78982341973E+02 0.  0.
         66    2    3    3    0    0 -0.36538600576E+02  0.27973218918E+00 -0.17621186060E+03  0.17997157387E+03  0.20000011720E+01 0.  0.
        -13    1    3    3    0    0  0.36538600576E+02 -0.27973218918E+00 -0.76181233390E+02  0.84491059095E+02  0.10566000000E+00 0.  1.
         13    1    4    4    0    0 -0.16491396002E+02 -0.75966533568E+00 -0.79335899743E+02  0.81035420562E+02  0.10566000000E+00 0. -1.
        -13    1    4    4    0    0 -0.66934856679E+01  0.14208506214E+00 -0.31229212200E+02  0.31938969883E+02  0.10566000000E+00 0.  1.
        -14    1    4    4    0    0 -0.13353718907E+02  0.89731246272E+00 -0.65646748655E+02  0.66997183428E+02  0.00000000000E+00 0.  1.
<mgrwt>
<rscale>  0 0.78982342E+02</rscale>
<asrwt>0</asrwt>
<pdfrwt beam="1">  1        2 0.39758124E-01 0.78982342E+02</pdfrwt>
<pdfrwt beam="2">  1       -1 0.92842628E-03 0.78982342E+02</pdfrwt>
<totfact> 0.24980055E+05</totfact>
</mgrwt>
</event>
<event>
 8    1  0.1226832E-024  0.7933465E+02  0.7818608E-02  0.1330950E+00
          2   -1    0    0  501    0  0.00000000000E+00  0.00000000000E+00  0.24690033949E+03  0.24690033950E+03  0.25500000000E-02 0. -1.
         -1   -1    0    0    0  501 -0.00000000000E+00 -0.00000000000E+00 -0.63730023992E+01  0.63730043921E+01  0.50400000000E-02 0.  1.
         24    2    1    2    0    0  0.00000000000E+00  0.00000000000E+00  0.24052733709E+03  0.25327334390E+03  0.79334650941E+02 0.  0.
         66    2    3    3    0    0 -0.10806442752E+02 -0.37723727432E+02  0.13829534039E+03  0.14376877262E+03  0.19999978417E+01 0.  0.
        -13    1    3    3    0    0  0.10806442752E+02  0.37723727432E+02  0.10223199671E+03  0.10950457128E+03  0.10566000000E+00 0.  1.
         13    1    4    4    0    0 -0.83972960555E+01 -0.28445958840E+02  0.10503030254E+03  0.10913781550E+03  0.10566000000E+00 0. -1.
        -13    1    4    4    0    0 -0.56228101936E+00 -0.17660281161E+01  0.77417567932E+01  0.79612170887E+01  0.10566000000E+00 0.  1.
         14    1    4    4    0    0 -0.18468656771E+01 -0.75117404760E+01  0.25523281049E+02  0.26669740031E+02  0.00000000000E+00 0. -1.
<mgrwt>
<rscale>  0 0.79334651E+02</rscale>
<asrwt>0</asrwt>
<pdfrwt beam="1">  1        2 0.37984672E-01 0.79334651E+02</pdfrwt>
<pdfrwt beam="2">  1       -1 0.98046194E-03 0.79334651E+02</pdfrwt>
<totfact> 0.24289376E+05</totfact>
</mgrwt>
</event>
<event>
 8    1  0.1226832E-024  0.8338542E+02  0.7818608E-02  0.1319710E+00
          2   -1    0    0  501    0  0.00000000000E+00  0.00000000000E+00  0.29733048279E+03  0.29733048280E+03  0.25500000000E-02 0. -1.
         -1   -1    0    0    0  501 -0.00000000000E+00 -0.00000000000E+00 -0.58462945321E+01  0.58462967046E+01  0.50400000000E-02 0.  1.
         24    2    1    2    0    0 -0.35527136788E-14  0.00000000000E+00  0.29148418826E+03  0.30317677951E+03  0.83385416153E+02 0.  0.
         66    2    3    3    0    0  0.28310390644E+02 -0.74243965251E+01  0.25366261820E+03  0.25535333120E+03  0.20000001259E+01 0.  0.
        -13    1    3    3    0    0 -0.28310390644E+02  0.74243965251E+01  0.37821570058E+02  0.47823448306E+02  0.10566000000E+00 0.  1.
         13    1    4    4    0    0  0.13036159438E+02 -0.26867532638E+01  0.11446728655E+03  0.11523858274E+03  0.10566000000E+00 0.  1.
        -13    1    4    4    0    0  0.14701220368E+02 -0.46310495914E+01  0.13547566460E+03  0.13634969513E+03  0.10566000000E+00 0. -1.
         14    1    4    4    0    0  0.57301083798E+00 -0.10659366995E+00  0.37196670525E+01  0.37650533346E+01  0.00000000000E+00 0. -1.
<mgrwt>
<rscale>  0 0.83385416E+02</rscale>
<asrwt>0</asrwt>
<pdfrwt beam="1">  1        2 0.45743148E-01 0.83385416E+02</pdfrwt>
<pdfrwt beam="2">  1       -1 0.89943016E-03 0.83385416E+02</pdfrwt>
<totfact> 0.22790041E+05</totfact>
</mgrwt>
</event>
<event>
 8    1  0.1226832E-024  0.7960955E+02  0.7818608E-02  0.1330163E+00
          2   -1    0    0  501    0  0.00000000000E+00  0.00000000000E+00  0.11342489167E+03  0.11342489170E+03  0.25500000000E-02 0. -1.
         -1   -1    0    0    0  501 -0.00000000000E+00 -0.00000000000E+00 -0.13968893274E+02  0.13968894184E+02  0.50400000000E-02 0.  1.
         24    2    1    2    0    0  0.00000000000E+00 -0.35527136788E-14  0.99455998396E+02  0.12739378588E+03  0.79609553852E+02 0.  0.
         66    2    3    3    0    0 -0.16187040636E+01 -0.26789355679E+02  0.96745279015E+02  0.10041881704E+03  0.20000058033E+01 0.  0.
        -13    1    3    3    0    0  0.16187040636E+01  0.26789355679E+02  0.27107193807E+01  0.26974968844E+02  0.10566000000E+00 0.  1.
         13    1    4    4    0    0 -0.13951164085E+01 -0.15571400781E+02  0.55760208466E+02  0.57910507547E+02  0.10566000000E+00 0. -1.
        -13    1    4    4    0    0 -0.42786080265E+00 -0.41377189624E+01  0.16770552499E+02  0.17279073419E+02  0.10566000000E+00 0.  1.
        -14    1    4    4    0    0  0.20427314749E+00 -0.70802359353E+01  0.24214518050E+02  0.25229236073E+02  0.00000000000E+00 0.  1.
<mgrwt>
<rscale>  0 0.79609554E+02</rscale>
<asrwt>0</asrwt>
<pdfrwt beam="1">  1        2 0.17449983E-01 0.79609554E+02</pdfrwt>
<pdfrwt beam="2">  1       -1 0.21490606E-02 0.79609554E+02</pdfrwt>
<totfact> 0.18618928E+05</totfact>
</mgrwt>
</event>
<event>
 8    1  0.1226832E-024  0.8018457E+02  0.7818608E-02  0.1328528E+00
         -1   -1    0    0    0  501 -0.00000000000E+00  0.00000000000E+00  0.23482539510E+03  0.23482539515E+03  0.50400000000E-02 0.  1.
          2   -1    0    0  501    0  0.00000000000E+00 -0.00000000000E+00 -0.68450490120E+01  0.68450494870E+01  0.25500000000E-02 0. -1.
         24    2    1    2    0    0 -0.11102230246E-15 -0.71054273576E-14  0.22798034609E+03  0.24167044464E+03  0.80184572148E+02 0.  0.
         66    2    3    3    0    0 -0.68150540800E+00 -0.34868982485E+02  0.54611149828E+02  0.64828142674E+02  0.20000019683E+01 0.  0.
        -13    1    3    3    0    0  0.68150540800E+00  0.34868982485E+02  0.17336919626E+03  0.17684230197E+03  0.10566000000E+00 0.  1.
         13    1    4    4    0    0 -0.11661811783E+00 -0.20173290655E+01  0.28378194999E+01  0.34853407141E+01  0.10566000000E+00 0. -1.
        -13    1    4    4    0    0  0.36353980029E+00 -0.13952707430E+02  0.20895132205E+02  0.25128229537E+02  0.10566000000E+00 0.  1.
         14    1    4    4    0    0 -0.92842709045E+00 -0.18898945990E+02  0.30878198124E+02  0.36214572422E+02  0.00000000000E+00 0. -1.
<mgrwt>
<rscale>  0 0.80184572E+02</rscale>
<asrwt>0</asrwt>
<pdfrwt beam="1">  1        2 0.10530844E-02 0.80184572E+02</pdfrwt>
<pdfrwt beam="2">  1       -1 0.36126988E-01 0.80184572E+02</pdfrwt>
<totfact> 0.94072505E+04</totfact>
</mgrwt>
</event>
<event>
 8    1  0.1226832E-024  0.7963258E+02  0.7818608E-02  0.1330097E+00
          2   -1    0    0  501    0  0.00000000000E+00  0.00000000000E+00  0.23927102440E+02  0.23927102576E+02  0.25500000000E-02 0. -1.
         -1   -1    0    0    0  501 -0.00000000000E+00 -0.00000000000E+00 -0.66256956958E+02  0.66256957150E+02  0.50400000000E-02 0.  1.
         24    2    1    2    0    0  0.17763568394E-14  0.00000000000E+00 -0.42329854518E+02  0.90184059726E+02  0.79632581555E+02 0.  0.
         66    2    3    3    0    0  0.10298695180E+02 -0.21019773101E+02  0.15263662810E+02  0.28015591947E+02  0.20000015338E+01 0.  0.
        -13    1    3    3    0    0 -0.10298695180E+02  0.21019773101E+02 -0.57593517328E+02  0.62168467778E+02  0.10566000000E+00 0.  1.
         13    1    4    4    0    0  0.33200024247E+01 -0.70965897352E+01  0.46165469337E+01  0.90943758222E+01  0.10566000000E+00 0. -1.
        -13    1    4    4    0    0  0.20538190536E+01 -0.40138835923E+01  0.23156728779E+01  0.50698066147E+01  0.10566000000E+00 0. -1.
         14    1    4    4    0    0  0.49248737013E+01 -0.99092997739E+01  0.83314429989E+01  0.13851409510E+02  0.00000000000E+00 0. -1.
<mgrwt>
<rscale>  0 0.79632582E+02</rscale>
<asrwt>0</asrwt>
<pdfrwt beam="1">  1        2 0.36810927E-02 0.79632582E+02</pdfrwt>
<pdfrwt beam="2">  1       -1 0.10193378E-01 0.79632582E+02</pdfrwt>
<totfact> 0.13037586E+05</totfact>
</mgrwt>
</event>
<event>
 8    1  0.1226832E-024  0.7995048E+02  0.7818608E-02  0.1329192E+00
          2   -1    0    0  501    0  0.00000000000E+00  0.00000000000E+00  0.14949726223E+03  0.14949726226E+03  0.25500000000E-02 0. -1.
         -1   -1    0    0    0  501 -0.00000000000E+00 -0.00000000000E+00 -0.10689290329E+02  0.10689291517E+02  0.50400000000E-02 0.  1.
         24    2    1    2    0    0  0.00000000000E+00  0.00000000000E+00  0.13880797191E+03  0.16018655377E+03  0.79950478080E+02 0.  0.
         66    2    3    3    0    0 -0.54602326773E+01  0.25227897737E+02  0.13053994783E+03  0.13308245166E+03  0.19999989527E+01 0.  0.
        -13    1    3    3    0    0  0.54602326773E+01 -0.25227897737E+02  0.82680240756E+01  0.27104102111E+02  0.10566000000E+00 0.  1.
         13    1    4    4    0    0 -0.10420842791E+01  0.52048208403E+01  0.30328169655E+02  0.30789367293E+02  0.10566000000E+00 0. -1.
        -13    1    4    4    0    0 -0.27151054005E+01  0.14414776670E+02  0.71511001585E+02  0.72999945860E+02  0.10566000000E+00 0.  1.
        -14    1    4    4    0    0 -0.17030429977E+01  0.56083002265E+01  0.28700776589E+02  0.29293138509E+02  0.00000000000E+00 0.  1.
<mgrwt>
<rscale>  0 0.79950478E+02</rscale>
<asrwt>0</asrwt>
<pdfrwt beam="1">  1        2 0.22999579E-01 0.79950478E+02</pdfrwt>
<pdfrwt beam="2">  1       -1 0.16445063E-02 0.79950478E+02</pdfrwt>
<totfact> 0.20041271E+05</totfact>
</mgrwt>
</event>
<event>
 8    1  0.1226832E-024  0.7521729E+02  0.7818608E-02  0.1343199E+00
          2   -1    0    0  501    0  0.00000000000E+00  0.00000000000E+00  0.50557677398E+03  0.50557677399E+03  0.25500000000E-02 0. -1.
         -1   -1    0    0    0  501 -0.00000000000E+00 -0.00000000000E+00 -0.27976146744E+01  0.27976192143E+01  0.50400000000E-02 0.  1.
         24    2    1    2    0    0  0.00000000000E+00 -0.35527136788E-14  0.50277915931E+03  0.50837439320E+03  0.75217289437E+02 0.  0.
         66    2    3    3    0    0  0.24417724343E+02 -0.24742667072E+02  0.34809636176E+03  0.34983353457E+03  0.20000002518E+01 0.  0.
        -13    1    3    3    0    0 -0.24417724343E+02  0.24742667072E+02  0.15468279755E+03  0.15854085864E+03  0.10566000000E+00 0.  1.
         13    1    4    4    0    0  0.74856441237E+01 -0.83404109006E+01  0.11303326894E+03  0.11358753617E+03  0.10566000000E+00 0. -1.
        -13    1    4    4    0    0  0.56544690649E+01 -0.52793692522E+01  0.83308274372E+02  0.83666746698E+02  0.10566000000E+00 0.  1.
         14    1    4    4    0    0  0.11277611154E+02 -0.11122886919E+02  0.15175481844E+03  0.15257925170E+03  0.00000000000E+00 0. -1.
<mgrwt>
<rscale>  0 0.75217289E+02</rscale>
<asrwt>0</asrwt>
<pdfrwt beam="1">  1        2 0.77781029E-01 0.75217289E+02</pdfrwt>
<pdfrwt beam="2">  1       -1 0.43040268E-03 0.75217289E+02</pdfrwt>
<totfact> 0.35866345E+05</totfact>
</mgrwt>
</event>
<event>
 8    1  0.1226832E-024  0.7972630E+02  0.7818608E-02  0.1329830E+00
          2   -1    0    0  501    0  0.00000000000E+00  0.00000000000E+00  0.69239037129E+02  0.69239037176E+02  0.25500000000E-02 0. -1.
         -1   -1    0    0    0  501 -0.00000000000E+00 -0.00000000000E+00 -0.22950503023E+02  0.22950503577E+02  0.50400000000E-02 0.  1.
         24    2    1    2    0    0 -0.35527136788E-14  0.35527136788E-14  0.46288534106E+02  0.92189540753E+02  0.79726300771E+02 0.  0.
         66    2    3    3    0    0 -0.31584167813E+02  0.20308201827E+02  0.38546309263E+02  0.53849797307E+02  0.19999985807E+01 0.  0.
        -13    1    3    3    0    0  0.31584167813E+02 -0.20308201827E+02  0.77422248429E+01  0.38339743446E+02  0.10566000000E+00 0.  1.
         13    1    4    4    0    0 -0.95381161889E+01  0.60062682724E+01  0.11401326754E+02  0.16032851735E+02  0.10566000000E+00 0. -1.
        -13    1    4    4    0    0 -0.11905772444E+02  0.67852979727E+01  0.14445355616E+02  0.19911482842E+02  0.10566000000E+00 0.  1.
        -14    1    4    4    0    0 -0.10140279181E+02  0.75166355822E+01  0.12699626893E+02  0.17905462729E+02  0.00000000000E+00 0.  1.
<mgrwt>
<rscale>  0 0.79726301E+02</rscale>
<asrwt>0</asrwt>
<pdfrwt beam="1">  1        2 0.10652160E-01 0.79726301E+02</pdfrwt>
<pdfrwt beam="2">  1       -1 0.35308466E-02 0.79726301E+02</pdfrwt>
<totfact> 0.16253652E+05</totfact>
</mgrwt>
</event>
<event>
 8    1  0.1226832E-024  0.7873188E+02  0.7818608E-02  0.1332689E+00
          2   -1    0    0  501    0  0.00000000000E+00  0.00000000000E+00  0.98788032656E+03  0.98788032656E+03  0.25500000000E-02 0. -1.
         -1   -1    0    0    0  501 -0.00000000000E+00 -0.00000000000E+00 -0.15686851210E+01  0.15686932175E+01  0.50400000000E-02 0.  1.
         24    2    1    2    0    0  0.00000000000E+00  0.35527136788E-14  0.98631164144E+03  0.98944901978E+03  0.78731878595E+02 0.  0.
         66    2    3    3    0    0 -0.15270762950E+02  0.22516822076E+02  0.85058617415E+03  0.85102352678E+03  0.20000003458E+01 0.  0.
        -13    1    3    3    0    0  0.15270762950E+02 -0.22516822076E+02  0.13572546728E+03  0.13842549299E+03  0.10566000000E+00 0.  1.
         13    1    4    4    0    0 -0.73090563261E+01  0.97216964814E+01  0.36613687343E+03  0.36633885262E+03  0.10566000000E+00 0. -1.
        -13    1    4    4    0    0 -0.17670697149E+01  0.21345779131E+01  0.90457336069E+02  0.90499832989E+02  0.10566000000E+00 0.  1.
        -14    1    4    4    0    0 -0.61946369087E+01  0.10660547682E+02  0.39399196465E+03  0.39418484118E+03  0.00000000000E+00 0.  1.
<mgrwt>
<rscale>  0 0.78731879E+02</rscale>
<asrwt>0</asrwt>
<pdfrwt beam="1">  1        2 0.15198190E+00 0.78731879E+02</pdfrwt>
<pdfrwt beam="2">  1       -1 0.24133630E-03 0.78731879E+02</pdfrwt>
<totfact> 0.36701532E+05</totfact>
</mgrwt>
</event>
<event>
 8    1  0.1226832E-024  0.8022434E+02  0.7818608E-02  0.1328416E+00
          2   -1    0    0  501    0  0.00000000000E+00  0.00000000000E+00  0.81536335819E+03  0.81536335819E+03  0.25500000000E-02 0. -1.
         -1   -1    0    0    0  501 -0.00000000000E+00 -0.00000000000E+00 -0.19733332720E+01  0.19733397082E+01  0.50400000000E-02 0.  1.
         24    2    1    2    0    0  0.17763568394E-14 -0.35527136788E-14  0.81339002492E+03  0.81733669790E+03  0.80224342325E+02 0.  0.
         66    2    3    3    0    0  0.15920434059E+02 -0.26272384436E+02  0.66933523280E+03  0.67004279884E+03  0.20000015613E+01 0.  0.
        -13    1    3    3    0    0 -0.15920434059E+02  0.26272384436E+02  0.14405479212E+03  0.14729389906E+03  0.10566000000E+00 0.  1.
         13    1    4    4    0    0  0.10829418541E+01 -0.19148257174E+01  0.51871695854E+02  0.51918429439E+02  0.10566000000E+00 0. -1.
        -13    1    4    4    0    0  0.11796179341E+02 -0.20570889963E+02  0.51660728738E+03  0.51715124664E+03  0.10566000000E+00 0.  1.
         14    1    4    4    0    0  0.30413128638E+01 -0.37866687554E+01  0.10085624956E+03  0.10097312276E+03  0.00000000000E+00 0. -1.
<mgrwt>
<rscale>  0 0.80224342E+02</rscale>
<asrwt>0</asrwt>
<pdfrwt beam="1">  1        2 0.12544043E+00 0.80224342E+02</pdfrwt>
<pdfrwt beam="2">  1       -1 0.30359043E-03 0.80224342E+02</pdfrwt>
<totfact> 0.34225658E+05</totfact>
</mgrwt>
</event>
<event>
 8    1  0.1226832E-024  0.8233947E+02  0.7818608E-02  0.1322540E+00
          2   -1    0    0  501    0  0.00000000000E+00  0.00000000000E+00  0.40784767556E+03  0.40784767557E+03  0.25500000000E-02 0. -1.
         -1   -1    0    0    0  501 -0.00000000000E+00 -0.00000000000E+00 -0.41558318417E+01  0.41558348979E+01  0.50400000000E-02 0.  1.
         24    2    1    2    0    0  0.00000000000E+00  0.88817841970E-15  0.40369184372E+03  0.41200351047E+03  0.82339467763E+02 0.  0.
         66    2    3    3    0    0 -0.23948084810E+02 -0.65373415089E+01  0.36615179696E+03  0.36699780111E+03  0.20000003804E+01 0.  0.
        -13    1    3    3    0    0  0.23948084810E+02  0.65373415089E+01  0.37540046756E+02  0.45005709355E+02  0.10566000000E+00 0.  1.
         13    1    4    4    0    0 -0.72894531742E+01 -0.16748826446E+01  0.12024845613E+03  0.12048088531E+03  0.10566000000E+00 0. -1.
        -13    1    4    4    0    0 -0.35399318778E+01 -0.73745085093E+00  0.47496229977E+02  0.47633790291E+02  0.10566000000E+00 0.  1.
        -14    1    4    4    0    0 -0.13118699758E+02 -0.41250080134E+01  0.19840711086E+03  0.19888312551E+03  0.00000000000E+00 0.  1.
<mgrwt>
<rscale>  0 0.82339468E+02</rscale>
<asrwt>0</asrwt>
<pdfrwt beam="1">  1        2 0.62745776E-01 0.82339468E+02</pdfrwt>
<pdfrwt beam="2">  1       -1 0.63935918E-03 0.82339468E+02</pdfrwt>
<totfact> 0.26380096E+05</totfact>
</mgrwt>
</event>
<event>
 8    1  0.1226832E-024  0.7952155E+02  0.7818608E-02  0.1330415E+00
         -1   -1    0    0    0  501 -0.00000000000E+00  0.00000000000E+00  0.87369831070E+01  0.87369845607E+01  0.50400000000E-02 0.  1.
          2   -1    0    0  501    0  0.00000000000E+00 -0.00000000000E+00 -0.18094566605E+03  0.18094566607E+03  0.25500000000E-02 0. -1.
         24    2    1    2    0    0  0.88817841970E-15 -0.35527136788E-14 -0.17220868294E+03  0.18968265063E+03  0.79521553485E+02 0.  0.
         66    2    3    3    0    0 -0.60097912608E+01 -0.22465804831E+02 -0.16301134789E+03  0.16467400985E+03  0.20000000039E+01 0.  0.
        -13    1    3    3    0    0  0.60097912608E+01  0.22465804831E+02 -0.91973350524E+01  0.25008640783E+02  0.10566000000E+00 0.  1.
         13    1    4    4    0    0 -0.71476988593E+00 -0.23934906596E+01 -0.17861705440E+02  0.18035835960E+02  0.10566000000E+00 0. -1.
        -13    1    4    4    0    0 -0.53139454330E+01 -0.20040065643E+02 -0.14511012523E+03  0.14658377078E+03  0.10566000000E+00 0.  1.
        -14    1    4    4    0    0  0.18924058147E-01 -0.32248527879E-01 -0.39517222554E-01  0.54403110256E-01  0.00000000000E+00 0.  1.
<mgrwt>
<rscale>  0 0.79521553E+02</rscale>
<asrwt>0</asrwt>
<pdfrwt beam="1">  1        2 0.27837792E-01 0.79521553E+02</pdfrwt>
<pdfrwt beam="2">  1       -1 0.13441515E-02 0.79521553E+02</pdfrwt>
<totfact> 0.21652870E+05</totfact>
</mgrwt>
</event>
<event>
 8    1  0.1226832E-024  0.7943161E+02  0.7818608E-02  0.1330672E+00
         -1   -1    0    0    0  501 -0.00000000000E+00  0.00000000000E+00  0.29085094327E+02  0.29085094764E+02  0.50400000000E-02 0.  1.
          2   -1    0    0  501    0  0.00000000000E+00 -0.00000000000E+00 -0.54232083745E+02  0.54232083805E+02  0.25500000000E-02 0. -1.
         24    2    1    2    0    0  0.00000000000E+00  0.00000000000E+00 -0.25146989418E+02  0.83317178569E+02  0.79431613151E+02 0.  0.
         66    2    3    3    0    0 -0.30308483184E+02 -0.48257158770E+01 -0.38981015543E+02  0.49652907753E+02  0.19999972313E+01 0.  0.
        -13    1    3    3    0    0  0.30308483184E+02  0.48257158770E+01  0.13834026125E+02  0.33664270815E+02  0.10566000000E+00 0.  1.
         13    1    4    4    0    0 -0.11306882394E+02 -0.18956061395E+01 -0.14260158357E+02  0.18297600732E+02  0.10566000000E+00 0. -1.
        -13    1    4    4    0    0 -0.74423893384E+01 -0.18135611345E+01 -0.92391502914E+01  0.12002134193E+02  0.10566000000E+00 0.  1.
        -14    1    4    4    0    0 -0.11559211451E+02 -0.11165486030E+01 -0.15481706895E+02  0.19353172829E+02  0.00000000000E+00 0.  1.
<mgrwt>
<rscale>  0 0.79431613E+02</rscale>
<asrwt>0</asrwt>
<pdfrwt beam="1">  1        2 0.83433975E-02 0.79431613E+02</pdfrwt>
<pdfrwt beam="2">  1       -1 0.44746300E-02 0.79431613E+02</pdfrwt>
<totfact> 0.15512013E+05</totfact>
</mgrwt>
</event>
<event>
 8    1  0.1226832E-024  0.8251751E+02  0.7818608E-02  0.1322055E+00
          2   -1    0    0  501    0  0.00000000000E+00  0.00000000000E+00  0.69143092462E+02  0.69143092509E+02  0.25500000000E-02 0. -1.
         -1   -1    0    0    0  501 -0.00000000000E+00 -0.00000000000E+00 -0.24619737499E+02  0.24619738015E+02  0.50400000000E-02 0.  1.
         24    2    1    2    0    0  0.35527136788E-14  0.17763568394E-14  0.44523354963E+02  0.93762830524E+02  0.82517508752E+02 0.  0.
         66    2    3    3    0    0 -0.23312617252E+02 -0.85295052967E+01  0.59686561597E+02  0.64673922274E+02  0.20000008133E+01 0.  0.
        -13    1    3    3    0    0  0.23312617252E+02  0.85295052967E+01 -0.15163206634E+02  0.29088908250E+02  0.10566000000E+00 0.  1.
         13    1    4    4    0    0 -0.81255852288E+01 -0.31838604376E+01  0.21565264538E+02  0.23264434256E+02  0.10566000000E+00 0. -1.
        -13    1    4    4    0    0 -0.74318465734E+01 -0.30839354130E+01  0.20586016668E+02  0.22102901335E+02  0.10566000000E+00 0.  1.
         14    1    4    4    0    0 -0.77551854495E+01 -0.22617094461E+01  0.17535280391E+02  0.19306586684E+02  0.00000000000E+00 0. -1.
<mgrwt>
<rscale>  0 0.82517509E+02</rscale>
<asrwt>0</asrwt>
<pdfrwt beam="1">  1        2 0.10637399E-01 0.82517509E+02</pdfrwt>
<pdfrwt beam="2">  1       -1 0.37876520E-02 0.82517509E+02</pdfrwt>
<totfact> 0.14800050E+05</totfact>
</mgrwt>
</event>
<event>
 8    1  0.1226832E-024  0.8185971E+02  0.7818608E-02  0.1323855E+00
         -1   -1    0    0    0  501 -0.00000000000E+00  0.00000000000E+00  0.12114087892E+01  0.12114192735E+01  0.50400000000E-02 0.  1.
          2   -1    0    0  501    0  0.00000000000E+00 -0.00000000000E+00 -0.13828904715E+04  0.13828904715E+04  0.25500000000E-02 0. -1.
         24    2    1    2    0    0 -0.35527136788E-14  0.88817841970E-15 -0.13816790627E+04  0.13841018908E+04  0.81859707524E+02 0.  0.
         66    2    3    3    0    0  0.20354707180E+02 -0.51574824955E+01 -0.12848073424E+04  0.12849804748E+04  0.19999999704E+01 0.  0.
        -13    1    3    3    0    0 -0.20354707180E+02  0.51574824955E+01 -0.96871720374E+02  0.99121415962E+02  0.10566000000E+00 0.  1.
         13    1    4    4    0    0  0.25795270277E+01 -0.62056950179E+00 -0.17024068405E+03  0.17026138944E+03  0.10566000000E+00 0. -1.
        -13    1    4    4    0    0  0.29180620952E+01 -0.11064535210E+00 -0.16424747835E+03  0.16427346907E+03  0.10566000000E+00 0.  1.
         14    1    4    4    0    0  0.14857118057E+02 -0.44262676416E+01 -0.95031917997E+03  0.95044561634E+03  0.00000000000E+00 0. -1.
<mgrwt>
<rscale>  0 0.81859708E+02</rscale>
<asrwt>0</asrwt>
<pdfrwt beam="1">  1        2 0.21275112E+00 0.81859708E+02</pdfrwt>
<pdfrwt beam="2">  1       -1 0.18637250E-03 0.81859708E+02</pdfrwt>
<totfact> 0.32148770E+05</totfact>
</mgrwt>
</event>
<event>
 8    1  0.1226832E-024  0.8258081E+02  0.7818608E-02  0.1321883E+00
         -1   -1    0    0    0  501 -0.00000000000E+00  0.00000000000E+00  0.10256833332E+02  0.10256834571E+02  0.50400000000E-02 0.  1.
          2   -1    0    0  501    0  0.00000000000E+00 -0.00000000000E+00 -0.16622066215E+03  0.16622066217E+03  0.25500000000E-02 0. -1.
         24    2    1    2    0    0  0.71054273576E-14 -0.17763568394E-14 -0.15596382882E+03  0.17647749674E+03  0.82580814698E+02 0.  0.
         66    2    3    3    0    0  0.35569246008E+02 -0.14215731664E+02 -0.11083173604E+03  0.11728142211E+03  0.19999929476E+01 0.  0.
        -13    1    3    3    0    0 -0.35569246008E+02  0.14215731664E+02 -0.45132092781E+02  0.59196074626E+02  0.10566000000E+00 0.  1.
         13    1    4    4    0    0  0.17425567528E+02 -0.69909565385E+01 -0.53884617291E+02  0.57062132992E+02  0.10566000000E+00 0. -1.
        -13    1    4    4    0    0  0.63121201168E+01 -0.24387273939E+01 -0.17736126382E+02  0.18983455816E+02  0.10566000000E+00 0.  1.
        -14    1    4    4    0    0  0.11831558363E+02 -0.47860477315E+01 -0.39210992363E+02  0.41235833305E+02  0.00000000000E+00 0.  1.
<mgrwt>
<rscale>  0 0.82580815E+02</rscale>
<asrwt>0</asrwt>
<pdfrwt beam="1">  1        2 0.25572408E-01 0.82580815E+02</pdfrwt>
<pdfrwt beam="2">  1       -1 0.15779746E-02 0.82580815E+02</pdfrwt>
<totfact> 0.19040811E+05</totfact>
</mgrwt>
</event>
<event>
 8    1  0.1226832E-024  0.8588328E+02  0.7818608E-02  0.1313139E+00
         -1   -1    0    0    0  501 -0.00000000000E+00  0.00000000000E+00  0.26834072230E+02  0.26834072703E+02  0.50400000000E-02 0.  1.
          2   -1    0    0  501    0  0.00000000000E+00 -0.00000000000E+00 -0.68718019236E+02  0.68718019283E+02  0.25500000000E-02 0. -1.
         24    2    1    2    0    0  0.17763568394E-14  0.00000000000E+00 -0.41883947006E+02  0.95552091986E+02  0.85883276987E+02 0.  0.
         66    2    3    3    0    0 -0.10181287691E+02  0.39662866837E+02 -0.35252349710E+02  0.54069675572E+02  0.20000079148E+01 0.  0.
        -13    1    3    3    0    0  0.10181287691E+02 -0.39662866837E+02 -0.66315972964E+01  0.41482416414E+02  0.10566000000E+00 0.  1.
         13    1    4    4    0    0 -0.20678364370E+01  0.71195783845E+01 -0.64134265887E+01  0.98034457487E+01  0.10566000000E+00 0. -1.
        -13    1    4    4    0    0 -0.27677110659E+01  0.11375343628E+02 -0.90130420357E+01  0.14775139863E+02  0.10566000000E+00 0.  1.
        -14    1    4    4    0    0 -0.53457401883E+01  0.21167944824E+02 -0.19825881086E+02  0.29491089961E+02  0.00000000000E+00 0.  1.
<mgrwt>
<rscale>  0 0.85883277E+02</rscale>
<asrwt>0</asrwt>
<pdfrwt beam="1">  1        2 0.10572003E-01 0.85883277E+02</pdfrwt>
<pdfrwt beam="2">  1       -1 0.41283189E-02 0.85883277E+02</pdfrwt>
<totfact> 0.13251454E+05</totfact>
</mgrwt>
</event>
<event>
 8    1  0.1226832E-024  0.8196428E+02  0.7818608E-02  0.1323568E+00
          2   -1    0    0  501    0  0.00000000000E+00  0.00000000000E+00  0.73569222646E+02  0.73569222690E+02  0.25500000000E-02 0. -1.
         -1   -1    0    0    0  501 -0.00000000000E+00 -0.00000000000E+00 -0.22829323560E+02  0.22829324116E+02  0.50400000000E-02 0.  1.
         24    2    1    2    0    0  0.00000000000E+00  0.00000000000E+00  0.50739899086E+02  0.96398546807E+02  0.81964275555E+02 0.  0.
         66    2    3    3    0    0  0.25107167816E+02  0.21580678314E+02  0.53744377507E+02  0.63154996954E+02  0.19999936141E+01 0.  0.
        -13    1    3    3    0    0 -0.25107167816E+02 -0.21580678314E+02 -0.30044784206E+01  0.33243549853E+02  0.10566000000E+00 0.  1.
         13    1    4    4    0    0  0.24007598009E+02  0.20270785121E+02  0.50772408871E+02  0.59708610419E+02  0.10566000000E+00 0. -1.
        -13    1    4    4    0    0  0.56841320808E+00  0.46265696595E+00  0.11427362395E+01  0.13616736731E+01  0.10566000000E+00 0. -1.
         14    1    4    4    0    0  0.53115659833E+00  0.84723622673E+00  0.18292323963E+01  0.20847128616E+01  0.00000000000E+00 0. -1.
<mgrwt>
<rscale>  0 0.81964276E+02</rscale>
<asrwt>0</asrwt>
<pdfrwt beam="1">  1        2 0.11318342E-01 0.81964276E+02</pdfrwt>
<pdfrwt beam="2">  1       -1 0.35122037E-02 0.81964276E+02</pdfrwt>
<totfact> 0.15306869E+05</totfact>
</mgrwt>
</event>
<event>
 8    1  0.1226832E-024  0.8518014E+02  0.7818608E-02  0.1314962E+00
          2   -1    0    0  501    0  0.00000000000E+00  0.00000000000E+00  0.95670039043E+03  0.95670039044E+03  0.25500000000E-02 0. -1.
         -1   -1    0    0    0  501 -0.00000000000E+00 -0.00000000000E+00 -0.18960071134E+01  0.18960138121E+01  0.50400000000E-02 0.  1.
         24    2    1    2    0    0  0.00000000000E+00  0.00000000000E+00  0.95480438332E+03  0.95859640425E+03  0.85180137542E+02 0.  0.
         66    2    3    3    0    0  0.15848044211E+02 -0.41138951143E+01  0.91984189458E+03  0.91998978019E+03  0.19999976546E+01 0.  0.
        -13    1    3    3    0    0 -0.15848044211E+02  0.41138951143E+01  0.34962488740E+02  0.38606624059E+02  0.10566000000E+00 0.  1.
         13    1    4    4    0    0  0.12085896711E+01 -0.69185581729E+00  0.65138542578E+02  0.65153512927E+02  0.10566000000E+00 0. -1.
        -13    1    4    4    0    0  0.16723917154E+01 -0.53965664446E+00  0.11866778642E+03  0.11868084437E+03  0.10566000000E+00 0.  1.
         14    1    4    4    0    0  0.12967062824E+02 -0.28823826525E+01  0.73603556558E+03  0.73615542289E+03  0.00000000000E+00 0. -1.
<mgrwt>
<rscale>  0 0.85180138E+02</rscale>
<asrwt>0</asrwt>
<pdfrwt beam="1">  1        2 0.14718466E+00 0.85180138E+02</pdfrwt>
<pdfrwt beam="2">  1       -1 0.29169396E-03 0.85180138E+02</pdfrwt>
<totfact> 0.29844116E+05</totfact>
</mgrwt>
</event>
<event>
 8    1  0.1226832E-024  0.8185592E+02  0.7818608E-02  0.1323866E+00
         -1   -1    0    0    0  501 -0.00000000000E+00  0.00000000000E+00  0.98969186046E+01  0.98969198879E+01  0.50400000000E-02 0.  1.
          2   -1    0    0  501    0  0.00000000000E+00 -0.00000000000E+00 -0.16925447432E+03  0.16925447434E+03  0.25500000000E-02 0. -1.
         24    2    1    2    0    0  0.17763568394E-14  0.71054273576E-14 -0.15935755572E+03  0.17915139423E+03  0.81855919090E+02 0.  0.
         66    2    3    3    0    0 -0.14530934453E+02  0.37869739607E+02 -0.68180828888E+02  0.79359250684E+02  0.20000018469E+01 0.  0.
        -13    1    3    3    0    0  0.14530934453E+02 -0.37869739607E+02 -0.91176726831E+02  0.99792143546E+02  0.10566000000E+00 0.  1.
         13    1    4    4    0    0 -0.10863529897E+02  0.28296329209E+02 -0.51079375290E+02  0.59395389321E+02  0.10566000000E+00 0. -1.
        -13    1    4    4    0    0 -0.18819418537E+00  0.17718626400E+00 -0.51886518946E+00  0.58923437102E+00  0.10566000000E+00 0.  1.
        -14    1    4    4    0    0 -0.34792103707E+01  0.93962241333E+01 -0.16582588409E+02  0.19374626993E+02  0.00000000000E+00 0.  1.
<mgrwt>
<rscale>  0 0.81855919E+02</rscale>
<asrwt>0</asrwt>
<pdfrwt beam="1">  1        2 0.26039148E-01 0.81855919E+02</pdfrwt>
<pdfrwt beam="2">  1       -1 0.15226031E-02 0.81855919E+02</pdfrwt>
<totfact> 0.19609871E+05</totfact>
</mgrwt>
</event>
<event>
 8    1  0.1226832E-024  0.7877932E+02  0.7818608E-02  0.1332552E+00
         -1   -1    0    0    0  501 -0.00000000000E+00  0.00000000000E+00  0.92672788768E+01  0.92672802473E+01  0.50400000000E-02 0.  1.
          2   -1    0    0  501    0  0.00000000000E+00 -0.00000000000E+00 -0.16742187176E+03  0.16742187178E+03  0.25500000000E-02 0. -1.
         24    2    1    2    0    0 -0.35527136788E-14  0.00000000000E+00 -0.15815459289E+03  0.17668915203E+03  0.78779319583E+02 0.  0.
         66    2    3    3    0    0 -0.23880930603E+02  0.31292809223E+02 -0.79038399121E+02  0.88321046724E+02  0.20000007905E+01 0.  0.
        -13    1    3    3    0    0  0.23880930603E+02 -0.31292809223E+02 -0.79116193767E+02  0.88368105308E+02  0.10566000000E+00 0.  1.
         13    1    4    4    0    0 -0.48681680436E+01  0.59932725744E+01 -0.15223531855E+02  0.17070016474E+02  0.10566000000E+00 0. -1.
        -13    1    4    4    0    0 -0.42264901717E+00  0.73266437379E+00 -0.12592011517E+01  0.15205856939E+01  0.10566000000E+00 0.  1.
        -14    1    4    4    0    0 -0.18590113542E+02  0.24566872275E+02 -0.62555666114E+02  0.69730444555E+02  0.00000000000E+00 0.  1.
<mgrwt>
<rscale>  0 0.78779320E+02</rscale>
<asrwt>0</asrwt>
<pdfrwt beam="1">  1        2 0.25757209E-01 0.78779320E+02</pdfrwt>
<pdfrwt beam="2">  1       -1 0.14257354E-02 0.78779320E+02</pdfrwt>
<totfact> 0.21625448E+05</totfact>
</mgrwt>
</event>
<event>
 8    1  0.1226832E-024  0.7401289E+02  0.7818608E-02  0.1346955E+00
         -1   -1    0    0    0  501 -0.00000000000E+00  0.00000000000E+00  0.56610017079E+02  0.56610017304E+02  0.50400000000E-02 0.  1.
          2   -1    0    0  501    0  0.00000000000E+00 -0.00000000000E+00 -0.24191425983E+02  0.24191426117E+02  0.25500000000E-02 0. -1.
         24    2    1    2    0    0  0.00000000000E+00  0.00000000000E+00  0.32418591097E+02  0.80801443420E+02  0.74012892189E+02 0.  0.
         66    2    3    3    0    0 -0.19063244880E+02  0.26128871657E+02 -0.33492624161E+01  0.32578256587E+02  0.20000010318E+01 0.  0.
        -13    1    3    3    0    0  0.19063244880E+02 -0.26128871657E+02  0.35767853513E+02  0.48223186833E+02  0.10566000000E+00 0.  1.
         13    1    4    4    0    0 -0.12763951366E+02  0.17545104618E+02 -0.14544407907E+01  0.21745705612E+02  0.10566000000E+00 0. -1.
        -13    1    4    4    0    0 -0.32229140339E+00  0.51388337764E+00 -0.15435339445E-01  0.61591408477E+00  0.10566000000E+00 0. -1.
         14    1    4    4    0    0 -0.59770021100E+01  0.80698836618E+01 -0.18793862860E+01  0.10216636890E+02  0.00000000000E+00 0. -1.
<mgrwt>
<rscale>  0 0.74012892E+02</rscale>
<asrwt>0</asrwt>
<pdfrwt beam="1">  1        2 0.37217579E-02 0.74012892E+02</pdfrwt>
<pdfrwt beam="2">  1       -1 0.87092334E-02 0.74012892E+02</pdfrwt>
<totfact> 0.16053984E+05</totfact>
</mgrwt>
</event>
<event>
 8    1  0.1226832E-024  0.7961430E+02  0.7818608E-02  0.1330150E+00
         -1   -1    0    0    0  501 -0.00000000000E+00  0.00000000000E+00  0.55566960255E+02  0.55566960483E+02  0.50400000000E-02 0.  1.
          2   -1    0    0  501    0  0.00000000000E+00 -0.00000000000E+00 -0.28517109301E+02  0.28517109415E+02  0.25500000000E-02 0. -1.
         24    2    1    2    0    0  0.00000000000E+00  0.00000000000E+00  0.27049850954E+02  0.84084069898E+02  0.79614297548E+02 0.  0.
         66    2    3    3    0    0 -0.50259834067E+01  0.35353341261E+02 -0.49862889102E+01  0.36110695315E+02  0.19999978732E+01 0.  0.
        -13    1    3    3    0    0  0.50259834067E+01 -0.35353341261E+02  0.32036139864E+02  0.47973374584E+02  0.10566000000E+00 0.  1.
         13    1    4    4    0    0 -0.34092656472E+01  0.19418641382E+02 -0.24964793465E+01  0.19873356499E+02  0.10566000000E+00 0. -1.
        -13    1    4    4    0    0 -0.30490444218E+00  0.10641857318E+01 -0.27646715234E+00  0.11458866054E+01  0.10566000000E+00 0. -1.
        -14    1    4    4    0    0 -0.13118133173E+01  0.14870514148E+02 -0.22133424114E+01  0.15091452211E+02  0.00000000000E+00 0.  1.
<mgrwt>
<rscale>  0 0.79614298E+02</rscale>
<asrwt>0</asrwt>
<pdfrwt beam="1">  1        2 0.43872476E-02 0.79614298E+02</pdfrwt>
<pdfrwt beam="2">  1       -1 0.85487631E-02 0.79614298E+02</pdfrwt>
<totfact> 0.13503532E+05</totfact>
</mgrwt>
</event>
<event>
 8    1  0.1226832E-024  0.8810092E+02  0.7818608E-02  0.1307517E+00
          2   -1    0    0  501    0  0.00000000000E+00  0.00000000000E+00  0.73251017140E+01  0.73251021579E+01  0.25500000000E-02 0. -1.
         -1   -1    0    0    0  501 -0.00000000000E+00 -0.00000000000E+00 -0.26490318998E+03  0.26490319003E+03  0.50400000000E-02 0.  1.
         24    2    1    2    0    0  0.00000000000E+00  0.00000000000E+00 -0.25757808827E+03  0.27222829219E+03  0.88100916634E+02 0.  0.
         66    2    3    3    0    0  0.34606894079E+02  0.20417089039E+02 -0.73240831818E+02  0.83562635742E+02  0.20000010371E+01 0.  0.
        -13    1    3    3    0    0 -0.34606894079E+02 -0.20417089039E+02 -0.18433725645E+03  0.18866565645E+03  0.10566000000E+00 0.  1.
         13    1    4    4    0    0  0.13357594829E+02  0.71008976951E+01 -0.27888271006E+02  0.31727195140E+02  0.10566000000E+00 0. -1.
        -13    1    4    4    0    0  0.18331020738E+02  0.11188029689E+02 -0.38212856148E+02  0.43834140446E+02  0.10566000000E+00 0.  1.
        -14    1    4    4    0    0  0.29182785117E+01  0.21281616546E+01 -0.71397046632E+01  0.80013001554E+01  0.00000000000E+00 0.  1.
<mgrwt>
<rscale>  0 0.88100917E+02</rscale>
<asrwt>0</asrwt>
<pdfrwt beam="1">  1        2 0.11269390E-02 0.88100917E+02</pdfrwt>
<pdfrwt beam="2">  1       -1 0.40754330E-01 0.88100917E+02</pdfrwt>
<totfact> 0.70817976E+04</totfact>
</mgrwt>
</event>
<event>
 8    1  0.1226832E-024  0.8060388E+02  0.7818608E-02  0.1327346E+00
         -1   -1    0    0    0  501 -0.00000000000E+00  0.00000000000E+00  0.35533639903E+02  0.35533640260E+02  0.50400000000E-02 0.  1.
          2   -1    0    0  501    0  0.00000000000E+00 -0.00000000000E+00 -0.45710099003E+02  0.45710099075E+02  0.25500000000E-02 0. -1.
         24    2    1    2    0    0  0.00000000000E+00  0.00000000000E+00 -0.10176459101E+02  0.81243739335E+02  0.80603876217E+02 0.  0.
         66    2    3    3    0    0 -0.32942277485E+02 -0.23107245410E+02 -0.68668159587E+01  0.40869201095E+02  0.20000001037E+01 0.  0.
        -13    1    3    3    0    0  0.32942277485E+02  0.23107245410E+02 -0.33096431419E+01  0.40374538240E+02  0.10566000000E+00 0.  1.
         13    1    4    4    0    0 -0.16509101650E+02 -0.11570982520E+02 -0.34738510019E+01  0.20457685074E+02  0.10566000000E+00 0. -1.
        -13    1    4    4    0    0 -0.90693394379E+01 -0.64128298619E+01 -0.11708238409E+01  0.11169570143E+02  0.10566000000E+00 0.  1.
        -14    1    4    4    0    0 -0.73638363970E+01 -0.51234330281E+01 -0.22221411160E+01  0.92419458781E+01  0.00000000000E+00 0.  1.
<mgrwt>
<rscale>  0 0.80603876E+02</rscale>
<asrwt>0</asrwt>
<pdfrwt beam="1">  1        2 0.70323229E-02 0.80603876E+02</pdfrwt>
<pdfrwt beam="2">  1       -1 0.54667139E-02 0.80603876E+02</pdfrwt>
<totfact> 0.14357684E+05</totfact>
</mgrwt>
</event>
<event>
 8    1  0.1226832E-024  0.7998553E+02  0.7818608E-02  0.1329093E+00
          2   -1    0    0  501    0  0.00000000000E+00  0.00000000000E+00  0.99344339931E+01  0.99344343204E+01  0.25500000000E-02 0. -1.
         -1   -1    0    0    0  501 -0.00000000000E+00 -0.00000000000E+00 -0.16099771537E+03  0.16099771544E+03  0.50400000000E-02 0.  1.
         24    2    1    2    0    0  0.00000000000E+00 -0.35527136788E-14 -0.15106328137E+03  0.17093214976E+03  0.79985528967E+02 0.  0.
         66    2    3    3    0    0 -0.30291521621E+02 -0.21124396167E+02 -0.10824117270E+03  0.11438517327E+03  0.20000002855E+01 0.  0.
        -13    1    3    3    0    0  0.30291521621E+02  0.21124396167E+02 -0.42822108676E+02  0.56546976497E+02  0.10566000000E+00 0.  1.
         13    1    4    4    0    0 -0.64783410391E+01 -0.46277619939E+01 -0.21637404597E+02  0.23055878327E+02  0.10566000000E+00 0. -1.
        -13    1    4    4    0    0 -0.58759486895E+01 -0.46195591197E+01 -0.21358295839E+02  0.22628633734E+02  0.10566000000E+00 0. -1.
         14    1    4    4    0    0 -0.17937231892E+02 -0.11877075054E+02 -0.65245472260E+02  0.68700661206E+02  0.00000000000E+00 0. -1.
<mgrwt>
<rscale>  0 0.79985529E+02</rscale>
<asrwt>0</asrwt>
<pdfrwt beam="1">  1        2 0.15283746E-02 0.79985529E+02</pdfrwt>
<pdfrwt beam="2">  1       -1 0.24768877E-01 0.79985529E+02</pdfrwt>
<totfact> 0.10595636E+05</totfact>
</mgrwt>
</event>
<event>
 8    1  0.1226832E-024  0.8009606E+02  0.7818608E-02  0.1328779E+00
          2   -1    0    0  501    0  0.00000000000E+00  0.00000000000E+00  0.29797978770E+03  0.29797978771E+03  0.25500000000E-02 0. -1.
         -1   -1    0    0    0  501 -0.00000000000E+00 -0.00000000000E+00 -0.53823931269E+01  0.53823954866E+01  0.50400000000E-02 0.  1.
         24    2    1    2    0    0 -0.17763568394E-14  0.00000000000E+00  0.29259739458E+03  0.30336218320E+03  0.80096060349E+02 0.  0.
         66    2    3    3    0    0 -0.10523247768E+02 -0.16232914965E+02  0.27909169242E+03  0.27976850976E+03  0.20000001892E+01 0.  0.
        -13    1    3    3    0    0  0.10523247768E+02  0.16232914965E+02  0.13505702155E+02  0.23593673444E+02  0.10566000000E+00 0.  1.
         13    1    4    4    0    0 -0.65492503826E+00 -0.13056643409E+01  0.15767671094E+02  0.15835539206E+02  0.10566000000E+00 0. -1.
        -13    1    4    4    0    0 -0.21972500336E+01 -0.35193648753E+01  0.66623859205E+02  0.66753004549E+02  0.10566000000E+00 0.  1.
         14    1    4    4    0    0 -0.76710726966E+01 -0.11407885749E+02  0.19670016212E+03  0.19717996600E+03  0.00000000000E+00 0. -1.
<mgrwt>
<rscale>  0 0.80096060E+02</rscale>
<asrwt>0</asrwt>
<pdfrwt beam="1">  1        2 0.45843028E-01 0.80096060E+02</pdfrwt>
<pdfrwt beam="2">  1       -1 0.82806096E-03 0.80096060E+02</pdfrwt>
<totfact> 0.25352286E+05</totfact>
</mgrwt>
</event>
<event>
 8    1  0.1226832E-024  0.7099448E+02  0.7818608E-02  0.1356744E+00
         -1   -1    0    0    0  501 -0.00000000000E+00  0.00000000000E+00  0.32596481519E+02  0.32596481908E+02  0.50400000000E-02 0.  1.
          2   -1    0    0  501    0  0.00000000000E+00 -0.00000000000E+00 -0.38656131053E+02  0.38656131137E+02  0.25500000000E-02 0. -1.
         24    2    1    2    0    0  0.00000000000E+00  0.71054273576E-14 -0.60596495341E+01  0.71252613045E+02  0.70994475231E+02 0.  0.
         66    2    3    3    0    0 -0.92498193033E+01 -0.32594423538E+02  0.74984725758E+01  0.34758922603E+02  0.20000016579E+01 0.  0.
        -13    1    3    3    0    0  0.92498193033E+01  0.32594423538E+02 -0.13558122110E+02  0.36493690442E+02  0.10566000000E+00 0.  1.
         13    1    4    4    0    0 -0.43615826414E+01 -0.15587991798E+02  0.41933168280E+01  0.16721362429E+02  0.10566000000E+00 0. -1.
        -13    1    4    4    0    0 -0.20644328798E+01 -0.53825911853E+01  0.12627265172E+01  0.59025260081E+01  0.10566000000E+00 0.  1.
        -14    1    4    4    0    0 -0.28238037821E+01 -0.11623840555E+02  0.20424292306E+01  0.12135034166E+02  0.00000000000E+00 0.  1.
<mgrwt>
<rscale>  0 0.70994475E+02</rscale>
<asrwt>0</asrwt>
<pdfrwt beam="1">  1        2 0.59470971E-02 0.70994475E+02</pdfrwt>
<pdfrwt beam="2">  1       -1 0.50148433E-02 0.70994475E+02</pdfrwt>
<totfact> 0.19636371E+05</totfact>
</mgrwt>
</event>
<event>
 8    1  0.1226832E-024  0.8092187E+02  0.7818608E-02  0.1326455E+00
          2   -1    0    0  501    0  0.00000000000E+00  0.00000000000E+00  0.36421808138E+03  0.36421808139E+03  0.25500000000E-02 0. -1.
         -1   -1    0    0    0  501 -0.00000000000E+00 -0.00000000000E+00 -0.44947979881E+01  0.44948008138E+01  0.50400000000E-02 0.  1.
         24    2    1    2    0    0  0.00000000000E+00  0.00000000000E+00  0.35972328339E+03  0.36871288220E+03  0.80921869035E+02 0.  0.
         66    2    3    3    0    0  0.23403271586E+02 -0.18267531189E+02  0.30505814865E+03  0.30650593776E+03  0.20000017254E+01 0.  0.
        -13    1    3    3    0    0 -0.23403271586E+02  0.18267531189E+02  0.54665134739E+02  0.62206944441E+02  0.10566000000E+00 0.  1.
         13    1    4    4    0    0  0.10627456014E+02 -0.90604011600E+01  0.14812694766E+03  0.14878386162E+03  0.10566000000E+00 0. -1.
        -13    1    4    4    0    0  0.12286652577E+02 -0.89770177226E+01  0.15274255109E+03  0.15349868649E+03  0.10566000000E+00 0.  1.
        -14    1    4    4    0    0  0.48916299485E+00 -0.23011230646E+00  0.41886499082E+01  0.42233896531E+01  0.00000000000E+00 0.  1.
<mgrwt>
<rscale>  0 0.80921869E+02</rscale>
<asrwt>0</asrwt>
<pdfrwt beam="1">  1        2 0.56033538E-01 0.80921869E+02</pdfrwt>
<pdfrwt beam="2">  1       -1 0.69150776E-03 0.80921869E+02</pdfrwt>
<totfact> 0.26526934E+05</totfact>
</mgrwt>
</event>
<event>
 8    1  0.1226832E-024  0.8076525E+02  0.7818608E-02  0.1326894E+00
         -1   -1    0    0    0  501 -0.00000000000E+00  0.00000000000E+00  0.30428248147E+01  0.30428289887E+01  0.50400000000E-02 0.  1.
          2   -1    0    0  501    0  0.00000000000E+00 -0.00000000000E+00 -0.53593465243E+03  0.53593465244E+03  0.25500000000E-02 0. -1.
         24    2    1    2    0    0 -0.44408920985E-15  0.00000000000E+00 -0.53289182762E+03  0.53897748143E+03  0.80765249606E+02 0.  0.
         66    2    3    3    0    0  0.36944113115E+01 -0.34675720930E+02 -0.40217828518E+03  0.40369224336E+03  0.19999964005E+01 0.  0.
        -13    1    3    3    0    0 -0.36944113115E+01  0.34675720930E+02 -0.13071354244E+03  0.13528523807E+03  0.10566000000E+00 0.  1.
         13    1    4    4    0    0  0.10253539533E+01 -0.97373493465E+01 -0.10381165871E+03  0.10427242671E+03  0.10566000000E+00 0. -1.
        -13    1    4    4    0    0  0.32799694108E-01 -0.17916918290E+01 -0.21174696797E+02  0.21250651376E+02  0.10566000000E+00 0.  1.
         14    1    4    4    0    0  0.26362576641E+01 -0.23146679755E+02 -0.27719192966E+03  0.27816916527E+03  0.00000000000E+00 0. -1.
<mgrwt>
<rscale>  0 0.80765250E+02</rscale>
<asrwt>0</asrwt>
<pdfrwt beam="1">  1        2 0.82451410E-01 0.80765250E+02</pdfrwt>
<pdfrwt beam="2">  1       -1 0.46812764E-03 0.80765250E+02</pdfrwt>
<totfact> 0.30355426E+05</totfact>
</mgrwt>
</event>
<event>
 8    1  0.1226832E-024  0.7884650E+02  0.7818608E-02  0.1332357E+00
          2   -1    0    0  501    0  0.00000000000E+00  0.00000000000E+00  0.56601293544E+03  0.56601293544E+03  0.25500000000E-02 0. -1.
         -1   -1    0    0    0  501 -0.00000000000E+00 -0.00000000000E+00 -0.27458583700E+01  0.27458629954E+01  0.50400000000E-02 0.  1.
         24    2    1    2    0    0  0.17763568394E-14  0.00000000000E+00  0.56326707707E+03  0.56875879844E+03  0.78846500831E+02 0.  0.
         66    2    3    3    0    0  0.72829893902E+01  0.20615437873E+02  0.51823089859E+03  0.51869577068E+03  0.20000118997E+01 0.  0.
        -13    1    3    3    0    0 -0.72829893902E+01 -0.20615437873E+02  0.45036178475E+02  0.50063027763E+02  0.10566000000E+00 0.  1.
         13    1    4    4    0    0  0.33518033036E+01  0.99360663001E+01  0.22893833851E+03  0.22917838904E+03  0.10566000000E+00 0. -1.
        -13    1    4    4    0    0  0.15301671338E+01  0.31798955298E+01  0.86791150118E+02  0.86862926786E+02  0.10566000000E+00 0.  1.
         14    1    4    4    0    0  0.24010189529E+01  0.74994760428E+01  0.20250140996E+03  0.20265445485E+03  0.00000000000E+00 0. -1.
<mgrwt>
<rscale>  0 0.78846501E+02</rscale>
<asrwt>0</asrwt>
<pdfrwt beam="1">  1        2 0.87078865E-01 0.78846501E+02</pdfrwt>
<pdfrwt beam="2">  1       -1 0.42244034E-03 0.78846501E+02</pdfrwt>
<totfact> 0.32849461E+05</totfact>
</mgrwt>
</event>
<event>
 8    1  0.1226832E-024  0.8001881E+02  0.7818608E-02  0.1328998E+00
         -1   -1    0    0    0  501 -0.00000000000E+00  0.00000000000E+00  0.10023968540E+02  0.10023969807E+02  0.50400000000E-02 0.  1.
          2   -1    0    0  501    0  0.00000000000E+00 -0.00000000000E+00 -0.15969249285E+03  0.15969249287E+03  0.25500000000E-02 0. -1.
         24    2    1    2    0    0  0.17763568394E-14 -0.88817841970E-15 -0.14966852431E+03  0.16971646268E+03  0.80018813631E+02 0.  0.
         66    2    3    3    0    0 -0.13574401765E+02 -0.76430887212E+01 -0.15298471530E+03  0.15378883024E+03  0.20000009724E+01 0.  0.
        -13    1    3    3    0    0  0.13574401765E+02  0.76430887212E+01  0.33161909839E+01  0.15927632440E+02  0.10566000000E+00 0.  1.
         13    1    4    4    0    0 -0.43444082421E+01 -0.16375315085E+01 -0.44553940113E+02  0.44795313774E+02  0.10566000000E+00 0. -1.
        -13    1    4    4    0    0 -0.21120033625E+01 -0.16751428259E+01 -0.23124346046E+02  0.23281177070E+02  0.10566000000E+00 0.  1.
         14    1    4    4    0    0 -0.71179901603E+01 -0.43304143868E+01 -0.85306429138E+02  0.85712339398E+02  0.00000000000E+00 0. -1.
<mgrwt>
<rscale>  0 0.80018814E+02</rscale>
<asrwt>0</asrwt>
<pdfrwt beam="1">  1        2 0.24568074E-01 0.80018814E+02</pdfrwt>
<pdfrwt beam="2">  1       -1 0.15421492E-02 0.80018814E+02</pdfrwt>
<totfact> 0.20429228E+05</totfact>
</mgrwt>
</event>
<event>
 8    1  0.1226832E-024  0.7939129E+02  0.7818608E-02  0.1330788E+00
         -1   -1    0    0    0  501 -0.00000000000E+00  0.00000000000E+00  0.11641893351E+02  0.11641894442E+02  0.50400000000E-02 0.  1.
          2   -1    0    0  501    0  0.00000000000E+00 -0.00000000000E+00 -0.13535119128E+03  0.13535119131E+03  0.25500000000E-02 0. -1.
         24    2    1    2    0    0 -0.22204460493E-15  0.00000000000E+00 -0.12370929793E+03  0.14699308575E+03  0.79391289594E+02 0.  0.
         66    2    3    3    0    0 -0.11398665656E+01  0.34755699876E+02 -0.97241535037E+02  0.10329169439E+03  0.20000062386E+01 0.  0.
        -13    1    3    3    0    0  0.11398665656E+01 -0.34755699876E+02 -0.26467762895E+02  0.43701391355E+02  0.10566000000E+00 0.  1.
         13    1    4    4    0    0 -0.59072140220E+00  0.98366115604E+01 -0.26887870663E+02  0.28636980141E+02  0.10566000000E+00 0. -1.
        -13    1    4    4    0    0 -0.39579730800E+00  0.10157438108E+02 -0.26497513906E+02  0.28380620354E+02  0.10566000000E+00 0.  1.
        -14    1    4    4    0    0 -0.15334785537E+00  0.14761650207E+02 -0.43856150468E+02  0.46274093900E+02  0.00000000000E+00 0.  1.
<mgrwt>
<rscale>  0 0.79391290E+02</rscale>
<asrwt>0</asrwt>
<pdfrwt beam="1">  1        2 0.20823259E-01 0.79391290E+02</pdfrwt>
<pdfrwt beam="2">  1       -1 0.17910607E-02 0.79391290E+02</pdfrwt>
<totfact> 0.19785203E+05</totfact>
</mgrwt>
</event>
<event>
 8    1  0.1226832E-024  0.7923776E+02  0.7818608E-02  0.1331229E+00
          2   -1    0    0  501    0  0.00000000000E+00  0.00000000000E+00  0.54922832018E+03  0.54922832018E+03  0.25500000000E-02 0. -1.
         -1   -1    0    0    0  501 -0.00000000000E+00 -0.00000000000E+00 -0.28579270041E+01  0.28579314482E+01  0.50400000000E-02 0.  1.
         24    2    1    2    0    0  0.00000000000E+00 -0.71054273576E-14  0.54637039317E+03  0.55208625163E+03  0.79237760595E+02 0.  0.
         66    2    3    3    0    0  0.65313532113E+01  0.38267247468E+02  0.32760211758E+03  0.32990027013E+03  0.19999971445E+01 0.  0.
        -13    1    3    3    0    0 -0.65313532113E+01 -0.38267247468E+02  0.21876827559E+03  0.22218598150E+03  0.10566000000E+00 0.  1.
         13    1    4    4    0    0  0.16736164082E+01  0.11954045165E+02  0.10198291708E+03  0.10269482327E+03  0.10566000000E+00 0. -1.
        -13    1    4    4    0    0  0.47547208469E+01  0.24833387285E+02  0.21545593089E+03  0.21693449199E+03  0.10566000000E+00 0.  1.
        -14    1    4    4    0    0  0.10301595628E+00  0.14798150181E+01  0.10163269611E+02  0.10270954871E+02  0.00000000000E+00 0.  1.
<mgrwt>
<rscale>  0 0.79237761E+02</rscale>
<asrwt>0</asrwt>
<pdfrwt beam="1">  1        2 0.84496769E-01 0.79237761E+02</pdfrwt>
<pdfrwt beam="2">  1       -1 0.43968088E-03 0.79237761E+02</pdfrwt>
<totfact> 0.32140841E+05</totfact>
</mgrwt>
</event>
<event>
 8    1  0.1226832E-024  0.8358902E+02  0.7818608E-02  0.1319164E+00
         -1   -1    0    0    0  501 -0.00000000000E+00  0.00000000000E+00  0.26960022273E+02  0.26960022744E+02  0.50400000000E-02 0.  1.
          2   -1    0    0  501    0  0.00000000000E+00 -0.00000000000E+00 -0.64791522521E+02  0.64791522571E+02  0.25500000000E-02 0. -1.
         24    2    1    2    0    0 -0.88817841970E-15  0.00000000000E+00 -0.37831500248E+02  0.91751545315E+02  0.83589016364E+02 0.  0.
         66    2    3    3    0    0  0.68601766689E+01  0.37606879259E+02 -0.37406127580E+02  0.53521563658E+02  0.20000011054E+01 0.  0.
        -13    1    3    3    0    0 -0.68601766689E+01 -0.37606879259E+02 -0.42537266827E+00  0.38229981656E+02  0.10566000000E+00 0.  1.
         13    1    4    4    0    0  0.13871690195E+01  0.50977780114E+01 -0.49738744595E+01  0.72568705181E+01  0.10566000000E+00 0. -1.
        -13    1    4    4    0    0  0.13060945845E+01  0.93980266659E+01 -0.10086577704E+02  0.13848429589E+02  0.10566000000E+00 0.  1.
         14    1    4    4    0    0  0.41669130649E+01  0.23111074581E+02 -0.22345675417E+02  0.32416263551E+02  0.00000000000E+00 0. -1.
<mgrwt>
<rscale>  0 0.83589016E+02</rscale>
<asrwt>0</asrwt>
<pdfrwt beam="1">  1        2 0.99679265E-02 0.83589016E+02</pdfrwt>
<pdfrwt beam="2">  1       -1 0.41476958E-02 0.83589016E+02</pdfrwt>
<totfact> 0.14064458E+05</totfact>
</mgrwt>
</event>
<event>
 8    1  0.1226832E-024  0.7979152E+02  0.7818608E-02  0.1329644E+00
         -1   -1    0    0    0  501 -0.00000000000E+00  0.00000000000E+00  0.46268878390E+01  0.46268905840E+01  0.50400000000E-02 0.  1.
          2   -1    0    0  501    0  0.00000000000E+00 -0.00000000000E+00 -0.34400473501E+03  0.34400473502E+03  0.25500000000E-02 0. -1.
         24    2    1    2    0    0 -0.17763568394E-14  0.00000000000E+00 -0.33937784718E+03  0.34863162561E+03  0.79791523488E+02 0.  0.
         66    2    3    3    0    0 -0.14296336114E+02  0.30899751112E+02 -0.26044987837E+03  0.26267340745E+03  0.19999984047E+01 0.  0.
        -13    1    3    3    0    0  0.14296336114E+02 -0.30899751112E+02 -0.78927968808E+02  0.85958218160E+02  0.10566000000E+00 0.  1.
         13    1    4    4    0    0 -0.63889233229E+01  0.15007569194E+02 -0.12567159194E+03  0.12672571034E+03  0.10566000000E+00 0. -1.
        -13    1    4    4    0    0 -0.48136513072E+00  0.11549525608E+01 -0.11946104604E+02  0.12011919375E+02  0.10566000000E+00 0.  1.
        -14    1    4    4    0    0 -0.74260476600E+01  0.14737229357E+02 -0.12283218182E+03  0.12393577774E+03  0.00000000000E+00 0.  1.
<mgrwt>
<rscale>  0 0.79791523E+02</rscale>
<asrwt>0</asrwt>
<pdfrwt beam="1">  1        2 0.52923785E-01 0.79791523E+02</pdfrwt>
<pdfrwt beam="2">  1       -1 0.71182938E-03 0.79791523E+02</pdfrwt>
<totfact> 0.26967139E+05</totfact>
</mgrwt>
</event>
<event>
 8    1  0.1226832E-024  0.7940592E+02  0.7818608E-02  0.1330746E+00
         -1   -1    0    0    0  501 -0.00000000000E+00  0.00000000000E+00  0.20512642669E+01  0.20512704586E+01  0.50400000000E-02 0.  1.
          2   -1    0    0  501    0  0.00000000000E+00 -0.00000000000E+00 -0.76846393506E+03  0.76846393506E+03  0.25500000000E-02 0. -1.
         24    2    1    2    0    0  0.00000000000E+00  0.44408920985E-15 -0.76641267079E+03  0.77051520552E+03  0.79405919110E+02 0.  0.
         66    2    3    3    0    0  0.12408024618E+02  0.31887511914E+01 -0.74783971345E+03  0.74795211359E+03  0.19999997467E+01 0.  0.
        -13    1    3    3    0    0 -0.12408024618E+02 -0.31887511914E+01 -0.18572957335E+02  0.22563091927E+02  0.10566000000E+00 0.  1.
         13    1    4    4    0    0  0.39821713114E+01  0.84503954067E+00 -0.22005815569E+03  0.22009583101E+03  0.10566000000E+00 0. -1.
        -13    1    4    4    0    0  0.28345623097E+01  0.23499545139E+00 -0.20009965307E+03  0.20011989479E+03  0.10566000000E+00 0.  1.
        -14    1    4    4    0    0  0.55912909970E+01  0.21087161993E+01 -0.32768190470E+03  0.32773638780E+03  0.00000000000E+00 0.  1.
<mgrwt>
<rscale>  0 0.79405919E+02</rscale>
<asrwt>0</asrwt>
<pdfrwt beam="1">  1        2 0.11822499E+00 0.79405919E+02</pdfrwt>
<pdfrwt beam="2">  1       -1 0.31558021E-03 0.79405919E+02</pdfrwt>
<totfact> 0.34782154E+05</totfact>
</mgrwt>
</event>
<event>
 8    1  0.1226832E-024  0.7855316E+02  0.7818608E-02  0.1333208E+00
         -1   -1    0    0    0  501 -0.00000000000E+00  0.00000000000E+00  0.95267031202E+02  0.95267031335E+02  0.50400000000E-02 0.  1.
          2   -1    0    0  501    0  0.00000000000E+00 -0.00000000000E+00 -0.16192903051E+02  0.16192903252E+02  0.25500000000E-02 0. -1.
         24    2    1    2    0    0  0.00000000000E+00  0.00000000000E+00  0.79074128151E+02  0.11145993459E+03  0.78553162096E+02 0.  0.
         66    2    3    3    0    0 -0.13573614311E+02  0.32971538717E+02  0.62846577693E+02  0.72284560578E+02  0.19999998477E+01 0.  0.
        -13    1    3    3    0    0  0.13573614311E+02 -0.32971538717E+02  0.16227550458E+02  0.39175374009E+02  0.10566000000E+00 0.  1.
         13    1    4    4    0    0 -0.95845227173E+01  0.24005079533E+02  0.45461451453E+02  0.52295904728E+02  0.10566000000E+00 0. -1.
        -13    1    4    4    0    0 -0.71323064577E+00  0.26069496123E+01  0.50804000205E+01  0.57555636248E+01  0.10566000000E+00 0.  1.
         14    1    4    4    0    0 -0.32758609483E+01  0.63595095713E+01  0.12304726220E+02  0.14233092225E+02  0.00000000000E+00 0. -1.
<mgrwt>
<rscale>  0 0.78553162E+02</rscale>
<asrwt>0</asrwt>
<pdfrwt beam="1">  1        2 0.24912159E-02 0.78553162E+02</pdfrwt>
<pdfrwt beam="2">  1       -1 0.14656467E-01 0.78553162E+02</pdfrwt>
<totfact> 0.12532141E+05</totfact>
</mgrwt>
</event>
<event>
 8    1  0.1226832E-024  0.7885351E+02  0.7818608E-02  0.1332337E+00
          2   -1    0    0  501    0  0.00000000000E+00  0.00000000000E+00  0.10779864685E+04  0.10779864685E+04  0.25500000000E-02 0. -1.
         -1   -1    0    0    0  501 -0.00000000000E+00 -0.00000000000E+00 -0.14420072553E+01  0.14420160630E+01  0.50400000000E-02 0.  1.
         24    2    1    2    0    0  0.00000000000E+00 -0.17763568394E-14  0.10765444612E+04  0.10794284846E+04  0.78853511372E+02 0.  0.
         66    2    3    3    0    0 -0.19445204586E+02 -0.15578142416E+02  0.95645156483E+03  0.95677813016E+03  0.19999961783E+01 0.  0.
        -13    1    3    3    0    0  0.19445204586E+02  0.15578142416E+02  0.12009289642E+03  0.12265035441E+03  0.10566000000E+00 0.  1.
         13    1    4    4    0    0 -0.10646117762E+02 -0.79916775879E+01  0.50393972909E+03  0.50411553086E+03  0.10566000000E+00 0. -1.
        -13    1    4    4    0    0 -0.36484308544E+01 -0.23761912611E+01  0.17009849815E+03  0.17015424641E+03  0.10566000000E+00 0.  1.
         14    1    4    4    0    0 -0.51506559700E+01 -0.52102735673E+01  0.28241333759E+03  0.28250835289E+03  0.00000000000E+00 0. -1.
<mgrwt>
<rscale>  0 0.78853511E+02</rscale>
<asrwt>0</asrwt>
<pdfrwt beam="1">  1        2 0.16584421E+00 0.78853511E+02</pdfrwt>
<pdfrwt beam="2">  1       -1 0.22184776E-03 0.78853511E+02</pdfrwt>
<totfact> 0.36614200E+05</totfact>
</mgrwt>
</event>
<event>
 8    1  0.1226832E-024  0.8002381E+02  0.7818608E-02  0.1328984E+00
          2   -1    0    0  501    0  0.00000000000E+00  0.00000000000E+00  0.43255826987E+03  0.43255826988E+03  0.25500000000E-02 0. -1.
         -1   -1    0    0    0  501 -0.00000000000E+00 -0.00000000000E+00 -0.37011236701E+01  0.37011271017E+01  0.50400000000E-02 0.  1.
         24    2    1    2    0    0  0.00000000000E+00  0.35527136788E-14  0.42885714620E+03  0.43625939698E+03  0.80023806496E+02 0.  0.
         66    2    3    3    0    0  0.20072852471E+02  0.23182147670E+02  0.35446987977E+03  0.35579941968E+03  0.19999999576E+01 0.  0.
        -13    1    3    3    0    0 -0.20072852471E+02 -0.23182147670E+02  0.74387266430E+02  0.80459977305E+02  0.10566000000E+00 0.  1.
         13    1    4    4    0    0  0.83292915317E+01  0.10336166869E+02  0.15560276601E+03  0.15616800376E+03  0.10566000000E+00 0. -1.
        -13    1    4    4    0    0  0.50439877712E+01  0.61326784774E+01  0.85179464977E+02  0.85548839710E+02  0.10566000000E+00 0.  1.
        -14    1    4    4    0    0  0.66995731683E+01  0.67133023234E+01  0.11368764878E+03  0.11408257621E+03  0.00000000000E+00 0.  1.
<mgrwt>
<rscale>  0 0.80023806E+02</rscale>
<asrwt>0</asrwt>
<pdfrwt beam="1">  1        2 0.66547413E-01 0.80023806E+02</pdfrwt>
<pdfrwt beam="2">  1       -1 0.56940402E-03 0.80023806E+02</pdfrwt>
<totfact> 0.29005149E+05</totfact>
</mgrwt>
</event>
<event>
 8    1  0.1226832E-024  0.7987559E+02  0.7818608E-02  0.1329405E+00
         -1   -1    0    0    0  501 -0.00000000000E+00  0.00000000000E+00  0.44325470409E+02  0.44325470695E+02  0.50400000000E-02 0.  1.
          2   -1    0    0  501    0  0.00000000000E+00 -0.00000000000E+00 -0.35984441674E+02  0.35984441765E+02  0.25500000000E-02 0. -1.
         24    2    1    2    0    0 -0.35527136788E-14 -0.17763568394E-14  0.83410287341E+01  0.80309912460E+02  0.79875586251E+02 0.  0.
         66    2    3    3    0    0 -0.31101451081E+02 -0.10794040778E+02 -0.18515279607E+02  0.37823631882E+02  0.19999935346E+01 0.  0.
        -13    1    3    3    0    0  0.31101451081E+02  0.10794040778E+02  0.26856308341E+02  0.42486280578E+02  0.10566000000E+00 0.  1.
         13    1    4    4    0    0 -0.12727863954E+02 -0.49165007585E+01 -0.70896025152E+01  0.15376739849E+02  0.10566000000E+00 0. -1.
        -13    1    4    4    0    0 -0.92901797565E+01 -0.34080210170E+01 -0.54574070083E+01  0.11301172614E+02  0.10566000000E+00 0.  1.
        -14    1    4    4    0    0 -0.90834073706E+01 -0.24695190026E+01 -0.59682700831E+01  0.11145719418E+02  0.00000000000E+00 0.  1.
<mgrwt>
<rscale>  0 0.79875586E+02</rscale>
<asrwt>0</asrwt>
<pdfrwt beam="1">  1        2 0.55360680E-02 0.79875586E+02</pdfrwt>
<pdfrwt beam="2">  1       -1 0.68193031E-02 0.79875586E+02</pdfrwt>
<totfact> 0.14012069E+05</totfact>
</mgrwt>
</event>
<event>
 8    1  0.1226832E-024  0.8249325E+02  0.7818608E-02  0.1322121E+00
          2   -1    0    0  501    0  0.00000000000E+00  0.00000000000E+00  0.51767984689E+03  0.51767984690E+03  0.25500000000E-02 0. -1.
         -1   -1    0    0    0  501 -0.00000000000E+00 -0.00000000000E+00 -0.32863615571E+01  0.32863654218E+01  0.50400000000E-02 0.  1.
         24    2    1    2    0    0  0.35527136788E-14  0.00000000000E+00  0.51439348534E+03  0.52096621232E+03  0.82493251991E+02 0.  0.
         66    2    3    3    0    0  0.31694933348E+02 -0.25488109062E+02  0.29974290531E+03  0.30249631697E+03  0.19999988933E+01 0.  0.
        -13    1    3    3    0    0 -0.31694933348E+02  0.25488109062E+02  0.21465058003E+03  0.21846989535E+03  0.10566000000E+00 0.  1.
         13    1    4    4    0    0  0.28778055036E+02 -0.22547372789E+02  0.26849310742E+03  0.27097070020E+03  0.10566000000E+00 0. -1.
        -13    1    4    4    0    0  0.16219742674E+01 -0.17549276055E+01  0.19248230864E+02  0.19396291575E+02  0.10566000000E+00 0.  1.
         14    1    4    4    0    0  0.12949040454E+01 -0.11858086671E+01  0.12001567024E+02  0.12129325197E+02  0.00000000000E+00 0. -1.
<mgrwt>
<rscale>  0 0.82493252E+02</rscale>
<asrwt>0</asrwt>
<pdfrwt beam="1">  1        2 0.79642986E-01 0.82493252E+02</pdfrwt>
<pdfrwt beam="2">  1       -1 0.50559481E-03 0.82493252E+02</pdfrwt>
<totfact> 0.28417629E+05</totfact>
</mgrwt>
</event>
<event>
 8    1  0.1226832E-024  0.8042518E+02  0.7818608E-02  0.1327849E+00
         -1   -1    0    0    0  501 -0.00000000000E+00  0.00000000000E+00  0.47454773573E+01  0.47454800337E+01  0.50400000000E-02 0.  1.
          2   -1    0    0  501    0  0.00000000000E+00 -0.00000000000E+00 -0.34075645124E+03  0.34075645125E+03  0.25500000000E-02 0. -1.
         24    2    1    2    0    0 -0.71054273576E-14 -0.17763568394E-14 -0.33601097388E+03  0.34550193128E+03  0.80425182318E+02 0.  0.
         66    2    3    3    0    0 -0.18722705406E+02 -0.12277309082E+02 -0.31147875343E+03  0.31228878599E+03  0.19999999651E+01 0.  0.
        -13    1    3    3    0    0  0.18722705406E+02  0.12277309082E+02 -0.24532220455E+02  0.33213145297E+02  0.10566000000E+00 0.  1.
         13    1    4    4    0    0 -0.13027122186E+01 -0.50080534835E+00 -0.19554867234E+02  0.19604893820E+02  0.10566000000E+00 0. -1.
        -13    1    4    4    0    0 -0.14212727854E+02 -0.95913258492E+01 -0.22969227080E+03  0.23033138213E+03  0.10566000000E+00 0.  1.
         14    1    4    4    0    0 -0.32072653341E+01 -0.21851778845E+01 -0.62231615394E+02  0.62352510037E+02  0.00000000000E+00 0. -1.
<mgrwt>
<rscale>  0 0.80425182E+02</rscale>
<asrwt>0</asrwt>
<pdfrwt beam="1">  1        2 0.52424051E-01 0.80425182E+02</pdfrwt>
<pdfrwt beam="2">  1       -1 0.73007391E-03 0.80425182E+02</pdfrwt>
<totfact> 0.26324906E+05</totfact>
</mgrwt>
</event>
<event>
 8    1  0.1486529E-024  0.8020801E+02  0.7818608E-02  0.1328462E+00
          2   -1    0    0  501    0  0.00000000000E+00  0.00000000000E+00  0.29854525221E+03  0.29854525222E+03  0.25500000000E-02 0. -1.
         -1   -1    0    0    0  501 -0.00000000000E+00 -0.00000000000E+00 -0.53872259359E+01  0.53872282934E+01  0.50400000000E-02 0.  1.
         24    2    1    2    0    0  0.35527136788E-14 -0.35527136788E-14  0.29315802628E+03  0.30393248052E+03  0.80208006725E+02 0.  0.
         66    2    3    3    0    0 -0.21254206120E+02  0.16260911664E+02  0.25972633007E+03  0.26110902899E+03  0.19999897562E+01 0.  0.
        -13    1    3    3    0    0  0.21254206120E+02 -0.16260911664E+02  0.33431696203E+02  0.42823451530E+02  0.10566000000E+00 0.  1.
         13    1    4    4    0    0 -0.12301952049E+02  0.96477768256E+01  0.14766669621E+03  0.14849202657E+03  0.10566000000E+00 0. -1.
        -13    1    4    4    0    0 -0.47871206477E+01  0.40455555712E+01  0.58873647865E+02  0.59206423815E+02  0.10566000000E+00 0.  1.
        -14    1    4    4    0    0 -0.41651334226E+01  0.25675792667E+01  0.53185986005E+02  0.53410578606E+02  0.00000000000E+00 0.  1.
<mgrwt>
<rscale>  0 0.80208007E+02</rscale>
<asrwt>0</asrwt>
<pdfrwt beam="1">  1        2 0.45930048E-01 0.80208007E+02</pdfrwt>
<pdfrwt beam="2">  1       -1 0.82880401E-03 0.80208007E+02</pdfrwt>
<totfact> 0.25276952E+05</totfact>
</mgrwt>
</event>
<event>
 8    1  0.1226832E-024  0.8028483E+02  0.7818608E-02  0.1328245E+00
         -1   -1    0    0    0  501 -0.00000000000E+00  0.00000000000E+00  0.17223365498E+03  0.17223365505E+03  0.50400000000E-02 0.  1.
          2   -1    0    0  501    0  0.00000000000E+00 -0.00000000000E+00 -0.93559737387E+01  0.93559740862E+01  0.25500000000E-02 0. -1.
         24    2    1    2    0    0  0.44408920985E-15  0.71054273576E-14  0.16287768124E+03  0.18158962914E+03  0.80284832718E+02 0.  0.
         66    2    3    3    0    0 -0.28156247979E+01 -0.37043678833E+02  0.47243295905E+02  0.60133941251E+02  0.19999994689E+01 0.  0.
        -13    1    3    3    0    0  0.28156247979E+01  0.37043678833E+02  0.11563438533E+03  0.12145568789E+03  0.10566000000E+00 0.  1.
         13    1    4    4    0    0  0.12417248026E+00 -0.64080905942E+01  0.78649267659E+01  0.10146293951E+02  0.10566000000E+00 0. -1.
        -13    1    4    4    0    0 -0.11180760833E+01 -0.74551717076E+01  0.97196807186E+01  0.12300936413E+02  0.10566000000E+00 0.  1.
         14    1    4    4    0    0 -0.18217211948E+01 -0.23180416531E+02  0.29658688421E+02  0.37686710888E+02  0.00000000000E+00 0. -1.
<mgrwt>
<rscale>  0 0.80284833E+02</rscale>
<asrwt>0</asrwt>
<pdfrwt beam="1">  1        2 0.14393806E-02 0.80284833E+02</pdfrwt>
<pdfrwt beam="2">  1       -1 0.26497486E-01 0.80284833E+02</pdfrwt>
<totfact> 0.10306302E+05</totfact>
</mgrwt>
</event>
<event>
 8    1  0.1226832E-024  0.7823476E+02  0.7818608E-02  0.1334137E+00
         -1   -1    0    0    0  501 -0.00000000000E+00  0.00000000000E+00  0.10504379976E+01  0.10504500885E+01  0.50400000000E-02 0.  1.
          2   -1    0    0  501    0  0.00000000000E+00 -0.00000000000E+00 -0.14566881786E+04  0.14566881786E+04  0.25500000000E-02 0. -1.
         24    2    1    2    0    0  0.11102230246E-15  0.00000000000E+00 -0.14556377406E+04  0.14577386287E+04  0.78234760247E+02 0.  0.
         66    2    3    3    0    0  0.34755521781E+00 -0.22258053923E+02 -0.13270503875E+04  0.13272385892E+04  0.20000002952E+01 0.  0.
        -13    1    3    3    0    0 -0.34755521781E+00  0.22258053923E+02 -0.12858735312E+03  0.13050003948E+03  0.10566000000E+00 0.  1.
         13    1    4    4    0    0  0.87026748037E-01 -0.17265274128E+02 -0.10429065647E+04  0.10430494768E+04  0.10566000000E+00 0. -1.
        -13    1    4    4    0    0 -0.77808013224E-01 -0.41414891654E+01 -0.22412906438E+03  0.22416736303E+03  0.10566000000E+00 0.  1.
        -14    1    4    4    0    0  0.33833648299E+00 -0.85129062924E+00 -0.60014758400E+02  0.60021749334E+02  0.00000000000E+00 0.  1.
<mgrwt>
<rscale>  0 0.78234760E+02</rscale>
<asrwt>0</asrwt>
<pdfrwt beam="1">  1        2 0.22410426E+00 0.78234760E+02</pdfrwt>
<pdfrwt beam="2">  1       -1 0.16160794E-03 0.78234760E+02</pdfrwt>
<totfact> 0.35603369E+05</totfact>
</mgrwt>
</event>
<event>
 8    1  0.1226832E-024  0.7960240E+02  0.7818608E-02  0.1330184E+00
         -1   -1    0    0    0  501 -0.00000000000E+00  0.00000000000E+00  0.68860602101E+01  0.68860620545E+01  0.50400000000E-02 0.  1.
          2   -1    0    0  501    0  0.00000000000E+00 -0.00000000000E+00 -0.23004958915E+03  0.23004958917E+03  0.25500000000E-02 0. -1.
         24    2    1    2    0    0  0.00000000000E+00  0.71054273576E-14 -0.22316352894E+03  0.23693565122E+03  0.79602400527E+02 0.  0.
         66    2    3    3    0    0 -0.13361384062E+01 -0.37512162420E+02 -0.72481707324E+02  0.81648916033E+02  0.19999993570E+01 0.  0.
        -13    1    3    3    0    0  0.13361384062E+01  0.37512162420E+02 -0.15068182162E+03  0.15528673519E+03  0.10566000000E+00 0.  1.
         13    1    4    4    0    0 -0.11753915288E+01 -0.14720849454E+02 -0.29277041187E+02  0.32790871574E+02  0.10566000000E+00 0. -1.
        -13    1    4    4    0    0 -0.22064906926E+00 -0.16472752675E+02 -0.32132760803E+02  0.36109912041E+02  0.10566000000E+00 0.  1.
         14    1    4    4    0    0  0.59902191827E-01 -0.63185602906E+01 -0.11071905334E+02  0.12748132418E+02  0.00000000000E+00 0. -1.
<mgrwt>
<rscale>  0 0.79602401E+02</rscale>
<asrwt>0</asrwt>
<pdfrwt beam="1">  1        2 0.35392239E-01 0.79602401E+02</pdfrwt>
<pdfrwt beam="2">  1       -1 0.10593942E-02 0.79602401E+02</pdfrwt>
<totfact> 0.23476526E+05</totfact>
</mgrwt>
</event>
<event>
 8    1  0.1226832E-024  0.7952130E+02  0.7818608E-02  0.1330415E+00
          2   -1    0    0  501    0  0.00000000000E+00  0.00000000000E+00  0.98210572795E+01  0.98210576106E+01  0.25500000000E-02 0. -1.
         -1   -1    0    0    0  501 -0.00000000000E+00 -0.00000000000E+00 -0.16097140334E+03  0.16097140341E+03  0.50400000000E-02 0.  1.
         24    2    1    2    0    0  0.71054273576E-14  0.55511151231E-16 -0.15115034606E+03  0.17079246102E+03  0.79521302996E+02 0.  0.
         66    2    3    3    0    0  0.38249329378E+02  0.31243283630E+00 -0.52511175263E+02  0.64996402540E+02  0.20000008900E+01 0.  0.
        -13    1    3    3    0    0 -0.38249329378E+02 -0.31243283630E+00 -0.98639170793E+02  0.10579605848E+03  0.10566000000E+00 0.  1.
         13    1    4    4    0    0  0.12633078860E+02  0.68042062112E+00 -0.18412456362E+02  0.22340263361E+02  0.10566000000E+00 0. -1.
        -13    1    4    4    0    0  0.25146388737E+02 -0.41205672153E+00 -0.33330954711E+02  0.41754932202E+02  0.10566000000E+00 0.  1.
        -14    1    4    4    0    0  0.46986178043E+00  0.44068936714E-01 -0.76776419050E+00  0.90120697740E+00  0.00000000000E+00 0.  1.
<mgrwt>
<rscale>  0 0.79521303E+02</rscale>
<asrwt>0</asrwt>
<pdfrwt beam="1">  1        2 0.15109320E-02 0.79521303E+02</pdfrwt>
<pdfrwt beam="2">  1       -1 0.24764830E-01 0.79521303E+02</pdfrwt>
<totfact> 0.10753430E+05</totfact>
</mgrwt>
</event>
<event>
 8    1  0.1226832E-024  0.7972620E+02  0.7818608E-02  0.1329830E+00
         -1   -1    0    0    0  501 -0.00000000000E+00  0.00000000000E+00  0.31845821376E+01  0.31845861258E+01  0.50400000000E-02 0.  1.
          2   -1    0    0  501    0  0.00000000000E+00 -0.00000000000E+00 -0.49898718548E+03  0.49898718549E+03  0.25500000000E-02 0. -1.
         24    2    1    2    0    0 -0.17763568394E-14  0.17763568394E-14 -0.49580260334E+03  0.50217177161E+03  0.79726198475E+02 0.  0.
         66    2    3    3    0    0 -0.88373464692E+01  0.11331735203E+02 -0.48209039152E+03  0.48230866933E+03  0.19999991006E+01 0.  0.
        -13    1    3    3    0    0  0.88373464692E+01 -0.11331735203E+02 -0.13712211823E+02  0.19863102286E+02  0.10566000000E+00 0.  1.
         13    1    4    4    0    0 -0.48881228108E+01  0.50066712002E+01 -0.24852782217E+03  0.24862632616E+03  0.10566000000E+00 0. -1.
        -13    1    4    4    0    0 -0.32710244191E+01  0.52827143636E+01 -0.20098152186E+03  0.20107757201E+03  0.10566000000E+00 0.  1.
        -14    1    4    4    0    0 -0.67819923935E+00  0.10423496390E+01 -0.32581047491E+02  0.32604771163E+02  0.00000000000E+00 0.  1.
<mgrwt>
<rscale>  0 0.79726198E+02</rscale>
<asrwt>0</asrwt>
<pdfrwt beam="1">  1        2 0.76767197E-01 0.79726198E+02</pdfrwt>
<pdfrwt beam="2">  1       -1 0.48993642E-03 0.79726198E+02</pdfrwt>
<totfact> 0.30704741E+05</totfact>
</mgrwt>
</event>
<event>
 8    1  0.1226832E-024  0.8295918E+02  0.7818608E-02  0.1320857E+00
         -1   -1    0    0    0  501 -0.00000000000E+00  0.00000000000E+00  0.94172762398E+00  0.94174111059E+00  0.50400000000E-02 0.  1.
          2   -1    0    0  501    0  0.00000000000E+00 -0.00000000000E+00 -0.18270081692E+04  0.18270081692E+04  0.25500000000E-02 0. -1.
         24    2    1    2    0    0 -0.22204460493E-15  0.00000000000E+00 -0.18260664415E+04  0.18279499103E+04  0.82959180087E+02 0.  0.
         66    2    3    3    0    0 -0.15382452421E+01  0.16293522121E+02 -0.17528090043E+04  0.17528865482E+04  0.19999996636E+01 0.  0.
        -13    1    3    3    0    0  0.15382452421E+01 -0.16293522121E+02 -0.73257437197E+02  0.75063362104E+02  0.10566000000E+00 0.  1.
         13    1    4    4    0    0 -0.38632925115E+00  0.12510967967E+01 -0.13402926664E+03  0.13403570410E+03  0.10566000000E+00 0. -1.
        -13    1    4    4    0    0 -0.47985760779E+00  0.10354160754E+02 -0.11808624320E+04  0.11809079276E+04  0.10566000000E+00 0.  1.
        -14    1    4    4    0    0 -0.67205838311E+00  0.46882645708E+01 -0.43791730571E+03  0.43794291652E+03  0.00000000000E+00 0.  1.
<mgrwt>
<rscale>  0 0.82959180E+02</rscale>
<asrwt>0</asrwt>
<pdfrwt beam="1">  1        2 0.28107534E+00 0.82959180E+02</pdfrwt>
<pdfrwt beam="2">  1       -1 0.14488367E-03 0.82959180E+02</pdfrwt>
<totfact> 0.27198916E+05</totfact>
</mgrwt>
</event>
<event>
 8    1  0.1226832E-024  0.8206394E+02  0.7818608E-02  0.1323294E+00
          2   -1    0    0  501    0  0.00000000000E+00  0.00000000000E+00  0.52129466550E+01  0.52129472787E+01  0.25500000000E-02 0. -1.
         -1   -1    0    0    0  501 -0.00000000000E+00 -0.00000000000E+00 -0.32296945061E+03  0.32296945065E+03  0.50400000000E-02 0.  1.
         24    2    1    2    0    0  0.71054273576E-14  0.00000000000E+00 -0.31775650396E+03  0.32818239793E+03  0.82063941558E+02 0.  0.
         66    2    3    3    0    0  0.34891784571E+02  0.21129980465E+02 -0.14214524255E+03  0.14789585101E+03  0.20000149890E+01 0.  0.
        -13    1    3    3    0    0 -0.34891784571E+02 -0.21129980465E+02 -0.17561126140E+03  0.18028654692E+03  0.10566000000E+00 0.  1.
         13    1    4    4    0    0  0.18597059555E+02  0.10546152802E+02 -0.73714508366E+02  0.76752275996E+02  0.10566000000E+00 0. -1.
        -13    1    4    4    0    0  0.99021704696E+01  0.68098843898E+01 -0.43734228983E+02  0.45355500815E+02  0.10566000000E+00 0.  1.
        -14    1    4    4    0    0  0.63925545473E+01  0.37739432735E+01 -0.24696505205E+02  0.25788074197E+02  0.00000000000E+00 0.  1.
<mgrwt>
<rscale>  0 0.82063942E+02</rscale>
<asrwt>0</asrwt>
<pdfrwt beam="1">  1        2 0.80199210E-03 0.82063942E+02</pdfrwt>
<pdfrwt beam="2">  1       -1 0.49687592E-01 0.82063942E+02</pdfrwt>
<totfact> 0.78504443E+04</totfact>
</mgrwt>
</event>
<event>
 8    1  0.1226832E-024  0.8326337E+02  0.7818608E-02  0.1320038E+00
         -1   -1    0    0    0  501 -0.00000000000E+00  0.00000000000E+00  0.62897998996E+01  0.62898019189E+01  0.50400000000E-02 0.  1.
          2   -1    0    0  501    0  0.00000000000E+00 -0.00000000000E+00 -0.27555675356E+03  0.27555675357E+03  0.25500000000E-02 0. -1.
         24    2    1    2    0    0  0.00000000000E+00  0.35527136788E-14 -0.26926695366E+03  0.28184655549E+03  0.83263368347E+02 0.  0.
         66    2    3    3    0    0  0.32357285283E+02  0.23850184751E+02 -0.98352991935E+02  0.10626916885E+03  0.20000003979E+01 0.  0.
        -13    1    3    3    0    0 -0.32357285283E+02 -0.23850184751E+02 -0.17091396173E+03  0.17557738665E+03  0.10566000000E+00 0.  1.
         13    1    4    4    0    0  0.23939959529E+02  0.17452825207E+02 -0.70900940716E+02  0.76841898261E+02  0.10566000000E+00 0. -1.
        -13    1    4    4    0    0  0.13122824718E+01  0.12626224562E+01 -0.42832199146E+01  0.46554739421E+01  0.10566000000E+00 0.  1.
         14    1    4    4    0    0  0.71050432813E+01  0.51347370887E+01 -0.23168831305E+02  0.24771796645E+02  0.00000000000E+00 0. -1.
<mgrwt>
<rscale>  0 0.83263368E+02</rscale>
<asrwt>0</asrwt>
<pdfrwt beam="1">  1        2 0.42393337E-01 0.83263368E+02</pdfrwt>
<pdfrwt beam="2">  1       -1 0.96766190E-03 0.83263368E+02</pdfrwt>
<totfact> 0.22253788E+05</totfact>
</mgrwt>
</event>
<event>
 8    1  0.1226832E-024  0.8026286E+02  0.7818608E-02  0.1328307E+00
         -1   -1    0    0    0  501 -0.00000000000E+00  0.00000000000E+00  0.17834655130E+03  0.17834655137E+03  0.50400000000E-02 0.  1.
          2   -1    0    0  501    0  0.00000000000E+00 -0.00000000000E+00 -0.90303492558E+01  0.90303496158E+01  0.25500000000E-02 0. -1.
         24    2    1    2    0    0  0.00000000000E+00  0.88817841970E-15  0.16931620205E+03  0.18737690099E+03  0.80262860334E+02 0.  0.
         66    2    3    3    0    0  0.30840311897E+02 -0.73823706264E+01  0.27388041255E+02  0.41949124331E+02  0.19999985952E+01 0.  0.
        -13    1    3    3    0    0 -0.30840311897E+02  0.73823706264E+01  0.14192816079E+03  0.14542777666E+03  0.10566000000E+00 0.  1.
         13    1    4    4    0    0  0.12255067539E+02 -0.23092740988E+01  0.10379002567E+02  0.16225112806E+02  0.10566000000E+00 0. -1.
        -13    1    4    4    0    0  0.57614668901E+01 -0.17159636256E+01  0.46562950949E+01  0.76046880236E+01  0.10566000000E+00 0.  1.
        -14    1    4    4    0    0  0.12823777469E+02 -0.33571329020E+01  0.12352743593E+02  0.18119323502E+02  0.00000000000E+00 0.  1.
<mgrwt>
<rscale>  0 0.80262860E+02</rscale>
<asrwt>0</asrwt>
<pdfrwt beam="1">  1        2 0.13892845E-02 0.80262860E+02</pdfrwt>
<pdfrwt beam="2">  1       -1 0.27437931E-01 0.80262860E+02</pdfrwt>
<totfact> 0.10213784E+05</totfact>
</mgrwt>
</event>
<event>
 8    1  0.1226832E-024  0.8042129E+02  0.7818608E-02  0.1327860E+00
         -1   -1    0    0    0  501 -0.00000000000E+00  0.00000000000E+00  0.21605383335E+02  0.21605383923E+02  0.50400000000E-02 0.  1.
          2   -1    0    0  501    0  0.00000000000E+00 -0.00000000000E+00 -0.74837636176E+02  0.74837636219E+02  0.25500000000E-02 0. -1.
         24    2    1    2    0    0  0.00000000000E+00  0.00000000000E+00 -0.53232252841E+02  0.96443020143E+02  0.80421286931E+02 0.  0.
         66    2    3    3    0    0 -0.38298061748E+02  0.10351768049E+02 -0.34310399188E+02  0.52489085790E+02  0.19999997980E+01 0.  0.
        -13    1    3    3    0    0  0.38298061748E+02 -0.10351768049E+02 -0.18921853653E+02  0.43953934353E+02  0.10566000000E+00 0.  1.
         13    1    4    4    0    0 -0.19759923923E+02  0.45985264529E+01 -0.18017120012E+02  0.27133536750E+02  0.10566000000E+00 0. -1.
        -13    1    4    4    0    0 -0.23130130348E+01  0.70732417009E+00 -0.17126611376E+01  0.29655874610E+01  0.10566000000E+00 0.  1.
         14    1    4    4    0    0 -0.16225124790E+02  0.50459174255E+01 -0.14580618038E+02  0.22389961578E+02  0.00000000000E+00 0. -1.
<mgrwt>
<rscale>  0 0.80421287E+02</rscale>
<asrwt>0</asrwt>
<pdfrwt beam="1">  1        2 0.11513482E-01 0.80421287E+02</pdfrwt>
<pdfrwt beam="2">  1       -1 0.33239052E-02 0.80421287E+02</pdfrwt>
<totfact> 0.16184223E+05</totfact>
</mgrwt>
</event>
<event>
 8    1  0.1226832E-024  0.8735204E+02  0.7818608E-02  0.1309394E+00
         -1   -1    0    0    0  501 -0.00000000000E+00  0.00000000000E+00  0.10570939232E+03  0.10570939244E+03  0.50400000000E-02 0.  1.
          2   -1    0    0  501    0  0.00000000000E+00 -0.00000000000E+00 -0.18045648181E+02  0.18045648362E+02  0.25500000000E-02 0. -1.
         24    2    1    2    0    0  0.00000000000E+00 -0.71054273576E-14  0.87663744138E+02  0.12375504080E+03  0.87352035393E+02 0.  0.
         66    2    3    3    0    0  0.15660746303E+02  0.39276901238E+02  0.28487540590E+02  0.51024248312E+02  0.20000003497E+01 0.  0.
        -13    1    3    3    0    0 -0.15660746303E+02 -0.39276901238E+02  0.59176203548E+02  0.72730792488E+02  0.10566000000E+00 0.  1.
         13    1    4    4    0    0  0.12973883654E+02  0.33455980220E+02  0.24340518158E+02  0.43360076774E+02  0.10566000000E+00 0. -1.
        -13    1    4    4    0    0  0.15440918695E+01  0.38023019198E+01  0.23532829664E+01  0.47318943718E+01  0.10566000000E+00 0.  1.
         14    1    4    4    0    0  0.11427707788E+01  0.20186190976E+01  0.17937394652E+01  0.29322771668E+01  0.00000000000E+00 0. -1.
<mgrwt>
<rscale>  0 0.87352035E+02</rscale>
<asrwt>0</asrwt>
<pdfrwt beam="1">  1        2 0.27762536E-02 0.87352035E+02</pdfrwt>
<pdfrwt beam="2">  1       -1 0.16262984E-01 0.87352035E+02</pdfrwt>
<totfact> 0.94027175E+04</totfact>
</mgrwt>
</event>
<event>
 8    1  0.1226832E-024  0.8038637E+02  0.7818608E-02  0.1327959E+00
          2   -1    0    0  501    0  0.00000000000E+00  0.00000000000E+00  0.10778587560E+03  0.10778587563E+03  0.25500000000E-02 0. -1.
         -1   -1    0    0    0  501 -0.00000000000E+00 -0.00000000000E+00 -0.14987976228E+02  0.14987977076E+02  0.50400000000E-02 0.  1.
         24    2    1    2    0    0  0.00000000000E+00 -0.44408920985E-15  0.92797899376E+02  0.12277385271E+03  0.80386371859E+02 0.  0.
         66    2    3    3    0    0 -0.33993947971E+02 -0.27429380966E+01  0.78839947175E+02  0.85923509405E+02  0.19999974584E+01 0.  0.
        -13    1    3    3    0    0  0.33993947971E+02  0.27429380966E+01  0.13957952201E+02  0.36850343305E+02  0.10566000000E+00 0.  1.
         13    1    4    4    0    0 -0.13899136235E+02 -0.32909775240E+00  0.30925950416E+02  0.33907519322E+02  0.10566000000E+00 0. -1.
        -13    1    4    4    0    0 -0.10909844054E+02 -0.14170134251E+01  0.26640788917E+02  0.28823175094E+02  0.10566000000E+00 0.  1.
         14    1    4    4    0    0 -0.91849676821E+01 -0.99682691909E+00  0.21273207842E+02  0.23192814989E+02  0.00000000000E+00 0. -1.
<mgrwt>
<rscale>  0 0.80386372E+02</rscale>
<asrwt>0</asrwt>
<pdfrwt beam="1">  1        2 0.16582443E-01 0.80386372E+02</pdfrwt>
<pdfrwt beam="2">  1       -1 0.23058425E-02 0.80386372E+02</pdfrwt>
<totfact> 0.17875283E+05</totfact>
</mgrwt>
</event>
<event>
 8    1  0.1226832E-024  0.7982285E+02  0.7818608E-02  0.1329555E+00
          2   -1    0    0  501    0  0.00000000000E+00  0.00000000000E+00  0.10172724892E+03  0.10172724895E+03  0.25500000000E-02 0. -1.
         -1   -1    0    0    0  501 -0.00000000000E+00 -0.00000000000E+00 -0.15658752937E+02  0.15658753748E+02  0.50400000000E-02 0.  1.
         24    2    1    2    0    0  0.00000000000E+00  0.17763568394E-14  0.86068495982E+02  0.11738600270E+03  0.79822851547E+02 0.  0.
         66    2    3    3    0    0  0.23131185596E+01  0.15014838148E+02  0.97295965616E+02  0.98495181634E+02  0.19999994734E+01 0.  0.
        -13    1    3    3    0    0 -0.23131185596E+01 -0.15014838148E+02 -0.11227469634E+02  0.18890821065E+02  0.10566000000E+00 0.  1.
         13    1    4    4    0    0  0.18639274499E+01  0.94524934332E+01  0.57444213141E+02  0.58246653509E+02  0.10566000000E+00 0. -1.
        -13    1    4    4    0    0  0.54446184058E-03  0.89102753961E-01  0.13603754955E+01  0.13673789239E+01  0.10566000000E+00 0. -1.
         14    1    4    4    0    0  0.44864664784E+00  0.54732419608E+01  0.38491376980E+02  0.38881149201E+02  0.00000000000E+00 0. -1.
<mgrwt>
<rscale>  0 0.79822852E+02</rscale>
<asrwt>0</asrwt>
<pdfrwt beam="1">  1        2 0.15650346E-01 0.79822852E+02</pdfrwt>
<pdfrwt beam="2">  1       -1 0.24090390E-02 0.79822852E+02</pdfrwt>
<totfact> 0.17917320E+05</totfact>
</mgrwt>
</event>
<event>
 8    1  0.1226832E-024  0.7920411E+02  0.7818608E-02  0.1331325E+00
         -1   -1    0    0    0  501 -0.00000000000E+00  0.00000000000E+00  0.90294043558E+01  0.90294057624E+01  0.50400000000E-02 0.  1.
          2   -1    0    0  501    0  0.00000000000E+00 -0.00000000000E+00 -0.17369059917E+03  0.17369059919E+03  0.25500000000E-02 0. -1.
         24    2    1    2    0    0  0.35527136788E-14  0.00000000000E+00 -0.16466119481E+03  0.18272000495E+03  0.79204110573E+02 0.  0.
         66    2    3    3    0    0  0.26912305294E+02 -0.26416452074E+02 -0.54678711079E+02  0.66451956851E+02  0.20000018972E+01 0.  0.
        -13    1    3    3    0    0 -0.26912305294E+02  0.26416452074E+02 -0.10998248373E+03  0.11626804810E+03  0.10566000000E+00 0.  1.
         13    1    4    4    0    0  0.10006411686E+02 -0.88722030588E+01 -0.18701626351E+02  0.22991438714E+02  0.10566000000E+00 0. -1.
        -13    1    4    4    0    0  0.13762508704E+02 -0.13875701489E+02 -0.28424955927E+02  0.34495376808E+02  0.10566000000E+00 0.  1.
        -14    1    4    4    0    0  0.31433849035E+01 -0.36685475270E+01 -0.75521288013E+01  0.89651413285E+01  0.00000000000E+00 0.  1.
<mgrwt>
<rscale>  0 0.79204111E+02</rscale>
<asrwt>0</asrwt>
<pdfrwt beam="1">  1        2 0.26721628E-01 0.79204111E+02</pdfrwt>
<pdfrwt beam="2">  1       -1 0.13891394E-02 0.79204111E+02</pdfrwt>
<totfact> 0.21582936E+05</totfact>
</mgrwt>
</event>
<event>
 8    1  0.1226832E-024  0.7845194E+02  0.7818608E-02  0.1333503E+00
          2   -1    0    0  501    0  0.00000000000E+00  0.00000000000E+00  0.65209418290E+03  0.65209418290E+03  0.25500000000E-02 0. -1.
         -1   -1    0    0    0  501 -0.00000000000E+00 -0.00000000000E+00 -0.23595898244E+01  0.23595952071E+01  0.50400000000E-02 0.  1.
         24    2    1    2    0    0  0.00000000000E+00  0.00000000000E+00  0.64973459307E+03  0.65445377811E+03  0.78451935897E+02 0.  0.
         66    2    3    3    0    0 -0.11613759989E+02  0.19658839915E+01  0.63697946789E+03  0.63709150569E+03  0.19999984430E+01 0.  0.
        -13    1    3    3    0    0  0.11613759989E+02 -0.19658839915E+01  0.12755125185E+02  0.17362272417E+02  0.10566000000E+00 0.  1.
         13    1    4    4    0    0 -0.82138305104E+01  0.15288430326E+01  0.46618894593E+03  0.46626381893E+03  0.10566000000E+00 0. -1.
        -13    1    4    4    0    0 -0.13673954767E+01 -0.25183313292E+00  0.58091721952E+02  0.58108454753E+02  0.10566000000E+00 0.  1.
         14    1    4    4    0    0 -0.20325340022E+01  0.68887409179E+00  0.11269880000E+03  0.11271923200E+03  0.00000000000E+00 0. -1.
<mgrwt>
<rscale>  0 0.78451936E+02</rscale>
<asrwt>0</asrwt>
<pdfrwt beam="1">  1        2 0.10032231E+00 0.78451936E+02</pdfrwt>
<pdfrwt beam="2">  1       -1 0.36301376E-03 0.78451936E+02</pdfrwt>
<totfact> 0.34596769E+05</totfact>
</mgrwt>
</event>
<event>
 8    1  0.1226832E-024  0.8220412E+02  0.7818608E-02  0.1322910E+00
          2   -1    0    0  501    0  0.00000000000E+00  0.00000000000E+00  0.36561792915E+03  0.36561792916E+03  0.25500000000E-02 0. -1.
         -1   -1    0    0    0  501 -0.00000000000E+00 -0.00000000000E+00 -0.46206128718E+01  0.46206156205E+01  0.50400000000E-02 0.  1.
         24    2    1    2    0    0 -0.35527136788E-14  0.35527136788E-14  0.36099731628E+03  0.37023854478E+03  0.82204122040E+02 0.  0.
         66    2    3    3    0    0 -0.29032169404E+02  0.27109324253E+02  0.22775476616E+03  0.23120124529E+03  0.19999989776E+01 0.  0.
        -13    1    3    3    0    0  0.29032169404E+02 -0.27109324253E+02  0.13324255013E+03  0.13903729949E+03  0.10566000000E+00 0.  1.
         13    1    4    4    0    0 -0.13935865428E+02  0.12770117022E+02  0.10508316489E+03  0.10676969112E+03  0.10566000000E+00 0. -1.
        -13    1    4    4    0    0 -0.10435632411E+02  0.10539471406E+02  0.88873990801E+02  0.90103164685E+02  0.10566000000E+00 0.  1.
        -14    1    4    4    0    0 -0.46606715654E+01  0.37997358251E+01  0.33797610460E+02  0.34328389484E+02  0.00000000000E+00 0.  1.
<mgrwt>
<rscale>  0 0.82204122E+02</rscale>
<asrwt>0</asrwt>
<pdfrwt beam="1">  1        2 0.56248928E-01 0.82204122E+02</pdfrwt>
<pdfrwt beam="2">  1       -1 0.71086353E-03 0.82204122E+02</pdfrwt>
<totfact> 0.25491158E+05</totfact>
</mgrwt>
</event>
<event>
 8    1  0.1226832E-024  0.7940117E+02  0.7818608E-02  0.1330759E+00
          2   -1    0    0  501    0  0.00000000000E+00  0.00000000000E+00  0.11798917715E+03  0.11798917717E+03  0.25500000000E-02 0. -1.
         -1   -1    0    0    0  501 -0.00000000000E+00 -0.00000000000E+00 -0.13358313656E+02  0.13358314606E+02  0.50400000000E-02 0.  1.
         24    2    1    2    0    0  0.11102230246E-15  0.71054273576E-14  0.10463086349E+03  0.13134749178E+03  0.79401171289E+02 0.  0.
         66    2    3    3    0    0  0.96389801184E+00  0.26582099689E+02  0.10104560007E+03  0.10450717880E+03  0.20000007615E+01 0.  0.
        -13    1    3    3    0    0 -0.96389801184E+00 -0.26582099689E+02  0.35852634200E+01  0.26840312984E+02  0.10566000000E+00 0.  1.
         13    1    4    4    0    0 -0.50765426358E-01  0.29224373677E+01  0.11133501801E+02  0.11511265947E+02  0.10566000000E+00 0. -1.
        -13    1    4    4    0    0  0.65255653887E+00  0.33551918343E+01  0.11598200257E+02  0.12091838385E+02  0.10566000000E+00 0.  1.
         14    1    4    4    0    0  0.36210689933E+00  0.20304470487E+02  0.78313898011E+02  0.80904074464E+02  0.00000000000E+00 0. -1.
<mgrwt>
<rscale>  0 0.79401171E+02</rscale>
<asrwt>0</asrwt>
<pdfrwt beam="1">  1        2 0.18152182E-01 0.79401171E+02</pdfrwt>
<pdfrwt beam="2">  1       -1 0.20551251E-02 0.79401171E+02</pdfrwt>
<totfact> 0.18968918E+05</totfact>
</mgrwt>
</event>
<event>
 8    1  0.1226832E-024  0.8083283E+02  0.7818608E-02  0.1326704E+00
         -1   -1    0    0    0  501 -0.00000000000E+00  0.00000000000E+00  0.19176895940E+01  0.19176962170E+01  0.50400000000E-02 0.  1.
          2   -1    0    0  501    0  0.00000000000E+00 -0.00000000000E+00 -0.85179773660E+03  0.85179773660E+03  0.25500000000E-02 0. -1.
         24    2    1    2    0    0  0.00000000000E+00  0.00000000000E+00 -0.84988004701E+03  0.85371543282E+03  0.80832827103E+02 0.  0.
         66    2    3    3    0    0 -0.14172777933E+02  0.13416724453E+02 -0.79869505816E+03  0.79893596243E+03  0.20000001639E+01 0.  0.
        -13    1    3    3    0    0  0.14172777933E+02 -0.13416724453E+02 -0.51184988843E+02  0.54779470390E+02  0.10566000000E+00 0.  1.
         13    1    4    4    0    0 -0.88087186452E+01  0.76614080335E+01 -0.45233561104E+03  0.45248625048E+03  0.10566000000E+00 0. -1.
        -13    1    4    4    0    0 -0.28260137804E+01  0.25755539225E+01 -0.17832295619E+03  0.17836397535E+03  0.10566000000E+00 0. -1.
         14    1    4    4    0    0 -0.25380455073E+01  0.31797624974E+01 -0.16803649093E+03  0.16808573660E+03  0.00000000000E+00 0. -1.
<mgrwt>
<rscale>  0 0.80832827E+02</rscale>
<asrwt>0</asrwt>
<pdfrwt beam="1">  1        2 0.13104550E+00 0.80832827E+02</pdfrwt>
<pdfrwt beam="2">  1       -1 0.29503036E-03 0.80832827E+02</pdfrwt>
<totfact> 0.33784161E+05</totfact>
</mgrwt>
</event>
<event>
 8    1  0.1226832E-024  0.8028736E+02  0.7818608E-02  0.1328238E+00
          2   -1    0    0  501    0  0.00000000000E+00  0.00000000000E+00  0.80253595602E+02  0.80253595643E+02  0.25500000000E-02 0. -1.
         -1   -1    0    0    0  501 -0.00000000000E+00 -0.00000000000E+00 -0.20080283102E+02  0.20080283735E+02  0.50400000000E-02 0.  1.
         24    2    1    2    0    0  0.88817841970E-15 -0.17763568394E-14  0.60173312500E+02  0.10033387938E+03  0.80287357745E+02 0.  0.
         66    2    3    3    0    0 -0.26162638325E+01  0.11689921573E+02  0.77953852039E+02  0.78894246611E+02  0.19999994586E+01 0.  0.
        -13    1    3    3    0    0  0.26162638325E+01 -0.11689921573E+02 -0.17780539539E+02  0.21439632766E+02  0.10566000000E+00 0.  1.
         13    1    4    4    0    0 -0.42362853079E+00  0.38989723755E+01  0.29344925039E+02  0.29606033782E+02  0.10566000000E+00 0. -1.
        -13    1    4    4    0    0 -0.16968159108E+00  0.42573337019E+00  0.43164188274E+01  0.43419668670E+01  0.10566000000E+00 0.  1.
        -14    1    4    4    0    0 -0.20229537106E+01  0.73652158272E+01  0.44292508173E+02  0.44946245962E+02  0.00000000000E+00 0.  1.
<mgrwt>
<rscale>  0 0.80287358E+02</rscale>
<asrwt>0</asrwt>
<pdfrwt beam="1">  1        2 0.12346707E-01 0.80287358E+02</pdfrwt>
<pdfrwt beam="2">  1       -1 0.30892744E-02 0.80287358E+02</pdfrwt>
<totfact> 0.16548481E+05</totfact>
</mgrwt>
</event>
<event>
 8    1  0.1226832E-024  0.7908248E+02  0.7818608E-02  0.1331676E+00
         -1   -1    0    0    0  501 -0.00000000000E+00  0.00000000000E+00  0.71033623920E+01  0.71033641800E+01  0.50400000000E-02 0.  1.
          2   -1    0    0  501    0  0.00000000000E+00 -0.00000000000E+00 -0.22010835782E+03  0.22010835783E+03  0.25500000000E-02 0. -1.
         24    2    1    2    0    0 -0.88817841970E-15  0.00000000000E+00 -0.21300499543E+03  0.22721172201E+03  0.79082479372E+02 0.  0.
         66    2    3    3    0    0 -0.46515960170E+01 -0.15559635669E+02 -0.21007236726E+03  0.21070865928E+03  0.19999999986E+01 0.  0.
        -13    1    3    3    0    0  0.46515960170E+01  0.15559635669E+02 -0.29326281639E+01  0.16503062735E+02  0.10566000000E+00 0.  1.
         13    1    4    4    0    0 -0.20677928731E+01 -0.67868343286E+01 -0.90090345646E+02  0.90369344527E+02  0.10566000000E+00 0. -1.
        -13    1    4    4    0    0 -0.27118915511E+01 -0.83047205372E+01 -0.11582691998E+03  0.11615596969E+03  0.10566000000E+00 0.  1.
         14    1    4    4    0    0  0.12808840720E+00 -0.46808080276E+00 -0.41551016395E+01  0.41833450626E+01  0.00000000000E+00 0. -1.
<mgrwt>
<rscale>  0 0.79082479E+02</rscale>
<asrwt>0</asrwt>
<pdfrwt beam="1">  1        2 0.33862819E-01 0.79082479E+02</pdfrwt>
<pdfrwt beam="2">  1       -1 0.10928253E-02 0.79082479E+02</pdfrwt>
<totfact> 0.23514591E+05</totfact>
</mgrwt>
</event>
<event>
 8    1  0.1226832E-024  0.7998626E+02  0.7818608E-02  0.1329090E+00
         -1   -1    0    0    0  501 -0.00000000000E+00  0.00000000000E+00  0.14643752552E+01  0.14643839284E+01  0.50400000000E-02 0.  1.
          2   -1    0    0  501    0  0.00000000000E+00 -0.00000000000E+00 -0.10922375956E+04  0.10922375956E+04  0.25500000000E-02 0. -1.
         24    2    1    2    0    0  0.00000000000E+00  0.00000000000E+00 -0.10907732204E+04  0.10937019796E+04  0.79986260130E+02 0.  0.
         66    2    3    3    0    0 -0.13385569908E+02  0.19780346773E+02 -0.98392517699E+03  0.98421704389E+03  0.19999910506E+01 0.  0.
        -13    1    3    3    0    0  0.13385569908E+02 -0.19780346773E+02 -0.10684804337E+03  0.10948493566E+03  0.10566000000E+00 0.  1.
         13    1    4    4    0    0 -0.87188705850E+01  0.12728772771E+02 -0.63481547610E+03  0.63500294505E+03  0.10566000000E+00 0. -1.
        -13    1    4    4    0    0 -0.17070864598E+01  0.22506841041E+01 -0.96209641400E+02  0.96251160957E+02  0.10566000000E+00 0. -1.
        -14    1    4    4    0    0 -0.29596128634E+01  0.48008898970E+01 -0.25290005949E+03  0.25296293788E+03  0.00000000000E+00 0.  1.
<mgrwt>
<rscale>  0 0.79986260E+02</rscale>
<asrwt>0</asrwt>
<pdfrwt beam="1">  1        2 0.16803590E+00 0.79986260E+02</pdfrwt>
<pdfrwt beam="2">  1       -1 0.22529004E-03 0.79986260E+02</pdfrwt>
<totfact> 0.35274787E+05</totfact>
</mgrwt>
</event>
<event>
 8    1  0.1226832E-024  0.8292530E+02  0.7818608E-02  0.1320949E+00
         -1   -1    0    0    0  501 -0.00000000000E+00  0.00000000000E+00  0.26072382334E+01  0.26072431048E+01  0.50400000000E-02 0.  1.
          2   -1    0    0  501    0  0.00000000000E+00 -0.00000000000E+00 -0.65937569892E+03  0.65937569892E+03  0.25500000000E-02 0. -1.
         24    2    1    2    0    0  0.00000000000E+00  0.00000000000E+00 -0.65676846069E+03  0.66198294203E+03  0.82925295210E+02 0.  0.
         66    2    3    3    0    0  0.15122920516E+01  0.21425502628E+02 -0.61146706943E+03  0.61184746154E+03  0.20000014250E+01 0.  0.
        -13    1    3    3    0    0 -0.15122920516E+01 -0.21425502628E+02 -0.45301391258E+02  0.50135480491E+02  0.10566000000E+00 0.  1.
         13    1    4    4    0    0  0.71776479802E+00  0.16283353571E+02 -0.47415598586E+03  0.47443605773E+03  0.10566000000E+00 0. -1.
        -13    1    4    4    0    0  0.57776792008E+00  0.37433554356E+01 -0.10744993995E+03  0.10751673025E+03  0.10566000000E+00 0.  1.
         14    1    4    4    0    0  0.21675933347E+00  0.13987936218E+01 -0.29861143622E+02  0.29894673549E+02  0.00000000000E+00 0. -1.
<mgrwt>
<rscale>  0 0.82925295E+02</rscale>
<asrwt>0</asrwt>
<pdfrwt beam="1">  1        2 0.10144228E+00 0.82925295E+02</pdfrwt>
<pdfrwt beam="2">  1       -1 0.40111448E-03 0.82925295E+02</pdfrwt>
<totfact> 0.30030901E+05</totfact>
</mgrwt>
</event>
<event>
 8    1  0.1226832E-024  0.7969655E+02  0.7818608E-02  0.1329915E+00
         -1   -1    0    0    0  501 -0.00000000000E+00  0.00000000000E+00  0.10780287450E+01  0.10780405264E+01  0.50400000000E-02 0.  1.
          2   -1    0    0  501    0  0.00000000000E+00 -0.00000000000E+00 -0.14729442502E+04  0.14729442502E+04  0.25500000000E-02 0. -1.
         24    2    1    2    0    0  0.00000000000E+00  0.00000000000E+00 -0.14718662214E+04  0.14740222907E+04  0.79696547632E+02 0.  0.
         66    2    3    3    0    0  0.12747500805E+02  0.46908303296E+01 -0.14287714074E+04  0.14288373726E+04  0.19999984532E+01 0.  0.
        -13    1    3    3    0    0 -0.12747500805E+02 -0.46908303296E+01 -0.43094813999E+02  0.45184918099E+02  0.10566000000E+00 0.  1.
         13    1    4    4    0    0  0.17770238329E+01  0.38138945979E+00 -0.20924525161E+03  0.20925317144E+03  0.10566000000E+00 0. -1.
        -13    1    4    4    0    0  0.16307105744E+01  0.62134410220E+00 -0.24766100623E+03  0.24766717678E+03  0.10566000000E+00 0.  1.
        -14    1    4    4    0    0  0.93397663977E+01  0.36880967676E+01 -0.97186514958E+03  0.97191702437E+03  0.00000000000E+00 0.  1.
<mgrwt>
<rscale>  0 0.79696548E+02</rscale>
<asrwt>0</asrwt>
<pdfrwt beam="1">  1        2 0.22660520E+00 0.79696548E+02</pdfrwt>
<pdfrwt beam="2">  1       -1 0.16585266E-03 0.79696548E+02</pdfrwt>
<totfact> 0.33804524E+05</totfact>
</mgrwt>
</event>
<event>
 8    1  0.1226832E-024  0.8068061E+02  0.7818608E-02  0.1327131E+00
          2   -1    0    0  501    0  0.00000000000E+00  0.00000000000E+00  0.32151849377E+02  0.32151849478E+02  0.25500000000E-02 0. -1.
         -1   -1    0    0    0  501 -0.00000000000E+00 -0.00000000000E+00 -0.50614198882E+02  0.50614199133E+02  0.50400000000E-02 0.  1.
         24    2    1    2    0    0  0.00000000000E+00  0.00000000000E+00 -0.18462349505E+02  0.82766048611E+02  0.80680607667E+02 0.  0.
         66    2    3    3    0    0  0.11292409979E+02  0.68595222679E+01  0.29836584666E+02  0.32692405096E+02  0.19999993808E+01 0.  0.
        -13    1    3    3    0    0 -0.11292409979E+02 -0.68595222679E+01 -0.48298934171E+02  0.50073643516E+02  0.10566000000E+00 0.  1.
         13    1    4    4    0    0  0.25076129042E+01  0.19589163173E+01  0.72038489874E+01  0.78760446853E+01  0.10566000000E+00 0. -1.
        -13    1    4    4    0    0  0.47200821289E+01  0.33239073722E+01  0.11725129923E+02  0.13069711981E+02  0.10566000000E+00 0.  1.
        -14    1    4    4    0    0  0.40647149458E+01  0.15766985784E+01  0.10907605756E+02  0.11746648430E+02  0.00000000000E+00 0.  1.
<mgrwt>
<rscale>  0 0.80680608E+02</rscale>
<asrwt>0</asrwt>
<pdfrwt beam="1">  1        2 0.49464384E-02 0.80680608E+02</pdfrwt>
<pdfrwt beam="2">  1       -1 0.77867999E-02 0.80680608E+02</pdfrwt>
<totfact> 0.13321785E+05</totfact>
</mgrwt>
</event>
<event>
 8    1  0.1226832E-024  0.7707186E+02  0.7818608E-02  0.1337573E+00
         -1   -1    0    0    0  501 -0.00000000000E+00  0.00000000000E+00  0.59285591605E+01  0.59285613029E+01  0.50400000000E-02 0.  1.
          2   -1    0    0  501    0  0.00000000000E+00 -0.00000000000E+00 -0.25048544053E+03  0.25048544054E+03  0.25500000000E-02 0. -1.
         24    2    1    2    0    0  0.00000000000E+00  0.00000000000E+00 -0.24455688137E+03  0.25641400184E+03  0.77071863331E+02 0.  0.
         66    2    3    3    0    0  0.17107277940E+02  0.10019557680E+02 -0.23219831552E+03  0.23305172866E+03  0.20000010955E+01 0.  0.
        -13    1    3    3    0    0 -0.17107277940E+02 -0.10019557680E+02 -0.12358565845E+02  0.23362273186E+02  0.10566000000E+00 0.  1.
         13    1    4    4    0    0  0.11800577185E+02  0.74935124561E+01 -0.16015473831E+03  0.16076367040E+03  0.10566000000E+00 0. -1.
        -13    1    4    4    0    0  0.51747703008E+01  0.22748365572E+01 -0.68096630061E+02  0.68330925054E+02  0.10566000000E+00 0.  1.
        -14    1    4    4    0    0  0.13193045476E+00  0.25120866700E+00 -0.39469471462E+01  0.39571332065E+01  0.00000000000E+00 0.  1.
<mgrwt>
<rscale>  0 0.77071863E+02</rscale>
<asrwt>0</asrwt>
<pdfrwt beam="1">  1        2 0.38536213E-01 0.77071863E+02</pdfrwt>
<pdfrwt beam="2">  1       -1 0.91208639E-03 0.77071863E+02</pdfrwt>
<totfact> 0.26339952E+05</totfact>
</mgrwt>
</event>
<event>
 8    1  0.1226832E-024  0.7814036E+02  0.7818608E-02  0.1334413E+00
         -1   -1    0    0    0  501 -0.00000000000E+00  0.00000000000E+00  0.49267730694E+02  0.49267730952E+02  0.50400000000E-02 0.  1.
          2   -1    0    0  501    0  0.00000000000E+00 -0.00000000000E+00 -0.30983341797E+02  0.30983341902E+02  0.25500000000E-02 0. -1.
         24    2    1    2    0    0  0.00000000000E+00  0.17763568394E-14  0.18284388898E+02  0.80251072854E+02  0.78140359718E+02 0.  0.
         66    2    3    3    0    0  0.62735550591E+00  0.14964198237E+02 -0.27883452894E+02  0.31714472400E+02  0.20000026264E+01 0.  0.
        -13    1    3    3    0    0 -0.62735550591E+00 -0.14964198237E+02  0.46167841792E+02  0.48536600453E+02  0.10566000000E+00 0.  1.
         13    1    4    4    0    0  0.11390566325E+01  0.11523297884E+02 -0.21395256622E+02  0.24328008840E+02  0.10566000000E+00 0. -1.
        -13    1    4    4    0    0 -0.43887049294E+00  0.20148529040E+01 -0.32942710592E+01  0.38878818631E+01  0.10566000000E+00 0.  1.
         14    1    4    4    0    0 -0.72830633682E-01  0.14260474488E+01 -0.31939252131E+01  0.34985816976E+01  0.00000000000E+00 0. -1.
<mgrwt>
<rscale>  0 0.78140360E+02</rscale>
<asrwt>0</asrwt>
<pdfrwt beam="1">  1        2 0.47666680E-02 0.78140360E+02</pdfrwt>
<pdfrwt beam="2">  1       -1 0.75796509E-02 0.78140360E+02</pdfrwt>
<totfact> 0.14460558E+05</totfact>
</mgrwt>
</event>
<event>
 8    1  0.1226832E-024  0.7944640E+02  0.7818608E-02  0.1330630E+00
          2   -1    0    0  501    0  0.00000000000E+00  0.00000000000E+00  0.25102143616E+02  0.25102143745E+02  0.25500000000E-02 0. -1.
         -1   -1    0    0    0  501 -0.00000000000E+00 -0.00000000000E+00 -0.62860467075E+02  0.62860467277E+02  0.50400000000E-02 0.  1.
         24    2    1    2    0    0 -0.17763568394E-14  0.71054273576E-14 -0.37758323459E+02  0.87962611022E+02  0.79446396692E+02 0.  0.
         66    2    3    3    0    0 -0.95770099854E+01  0.38132715220E+02 -0.12816191555E+02  0.41401423341E+02  0.19999995966E+01 0.  0.
        -13    1    3    3    0    0  0.95770099854E+01 -0.38132715220E+02 -0.24942131904E+02  0.46561187681E+02  0.10566000000E+00 0.  1.
         13    1    4    4    0    0 -0.90886928212E+01  0.35440008743E+02 -0.11895253522E+02  0.38472155870E+02  0.10566000000E+00 0. -1.
        -13    1    4    4    0    0 -0.47582403305E+00  0.22263308380E+01 -0.58081789191E+00  0.23519079425E+01  0.10566000000E+00 0.  1.
         14    1    4    4    0    0 -0.12493131096E-01  0.46637563881E+00 -0.34012014069E+00  0.57735952829E+00  0.00000000000E+00 0. -1.
<mgrwt>
<rscale>  0 0.79446397E+02</rscale>
<asrwt>0</asrwt>
<pdfrwt beam="1">  1        2 0.38618683E-02 0.79446397E+02</pdfrwt>
<pdfrwt beam="2">  1       -1 0.96708411E-02 0.79446397E+02</pdfrwt>
<totfact> 0.13248575E+05</totfact>
</mgrwt>
</event>
<event>
 8    1  0.1226832E-024  0.8430368E+02  0.7818608E-02  0.1317264E+00
          2   -1    0    0  501    0  0.00000000000E+00  0.00000000000E+00  0.13847794065E+02  0.13847794300E+02  0.25500000000E-02 0. -1.
         -1   -1    0    0    0  501 -0.00000000000E+00 -0.00000000000E+00 -0.12830763975E+03  0.12830763985E+03  0.50400000000E-02 0.  1.
         24    2    1    2    0    0  0.00000000000E+00 -0.71054273576E-14 -0.11445984569E+03  0.14215543415E+03  0.84303684285E+02 0.  0.
         66    2    3    3    0    0 -0.22464464774E+02  0.24887195901E+02 -0.14246703065E+02  0.36482780094E+02  0.19999994420E+01 0.  0.
        -13    1    3    3    0    0  0.22464464774E+02 -0.24887195901E+02 -0.10021314262E+03  0.10567265406E+03  0.10566000000E+00 0.  1.
         13    1    4    4    0    0 -0.26006111539E+01  0.33192220728E+01 -0.19361073230E+01  0.46411301580E+01  0.10566000000E+00 0.  1.
        -13    1    4    4    0    0 -0.57096807138E+01  0.52914747517E+01 -0.36391095595E+01  0.85938606762E+01  0.10566000000E+00 0.  1.
         14    1    4    4    0    0 -0.14154172906E+02  0.16276499076E+02 -0.86714861827E+01  0.23247789259E+02  0.00000000000E+00 0. -1.
<mgrwt>
<rscale>  0 0.84303684E+02</rscale>
<asrwt>0</asrwt>
<pdfrwt beam="1">  1        2 0.21304300E-02 0.84303684E+02</pdfrwt>
<pdfrwt beam="2">  1       -1 0.19739636E-01 0.84303684E+02</pdfrwt>
<totfact> 0.98240005E+04</totfact>
</mgrwt>
</event>
<event>
 8    1  0.1226832E-024  0.7918410E+02  0.7818608E-02  0.1331383E+00
          2   -1    0    0  501    0  0.00000000000E+00  0.00000000000E+00  0.98898074492E+01  0.98898077779E+01  0.25500000000E-02 0. -1.
         -1   -1    0    0    0  501 -0.00000000000E+00 -0.00000000000E+00 -0.15849959991E+03  0.15849959999E+03  0.50400000000E-02 0.  1.
         24    2    1    2    0    0  0.00000000000E+00 -0.71054273576E-14 -0.14860979246E+03  0.16838940777E+03  0.79184103412E+02 0.  0.
         66    2    3    3    0    0  0.20583328899E+02  0.33275767226E+02 -0.61847820737E+02  0.73212724624E+02  0.20000009533E+01 0.  0.
        -13    1    3    3    0    0 -0.20583328899E+02 -0.33275767226E+02 -0.86761971723E+02  0.95176683144E+02  0.10566000000E+00 0.  1.
         13    1    4    4    0    0  0.54124047790E+01  0.75437681129E+01 -0.15288262247E+02  0.17886997775E+02  0.10566000000E+00 0. -1.
        -13    1    4    4    0    0  0.92607278280E+01  0.14845388815E+02 -0.27446730579E+02  0.32549667164E+02  0.10566000000E+00 0.  1.
        -14    1    4    4    0    0  0.59101962917E+01  0.10886610297E+02 -0.19112827911E+02  0.22776059684E+02  0.00000000000E+00 0.  1.
<mgrwt>
<rscale>  0 0.79184103E+02</rscale>
<asrwt>0</asrwt>
<pdfrwt beam="1">  1        2 0.15215090E-02 0.79184103E+02</pdfrwt>
<pdfrwt beam="2">  1       -1 0.24384552E-01 0.79184103E+02</pdfrwt>
<totfact> 0.10914076E+05</totfact>
</mgrwt>
</event>
<event>
 8    1  0.1226832E-024  0.7795602E+02  0.7818608E-02  0.1334954E+00
         -1   -1    0    0    0  501 -0.00000000000E+00  0.00000000000E+00  0.20475867293E+01  0.20475929321E+01  0.50400000000E-02 0.  1.
          2   -1    0    0  501    0  0.00000000000E+00 -0.00000000000E+00 -0.74198703084E+03  0.74198703084E+03  0.25500000000E-02 0. -1.
         24    2    1    2    0    0  0.00000000000E+00  0.35527136788E-14 -0.73993944411E+03  0.74403462377E+03  0.77956015979E+02 0.  0.
         66    2    3    3    0    0  0.97839246514E+01  0.24226057582E+02 -0.64595049565E+03  0.64648176301E+03  0.20000055920E+01 0.  0.
        -13    1    3    3    0    0 -0.97839246514E+01 -0.24226057582E+02 -0.93988948456E+02  0.97552860765E+02  0.10566000000E+00 0.  1.
         13    1    4    4    0    0  0.18574260221E+01  0.50063863766E+01 -0.13403824193E+03  0.13414460630E+03  0.10566000000E+00 0. -1.
        -13    1    4    4    0    0  0.95603610249E+00  0.16254903676E+01 -0.37376448508E+02  0.37424140485E+02  0.10566000000E+00 0.  1.
        -14    1    4    4    0    0  0.69704625267E+01  0.17594180837E+02 -0.47453580521E+03  0.47491301622E+03  0.00000000000E+00 0.  1.
<mgrwt>
<rscale>  0 0.77956016E+02</rscale>
<asrwt>0</asrwt>
<pdfrwt beam="1">  1        2 0.11415164E+00 0.77956016E+02</pdfrwt>
<pdfrwt beam="2">  1       -1 0.31501441E-03 0.77956016E+02</pdfrwt>
<totfact> 0.36232329E+05</totfact>
</mgrwt>
</event>
<event>
 8    1  0.1226832E-024  0.8010182E+02  0.7818608E-02  0.1328763E+00
          2   -1    0    0  501    0  0.00000000000E+00  0.00000000000E+00  0.14303325773E+03  0.14303325776E+03  0.25500000000E-02 0. -1.
         -1   -1    0    0    0  501 -0.00000000000E+00 -0.00000000000E+00 -0.11214701980E+02  0.11214703112E+02  0.50400000000E-02 0.  1.
         24    2    1    2    0    0  0.00000000000E+00  0.00000000000E+00  0.13181855575E+03  0.15424796087E+03  0.80101821398E+02 0.  0.
         66    2    3    3    0    0 -0.15449738791E+02 -0.12807475220E+02  0.13263845847E+03  0.13416291034E+03  0.19999991551E+01 0.  0.
        -13    1    3    3    0    0  0.15449738791E+02  0.12807475220E+02 -0.81990271217E+00  0.20085050528E+02  0.10566000000E+00 0.  1.
         13    1    4    4    0    0 -0.13852104695E+02 -0.11676054629E+02  0.12101387632E+03  0.12236249623E+03  0.10566000000E+00 0. -1.
        -13    1    4    4    0    0 -0.68660942964E-01 -0.39288799599E-01  0.12598173612E+01  0.12667129722E+01  0.10566000000E+00 0.  1.
        -14    1    4    4    0    0 -0.15289731527E+01 -0.10921317919E+01  0.10364764784E+02  0.10533701144E+02  0.00000000000E+00 0.  1.
<mgrwt>
<rscale>  0 0.80101821E+02</rscale>
<asrwt>0</asrwt>
<pdfrwt beam="1">  1        2 0.22005115E-01 0.80101821E+02</pdfrwt>
<pdfrwt beam="2">  1       -1 0.17253389E-02 0.80101821E+02</pdfrwt>
<totfact> 0.19661011E+05</totfact>
</mgrwt>
</event>
<event>
 8    1  0.1226832E-024  0.7436431E+02  0.7818608E-02  0.1345851E+00
         -1   -1    0    0    0  501 -0.00000000000E+00  0.00000000000E+00  0.50393209949E+01  0.50393235152E+01  0.50400000000E-02 0.  1.
          2   -1    0    0  501    0  0.00000000000E+00 -0.00000000000E+00 -0.27434495773E+03  0.27434495775E+03  0.25500000000E-02 0. -1.
         24    2    1    2    0    0  0.00000000000E+00  0.00000000000E+00 -0.26930563674E+03  0.27938428126E+03  0.74364310232E+02 0.  0.
         66    2    3    3    0    0  0.32460634628E+02 -0.90257958731E+01 -0.19359777323E+03  0.19651782513E+03  0.20000000354E+01 0.  0.
        -13    1    3    3    0    0 -0.32460634628E+02  0.90257958731E+01 -0.75707863507E+02  0.82866456135E+02  0.10566000000E+00 0.  1.
         13    1    4    4    0    0  0.13486643630E+02 -0.28796612021E+01 -0.80569793811E+02  0.81741573534E+02  0.10566000000E+00 0.  1.
        -13    1    4    4    0    0  0.16865678001E+01 -0.66121123883E+00 -0.95482876423E+01  0.97191909222E+01  0.10566000000E+00 0. -1.
         14    1    4    4    0    0  0.17287423198E+02 -0.54849234322E+01 -0.10347969178E+03  0.10505706067E+03  0.00000000000E+00 0. -1.
<mgrwt>
<rscale>  0 0.74364310E+02</rscale>
<asrwt>0</asrwt>
<pdfrwt beam="1">  1        2 0.42206905E-01 0.74364310E+02</pdfrwt>
<pdfrwt beam="2">  1       -1 0.77528056E-03 0.74364310E+02</pdfrwt>
<totfact> 0.29877012E+05</totfact>
</mgrwt>
</event>
<event>
 8    1  0.1226832E-024  0.8013980E+02  0.7818608E-02  0.1328655E+00
          2   -1    0    0  501    0  0.00000000000E+00  0.00000000000E+00  0.64166375502E+02  0.64166375553E+02  0.25500000000E-02 0. -1.
         -1   -1    0    0    0  501 -0.00000000000E+00 -0.00000000000E+00 -0.25022399214E+02  0.25022399722E+02  0.50400000000E-02 0.  1.
         24    2    1    2    0    0 -0.35527136788E-14  0.00000000000E+00  0.39143976288E+02  0.89188775274E+02  0.80139795079E+02 0.  0.
         66    2    3    3    0    0  0.20333644739E+02 -0.66102448928E+01  0.57266452534E+02  0.61160436843E+02  0.20000007771E+01 0.  0.
        -13    1    3    3    0    0 -0.20333644739E+02  0.66102448928E+01 -0.18122476246E+02  0.28028338432E+02  0.10566000000E+00 0.  1.
         13    1    4    4    0    0  0.13187352047E+01 -0.62365871612E+00  0.52902529383E+01  0.54887114081E+01  0.10566000000E+00 0. -1.
        -13    1    4    4    0    0  0.18043719609E+01 -0.62272195154E+00  0.45765563503E+01  0.49597956476E+01  0.10566000000E+00 0. -1.
         14    1    4    4    0    0  0.17210537573E+02 -0.53638642252E+01  0.47399643245E+02  0.50711929787E+02  0.00000000000E+00 0. -1.
<mgrwt>
<rscale>  0 0.80139795E+02</rscale>
<asrwt>0</asrwt>
<pdfrwt beam="1">  1        2 0.98717499E-02 0.80139795E+02</pdfrwt>
<pdfrwt beam="2">  1       -1 0.38496000E-02 0.80139795E+02</pdfrwt>
<totfact> 0.15737582E+05</totfact>
</mgrwt>
</event>
<event>
 8    1  0.1226832E-024  0.8026685E+02  0.7818608E-02  0.1328296E+00
          2   -1    0    0  501    0  0.00000000000E+00  0.00000000000E+00  0.63635248303E+01  0.63635253412E+01  0.25500000000E-02 0. -1.
         -1   -1    0    0    0  501 -0.00000000000E+00 -0.00000000000E+00 -0.25311312520E+03  0.25311312525E+03  0.50400000000E-02 0.  1.
         24    2    1    2    0    0  0.00000000000E+00  0.00000000000E+00 -0.24674960037E+03  0.25947665059E+03  0.80266848197E+02 0.  0.
         66    2    3    3    0    0 -0.31358063009E+02 -0.10105863067E+02 -0.49506243377E+02  0.59500627965E+02  0.20000027152E+01 0.  0.
        -13    1    3    3    0    0  0.31358063009E+02  0.10105863067E+02 -0.19724335699E+03  0.19997602263E+03  0.10566000000E+00 0.  1.
         13    1    4    4    0    0 -0.25092934199E+02 -0.88143557557E+01 -0.39959062574E+02  0.48000896449E+02  0.10566000000E+00 0. -1.
        -13    1    4    4    0    0 -0.26089909555E+01 -0.72460347591E+00 -0.41325907399E+01  0.49417966634E+01  0.10566000000E+00 0.  1.
         14    1    4    4    0    0 -0.36561378538E+01 -0.56690383511E+00 -0.54145900635E+01  0.65579348518E+01  0.00000000000E+00 0. -1.
<mgrwt>
<rscale>  0 0.80266848E+02</rscale>
<asrwt>0</asrwt>
<pdfrwt beam="1">  1        2 0.97900406E-03 0.80266848E+02</pdfrwt>
<pdfrwt beam="2">  1       -1 0.38940473E-01 0.80266848E+02</pdfrwt>
<totfact> 0.91420802E+04</totfact>
</mgrwt>
</event>
<event>
 8    1  0.1226832E-024  0.8002341E+02  0.7818608E-02  0.1328985E+00
          2   -1    0    0  501    0  0.00000000000E+00  0.00000000000E+00  0.11705805414E+03  0.11705805417E+03  0.25500000000E-02 0. -1.
         -1   -1    0    0    0  501 -0.00000000000E+00 -0.00000000000E+00 -0.13676431956E+02  0.13676432885E+02  0.50400000000E-02 0.  1.
         24    2    1    2    0    0  0.00000000000E+00  0.71054273576E-14  0.10338162218E+03  0.13073448705E+03  0.80023410947E+02 0.  0.
         66    2    3    3    0    0  0.64146030923E+01  0.35834406401E+02  0.78749799574E+02  0.86780082677E+02  0.20000003679E+01 0.  0.
        -13    1    3    3    0    0 -0.64146030923E+01 -0.35834406401E+02  0.24631822609E+02  0.43954404376E+02  0.10566000000E+00 0.  1.
         13    1    4    4    0    0  0.24855685951E+01  0.11988517240E+02  0.26826667194E+02  0.29488706883E+02  0.10566000000E+00 0. -1.
        -13    1    4    4    0    0  0.34297662329E+01  0.22767488698E+02  0.49299031412E+02  0.54410729643E+02  0.10566000000E+00 0.  1.
        -14    1    4    4    0    0  0.49926826435E+00  0.10784004630E+01  0.26241009680E+01  0.28806461512E+01  0.00000000000E+00 0.  1.
<mgrwt>
<rscale>  0 0.80023411E+02</rscale>
<asrwt>0</asrwt>
<pdfrwt beam="1">  1        2 0.18008932E-01 0.80023411E+02</pdfrwt>
<pdfrwt beam="2">  1       -1 0.21040665E-02 0.80023411E+02</pdfrwt>
<totfact> 0.18534461E+05</totfact>
</mgrwt>
</event>
<event>
 8    1  0.1226832E-024  0.8004395E+02  0.7818608E-02  0.1328927E+00
          2   -1    0    0  501    0  0.00000000000E+00  0.00000000000E+00  0.72765898976E+02  0.72765899021E+02  0.25500000000E-02 0. -1.
         -1   -1    0    0    0  501 -0.00000000000E+00 -0.00000000000E+00 -0.22012486777E+02  0.22012487354E+02  0.50400000000E-02 0.  1.
         24    2    1    2    0    0 -0.17763568394E-14 -0.35527136788E-14  0.50753412200E+02  0.94778386375E+02  0.80043948390E+02 0.  0.
         66    2    3    3    0    0 -0.11156020128E+02 -0.28147786348E+02  0.56337525472E+02  0.63989619812E+02  0.20000015084E+01 0.  0.
        -13    1    3    3    0    0  0.11156020128E+02  0.28147786348E+02 -0.55841132719E+01  0.30788766563E+02  0.10566000000E+00 0.  1.
         13    1    4    4    0    0 -0.27232975875E+01 -0.69104797392E+01  0.13319898205E+02  0.15251292804E+02  0.10566000000E+00 0. -1.
        -13    1    4    4    0    0 -0.80253949810E+01 -0.19964944964E+02  0.39594772013E+02  0.45063989247E+02  0.10566000000E+00 0.  1.
        -14    1    4    4    0    0 -0.40732755989E+00 -0.12723616445E+01  0.34228552533E+01  0.36743377608E+01  0.00000000000E+00 0.  1.
<mgrwt>
<rscale>  0 0.80043948E+02</rscale>
<asrwt>0</asrwt>
<pdfrwt beam="1">  1        2 0.11194754E-01 0.80043948E+02</pdfrwt>
<pdfrwt beam="2">  1       -1 0.33865365E-02 0.80043948E+02</pdfrwt>
<totfact> 0.16276973E+05</totfact>
</mgrwt>
</event>
<event>
 8    1  0.1226832E-024  0.7933940E+02  0.7818608E-02  0.1330937E+00
         -1   -1    0    0    0  501 -0.00000000000E+00  0.00000000000E+00  0.84355751106E+01  0.84355766163E+01  0.50400000000E-02 0.  1.
          2   -1    0    0  501    0  0.00000000000E+00 -0.00000000000E+00 -0.18655335588E+03  0.18655335590E+03  0.25500000000E-02 0. -1.
         24    2    1    2    0    0 -0.35527136788E-14 -0.35527136788E-14 -0.17811778077E+03  0.19498893252E+03  0.79339397381E+02 0.  0.
         66    2    3    3    0    0  0.16826159401E+02  0.30817598261E+02 -0.13435462369E+03  0.13888127631E+03  0.20000002564E+01 0.  0.
        -13    1    3    3    0    0 -0.16826159401E+02 -0.30817598261E+02 -0.43763157087E+02  0.56107656207E+02  0.10566000000E+00 0.  1.
         13    1    4    4    0    0  0.13942034872E+00  0.16290272073E+00 -0.12810110506E+01  0.13031226640E+01  0.10566000000E+00 0. -1.
        -13    1    4    4    0    0  0.26080845617E+01  0.53216416365E+01 -0.21584586385E+02  0.22383643766E+02  0.10566000000E+00 0.  1.
         14    1    4    4    0    0  0.14078654491E+02  0.25333053904E+02 -0.11148902625E+03  0.11519450988E+03  0.00000000000E+00 0. -1.
<mgrwt>
<rscale>  0 0.79339397E+02</rscale>
<asrwt>0</asrwt>
<pdfrwt beam="1">  1        2 0.28700513E-01 0.79339397E+02</pdfrwt>
<pdfrwt beam="2">  1       -1 0.12977811E-02 0.79339397E+02</pdfrwt>
<totfact> 0.22012171E+05</totfact>
</mgrwt>
</event>
<event>
 8    1  0.1226832E-024  0.8063072E+02  0.7818608E-02  0.1327271E+00
         -1   -1    0    0    0  501 -0.00000000000E+00  0.00000000000E+00  0.62742244830E+01  0.62742265073E+01  0.50400000000E-02 0.  1.
          2   -1    0    0  501    0  0.00000000000E+00 -0.00000000000E+00 -0.25904841392E+03  0.25904841393E+03  0.25500000000E-02 0. -1.
         24    2    1    2    0    0  0.00000000000E+00  0.00000000000E+00 -0.25277418944E+03  0.26532264044E+03  0.80630717996E+02 0.  0.
         66    2    3    3    0    0  0.20145832748E+02  0.33137369817E+02 -0.16241851087E+03  0.16699614519E+03  0.19999945880E+01 0.  0.
        -13    1    3    3    0    0 -0.20145832748E+02 -0.33137369817E+02 -0.90355678567E+02  0.98326495253E+02  0.10566000000E+00 0.  1.
         13    1    4    4    0    0  0.10820864431E+02  0.18595139810E+02 -0.89874351521E+02  0.92413638371E+02  0.10566000000E+00 0. -1.
        -13    1    4    4    0    0  0.55960849844E+01  0.86748814777E+01 -0.45853627847E+02  0.47001447707E+02  0.10566000000E+00 0.  1.
        -14    1    4    4    0    0  0.37288833329E+01  0.58673485292E+01 -0.26690531504E+02  0.27581059110E+02  0.00000000000E+00 0.  1.
<mgrwt>
<rscale>  0 0.80630718E+02</rscale>
<asrwt>0</asrwt>
<pdfrwt beam="1">  1        2 0.39853594E-01 0.80630718E+02</pdfrwt>
<pdfrwt beam="2">  1       -1 0.96526566E-03 0.80630718E+02</pdfrwt>
<totfact> 0.23681310E+05</totfact>
</mgrwt>
</event>
<event>
 8    1  0.1226832E-024  0.7933662E+02  0.7818608E-02  0.1330945E+00
          2   -1    0    0  501    0  0.00000000000E+00  0.00000000000E+00  0.34496115198E+03  0.34496115199E+03  0.25500000000E-02 0. -1.
         -1   -1    0    0    0  501 -0.00000000000E+00 -0.00000000000E+00 -0.45615992120E+01  0.45616019963E+01  0.50400000000E-02 0.  1.
         24    2    1    2    0    0  0.00000000000E+00  0.35527136788E-14  0.34039955277E+03  0.34952275399E+03  0.79336624765E+02 0.  0.
         66    2    3    3    0    0 -0.27080062547E+02 -0.22917571069E+02  0.24825319640E+03  0.25078316210E+03  0.20000037626E+01 0.  0.
        -13    1    3    3    0    0  0.27080062547E+02  0.22917571069E+02  0.92146356363E+02  0.98739591888E+02  0.10566000000E+00 0.  1.
         13    1    4    4    0    0 -0.57588539424E+01 -0.46294411767E+01  0.48269799091E+02  0.48832169650E+02  0.10566000000E+00 0. -1.
        -13    1    4    4    0    0 -0.10363506215E+02 -0.87161315751E+01  0.10109392725E+03  0.10199689457E+03  0.10566000000E+00 0.  1.
        -14    1    4    4    0    0 -0.10957702389E+02 -0.95719983173E+01  0.98889470058E+02  0.99954097874E+02  0.00000000000E+00 0.  1.
<mgrwt>
<rscale>  0 0.79336625E+02</rscale>
<asrwt>0</asrwt>
<pdfrwt beam="1">  1        2 0.53070938E-01 0.79336625E+02</pdfrwt>
<pdfrwt beam="2">  1       -1 0.70178483E-03 0.79336625E+02</pdfrwt>
<totfact> 0.27400648E+05</totfact>
</mgrwt>
</event>
<event>
 8    1  0.1226832E-024  0.7817787E+02  0.7818608E-02  0.1334303E+00
          2   -1    0    0  501    0  0.00000000000E+00  0.00000000000E+00  0.56610319409E+02  0.56610319466E+02  0.25500000000E-02 0. -1.
         -1   -1    0    0    0  501 -0.00000000000E+00 -0.00000000000E+00 -0.26990573119E+02  0.26990573589E+02  0.50400000000E-02 0.  1.
         24    2    1    2    0    0  0.17763568394E-14  0.00000000000E+00  0.29619746290E+02  0.83600893056E+02  0.78177873784E+02 0.  0.
         66    2    3    3    0    0 -0.10248354464E+02 -0.10099256956E+02  0.53655644881E+02  0.55587336599E+02  0.20000005602E+01 0.  0.
        -13    1    3    3    0    0  0.10248354464E+02  0.10099256956E+02 -0.24035898591E+02  0.28013556457E+02  0.10566000000E+00 0.  1.
         13    1    4    4    0    0 -0.51299133977E+01 -0.49144154059E+01  0.28204128449E+02  0.29085245673E+02  0.10566000000E+00 0. -1.
        -13    1    4    4    0    0 -0.36645529399E+01 -0.34995793633E+01  0.15615743140E+02  0.16417630822E+02  0.10566000000E+00 0.  1.
        -14    1    4    4    0    0 -0.14538881260E+01 -0.16852621863E+01  0.98357732926E+01  0.10084460104E+02  0.00000000000E+00 0.  1.
<mgrwt>
<rscale>  0 0.78177874E+02</rscale>
<asrwt>0</asrwt>
<pdfrwt beam="1">  1        2 0.87092798E-02 0.78177874E+02</pdfrwt>
<pdfrwt beam="2">  1       -1 0.41523960E-02 0.78177874E+02</pdfrwt>
<totfact> 0.16354808E+05</totfact>
</mgrwt>
</event>
<event>
 8    1  0.1226832E-024  0.8054480E+02  0.7818608E-02  0.1327512E+00
         -1   -1    0    0    0  501 -0.00000000000E+00  0.00000000000E+00  0.20604794835E+01  0.20604856475E+01  0.50400000000E-02 0.  1.
          2   -1    0    0  501    0  0.00000000000E+00 -0.00000000000E+00 -0.78712934009E+03  0.78712934009E+03  0.25500000000E-02 0. -1.
         24    2    1    2    0    0  0.00000000000E+00  0.88817841970E-15 -0.78506886060E+03  0.78918982574E+03  0.80544802191E+02 0.  0.
         66    2    3    3    0    0 -0.72916705267E+01 -0.74794808921E+01 -0.77361379593E+03  0.77368689814E+03  0.20000003874E+01 0.  0.
        -13    1    3    3    0    0  0.72916705267E+01  0.74794808921E+01 -0.11455064669E+02  0.15502927597E+02  0.10566000000E+00 0.  1.
         13    1    4    4    0    0 -0.19616593214E+01 -0.22496863017E+01 -0.24293730700E+03  0.24295566569E+03  0.10566000000E+00 0. -1.
        -13    1    4    4    0    0 -0.36119413493E+01 -0.44499776993E+01 -0.39211080530E+03  0.39215270395E+03  0.10566000000E+00 0.  1.
        -14    1    4    4    0    0 -0.17180698560E+01 -0.77981689118E+00 -0.13856568364E+03  0.13857852850E+03  0.00000000000E+00 0.  1.
<mgrwt>
<rscale>  0 0.80544802E+02</rscale>
<asrwt>0</asrwt>
<pdfrwt beam="1">  1        2 0.12109658E+00 0.80544802E+02</pdfrwt>
<pdfrwt beam="2">  1       -1 0.31699795E-03 0.80544802E+02</pdfrwt>
<totfact> 0.33668422E+05</totfact>
</mgrwt>
</event>
<event>
 8    1  0.1226832E-024  0.7955713E+02  0.7818608E-02  0.1330313E+00
         -1   -1    0    0    0  501 -0.00000000000E+00  0.00000000000E+00  0.20646401328E+02  0.20646401943E+02  0.50400000000E-02 0.  1.
          2   -1    0    0  501    0  0.00000000000E+00 -0.00000000000E+00 -0.76639711563E+02  0.76639711605E+02  0.25500000000E-02 0. -1.
         24    2    1    2    0    0  0.35527136788E-14  0.00000000000E+00 -0.55993310235E+02  0.97286113548E+02  0.79557131034E+02 0.  0.
         66    2    3    3    0    0 -0.24223324044E+02 -0.27826783663E+01 -0.66408868588E+02  0.70771820300E+02  0.19999986882E+01 0.  0.
        -13    1    3    3    0    0  0.24223324044E+02  0.27826783663E+01  0.10415558353E+02  0.26514293249E+02  0.10566000000E+00 0.  1.
         13    1    4    4    0    0 -0.78571619730E+01 -0.17845837721E+01 -0.21182198383E+02  0.22663107154E+02  0.10566000000E+00 0. -1.
        -13    1    4    4    0    0 -0.76727946125E+01 -0.40150837464E+00 -0.20713510027E+02  0.22092841552E+02  0.10566000000E+00 0.  1.
         14    1    4    4    0    0 -0.86933674589E+01 -0.59658621957E+00 -0.24513160178E+02  0.26015871594E+02  0.00000000000E+00 0. -1.
<mgrwt>
<rscale>  0 0.79557131E+02</rscale>
<asrwt>0</asrwt>
<pdfrwt beam="1">  1        2 0.11790725E-01 0.79557131E+02</pdfrwt>
<pdfrwt beam="2">  1       -1 0.31763695E-02 0.79557131E+02</pdfrwt>
<totfact> 0.16763345E+05</totfact>
</mgrwt>
</event>
<event>
 8    1  0.1226832E-024  0.7918306E+02  0.7818608E-02  0.1331386E+00
          2   -1    0    0  501    0  0.00000000000E+00  0.00000000000E+00  0.95647856434E+02  0.95647856468E+02  0.25500000000E-02 0. -1.
         -1   -1    0    0    0  501 -0.00000000000E+00 -0.00000000000E+00 -0.16388125017E+02  0.16388125792E+02  0.50400000000E-02 0.  1.
         24    2    1    2    0    0  0.71054273576E-14  0.00000000000E+00  0.79259731418E+02  0.11203598226E+03  0.79183055615E+02 0.  0.
         66    2    3    3    0    0 -0.36201176646E+02  0.15870299503E+02  0.37166895857E+02  0.54293367438E+02  0.20000008141E+01 0.  0.
        -13    1    3    3    0    0  0.36201176646E+02 -0.15870299503E+02  0.42092835561E+02  0.57742614822E+02  0.10566000000E+00 0.  1.
         13    1    4    4    0    0 -0.11175741210E+02  0.56759929656E+01  0.12494035617E+02  0.17698197020E+02  0.10566000000E+00 0. -1.
        -13    1    4    4    0    0 -0.60388022861E+01  0.24868973292E+01  0.56994430713E+01  0.86687142492E+01  0.10566000000E+00 0.  1.
         14    1    4    4    0    0 -0.18986633150E+02  0.77074092085E+01  0.18973417169E+02  0.27926456169E+02  0.00000000000E+00 0. -1.
<mgrwt>
<rscale>  0 0.79183056E+02</rscale>
<asrwt>0</asrwt>
<pdfrwt beam="1">  1        2 0.14715054E-01 0.79183056E+02</pdfrwt>
<pdfrwt beam="2">  1       -1 0.25212501E-02 0.79183056E+02</pdfrwt>
<totfact> 0.17996638E+05</totfact>
</mgrwt>
</event>
<event>
 8    1  0.1226832E-024  0.7798622E+02  0.7818608E-02  0.1334865E+00
          2   -1    0    0  501    0  0.00000000000E+00  0.00000000000E+00  0.94236193101E+02  0.94236193135E+02  0.25500000000E-02 0. -1.
         -1   -1    0    0    0  501 -0.00000000000E+00 -0.00000000000E+00 -0.16134594073E+02  0.16134594860E+02  0.50400000000E-02 0.  1.
         24    2    1    2    0    0  0.00000000000E+00  0.00000000000E+00  0.78101599028E+02  0.11037078799E+03  0.77986223603E+02 0.  0.
         66    2    3    3    0    0 -0.30325637158E+02 -0.16085299374E+02  0.12977361317E+02  0.36753136399E+02  0.20000008676E+01 0.  0.
        -13    1    3    3    0    0  0.30325637158E+02  0.16085299374E+02  0.65124237711E+02  0.73617651595E+02  0.10566000000E+00 0.  1.
         13    1    4    4    0    0 -0.19752611956E+02 -0.11091138069E+02  0.79772511981E+01  0.24017217230E+02  0.10566000000E+00 0. -1.
        -13    1    4    4    0    0 -0.91799714278E+01 -0.44573684521E+01  0.41419013024E+01  0.11013923886E+02  0.10566000000E+00 0. -1.
         14    1    4    4    0    0 -0.13930537738E+01 -0.53679285275E+00  0.85820881648E+00  0.17219952834E+01  0.00000000000E+00 0. -1.
<mgrwt>
<rscale>  0 0.77986224E+02</rscale>
<asrwt>0</asrwt>
<pdfrwt beam="1">  1        2 0.14497876E-01 0.77986224E+02</pdfrwt>
<pdfrwt beam="2">  1       -1 0.24822453E-02 0.77986224E+02</pdfrwt>
<totfact> 0.18669487E+05</totfact>
</mgrwt>
</event>
<event>
 8    1  0.1226832E-024  0.7024401E+02  0.7818608E-02  0.1359265E+00
          2   -1    0    0  501    0  0.00000000000E+00  0.00000000000E+00  0.32019925047E+03  0.32019925048E+03  0.25500000000E-02 0. -1.
         -1   -1    0    0    0  501 -0.00000000000E+00 -0.00000000000E+00 -0.38524598969E+01  0.38524631937E+01  0.50400000000E-02 0.  1.
         24    2    1    2    0    0  0.88817841970E-15  0.35527136788E-14  0.31634679057E+03  0.32405171367E+03  0.70244012051E+02 0.  0.
         66    2    3    3    0    0  0.75912703327E+01  0.27160992238E+02  0.25465080620E+03  0.25621549520E+03  0.19999998109E+01 0.  0.
        -13    1    3    3    0    0 -0.75912703327E+01 -0.27160992238E+02  0.61695984372E+02  0.67836218469E+02  0.10566000000E+00 0.  1.
         13    1    4    4    0    0  0.33977449441E+01  0.95113002521E+01  0.86077935013E+02  0.86668515410E+02  0.10566000000E+00 0. -1.
        -13    1    4    4    0    0  0.23583977346E+01  0.89700753460E+01  0.87216455731E+02  0.87708298387E+02  0.10566000000E+00 0.  1.
         14    1    4    4    0    0  0.18351276540E+01  0.86796166394E+01  0.81356415452E+02  0.81838681403E+02  0.00000000000E+00 0. -1.
<mgrwt>
<rscale>  0 0.70244012E+02</rscale>
<asrwt>0</asrwt>
<pdfrwt beam="1">  1        2 0.49261404E-01 0.70244012E+02</pdfrwt>
<pdfrwt beam="2">  1       -1 0.59268663E-03 0.70244012E+02</pdfrwt>
<totfact> 0.36607095E+05</totfact>
</mgrwt>
</event>
<event>
 8    1  0.1226832E-024  0.8174513E+02  0.7818608E-02  0.1324171E+00
         -1   -1    0    0    0  501 -0.00000000000E+00  0.00000000000E+00  0.97570172490E+00  0.97571474190E+00  0.50400000000E-02 0.  1.
          2   -1    0    0  501    0  0.00000000000E+00 -0.00000000000E+00 -0.17121576967E+04  0.17121576967E+04  0.25500000000E-02 0. -1.
         24    2    1    2    0    0  0.00000000000E+00  0.88817841970E-15 -0.17111819950E+04  0.17131334115E+04  0.81745125104E+02 0.  0.
         66    2    3    3    0    0  0.19513352944E+02 -0.60636593781E+01 -0.15973468980E+04  0.15974788423E+04  0.19999939779E+01 0.  0.
        -13    1    3    3    0    0 -0.19513352944E+02  0.60636593781E+01 -0.11383509697E+03  0.11565456918E+03  0.10566000000E+00 0.  1.
         13    1    4    4    0    0  0.17631740623E+01  0.33668319258E-02 -0.13769428308E+03  0.13770561191E+03  0.10566000000E+00 0. -1.
        -13    1    4    4    0    0  0.25545815239E+01 -0.97311439487E+00 -0.22173149859E+03  0.22174837422E+03  0.10566000000E+00 0.  1.
         14    1    4    4    0    0  0.15195597357E+02 -0.50939118151E+01 -0.12379211164E+04  0.12380248562E+04  0.00000000000E+00 0. -1.
<mgrwt>
<rscale>  0 0.81745125E+02</rscale>
<asrwt>0</asrwt>
<pdfrwt beam="1">  1        2 0.26340647E+00 0.81745125E+02</pdfrwt>
<pdfrwt beam="2">  1       -1 0.15011033E-03 0.81745125E+02</pdfrwt>
<totfact> 0.29498069E+05</totfact>
</mgrwt>
</event>
<event>
 8    1  0.1226832E-024  0.8147107E+02  0.7818608E-02  0.1324928E+00
          2   -1    0    0  501    0  0.00000000000E+00  0.00000000000E+00  0.13663964856E+03  0.13663964858E+03  0.25500000000E-02 0. -1.
         -1   -1    0    0    0  501 -0.00000000000E+00 -0.00000000000E+00 -0.12144234367E+02  0.12144235413E+02  0.50400000000E-02 0.  1.
         24    2    1    2    0    0  0.71054273576E-14  0.17763568394E-14  0.12449541419E+03  0.14878388399E+03  0.81471074511E+02 0.  0.
         66    2    3    3    0    0 -0.39669113933E+02 -0.84319462412E+01  0.68778519335E+02  0.79870025780E+02  0.19999945948E+01 0.  0.
        -13    1    3    3    0    0  0.39669113933E+02  0.84319462412E+01  0.55716894855E+02  0.68913858215E+02  0.10566000000E+00 0.  1.
         13    1    4    4    0    0 -0.28330514248E+02 -0.64778350856E+01  0.48596280134E+02  0.56623228377E+02  0.10566000000E+00 0. -1.
        -13    1    4    4    0    0 -0.71278926217E+01 -0.10602346967E+01  0.13362820327E+02  0.15182459681E+02  0.10566000000E+00 0.  1.
        -14    1    4    4    0    0 -0.42107070640E+01 -0.89387645890E+00  0.68194188754E+01  0.80643377224E+01  0.00000000000E+00 0.  1.
<mgrwt>
<rscale>  0 0.81471075E+02</rscale>
<asrwt>0</asrwt>
<pdfrwt beam="1">  1        2 0.21021485E-01 0.81471075E+02</pdfrwt>
<pdfrwt beam="2">  1       -1 0.18683438E-02 0.81471075E+02</pdfrwt>
<totfact> 0.18524599E+05</totfact>
</mgrwt>
</event>
<event>
 8    1  0.1226832E-024  0.7612500E+02  0.7818608E-02  0.1340422E+00
          2   -1    0    0  501    0  0.00000000000E+00  0.00000000000E+00  0.18304721350E+03  0.18304721352E+03  0.25500000000E-02 0. -1.
         -1   -1    0    0    0  501 -0.00000000000E+00 -0.00000000000E+00 -0.79146458197E+01  0.79146474244E+01  0.50400000000E-02 0.  1.
         24    2    1    2    0    0  0.11102230246E-15  0.00000000000E+00  0.17513256768E+03  0.19096186094E+03  0.76125002937E+02 0.  0.
         66    2    3    3    0    0 -0.66044195885E+00 -0.13266712858E+02  0.17703400739E+03  0.17754290082E+03  0.20000011139E+01 0.  0.
        -13    1    3    3    0    0  0.66044195885E+00  0.13266712858E+02 -0.19014397159E+01  0.13418960119E+02  0.10566000000E+00 0.  1.
         13    1    4    4    0    0 -0.81054642305E+00 -0.69935091495E+01  0.98034343995E+02  0.98286875636E+02  0.10566000000E+00 0. -1.
        -13    1    4    4    0    0  0.30380376271E+00 -0.47064704648E+01  0.53382904643E+02  0.53590939842E+02  0.10566000000E+00 0.  1.
         14    1    4    4    0    0 -0.15369929852E+00 -0.15667332436E+01  0.25616758756E+02  0.25665085344E+02  0.00000000000E+00 0. -1.
<mgrwt>
<rscale>  0 0.76125003E+02</rscale>
<asrwt>0</asrwt>
<pdfrwt beam="1">  1        2 0.28161110E-01 0.76125003E+02</pdfrwt>
<pdfrwt beam="2">  1       -1 0.12176379E-02 0.76125003E+02</pdfrwt>
<totfact> 0.24388073E+05</totfact>
</mgrwt>
</event>
<event>
 8    1  0.1226832E-024  0.8015222E+02  0.7818608E-02  0.1328620E+00
         -1   -1    0    0    0  501 -0.00000000000E+00  0.00000000000E+00  0.34864983315E+02  0.34864983679E+02  0.50400000000E-02 0.  1.
          2   -1    0    0  501    0  0.00000000000E+00 -0.00000000000E+00 -0.46066120781E+02  0.46066120852E+02  0.25500000000E-02 0. -1.
         24    2    1    2    0    0  0.71054273576E-14  0.44408920985E-15 -0.11201137466E+02  0.80931104531E+02  0.80152218934E+02 0.  0.
         66    2    3    3    0    0 -0.34620492066E+02  0.27185163921E+01 -0.25750905042E+02  0.43279070020E+02  0.19999972699E+01 0.  0.
        -13    1    3    3    0    0  0.34620492066E+02 -0.27185163921E+01  0.14549767575E+02  0.37652034511E+02  0.10566000000E+00 0.  1.
         13    1    4    4    0    0 -0.19725668603E+01  0.15762382914E-01 -0.10632421766E+01  0.22434162415E+01  0.10566000000E+00 0. -1.
        -13    1    4    4    0    0 -0.10898831667E+01  0.23446023589E+00 -0.72331074770E+00  0.13331014187E+01  0.10566000000E+00 0.  1.
         14    1    4    4    0    0 -0.31558042039E+02  0.24682937733E+01 -0.23964352118E+02  0.39702552360E+02  0.00000000000E+00 0. -1.
<mgrwt>
<rscale>  0 0.80152219E+02</rscale>
<asrwt>0</asrwt>
<pdfrwt beam="1">  1        2 0.70870955E-02 0.80152219E+02</pdfrwt>
<pdfrwt beam="2">  1       -1 0.53638436E-02 0.80152219E+02</pdfrwt>
<totfact> 0.14605412E+05</totfact>
</mgrwt>
</event>
<event>
 8    1  0.1226832E-024  0.7967926E+02  0.7818608E-02  0.1329964E+00
          2   -1    0    0  501    0  0.00000000000E+00  0.00000000000E+00  0.96332524072E+01  0.96332527447E+01  0.25500000000E-02 0. -1.
         -1   -1    0    0    0  501 -0.00000000000E+00 -0.00000000000E+00 -0.16476222166E+03  0.16476222173E+03  0.50400000000E-02 0.  1.
         24    2    1    2    0    0  0.00000000000E+00  0.00000000000E+00 -0.15512896925E+03  0.17439547448E+03  0.79679259649E+02 0.  0.
         66    2    3    3    0    0 -0.33557410946E+02 -0.20994201366E+02 -0.68241301226E+02  0.78915977523E+02  0.19999987428E+01 0.  0.
        -13    1    3    3    0    0  0.33557410946E+02  0.20994201366E+02 -0.86887668023E+02  0.95479496956E+02  0.10566000000E+00 0.  1.
         13    1    4    4    0    0 -0.52383973418E+01 -0.36370361094E+01 -0.11739648363E+02  0.13360364744E+02  0.10566000000E+00 0. -1.
        -13    1    4    4    0    0 -0.21096615923E+02 -0.13085201016E+02 -0.43341914348E+02  0.49948197089E+02  0.10566000000E+00 0.  1.
        -14    1    4    4    0    0 -0.72223976807E+01 -0.42719642401E+01 -0.13159738515E+02  0.15607415689E+02  0.00000000000E+00 0.  1.
<mgrwt>
<rscale>  0 0.79679260E+02</rscale>
<asrwt>0</asrwt>
<pdfrwt beam="1">  1        2 0.14820390E-02 0.79679260E+02</pdfrwt>
<pdfrwt beam="2">  1       -1 0.25348032E-01 0.79679260E+02</pdfrwt>
<totfact> 0.10633424E+05</totfact>
</mgrwt>
</event>
<event>
 8    1  0.1226832E-024  0.7937142E+02  0.7818608E-02  0.1330845E+00
         -1   -1    0    0    0  501 -0.00000000000E+00  0.00000000000E+00  0.16834095970E+01  0.16834171417E+01  0.50400000000E-02 0.  1.
          2   -1    0    0  501    0  0.00000000000E+00 -0.00000000000E+00 -0.93557274511E+03  0.93557274512E+03  0.25500000000E-02 0. -1.
         24    2    1    2    0    0  0.00000000000E+00  0.00000000000E+00 -0.93388933552E+03  0.93725616226E+03  0.79371422441E+02 0.  0.
         66    2    3    3    0    0  0.24842085397E+02  0.14369029928E+02 -0.79048934379E+03  0.79101264268E+03  0.20000009294E+01 0.  0.
        -13    1    3    3    0    0 -0.24842085397E+02 -0.14369029928E+02 -0.14339999172E+03  0.14624351958E+03  0.10566000000E+00 0.  1.
         13    1    4    4    0    0  0.15917414658E+02  0.96015339592E+01 -0.52204537822E+03  0.52237624527E+03  0.10566000000E+00 0. -1.
        -13    1    4    4    0    0  0.29984648932E+00  0.35912984495E+00 -0.12159518229E+02  0.12168974064E+02  0.10566000000E+00 0.  1.
        -14    1    4    4    0    0  0.86248242503E+01  0.44083661241E+01 -0.25628444735E+03  0.25646742335E+03  0.00000000000E+00 0.  1.
<mgrwt>
<rscale>  0 0.79371422E+02</rscale>
<asrwt>0</asrwt>
<pdfrwt beam="1">  1        2 0.14393385E+00 0.79371422E+02</pdfrwt>
<pdfrwt beam="2">  1       -1 0.25898742E-03 0.79371422E+02</pdfrwt>
<totfact> 0.35805619E+05</totfact>
</mgrwt>
</event>
<event>
 8    1  0.1226832E-024  0.7979683E+02  0.7818608E-02  0.1329629E+00
          2   -1    0    0  501    0  0.00000000000E+00  0.00000000000E+00  0.10153771316E+04  0.10153771316E+04  0.25500000000E-02 0. -1.
         -1   -1    0    0    0  501 -0.00000000000E+00 -0.00000000000E+00 -0.15677714054E+01  0.15677795066E+01  0.50400000000E-02 0.  1.
         24    2    1    2    0    0  0.00000000000E+00 -0.35527136788E-14  0.10138093602E+04  0.10169449111E+04  0.79796825839E+02 0.  0.
         66    2    3    3    0    0  0.11548683028E+01 -0.27192194069E+02  0.87858529224E+03  0.87900902435E+03  0.20000006561E+01 0.  0.
        -13    1    3    3    0    0 -0.11548683028E+01  0.27192194069E+02  0.13522406797E+03  0.13793588678E+03  0.10566000000E+00 0.  1.
         13    1    4    4    0    0  0.13036083193E+01 -0.10773365933E+02  0.33530056798E+03  0.33547614947E+03  0.10566000000E+00 0. -1.
        -13    1    4    4    0    0 -0.13597401621E+00 -0.96329085226E+01  0.31457932836E+03  0.31472682823E+03  0.10566000000E+00 0.  1.
         14    1    4    4    0    0 -0.12766000313E-01 -0.67859196135E+01  0.22870539590E+03  0.22880604664E+03  0.00000000000E+00 0. -1.
<mgrwt>
<rscale>  0 0.79796826E+02</rscale>
<asrwt>0</asrwt>
<pdfrwt beam="1">  1        2 0.15621120E+00 0.79796826E+02</pdfrwt>
<pdfrwt beam="2">  1       -1 0.24119726E-03 0.79796826E+02</pdfrwt>
<totfact> 0.35484220E+05</totfact>
</mgrwt>
</event>
<event>
 8    1  0.1226832E-024  0.7813157E+02  0.7818608E-02  0.1334439E+00
         -1   -1    0    0    0  501 -0.00000000000E+00  0.00000000000E+00  0.37007267619E+01  0.37007301938E+01  0.50400000000E-02 0.  1.
          2   -1    0    0  501    0  0.00000000000E+00 -0.00000000000E+00 -0.41238784378E+03  0.41238784379E+03  0.25500000000E-02 0. -1.
         24    2    1    2    0    0 -0.35527136788E-14 -0.71054273576E-14 -0.40868711702E+03  0.41608857398E+03  0.78131567126E+02 0.  0.
         66    2    3    3    0    0 -0.15614250108E+02 -0.34355706764E+02 -0.25773490270E+03  0.26049068979E+03  0.20000008251E+01 0.  0.
        -13    1    3    3    0    0  0.15614250108E+02  0.34355706764E+02 -0.15095221432E+03  0.15559788420E+03  0.10566000000E+00 0.  1.
         13    1    4    4    0    0 -0.24562140888E+00 -0.80913200017E+00 -0.69390376447E+01  0.69911681385E+01  0.10566000000E+00 0. -1.
        -13    1    4    4    0    0 -0.65943604308E+01 -0.15268438297E+02 -0.11694700500E+03  0.11812376535E+03  0.10566000000E+00 0.  1.
         14    1    4    4    0    0 -0.87742682683E+01 -0.18278136467E+02 -0.13384886005E+03  0.13537575630E+03  0.00000000000E+00 0. -1.
<mgrwt>
<rscale>  0 0.78131567E+02</rscale>
<asrwt>0</asrwt>
<pdfrwt beam="1">  1        2 0.63444247E-01 0.78131567E+02</pdfrwt>
<pdfrwt beam="2">  1       -1 0.56934317E-03 0.78131567E+02</pdfrwt>
<totfact> 0.30370620E+05</totfact>
</mgrwt>
</event>
<event>
 8    1  0.1226832E-024  0.7985433E+02  0.7818608E-02  0.1329465E+00
          2   -1    0    0  501    0  0.00000000000E+00  0.00000000000E+00  0.54821016176E+03  0.54821016176E+03  0.25500000000E-02 0. -1.
         -1   -1    0    0    0  501 -0.00000000000E+00 -0.00000000000E+00 -0.29079674122E+01  0.29079717798E+01  0.50400000000E-02 0.  1.
         24    2    1    2    0    0 -0.71054273576E-14  0.88817841970E-15  0.54530219434E+03  0.55111813354E+03  0.79854329641E+02 0.  0.
         66    2    3    3    0    0  0.35748927952E+02 -0.54210362792E+01  0.38929223659E+03  0.39097291330E+03  0.19999951426E+01 0.  0.
        -13    1    3    3    0    0 -0.35748927952E+02  0.54210362792E+01  0.15600995775E+03  0.16014522024E+03  0.10566000000E+00 0.  1.
         13    1    4    4    0    0  0.24503021367E+02 -0.41071656958E+01  0.26777472185E+03  0.26892485882E+03  0.10566000000E+00 0. -1.
        -13    1    4    4    0    0  0.64284311713E+01 -0.25572684548E+00  0.68046014497E+02  0.68349552862E+02  0.10566000000E+00 0.  1.
        -14    1    4    4    0    0  0.48174754137E+01 -0.10581437379E+01  0.53471500248E+02  0.53698501621E+02  0.00000000000E+00 0.  1.
<mgrwt>
<rscale>  0 0.79854330E+02</rscale>
<asrwt>0</asrwt>
<pdfrwt beam="1">  1        2 0.84340080E-01 0.79854330E+02</pdfrwt>
<pdfrwt beam="2">  1       -1 0.44737965E-03 0.79854330E+02</pdfrwt>
<totfact> 0.31481401E+05</totfact>
</mgrwt>
</event>
<event>
 8    1  0.1226832E-024  0.7858890E+02  0.7818608E-02  0.1333104E+00
         -1   -1    0    0    0  501 -0.00000000000E+00  0.00000000000E+00  0.12534617343E+03  0.12534617353E+03  0.50400000000E-02 0.  1.
          2   -1    0    0  501    0  0.00000000000E+00 -0.00000000000E+00 -0.12318315696E+02  0.12318315960E+02  0.25500000000E-02 0. -1.
         24    2    1    2    0    0  0.00000000000E+00  0.35527136788E-14  0.11302785773E+03  0.13766448949E+03  0.78588898980E+02 0.  0.
         66    2    3    3    0    0  0.20764800563E+02  0.16579899699E+02  0.59028877118E+01  0.27293114657E+02  0.20000019785E+01 0.  0.
        -13    1    3    3    0    0 -0.20764800563E+02 -0.16579899699E+02  0.10712497002E+03  0.11037137483E+03  0.10566000000E+00 0.  1.
         13    1    4    4    0    0  0.10691498322E+02  0.92729928429E+01  0.25615487076E+01  0.14382949226E+02  0.10566000000E+00 0. -1.
        -13    1    4    4    0    0  0.32247877460E+01  0.20464744962E+01  0.74586019839E+00  0.38929147616E+01  0.10566000000E+00 0.  1.
         14    1    4    4    0    0  0.68485144954E+01  0.52604323595E+01  0.25954788057E+01  0.90172506693E+01  0.00000000000E+00 0. -1.
<mgrwt>
<rscale>  0 0.78588899E+02</rscale>
<asrwt>0</asrwt>
<pdfrwt beam="1">  1        2 0.18951256E-02 0.78588899E+02</pdfrwt>
<pdfrwt beam="2">  1       -1 0.19284026E-01 0.78588899E+02</pdfrwt>
<totfact> 0.11785682E+05</totfact>
</mgrwt>
</event>
<event>
 8    1  0.1226832E-024  0.7796681E+02  0.7818608E-02  0.1334922E+00
         -1   -1    0    0    0  501 -0.00000000000E+00  0.00000000000E+00  0.29914854168E+02  0.29914854592E+02  0.50400000000E-02 0.  1.
          2   -1    0    0  501    0  0.00000000000E+00 -0.00000000000E+00 -0.50801043609E+02  0.50801043673E+02  0.25500000000E-02 0. -1.
         24    2    1    2    0    0  0.00000000000E+00  0.00000000000E+00 -0.20886189441E+02  0.80715898265E+02  0.77966809114E+02 0.  0.
         66    2    3    3    0    0  0.37314706860E+02 -0.10698935691E+02 -0.70404457935E+01  0.39502182658E+02  0.19999962105E+01 0.  0.
        -13    1    3    3    0    0 -0.37314706860E+02  0.10698935691E+02 -0.13845743648E+02  0.41213715607E+02  0.10566000000E+00 0.  1.
         13    1    4    4    0    0  0.13583907778E+02 -0.40627300872E+01 -0.26626171159E+01  0.14426677380E+02  0.10566000000E+00 0. -1.
        -13    1    4    4    0    0  0.20921238995E+02 -0.62945481112E+01 -0.36223680275E+01  0.22146157481E+02  0.10566000000E+00 0.  1.
        -14    1    4    4    0    0  0.28095600875E+01 -0.34165749218E+00 -0.75546065016E+00  0.29293477979E+01  0.00000000000E+00 0.  1.
<mgrwt>
<rscale>  0 0.77966809E+02</rscale>
<asrwt>0</asrwt>
<pdfrwt beam="1">  1        2 0.78155452E-02 0.77966809E+02</pdfrwt>
<pdfrwt beam="2">  1       -1 0.46022853E-02 0.77966809E+02</pdfrwt>
<totfact> 0.16087744E+05</totfact>
</mgrwt>
</event>
<event>
 8    1  0.1226832E-024  0.7964068E+02  0.7818608E-02  0.1330074E+00
         -1   -1    0    0    0  501 -0.00000000000E+00  0.00000000000E+00  0.15953081107E+02  0.15953081903E+02  0.50400000000E-02 0.  1.
          2   -1    0    0  501    0  0.00000000000E+00 -0.00000000000E+00 -0.99395184720E+02  0.99395184752E+02  0.25500000000E-02 0. -1.
         24    2    1    2    0    0  0.00000000000E+00  0.00000000000E+00 -0.83442103613E+02  0.11534826666E+03  0.79640680340E+02 0.  0.
         66    2    3    3    0    0 -0.33358404579E+02  0.83504755218E+01 -0.70755745221E+02  0.78694911409E+02  0.20000006137E+01 0.  0.
        -13    1    3    3    0    0  0.33358404579E+02 -0.83504755218E+01 -0.12686358392E+02  0.36653355246E+02  0.10566000000E+00 0.  1.
         13    1    4    4    0    0 -0.15987051986E+02  0.38247189722E+01 -0.32353442447E+02  0.36290091053E+02  0.10566000000E+00 0. -1.
        -13    1    4    4    0    0 -0.15942637353E+02  0.38506079870E+01 -0.35227300430E+02  0.38858316063E+02  0.10566000000E+00 0.  1.
         14    1    4    4    0    0 -0.14287152393E+01  0.67514856266E+00 -0.31750023441E+01  0.35465042932E+01  0.00000000000E+00 0. -1.
<mgrwt>
<rscale>  0 0.79640680E+02</rscale>
<asrwt>0</asrwt>
<pdfrwt beam="1">  1        2 0.15291567E-01 0.79640680E+02</pdfrwt>
<pdfrwt beam="2">  1       -1 0.24543203E-02 0.79640680E+02</pdfrwt>
<totfact> 0.17910478E+05</totfact>
</mgrwt>
</event>
<event>
 8    1  0.1226832E-024  0.8029855E+02  0.7818608E-02  0.1328206E+00
         -1   -1    0    0    0  501 -0.00000000000E+00  0.00000000000E+00  0.33600495075E+02  0.33600495453E+02  0.50400000000E-02 0.  1.
          2   -1    0    0  501    0  0.00000000000E+00 -0.00000000000E+00 -0.47974423931E+02  0.47974423999E+02  0.25500000000E-02 0. -1.
         24    2    1    2    0    0  0.17763568394E-14  0.35527136788E-14 -0.14373928856E+02  0.81574919452E+02  0.80298553243E+02 0.  0.
         66    2    3    3    0    0 -0.93460262133E+01  0.29259640727E+02 -0.33418132663E+02  0.45433978068E+02  0.19999977507E+01 0.  0.
        -13    1    3    3    0    0  0.93460262133E+01 -0.29259640727E+02  0.19044203807E+02  0.36140941384E+02  0.10566000000E+00 0.  1.
         13    1    4    4    0    0 -0.61679005514E+00  0.27416505793E+01 -0.24274715477E+01  0.37149508774E+01  0.10566000000E+00 0. -1.
        -13    1    4    4    0    0 -0.59596269234E+00  0.23653859042E+01 -0.25500805222E+01  0.35304810878E+01  0.10566000000E+00 0.  1.
        -14    1    4    4    0    0 -0.81332734659E+01  0.24152604243E+02 -0.28440580593E+02  0.38188546103E+02  0.00000000000E+00 0.  1.
<mgrwt>
<rscale>  0 0.80298553E+02</rscale>
<asrwt>0</asrwt>
<pdfrwt beam="1">  1        2 0.73806806E-02 0.80298553E+02</pdfrwt>
<pdfrwt beam="2">  1       -1 0.51693070E-02 0.80298553E+02</pdfrwt>
<totfact> 0.14659271E+05</totfact>
</mgrwt>
</event>
<event>
 8    1  0.1226832E-024  0.8052499E+02  0.7818608E-02  0.1327568E+00
         -1   -1    0    0    0  501 -0.00000000000E+00  0.00000000000E+00  0.52729606353E+01  0.52729630440E+01  0.50400000000E-02 0.  1.
          2   -1    0    0  501    0  0.00000000000E+00 -0.00000000000E+00 -0.30743035883E+03  0.30743035884E+03  0.25500000000E-02 0. -1.
         24    2    1    2    0    0  0.00000000000E+00  0.00000000000E+00 -0.30215739820E+03  0.31270332189E+03  0.80524991362E+02 0.  0.
         66    2    3    3    0    0 -0.11656400969E+02 -0.84773530041E+01 -0.29705828176E+03  0.29741445829E+03  0.20000102702E+01 0.  0.
        -13    1    3    3    0    0  0.11656400969E+02  0.84773530041E+01 -0.50991164347E+01  0.15288863593E+02  0.10566000000E+00 0.  1.
         13    1    4    4    0    0 -0.28961587999E+01 -0.15219310754E+01 -0.79525525757E+02  0.79592866646E+02  0.10566000000E+00 0. -1.
        -13    1    4    4    0    0 -0.36933146733E+00 -0.20824522417E+00 -0.69082709839E+01  0.69220765547E+01  0.10566000000E+00 0. -1.
        -14    1    4    4    0    0 -0.83909107022E+01 -0.67471767045E+01 -0.21062448502E+03  0.21089951509E+03  0.00000000000E+00 0.  1.
<mgrwt>
<rscale>  0 0.80524991E+02</rscale>
<asrwt>0</asrwt>
<pdfrwt beam="1">  1        2 0.47296964E-01 0.80524991E+02</pdfrwt>
<pdfrwt beam="2">  1       -1 0.81122514E-03 0.80524991E+02</pdfrwt>
<totfact> 0.25283878E+05</totfact>
</mgrwt>
</event>
<event>
 8    1  0.1226832E-024  0.7828253E+02  0.7818608E-02  0.1333997E+00
          2   -1    0    0  501    0  0.00000000000E+00  0.00000000000E+00  0.21660874448E+03  0.21660874450E+03  0.25500000000E-02 0. -1.
         -1   -1    0    0    0  501 -0.00000000000E+00 -0.00000000000E+00 -0.70728379272E+01  0.70728397229E+01  0.50400000000E-02 0.  1.
         24    2    1    2    0    0  0.00000000000E+00  0.00000000000E+00  0.20953590656E+03  0.22368158422E+03  0.78282533067E+02 0.  0.
         66    2    3    3    0    0  0.24426805775E+02 -0.43297675689E+01  0.19125037452E+03  0.19286296041E+03  0.20000044012E+01 0.  0.
        -13    1    3    3    0    0 -0.24426805775E+02  0.43297675689E+01  0.18285532036E+02  0.30818623808E+02  0.10566000000E+00 0.  1.
         13    1    4    4    0    0  0.19161497306E+02 -0.36076077879E+01  0.15232948746E+03  0.15357233385E+03  0.10566000000E+00 0. -1.
        -13    1    4    4    0    0  0.29549068446E+01 -0.61264145517E+00  0.19483584799E+02  0.19716187377E+02  0.10566000000E+00 0.  1.
         14    1    4    4    0    0  0.23104016239E+01 -0.10951832584E+00  0.19437302266E+02  0.19574439182E+02  0.00000000000E+00 0. -1.
<mgrwt>
<rscale>  0 0.78282533E+02</rscale>
<asrwt>0</asrwt>
<pdfrwt beam="1">  1        2 0.33324424E-01 0.78282533E+02</pdfrwt>
<pdfrwt beam="2">  1       -1 0.10881290E-02 0.78282533E+02</pdfrwt>
<totfact> 0.24016105E+05</totfact>
</mgrwt>
</event>
<event>
 8    1  0.1226832E-024  0.7823028E+02  0.7818608E-02  0.1334150E+00
          2   -1    0    0  501    0  0.00000000000E+00  0.00000000000E+00  0.94983169353E+03  0.94983169354E+03  0.25500000000E-02 0. -1.
         -1   -1    0    0    0  501 -0.00000000000E+00 -0.00000000000E+00 -0.16108016485E+01  0.16108095333E+01  0.50400000000E-02 0.  1.
         24    2    1    2    0    0  0.00000000000E+00 -0.35527136788E-14  0.94822089189E+03  0.95144250307E+03  0.78230280847E+02 0.  0.
         66    2    3    3    0    0  0.24292584338E+02 -0.16077530449E+02  0.79142122796E+03  0.79195970647E+03  0.19999934008E+01 0.  0.
        -13    1    3    3    0    0 -0.24292584338E+02  0.16077530449E+02  0.15679966393E+03  0.15948279660E+03  0.10566000000E+00 0.  1.
         13    1    4    4    0    0  0.12799191171E+02 -0.88616940027E+01  0.43017113627E+03  0.43045274602E+03  0.10566000000E+00 0. -1.
        -13    1    4    4    0    0  0.93699854315E+00 -0.99485779889E+00  0.34674936453E+02  0.34702018534E+02  0.10566000000E+00 0.  1.
        -14    1    4    4    0    0  0.10556394623E+02 -0.62209786472E+01  0.32657515523E+03  0.32680494191E+03  0.00000000000E+00 0.  1.
<mgrwt>
<rscale>  0 0.78230281E+02</rscale>
<asrwt>0</asrwt>
<pdfrwt beam="1">  1        2 0.14612835E+00 0.78230281E+02</pdfrwt>
<pdfrwt beam="2">  1       -1 0.24781557E-03 0.78230281E+02</pdfrwt>
<totfact> 0.37221247E+05</totfact>
</mgrwt>
</event>
<event>
 8    1  0.1226832E-024  0.8052381E+02  0.7818608E-02  0.1327571E+00
         -1   -1    0    0    0  501 -0.00000000000E+00  0.00000000000E+00  0.41640086121E+01  0.41640116623E+01  0.50400000000E-02 0.  1.
          2   -1    0    0  501    0  0.00000000000E+00 -0.00000000000E+00 -0.38929323853E+03  0.38929323853E+03  0.25500000000E-02 0. -1.
         24    2    1    2    0    0  0.00000000000E+00  0.35527136788E-14 -0.38512922991E+03  0.39345725020E+03  0.80523810132E+02 0.  0.
         66    2    3    3    0    0 -0.13489171276E+02  0.21600401281E+02 -0.34490133255E+03  0.34584601237E+03  0.19999997095E+01 0.  0.
        -13    1    3    3    0    0  0.13489171276E+02 -0.21600401281E+02 -0.40227897362E+02  0.47611237827E+02  0.10566000000E+00 0.  1.
         13    1    4    4    0    0 -0.45031481893E+01  0.66861253659E+01 -0.10781573426E+03  0.10811672550E+03  0.10566000000E+00 0. -1.
        -13    1    4    4    0    0 -0.40030345064E+01  0.61501712489E+01 -0.10987039315E+03  0.11011522759E+03  0.10566000000E+00 0.  1.
         14    1    4    4    0    0 -0.49829885802E+01  0.87641046657E+01 -0.12721520514E+03  0.12761405928E+03  0.00000000000E+00 0. -1.
<mgrwt>
<rscale>  0 0.80523810E+02</rscale>
<asrwt>0</asrwt>
<pdfrwt beam="1">  1        2 0.59891238E-01 0.80523810E+02</pdfrwt>
<pdfrwt beam="2">  1       -1 0.64061726E-03 0.80523810E+02</pdfrwt>
<totfact> 0.27512628E+05</totfact>
</mgrwt>
</event>
<event>
 8    1  0.1226832E-024  0.8120938E+02  0.7818608E-02  0.1325654E+00
         -1   -1    0    0    0  501 -0.00000000000E+00  0.00000000000E+00  0.42455891968E+01  0.42455921884E+01  0.50400000000E-02 0.  1.
          2   -1    0    0  501    0  0.00000000000E+00 -0.00000000000E+00 -0.38834192736E+03  0.38834192737E+03  0.25500000000E-02 0. -1.
         24    2    1    2    0    0  0.00000000000E+00  0.00000000000E+00 -0.38409633816E+03  0.39258751955E+03  0.81209380747E+02 0.  0.
         66    2    3    3    0    0 -0.26278995055E+02  0.15687307559E+02 -0.32098258239E+03  0.32244456173E+03  0.19999994944E+01 0.  0.
        -13    1    3    3    0    0  0.26278995055E+02 -0.15687307559E+02 -0.63113755774E+02  0.70142957819E+02  0.10566000000E+00 0.  1.
         13    1    4    4    0    0 -0.17187808221E+02  0.11220592013E+02 -0.21249488185E+03  0.21348397695E+03  0.10566000000E+00 0. -1.
        -13    1    4    4    0    0 -0.13917946136E+01  0.74543046803E+00 -0.18404884421E+02  0.18472782503E+02  0.10566000000E+00 0. -1.
         14    1    4    4    0    0 -0.76993922209E+01  0.37212850781E+01 -0.90082816114E+02  0.90487802284E+02  0.00000000000E+00 0. -1.
<mgrwt>
<rscale>  0 0.81209381E+02</rscale>
<asrwt>0</asrwt>
<pdfrwt beam="1">  1        2 0.59744884E-01 0.81209381E+02</pdfrwt>
<pdfrwt beam="2">  1       -1 0.65316810E-03 0.81209381E+02</pdfrwt>
<totfact> 0.26886019E+05</totfact>
</mgrwt>
</event>
<event>
 8    1  0.1226832E-024  0.8017210E+02  0.7818608E-02  0.1328564E+00
          2   -1    0    0  501    0  0.00000000000E+00  0.00000000000E+00  0.43024429806E+02  0.43024429881E+02  0.25500000000E-02 0. -1.
         -1   -1    0    0    0  501 -0.00000000000E+00 -0.00000000000E+00 -0.37348349532E+02  0.37348349872E+02  0.50400000000E-02 0.  1.
         24    2    1    2    0    0  0.00000000000E+00  0.00000000000E+00  0.56760802733E+01  0.80372779754E+02  0.80172101370E+02 0.  0.
         66    2    3    3    0    0  0.36238883360E+02  0.13773169234E+02  0.12961093633E+02  0.40926113968E+02  0.19999996176E+01 0.  0.
        -13    1    3    3    0    0 -0.36238883360E+02 -0.13773169234E+02 -0.72850133594E+01  0.39446665786E+02  0.10566000000E+00 0.  1.
         13    1    4    4    0    0  0.46995526739E+01  0.22940112652E+01  0.20791050148E+01  0.56286876550E+01  0.10566000000E+00 0. -1.
        -13    1    4    4    0    0  0.44832326772E+01  0.18403511183E+01  0.12867505553E+01  0.50152924644E+01  0.10566000000E+00 0.  1.
         14    1    4    4    0    0  0.27056098008E+02  0.96388068510E+01  0.95952380626E+01  0.30282133849E+02  0.00000000000E+00 0. -1.
<mgrwt>
<rscale>  0 0.80172101E+02</rscale>
<asrwt>0</asrwt>
<pdfrwt beam="1">  1        2 0.66191430E-02 0.80172101E+02</pdfrwt>
<pdfrwt beam="2">  1       -1 0.57459000E-02 0.80172101E+02</pdfrwt>
<totfact> 0.14386635E+05</totfact>
</mgrwt>
</event>
<event>
 8    1  0.1226832E-024  0.7992996E+02  0.7818608E-02  0.1329250E+00
          2   -1    0    0  501    0  0.00000000000E+00  0.00000000000E+00  0.13250820966E+03  0.13250820968E+03  0.25500000000E-02 0. -1.
         -1   -1    0    0    0  501 -0.00000000000E+00 -0.00000000000E+00 -0.12053588171E+02  0.12053589224E+02  0.50400000000E-02 0.  1.
         24    2    1    2    0    0  0.00000000000E+00  0.35527136788E-14  0.12045462148E+03  0.14456179890E+03  0.79929955995E+02 0.  0.
         66    2    3    3    0    0  0.16050661369E+02  0.27094505490E+02  0.10469403161E+03  0.10934613030E+03  0.19999994254E+01 0.  0.
        -13    1    3    3    0    0 -0.16050661369E+02 -0.27094505490E+02  0.15760589870E+02  0.35215668604E+02  0.10566000000E+00 0.  1.
         13    1    4    4    0    0  0.26345437465E+01  0.49080461762E+01  0.16507821790E+02  0.17422660024E+02  0.10566000000E+00 0.  1.
        -13    1    4    4    0    0  0.36637732457E+01  0.55386479116E+01  0.21546809763E+02  0.22547195614E+02  0.10566000000E+00 0. -1.
         14    1    4    4    0    0  0.97523443769E+01  0.16647811402E+02  0.66639400062E+02  0.69376274662E+02  0.00000000000E+00 0. -1.
<mgrwt>
<rscale>  0 0.79929956E+02</rscale>
<asrwt>0</asrwt>
<pdfrwt beam="1">  1        2 0.20385879E-01 0.79929956E+02</pdfrwt>
<pdfrwt beam="2">  1       -1 0.18543982E-02 0.79929956E+02</pdfrwt>
<totfact> 0.19304881E+05</totfact>
</mgrwt>
</event>
<event>
 8    1  0.1226832E-024  0.8451364E+02  0.7818608E-02  0.1316709E+00
          2   -1    0    0  501    0  0.00000000000E+00  0.00000000000E+00  0.32430724604E+03  0.32430724605E+03  0.25500000000E-02 0. -1.
         -1   -1    0    0    0  501 -0.00000000000E+00 -0.00000000000E+00 -0.55060083491E+01  0.55060106558E+01  0.50400000000E-02 0.  1.
         24    2    1    2    0    0  0.17763568394E-14  0.35527136788E-14  0.31880123769E+03  0.32981325670E+03  0.84513638814E+02 0.  0.
         66    2    3    3    0    0 -0.15925371299E+02 -0.24385497660E+02  0.27884215675E+03  0.28036622180E+03  0.19999997047E+01 0.  0.
        -13    1    3    3    0    0  0.15925371299E+02  0.24385497660E+02  0.39959080937E+02  0.49447034901E+02  0.10566000000E+00 0.  1.
         13    1    4    4    0    0 -0.39638651723E+01 -0.54188573213E+01  0.62742836202E+02  0.63101116476E+02  0.10566000000E+00 0. -1.
        -13    1    4    4    0    0 -0.52285554136E+01 -0.97173685016E+01  0.10493793954E+03  0.10551657387E+03  0.10566000000E+00 0.  1.
        -14    1    4    4    0    0 -0.67329507134E+01 -0.92492718369E+01  0.11116138101E+03  0.11174853146E+03  0.00000000000E+00 0.  1.
<mgrwt>
<rscale>  0 0.84513639E+02</rscale>
<asrwt>0</asrwt>
<pdfrwt beam="1">  1        2 0.49893428E-01 0.84513639E+02</pdfrwt>
<pdfrwt beam="2">  1       -1 0.84707830E-03 0.84513639E+02</pdfrwt>
<totfact> 0.22702423E+05</totfact>
</mgrwt>
</event>
<event>
 8    1  0.1226832E-024  0.7607517E+02  0.7818608E-02  0.1340574E+00
         -1   -1    0    0    0  501 -0.00000000000E+00  0.00000000000E+00  0.42115953253E+01  0.42115983410E+01  0.50400000000E-02 0.  1.
          2   -1    0    0  501    0  0.00000000000E+00 -0.00000000000E+00 -0.34354142615E+03  0.34354142616E+03  0.25500000000E-02 0. -1.
         24    2    1    2    0    0  0.00000000000E+00  0.00000000000E+00 -0.33932983083E+03  0.34775302450E+03  0.76075173097E+02 0.  0.
         66    2    3    3    0    0 -0.89065802858E+01  0.26869837492E+02 -0.28574366176E+03  0.28714936109E+03  0.20000004791E+01 0.  0.
        -13    1    3    3    0    0  0.89065802858E+01 -0.26869837492E+02 -0.53586169071E+02  0.60603663412E+02  0.10566000000E+00 0.  1.
         13    1    4    4    0    0 -0.40385506557E+01  0.11276369722E+02 -0.12051050485E+03  0.12110433250E+03  0.10566000000E+00 0. -1.
        -13    1    4    4    0    0 -0.42427562457E+01  0.14351564472E+02 -0.15421359221E+03  0.15493808947E+03  0.10566000000E+00 0.  1.
         14    1    4    4    0    0 -0.62527338436E+00  0.12419032977E+01 -0.11019564695E+02  0.11106939122E+02  0.00000000000E+00 0. -1.
<mgrwt>
<rscale>  0 0.76075173E+02</rscale>
<asrwt>0</asrwt>
<pdfrwt beam="1">  1        2 0.52852505E-01 0.76075173E+02</pdfrwt>
<pdfrwt beam="2">  1       -1 0.64793825E-03 0.76075173E+02</pdfrwt>
<totfact> 0.30527628E+05</totfact>
</mgrwt>
</event>
<event>
 8    1  0.1226832E-024  0.7679801E+02  0.7818608E-02  0.1338392E+00
          2   -1    0    0  501    0  0.00000000000E+00  0.00000000000E+00  0.25894719659E+02  0.25894719785E+02  0.25500000000E-02 0. -1.
         -1   -1    0    0    0  501 -0.00000000000E+00 -0.00000000000E+00 -0.56941479073E+02  0.56941479296E+02  0.50400000000E-02 0.  1.
         24    2    1    2    0    0  0.00000000000E+00  0.11102230246E-15 -0.31046759414E+02  0.82836199080E+02  0.76798011745E+02 0.  0.
         66    2    3    3    0    0 -0.37892005408E+02 -0.71028472299E+00 -0.90468552769E+01  0.39014794216E+02  0.19999997832E+01 0.  0.
        -13    1    3    3    0    0  0.37892005408E+02  0.71028472299E+00 -0.21999904137E+02  0.43821404864E+02  0.10566000000E+00 0.  1.
         13    1    4    4    0    0 -0.18135367663E+02 -0.56882474929E+00 -0.39110264603E+01  0.18561314982E+02  0.10566000000E+00 0. -1.
        -13    1    4    4    0    0 -0.26311645882E+01  0.37308117526E+00 -0.52817383063E+00  0.27115213966E+01  0.10566000000E+00 0.  1.
         14    1    4    4    0    0 -0.17125473157E+02 -0.51454114896E+00 -0.46076549860E+01  0.17741957837E+02  0.00000000000E+00 0. -1.
<mgrwt>
<rscale>  0 0.76798012E+02</rscale>
<asrwt>0</asrwt>
<pdfrwt beam="1">  1        2 0.39838031E-02 0.76798012E+02</pdfrwt>
<pdfrwt beam="2">  1       -1 0.87602276E-02 0.76798012E+02</pdfrwt>
<totfact> 0.14663769E+05</totfact>
</mgrwt>
</event>
<event>
 8    1  0.1226832E-024  0.8065775E+02  0.7818608E-02  0.1327195E+00
         -1   -1    0    0    0  501 -0.00000000000E+00  0.00000000000E+00  0.46772310097E+02  0.46772310369E+02  0.50400000000E-02 0.  1.
          2   -1    0    0  501    0  0.00000000000E+00 -0.00000000000E+00 -0.34773101992E+02  0.34773102086E+02  0.25500000000E-02 0. -1.
         24    2    1    2    0    0  0.00000000000E+00  0.35527136788E-14  0.11999208105E+02  0.81545412455E+02  0.80657754105E+02 0.  0.
         66    2    3    3    0    0  0.24475052123E+02  0.31808420566E+02  0.97329963261E+01  0.41346523475E+02  0.19999976645E+01 0.  0.
        -13    1    3    3    0    0 -0.24475052123E+02 -0.31808420566E+02  0.22662117791E+01  0.40198888980E+02  0.10566000000E+00 0.  1.
         13    1    4    4    0    0  0.21109349559E+02  0.26550910461E+02  0.83709123373E+01  0.34937641914E+02  0.10566000000E+00 0. -1.
        -13    1    4    4    0    0  0.27397876687E+01  0.45828461911E+01  0.12153092353E+01  0.54769568425E+01  0.10566000000E+00 0.  1.
         14    1    4    4    0    0  0.62591489547E+00  0.67466391353E+00  0.14677475344E+00  0.93192471844E+00  0.00000000000E+00 0. -1.
<mgrwt>
<rscale>  0 0.80657754E+02</rscale>
<asrwt>0</asrwt>
<pdfrwt beam="1">  1        2 0.53497080E-02 0.80657754E+02</pdfrwt>
<pdfrwt beam="2">  1       -1 0.71957401E-02 0.80657754E+02</pdfrwt>
<totfact> 0.13543602E+05</totfact>
</mgrwt>
</event>
<event>
 8    1  0.1226832E-024  0.8033997E+02  0.7818608E-02  0.1328089E+00
          2   -1    0    0  501    0  0.00000000000E+00  0.00000000000E+00  0.53456438283E+02  0.53456438344E+02  0.25500000000E-02 0. -1.
         -1   -1    0    0    0  501 -0.00000000000E+00 -0.00000000000E+00 -0.30185844141E+02  0.30185844562E+02  0.50400000000E-02 0.  1.
         24    2    1    2    0    0 -0.71054273576E-14  0.27755575616E-16  0.23270594142E+02  0.83642282906E+02  0.80339970986E+02 0.  0.
         66    2    3    3    0    0  0.39682410427E+02 -0.21756552744E+00  0.17965148712E+02  0.43606049975E+02  0.19999985434E+01 0.  0.
        -13    1    3    3    0    0 -0.39682410427E+02  0.21756552744E+00  0.53054454297E+01  0.40036232931E+02  0.10566000000E+00 0.  1.
         13    1    4    4    0    0  0.11529870197E+02 -0.53202024068E+00  0.47992312322E+01  0.12500589456E+02  0.10566000000E+00 0. -1.
        -13    1    4    4    0    0  0.18171223492E+02 -0.38640552968E+00  0.84396006072E+01  0.20039478408E+02  0.10566000000E+00 0.  1.
        -14    1    4    4    0    0  0.99813167378E+01  0.70086024292E+00  0.47263168728E+01  0.11065982111E+02  0.00000000000E+00 0.  1.
<mgrwt>
<rscale>  0 0.80339971E+02</rscale>
<asrwt>0</asrwt>
<pdfrwt beam="1">  1        2 0.82240673E-02 0.80339971E+02</pdfrwt>
<pdfrwt beam="2">  1       -1 0.46439761E-02 0.80339971E+02</pdfrwt>
<totfact> 0.14989542E+05</totfact>
</mgrwt>
</event>
<event>
 8    1  0.1226832E-024  0.8129939E+02  0.7818608E-02  0.1325404E+00
          2   -1    0    0  501    0  0.00000000000E+00  0.00000000000E+00  0.18102393130E+03  0.18102393132E+03  0.25500000000E-02 0. -1.
         -1   -1    0    0    0  501 -0.00000000000E+00 -0.00000000000E+00 -0.91280610813E+01  0.91280624727E+01  0.50400000000E-02 0.  1.
         24    2    1    2    0    0  0.22204460493E-15 -0.71054273576E-14  0.17189587022E+03  0.19015199379E+03  0.81299388339E+02 0.  0.
         66    2    3    3    0    0 -0.15568523687E+01 -0.39721248887E+02  0.10559524759E+03  0.11284749762E+03  0.20000010579E+01 0.  0.
        -13    1    3    3    0    0  0.15568523687E+01  0.39721248887E+02  0.66300622630E+02  0.77304496167E+02  0.10566000000E+00 0.  1.
         13    1    4    4    0    0 -0.13825268555E-01 -0.37430924794E+01  0.11018497065E+02  0.11637412688E+02  0.10566000000E+00 0. -1.
        -13    1    4    4    0    0  0.23272939593E+00 -0.47631352594E+01  0.12908777565E+02  0.13761879332E+02  0.10566000000E+00 0.  1.
        -14    1    4    4    0    0 -0.17757564961E+01 -0.31215021148E+02  0.81667972959E+02  0.87448205605E+02  0.00000000000E+00 0.  1.
<mgrwt>
<rscale>  0 0.81299388E+02</rscale>
<asrwt>0</asrwt>
<pdfrwt beam="1">  1        2 0.27849834E-01 0.81299388E+02</pdfrwt>
<pdfrwt beam="2">  1       -1 0.14043173E-02 0.81299388E+02</pdfrwt>
<totfact> 0.20425922E+05</totfact>
</mgrwt>
</event>
<event>
 8    1  0.1226832E-024  0.8960753E+02  0.7818608E-02  0.1303805E+00
         -1   -1    0    0    0  501 -0.00000000000E+00  0.00000000000E+00  0.84338467932E+01  0.84338482991E+01  0.50400000000E-02 0.  1.
          2   -1    0    0  501    0  0.00000000000E+00 -0.00000000000E+00 -0.23801440713E+03  0.23801440714E+03  0.25500000000E-02 0. -1.
         24    2    1    2    0    0 -0.71054273576E-14  0.35527136788E-14 -0.22958056033E+03  0.24644825544E+03  0.89607527173E+02 0.  0.
         66    2    3    3    0    0  0.41670498950E+02 -0.14002221055E+02 -0.13832653382E+03  0.14515757869E+03  0.20000038562E+01 0.  0.
        -13    1    3    3    0    0 -0.41670498950E+02  0.14002221055E+02 -0.91254026510E+02  0.10129067675E+03  0.10566000000E+00 0.  1.
         13    1    4    4    0    0  0.11323305354E+02 -0.40068333164E+01 -0.37029545607E+02  0.38929042748E+02  0.10566000000E+00 0. -1.
        -13    1    4    4    0    0  0.28946880137E+02 -0.92734145086E+01 -0.95449927508E+02  0.10017294002E+03  0.10566000000E+00 0.  1.
        -14    1    4    4    0    0  0.14003134594E+01 -0.72197323047E+00 -0.58470607071E+01  0.60555959280E+01  0.00000000000E+00 0.  1.
<mgrwt>
<rscale>  0 0.89607527E+02</rscale>
<asrwt>0</asrwt>
<pdfrwt beam="1">  1        2 0.36617596E-01 0.89607527E+02</pdfrwt>
<pdfrwt beam="2">  1       -1 0.12975152E-02 0.89607527E+02</pdfrwt>
<totfact> 0.17372454E+05</totfact>
</mgrwt>
</event>
<event>
 8    1  0.1226832E-024  0.8129631E+02  0.7818608E-02  0.1325412E+00
         -1   -1    0    0    0  501 -0.00000000000E+00  0.00000000000E+00  0.35891138101E+01  0.35891173488E+01  0.50400000000E-02 0.  1.
          2   -1    0    0  501    0  0.00000000000E+00 -0.00000000000E+00 -0.46035642586E+03  0.46035642587E+03  0.25500000000E-02 0. -1.
         24    2    1    2    0    0  0.71054273576E-14 -0.35527136788E-14 -0.45676731205E+03  0.46394554322E+03  0.81296308112E+02 0.  0.
         66    2    3    3    0    0 -0.34774865903E+02  0.20165748314E+02 -0.26195345956E+03  0.26502747719E+03  0.19999972848E+01 0.  0.
        -13    1    3    3    0    0  0.34774865903E+02 -0.20165748314E+02 -0.19481385250E+03  0.19891806603E+03  0.10566000000E+00 0.  1.
         13    1    4    4    0    0 -0.21617874656E+02  0.12089127279E+02 -0.16535189798E+03  0.16719671299E+03  0.10566000000E+00 0. -1.
        -13    1    4    4    0    0 -0.82177304380E+01  0.45908965339E+01 -0.58481805239E+02  0.59234619375E+02  0.10566000000E+00 0.  1.
        -14    1    4    4    0    0 -0.49392608084E+01  0.34857245009E+01 -0.38119756337E+02  0.38596144831E+02  0.00000000000E+00 0.  1.
<mgrwt>
<rscale>  0 0.81296308E+02</rscale>
<asrwt>0</asrwt>
<pdfrwt beam="1">  1        2 0.70824019E-01 0.81296308E+02</pdfrwt>
<pdfrwt beam="2">  1       -1 0.55217199E-03 0.81296308E+02</pdfrwt>
<totfact> 0.28424864E+05</totfact>
</mgrwt>
</event>
<event>
 8    1  0.1226832E-024  0.7826354E+02  0.7818608E-02  0.1334053E+00
          2   -1    0    0  501    0  0.00000000000E+00  0.00000000000E+00  0.83602072529E+03  0.83602072529E+03  0.25500000000E-02 0. -1.
         -1   -1    0    0    0  501 -0.00000000000E+00 -0.00000000000E+00 -0.18316442182E+01  0.18316511523E+01  0.50400000000E-02 0.  1.
         24    2    1    2    0    0  0.35527136788E-14  0.00000000000E+00  0.83418908107E+03  0.83785237645E+03  0.78263540280E+02 0.  0.
         66    2    3    3    0    0 -0.18783277906E+02  0.21695761551E+02  0.70177330809E+03  0.70236265102E+03  0.19999998184E+01 0.  0.
        -13    1    3    3    0    0  0.18783277906E+02 -0.21695761551E+02  0.13241577298E+03  0.13548972542E+03  0.10566000000E+00 0.  1.
         13    1    4    4    0    0 -0.74880536934E+01  0.89325988609E+01  0.30057575384E+03  0.30080169087E+03  0.10566000000E+00 0. -1.
        -13    1    4    4    0    0 -0.11119865772E+02  0.12461693317E+02  0.38894117508E+03  0.38929961990E+03  0.10566000000E+00 0.  1.
         14    1    4    4    0    0 -0.17535844133E+00  0.30146937281E+00  0.12256379172E+02  0.12261340252E+02  0.00000000000E+00 0. -1.
<mgrwt>
<rscale>  0 0.78263540E+02</rscale>
<asrwt>0</asrwt>
<pdfrwt beam="1">  1        2 0.12861851E+00 0.78263540E+02</pdfrwt>
<pdfrwt beam="2">  1       -1 0.28179209E-03 0.78263540E+02</pdfrwt>
<totfact> 0.36638864E+05</totfact>
</mgrwt>
</event>
<event>
 8    1  0.1226832E-024  0.7941942E+02  0.7818608E-02  0.1330707E+00
          2   -1    0    0  501    0  0.00000000000E+00  0.00000000000E+00  0.18518240841E+03  0.18518240843E+03  0.25500000000E-02 0. -1.
         -1   -1    0    0    0  501 -0.00000000000E+00 -0.00000000000E+00 -0.85151756521E+01  0.85151771436E+01  0.50400000000E-02 0.  1.
         24    2    1    2    0    0 -0.17763568394E-14 -0.71054273576E-14  0.17666723276E+03  0.19369758557E+03  0.79419415294E+02 0.  0.
         66    2    3    3    0    0  0.12337307724E+02  0.32717313870E+02  0.13416223698E+03  0.13865834848E+03  0.19999961884E+01 0.  0.
        -13    1    3    3    0    0 -0.12337307724E+02 -0.32717313870E+02  0.42504995779E+02  0.55039237086E+02  0.10566000000E+00 0.  1.
         13    1    4    4    0    0  0.75513985051E+01  0.18786184222E+02  0.74343965528E+02  0.77051805375E+02  0.10566000000E+00 0. -1.
        -13    1    4    4    0    0  0.70420026567E+00  0.21108427342E+01  0.86230346777E+01  0.89061465377E+01  0.10566000000E+00 0.  1.
         14    1    4    4    0    0  0.40817089530E+01  0.11820286915E+02  0.51195236770E+02  0.52700396570E+02  0.00000000000E+00 0. -1.
<mgrwt>
<rscale>  0 0.79419415E+02</rscale>
<asrwt>0</asrwt>
<pdfrwt beam="1">  1        2 0.28489603E-01 0.79419415E+02</pdfrwt>
<pdfrwt beam="2">  1       -1 0.13100271E-02 0.79419415E+02</pdfrwt>
<totfact> 0.21898413E+05</totfact>
</mgrwt>
</event>
<event>
 8    1  0.1226832E-024  0.8005342E+02  0.7818608E-02  0.1328900E+00
          2   -1    0    0  501    0  0.00000000000E+00  0.00000000000E+00  0.15066123634E+03  0.15066123636E+03  0.25500000000E-02 0. -1.
         -1   -1    0    0    0  501 -0.00000000000E+00 -0.00000000000E+00 -0.10634039831E+02  0.10634041025E+02  0.50400000000E-02 0.  1.
         24    2    1    2    0    0  0.00000000000E+00  0.35527136788E-14  0.14002719651E+03  0.16129527739E+03  0.80053424318E+02 0.  0.
         66    2    3    3    0    0 -0.21883847075E+02  0.31001877651E+02  0.95552220788E+02  0.10283115326E+03  0.20000005471E+01 0.  0.
        -13    1    3    3    0    0  0.21883847075E+02 -0.31001877651E+02  0.44474975724E+02  0.58464124131E+02  0.10566000000E+00 0.  1.
         13    1    4    4    0    0 -0.24475573593E+01  0.40035974852E+01  0.11220705939E+02  0.12162842417E+02  0.10566000000E+00 0. -1.
        -13    1    4    4    0    0 -0.78135333305E+01  0.11949306694E+02  0.37179343759E+02  0.39826523824E+02  0.10566000000E+00 0.  1.
         14    1    4    4    0    0 -0.11622756385E+02  0.15048973472E+02  0.47152171090E+02  0.50841787017E+02  0.00000000000E+00 0. -1.
<mgrwt>
<rscale>  0 0.80053424E+02</rscale>
<asrwt>0</asrwt>
<pdfrwt beam="1">  1        2 0.23178652E-01 0.80053424E+02</pdfrwt>
<pdfrwt beam="2">  1       -1 0.16360062E-02 0.80053424E+02</pdfrwt>
<totfact> 0.20022940E+05</totfact>
</mgrwt>
</event>
<event>
 8    1  0.1226832E-024  0.8023569E+02  0.7818608E-02  0.1328384E+00
         -1   -1    0    0    0  501 -0.00000000000E+00  0.00000000000E+00  0.27447934021E+01  0.27447980293E+01  0.50400000000E-02 0.  1.
          2   -1    0    0  501    0  0.00000000000E+00 -0.00000000000E+00 -0.58636115975E+03  0.58636115976E+03  0.25500000000E-02 0. -1.
         24    2    1    2    0    0  0.35527136788E-14  0.00000000000E+00 -0.58361636635E+03  0.58910595779E+03  0.80235692984E+02 0.  0.
         66    2    3    3    0    0  0.22509769652E+02 -0.15858467422E+02 -0.50595515066E+03  0.50670780061E+03  0.20000017256E+01 0.  0.
        -13    1    3    3    0    0 -0.22509769652E+02  0.15858467422E+02 -0.77661215694E+02  0.82398157175E+02  0.10566000000E+00 0.  1.
         13    1    4    4    0    0  0.16144211710E+02 -0.10312012777E+02 -0.35392664628E+03  0.35444471401E+03  0.10566000000E+00 0. -1.
        -13    1    4    4    0    0  0.40669969811E+01 -0.33719736894E+01 -0.95892336699E+02  0.96037815847E+02  0.10566000000E+00 0.  1.
         14    1    4    4    0    0  0.22985609604E+01 -0.21744809553E+01 -0.56136167679E+02  0.56225270756E+02  0.00000000000E+00 0. -1.
<mgrwt>
<rscale>  0 0.80235693E+02</rscale>
<asrwt>0</asrwt>
<pdfrwt beam="1">  1        2 0.90209310E-01 0.80235693E+02</pdfrwt>
<pdfrwt beam="2">  1       -1 0.42227673E-03 0.80235693E+02</pdfrwt>
<totfact> 0.31712283E+05</totfact>
</mgrwt>
</event>
<event>
 8    1  0.1226832E-024  0.7991678E+02  0.7818608E-02  0.1329288E+00
          2   -1    0    0  501    0  0.00000000000E+00  0.00000000000E+00  0.16631641705E+02  0.16631641901E+02  0.25500000000E-02 0. -1.
         -1   -1    0    0    0  501 -0.00000000000E+00 -0.00000000000E+00 -0.96002120679E+02  0.96002120812E+02  0.50400000000E-02 0.  1.
         24    2    1    2    0    0  0.35527136788E-14  0.88817841970E-15 -0.79370478974E+02  0.11263376271E+03  0.79916779028E+02 0.  0.
         66    2    3    3    0    0 -0.29078577264E+02 -0.76726813539E+01 -0.26821432038E+01  0.30259338878E+02  0.20000005776E+01 0.  0.
        -13    1    3    3    0    0  0.29078577264E+02  0.76726813539E+01 -0.76688335770E+02  0.82374423835E+02  0.10566000000E+00 0.  1.
         13    1    4    4    0    0 -0.18589707412E+02 -0.50071073025E+01 -0.80386637709E+00  0.19269294496E+02  0.10566000000E+00 0. -1.
        -13    1    4    4    0    0 -0.41964108177E+01 -0.10828350086E+01 -0.91172698235E+00  0.44299893377E+01  0.10566000000E+00 0.  1.
         14    1    4    4    0    0 -0.62924590347E+01 -0.15827390428E+01 -0.96654984432E+00  0.65600550442E+01  0.00000000000E+00 0. -1.
<mgrwt>
<rscale>  0 0.79916779E+02</rscale>
<asrwt>0</asrwt>
<pdfrwt beam="1">  1        2 0.25587142E-02 0.79916779E+02</pdfrwt>
<pdfrwt beam="2">  1       -1 0.14769557E-01 0.79916779E+02</pdfrwt>
<totfact> 0.11987440E+05</totfact>
</mgrwt>
</event>
<event>
 8    1  0.1226832E-024  0.7742456E+02  0.7818608E-02  0.1336523E+00
         -1   -1    0    0    0  501 -0.00000000000E+00  0.00000000000E+00  0.32455622283E+01  0.32455661415E+01  0.50400000000E-02 0.  1.
          2   -1    0    0  501    0  0.00000000000E+00 -0.00000000000E+00 -0.46175039632E+03  0.46175039633E+03  0.25500000000E-02 0. -1.
         24    2    1    2    0    0 -0.35527136788E-14  0.00000000000E+00 -0.45850483409E+03  0.46499596247E+03  0.77424558291E+02 0.  0.
         66    2    3    3    0    0 -0.27489685407E+02  0.58686030645E+00 -0.39284737911E+03  0.39381352245E+03  0.19999948738E+01 0.  0.
        -13    1    3    3    0    0  0.27489685407E+02 -0.58686030645E+00 -0.65657454984E+02  0.71182440025E+02  0.10566000000E+00 0.  1.
         13    1    4    4    0    0 -0.10874212268E+02 -0.27636982345E-01 -0.15818396067E+03  0.15855732665E+03  0.10566000000E+00 0. -1.
        -13    1    4    4    0    0 -0.11007641632E+01 -0.30685788420E+00 -0.15730536946E+02  0.15772342887E+02  0.10566000000E+00 0.  1.
        -14    1    4    4    0    0 -0.15514708975E+02  0.92135517299E+00 -0.21893288149E+03  0.21948385291E+03  0.00000000000E+00 0.  1.
<mgrwt>
<rscale>  0 0.77424558E+02</rscale>
<asrwt>0</asrwt>
<pdfrwt beam="1">  1        2 0.71038471E-01 0.77424558E+02</pdfrwt>
<pdfrwt beam="2">  1       -1 0.49931793E-03 0.77424558E+02</pdfrwt>
<totfact> 0.32311965E+05</totfact>
</mgrwt>
</event>
<event>
 8    1  0.1226832E-024  0.8206598E+02  0.7818608E-02  0.1323289E+00
         -1   -1    0    0    0  501 -0.00000000000E+00  0.00000000000E+00  0.73695041948E+02  0.73695042120E+02  0.50400000000E-02 0.  1.
          2   -1    0    0  501    0  0.00000000000E+00 -0.00000000000E+00 -0.22846942187E+02  0.22846942330E+02  0.25500000000E-02 0. -1.
         24    2    1    2    0    0  0.00000000000E+00  0.00000000000E+00  0.50848099761E+02  0.96541984450E+02  0.82065982674E+02 0.  0.
         66    2    3    3    0    0  0.12767813306E+01 -0.12271032554E+02 -0.20568196288E+02  0.24067803421E+02  0.20000131164E+01 0.  0.
        -13    1    3    3    0    0 -0.12767813306E+01  0.12271032554E+02  0.71416296049E+02  0.72474181029E+02  0.10566000000E+00 0.  1.
         13    1    4    4    0    0  0.46117695382E+00 -0.12730153435E+01 -0.16591030864E+01  0.21440707391E+01  0.10566000000E+00 0. -1.
        -13    1    4    4    0    0  0.10410939400E+01 -0.84756311920E+01 -0.13977650066E+02  0.16380050857E+02  0.10566000000E+00 0.  1.
        -14    1    4    4    0    0 -0.22548956318E+00 -0.25223860184E+01 -0.49314431360E+01  0.55436818246E+01  0.00000000000E+00 0.  1.
<mgrwt>
<rscale>  0 0.82065983E+02</rscale>
<asrwt>0</asrwt>
<pdfrwt beam="1">  1        2 0.35149142E-02 0.82065983E+02</pdfrwt>
<pdfrwt beam="2">  1       -1 0.11337699E-01 0.82065983E+02</pdfrwt>
<totfact> 0.11856103E+05</totfact>
</mgrwt>
</event>
<event>
 8    1  0.1226832E-024  0.8031977E+02  0.7818608E-02  0.1328146E+00
         -1   -1    0    0    0  501 -0.00000000000E+00  0.00000000000E+00  0.46430897164E+01  0.46430924518E+01  0.50400000000E-02 0.  1.
          2   -1    0    0  501    0  0.00000000000E+00 -0.00000000000E+00 -0.34735831325E+03  0.34735831326E+03  0.25500000000E-02 0. -1.
         24    2    1    2    0    0  0.00000000000E+00  0.00000000000E+00 -0.34271522353E+03  0.35200140571E+03  0.80319768307E+02 0.  0.
         66    2    3    3    0    0 -0.24217031043E+02 -0.28842451830E+02 -0.23226192181E+03  0.23530395653E+03  0.20000037199E+01 0.  0.
        -13    1    3    3    0    0  0.24217031043E+02  0.28842451830E+02 -0.11045330172E+03  0.11669744918E+03  0.10566000000E+00 0.  1.
         13    1    4    4    0    0 -0.21030155386E+01 -0.27102424161E+01 -0.21645345417E+02  0.21915753023E+02  0.10566000000E+00 0.  1.
        -13    1    4    4    0    0 -0.22707322793E+01 -0.33149742600E+01 -0.27318318357E+02  0.27612442147E+02  0.10566000000E+00 0.  1.
         14    1    4    4    0    0 -0.19843283225E+02 -0.22817235154E+02 -0.18329825804E+03  0.18577576136E+03  0.00000000000E+00 0. -1.
<mgrwt>
<rscale>  0 0.80319768E+02</rscale>
<asrwt>0</asrwt>
<pdfrwt beam="1">  1        2 0.53439720E-01 0.80319768E+02</pdfrwt>
<pdfrwt beam="2">  1       -1 0.71432198E-03 0.80319768E+02</pdfrwt>
<totfact> 0.26597589E+05</totfact>
</mgrwt>
</event>
<event>
 8    1  0.1226832E-024  0.8013623E+02  0.7818608E-02  0.1328665E+00
          2   -1    0    0  501    0  0.00000000000E+00  0.00000000000E+00  0.24886076066E+02  0.24886076196E+02  0.25500000000E-02 0. -1.
         -1   -1    0    0    0  501 -0.00000000000E+00 -0.00000000000E+00 -0.64512139077E+02  0.64512139274E+02  0.50400000000E-02 0.  1.
         24    2    1    2    0    0  0.00000000000E+00  0.17763568394E-14 -0.39626063012E+02  0.89398215471E+02  0.80136234373E+02 0.  0.
         66    2    3    3    0    0 -0.33639735992E+02  0.14530081496E+02 -0.18131949202E+01  0.36742928336E+02  0.20000002533E+01 0.  0.
        -13    1    3    3    0    0  0.33639735992E+02 -0.14530081496E+02 -0.37812868092E+02  0.52655287135E+02  0.10566000000E+00 0.  1.
         13    1    4    4    0    0 -0.14429381589E+02  0.66675625536E+01 -0.20233663910E+00  0.15897029521E+02  0.10566000000E+00 0. -1.
        -13    1    4    4    0    0 -0.19366055797E+01  0.10177901023E+01  0.54311051320E-01  0.21909932883E+01  0.10566000000E+00 0.  1.
        -14    1    4    4    0    0 -0.17273748823E+02  0.68447288399E+01 -0.16651693324E+01  0.18654905526E+02  0.00000000000E+00 0.  1.
<mgrwt>
<rscale>  0 0.80136234E+02</rscale>
<asrwt>0</asrwt>
<pdfrwt beam="1">  1        2 0.38286271E-02 0.80136234E+02</pdfrwt>
<pdfrwt beam="2">  1       -1 0.99249445E-02 0.80136234E+02</pdfrwt>
<totfact> 0.12906325E+05</totfact>
</mgrwt>
</event>
<event>
 8    1  0.1226832E-024  0.7809968E+02  0.7818608E-02  0.1334532E+00
          2   -1    0    0  501    0  0.00000000000E+00  0.00000000000E+00  0.32411780415E+03  0.32411780416E+03  0.25500000000E-02 0. -1.
         -1   -1    0    0    0  501 -0.00000000000E+00 -0.00000000000E+00 -0.47047389287E+01  0.47047416283E+01  0.50400000000E-02 0.  1.
         24    2    1    2    0    0  0.00000000000E+00 -0.17763568394E-14  0.31941306522E+03  0.32882254578E+03  0.78099682359E+02 0.  0.
         66    2    3    3    0    0  0.64032432701E+01 -0.15867350971E+02  0.30747830873E+03  0.30796052460E+03  0.20000063313E+01 0.  0.
        -13    1    3    3    0    0 -0.64032432701E+01  0.15867350971E+02  0.11934756490E+02  0.20862021181E+02  0.10566000000E+00 0.  1.
         13    1    4    4    0    0  0.49531275018E+01 -0.13595747865E+02  0.25670588427E+03  0.25711339913E+03  0.10566000000E+00 0. -1.
        -13    1    4    4    0    0  0.25269681314E+00 -0.79047978902E+00  0.13236348179E+02  0.13262759559E+02  0.10566000000E+00 0.  1.
        -14    1    4    4    0    0  0.11974189552E+01 -0.14811233172E+01  0.37536076282E+02  0.37584365913E+02  0.00000000000E+00 0.  1.
<mgrwt>
<rscale>  0 0.78099682E+02</rscale>
<asrwt>0</asrwt>
<pdfrwt beam="1">  1        2 0.49864272E-01 0.78099682E+02</pdfrwt>
<pdfrwt beam="2">  1       -1 0.72380629E-03 0.78099682E+02</pdfrwt>
<totfact> 0.27918517E+05</totfact>
</mgrwt>
</event>
<event>
 8    1  0.1226832E-024  0.8133762E+02  0.7818608E-02  0.1325298E+00
          2   -1    0    0  501    0  0.00000000000E+00  0.00000000000E+00  0.16672313846E+03  0.16672313848E+03  0.25500000000E-02 0. -1.
         -1   -1    0    0    0  501 -0.00000000000E+00 -0.00000000000E+00 -0.99203512984E+01  0.99203525787E+01  0.50400000000E-02 0.  1.
         24    2    1    2    0    0 -0.71054273576E-14  0.00000000000E+00  0.15680278717E+03  0.17664349106E+03  0.81337622732E+02 0.  0.
         66    2    3    3    0    0  0.39992323857E+02 -0.51794052848E+01  0.89465794588E+02  0.98154676955E+02  0.20000000420E+01 0.  0.
        -13    1    3    3    0    0 -0.39992323857E+02  0.51794052848E+01  0.67336992578E+02  0.78488814108E+02  0.10566000000E+00 0.  1.
         13    1    4    4    0    0  0.11422240168E+02 -0.14488011794E+01  0.25557797611E+02  0.28031745898E+02  0.10566000000E+00 0. -1.
        -13    1    4    4    0    0  0.14636343038E+02 -0.27222577038E+01  0.32407095953E+02  0.35663205922E+02  0.10566000000E+00 0.  1.
        -14    1    4    4    0    0  0.13933740651E+02 -0.10083464016E+01  0.31500901025E+02  0.34459725135E+02  0.00000000000E+00 0.  1.
<mgrwt>
<rscale>  0 0.81337623E+02</rscale>
<asrwt>0</asrwt>
<pdfrwt beam="1">  1        2 0.25649712E-01 0.81337623E+02</pdfrwt>
<pdfrwt beam="2">  1       -1 0.15262081E-02 0.81337623E+02</pdfrwt>
<totfact> 0.19843159E+05</totfact>
</mgrwt>
</event>
<event>
 8    1  0.1347213E-024  0.7948630E+02  0.7818608E-02  0.1330516E+00
          2   -1    0    0  501    0  0.00000000000E+00  0.00000000000E+00  0.10555980232E+04  0.10555980232E+04  0.25500000000E-02 0. -1.
         -1   -1    0    0    0  501 -0.00000000000E+00 -0.00000000000E+00 -0.14963211737E+01  0.14963296617E+01  0.50400000000E-02 0.  1.
         24    2    1    2    0    0  0.00000000000E+00 -0.17763568394E-14  0.10541017020E+04  0.10570943529E+04  0.79486304756E+02 0.  0.
         66    2    3    3    0    0  0.11372467015E+02  0.14131649225E+02  0.99729032780E+03  0.99745728452E+03  0.19999986513E+01 0.  0.
        -13    1    3    3    0    0 -0.11372467015E+02 -0.14131649225E+02  0.56811374246E+02  0.59637068369E+02  0.10566000000E+00 0.  1.
         13    1    4    4    0    0  0.42298261864E+01  0.50076439714E+01  0.36481111077E+03  0.36487001197E+03  0.10566000000E+00 0. -1.
        -13    1    4    4    0    0  0.41637477264E+01  0.43817076639E+01  0.35625537785E+03  0.35630666787E+03  0.10566000000E+00 0.  1.
        -14    1    4    4    0    0  0.29788931025E+01  0.47422975897E+01  0.27622383918E+03  0.27628060468E+03  0.00000000000E+00 0.  1.
<mgrwt>
<rscale>  0 0.79486305E+02</rscale>
<asrwt>0</asrwt>
<pdfrwt beam="1">  1        2 0.16239894E+00 0.79486305E+02</pdfrwt>
<pdfrwt beam="2">  1       -1 0.23020499E-03 0.79486305E+02</pdfrwt>
<totfact> 0.35868024E+05</totfact>
</mgrwt>
</event>
<event>
 8    1  0.1226832E-024  0.7793323E+02  0.7818608E-02  0.1335021E+00
          2   -1    0    0  501    0  0.00000000000E+00  0.00000000000E+00  0.96995047422E+02  0.96995047456E+02  0.25500000000E-02 0. -1.
         -1   -1    0    0    0  501 -0.00000000000E+00 -0.00000000000E+00 -0.15654378296E+02  0.15654379107E+02  0.50400000000E-02 0.  1.
         24    2    1    2    0    0  0.00000000000E+00  0.55511151231E-16  0.81340669126E+02  0.11264942656E+03  0.77933233290E+02 0.  0.
         66    2    3    3    0    0  0.10864970373E+02  0.43325155029E+00  0.94745621459E+02  0.95388511199E+02  0.19999987639E+01 0.  0.
        -13    1    3    3    0    0 -0.10864970373E+02 -0.43325155029E+00 -0.13404952333E+02  0.17260915363E+02  0.10566000000E+00 0.  1.
         13    1    4    4    0    0  0.42328719874E+01  0.33051085099E+00  0.36273630614E+02  0.36521416794E+02  0.10566000000E+00 0. -1.
        -13    1    4    4    0    0  0.50487736856E+01 -0.39002479935E+00  0.47711126004E+02  0.47979213662E+02  0.10566000000E+00 0.  1.
        -14    1    4    4    0    0  0.15833246996E+01  0.49276549864E+00  0.10760864841E+02  0.10887880743E+02  0.00000000000E+00 0.  1.
<mgrwt>
<rscale>  0 0.77933233E+02</rscale>
<asrwt>0</asrwt>
<pdfrwt beam="1">  1        2 0.14922315E-01 0.77933233E+02</pdfrwt>
<pdfrwt beam="2">  1       -1 0.24083659E-02 0.77933233E+02</pdfrwt>
<totfact> 0.18851582E+05</totfact>
</mgrwt>
</event>
<event>
 8    1  0.1226832E-024  0.8066582E+02  0.7818608E-02  0.1327172E+00
         -1   -1    0    0    0  501 -0.00000000000E+00  0.00000000000E+00  0.26378071450E+02  0.26378071932E+02  0.50400000000E-02 0.  1.
          2   -1    0    0  501    0  0.00000000000E+00 -0.00000000000E+00 -0.61670296967E+02  0.61670297020E+02  0.25500000000E-02 0. -1.
         24    2    1    2    0    0  0.00000000000E+00 -0.71054273576E-14 -0.35292225517E+02  0.88048368952E+02  0.80665817377E+02 0.  0.
         66    2    3    3    0    0  0.82473018545E+01 -0.33116035440E+02 -0.41068670940E+02  0.53435246052E+02  0.19999991782E+01 0.  0.
        -13    1    3    3    0    0 -0.82473018545E+01  0.33116035440E+02  0.57764454226E+01  0.34613122900E+02  0.10566000000E+00 0.  1.
         13    1    4    4    0    0  0.95957066631E+00 -0.35021288242E+01 -0.37289127190E+01  0.52059231906E+01  0.10566000000E+00 0. -1.
        -13    1    4    4    0    0  0.37831004895E+01 -0.17269260543E+02 -0.22353323560E+02  0.28499499070E+02  0.10566000000E+00 0.  1.
         14    1    4    4    0    0  0.35046306987E+01 -0.12344646073E+02 -0.14986434661E+02  0.19729823792E+02  0.00000000000E+00 0. -1.
<mgrwt>
<rscale>  0 0.80665817E+02</rscale>
<asrwt>0</asrwt>
<pdfrwt beam="1">  1        2 0.94877380E-02 0.80665817E+02</pdfrwt>
<pdfrwt beam="2">  1       -1 0.40581649E-02 0.80665817E+02</pdfrwt>
<totfact> 0.15316527E+05</totfact>
</mgrwt>
</event>
<event>
 8    1  0.1226832E-024  0.8094754E+02  0.7818608E-02  0.1326384E+00
          2   -1    0    0  501    0  0.00000000000E+00  0.00000000000E+00  0.62276428966E+02  0.62276429019E+02  0.25500000000E-02 0. -1.
         -1   -1    0    0    0  501 -0.00000000000E+00 -0.00000000000E+00 -0.26304106789E+02  0.26304107272E+02  0.50400000000E-02 0.  1.
         24    2    1    2    0    0  0.00000000000E+00  0.17763568394E-14  0.35972322177E+02  0.88580536291E+02  0.80947535149E+02 0.  0.
         66    2    3    3    0    0  0.17197832886E+01  0.11161963607E+02  0.60499950805E+02  0.61577521343E+02  0.20000002897E+01 0.  0.
        -13    1    3    3    0    0 -0.17197832886E+01 -0.11161963607E+02 -0.24527628628E+02  0.27003014948E+02  0.10566000000E+00 0.  1.
         13    1    4    4    0    0  0.12672284652E+01  0.59761675281E+01  0.33312795452E+02  0.33868480202E+02  0.10566000000E+00 0. -1.
        -13    1    4    4    0    0 -0.41156448131E+00  0.13191137996E+01  0.65529397949E+01  0.66978825408E+01  0.10566000000E+00 0.  1.
        -14    1    4    4    0    0  0.86411930477E+00  0.38666822790E+01  0.20634215558E+02  0.21011158600E+02  0.00000000000E+00 0.  1.
<mgrwt>
<rscale>  0 0.80947535E+02</rscale>
<asrwt>0</asrwt>
<pdfrwt beam="1">  1        2 0.95809890E-02 0.80947535E+02</pdfrwt>
<pdfrwt beam="2">  1       -1 0.40467858E-02 0.80947535E+02</pdfrwt>
<totfact> 0.15206740E+05</totfact>
</mgrwt>
</event>
<event>
 8    1  0.1226832E-024  0.7948412E+02  0.7818608E-02  0.1330522E+00
          2   -1    0    0  501    0  0.00000000000E+00  0.00000000000E+00  0.21868069061E+03  0.21868069063E+03  0.25500000000E-02 0. -1.
         -1   -1    0    0    0  501 -0.00000000000E+00 -0.00000000000E+00 -0.72225452285E+01  0.72225469870E+01  0.50400000000E-02 0.  1.
         24    2    1    2    0    0 -0.35527136788E-14 -0.35527136788E-14  0.21145814539E+03  0.22590323762E+03  0.79484121153E+02 0.  0.
         66    2    3    3    0    0 -0.27332333851E+02 -0.23740690268E+02  0.15221463153E+03  0.15647354695E+03  0.19999986837E+01 0.  0.
        -13    1    3    3    0    0  0.27332333851E+02  0.23740690268E+02  0.59243513854E+02  0.69429690666E+02  0.10566000000E+00 0.  1.
         13    1    4    4    0    0 -0.26529926305E+01 -0.22159914521E+01  0.15263698261E+02  0.15650579435E+02  0.10566000000E+00 0. -1.
        -13    1    4    4    0    0 -0.10770039669E+02 -0.90275687743E+01  0.62365246137E+02  0.63929068836E+02  0.10566000000E+00 0.  1.
         14    1    4    4    0    0 -0.13909301552E+02 -0.12497130041E+02  0.74585687133E+02  0.76893898679E+02  0.00000000000E+00 0. -1.
<mgrwt>
<rscale>  0 0.79484121E+02</rscale>
<asrwt>0</asrwt>
<pdfrwt beam="1">  1        2 0.33643180E-01 0.79484121E+02</pdfrwt>
<pdfrwt beam="2">  1       -1 0.11111611E-02 0.79484121E+02</pdfrwt>
<totfact> 0.23149992E+05</totfact>
</mgrwt>
</event>
<event>
 8    1  0.1299739E-024  0.8305827E+02  0.7818608E-02  0.1320590E+00
         -1   -1    0    0    0  501 -0.00000000000E+00  0.00000000000E+00  0.44554375754E+01  0.44554404260E+01  0.50400000000E-02 0.  1.
          2   -1    0    0  501    0  0.00000000000E+00 -0.00000000000E+00 -0.38709291737E+03  0.38709291738E+03  0.25500000000E-02 0. -1.
         24    2    1    2    0    0  0.71054273576E-14  0.00000000000E+00 -0.38263747980E+03  0.39154835781E+03  0.83058266030E+02 0.  0.
         66    2    3    3    0    0  0.38352556612E+02 -0.80296774666E+01 -0.25594071254E+03  0.25893057501E+03  0.20000040102E+01 0.  0.
        -13    1    3    3    0    0 -0.38352556612E+02  0.80296774666E+01 -0.12669676725E+03  0.13261778280E+03  0.10566000000E+00 0.  1.
         13    1    4    4    0    0  0.25524044854E+02 -0.56806569712E+01 -0.16824302292E+03  0.17026295150E+03  0.10566000000E+00 0. -1.
        -13    1    4    4    0    0  0.10602635854E+02 -0.21898411298E+01 -0.70745417156E+02  0.71569102997E+02  0.10566000000E+00 0.  1.
        -14    1    4    4    0    0  0.22258759030E+01 -0.15917936558E+00 -0.16952272473E+02  0.17098520510E+02  0.00000000000E+00 0.  1.
<mgrwt>
<rscale>  0 0.83058266E+02</rscale>
<asrwt>0</asrwt>
<pdfrwt beam="1">  1        2 0.59552730E-01 0.83058266E+02</pdfrwt>
<pdfrwt beam="2">  1       -1 0.68545246E-03 0.83058266E+02</pdfrwt>
<totfact> 0.25317311E+05</totfact>
</mgrwt>
</event>
<event>
 8    1  0.1226832E-024  0.7441702E+02  0.7818608E-02  0.1345686E+00
          2   -1    0    0  501    0  0.00000000000E+00  0.00000000000E+00  0.12702125972E+03  0.12702125975E+03  0.25500000000E-02 0. -1.
         -1   -1    0    0    0  501 -0.00000000000E+00 -0.00000000000E+00 -0.10899539455E+02  0.10899540620E+02  0.50400000000E-02 0.  1.
         24    2    1    2    0    0  0.00000000000E+00  0.00000000000E+00  0.11612172027E+03  0.13792080037E+03  0.74417022625E+02 0.  0.
         66    2    3    3    0    0 -0.23193710986E+02 -0.21419229483E+02  0.94502818354E+02  0.99656983192E+02  0.20000002879E+01 0.  0.
        -13    1    3    3    0    0  0.23193710986E+02  0.21419229483E+02  0.21618901913E+02  0.38263817176E+02  0.10566000000E+00 0.  1.
         13    1    4    4    0    0 -0.72780377567E+01 -0.71493755412E+01  0.29790806106E+02  0.31489469616E+02  0.10566000000E+00 0. -1.
        -13    1    4    4    0    0 -0.93984327498E+01 -0.89342933507E+01  0.41179711303E+02  0.43173277879E+02  0.10566000000E+00 0.  1.
        -14    1    4    4    0    0 -0.65172404794E+01 -0.53355605907E+01  0.23532300946E+02  0.24994235697E+02  0.00000000000E+00 0.  1.
<mgrwt>
<rscale>  0 0.74417023E+02</rscale>
<asrwt>0</asrwt>
<pdfrwt beam="1">  1        2 0.19541730E-01 0.74417023E+02</pdfrwt>
<pdfrwt beam="2">  1       -1 0.16768525E-02 0.74417023E+02</pdfrwt>
<totfact> 0.23030281E+05</totfact>
</mgrwt>
</event>
<event>
 8    1  0.1226832E-024  0.7878230E+02  0.7818608E-02  0.1332543E+00
         -1   -1    0    0    0  501 -0.00000000000E+00  0.00000000000E+00  0.12373894854E+03  0.12373894864E+03  0.50400000000E-02 0.  1.
          2   -1    0    0  501    0  0.00000000000E+00 -0.00000000000E+00 -0.12539806587E+02  0.12539806846E+02  0.25500000000E-02 0. -1.
         24    2    1    2    0    0  0.00000000000E+00  0.00000000000E+00  0.11119914195E+03  0.13627875548E+03  0.78782295132E+02 0.  0.
         66    2    3    3    0    0  0.30076511786E+02 -0.24284701611E+02  0.42770056148E+02  0.57685535413E+02  0.19999998705E+01 0.  0.
        -13    1    3    3    0    0 -0.30076511786E+02  0.24284701611E+02  0.68429085801E+02  0.78593220071E+02  0.10566000000E+00 0.  1.
         13    1    4    4    0    0  0.27655750496E+00 -0.38535523994E+00  0.61707276003E+00  0.78544607789E+00  0.10566000000E+00 0. -1.
        -13    1    4    4    0    0  0.77682569161E+00 -0.56852018569E+00  0.84588298638E+00  0.12858286896E+01  0.10566000000E+00 0. -1.
         14    1    4    4    0    0  0.29023128589E+02 -0.23330826186E+02  0.41307100401E+02  0.55614260646E+02  0.00000000000E+00 0. -1.
<mgrwt>
<rscale>  0 0.78782295E+02</rscale>
<asrwt>0</asrwt>
<pdfrwt beam="1">  1        2 0.19292012E-02 0.78782295E+02</pdfrwt>
<pdfrwt beam="2">  1       -1 0.19036760E-01 0.78782295E+02</pdfrwt>
<totfact> 0.11748218E+05</totfact>
</mgrwt>
</event>
<event>
 8    1  0.1226832E-024  0.8206989E+02  0.7818608E-02  0.1323278E+00
          2   -1    0    0  501    0  0.00000000000E+00  0.00000000000E+00  0.51505950153E+03  0.51505950154E+03  0.25500000000E-02 0. -1.
         -1   -1    0    0    0  501 -0.00000000000E+00 -0.00000000000E+00 -0.32692647235E+01  0.32692686085E+01  0.50400000000E-02 0.  1.
         24    2    1    2    0    0 -0.35527136788E-14  0.11102230246E-15  0.51179023681E+03  0.51832877015E+03  0.82069893807E+02 0.  0.
         66    2    3    3    0    0  0.24620540634E+02 -0.72388579170E+00  0.46313678106E+03  0.46379561553E+03  0.19999964954E+01 0.  0.
        -13    1    3    3    0    0 -0.24620540634E+02  0.72388579170E+00  0.48653455749E+02  0.54533154613E+02  0.10566000000E+00 0.  1.
         13    1    4    4    0    0  0.69185684620E+01 -0.53967854566E-01  0.13712816871E+03  0.13730264134E+03  0.10566000000E+00 0. -1.
        -13    1    4    4    0    0  0.54058951185E+01 -0.85714122970E+00  0.96627101017E+02  0.96782055197E+02  0.10566000000E+00 0.  1.
        -14    1    4    4    0    0  0.12296077053E+02  0.18722329256E+00  0.22938151134E+03  0.22971091900E+03  0.00000000000E+00 0.  1.
<mgrwt>
<rscale>  0 0.82069894E+02</rscale>
<asrwt>0</asrwt>
<pdfrwt beam="1">  1        2 0.79239932E-01 0.82069894E+02</pdfrwt>
<pdfrwt beam="2">  1       -1 0.50296405E-03 0.82069894E+02</pdfrwt>
<totfact> 0.28756483E+05</totfact>
</mgrwt>
</event>
<event>
 8    1  0.1659516E-024  0.7769382E+02  0.7818608E-02  0.1335726E+00
          2   -1    0    0  501    0  0.00000000000E+00  0.00000000000E+00  0.22778951584E+03  0.22778951585E+03  0.25500000000E-02 0. -1.
         -1   -1    0    0    0  501 -0.00000000000E+00 -0.00000000000E+00 -0.66248983034E+01  0.66249002205E+01  0.50400000000E-02 0.  1.
         24    2    1    2    0    0  0.00000000000E+00  0.00000000000E+00  0.22116461753E+03  0.23441441607E+03  0.77693824810E+02 0.  0.
         66    2    3    3    0    0 -0.27554673292E+02  0.19742375832E+02  0.16774714429E+03  0.17114942547E+03  0.19999996452E+01 0.  0.
        -13    1    3    3    0    0  0.27554673292E+02 -0.19742375832E+02  0.53417473244E+02  0.63264990600E+02  0.10566000000E+00 0.  1.
         13    1    4    4    0    0 -0.16167440578E+02  0.11883030796E+02  0.10117291709E+03  0.10314340925E+03  0.10566000000E+00 0. -1.
        -13    1    4    4    0    0 -0.65423371780E+01  0.43949436821E+01  0.40540519481E+02  0.41299668153E+02  0.10566000000E+00 0.  1.
        -14    1    4    4    0    0 -0.48448955356E+01  0.34644013543E+01  0.26033707718E+02  0.26706348066E+02  0.00000000000E+00 0.  1.
<mgrwt>
<rscale>  0 0.77693825E+02</rscale>
<asrwt>0</asrwt>
<pdfrwt beam="1">  1        2 0.35044541E-01 0.77693825E+02</pdfrwt>
<pdfrwt beam="2">  1       -1 0.10192153E-02 0.77693825E+02</pdfrwt>
<totfact> 0.24935305E+05</totfact>
</mgrwt>
</event>
<event>
 8    1  0.1226832E-024  0.7813135E+02  0.7818608E-02  0.1334440E+00
         -1   -1    0    0    0  501 -0.00000000000E+00  0.00000000000E+00  0.27694826891E+02  0.27694827349E+02  0.50400000000E-02 0.  1.
          2   -1    0    0  501    0  0.00000000000E+00 -0.00000000000E+00 -0.55105132198E+02  0.55105132257E+02  0.25500000000E-02 0. -1.
         24    2    1    2    0    0  0.00000000000E+00  0.00000000000E+00 -0.27410305307E+02  0.82799959606E+02  0.78131353974E+02 0.  0.
         66    2    3    3    0    0 -0.20408071897E+02 -0.29582953747E+02  0.24443199315E+01  0.36077905252E+02  0.19999991243E+01 0.  0.
        -13    1    3    3    0    0  0.20408071897E+02  0.29582953747E+02 -0.29854625238E+02  0.46722054354E+02  0.10566000000E+00 0.  1.
         13    1    4    4    0    0 -0.78005722406E+01 -0.11978212224E+02  0.22212092731E+00  0.14296398047E+02  0.10566000000E+00 0. -1.
        -13    1    4    4    0    0 -0.68256818109E+01 -0.10189269886E+02  0.12329254145E+01  0.12326492693E+02  0.10566000000E+00 0.  1.
         14    1    4    4    0    0 -0.57818178456E+01 -0.74154716358E+01  0.98927358971E+00  0.94550145117E+01  0.00000000000E+00 0. -1.
<mgrwt>
<rscale>  0 0.78131354E+02</rscale>
<asrwt>0</asrwt>
<pdfrwt beam="1">  1        2 0.84777127E-02 0.78131354E+02</pdfrwt>
<pdfrwt beam="2">  1       -1 0.42607427E-02 0.78131354E+02</pdfrwt>
<totfact> 0.16283145E+05</totfact>
</mgrwt>
</event>
<event>
 8    1  0.1226832E-024  0.8118311E+02  0.7818608E-02  0.1325727E+00
          2   -1    0    0  501    0  0.00000000000E+00  0.00000000000E+00  0.60458393736E+02  0.60458393790E+02  0.25500000000E-02 0. -1.
         -1   -1    0    0    0  501 -0.00000000000E+00 -0.00000000000E+00 -0.27253029025E+02  0.27253029491E+02  0.50400000000E-02 0.  1.
         24    2    1    2    0    0  0.35527136788E-14  0.00000000000E+00  0.33205364711E+02  0.87711423281E+02  0.81183111103E+02 0.  0.
         66    2    3    3    0    0 -0.21720051578E+02  0.74274935333E+01  0.52749994373E+02  0.57562923925E+02  0.20000009131E+01 0.  0.
        -13    1    3    3    0    0  0.21720051578E+02 -0.74274935333E+01 -0.19544629663E+02  0.30148499356E+02  0.10566000000E+00 0.  1.
         13    1    4    4    0    0 -0.36084516516E+01  0.18773361804E+01  0.10282035715E+02  0.11057881214E+02  0.10566000000E+00 0. -1.
        -13    1    4    4    0    0 -0.48103824151E+01  0.13253187022E+01  0.11688192874E+02  0.12709101673E+02  0.10566000000E+00 0.  1.
         14    1    4    4    0    0 -0.13301217511E+02  0.42248386506E+01  0.30779765784E+02  0.33795941038E+02  0.00000000000E+00 0. -1.
<mgrwt>
<rscale>  0 0.81183111E+02</rscale>
<asrwt>0</asrwt>
<pdfrwt beam="1">  1        2 0.93012914E-02 0.81183111E+02</pdfrwt>
<pdfrwt beam="2">  1       -1 0.41927737E-02 0.81183111E+02</pdfrwt>
<totfact> 0.14982625E+05</totfact>
</mgrwt>
</event>
<event>
 8    1  0.1226832E-024  0.8257749E+02  0.7818608E-02  0.1321892E+00
         -1   -1    0    0    0  501 -0.00000000000E+00  0.00000000000E+00  0.11061873188E+03  0.11061873199E+03  0.50400000000E-02 0.  1.
          2   -1    0    0  501    0  0.00000000000E+00 -0.00000000000E+00 -0.15411135496E+02  0.15411135707E+02  0.25500000000E-02 0. -1.
         24    2    1    2    0    0  0.00000000000E+00  0.00000000000E+00  0.95207596380E+02  0.12602986770E+03  0.82577485693E+02 0.  0.
         66    2    3    3    0    0  0.11784641423E+02  0.13539832996E+02 -0.90755242821E+01  0.20213114439E+02  0.20000008264E+01 0.  0.
        -13    1    3    3    0    0 -0.11784641423E+02 -0.13539832996E+02  0.10428312066E+03  0.10581675326E+03  0.10566000000E+00 0.  1.
         13    1    4    4    0    0  0.26496644269E+01  0.36578519239E+01 -0.19656249817E+01  0.49270120638E+01  0.10566000000E+00 0. -1.
        -13    1    4    4    0    0  0.13265403273E+01  0.22093572699E+01 -0.11845125394E+01  0.28381689127E+01  0.10566000000E+00 0.  1.
        -14    1    4    4    0    0  0.78084366686E+01  0.76726238024E+01 -0.59253867611E+01  0.12447933463E+02  0.00000000000E+00 0.  1.
<mgrwt>
<rscale>  0 0.82577486E+02</rscale>
<asrwt>0</asrwt>
<pdfrwt beam="1">  1        2 0.23709440E-02 0.82577486E+02</pdfrwt>
<pdfrwt beam="2">  1       -1 0.17018266E-01 0.82577486E+02</pdfrwt>
<totfact> 0.10710579E+05</totfact>
</mgrwt>
</event>
<event>
 8    1  0.1226832E-024  0.7877294E+02  0.7818608E-02  0.1332570E+00
          2   -1    0    0  501    0  0.00000000000E+00  0.00000000000E+00  0.45595517703E+02  0.45595517774E+02  0.25500000000E-02 0. -1.
         -1   -1    0    0    0  501 -0.00000000000E+00 -0.00000000000E+00 -0.34022949917E+02  0.34022950290E+02  0.50400000000E-02 0.  1.
         24    2    1    2    0    0  0.35527136788E-14 -0.35527136788E-14  0.11572567786E+02  0.79618468064E+02  0.78772940352E+02 0.  0.
         66    2    3    3    0    0  0.30491284511E+02 -0.17738441977E+02  0.23439345933E+02  0.42400161513E+02  0.20000009158E+01 0.  0.
        -13    1    3    3    0    0 -0.30491284511E+02  0.17738441977E+02 -0.11866778147E+02  0.37218306551E+02  0.10566000000E+00 0.  1.
         13    1    4    4    0    0  0.67049281337E+01 -0.40810914680E+01  0.45267677855E+01  0.90616863478E+01  0.10566000000E+00 0.  1.
        -13    1    4    4    0    0  0.13863602789E+01 -0.10234744262E+01  0.96524420799E+00  0.19779674266E+01  0.10566000000E+00 0.  1.
         14    1    4    4    0    0  0.22399996099E+02 -0.12633876083E+02  0.17947333939E+02  0.31360507739E+02  0.00000000000E+00 0. -1.
<mgrwt>
<rscale>  0 0.78772940E+02</rscale>
<asrwt>0</asrwt>
<pdfrwt beam="1">  1        2 0.70146951E-02 0.78772940E+02</pdfrwt>
<pdfrwt beam="2">  1       -1 0.52343000E-02 0.78772940E+02</pdfrwt>
<totfact> 0.15285166E+05</totfact>
</mgrwt>
</event>
<event>
 8    1  0.1226832E-024  0.8447068E+02  0.7818608E-02  0.1316823E+00
         -1   -1    0    0    0  501 -0.00000000000E+00  0.00000000000E+00  0.17719306410E+01  0.17719378087E+01  0.50400000000E-02 0.  1.
          2   -1    0    0  501    0  0.00000000000E+00 -0.00000000000E+00 -0.10067101120E+04  0.10067101120E+04  0.25500000000E-02 0. -1.
         24    2    1    2    0    0  0.17763568394E-14  0.00000000000E+00 -0.10049381813E+04  0.10084820498E+04  0.84470683907E+02 0.  0.
         66    2    3    3    0    0  0.13981877341E+02 -0.94299424883E+01 -0.96473875771E+03  0.96488822531E+03  0.19999987413E+01 0.  0.
        -13    1    3    3    0    0 -0.13981877341E+02  0.94299424883E+01 -0.40199423637E+02  0.43593824495E+02  0.10566000000E+00 0.  1.
         13    1    4    4    0    0  0.61073522469E+01 -0.38251034113E+01 -0.38665075193E+03  0.38671791567E+03  0.10566000000E+00 0. -1.
        -13    1    4    4    0    0  0.55612882651E+01 -0.32086724069E+01 -0.38766085531E+03  0.38771403561E+03  0.10566000000E+00 0.  1.
         14    1    4    4    0    0  0.23132368294E+01 -0.23961666701E+01 -0.19042715048E+03  0.19045627403E+03  0.00000000000E+00 0. -1.
<mgrwt>
<rscale>  0 0.84470684E+02</rscale>
<asrwt>0</asrwt>
<pdfrwt beam="1">  1        2 0.15487802E+00 0.84470684E+02</pdfrwt>
<pdfrwt beam="2">  1       -1 0.27260607E-03 0.84470684E+02</pdfrwt>
<totfact> 0.30588691E+05</totfact>
</mgrwt>
</event>
<event>
 8    1  0.1277348E-024  0.8088609E+02  0.7818608E-02  0.1326555E+00
          2   -1    0    0  501    0  0.00000000000E+00  0.00000000000E+00  0.20604735169E+03  0.20604735171E+03  0.25500000000E-02 0. -1.
         -1   -1    0    0    0  501 -0.00000000000E+00 -0.00000000000E+00 -0.79381732599E+01  0.79381748599E+01  0.50400000000E-02 0.  1.
         24    2    1    2    0    0  0.00000000000E+00  0.00000000000E+00  0.19810917843E+03  0.21398552657E+03  0.80886086575E+02 0.  0.
         66    2    3    3    0    0 -0.11811548494E+02  0.16927015343E+02  0.19104806100E+03  0.19217023217E+03  0.19999988445E+01 0.  0.
        -13    1    3    3    0    0  0.11811548494E+02 -0.16927015343E+02  0.70611174369E+01  0.21815294399E+02  0.10566000000E+00 0.  1.
         13    1    4    4    0    0 -0.82186372372E+01  0.12534199435E+02  0.13776422265E+03  0.13857721443E+03  0.10566000000E+00 0. -1.
        -13    1    4    4    0    0 -0.32550178517E+01  0.39921730434E+01  0.45309598970E+02  0.45601573544E+02  0.10566000000E+00 0.  1.
        -14    1    4    4    0    0 -0.33789340483E+00  0.40064286490E+00  0.79742393798E+01  0.79914441964E+01  0.00000000000E+00 0.  1.
<mgrwt>
<rscale>  0 0.80886087E+02</rscale>
<asrwt>0</asrwt>
<pdfrwt beam="1">  1        2 0.31699589E-01 0.80886087E+02</pdfrwt>
<pdfrwt beam="2">  1       -1 0.12212577E-02 0.80886087E+02</pdfrwt>
<totfact> 0.21650034E+05</totfact>
</mgrwt>
</event>
<event>
 8    1  0.1226832E-024  0.7973070E+02  0.7818608E-02  0.1329817E+00
         -1   -1    0    0    0  501 -0.00000000000E+00  0.00000000000E+00  0.39880410915E+03  0.39880410918E+03  0.50400000000E-02 0.  1.
          2   -1    0    0  501    0  0.00000000000E+00 -0.00000000000E+00 -0.39850285719E+01  0.39850293877E+01  0.25500000000E-02 0. -1.
         24    2    1    2    0    0 -0.35527136788E-14  0.00000000000E+00  0.39481908058E+03  0.40278913857E+03  0.79730695225E+02 0.  0.
         66    2    3    3    0    0  0.27621086551E+02 -0.28083800368E+02  0.16738397362E+03  0.17196807518E+03  0.19999973412E+01 0.  0.
        -13    1    3    3    0    0 -0.27621086551E+02  0.28083800368E+02  0.22743510696E+03  0.23082106339E+03  0.10566000000E+00 0.  1.
         13    1    4    4    0    0  0.12845881509E+02 -0.13940135221E+02  0.81875348098E+02  0.84041226977E+02  0.10566000000E+00 0. -1.
        -13    1    4    4    0    0  0.70949697358E+01 -0.66176342255E+01  0.38454131168E+02  0.39659337440E+02  0.10566000000E+00 0. -1.
        -14    1    4    4    0    0  0.76802353057E+01 -0.75260309219E+01  0.47054494360E+02  0.48267510763E+02  0.00000000000E+00 0.  1.
<mgrwt>
<rscale>  0 0.79730695E+02</rscale>
<asrwt>0</asrwt>
<pdfrwt beam="1">  1        2 0.61308127E-03 0.79730695E+02</pdfrwt>
<pdfrwt beam="2">  1       -1 0.61354490E-01 0.79730695E+02</pdfrwt>
<totfact> 0.76576495E+04</totfact>
</mgrwt>
</event>
<event>
 8    1  0.1226832E-024  0.8131843E+02  0.7818608E-02  0.1325351E+00
          2   -1    0    0  501    0  0.00000000000E+00  0.00000000000E+00  0.47016609457E+03  0.47016609458E+03  0.25500000000E-02 0. -1.
         -1   -1    0    0    0  501 -0.00000000000E+00 -0.00000000000E+00 -0.35161425345E+01  0.35161461467E+01  0.50400000000E-02 0.  1.
         24    2    1    2    0    0  0.00000000000E+00  0.00000000000E+00  0.46664995204E+03  0.47368224073E+03  0.81318432365E+02 0.  0.
         66    2    3    3    0    0  0.82663504793E+01  0.28384631285E+02  0.39585213841E+03  0.39695961419E+03  0.19999935713E+01 0.  0.
        -13    1    3    3    0    0 -0.82663504793E+01 -0.28384631285E+02  0.70797813633E+02  0.76722626537E+02  0.10566000000E+00 0.  1.
         13    1    4    4    0    0  0.84662330340E+00  0.32918533026E+01  0.48878913167E+02  0.48997065071E+02  0.10566000000E+00 0. -1.
        -13    1    4    4    0    0  0.19557628728E+01  0.43802917815E+01  0.64811392483E+02  0.64988766138E+02  0.10566000000E+00 0.  1.
        -14    1    4    4    0    0  0.54639643031E+01  0.20712486201E+02  0.28216183276E+03  0.28297378298E+03  0.00000000000E+00 0.  1.
<mgrwt>
<rscale>  0 0.81318432E+02</rscale>
<asrwt>0</asrwt>
<pdfrwt beam="1">  1        2 0.72333211E-01 0.81318432E+02</pdfrwt>
<pdfrwt beam="2">  1       -1 0.54094554E-03 0.81318432E+02</pdfrwt>
<totfact> 0.28603695E+05</totfact>
</mgrwt>
</event>
<event>
 8    1  0.1226832E-024  0.7364425E+02  0.7818608E-02  0.1348121E+00
         -1   -1    0    0    0  501 -0.00000000000E+00  0.00000000000E+00  0.26296994951E+01  0.26297043249E+01  0.50400000000E-02 0.  1.
          2   -1    0    0  501    0  0.00000000000E+00 -0.00000000000E+00 -0.51559794214E+03  0.51559794214E+03  0.25500000000E-02 0. -1.
         24    2    1    2    0    0  0.00000000000E+00  0.00000000000E+00 -0.51296824264E+03  0.51822764647E+03  0.73644250318E+02 0.  0.
         66    2    3    3    0    0  0.17858409111E+02 -0.28450091484E+02 -0.36235142641E+03  0.36391054768E+03  0.20000031658E+01 0.  0.
        -13    1    3    3    0    0 -0.17858409111E+02  0.28450091484E+02 -0.15061681623E+03  0.15431709878E+03  0.10566000000E+00 0.  1.
         13    1    4    4    0    0  0.11269250128E+01 -0.14530430172E+01 -0.21364106639E+02  0.21443355860E+02  0.10566000000E+00 0. -1.
        -13    1    4    4    0    0  0.39026037999E+00 -0.31276059202E+00 -0.58978293335E+01  0.59199389554E+01  0.10566000000E+00 0. -1.
         14    1    4    4    0    0  0.16341223718E+02 -0.26684287875E+02 -0.33508949044E+03  0.33654725287E+03  0.00000000000E+00 0. -1.
<mgrwt>
<rscale>  0 0.73644250E+02</rscale>
<asrwt>0</asrwt>
<pdfrwt beam="1">  1        2 0.79322680E-01 0.73644250E+02</pdfrwt>
<pdfrwt beam="2">  1       -1 0.40456994E-03 0.73644250E+02</pdfrwt>
<totfact> 0.38113758E+05</totfact>
</mgrwt>
</event>
<event>
 8    1  0.1226832E-024  0.7980972E+02  0.7818608E-02  0.1329592E+00
         -1   -1    0    0    0  501 -0.00000000000E+00  0.00000000000E+00  0.34974725357E+02  0.34974725720E+02  0.50400000000E-02 0.  1.
          2   -1    0    0  501    0  0.00000000000E+00 -0.00000000000E+00 -0.45529958684E+02  0.45529958755E+02  0.25500000000E-02 0. -1.
         24    2    1    2    0    0  0.00000000000E+00 -0.71054273576E-14 -0.10555233327E+02  0.80504684475E+02  0.79809719156E+02 0.  0.
         66    2    3    3    0    0  0.16020030913E+02  0.34511784286E+02  0.67683119919E+01  0.38697734915E+02  0.19999988196E+01 0.  0.
        -13    1    3    3    0    0 -0.16020030913E+02 -0.34511784286E+02 -0.17323545319E+02  0.41806949560E+02  0.10566000000E+00 0.  1.
         13    1    4    4    0    0  0.96525838833E+01  0.19304975088E+02  0.35508831715E+01  0.21874057102E+02  0.10566000000E+00 0. -1.
        -13    1    4    4    0    0  0.34276470614E+01  0.92474827818E+01  0.17129917343E+01  0.10010504827E+02  0.10566000000E+00 0.  1.
         14    1    4    4    0    0  0.29397999681E+01  0.59593264159E+01  0.15044370860E+01  0.68131729855E+01  0.00000000000E+00 0. -1.
<mgrwt>
<rscale>  0 0.79809719E+02</rscale>
<asrwt>0</asrwt>
<pdfrwt beam="1">  1        2 0.70046090E-02 0.79809719E+02</pdfrwt>
<pdfrwt beam="2">  1       -1 0.53807270E-02 0.79809719E+02</pdfrwt>
<totfact> 0.14741659E+05</totfact>
</mgrwt>
</event>
<event>
 8    1  0.1226832E-024  0.7980650E+02  0.7818608E-02  0.1329601E+00
         -1   -1    0    0    0  501 -0.00000000000E+00  0.00000000000E+00  0.17293131077E+02  0.17293131812E+02  0.50400000000E-02 0.  1.
          2   -1    0    0  501    0  0.00000000000E+00 -0.00000000000E+00 -0.92075249997E+02  0.92075250032E+02  0.25500000000E-02 0. -1.
         24    2    1    2    0    0  0.00000000000E+00  0.00000000000E+00 -0.74782118919E+02  0.10936838184E+03  0.79806501221E+02 0.  0.
         66    2    3    3    0    0  0.15525889648E+02 -0.32495811847E+02 -0.60881621125E+02  0.70764417800E+02  0.19999996824E+01 0.  0.
        -13    1    3    3    0    0 -0.15525889648E+02  0.32495811847E+02 -0.13900497794E+02  0.38603964044E+02  0.10566000000E+00 0.  1.
         13    1    4    4    0    0  0.31995224433E+01 -0.63947220362E+01 -0.11676205244E+02  0.13692127181E+02  0.10566000000E+00 0. -1.
        -13    1    4    4    0    0  0.10631077689E+02 -0.21185045269E+02 -0.39716484267E+02  0.46251878258E+02  0.10566000000E+00 0.  1.
        -14    1    4    4    0    0  0.16952895161E+01 -0.49160445422E+01 -0.94889316137E+01  0.10820412361E+02  0.00000000000E+00 0.  1.
<mgrwt>
<rscale>  0 0.79806501E+02</rscale>
<asrwt>0</asrwt>
<pdfrwt beam="1">  1        2 0.14165423E-01 0.79806501E+02</pdfrwt>
<pdfrwt beam="2">  1       -1 0.26604818E-02 0.79806501E+02</pdfrwt>
<totfact> 0.17440082E+05</totfact>
</mgrwt>
</event>
<event>
 8    1  0.1226832E-024  0.7767121E+02  0.7818608E-02  0.1335793E+00
         -1   -1    0    0    0  501 -0.00000000000E+00  0.00000000000E+00  0.93903311972E+01  0.93903325498E+01  0.50400000000E-02 0.  1.
          2   -1    0    0  501    0  0.00000000000E+00 -0.00000000000E+00 -0.16061246795E+03  0.16061246797E+03  0.25500000000E-02 0. -1.
         24    2    1    2    0    0  0.00000000000E+00  0.00000000000E+00 -0.15122213675E+03  0.17000280052E+03  0.77671214363E+02 0.  0.
         66    2    3    3    0    0 -0.33802649252E+02 -0.19002989542E+02 -0.79098683443E+02  0.88115460905E+02  0.20000049959E+01 0.  0.
        -13    1    3    3    0    0  0.33802649252E+02  0.19002989542E+02 -0.72123453312E+02  0.81887339618E+02  0.10566000000E+00 0.  1.
         13    1    4    4    0    0 -0.12123139565E+02 -0.72305206016E+01 -0.28001336070E+02  0.31358203501E+02  0.10566000000E+00 0. -1.
        -13    1    4    4    0    0 -0.90885208221E+01 -0.50192560851E+01 -0.23041189749E+02  0.25272548971E+02  0.10566000000E+00 0.  1.
         14    1    4    4    0    0 -0.12590988865E+02 -0.67532128555E+01 -0.28056157624E+02  0.31484708433E+02  0.00000000000E+00 0. -1.
<mgrwt>
<rscale>  0 0.77671214E+02</rscale>
<asrwt>0</asrwt>
<pdfrwt beam="1">  1        2 0.24709609E-01 0.77671214E+02</pdfrwt>
<pdfrwt beam="2">  1       -1 0.14446666E-02 0.77671214E+02</pdfrwt>
<totfact> 0.22145449E+05</totfact>
</mgrwt>
</event>
<event>
 8    1  0.1226832E-024  0.8041431E+02  0.7818608E-02  0.1327880E+00
          2   -1    0    0  501    0  0.00000000000E+00  0.00000000000E+00  0.45430331911E+02  0.45430331983E+02  0.25500000000E-02 0. -1.
         -1   -1    0    0    0  501 -0.00000000000E+00 -0.00000000000E+00 -0.35584490928E+02  0.35584491285E+02  0.50400000000E-02 0.  1.
         24    2    1    2    0    0  0.35527136788E-14  0.17763568394E-14  0.98458409837E+01  0.81014823268E+02  0.80414308456E+02 0.  0.
         66    2    3    3    0    0  0.20665248158E+02 -0.14475005292E+02  0.36433003790E+02  0.44361492590E+02  0.19999999831E+01 0.  0.
        -13    1    3    3    0    0 -0.20665248158E+02  0.14475005292E+02 -0.26587162807E+02  0.36653330678E+02  0.10566000000E+00 0.  1.
         13    1    4    4    0    0  0.33637402203E+01 -0.18686196141E+01  0.55525992059E+01  0.67564050729E+01  0.10566000000E+00 0. -1.
        -13    1    4    4    0    0  0.56067418195E+01 -0.32351165394E+01  0.93203472543E+01  0.11348196766E+02  0.10566000000E+00 0.  1.
        -14    1    4    4    0    0  0.11694766119E+02 -0.93712691383E+01  0.21560057330E+02  0.26256890751E+02  0.00000000000E+00 0.  1.
<mgrwt>
<rscale>  0 0.80414308E+02</rscale>
<asrwt>0</asrwt>
<pdfrwt beam="1">  1        2 0.69892818E-02 0.80414308E+02</pdfrwt>
<pdfrwt beam="2">  1       -1 0.54745371E-02 0.80414308E+02</pdfrwt>
<totfact> 0.14432158E+05</totfact>
</mgrwt>
</event>
<event>
 8    1  0.1226832E-024  0.7889806E+02  0.7818608E-02  0.1332208E+00
         -1   -1    0    0    0  501 -0.00000000000E+00  0.00000000000E+00  0.79763357145E+01  0.79763373068E+01  0.50400000000E-02 0.  1.
          2   -1    0    0  501    0  0.00000000000E+00 -0.00000000000E+00 -0.19510537374E+03  0.19510537375E+03  0.25500000000E-02 0. -1.
         24    2    1    2    0    0  0.00000000000E+00  0.00000000000E+00 -0.18712903802E+03  0.20308171106E+03  0.78898063956E+02 0.  0.
         66    2    3    3    0    0 -0.16598284533E+02 -0.26373451354E+02 -0.15578261704E+03  0.15888135746E+03  0.19999979978E+01 0.  0.
        -13    1    3    3    0    0  0.16598284533E+02  0.26373451354E+02 -0.31346420987E+02  0.44200353601E+02  0.10566000000E+00 0.  1.
         13    1    4    4    0    0 -0.27769731952E+01 -0.51281109734E+01 -0.30370545977E+02  0.30925561098E+02  0.10566000000E+00 0. -1.
        -13    1    4    4    0    0 -0.65105775976E+01 -0.95163261610E+01 -0.60416268023E+02  0.61506785724E+02  0.10566000000E+00 0.  1.
        -14    1    4    4    0    0 -0.73107337398E+01 -0.11729014219E+02 -0.64995803036E+02  0.66449010637E+02  0.00000000000E+00 0.  1.
<mgrwt>
<rscale>  0 0.78898064E+02</rscale>
<asrwt>0</asrwt>
<pdfrwt beam="1">  1        2 0.30016208E-01 0.78898064E+02</pdfrwt>
<pdfrwt beam="2">  1       -1 0.12271288E-02 0.78898064E+02</pdfrwt>
<totfact> 0.22685015E+05</totfact>
</mgrwt>
</event>
<event>
 8    1  0.1546138E-024  0.8227933E+02  0.7818608E-02  0.1322705E+00
         -1   -1    0    0    0  501 -0.00000000000E+00  0.00000000000E+00  0.30765588352E+01  0.30765629634E+01  0.50400000000E-02 0.  1.
          2   -1    0    0  501    0  0.00000000000E+00 -0.00000000000E+00 -0.55011820015E+03  0.55011820016E+03  0.25500000000E-02 0. -1.
         24    2    1    2    0    0  0.00000000000E+00 -0.71054273576E-14 -0.54704164132E+03  0.55319476312E+03  0.82279332826E+02 0.  0.
         66    2    3    3    0    0  0.98364649577E+01  0.23259632926E+02 -0.49182420167E+03  0.49247620441E+03  0.19999989301E+01 0.  0.
        -13    1    3    3    0    0 -0.98364649577E+01 -0.23259632926E+02 -0.55217439647E+02  0.60718558711E+02  0.10566000000E+00 0.  1.
         13    1    4    4    0    0  0.70960606917E+01  0.16962416057E+02 -0.35482134443E+03  0.35529744618E+03  0.10566000000E+00 0. -1.
        -13    1    4    4    0    0  0.18647403025E+01  0.49508444799E+01 -0.11137104279E+03  0.11149667463E+03  0.10566000000E+00 0.  1.
        -14    1    4    4    0    0  0.87566396345E+00  0.13463723894E+01 -0.25631814449E+02  0.25682083598E+02  0.00000000000E+00 0.  1.
<mgrwt>
<rscale>  0 0.82279333E+02</rscale>
<asrwt>0</asrwt>
<pdfrwt beam="1">  1        2 0.84633491E-01 0.82279333E+02</pdfrwt>
<pdfrwt beam="2">  1       -1 0.47331750E-03 0.82279333E+02</pdfrwt>
<totfact> 0.29149548E+05</totfact>
</mgrwt>
</event>
<event>
 8    1  0.1226832E-024  0.8354395E+02  0.7818608E-02  0.1319285E+00
          2   -1    0    0  501    0  0.00000000000E+00  0.00000000000E+00  0.14355528387E+04  0.14355528387E+04  0.25500000000E-02 0. -1.
         -1   -1    0    0    0  501 -0.00000000000E+00 -0.00000000000E+00 -0.12154833169E+01  0.12154937660E+01  0.50400000000E-02 0.  1.
         24    2    1    2    0    0 -0.35527136788E-14  0.17763568394E-14  0.14343373554E+04  0.14367683325E+04  0.83543953319E+02 0.  0.
         66    2    3    3    0    0  0.19221172013E+02 -0.14219514192E+02  0.13061451176E+04  0.13063654605E+04  0.20000003164E+01 0.  0.
        -13    1    3    3    0    0 -0.19221172013E+02  0.14219514192E+02  0.12819223776E+03  0.13040287199E+03  0.10566000000E+00 0.  1.
         13    1    4    4    0    0  0.13570058209E+02 -0.99800562438E+01  0.91730146371E+03  0.91745612128E+03  0.10566000000E+00 0. -1.
        -13    1    4    4    0    0  0.43544400961E+01 -0.28797064602E+01  0.26506779306E+03  0.26511921835E+03  0.10566000000E+00 0.  1.
         14    1    4    4    0    0  0.12966737073E+01 -0.13597514884E+01  0.12377586087E+03  0.12379012085E+03  0.00000000000E+00 0. -1.
<mgrwt>
<rscale>  0 0.83543953E+02</rscale>
<asrwt>0</asrwt>
<pdfrwt beam="1">  1        2 0.22085431E+00 0.83543953E+02</pdfrwt>
<pdfrwt beam="2">  1       -1 0.18699821E-03 0.83543953E+02</pdfrwt>
<totfact> 0.30156036E+05</totfact>
</mgrwt>
</event>
<event>
 8    1  0.1226832E-024  0.6983987E+02  0.7818608E-02  0.1360638E+00
         -1   -1    0    0    0  501 -0.00000000000E+00  0.00000000000E+00  0.10120332828E+02  0.10120334083E+02  0.50400000000E-02 0.  1.
          2   -1    0    0  501    0  0.00000000000E+00 -0.00000000000E+00 -0.12049029192E+03  0.12049029195E+03  0.25500000000E-02 0. -1.
         24    2    1    2    0    0 -0.35527136788E-14  0.00000000000E+00 -0.11036995910E+03  0.13061062603E+03  0.69839872295E+02 0.  0.
         66    2    3    3    0    0 -0.26725541152E+02 -0.59880960778E+01 -0.95656609472E+02  0.99520343539E+02  0.19999994575E+01 0.  0.
        -13    1    3    3    0    0  0.26725541152E+02  0.59880960778E+01 -0.14713349624E+02  0.31090282496E+02  0.10566000000E+00 0.  1.
         13    1    4    4    0    0 -0.23705404808E+02 -0.58759362567E+01 -0.84875427457E+02  0.88319432709E+02  0.10566000000E+00 0. -1.
        -13    1    4    4    0    0 -0.15720090476E+01 -0.98692361833E-01 -0.60901815854E+01  0.62914567794E+01  0.10566000000E+00 0.  1.
         14    1    4    4    0    0 -0.14481272958E+01 -0.13467459240E-01 -0.46910004297E+01  0.49094540500E+01  0.00000000000E+00 0. -1.
<mgrwt>
<rscale>  0 0.69839872E+02</rscale>
<asrwt>0</asrwt>
<pdfrwt beam="1">  1        2 0.18536967E-01 0.69839872E+02</pdfrwt>
<pdfrwt beam="2">  1       -1 0.15569745E-02 0.69839872E+02</pdfrwt>
<totfact> 0.26789453E+05</totfact>
</mgrwt>
</event>
<event>
 8    1  0.1226832E-024  0.8084504E+02  0.7818608E-02  0.1326670E+00
          2   -1    0    0  501    0  0.00000000000E+00  0.00000000000E+00  0.38959822544E+02  0.38959822627E+02  0.25500000000E-02 0. -1.
         -1   -1    0    0    0  501 -0.00000000000E+00 -0.00000000000E+00 -0.41940131585E+02  0.41940131888E+02  0.50400000000E-02 0.  1.
         24    2    1    2    0    0 -0.17763568394E-14  0.17763568394E-14 -0.29803090410E+01  0.80899954515E+02  0.80845039419E+02 0.  0.
         66    2    3    3    0    0 -0.92174536957E+01  0.12422768739E+02  0.35853027163E+02  0.39098928206E+02  0.19999985929E+01 0.  0.
        -13    1    3    3    0    0  0.92174536957E+01 -0.12422768739E+02 -0.38833336204E+02  0.41801026309E+02  0.10566000000E+00 0.  1.
         13    1    4    4    0    0 -0.32615336913E+01  0.35339657360E+01  0.10716207713E+02  0.11746266965E+02  0.10566000000E+00 0. -1.
        -13    1    4    4    0    0 -0.22818659215E+01  0.35526997202E+01  0.11609588260E+02  0.12354039461E+02  0.10566000000E+00 0.  1.
        -14    1    4    4    0    0 -0.36740540829E+01  0.53361032827E+01  0.13527231189E+02  0.14998621780E+02  0.00000000000E+00 0.  1.
<mgrwt>
<rscale>  0 0.80845039E+02</rscale>
<asrwt>0</asrwt>
<pdfrwt beam="1">  1        2 0.59938188E-02 0.80845039E+02</pdfrwt>
<pdfrwt beam="2">  1       -1 0.64523280E-02 0.80845039E+02</pdfrwt>
<totfact> 0.13771686E+05</totfact>
</mgrwt>
</event>
<event>
 8    1  0.1226832E-024  0.7910365E+02  0.7818608E-02  0.1331615E+00
         -1   -1    0    0    0  501 -0.00000000000E+00  0.00000000000E+00  0.58970425726E+01  0.58970447264E+01  0.50400000000E-02 0.  1.
          2   -1    0    0  501    0  0.00000000000E+00 -0.00000000000E+00 -0.26527645886E+03  0.26527645887E+03  0.25500000000E-02 0. -1.
         24    2    1    2    0    0  0.17763568394E-14  0.00000000000E+00 -0.25937941629E+03  0.27117350360E+03  0.79103650108E+02 0.  0.
         66    2    3    3    0    0 -0.11549727681E+02  0.36058657086E+02 -0.90879329427E+02  0.98471698755E+02  0.19999945539E+01 0.  0.
        -13    1    3    3    0    0  0.11549727681E+02 -0.36058657086E+02 -0.16850008686E+03  0.17270180484E+03  0.10566000000E+00 0.  1.
         13    1    4    4    0    0 -0.71466922972E+01  0.20858251434E+02 -0.53198324835E+02  0.57586585182E+02  0.10566000000E+00 0. -1.
        -13    1    4    4    0    0 -0.41216108137E+01  0.13850132949E+02 -0.35108036292E+02  0.37965763982E+02  0.10566000000E+00 0.  1.
        -14    1    4    4    0    0 -0.28142457058E+00  0.13502727021E+01 -0.25729683013E+01  0.29193495916E+01  0.00000000000E+00 0.  1.
<mgrwt>
<rscale>  0 0.79103650E+02</rscale>
<asrwt>0</asrwt>
<pdfrwt beam="1">  1        2 0.40811754E-01 0.79103650E+02</pdfrwt>
<pdfrwt beam="2">  1       -1 0.90723769E-03 0.79103650E+02</pdfrwt>
<totfact> 0.25115622E+05</totfact>
</mgrwt>
</event>
<event>
 8    1  0.1226832E-024  0.8065708E+02  0.7818608E-02  0.1327197E+00
          2   -1    0    0  501    0  0.00000000000E+00  0.00000000000E+00  0.10685679934E+04  0.10685679934E+04  0.25500000000E-02 0. -1.
         -1   -1    0    0    0  501 -0.00000000000E+00 -0.00000000000E+00 -0.15220245417E+01  0.15220328864E+01  0.50400000000E-02 0.  1.
         24    2    1    2    0    0  0.35527136788E-14  0.35527136788E-14  0.10670459689E+04  0.10700900263E+04  0.80657080951E+02 0.  0.
         66    2    3    3    0    0  0.19788998596E+02  0.22307474121E+02  0.89357315437E+03  0.89407282145E+03  0.19999969581E+01 0.  0.
        -13    1    3    3    0    0 -0.19788998596E+02 -0.22307474121E+02  0.17347281451E+03  0.17601720486E+03  0.10566000000E+00 0.  1.
         13    1    4    4    0    0  0.81890094199E+01  0.84357579701E+01  0.34345163896E+03  0.34365282097E+03  0.10566000000E+00 0. -1.
        -13    1    4    4    0    0  0.78902959344E+01  0.92355091381E+01  0.38609619346E+03  0.38628724179E+03  0.10566000000E+00 0.  1.
         14    1    4    4    0    0  0.37096932420E+01  0.46362070124E+01  0.16402532194E+03  0.16413275869E+03  0.00000000000E+00 0. -1.
<mgrwt>
<rscale>  0 0.80657081E+02</rscale>
<asrwt>0</asrwt>
<pdfrwt beam="1">  1        2 0.16439521E+00 0.80657081E+02</pdfrwt>
<pdfrwt beam="2">  1       -1 0.23415807E-03 0.80657081E+02</pdfrwt>
<totfact> 0.34530555E+05</totfact>
</mgrwt>
</event>
<event>
 8    1  0.1226832E-024  0.8133425E+02  0.7818608E-02  0.1325307E+00
          2   -1    0    0  501    0  0.00000000000E+00  0.00000000000E+00  0.22349865225E+02  0.22349865370E+02  0.25500000000E-02 0. -1.
         -1   -1    0    0    0  501 -0.00000000000E+00 -0.00000000000E+00 -0.73996652863E+02  0.73996653035E+02  0.50400000000E-02 0.  1.
         24    2    1    2    0    0  0.00000000000E+00  0.00000000000E+00 -0.51646787638E+02  0.96346518405E+02  0.81334254379E+02 0.  0.
         66    2    3    3    0    0 -0.39745311338E+02  0.78413017424E+01 -0.29701925854E+02  0.50273056313E+02  0.20000013351E+01 0.  0.
        -13    1    3    3    0    0  0.39745311338E+02 -0.78413017424E+01 -0.21944861785E+02  0.46073462092E+02  0.10566000000E+00 0.  1.
         13    1    4    4    0    0 -0.15233944626E+02  0.34175554184E+01 -0.11607659863E+02  0.19455119775E+02  0.10566000000E+00 0. -1.
        -13    1    4    4    0    0 -0.50366950360E+01  0.10170078075E+01 -0.30697899937E+01  0.59864326947E+01  0.10566000000E+00 0.  1.
         14    1    4    4    0    0 -0.19474671676E+02  0.34067385165E+01 -0.15024475997E+02  0.24831503844E+02  0.00000000000E+00 0. -1.
<mgrwt>
<rscale>  0 0.81334254E+02</rscale>
<asrwt>0</asrwt>
<pdfrwt beam="1">  1        2 0.34384409E-02 0.81334254E+02</pdfrwt>
<pdfrwt beam="2">  1       -1 0.11384100E-01 0.81334254E+02</pdfrwt>
<totfact> 0.12109707E+05</totfact>
</mgrwt>
</event>
<event>
 8    1  0.1226832E-024  0.8105792E+02  0.7818608E-02  0.1326076E+00
          2   -1    0    0  501    0  0.00000000000E+00  0.00000000000E+00  0.12153990683E+02  0.12153990950E+02  0.25500000000E-02 0. -1.
         -1   -1    0    0    0  501 -0.00000000000E+00 -0.00000000000E+00 -0.13514875129E+03  0.13514875139E+03  0.50400000000E-02 0.  1.
         24    2    1    2    0    0 -0.35527136788E-14  0.35527136788E-14 -0.12299476061E+03  0.14730274234E+03  0.81057922269E+02 0.  0.
         66    2    3    3    0    0  0.23666924237E+02 -0.30898966903E+02 -0.81910832999E+02  0.90709723947E+02  0.19999993644E+01 0.  0.
        -13    1    3    3    0    0 -0.23666924237E+02  0.30898966903E+02 -0.41083927611E+02  0.56593018390E+02  0.10566000000E+00 0.  1.
         13    1    4    4    0    0  0.19503241646E+02 -0.26178413475E+02 -0.67521374648E+02  0.74998886426E+02  0.10566000000E+00 0. -1.
        -13    1    4    4    0    0  0.10501322651E+01 -0.10474510683E+01 -0.36528493321E+01  0.39439071736E+01  0.10566000000E+00 0.  1.
         14    1    4    4    0    0  0.31135503264E+01 -0.36731023597E+01 -0.10736609019E+02  0.11766930348E+02  0.00000000000E+00 0. -1.
<mgrwt>
<rscale>  0 0.81057922E+02</rscale>
<asrwt>0</asrwt>
<pdfrwt beam="1">  1        2 0.18698448E-02 0.81057922E+02</pdfrwt>
<pdfrwt beam="2">  1       -1 0.20792115E-01 0.81057922E+02</pdfrwt>
<totfact> 0.10709698E+05</totfact>
</mgrwt>
</event>
<event>
 8    1  0.1226832E-024  0.8054456E+02  0.7818608E-02  0.1327513E+00
         -1   -1    0    0    0  501 -0.00000000000E+00  0.00000000000E+00  0.33241820341E+02  0.33241820723E+02  0.50400000000E-02 0.  1.
          2   -1    0    0  501    0  0.00000000000E+00 -0.00000000000E+00 -0.48789641864E+02  0.48789641930E+02  0.25500000000E-02 0. -1.
         24    2    1    2    0    0  0.88817841970E-15  0.17763568394E-14 -0.15547821523E+02  0.82031462653E+02  0.80544559785E+02 0.  0.
         66    2    3    3    0    0 -0.47153312461E+01 -0.12412118976E+02 -0.46474250845E+02  0.48375107519E+02  0.19999974207E+01 0.  0.
        -13    1    3    3    0    0  0.47153312461E+01  0.12412118976E+02  0.30926429322E+02  0.33656355134E+02  0.10566000000E+00 0.  1.
         13    1    4    4    0    0 -0.26698244530E+00 -0.82774240646E+00 -0.23598496359E+01  0.25172388559E+01  0.10566000000E+00 0. -1.
        -13    1    4    4    0    0 -0.21500159667E+01 -0.57534640252E+01 -0.18752997942E+02  0.19733499760E+02  0.10566000000E+00 0.  1.
         14    1    4    4    0    0 -0.22983328340E+01 -0.58309125440E+01 -0.25361403267E+02  0.26124368903E+02  0.00000000000E+00 0. -1.
<mgrwt>
<rscale>  0 0.80544560E+02</rscale>
<asrwt>0</asrwt>
<pdfrwt beam="1">  1        2 0.75060988E-02 0.80544560E+02</pdfrwt>
<pdfrwt beam="2">  1       -1 0.51141262E-02 0.80544560E+02</pdfrwt>
<totfact> 0.14589739E+05</totfact>
</mgrwt>
</event>
<event>
 8    1  0.1226832E-024  0.7607131E+02  0.7818608E-02  0.1340585E+00
          2   -1    0    0  501    0  0.00000000000E+00  0.00000000000E+00  0.10189980437E+03  0.10189980440E+03  0.25500000000E-02 0. -1.
         -1   -1    0    0    0  501 -0.00000000000E+00 -0.00000000000E+00 -0.14197387766E+02  0.14197388660E+02  0.50400000000E-02 0.  1.
         24    2    1    2    0    0  0.00000000000E+00  0.00000000000E+00  0.87702416600E+02  0.11609719306E+03  0.76071311008E+02 0.  0.
         66    2    3    3    0    0  0.91261724499E+01 -0.36153678954E+02  0.32632190474E+02  0.49590678376E+02  0.20000003176E+01 0.  0.
        -13    1    3    3    0    0 -0.91261724499E+01  0.36153678954E+02  0.55070226126E+02  0.66506514682E+02  0.10566000000E+00 0.  1.
         13    1    4    4    0    0  0.41961088838E+01 -0.18627992733E+02  0.17203654806E+02  0.25701874363E+02  0.10566000000E+00 0. -1.
        -13    1    4    4    0    0  0.16651607754E+01 -0.54378310894E+01  0.42020871275E+01  0.70718786491E+01  0.10566000000E+00 0.  1.
        -14    1    4    4    0    0  0.32649027907E+01 -0.12087855131E+02  0.11226448540E+02  0.16816925365E+02  0.00000000000E+00 0.  1.
<mgrwt>
<rscale>  0 0.76071311E+02</rscale>
<asrwt>0</asrwt>
<pdfrwt beam="1">  1        2 0.15676894E-01 0.76071311E+02</pdfrwt>
<pdfrwt beam="2">  1       -1 0.21842135E-02 0.76071311E+02</pdfrwt>
<totfact> 0.20383854E+05</totfact>
</mgrwt>
</event>
<event>
 8    1  0.1226832E-024  0.8024590E+02  0.7818608E-02  0.1328355E+00
          2   -1    0    0  501    0  0.00000000000E+00  0.00000000000E+00  0.96345369147E+02  0.96345369181E+02  0.25500000000E-02 0. -1.
         -1   -1    0    0    0  501 -0.00000000000E+00 -0.00000000000E+00 -0.16709170037E+02  0.16709170797E+02  0.50400000000E-02 0.  1.
         24    2    1    2    0    0 -0.17763568394E-14  0.88817841970E-15  0.79636199110E+02  0.11305453998E+03  0.80245902082E+02 0.  0.
         66    2    3    3    0    0  0.85216948994E+01 -0.74539877890E+01  0.94036220440E+02  0.94736434283E+02  0.20000020231E+01 0.  0.
        -13    1    3    3    0    0 -0.85216948994E+01  0.74539877890E+01 -0.14400021330E+02  0.18318105695E+02  0.10566000000E+00 0.  1.
         13    1    4    4    0    0  0.84521877348E+01 -0.71080469491E+01  0.89538883200E+02  0.90217440540E+02  0.10566000000E+00 0. -1.
        -13    1    4    4    0    0  0.19233121059E-01 -0.15404402340E+00  0.32996649527E+01  0.33050041316E+01  0.10566000000E+00 0.  1.
         14    1    4    4    0    0  0.50274043636E-01 -0.19189681651E+00  0.11976722877E+01  0.12139896113E+01  0.00000000000E+00 0. -1.
<mgrwt>
<rscale>  0 0.80245902E+02</rscale>
<asrwt>0</asrwt>
<pdfrwt beam="1">  1        2 0.14822364E-01 0.80245902E+02</pdfrwt>
<pdfrwt beam="2">  1       -1 0.25706417E-02 0.80245902E+02</pdfrwt>
<totfact> 0.17399557E+05</totfact>
</mgrwt>
</event>
<event>
 8    1  0.1226832E-024  0.7897351E+02  0.7818608E-02  0.1331990E+00
          2   -1    0    0  501    0  0.00000000000E+00  0.00000000000E+00  0.68602769531E+02  0.68602769578E+02  0.25500000000E-02 0. -1.
         -1   -1    0    0    0  501 -0.00000000000E+00 -0.00000000000E+00 -0.22728002561E+02  0.22728003120E+02  0.50400000000E-02 0.  1.
         24    2    1    2    0    0  0.17763568394E-14  0.00000000000E+00  0.45874766970E+02  0.91330772698E+02  0.78973513263E+02 0.  0.
         66    2    3    3    0    0  0.99683859349E+01  0.37911719061E+02  0.28192275037E+02  0.48326716549E+02  0.20000000743E+01 0.  0.
        -13    1    3    3    0    0 -0.99683859349E+01 -0.37911719061E+02  0.17682491933E+02  0.43004056150E+02  0.10566000000E+00 0.  1.
         13    1    4    4    0    0  0.65427607860E+01  0.23708885945E+02  0.16640677411E+02  0.29695829677E+02  0.10566000000E+00 0. -1.
        -13    1    4    4    0    0  0.20427475264E+01  0.79017222092E+01  0.62294425297E+01  0.10267772377E+02  0.10566000000E+00 0.  1.
        -14    1    4    4    0    0  0.13828776225E+01  0.63011109067E+01  0.53221550958E+01  0.83631144941E+01  0.00000000000E+00 0.  1.
<mgrwt>
<rscale>  0 0.78973513E+02</rscale>
<asrwt>0</asrwt>
<pdfrwt beam="1">  1        2 0.10554272E-01 0.78973513E+02</pdfrwt>
<pdfrwt beam="2">  1       -1 0.34966159E-02 0.78973513E+02</pdfrwt>
<totfact> 0.16638979E+05</totfact>
</mgrwt>
</event>
<event>
 8    1  0.1226832E-024  0.7933841E+02  0.7818608E-02  0.1330939E+00
         -1   -1    0    0    0  501 -0.00000000000E+00  0.00000000000E+00  0.40043482216E+01  0.40043513934E+01  0.50400000000E-02 0.  1.
          2   -1    0    0  501    0  0.00000000000E+00 -0.00000000000E+00 -0.39298414571E+03  0.39298414571E+03  0.25500000000E-02 0. -1.
         24    2    1    2    0    0  0.00000000000E+00  0.00000000000E+00 -0.38897979748E+03  0.39698849711E+03  0.79338414307E+02 0.  0.
         66    2    3    3    0    0  0.10876363759E+01  0.12418874812E+02 -0.38291788336E+03  0.38312598033E+03  0.20000005896E+01 0.  0.
        -13    1    3    3    0    0 -0.10876363759E+01 -0.12418874812E+02 -0.60619141211E+01  0.13862516775E+02  0.10566000000E+00 0.  1.
         13    1    4    4    0    0  0.29350441422E+00  0.42826007232E+01 -0.15323228967E+03  0.15329244135E+03  0.10566000000E+00 0. -1.
        -13    1    4    4    0    0  0.96923211453E+00  0.49522159968E+01 -0.14595041663E+03  0.14603766340E+03  0.10566000000E+00 0.  1.
        -14    1    4    4    0    0 -0.17510015290E+00  0.31840580918E+01 -0.83735177067E+02  0.83795875581E+02  0.00000000000E+00 0.  1.
<mgrwt>
<rscale>  0 0.79338414E+02</rscale>
<asrwt>0</asrwt>
<pdfrwt beam="1">  1        2 0.60459069E-01 0.79338414E+02</pdfrwt>
<pdfrwt beam="2">  1       -1 0.61605413E-03 0.79338414E+02</pdfrwt>
<totfact> 0.28694609E+05</totfact>
</mgrwt>
</event>
<event>
 8    1  0.1226832E-024  0.7970043E+02  0.7818608E-02  0.1329904E+00
         -1   -1    0    0    0  501 -0.00000000000E+00  0.00000000000E+00  0.40096522033E+01  0.40096553709E+01  0.50400000000E-02 0.  1.
          2   -1    0    0  501    0  0.00000000000E+00 -0.00000000000E+00 -0.39605408676E+03  0.39605408677E+03  0.25500000000E-02 0. -1.
         24    2    1    2    0    0  0.35527136788E-14  0.17763568394E-14 -0.39204443456E+03  0.40006374214E+03  0.79700433547E+02 0.  0.
         66    2    3    3    0    0 -0.18932916062E+02 -0.14040809331E+02 -0.35727621530E+03  0.35805850590E+03  0.19999975289E+01 0.  0.
        -13    1    3    3    0    0  0.18932916062E+02  0.14040809331E+02 -0.34768219257E+02  0.42005236241E+02  0.10566000000E+00 0.  1.
         13    1    4    4    0    0 -0.65149825638E+01 -0.52811747963E+01 -0.12425000977E+03  0.12453277438E+03  0.10566000000E+00 0. -1.
        -13    1    4    4    0    0 -0.34808107313E+01 -0.17069988340E+01 -0.57174667006E+02  0.57306052034E+02  0.10566000000E+00 0.  1.
        -14    1    4    4    0    0 -0.89371227673E+01 -0.70526357006E+01 -0.17585153853E+03  0.17621967948E+03  0.00000000000E+00 0.  1.
<mgrwt>
<rscale>  0 0.79700434E+02</rscale>
<asrwt>0</asrwt>
<pdfrwt beam="1">  1        2 0.60931367E-01 0.79700434E+02</pdfrwt>
<pdfrwt beam="2">  1       -1 0.61687013E-03 0.79700434E+02</pdfrwt>
<totfact> 0.28433006E+05</totfact>
</mgrwt>
</event>
<event>
 8    1  0.1226832E-024  0.8060939E+02  0.7818608E-02  0.1327331E+00
         -1   -1    0    0    0  501 -0.00000000000E+00  0.00000000000E+00  0.29887251709E+02  0.29887252134E+02  0.50400000000E-02 0.  1.
          2   -1    0    0  501    0  0.00000000000E+00 -0.00000000000E+00 -0.54353219092E+02  0.54353219152E+02  0.25500000000E-02 0. -1.
         24    2    1    2    0    0  0.35527136788E-14 -0.17763568394E-14 -0.24465967383E+02  0.84240471286E+02  0.80609388055E+02 0.  0.
         66    2    3    3    0    0  0.20051594118E+02  0.11959065182E+02 -0.46542470758E+02  0.52108418255E+02  0.20000005333E+01 0.  0.
        -13    1    3    3    0    0 -0.20051594118E+02 -0.11959065182E+02  0.22076503375E+02  0.32132053031E+02  0.10566000000E+00 0.  1.
         13    1    4    4    0    0  0.31403933476E+00  0.14792085959E+00 -0.77202860735E+00  0.85304952415E+00  0.10566000000E+00 0. -1.
        -13    1    4    4    0    0  0.94990296052E+01  0.54139109350E+01 -0.23636960056E+02  0.26043406838E+02  0.10566000000E+00 0.  1.
         14    1    4    4    0    0  0.10238525178E+02  0.63972333869E+01 -0.22133482095E+02  0.25211961893E+02  0.00000000000E+00 0. -1.
<mgrwt>
<rscale>  0 0.80609388E+02</rscale>
<asrwt>0</asrwt>
<pdfrwt beam="1">  1        2 0.83620337E-02 0.80609388E+02</pdfrwt>
<pdfrwt beam="2">  1       -1 0.45980388E-02 0.80609388E+02</pdfrwt>
<totfact> 0.14908290E+05</totfact>
</mgrwt>
</event>
<event>
 8    1  0.1226832E-024  0.7912879E+02  0.7818608E-02  0.1331542E+00
          2   -1    0    0  501    0  0.00000000000E+00  0.00000000000E+00  0.37375727827E+03  0.37375727828E+03  0.25500000000E-02 0. -1.
         -1   -1    0    0    0  501 -0.00000000000E+00 -0.00000000000E+00 -0.41881207587E+01  0.41881237913E+01  0.50400000000E-02 0.  1.
         24    2    1    2    0    0 -0.17763568394E-14  0.44408920985E-15  0.36956915751E+03  0.37794540207E+03  0.79128785927E+02 0.  0.
         66    2    3    3    0    0 -0.13498275413E+02  0.31373769633E+01  0.36177432913E+03  0.36204517922E+03  0.20000001730E+01 0.  0.
        -13    1    3    3    0    0  0.13498275413E+02 -0.31373769633E+01  0.77948283798E+01  0.15900222855E+02  0.10566000000E+00 0.  1.
         13    1    4    4    0    0 -0.97165729174E+01  0.24014297703E+01  0.26634779782E+03  0.26653581226E+03  0.10566000000E+00 0. -1.
        -13    1    4    4    0    0 -0.82552566351E+00  0.37584230767E+00  0.31904485750E+02  0.31917551991E+02  0.10566000000E+00 0.  1.
        -14    1    4    4    0    0 -0.29561768325E+01  0.36010488523E+00  0.63522045566E+02  0.63591814960E+02  0.00000000000E+00 0.  1.
<mgrwt>
<rscale>  0 0.79128786E+02</rscale>
<asrwt>0</asrwt>
<pdfrwt beam="1">  1        2 0.57501142E-01 0.79128786E+02</pdfrwt>
<pdfrwt beam="2">  1       -1 0.64432625E-03 0.79128786E+02</pdfrwt>
<totfact> 0.28386458E+05</totfact>
</mgrwt>
</event>
<event>
 8    1  0.1226832E-024  0.7950561E+02  0.7818608E-02  0.1330460E+00
         -1   -1    0    0    0  501 -0.00000000000E+00  0.00000000000E+00  0.10975640189E+01  0.10975755906E+01  0.50400000000E-02 0.  1.
          2   -1    0    0  501    0  0.00000000000E+00 -0.00000000000E+00 -0.14398041793E+04  0.14398041793E+04  0.25500000000E-02 0. -1.
         24    2    1    2    0    0  0.00000000000E+00  0.00000000000E+00 -0.14387066153E+04  0.14409017549E+04  0.79505612379E+02 0.  0.
         66    2    3    3    0    0  0.63751766759E+01  0.19926859183E+02 -0.13318690499E+04  0.13320348677E+04  0.19999988812E+01 0.  0.
        -13    1    3    3    0    0 -0.63751766759E+01 -0.19926859183E+02 -0.10683756542E+03  0.10886688727E+03  0.10566000000E+00 0.  1.
         13    1    4    4    0    0  0.18013794198E+01  0.73817920223E+01 -0.47693655198E+03  0.47699708762E+03  0.10566000000E+00 0. -1.
        -13    1    4    4    0    0  0.17411983976E+01  0.46775658238E+01 -0.28045193951E+03  0.28049636884E+03  0.10566000000E+00 0.  1.
         14    1    4    4    0    0  0.28325988585E+01  0.78675013364E+01 -0.57448055841E+03  0.57454141120E+03  0.00000000000E+00 0. -1.
<mgrwt>
<rscale>  0 0.79505612E+02</rscale>
<asrwt>0</asrwt>
<pdfrwt beam="1">  1        2 0.22150682E+00 0.79505612E+02</pdfrwt>
<pdfrwt beam="2">  1       -1 0.16885805E-03 0.79505612E+02</pdfrwt>
<totfact> 0.34275851E+05</totfact>
</mgrwt>
</event>
<event>
 8    1  0.1226832E-024  0.8323574E+02  0.7818608E-02  0.1320112E+00
          2   -1    0    0  501    0  0.00000000000E+00  0.00000000000E+00  0.49549064361E+03  0.49549064361E+03  0.25500000000E-02 0. -1.
         -1   -1    0    0    0  501 -0.00000000000E+00 -0.00000000000E+00 -0.34956181634E+01  0.34956217968E+01  0.50400000000E-02 0.  1.
         24    2    1    2    0    0  0.00000000000E+00  0.35527136788E-14  0.49199502544E+03  0.49898626541E+03  0.83235737559E+02 0.  0.
         66    2    3    3    0    0  0.23272237026E+02  0.30040483179E+02  0.34752390109E+03  0.34960104331E+03  0.20000022893E+01 0.  0.
        -13    1    3    3    0    0 -0.23272237026E+02 -0.30040483179E+02  0.14447112435E+03  0.14938522210E+03  0.10566000000E+00 0.  1.
         13    1    4    4    0    0  0.10924619532E+01  0.16111815539E+01  0.18204140108E+02  0.18308229304E+02  0.10566000000E+00 0. -1.
        -13    1    4    4    0    0  0.18612124549E+02  0.23556776007E+02  0.26797940668E+03  0.26965590378E+03  0.10566000000E+00 0.  1.
        -14    1    4    4    0    0  0.35676505234E+01  0.48725256183E+01  0.61340354304E+02  0.61636910226E+02  0.00000000000E+00 0.  1.
<mgrwt>
<rscale>  0 0.83235738E+02</rscale>
<asrwt>0</asrwt>
<pdfrwt beam="1">  1        2 0.76229373E-01 0.83235738E+02</pdfrwt>
<pdfrwt beam="2">  1       -1 0.53778739E-03 0.83235738E+02</pdfrwt>
<totfact> 0.27376615E+05</totfact>
</mgrwt>
</event>
<event>
 8    1  0.1226832E-024  0.8068085E+02  0.7818608E-02  0.1327130E+00
          2   -1    0    0  501    0  0.00000000000E+00  0.00000000000E+00  0.16755339157E+04  0.16755339157E+04  0.25500000000E-02 0. -1.
         -1   -1    0    0    0  501 -0.00000000000E+00 -0.00000000000E+00 -0.97123611862E+00  0.97124919548E+00  0.50400000000E-02 0.  1.
         24    2    1    2    0    0  0.00000000000E+00 -0.17763568394E-14  0.16745626796E+04  0.16765051649E+04  0.80680853248E+02 0.  0.
         66    2    3    3    0    0  0.10434565011E+02 -0.10248059265E+02  0.16184616582E+04  0.16185289747E+04  0.20000037115E+01 0.  0.
        -13    1    3    3    0    0 -0.10434565011E+02  0.10248059265E+02  0.56101021370E+02  0.57976190185E+02  0.10566000000E+00 0.  1.
         13    1    4    4    0    0  0.35639975697E+01 -0.29776092379E+01  0.48984562332E+03  0.48986764956E+03  0.10566000000E+00 0.  1.
        -13    1    4    4    0    0  0.66557216141E+01 -0.64733935330E+01  0.10339385567E+04  0.10339802482E+04  0.10566000000E+00 0. -1.
         14    1    4    4    0    0  0.21484582698E+00 -0.79705649453E+00  0.94677478184E+02  0.94681076953E+02  0.00000000000E+00 0. -1.
<mgrwt>
<rscale>  0 0.80680853E+02</rscale>
<asrwt>0</asrwt>
<pdfrwt beam="1">  1        2 0.25777427E+00 0.80680853E+02</pdfrwt>
<pdfrwt beam="2">  1       -1 0.14942205E-03 0.80680853E+02</pdfrwt>
<totfact> 0.30904140E+05</totfact>
</mgrwt>
</event>
<event>
 8    1  0.1226832E-024  0.7479035E+02  0.7818608E-02  0.1344521E+00
         -1   -1    0    0    0  501 -0.00000000000E+00  0.00000000000E+00  0.10590587670E+03  0.10590587682E+03  0.50400000000E-02 0.  1.
          2   -1    0    0  501    0  0.00000000000E+00 -0.00000000000E+00 -0.13204170301E+02  0.13204170547E+02  0.25500000000E-02 0. -1.
         24    2    1    2    0    0  0.35527136788E-14  0.71054273576E-14  0.92701706396E+02  0.11911004736E+03  0.74790353753E+02 0.  0.
         66    2    3    3    0    0 -0.31832312711E+02 -0.19348898117E+02  0.41681490887E+02  0.55937667755E+02  0.20000001218E+01 0.  0.
        -13    1    3    3    0    0  0.31832312711E+02  0.19348898117E+02  0.51020215509E+02  0.63172379609E+02  0.10566000000E+00 0.  1.
         13    1    4    4    0    0 -0.11861191722E+02 -0.69024976776E+01  0.15037955546E+02  0.20358870654E+02  0.10566000000E+00 0. -1.
        -13    1    4    4    0    0 -0.32044137963E+01 -0.17023766181E+01  0.34321582502E+01  0.49957209908E+01  0.10566000000E+00 0.  1.
        -14    1    4    4    0    0 -0.16766707192E+02 -0.10744023821E+02  0.23211377090E+02  0.30583076110E+02  0.00000000000E+00 0.  1.
<mgrwt>
<rscale>  0 0.74790354E+02</rscale>
<asrwt>0</asrwt>
<pdfrwt beam="1">  1        2 0.20314108E-02 0.74790354E+02</pdfrwt>
<pdfrwt beam="2">  1       -1 0.16293212E-01 0.74790354E+02</pdfrwt>
<totfact> 0.13850767E+05</totfact>
</mgrwt>
</event>
<event>
 8    1  0.1818883E-024  0.7750769E+02  0.7818608E-02  0.1336277E+00
          2   -1    0    0  501    0  0.00000000000E+00  0.00000000000E+00  0.16917925940E+03  0.16917925942E+03  0.25500000000E-02 0. -1.
         -1   -1    0    0    0  501 -0.00000000000E+00 -0.00000000000E+00 -0.88773323350E+01  0.88773337657E+01  0.50400000000E-02 0.  1.
         24    2    1    2    0    0  0.35527136788E-14  0.44408920985E-15  0.16030192707E+03  0.17805659319E+03  0.77507693528E+02 0.  0.
         66    2    3    3    0    0  0.24799295155E+02  0.21377908660E+01  0.14836327408E+03  0.15045011226E+03  0.19999986055E+01 0.  0.
        -13    1    3    3    0    0 -0.24799295155E+02 -0.21377908660E+01  0.11938652994E+02  0.27606480930E+02  0.10566000000E+00 0.  1.
         13    1    4    4    0    0  0.10893088637E+02  0.96131644665E+00  0.65139560858E+02  0.66051170029E+02  0.10566000000E+00 0. -1.
        -13    1    4    4    0    0  0.13766573441E+02  0.99154949907E+00  0.81706518859E+02  0.82864154510E+02  0.10566000000E+00 0.  1.
        -14    1    4    4    0    0  0.13963307695E+00  0.18492492028E+00  0.15171943599E+01  0.15347877208E+01  0.00000000000E+00 0.  1.
<mgrwt>
<rscale>  0 0.77507694E+02</rscale>
<asrwt>0</asrwt>
<pdfrwt beam="1">  1        2 0.26027578E-01 0.77507694E+02</pdfrwt>
<pdfrwt beam="2">  1       -1 0.13657435E-02 0.77507694E+02</pdfrwt>
<totfact> 0.22653261E+05</totfact>
</mgrwt>
</event>
<event>
 8    1  0.1226832E-024  0.8034208E+02  0.7818608E-02  0.1328083E+00
          2   -1    0    0  501    0  0.00000000000E+00  0.00000000000E+00  0.74175327660E+02  0.74175327703E+02  0.25500000000E-02 0. -1.
         -1   -1    0    0    0  501 -0.00000000000E+00 -0.00000000000E+00 -0.21755382296E+02  0.21755382880E+02  0.50400000000E-02 0.  1.
         24    2    1    2    0    0  0.71054273576E-14  0.88817841970E-15  0.52419945363E+02  0.95930710583E+02  0.80342084620E+02 0.  0.
         66    2    3    3    0    0 -0.33546431763E+02 -0.70009615595E+01  0.51196239513E+02  0.61639528527E+02  0.19999974779E+01 0.  0.
        -13    1    3    3    0    0  0.33546431763E+02  0.70009615595E+01  0.12237058504E+01  0.34291182057E+02  0.10566000000E+00 0.  1.
         13    1    4    4    0    0 -0.23281138733E+02 -0.45547221851E+01  0.34632950508E+02  0.41978677205E+02  0.10566000000E+00 0.  1.
        -13    1    4    4    0    0 -0.13350930872E+01 -0.40711671732E-01  0.22886072741E+01  0.26519838390E+01  0.10566000000E+00 0. -1.
        -14    1    4    4    0    0 -0.89301999430E+01 -0.24055277027E+01  0.14274681730E+02  0.17008867483E+02  0.00000000000E+00 0.  1.
<mgrwt>
<rscale>  0 0.80342085E+02</rscale>
<asrwt>0</asrwt>
<pdfrwt beam="1">  1        2 0.11411589E-01 0.80342085E+02</pdfrwt>
<pdfrwt beam="2">  1       -1 0.33469819E-02 0.80342085E+02</pdfrwt>
<totfact> 0.16191309E+05</totfact>
</mgrwt>
</event>
<event>
 8    1  0.1226832E-024  0.8149216E+02  0.7818608E-02  0.1324869E+00
         -1   -1    0    0    0  501 -0.00000000000E+00  0.00000000000E+00  0.25034308518E+01  0.25034359252E+01  0.50400000000E-02 0.  1.
          2   -1    0    0  501    0  0.00000000000E+00 -0.00000000000E+00 -0.66318649020E+03  0.66318649020E+03  0.25500000000E-02 0. -1.
         24    2    1    2    0    0  0.00000000000E+00  0.00000000000E+00 -0.66068305934E+03  0.66568992613E+03  0.81492164295E+02 0.  0.
         66    2    3    3    0    0  0.32682433528E+02  0.17749730945E+02 -0.46601429725E+03  0.46750028838E+03  0.19999964424E+01 0.  0.
        -13    1    3    3    0    0 -0.32682433528E+02 -0.17749730945E+02 -0.19466876210E+03  0.19818963775E+03  0.10566000000E+00 0.  1.
         13    1    4    4    0    0  0.11629124295E+02  0.67162723794E+01 -0.16139677488E+03  0.16195454594E+03  0.10566000000E+00 0. -1.
        -13    1    4    4    0    0  0.46057586710E+01  0.21055084829E+01 -0.69983186316E+02  0.70166257630E+02  0.10566000000E+00 0.  1.
         14    1    4    4    0    0  0.16447550562E+02  0.89279500827E+01 -0.23463433605E+03  0.23537948481E+03  0.00000000000E+00 0. -1.
<mgrwt>
<rscale>  0 0.81492164E+02</rscale>
<asrwt>0</asrwt>
<pdfrwt beam="1">  1        2 0.10202855E+00 0.81492164E+02</pdfrwt>
<pdfrwt beam="2">  1       -1 0.38514413E-03 0.81492164E+02</pdfrwt>
<totfact> 0.31472647E+05</totfact>
</mgrwt>
</event>
<event>
 8    1  0.1226832E-024  0.8031515E+02  0.7818608E-02  0.1328159E+00
         -1   -1    0    0    0  501 -0.00000000000E+00  0.00000000000E+00  0.16399708315E+02  0.16399709089E+02  0.50400000000E-02 0.  1.
          2   -1    0    0  501    0  0.00000000000E+00 -0.00000000000E+00 -0.98332884934E+02  0.98332884967E+02  0.25500000000E-02 0. -1.
         24    2    1    2    0    0  0.00000000000E+00 -0.88817841970E-15 -0.81933176619E+02  0.11473259406E+03  0.80315146193E+02 0.  0.
         66    2    3    3    0    0 -0.37277868035E+02 -0.57571335297E+01 -0.21413153898E+02  0.43420124278E+02  0.20000001877E+01 0.  0.
        -13    1    3    3    0    0  0.37277868035E+02  0.57571335297E+01 -0.60520022721E+02  0.71312469778E+02  0.10566000000E+00 0.  1.
         13    1    4    4    0    0 -0.24897509161E+02 -0.35795184623E+01 -0.14256276601E+02  0.28912825898E+02  0.10566000000E+00 0. -1.
        -13    1    4    4    0    0 -0.78947009315E+01 -0.12989851055E+01 -0.39482495537E+01  0.89226399499E+01  0.10566000000E+00 0.  1.
        -14    1    4    4    0    0 -0.44856579423E+01 -0.87862996191E+00 -0.32086277433E+01  0.55846584301E+01  0.00000000000E+00 0.  1.
<mgrwt>
<rscale>  0 0.80315146E+02</rscale>
<asrwt>0</asrwt>
<pdfrwt beam="1">  1        2 0.15128136E-01 0.80315146E+02</pdfrwt>
<pdfrwt beam="2">  1       -1 0.25230322E-02 0.80315146E+02</pdfrwt>
<totfact> 0.17457932E+05</totfact>
</mgrwt>
</event>
<event>
 8    1  0.1226832E-024  0.8115223E+02  0.7818608E-02  0.1325813E+00
         -1   -1    0    0    0  501 -0.00000000000E+00  0.00000000000E+00  0.86523340607E+02  0.86523340753E+02  0.50400000000E-02 0.  1.
          2   -1    0    0  501    0  0.00000000000E+00 -0.00000000000E+00 -0.19028633982E+02  0.19028634153E+02  0.25500000000E-02 0. -1.
         24    2    1    2    0    0 -0.35527136788E-14  0.71054273576E-14  0.67494706625E+02  0.10555197491E+03  0.81152227229E+02 0.  0.
         66    2    3    3    0    0 -0.19070292913E+02  0.32002345867E+02  0.54602415633E+02  0.66130552509E+02  0.19999923565E+01 0.  0.
        -13    1    3    3    0    0  0.19070292913E+02 -0.32002345867E+02  0.12892290992E+02  0.39421422397E+02  0.10566000000E+00 0.  1.
         13    1    4    4    0    0 -0.64548274958E+01  0.10020436074E+02  0.18251023777E+02  0.21798737809E+02  0.10566000000E+00 0. -1.
        -13    1    4    4    0    0 -0.51061521808E+01  0.87151714190E+01  0.15532881729E+02  0.18528588230E+02  0.10566000000E+00 0.  1.
         14    1    4    4    0    0 -0.75093132360E+01  0.13266738374E+02  0.20818510127E+02  0.25803226470E+02  0.00000000000E+00 0. -1.
<mgrwt>
<rscale>  0 0.81152227E+02</rscale>
<asrwt>0</asrwt>
<pdfrwt beam="1">  1        2 0.29274822E-02 0.81152227E+02</pdfrwt>
<pdfrwt beam="2">  1       -1 0.13311283E-01 0.81152227E+02</pdfrwt>
<totfact> 0.11793596E+05</totfact>
</mgrwt>
</event>
<event>
 8    1  0.1226832E-024  0.8079371E+02  0.7818608E-02  0.1326814E+00
          2   -1    0    0  501    0  0.00000000000E+00  0.00000000000E+00  0.16157071256E+02  0.16157071457E+02  0.25500000000E-02 0. -1.
         -1   -1    0    0    0  501 -0.00000000000E+00 -0.00000000000E+00 -0.10100258429E+03  0.10100258442E+03  0.50400000000E-02 0.  1.
         24    2    1    2    0    0  0.00000000000E+00  0.00000000000E+00 -0.84845513037E+02  0.11715965588E+03  0.80793711900E+02 0.  0.
         66    2    3    3    0    0 -0.18605603486E+02  0.35409191102E+02 -0.34516479711E+02  0.52871227251E+02  0.20000009445E+01 0.  0.
        -13    1    3    3    0    0  0.18605603486E+02 -0.35409191102E+02 -0.50329033326E+02  0.64288428625E+02  0.10566000000E+00 0.  1.
         13    1    4    4    0    0 -0.93196270075E+01  0.18570010847E+02 -0.18779191050E+02  0.28006605131E+02  0.10566000000E+00 0. -1.
        -13    1    4    4    0    0 -0.89595600854E+01  0.16180902421E+02 -0.14903924791E+02  0.23753598849E+02  0.10566000000E+00 0.  1.
         14    1    4    4    0    0 -0.32641639310E+00  0.65827783396E+00 -0.83336386943E+00  0.11110232703E+01  0.00000000000E+00 0. -1.
<mgrwt>
<rscale>  0 0.80793712E+02</rscale>
<asrwt>0</asrwt>
<pdfrwt beam="1">  1        2 0.24857034E-02 0.80793712E+02</pdfrwt>
<pdfrwt beam="2">  1       -1 0.15538859E-01 0.80793712E+02</pdfrwt>
<totfact> 0.11540038E+05</totfact>
</mgrwt>
</event>
<event>
 8    1  0.1226832E-024  0.7928277E+02  0.7818608E-02  0.1331099E+00
          2   -1    0    0  501    0  0.00000000000E+00  0.00000000000E+00  0.75335090363E+03  0.75335090363E+03  0.25500000000E-02 0. -1.
         -1   -1    0    0    0  501 -0.00000000000E+00 -0.00000000000E+00 -0.20859296071E+01  0.20859356959E+01  0.50400000000E-02 0.  1.
         24    2    1    2    0    0  0.00000000000E+00  0.17763568394E-14  0.75126497402E+03  0.75543683933E+03  0.79282766246E+02 0.  0.
         66    2    3    3    0    0  0.15466332241E+02  0.11764000434E+02  0.70481901812E+03  0.70508967334E+03  0.20000030546E+01 0.  0.
        -13    1    3    3    0    0 -0.15466332241E+02 -0.11764000434E+02  0.46445955907E+02  0.50347165991E+02  0.10566000000E+00 0.  1.
         13    1    4    4    0    0  0.36403151258E+01  0.21286417100E+01  0.14689507960E+03  0.14695563475E+03  0.10566000000E+00 0. -1.
        -13    1    4    4    0    0  0.11213235862E+01  0.11975439295E+01  0.48838946916E+02  0.48866608005E+02  0.10566000000E+00 0.  1.
         14    1    4    4    0    0  0.10704693529E+02  0.84378147944E+01  0.50908499160E+03  0.50926743058E+03  0.00000000000E+00 0. -1.
<mgrwt>
<rscale>  0 0.79282766E+02</rscale>
<asrwt>0</asrwt>
<pdfrwt beam="1">  1        2 0.11590037E+00 0.79282766E+02</pdfrwt>
<pdfrwt beam="2">  1       -1 0.32091209E-03 0.79282766E+02</pdfrwt>
<totfact> 0.34787424E+05</totfact>
</mgrwt>
</event>
<event>
 8    1  0.1226832E-024  0.8006094E+02  0.7818608E-02  0.1328879E+00
         -1   -1    0    0    0  501 -0.00000000000E+00  0.00000000000E+00  0.11497760588E+02  0.11497761692E+02  0.50400000000E-02 0.  1.
          2   -1    0    0  501    0  0.00000000000E+00 -0.00000000000E+00 -0.13936961160E+03  0.13936961162E+03  0.25500000000E-02 0. -1.
         24    2    1    2    0    0  0.00000000000E+00 -0.88817841970E-15 -0.12787185101E+03  0.15086737332E+03  0.80060939601E+02 0.  0.
         66    2    3    3    0    0 -0.12514641672E+02  0.78494427197E+01 -0.13403418311E+03  0.13486064010E+03  0.19999998050E+01 0.  0.
        -13    1    3    3    0    0  0.12514641672E+02 -0.78494427197E+01  0.61623320999E+01  0.16006733213E+02  0.10566000000E+00 0.  1.
         13    1    4    4    0    0 -0.13945989949E+01  0.23826018399E+00 -0.13527227074E+02  0.13601423110E+02  0.10566000000E+00 0.  1.
        -13    1    4    4    0    0 -0.46961353784E+01  0.29119071374E+01 -0.49239294572E+02  0.49548483172E+02  0.10566000000E+00 0. -1.
        -14    1    4    4    0    0 -0.64239072989E+01  0.46992753983E+01 -0.71267661468E+02  0.71710733823E+02  0.00000000000E+00 0.  1.
<mgrwt>
<rscale>  0 0.80060940E+02</rscale>
<asrwt>0</asrwt>
<pdfrwt beam="1">  1        2 0.21441478E-01 0.80060940E+02</pdfrwt>
<pdfrwt beam="2">  1       -1 0.17688864E-02 0.80060940E+02</pdfrwt>
<totfact> 0.19526716E+05</totfact>
</mgrwt>
</event>
<event>
 8    1  0.1226832E-024  0.7888123E+02  0.7818608E-02  0.1332257E+00
         -1   -1    0    0    0  501 -0.00000000000E+00  0.00000000000E+00  0.18734315571E+02  0.18734316249E+02  0.50400000000E-02 0.  1.
          2   -1    0    0  501    0  0.00000000000E+00 -0.00000000000E+00 -0.83032772102E+02  0.83032772141E+02  0.25500000000E-02 0. -1.
         24    2    1    2    0    0 -0.17763568394E-14  0.35527136788E-14 -0.64298456531E+02  0.10176708839E+03  0.78881232033E+02 0.  0.
         66    2    3    3    0    0 -0.91617710759E+01  0.30700187623E+02 -0.61790001657E+02  0.69630768140E+02  0.19999994351E+01 0.  0.
        -13    1    3    3    0    0  0.91617710759E+01 -0.30700187623E+02 -0.25084548746E+01  0.32136320250E+02  0.10566000000E+00 0.  1.
         13    1    4    4    0    0 -0.10312310034E+00  0.48245422139E+00 -0.63749640847E+00  0.81299579087E+00  0.10566000000E+00 0. -1.
        -13    1    4    4    0    0 -0.35131059245E+01  0.10600593074E+02 -0.22459589884E+02  0.25083038663E+02  0.10566000000E+00 0.  1.
         14    1    4    4    0    0 -0.55455420511E+01  0.19617140328E+02 -0.38692915364E+02  0.43734733686E+02  0.00000000000E+00 0. -1.
<mgrwt>
<rscale>  0 0.78881232E+02</rscale>
<asrwt>0</asrwt>
<pdfrwt beam="1">  1        2 0.12774272E-01 0.78881232E+02</pdfrwt>
<pdfrwt beam="2">  1       -1 0.28822025E-02 0.78881232E+02</pdfrwt>
<totfact> 0.17508118E+05</totfact>
</mgrwt>
</event>
<event>
 8    1  0.1226832E-024  0.7942772E+02  0.7818608E-02  0.1330683E+00
          2   -1    0    0  501    0  0.00000000000E+00  0.00000000000E+00  0.15071567708E+02  0.15071567924E+02  0.25500000000E-02 0. -1.
         -1   -1    0    0    0  501 -0.00000000000E+00 -0.00000000000E+00 -0.10464676282E+03  0.10464676294E+03  0.50400000000E-02 0.  1.
         24    2    1    2    0    0  0.00000000000E+00  0.88817841970E-15 -0.89575195109E+02  0.11971833086E+03  0.79427722903E+02 0.  0.
         66    2    3    3    0    0 -0.32864572232E+02  0.71148981848E+01 -0.13038646080E+02  0.36120744859E+02  0.20000083508E+01 0.  0.
        -13    1    3    3    0    0  0.32864572232E+02 -0.71148981848E+01 -0.76536549029E+02  0.83597586003E+02  0.10566000000E+00 0.  1.
         13    1    4    4    0    0 -0.16660957907E+02  0.29012922957E+01 -0.65341329748E+01  0.18130390871E+02  0.10566000000E+00 0. -1.
        -13    1    4    4    0    0 -0.51927340194E+00  0.57777273520E-01 -0.79339416065E-01  0.53892657926E+00  0.10566000000E+00 0. -1.
         14    1    4    4    0    0 -0.15684340923E+02  0.41558286157E+01 -0.64251736887E+01  0.17451427409E+02  0.00000000000E+00 0. -1.
<mgrwt>
<rscale>  0 0.79427723E+02</rscale>
<asrwt>0</asrwt>
<pdfrwt beam="1">  1        2 0.23187028E-02 0.79427723E+02</pdfrwt>
<pdfrwt beam="2">  1       -1 0.16099502E-01 0.79427723E+02</pdfrwt>
<totfact> 0.11949682E+05</totfact>
</mgrwt>
</event>
<event>
 8    1  0.1226832E-024  0.7090081E+02  0.7818608E-02  0.1357056E+00
         -1   -1    0    0    0  501 -0.00000000000E+00  0.00000000000E+00  0.29511306070E+02  0.29511306501E+02  0.50400000000E-02 0.  1.
          2   -1    0    0  501    0  0.00000000000E+00 -0.00000000000E+00 -0.42584742526E+02  0.42584742603E+02  0.25500000000E-02 0. -1.
         24    2    1    2    0    0  0.35527136788E-14  0.00000000000E+00 -0.13073436456E+02  0.72096049103E+02  0.70900814914E+02 0.  0.
         66    2    3    3    0    0 -0.24567691962E+02  0.82750489226E+01 -0.31087570004E+02  0.40527582328E+02  0.19999993784E+01 0.  0.
        -13    1    3    3    0    0  0.24567691962E+02 -0.82750489226E+01  0.18014133548E+02  0.31568466776E+02  0.10566000000E+00 0.  1.
         13    1    4    4    0    0 -0.17327495676E+02  0.59268505216E+01 -0.21544607597E+02  0.28276331870E+02  0.10566000000E+00 0. -1.
        -13    1    4    4    0    0 -0.16827272138E+01  0.10080462834E+01 -0.23325623680E+01  0.30495474126E+01  0.10566000000E+00 0.  1.
         14    1    4    4    0    0 -0.55574690732E+01  0.13401521177E+01 -0.72104000394E+01  0.92017030449E+01  0.00000000000E+00 0. -1.
<mgrwt>
<rscale>  0 0.70900815E+02</rscale>
<asrwt>0</asrwt>
<pdfrwt beam="1">  1        2 0.65514989E-02 0.70900815E+02</pdfrwt>
<pdfrwt beam="2">  1       -1 0.45402010E-02 0.70900815E+02</pdfrwt>
<totfact> 0.20078060E+05</totfact>
</mgrwt>
</event>
<event>
 8    1  0.1226832E-024  0.7876375E+02  0.7818608E-02  0.1332597E+00
         -1   -1    0    0    0  501 -0.00000000000E+00  0.00000000000E+00  0.85725270058E+02  0.85725270206E+02  0.50400000000E-02 0.  1.
          2   -1    0    0  501    0  0.00000000000E+00 -0.00000000000E+00 -0.18091887653E+02  0.18091887833E+02  0.25500000000E-02 0. -1.
         24    2    1    2    0    0  0.00000000000E+00  0.00000000000E+00  0.67633382405E+02  0.10381715804E+03  0.78763747294E+02 0.  0.
         66    2    3    3    0    0 -0.16144756760E+02  0.35710279721E+02  0.29076927466E+02  0.48839993415E+02  0.19999993349E+01 0.  0.
        -13    1    3    3    0    0  0.16144756760E+02 -0.35710279721E+02  0.38556454939E+02  0.54977164624E+02  0.10566000000E+00 0.  1.
         13    1    4    4    0    0 -0.10276690350E+02  0.21977196363E+02  0.18196651480E+02  0.30327162968E+02  0.10566000000E+00 0. -1.
        -13    1    4    4    0    0 -0.35453331365E+01  0.79663500136E+01  0.70209917526E+01  0.11195428032E+02  0.10566000000E+00 0.  1.
        -14    1    4    4    0    0 -0.23227332736E+01  0.57667333439E+01  0.38592842332E+01  0.73174024157E+01  0.00000000000E+00 0.  1.
<mgrwt>
<rscale>  0 0.78763747E+02</rscale>
<asrwt>0</asrwt>
<pdfrwt beam="1">  1        2 0.27833674E-02 0.78763747E+02</pdfrwt>
<pdfrwt beam="2">  1       -1 0.13188503E-01 0.78763747E+02</pdfrwt>
<totfact> 0.12723299E+05</totfact>
</mgrwt>
</event>
<event>
 8    1  0.1226832E-024  0.7972413E+02  0.7818608E-02  0.1329836E+00
         -1   -1    0    0    0  501 -0.00000000000E+00  0.00000000000E+00  0.13275791843E+03  0.13275791853E+03  0.50400000000E-02 0.  1.
          2   -1    0    0  501    0  0.00000000000E+00 -0.00000000000E+00 -0.11969035137E+02  0.11969035409E+02  0.25500000000E-02 0. -1.
         24    2    1    2    0    0  0.44408920985E-15 -0.35527136788E-14  0.12078888329E+03  0.14472695394E+03  0.79724129774E+02 0.  0.
         66    2    3    3    0    0  0.30446398406E+01  0.25674079990E+02  0.11545116509E+03  0.11832751048E+03  0.20000004584E+01 0.  0.
        -13    1    3    3    0    0 -0.30446398406E+01 -0.25674079990E+02  0.53377182090E+01  0.26399443456E+02  0.10566000000E+00 0.  1.
         13    1    4    4    0    0  0.89178423239E+00  0.35314807224E+01  0.15056839707E+02  0.15491488670E+02  0.10566000000E+00 0. -1.
        -13    1    4    4    0    0  0.20985537339E+00  0.62655575308E+01  0.26858701043E+02  0.27580830956E+02  0.10566000000E+00 0.  1.
         14    1    4    4    0    0  0.19430002348E+01  0.15877041736E+02  0.73535624336E+02  0.75255190856E+02  0.00000000000E+00 0. -1.
<mgrwt>
<rscale>  0 0.79724130E+02</rscale>
<asrwt>0</asrwt>
<pdfrwt beam="1">  1        2 0.18413901E-02 0.79724130E+02</pdfrwt>
<pdfrwt beam="2">  1       -1 0.20424295E-01 0.79724130E+02</pdfrwt>
<totfact> 0.11215006E+05</totfact>
</mgrwt>
</event>
<event>
 8    1  0.1226832E-024  0.7926990E+02  0.7818608E-02  0.1331136E+00
         -1   -1    0    0    0  501 -0.00000000000E+00  0.00000000000E+00  0.19384637030E+03  0.19384637037E+03  0.50400000000E-02 0.  1.
          2   -1    0    0  501    0  0.00000000000E+00 -0.00000000000E+00 -0.81039914390E+01  0.81039918402E+01  0.25500000000E-02 0. -1.
         24    2    1    2    0    0  0.35527136788E-14  0.00000000000E+00  0.18574237886E+03  0.20195036221E+03  0.79269902801E+02 0.  0.
         66    2    3    3    0    0 -0.23097586046E+02 -0.32123934418E+02  0.88178432008E+02  0.96668927313E+02  0.19999981826E+01 0.  0.
        -13    1    3    3    0    0  0.23097586046E+02  0.32123934418E+02  0.97563946854E+02  0.10528143489E+03  0.10566000000E+00 0.  1.
         13    1    4    4    0    0 -0.16946465367E+02 -0.22949250528E+02  0.62869087309E+02  0.69039004130E+02  0.10566000000E+00 0. -1.
        -13    1    4    4    0    0 -0.84061969748E+00 -0.79778869120E+00  0.25136341936E+01  0.27699511127E+01  0.10566000000E+00 0.  1.
         14    1    4    4    0    0 -0.53105009819E+01 -0.83768951983E+01  0.22795710506E+02  0.24859972070E+02  0.00000000000E+00 0. -1.
<mgrwt>
<rscale>  0 0.79269903E+02</rscale>
<asrwt>0</asrwt>
<pdfrwt beam="1">  1        2 0.12467680E-02 0.79269903E+02</pdfrwt>
<pdfrwt beam="2">  1       -1 0.29822517E-01 0.79269903E+02</pdfrwt>
<totfact> 0.10291255E+05</totfact>
</mgrwt>
</event>
<event>
 8    1  0.1226832E-024  0.8318117E+02  0.7818608E-02  0.1320259E+00
          2   -1    0    0  501    0  0.00000000000E+00  0.00000000000E+00  0.16636979060E+04  0.16636979060E+04  0.25500000000E-02 0. -1.
         -1   -1    0    0    0  501 -0.00000000000E+00 -0.00000000000E+00 -0.10397119947E+01  0.10397242103E+01  0.50400000000E-02 0.  1.
         24    2    1    2    0    0  0.00000000000E+00  0.00000000000E+00  0.16626581940E+04  0.16647376302E+04  0.83181171857E+02 0.  0.
         66    2    3    3    0    0  0.20353813278E+01 -0.11308824984E+02  0.16312776047E+04  0.16313192991E+04  0.19999972358E+01 0.  0.
        -13    1    3    3    0    0 -0.20353813278E+01  0.11308824984E+02  0.31380589312E+02  0.33418331037E+02  0.10566000000E+00 0.  1.
         13    1    4    4    0    0  0.30919777785E+00 -0.55032647177E+01  0.69775945801E+03  0.69778123644E+03  0.10566000000E+00 0. -1.
        -13    1    4    4    0    0  0.59060557498E+00 -0.21121212433E+01  0.28971425383E+03  0.28972257403E+03  0.10566000000E+00 0. -1.
         14    1    4    4    0    0  0.11355779750E+01 -0.36934390233E+01  0.64380389283E+03  0.64381548867E+03  0.00000000000E+00 0. -1.
<mgrwt>
<rscale>  0 0.83181172E+02</rscale>
<asrwt>0</asrwt>
<pdfrwt beam="1">  1        2 0.25595296E+00 0.83181172E+02</pdfrwt>
<pdfrwt beam="2">  1       -1 0.15995698E-03 0.83181172E+02</pdfrwt>
<totfact> 0.28650438E+05</totfact>
</mgrwt>
</event>
<event>
 8    1  0.1226832E-024  0.7950489E+02  0.7818608E-02  0.1330462E+00
          2   -1    0    0  501    0  0.00000000000E+00  0.00000000000E+00  0.59060290181E+02  0.59060290236E+02  0.25500000000E-02 0. -1.
         -1   -1    0    0    0  501 -0.00000000000E+00 -0.00000000000E+00 -0.26756675652E+02  0.26756676127E+02  0.50400000000E-02 0.  1.
         24    2    1    2    0    0  0.35527136788E-14 -0.71054273576E-14  0.32303614529E+02  0.85816966363E+02  0.79504894215E+02 0.  0.
         66    2    3    3    0    0 -0.17560643280E+02  0.33149326638E+02  0.30276804441E+02  0.48248719503E+02  0.19999993871E+01 0.  0.
        -13    1    3    3    0    0  0.17560643280E+02 -0.33149326638E+02  0.20268100878E+01  0.37568246860E+02  0.10566000000E+00 0.  1.
         13    1    4    4    0    0 -0.74029357740E+01  0.14176554625E+02  0.12059989638E+02  0.20030793125E+02  0.10566000000E+00 0. -1.
        -13    1    4    4    0    0 -0.42239506410E+00  0.13175466092E+01  0.11117682595E+01  0.17780718085E+01  0.10566000000E+00 0.  1.
         14    1    4    4    0    0 -0.97353124421E+01  0.17655225404E+02  0.17105046543E+02  0.26439854569E+02  0.00000000000E+00 0. -1.
<mgrwt>
<rscale>  0 0.79504894E+02</rscale>
<asrwt>0</asrwt>
<pdfrwt beam="1">  1        2 0.90861985E-02 0.79504894E+02</pdfrwt>
<pdfrwt beam="2">  1       -1 0.41164117E-02 0.79504894E+02</pdfrwt>
<totfact> 0.15773922E+05</totfact>
</mgrwt>
</event>
<event>
 8    1  0.1226832E-024  0.8040495E+02  0.7818608E-02  0.1327906E+00
          2   -1    0    0  501    0  0.00000000000E+00  0.00000000000E+00  0.10883924957E+02  0.10883925256E+02  0.25500000000E-02 0. -1.
         -1   -1    0    0    0  501 -0.00000000000E+00 -0.00000000000E+00 -0.14849779791E+03  0.14849779800E+03  0.50400000000E-02 0.  1.
         24    2    1    2    0    0  0.00000000000E+00  0.00000000000E+00 -0.13761387296E+03  0.15938172326E+03  0.80404948091E+02 0.  0.
         66    2    3    3    0    0 -0.32095996353E+02  0.22318861816E+01 -0.21147850278E+02  0.38553415725E+02  0.19999987163E+01 0.  0.
        -13    1    3    3    0    0  0.32095996353E+02 -0.22318861816E+01 -0.11646602268E+03  0.12082830753E+03  0.10566000000E+00 0.  1.
         13    1    4    4    0    0 -0.25228494793E+02  0.15900171695E+01 -0.16834812537E+02  0.30371486321E+02  0.10566000000E+00 0. -1.
        -13    1    4    4    0    0 -0.51804444434E+01  0.18726476545E+00 -0.34936424580E+01  0.62521015974E+01  0.10566000000E+00 0.  1.
        -14    1    4    4    0    0 -0.16870571163E+01  0.45460424662E+00 -0.81939528268E+00  0.19298278068E+01  0.00000000000E+00 0.  1.
<mgrwt>
<rscale>  0 0.80404948E+02</rscale>
<asrwt>0</asrwt>
<pdfrwt beam="1">  1        2 0.16744501E-02 0.80404948E+02</pdfrwt>
<pdfrwt beam="2">  1       -1 0.22845814E-01 0.80404948E+02</pdfrwt>
<totfact> 0.10677797E+05</totfact>
</mgrwt>
</event>
<event>
 8    1  0.1226832E-024  0.8082680E+02  0.7818608E-02  0.1326721E+00
          2   -1    0    0  501    0  0.00000000000E+00  0.00000000000E+00  0.31118849573E+02  0.31118849677E+02  0.25500000000E-02 0. -1.
         -1   -1    0    0    0  501 -0.00000000000E+00 -0.00000000000E+00 -0.52484038306E+02  0.52484038548E+02  0.50400000000E-02 0.  1.
         24    2    1    2    0    0 -0.35527136788E-14  0.00000000000E+00 -0.21365188733E+02  0.83602888226E+02  0.80826800197E+02 0.  0.
         66    2    3    3    0    0 -0.27172538165E+02 -0.40836002585E+01  0.19928494968E+02  0.34002463842E+02  0.20000035542E+01 0.  0.
        -13    1    3    3    0    0  0.27172538165E+02  0.40836002585E+01 -0.41293683702E+02  0.49600424384E+02  0.10566000000E+00 0.  1.
         13    1    4    4    0    0 -0.16365367121E+02 -0.18477027326E+01  0.12347602965E+02  0.20584307358E+02  0.10566000000E+00 0. -1.
        -13    1    4    4    0    0 -0.20752430224E+01 -0.68780352176E+00  0.17808991775E+01  0.28217854637E+01  0.10566000000E+00 0.  1.
         14    1    4    4    0    0 -0.87319280211E+01 -0.15480940041E+01  0.57999928263E+01  0.10596371020E+02  0.00000000000E+00 0. -1.
<mgrwt>
<rscale>  0 0.80826800E+02</rscale>
<asrwt>0</asrwt>
<pdfrwt beam="1">  1        2 0.47875153E-02 0.80826800E+02</pdfrwt>
<pdfrwt beam="2">  1       -1 0.80744675E-02 0.80826800E+02</pdfrwt>
<totfact> 0.13168337E+05</totfact>
</mgrwt>
</event>
<event>
 8    1  0.1226832E-024  0.8071311E+02  0.7818608E-02  0.1327040E+00
          2   -1    0    0  501    0  0.00000000000E+00  0.00000000000E+00  0.39540526034E+03  0.39540526034E+03  0.25500000000E-02 0. -1.
         -1   -1    0    0    0  501 -0.00000000000E+00 -0.00000000000E+00 -0.41189405318E+01  0.41189436153E+01  0.50400000000E-02 0.  1.
         24    2    1    2    0    0  0.00000000000E+00  0.00000000000E+00  0.39128631980E+03  0.39952420396E+03  0.80713106021E+02 0.  0.
         66    2    3    3    0    0  0.33188983457E+02  0.30101706814E+01  0.30821209092E+03  0.31001493952E+03  0.19999976554E+01 0.  0.
        -13    1    3    3    0    0 -0.33188983457E+02 -0.30101706814E+01  0.83074228888E+02  0.89509264435E+02  0.10566000000E+00 0.  1.
         13    1    4    4    0    0  0.62182882683E+01  0.10777287827E+01  0.56802974577E+02  0.57152582559E+02  0.10566000000E+00 0. -1.
        -13    1    4    4    0    0  0.92114266874E+01  0.11125662978E+01  0.90067348353E+02  0.90544058826E+02  0.10566000000E+00 0.  1.
        -14    1    4    4    0    0  0.17759268501E+02  0.81987560097E+00  0.16134176799E+03  0.16231829814E+03  0.00000000000E+00 0.  1.
<mgrwt>
<rscale>  0 0.80713106E+02</rscale>
<asrwt>0</asrwt>
<pdfrwt beam="1">  1        2 0.60831605E-01 0.80713106E+02</pdfrwt>
<pdfrwt beam="2">  1       -1 0.63368312E-03 0.80713106E+02</pdfrwt>
<totfact> 0.27494398E+05</totfact>
</mgrwt>
</event>
<event>
 8    1  0.1226832E-024  0.8093223E+02  0.7818608E-02  0.1326427E+00
          2   -1    0    0  501    0  0.00000000000E+00  0.00000000000E+00  0.15623765850E+04  0.15623765850E+04  0.25500000000E-02 0. -1.
         -1   -1    0    0    0  501 -0.00000000000E+00 -0.00000000000E+00 -0.10480808568E+01  0.10480929749E+01  0.50400000000E-02 0.  1.
         24    2    1    2    0    0  0.17763568394E-14  0.00000000000E+00  0.15613285042E+04  0.15634246780E+04  0.80932230030E+02 0.  0.
         66    2    3    3    0    0  0.10849677055E+02  0.17650162180E+02  0.14520670450E+04  0.14522162191E+04  0.19999999373E+01 0.  0.
        -13    1    3    3    0    0 -0.10849677055E+02 -0.17650162180E+02  0.10926145912E+03  0.11120845890E+03  0.10566000000E+00 0.  1.
         13    1    4    4    0    0  0.97831551890E+00  0.17897863189E+01  0.17142956989E+03  0.17144173655E+03  0.10566000000E+00 0.  1.
        -13    1    4    4    0    0  0.12296886511E+01  0.26768399189E+01  0.18008234005E+03  0.18010646287E+03  0.10566000000E+00 0. -1.
         14    1    4    4    0    0  0.86416728846E+01  0.13183535942E+02  0.11005551351E+04  0.11006680197E+04  0.00000000000E+00 0. -1.
<mgrwt>
<rscale>  0 0.80932230E+02</rscale>
<asrwt>0</asrwt>
<pdfrwt beam="1">  1        2 0.24036574E+00 0.80932230E+02</pdfrwt>
<pdfrwt beam="2">  1       -1 0.16124407E-03 0.80932230E+02</pdfrwt>
<totfact> 0.31734125E+05</totfact>
</mgrwt>
</event>
<event>
 8    1  0.1226832E-024  0.7974310E+02  0.7818608E-02  0.1329782E+00
          2   -1    0    0  501    0  0.00000000000E+00  0.00000000000E+00  0.40341793137E+03  0.40341793138E+03  0.25500000000E-02 0. -1.
         -1   -1    0    0    0  501 -0.00000000000E+00 -0.00000000000E+00 -0.39406770617E+01  0.39406802847E+01  0.50400000000E-02 0.  1.
         24    2    1    2    0    0  0.17763568394E-14  0.35527136788E-14  0.39947725431E+03  0.40735861166E+03  0.79743098674E+02 0.  0.
         66    2    3    3    0    0  0.13053590355E+02  0.31809043881E+02  0.30273470825E+03  0.30468756961E+03  0.20000009418E+01 0.  0.
        -13    1    3    3    0    0 -0.13053590355E+02 -0.31809043881E+02  0.96742546062E+02  0.10267104205E+03  0.10566000000E+00 0.  1.
         13    1    4    4    0    0  0.63674009316E+00  0.22369753082E+01  0.19934572402E+02  0.20070073178E+02  0.10566000000E+00 0. -1.
        -13    1    4    4    0    0  0.44527666101E+01  0.89637908724E+01  0.91384953999E+02  0.91931483501E+02  0.10566000000E+00 0.  1.
         14    1    4    4    0    0  0.79640836513E+01  0.20608277700E+02  0.19141518185E+03  0.19268601293E+03  0.00000000000E+00 0. -1.
<mgrwt>
<rscale>  0 0.79743099E+02</rscale>
<asrwt>0</asrwt>
<pdfrwt beam="1">  1        2 0.62064265E-01 0.79743099E+02</pdfrwt>
<pdfrwt beam="2">  1       -1 0.60625857E-03 0.79743099E+02</pdfrwt>
<totfact> 0.28576697E+05</totfact>
</mgrwt>
</event>
<event>
 8    1  0.1226832E-024  0.8031164E+02  0.7818608E-02  0.1328169E+00
          2   -1    0    0  501    0  0.00000000000E+00  0.00000000000E+00  0.89649386494E+03  0.89649386494E+03  0.25500000000E-02 0. -1.
         -1   -1    0    0    0  501 -0.00000000000E+00 -0.00000000000E+00 -0.17986588689E+01  0.17986659302E+01  0.50400000000E-02 0.  1.
         24    2    1    2    0    0  0.00000000000E+00  0.00000000000E+00  0.89469520607E+03  0.89829253087E+03  0.80311638366E+02 0.  0.
         66    2    3    3    0    0 -0.30258875209E+02  0.45809481419E+01  0.73798446849E+03  0.73862145944E+03  0.20000004034E+01 0.  0.
        -13    1    3    3    0    0  0.30258875209E+02 -0.45809481419E+01  0.15671073758E+03  0.15967107143E+03  0.10566000000E+00 0.  1.
         13    1    4    4    0    0 -0.19995608496E+02  0.37466442993E+01  0.49247174419E+03  0.49289176469E+03  0.10566000000E+00 0. -1.
        -13    1    4    4    0    0 -0.97459473306E+01  0.81876709494E+00  0.23644529427E+03  0.23664750625E+03  0.10566000000E+00 0.  1.
        -14    1    4    4    0    0 -0.51731938236E+00  0.15536747612E-01  0.90674300261E+01  0.90821885035E+01  0.00000000000E+00 0.  1.
<mgrwt>
<rscale>  0 0.80311638E+02</rscale>
<asrwt>0</asrwt>
<pdfrwt beam="1">  1        2 0.13792198E+00 0.80311638E+02</pdfrwt>
<pdfrwt beam="2">  1       -1 0.27671759E-03 0.80311638E+02</pdfrwt>
<totfact> 0.34580456E+05</totfact>
</mgrwt>
</event>
<event>
 8    1  0.1226832E-024  0.7941960E+02  0.7818608E-02  0.1330707E+00
         -1   -1    0    0    0  501 -0.00000000000E+00  0.00000000000E+00  0.16395061519E+01  0.16395138986E+01  0.50400000000E-02 0.  1.
          2   -1    0    0  501    0  0.00000000000E+00 -0.00000000000E+00 -0.96179231868E+03  0.96179231868E+03  0.25500000000E-02 0. -1.
         24    2    1    2    0    0  0.00000000000E+00  0.00000000000E+00 -0.96015281253E+03  0.96343183258E+03  0.79419598506E+02 0.  0.
         66    2    3    3    0    0 -0.16601593547E+02 -0.19392040563E+02 -0.84896782692E+03  0.84935389284E+03  0.20000009051E+01 0.  0.
        -13    1    3    3    0    0  0.16601593547E+02  0.19392040563E+02 -0.11118498561E+03  0.11407793974E+03  0.10566000000E+00 0.  1.
         13    1    4    4    0    0 -0.11947682157E+02 -0.14121401365E+02 -0.61788876822E+03  0.61816559444E+03  0.10566000000E+00 0. -1.
        -13    1    4    4    0    0 -0.42601219019E+01 -0.42796071559E+01 -0.19720950864E+03  0.19730196435E+03  0.10566000000E+00 0.  1.
         14    1    4    4    0    0 -0.39378948816E+00 -0.99103204249E+00 -0.33869550055E+02  0.33886334054E+02  0.00000000000E+00 0. -1.
<mgrwt>
<rscale>  0 0.79419599E+02</rscale>
<asrwt>0</asrwt>
<pdfrwt beam="1">  1        2 0.14796760E+00 0.79419599E+02</pdfrwt>
<pdfrwt beam="2">  1       -1 0.25223308E-03 0.79419599E+02</pdfrwt>
<totfact> 0.35825966E+05</totfact>
</mgrwt>
</event>
<event>
 8    1  0.1226832E-024  0.8259408E+02  0.7818608E-02  0.1321847E+00
          2   -1    0    0  501    0  0.00000000000E+00  0.00000000000E+00  0.70125581656E+02  0.70125581703E+02  0.25500000000E-02 0. -1.
         -1   -1    0    0    0  501 -0.00000000000E+00 -0.00000000000E+00 -0.24319878974E+02  0.24319879496E+02  0.50400000000E-02 0.  1.
         24    2    1    2    0    0  0.00000000000E+00  0.71054273576E-14  0.45805702682E+02  0.94445461199E+02  0.82594084188E+02 0.  0.
         66    2    3    3    0    0  0.21941704514E+02 -0.33074666373E+02  0.35856822173E+02  0.53526476118E+02  0.19999991429E+01 0.  0.
        -13    1    3    3    0    0 -0.21941704514E+02  0.33074666373E+02  0.99488805094E+01  0.40918985082E+02  0.10566000000E+00 0.  1.
         13    1    4    4    0    0  0.41819964744E+01 -0.63268899485E+01  0.59914386813E+01  0.96657711766E+01  0.10566000000E+00 0. -1.
        -13    1    4    4    0    0  0.37130397606E+01 -0.59055146401E+01  0.69798492537E+01  0.98686993605E+01  0.10566000000E+00 0.  1.
         14    1    4    4    0    0  0.14046668279E+02 -0.20842261785E+02  0.22885534238E+02  0.33992005581E+02  0.00000000000E+00 0. -1.
<mgrwt>
<rscale>  0 0.82594084E+02</rscale>
<asrwt>0</asrwt>
<pdfrwt beam="1">  1        2 0.10788551E-01 0.82594084E+02</pdfrwt>
<pdfrwt beam="2">  1       -1 0.37415200E-02 0.82594084E+02</pdfrwt>
<totfact> 0.14814208E+05</totfact>
</mgrwt>
</event>
<event>
 8    1  0.1226832E-024  0.7932846E+02  0.7818608E-02  0.1330968E+00
         -1   -1    0    0    0  501 -0.00000000000E+00  0.00000000000E+00  0.88228115579E+02  0.88228115723E+02  0.50400000000E-02 0.  1.
          2   -1    0    0  501    0  0.00000000000E+00 -0.00000000000E+00 -0.17831630624E+02  0.17831630807E+02  0.25500000000E-02 0. -1.
         24    2    1    2    0    0 -0.35527136788E-14  0.00000000000E+00  0.70396484955E+02  0.10605974653E+03  0.79328461097E+02 0.  0.
         66    2    3    3    0    0 -0.18419583193E+02 -0.34887499963E+02  0.30072344861E+02  0.49646395831E+02  0.19999987293E+01 0.  0.
        -13    1    3    3    0    0  0.18419583193E+02  0.34887499963E+02  0.40324140094E+02  0.56413350699E+02  0.10566000000E+00 0.  1.
         13    1    4    4    0    0 -0.34451158474E+01 -0.63241491207E+01  0.58146587400E+01  0.92566249573E+01  0.10566000000E+00 0. -1.
        -13    1    4    4    0    0 -0.14771551005E+02 -0.28296212820E+02  0.23771662450E+02  0.39799214549E+02  0.10566000000E+00 0.  1.
        -14    1    4    4    0    0 -0.20291634054E+00 -0.26713802283E+00  0.48602367067E+00  0.59055632496E+00  0.00000000000E+00 0.  1.
<mgrwt>
<rscale>  0 0.79328461E+02</rscale>
<asrwt>0</asrwt>
<pdfrwt beam="1">  1        2 0.27433278E-02 0.79328461E+02</pdfrwt>
<pdfrwt beam="2">  1       -1 0.13573556E-01 0.79328461E+02</pdfrwt>
<totfact> 0.12426574E+05</totfact>
</mgrwt>
</event>
<event>
 8    1  0.1226832E-024  0.7915750E+02  0.7818608E-02  0.1331459E+00
         -1   -1    0    0    0  501 -0.00000000000E+00  0.00000000000E+00  0.36229168660E+01  0.36229203717E+01  0.50400000000E-02 0.  1.
          2   -1    0    0  501    0  0.00000000000E+00 -0.00000000000E+00 -0.43238001427E+03  0.43238001428E+03  0.25500000000E-02 0. -1.
         24    2    1    2    0    0  0.00000000000E+00  0.00000000000E+00 -0.42875709740E+03  0.43600293465E+03  0.79157504057E+02 0.  0.
         66    2    3    3    0    0  0.38093023664E+02 -0.28342705875E+01 -0.27105263968E+03  0.27373827833E+03  0.20000004382E+01 0.  0.
        -13    1    3    3    0    0 -0.38093023664E+02  0.28342705875E+01 -0.15770445772E+03  0.16226465632E+03  0.10566000000E+00 0.  1.
         13    1    4    4    0    0  0.21724062678E+02 -0.17134798843E+01 -0.15910741958E+03  0.16059281753E+03  0.10566000000E+00 0. -1.
        -13    1    4    4    0    0  0.58747997733E+01 -0.51213267841E+00 -0.43386841745E+02  0.43785896735E+02  0.10566000000E+00 0. -1.
         14    1    4    4    0    0  0.10494161213E+02 -0.60865802472E+00 -0.68558378360E+02  0.69359564066E+02  0.00000000000E+00 0. -1.
<mgrwt>
<rscale>  0 0.79157504E+02</rscale>
<asrwt>0</asrwt>
<pdfrwt beam="1">  1        2 0.66519962E-01 0.79157504E+02</pdfrwt>
<pdfrwt beam="2">  1       -1 0.55737244E-03 0.79157504E+02</pdfrwt>
<totfact> 0.29836336E+05</totfact>
</mgrwt>
</event>
<event>
 8    1  0.1226832E-024  0.8035175E+02  0.7818608E-02  0.1328056E+00
         -1   -1    0    0    0  501 -0.00000000000E+00  0.00000000000E+00  0.57501242900E+02  0.57501243121E+02  0.50400000000E-02 0.  1.
          2   -1    0    0  501    0  0.00000000000E+00 -0.00000000000E+00 -0.28070715572E+02  0.28070715688E+02  0.25500000000E-02 0. -1.
         24    2    1    2    0    0  0.71054273576E-14 -0.88817841970E-15  0.29430527328E+02  0.85571958809E+02  0.80351752910E+02 0.  0.
         66    2    3    3    0    0  0.38332777612E+02 -0.57469758156E+01  0.25876878185E+02  0.46648069528E+02  0.19999989009E+01 0.  0.
        -13    1    3    3    0    0 -0.38332777612E+02  0.57469758156E+01  0.35536491424E+01  0.38923889281E+02  0.10566000000E+00 0.  1.
         13    1    4    4    0    0  0.13820783114E+02 -0.20366816762E+01  0.85516002968E+01  0.16379961838E+02  0.10566000000E+00 0. -1.
        -13    1    4    4    0    0  0.95914501338E+01 -0.18129707970E+01  0.62797944343E+01  0.11607314976E+02  0.10566000000E+00 0.  1.
        -14    1    4    4    0    0  0.14920544365E+02 -0.18973233423E+01  0.11045483454E+02  0.18660792715E+02  0.00000000000E+00 0.  1.
<mgrwt>
<rscale>  0 0.80351753E+02</rscale>
<asrwt>0</asrwt>
<pdfrwt beam="1">  1        2 0.43185717E-02 0.80351753E+02</pdfrwt>
<pdfrwt beam="2">  1       -1 0.88463450E-02 0.80351753E+02</pdfrwt>
<totfact> 0.13117189E+05</totfact>
</mgrwt>
</event>
<event>
 8    1  0.1226832E-024  0.7992982E+02  0.7818608E-02  0.1329251E+00
          2   -1    0    0  501    0  0.00000000000E+00  0.00000000000E+00  0.29713443630E+03  0.29713443631E+03  0.25500000000E-02 0. -1.
         -1   -1    0    0    0  501 -0.00000000000E+00 -0.00000000000E+00 -0.53753232069E+01  0.53753255697E+01  0.50400000000E-02 0.  1.
         24    2    1    2    0    0  0.00000000000E+00  0.00000000000E+00  0.29175911309E+03  0.30250976188E+03  0.79929818967E+02 0.  0.
         66    2    3    3    0    0 -0.28881666537E+01  0.12800636529E+02  0.28873889960E+03  0.28904385471E+03  0.20000011391E+01 0.  0.
        -13    1    3    3    0    0  0.28881666537E+01 -0.12800636529E+02  0.30202134921E+01  0.13465907164E+02  0.10566000000E+00 0.  1.
         13    1    4    4    0    0 -0.14725812573E+01  0.64193482396E+01  0.16099868953E+03  0.16113337867E+03  0.10566000000E+00 0. -1.
        -13    1    4    4    0    0 -0.25520803827E-01  0.16922714637E+01  0.36243128698E+02  0.36282777951E+02  0.10566000000E+00 0.  1.
         14    1    4    4    0    0 -0.13900645926E+01  0.46890168260E+01  0.91497081372E+02  0.91627698094E+02  0.00000000000E+00 0. -1.
<mgrwt>
<rscale>  0 0.79929819E+02</rscale>
<asrwt>0</asrwt>
<pdfrwt beam="1">  1        2 0.45713000E-01 0.79929819E+02</pdfrwt>
<pdfrwt beam="2">  1       -1 0.82697281E-03 0.79929819E+02</pdfrwt>
<totfact> 0.25464574E+05</totfact>
</mgrwt>
</event>
<event>
 8    1  0.1226832E-024  0.7872670E+02  0.7818608E-02  0.1332704E+00
          2   -1    0    0  501    0  0.00000000000E+00  0.00000000000E+00  0.53038820778E+02  0.53038820839E+02  0.25500000000E-02 0. -1.
         -1   -1    0    0    0  501 -0.00000000000E+00 -0.00000000000E+00 -0.29213948880E+02  0.29213949315E+02  0.50400000000E-02 0.  1.
         24    2    1    2    0    0  0.00000000000E+00  0.00000000000E+00  0.23824871898E+02  0.82252770154E+02  0.78726702440E+02 0.  0.
         66    2    3    3    0    0  0.28273666985E+02  0.26817390559E+02  0.63038606665E+01  0.39526084351E+02  0.20000009103E+01 0.  0.
        -13    1    3    3    0    0 -0.28273666985E+02 -0.26817390559E+02  0.17521011231E+02  0.42726685804E+02  0.10566000000E+00 0.  1.
         13    1    4    4    0    0  0.22681596835E+02  0.20821509563E+02  0.47131021786E+01  0.31148267876E+02  0.10566000000E+00 0. -1.
        -13    1    4    4    0    0  0.36362556693E+01  0.35252822405E+01  0.79320839329E+00  0.51274080936E+01  0.10566000000E+00 0.  1.
        -14    1    4    4    0    0  0.19558144798E+01  0.24705987560E+01  0.79755009460E+00  0.32504083814E+01  0.00000000000E+00 0.  1.
<mgrwt>
<rscale>  0 0.78726702E+02</rscale>
<asrwt>0</asrwt>
<pdfrwt beam="1">  1        2 0.81598185E-02 0.78726702E+02</pdfrwt>
<pdfrwt beam="2">  1       -1 0.44944538E-02 0.78726702E+02</pdfrwt>
<totfact> 0.15815733E+05</totfact>
</mgrwt>
</event>
<event>
 8    1  0.1226832E-024  0.8357113E+02  0.7818608E-02  0.1319212E+00
          2   -1    0    0  501    0  0.00000000000E+00  0.00000000000E+00  0.94059466513E+02  0.94059466548E+02  0.25500000000E-02 0. -1.
         -1   -1    0    0    0  501 -0.00000000000E+00 -0.00000000000E+00 -0.18563078214E+02  0.18563078898E+02  0.50400000000E-02 0.  1.
         24    2    1    2    0    0  0.00000000000E+00 -0.35527136788E-14  0.75496388299E+02  0.11262254545E+03  0.83571125974E+02 0.  0.
         66    2    3    3    0    0  0.18248594286E+02 -0.26719017322E+02  0.73350913814E+02  0.80195222016E+02  0.19999991790E+01 0.  0.
        -13    1    3    3    0    0 -0.18248594286E+02  0.26719017322E+02  0.21454744850E+01  0.32427323430E+02  0.10566000000E+00 0.  1.
         13    1    4    4    0    0  0.71569451184E+01 -0.93049605639E+01  0.25685173560E+02  0.28240811946E+02  0.10566000000E+00 0. -1.
        -13    1    4    4    0    0  0.48608548872E+00 -0.69920930256E+00  0.24248506879E+01  0.25722048218E+01  0.10566000000E+00 0.  1.
         14    1    4    4    0    0  0.10605563679E+02 -0.16714847455E+02  0.45240889567E+02  0.49382205248E+02  0.00000000000E+00 0. -1.
<mgrwt>
<rscale>  0 0.83571126E+02</rscale>
<asrwt>0</asrwt>
<pdfrwt beam="1">  1        2 0.14470687E-01 0.83571126E+02</pdfrwt>
<pdfrwt beam="2">  1       -1 0.28558582E-02 0.83571126E+02</pdfrwt>
<totfact> 0.15496144E+05</totfact>
</mgrwt>
</event>
<event>
 8    1  0.1226832E-024  0.8317471E+02  0.7818608E-02  0.1320276E+00
          2   -1    0    0  501    0  0.00000000000E+00  0.00000000000E+00  0.34160629835E+03  0.34160629836E+03  0.25500000000E-02 0. -1.
         -1   -1    0    0    0  501 -0.00000000000E+00 -0.00000000000E+00 -0.50628676627E+01  0.50628701713E+01  0.50400000000E-02 0.  1.
         24    2    1    2    0    0  0.00000000000E+00  0.00000000000E+00  0.33654343069E+03  0.34666916853E+03  0.83174705717E+02 0.  0.
         66    2    3    3    0    0 -0.35449929615E+02  0.73361419792E+01  0.25347958341E+03  0.25605939877E+03  0.20000000850E+01 0.  0.
        -13    1    3    3    0    0  0.35449929615E+02 -0.73361419792E+01  0.83063847277E+02  0.90609769768E+02  0.10566000000E+00 0.  1.
         13    1    4    4    0    0 -0.13538729431E+02  0.27310580172E+01  0.99384142401E+02  0.10033929837E+03  0.10566000000E+00 0. -1.
        -13    1    4    4    0    0 -0.13014194498E+02  0.24336512669E+01  0.95437329983E+02  0.96351372773E+02  0.10566000000E+00 0.  1.
        -14    1    4    4    0    0 -0.88970056861E+01  0.21714326951E+01  0.58658111030E+02  0.59368727624E+02  0.00000000000E+00 0.  1.
<mgrwt>
<rscale>  0 0.83174706E+02</rscale>
<asrwt>0</asrwt>
<pdfrwt beam="1">  1        2 0.52554833E-01 0.83174706E+02</pdfrwt>
<pdfrwt beam="2">  1       -1 0.77890265E-03 0.83174706E+02</pdfrwt>
<totfact> 0.24124644E+05</totfact>
</mgrwt>
</event>
<event>
 8    1  0.1226832E-024  0.7628595E+02  0.7818608E-02  0.1339934E+00
          2   -1    0    0  501    0  0.00000000000E+00  0.00000000000E+00  0.46161550008E+02  0.46161550078E+02  0.25500000000E-02 0. -1.
         -1   -1    0    0    0  501 -0.00000000000E+00 -0.00000000000E+00 -0.31517276673E+02  0.31517277076E+02  0.50400000000E-02 0.  1.
         24    2    1    2    0    0  0.88817841970E-15  0.35527136788E-14  0.14644273335E+02  0.77678827154E+02  0.76285945275E+02 0.  0.
         66    2    3    3    0    0  0.40747224983E+01  0.16509624067E+02  0.42063217866E+02  0.45414594116E+02  0.20000028040E+01 0.  0.
        -13    1    3    3    0    0 -0.40747224983E+01 -0.16509624067E+02 -0.27418944531E+02  0.32264233038E+02  0.10566000000E+00 0.  1.
         13    1    4    4    0    0  0.33617506535E+01  0.99528661394E+01  0.24971827997E+02  0.27091774940E+02  0.10566000000E+00 0. -1.
        -13    1    4    4    0    0  0.50440047541E+00  0.48515815146E+01  0.13002989457E+02  0.13888166253E+02  0.10566000000E+00 0.  1.
         14    1    4    4    0    0  0.20857136935E+00  0.17051764133E+01  0.40884004120E+01  0.44346529228E+01  0.00000000000E+00 0. -1.
<mgrwt>
<rscale>  0 0.76285945E+02</rscale>
<asrwt>0</asrwt>
<pdfrwt beam="1">  1        2 0.71017769E-02 0.76285945E+02</pdfrwt>
<pdfrwt beam="2">  1       -1 0.48488118E-02 0.76285945E+02</pdfrwt>
<totfact> 0.16730483E+05</totfact>
</mgrwt>
</event>
<event>
 8    1  0.1226832E-024  0.8078208E+02  0.7818608E-02  0.1326847E+00
          2   -1    0    0  501    0  0.00000000000E+00  0.00000000000E+00  0.30601171787E+03  0.30601171788E+03  0.25500000000E-02 0. -1.
         -1   -1    0    0    0  501 -0.00000000000E+00 -0.00000000000E+00 -0.53312852129E+01  0.53312875952E+01  0.50400000000E-02 0.  1.
         24    2    1    2    0    0  0.00000000000E+00  0.00000000000E+00  0.30068043266E+03  0.31134300548E+03  0.80782080166E+02 0.  0.
         66    2    3    3    0    0 -0.72529444376E+01  0.33420869312E+02  0.23308200494E+03  0.23558603681E+03  0.20000003403E+01 0.  0.
        -13    1    3    3    0    0  0.72529444376E+01 -0.33420869312E+02  0.67598427717E+02  0.75756968672E+02  0.10566000000E+00 0.  1.
         13    1    4    4    0    0 -0.10148410451E+01  0.61505920377E+01  0.45903022680E+02  0.46324489635E+02  0.10566000000E+00 0. -1.
        -13    1    4    4    0    0 -0.31409862973E-01  0.75385326287E+00  0.56623052662E+01  0.57133305773E+01  0.10566000000E+00 0.  1.
         14    1    4    4    0    0 -0.62066935296E+01  0.26516424011E+02  0.18151667700E+03  0.18354821659E+03  0.00000000000E+00 0. -1.
<mgrwt>
<rscale>  0 0.80782080E+02</rscale>
<asrwt>0</asrwt>
<pdfrwt beam="1">  1        2 0.47078725E-01 0.80782080E+02</pdfrwt>
<pdfrwt beam="2">  1       -1 0.82019792E-03 0.80782080E+02</pdfrwt>
<totfact> 0.25031408E+05</totfact>
</mgrwt>
</event>
<event>
 8    1  0.1226832E-024  0.8018195E+02  0.7818608E-02  0.1328536E+00
         -1   -1    0    0    0  501 -0.00000000000E+00  0.00000000000E+00  0.16069003570E+02  0.16069004360E+02  0.50400000000E-02 0.  1.
          2   -1    0    0  501    0  0.00000000000E+00 -0.00000000000E+00 -0.10002401425E+03  0.10002401428E+03  0.25500000000E-02 0. -1.
         24    2    1    2    0    0 -0.55511151231E-16  0.00000000000E+00 -0.83955010676E+02  0.11609301864E+03  0.80181950332E+02 0.  0.
         66    2    3    3    0    0 -0.23792520543E+00  0.23925926752E+02 -0.88533468034E+02  0.91731573379E+02  0.20000032541E+01 0.  0.
        -13    1    3    3    0    0  0.23792520543E+00 -0.23925926752E+02  0.45784573585E+01  0.24361445260E+02  0.10566000000E+00 0.  1.
         13    1    4    4    0    0 -0.37375222279E+00  0.60788009930E+01 -0.21461620359E+02  0.22309276652E+02  0.10566000000E+00 0. -1.
        -13    1    4    4    0    0  0.39542832375E+00  0.35481351124E+01 -0.15311357119E+02  0.15722418618E+02  0.10566000000E+00 0.  1.
        -14    1    4    4    0    0 -0.25960130639E+00  0.14298990646E+02 -0.51760490556E+02  0.53699878109E+02  0.00000000000E+00 0.  1.
<mgrwt>
<rscale>  0 0.80181950E+02</rscale>
<asrwt>0</asrwt>
<pdfrwt beam="1">  1        2 0.15388310E-01 0.80181950E+02</pdfrwt>
<pdfrwt beam="2">  1       -1 0.24721545E-02 0.80181950E+02</pdfrwt>
<totfact> 0.17619472E+05</totfact>
</mgrwt>
</event>
<event>
 8    1  0.1226832E-024  0.8106100E+02  0.7818608E-02  0.1326067E+00
         -1   -1    0    0    0  501 -0.00000000000E+00  0.00000000000E+00  0.98500822912E+01  0.98500835806E+01  0.50400000000E-02 0.  1.
          2   -1    0    0  501    0  0.00000000000E+00 -0.00000000000E+00 -0.16677232558E+03  0.16677232560E+03  0.25500000000E-02 0. -1.
         24    2    1    2    0    0  0.17763568394E-14 -0.17763568394E-14 -0.15692224329E+03  0.17662240918E+03  0.81060995465E+02 0.  0.
         66    2    3    3    0    0  0.12946437020E+02 -0.11397683163E+02 -0.15836410327E+03  0.15931323424E+03  0.19999964060E+01 0.  0.
        -13    1    3    3    0    0 -0.12946437020E+02  0.11397683163E+02  0.14418599805E+01  0.17309174944E+02  0.10566000000E+00 0.  1.
         13    1    4    4    0    0  0.39866425426E+01 -0.29391309140E+01 -0.49932356034E+02  0.50177516404E+02  0.10566000000E+00 0. -1.
        -13    1    4    4    0    0  0.82410548940E-01 -0.23311535918E+00 -0.19581241802E+01  0.19764990792E+01  0.10566000000E+00 0. -1.
        -14    1    4    4    0    0  0.88773839281E+01 -0.82254368898E+01 -0.10647362306E+03  0.10715921876E+03  0.00000000000E+00 0.  1.
<mgrwt>
<rscale>  0 0.81060995E+02</rscale>
<asrwt>0</asrwt>
<pdfrwt beam="1">  1        2 0.25657279E-01 0.81060995E+02</pdfrwt>
<pdfrwt beam="2">  1       -1 0.15153975E-02 0.81060995E+02</pdfrwt>
<totfact> 0.20025218E+05</totfact>
</mgrwt>
</event>
<event>
 8    1  0.1226832E-024  0.7677641E+02  0.7818608E-02  0.1338457E+00
         -1   -1    0    0    0  501 -0.00000000000E+00  0.00000000000E+00  0.30703381021E+02  0.30703381435E+02  0.50400000000E-02 0.  1.
          2   -1    0    0  501    0  0.00000000000E+00 -0.00000000000E+00 -0.47996483709E+02  0.47996483777E+02  0.25500000000E-02 0. -1.
         24    2    1    2    0    0  0.00000000000E+00  0.00000000000E+00 -0.17293102688E+02  0.78699865212E+02  0.76776411636E+02 0.  0.
         66    2    3    3    0    0 -0.25407139277E+02 -0.19700756084E+02 -0.30105334769E+02  0.44090517176E+02  0.20000016885E+01 0.  0.
        -13    1    3    3    0    0  0.25407139277E+02  0.19700756084E+02  0.12812232080E+02  0.34609348036E+02  0.10566000000E+00 0.  1.
         13    1    4    4    0    0 -0.16190002097E+02 -0.13656662940E+02 -0.19427309293E+02  0.28741122472E+02  0.10566000000E+00 0. -1.
        -13    1    4    4    0    0 -0.54316637090E+01 -0.37256802675E+01 -0.63894652337E+01  0.91771506532E+01  0.10566000000E+00 0.  1.
         14    1    4    4    0    0 -0.37854734717E+01 -0.23184128761E+01 -0.42885602424E+01  0.61722440507E+01  0.00000000000E+00 0. -1.
<mgrwt>
<rscale>  0 0.76776412E+02</rscale>
<asrwt>0</asrwt>
<pdfrwt beam="1">  1        2 0.73840744E-02 0.76776412E+02</pdfrwt>
<pdfrwt beam="2">  1       -1 0.47235972E-02 0.76776412E+02</pdfrwt>
<totfact> 0.16575131E+05</totfact>
</mgrwt>
</event>
<event>
 8    1  0.1226832E-024  0.7926815E+02  0.7818608E-02  0.1331141E+00
          2   -1    0    0  501    0  0.00000000000E+00  0.00000000000E+00  0.49619553887E+02  0.49619553953E+02  0.25500000000E-02 0. -1.
         -1   -1    0    0    0  501 -0.00000000000E+00 -0.00000000000E+00 -0.31658078672E+02  0.31658079073E+02  0.50400000000E-02 0.  1.
         24    2    1    2    0    0  0.00000000000E+00  0.88817841970E-15  0.17961475215E+02  0.81277633026E+02  0.79268146430E+02 0.  0.
         66    2    3    3    0    0  0.38865872097E+02  0.52924415100E+01  0.33433898490E+01  0.39417562138E+02  0.19999995517E+01 0.  0.
        -13    1    3    3    0    0 -0.38865872097E+02 -0.52924415100E+01  0.14618085366E+02  0.41860070889E+02  0.10566000000E+00 0.  1.
         13    1    4    4    0    0  0.44170307221E+01  0.84586709272E+00  0.27302591402E+00  0.45068124794E+01  0.10566000000E+00 0.  1.
        -13    1    4    4    0    0  0.19624120967E+02  0.26272035759E+01  0.92044157231E+00  0.19820865246E+02  0.10566000000E+00 0. -1.
         14    1    4    4    0    0  0.14824720407E+02  0.18193708414E+01  0.21499223627E+01  0.15089884412E+02  0.00000000000E+00 0. -1.
<mgrwt>
<rscale>  0 0.79268146E+02</rscale>
<asrwt>0</asrwt>
<pdfrwt beam="1">  1        2 0.76337775E-02 0.79268146E+02</pdfrwt>
<pdfrwt beam="2">  1       -1 0.48704737E-02 0.79268146E+02</pdfrwt>
<totfact> 0.15298389E+05</totfact>
</mgrwt>
</event>
<event>
 8    1  0.1226832E-024  0.7703033E+02  0.7818608E-02  0.1337697E+00
          2   -1    0    0  501    0  0.00000000000E+00  0.00000000000E+00  0.21736235390E+03  0.21736235391E+03  0.25500000000E-02 0. -1.
         -1   -1    0    0    0  501 -0.00000000000E+00 -0.00000000000E+00 -0.68246303371E+01  0.68246321982E+01  0.50400000000E-02 0.  1.
         24    2    1    2    0    0  0.00000000000E+00  0.00000000000E+00  0.21053772356E+03  0.22418698611E+03  0.77030329737E+02 0.  0.
         66    2    3    3    0    0  0.17977220754E+02 -0.65181088088E+00  0.20436964507E+03  0.20516958145E+03  0.20000014014E+01 0.  0.
        -13    1    3    3    0    0 -0.17977220754E+02  0.65181088088E+00  0.61680784903E+01  0.19017404654E+02  0.10566000000E+00 0.  1.
         13    1    4    4    0    0  0.67770458801E+01 -0.42888924333E-01  0.73790886551E+02  0.74101526923E+02  0.10566000000E+00 0. -1.
        -13    1    4    4    0    0  0.17469837010E+01 -0.97187799578E-01  0.14956004941E+02  0.15058374592E+02  0.10566000000E+00 0.  1.
         14    1    4    4    0    0  0.94531911731E+01 -0.51173415697E+00  0.11562275358E+03  0.11600967994E+03  0.00000000000E+00 0. -1.
<mgrwt>
<rscale>  0 0.77030330E+02</rscale>
<asrwt>0</asrwt>
<pdfrwt beam="1">  1        2 0.33440361E-01 0.77030330E+02</pdfrwt>
<pdfrwt beam="2">  1       -1 0.10499433E-02 0.77030330E+02</pdfrwt>
<totfact> 0.25085841E+05</totfact>
</mgrwt>
</event>
<event>
 8    1  0.1226832E-024  0.7978216E+02  0.7818608E-02  0.1329671E+00
          2   -1    0    0  501    0  0.00000000000E+00  0.00000000000E+00  0.21857865549E+03  0.21857865551E+03  0.25500000000E-02 0. -1.
         -1   -1    0    0    0  501 -0.00000000000E+00 -0.00000000000E+00 -0.72802080769E+01  0.72802098215E+01  0.50400000000E-02 0.  1.
         24    2    1    2    0    0  0.00000000000E+00  0.44408920985E-15  0.21129844742E+03  0.22585886533E+03  0.79782160709E+02 0.  0.
         66    2    3    3    0    0 -0.26732773965E+02  0.36457966706E+01  0.18880065004E+03  0.19072917578E+03  0.20000000923E+01 0.  0.
        -13    1    3    3    0    0  0.26732773965E+02 -0.36457966706E+01  0.22497797380E+02  0.35129689554E+02  0.10566000000E+00 0.  1.
         13    1    4    4    0    0 -0.69151207883E+01  0.11342285384E+01  0.46752225727E+02  0.47274593011E+02  0.10566000000E+00 0. -1.
        -13    1    4    4    0    0 -0.23789170637E+01  0.24570069743E+00  0.13794178864E+02  0.14000362488E+02  0.10566000000E+00 0.  1.
        -14    1    4    4    0    0 -0.17438736113E+02  0.22658674347E+01  0.12825424545E+03  0.12945422028E+03  0.00000000000E+00 0.  1.
<mgrwt>
<rscale>  0 0.79782161E+02</rscale>
<asrwt>0</asrwt>
<pdfrwt beam="1">  1        2 0.33627487E-01 0.79782161E+02</pdfrwt>
<pdfrwt beam="2">  1       -1 0.11200321E-02 0.79782161E+02</pdfrwt>
<totfact> 0.22919178E+05</totfact>
</mgrwt>
</event>
<event>
 8    1  0.1226832E-024  0.7899993E+02  0.7818608E-02  0.1331914E+00
         -1   -1    0    0    0  501 -0.00000000000E+00  0.00000000000E+00  0.66218640915E+02  0.66218641106E+02  0.50400000000E-02 0.  1.
          2   -1    0    0  501    0  0.00000000000E+00 -0.00000000000E+00 -0.23562054517E+02  0.23562054655E+02  0.25500000000E-02 0. -1.
         24    2    1    2    0    0  0.35527136788E-14  0.00000000000E+00  0.42656586398E+02  0.89780695761E+02  0.78999930178E+02 0.  0.
         66    2    3    3    0    0 -0.30449585452E+02  0.54312444504E+01 -0.65320002360E+01  0.31675585060E+02  0.19999978323E+01 0.  0.
        -13    1    3    3    0    0  0.30449585452E+02 -0.54312444504E+01  0.49188586634E+02  0.58105110701E+02  0.10566000000E+00 0.  1.
         13    1    4    4    0    0 -0.94315380697E+01  0.24491719741E+01 -0.16647076460E+01  0.98860896871E+01  0.10566000000E+00 0. -1.
        -13    1    4    4    0    0 -0.48098735459E+01  0.93752243876E+00 -0.12015171059E+01  0.50466463362E+01  0.10566000000E+00 0.  1.
         14    1    4    4    0    0 -0.16208173836E+02  0.20445500376E+01 -0.36657754841E+01  0.16742849037E+02  0.00000000000E+00 0. -1.
<mgrwt>
<rscale>  0 0.78999930E+02</rscale>
<asrwt>0</asrwt>
<pdfrwt beam="1">  1        2 0.36249315E-02 0.78999930E+02</pdfrwt>
<pdfrwt beam="2">  1       -1 0.10187483E-01 0.78999930E+02</pdfrwt>
<totfact> 0.13295635E+05</totfact>
</mgrwt>
</event>
<event>
 8    1  0.1226832E-024  0.8039998E+02  0.7818608E-02  0.1327920E+00
         -1   -1    0    0    0  501 -0.00000000000E+00  0.00000000000E+00  0.13761407888E+03  0.13761407897E+03  0.50400000000E-02 0.  1.
          2   -1    0    0  501    0  0.00000000000E+00 -0.00000000000E+00 -0.11743270177E+02  0.11743270454E+02  0.25500000000E-02 0. -1.
         24    2    1    2    0    0 -0.17763568394E-14  0.00000000000E+00  0.12587080870E+03  0.14935734943E+03  0.80399983485E+02 0.  0.
         66    2    3    3    0    0  0.11449112426E+02  0.20213384445E+02  0.20839793186E+01  0.23409529362E+02  0.20000022732E+01 0.  0.
        -13    1    3    3    0    0 -0.11449112426E+02 -0.20213384445E+02  0.12378682938E+03  0.12594782007E+03  0.10566000000E+00 0.  1.
         13    1    4    4    0    0  0.56572102462E+01  0.11303109643E+02  0.16801184990E+01  0.12751402965E+02  0.10566000000E+00 0. -1.
        -13    1    4    4    0    0  0.31440840254E+01  0.52036089401E+01 -0.45233371827E-01  0.60807911043E+01  0.10566000000E+00 0.  1.
         14    1    4    4    0    0  0.26478181541E+01  0.37066658622E+01  0.44909419138E+00  0.45773352929E+01  0.00000000000E+00 0. -1.
<mgrwt>
<rscale>  0 0.80399983E+02</rscale>
<asrwt>0</asrwt>
<pdfrwt beam="1">  1        2 0.18066572E-02 0.80399983E+02</pdfrwt>
<pdfrwt beam="2">  1       -1 0.21171394E-01 0.80399983E+02</pdfrwt>
<totfact> 0.10883916E+05</totfact>
</mgrwt>
</event>
<event>
 8    1  0.1248807E-024  0.8072625E+02  0.7818608E-02  0.1327003E+00
         -1   -1    0    0    0  501 -0.00000000000E+00  0.00000000000E+00  0.51359339309E+02  0.51359339556E+02  0.50400000000E-02 0.  1.
          2   -1    0    0  501    0  0.00000000000E+00 -0.00000000000E+00 -0.31721235349E+02  0.31721235451E+02  0.25500000000E-02 0. -1.
         24    2    1    2    0    0 -0.35527136788E-14 -0.17763568394E-14  0.19638103960E+02  0.83080575007E+02  0.80726246144E+02 0.  0.
         66    2    3    3    0    0 -0.30201720675E+02 -0.15047496704E+02 -0.12924025054E+02  0.36188416828E+02  0.20000000426E+01 0.  0.
        -13    1    3    3    0    0  0.30201720675E+02  0.15047496704E+02  0.32562129014E+02  0.46892158179E+02  0.10566000000E+00 0.  1.
         13    1    4    4    0    0 -0.12358041215E+02 -0.65269689870E+01 -0.53777846240E+01  0.14975120645E+02  0.10566000000E+00 0. -1.
        -13    1    4    4    0    0 -0.79050612787E+01 -0.45041594720E+01 -0.31762692150E+01  0.96372867826E+01  0.10566000000E+00 0.  1.
        -14    1    4    4    0    0 -0.99386181809E+01 -0.40163682446E+01 -0.43699712149E+01  0.11576009400E+02  0.00000000000E+00 0.  1.
<mgrwt>
<rscale>  0 0.80726246E+02</rscale>
<asrwt>0</asrwt>
<pdfrwt beam="1">  1        2 0.48801901E-02 0.80726246E+02</pdfrwt>
<pdfrwt beam="2">  1       -1 0.79014368E-02 0.80726246E+02</pdfrwt>
<totfact> 0.13264966E+05</totfact>
</mgrwt>
</event>
<event>
 8    1  0.1226832E-024  0.7843360E+02  0.7818608E-02  0.1333556E+00
         -1   -1    0    0    0  501 -0.00000000000E+00  0.00000000000E+00  0.32429873024E+02  0.32429873415E+02  0.50400000000E-02 0.  1.
          2   -1    0    0  501    0  0.00000000000E+00 -0.00000000000E+00 -0.47424097022E+02  0.47424097091E+02  0.25500000000E-02 0. -1.
         24    2    1    2    0    0  0.00000000000E+00  0.00000000000E+00 -0.14994223998E+02  0.79853970506E+02  0.78433601551E+02 0.  0.
         66    2    3    3    0    0  0.23016752290E+02 -0.13363195096E+02 -0.36791094613E+02  0.45452508302E+02  0.19999997525E+01 0.  0.
        -13    1    3    3    0    0 -0.23016752290E+02  0.13363195096E+02  0.21796870614E+02  0.34401462204E+02  0.10566000000E+00 0.  1.
         13    1    4    4    0    0  0.88438796383E+01 -0.52362010171E+01 -0.13429437653E+02  0.16911326615E+02  0.10566000000E+00 0. -1.
        -13    1    4    4    0    0  0.37649826211E+01 -0.28338127366E+01 -0.63703057624E+01  0.79244904129E+01  0.10566000000E+00 0.  1.
        -14    1    4    4    0    0  0.10407890030E+02 -0.52931813424E+01 -0.16991351197E+02  0.20616691275E+02  0.00000000000E+00 0.  1.
<mgrwt>
<rscale>  0 0.78433602E+02</rscale>
<asrwt>0</asrwt>
<pdfrwt beam="1">  1        2 0.72960149E-02 0.78433602E+02</pdfrwt>
<pdfrwt beam="2">  1       -1 0.49892113E-02 0.78433602E+02</pdfrwt>
<totfact> 0.15596073E+05</totfact>
</mgrwt>
</event>
<event>
 8    1  0.1226832E-024  0.7876230E+02  0.7818608E-02  0.1332601E+00
         -1   -1    0    0    0  501 -0.00000000000E+00  0.00000000000E+00  0.37230466617E+02  0.37230466958E+02  0.50400000000E-02 0.  1.
          2   -1    0    0  501    0  0.00000000000E+00 -0.00000000000E+00 -0.41656069261E+02  0.41656069339E+02  0.25500000000E-02 0. -1.
         24    2    1    2    0    0  0.00000000000E+00  0.00000000000E+00 -0.44256026435E+01  0.78886536297E+02  0.78762298406E+02 0.  0.
         66    2    3    3    0    0 -0.25553968019E+02 -0.17093607415E+02 -0.26822743381E+02  0.40849189212E+02  0.20000002142E+01 0.  0.
        -13    1    3    3    0    0  0.25553968019E+02  0.17093607415E+02  0.22397140737E+02  0.38037347084E+02  0.10566000000E+00 0.  1.
         13    1    4    4    0    0 -0.68132840056E+01 -0.42334141573E+01 -0.78792972278E+01  0.11244426317E+02  0.10566000000E+00 0. -1.
        -13    1    4    4    0    0 -0.17386766386E+02 -0.11656869137E+02 -0.17616392207E+02  0.27359288767E+02  0.10566000000E+00 0.  1.
        -14    1    4    4    0    0 -0.13539176282E+01 -0.12033241204E+01 -0.13270539456E+01  0.22454741275E+01  0.00000000000E+00 0.  1.
<mgrwt>
<rscale>  0 0.78762298E+02</rscale>
<asrwt>0</asrwt>
<pdfrwt beam="1">  1        2 0.64086260E-02 0.78762298E+02</pdfrwt>
<pdfrwt beam="2">  1       -1 0.57277642E-02 0.78762298E+02</pdfrwt>
<totfact> 0.15006340E+05</totfact>
</mgrwt>
</event>
<event>
 8    1  0.1226832E-024  0.7867972E+02  0.7818608E-02  0.1332841E+00
          2   -1    0    0  501    0  0.00000000000E+00  0.00000000000E+00  0.41241485702E+03  0.41241485703E+03  0.25500000000E-02 0. -1.
         -1   -1    0    0    0  501 -0.00000000000E+00 -0.00000000000E+00 -0.37525899024E+01  0.37525932869E+01  0.50400000000E-02 0.  1.
         24    2    1    2    0    0  0.55511151231E-16  0.00000000000E+00  0.40866226712E+03  0.41616745032E+03  0.78679718707E+02 0.  0.
         66    2    3    3    0    0  0.21675447022E+00 -0.37704586209E+02  0.26334789658E+03  0.26604096946E+03  0.19999992089E+01 0.  0.
        -13    1    3    3    0    0 -0.21675447022E+00  0.37704586209E+02  0.14531437054E+03  0.15012648086E+03  0.10566000000E+00 0.  1.
         13    1    4    4    0    0  0.52131029452E+00 -0.17668615394E+02  0.12286705340E+03  0.12413208976E+03  0.10566000000E+00 0. -1.
        -13    1    4    4    0    0  0.32487960080E+00 -0.13226107599E+02  0.94908205979E+02  0.95825957836E+02  0.10566000000E+00 0.  1.
        -14    1    4    4    0    0 -0.62943542510E+00 -0.68098632164E+01  0.45572637200E+02  0.46082921862E+02  0.00000000000E+00 0.  1.
<mgrwt>
<rscale>  0 0.78679719E+02</rscale>
<asrwt>0</asrwt>
<pdfrwt beam="1">  1        2 0.63448419E-01 0.78679719E+02</pdfrwt>
<pdfrwt beam="2">  1       -1 0.57732197E-03 0.78679719E+02</pdfrwt>
<totfact> 0.29822951E+05</totfact>
</mgrwt>
</event>
<event>
 8    1  0.1226832E-024  0.8722638E+02  0.7818608E-02  0.1309711E+00
          2   -1    0    0  501    0  0.00000000000E+00  0.00000000000E+00  0.76553580920E+01  0.76553585167E+01  0.25500000000E-02 0. -1.
         -1   -1    0    0    0  501 -0.00000000000E+00 -0.00000000000E+00 -0.24846784553E+03  0.24846784558E+03  0.50400000000E-02 0.  1.
         24    2    1    2    0    0  0.00000000000E+00 -0.35527136788E-14 -0.24081248744E+03  0.25612320410E+03  0.87226381166E+02 0.  0.
         66    2    3    3    0    0 -0.25599422961E+02 -0.27576535796E+02 -0.55850017529E+02  0.67372251196E+02  0.19999976912E+01 0.  0.
        -13    1    3    3    0    0  0.25599422961E+02  0.27576535796E+02 -0.18496246991E+03  0.18875095291E+03  0.10566000000E+00 0.  1.
         13    1    4    4    0    0 -0.87613100193E+01 -0.90853236404E+01 -0.18392842717E+02  0.22307207045E+02  0.10566000000E+00 0. -1.
        -13    1    4    4    0    0 -0.22955794647E+01 -0.20218639331E+01 -0.39547960804E+01  0.50009194070E+01  0.10566000000E+00 0.  1.
         14    1    4    4    0    0 -0.14542533477E+02 -0.16469348223E+02 -0.33502378732E+02  0.40064124744E+02  0.00000000000E+00 0. -1.
<mgrwt>
<rscale>  0 0.87226381E+02</rscale>
<asrwt>0</asrwt>
<pdfrwt beam="1">  1        2 0.11777476E-02 0.87226381E+02</pdfrwt>
<pdfrwt beam="2">  1       -1 0.38225816E-01 0.87226381E+02</pdfrwt>
<totfact> 0.74370209E+04</totfact>
</mgrwt>
</event>
<event>
 8    1  0.1226832E-024  0.7915332E+02  0.7818608E-02  0.1331472E+00
          2   -1    0    0  501    0  0.00000000000E+00  0.00000000000E+00  0.32008398164E+02  0.32008398265E+02  0.25500000000E-02 0. -1.
         -1   -1    0    0    0  501 -0.00000000000E+00 -0.00000000000E+00 -0.48934404563E+02  0.48934404823E+02  0.50400000000E-02 0.  1.
         24    2    1    2    0    0  0.00000000000E+00  0.17763568394E-14 -0.16926006400E+02  0.80942803088E+02  0.79153317550E+02 0.  0.
         66    2    3    3    0    0 -0.23007726876E+02 -0.15418329516E+02  0.20405146639E+02  0.34459402478E+02  0.20000071749E+01 0.  0.
        -13    1    3    3    0    0  0.23007726876E+02  0.15418329516E+02 -0.37331153039E+02  0.46483400610E+02  0.10566000000E+00 0.  1.
         13    1    4    4    0    0 -0.80091869809E+00 -0.42493248664E+00  0.58596135103E+00  0.10846903335E+01  0.10566000000E+00 0.  1.
        -13    1    4    4    0    0 -0.20157454934E+00 -0.79807888027E-02  0.13320086885E+00  0.26382285533E+00  0.10566000000E+00 0.  1.
         14    1    4    4    0    0 -0.22005233628E+02 -0.14985416241E+02  0.19685984419E+02  0.33110889289E+02  0.00000000000E+00 0. -1.
<mgrwt>
<rscale>  0 0.79153318E+02</rscale>
<asrwt>0</asrwt>
<pdfrwt beam="1">  1        2 0.49243690E-02 0.79153318E+02</pdfrwt>
<pdfrwt beam="2">  1       -1 0.75283700E-02 0.79153318E+02</pdfrwt>
<totfact> 0.14039689E+05</totfact>
</mgrwt>
</event>
<event>
 8    1  0.1226832E-024  0.8315134E+02  0.7818608E-02  0.1320339E+00
         -1   -1    0    0    0  501 -0.00000000000E+00  0.00000000000E+00  0.21351970615E+01  0.21352030098E+01  0.50400000000E-02 0.  1.
          2   -1    0    0  501    0  0.00000000000E+00 -0.00000000000E+00 -0.80954311981E+03  0.80954311982E+03  0.25500000000E-02 0. -1.
         24    2    1    2    0    0 -0.35527136788E-14  0.00000000000E+00 -0.80740792275E+03  0.81167832283E+03  0.83151344096E+02 0.  0.
         66    2    3    3    0    0 -0.19616582323E+02  0.75931431462E+01 -0.75372754820E+03  0.75402366212E+03  0.20000001342E+01 0.  0.
        -13    1    3    3    0    0  0.19616582323E+02 -0.75931431462E+01 -0.53680374554E+02  0.57654660706E+02  0.10566000000E+00 0.  1.
         13    1    4    4    0    0 -0.55859706935E+01  0.26268650260E+01 -0.20474348400E+03  0.20483654188E+03  0.10566000000E+00 0. -1.
        -13    1    4    4    0    0 -0.75536474616E+01  0.24661583762E+01 -0.27202659053E+03  0.27214264026E+03  0.10566000000E+00 0.  1.
        -14    1    4    4    0    0 -0.64769641683E+01  0.25001197440E+01 -0.27695747367E+03  0.27704447998E+03  0.00000000000E+00 0.  1.
<mgrwt>
<rscale>  0 0.83151344E+02</rscale>
<asrwt>0</asrwt>
<pdfrwt beam="1">  1        2 0.12454485E+00 0.83151344E+02</pdfrwt>
<pdfrwt beam="2">  1       -1 0.32849296E-03 0.83151344E+02</pdfrwt>
<totfact> 0.31140631E+05</totfact>
</mgrwt>
</event>
<event>
 8    1  0.1226832E-024  0.7980396E+02  0.7818608E-02  0.1329609E+00
          2   -1    0    0  501    0  0.00000000000E+00  0.00000000000E+00  0.12425631945E+04  0.12425631945E+04  0.25500000000E-02 0. -1.
         -1   -1    0    0    0  501 -0.00000000000E+00 -0.00000000000E+00 -0.12813526727E+01  0.12813625847E+01  0.50400000000E-02 0.  1.
         24    2    1    2    0    0  0.17763568394E-14  0.00000000000E+00  0.12412818418E+04  0.12438445571E+04  0.79803955702E+02 0.  0.
         66    2    3    3    0    0  0.12248895350E+02 -0.24105483976E+02  0.10778565650E+04  0.10781975165E+04  0.20000037043E+01 0.  0.
        -13    1    3    3    0    0 -0.12248895350E+02  0.24105483976E+02  0.16342527683E+03  0.16564704062E+03  0.10566000000E+00 0.  1.
         13    1    4    4    0    0  0.76015406587E+01 -0.16301485950E+02  0.71112457708E+03  0.71135202056E+03  0.10566000000E+00 0. -1.
        -13    1    4    4    0    0  0.12106121421E+01 -0.19206355926E+01  0.77873390169E+02  0.77906549681E+02  0.10566000000E+00 0.  1.
        -14    1    4    4    0    0  0.34367425490E+01 -0.58833624333E+01  0.28885859774E+03  0.28893894622E+03  0.00000000000E+00 0.  1.
<mgrwt>
<rscale>  0 0.79803956E+02</rscale>
<asrwt>0</asrwt>
<pdfrwt beam="1">  1        2 0.19116305E+00 0.79803956E+02</pdfrwt>
<pdfrwt beam="2">  1       -1 0.19713248E-03 0.79803956E+02</pdfrwt>
<totfact> 0.35105511E+05</totfact>
</mgrwt>
</event>
<event>
 8    1  0.1226832E-024  0.7966292E+02  0.7818608E-02  0.1330011E+00
          2   -1    0    0  501    0  0.00000000000E+00  0.00000000000E+00  0.36772988635E+03  0.36772988636E+03  0.25500000000E-02 0. -1.
         -1   -1    0    0    0  501 -0.00000000000E+00 -0.00000000000E+00 -0.43144292815E+01  0.43144322253E+01  0.50400000000E-02 0.  1.
         24    2    1    2    0    0  0.00000000000E+00  0.35527136788E-14  0.36341545707E+03  0.37204431858E+03  0.79662918315E+02 0.  0.
         66    2    3    3    0    0  0.21779443960E+02  0.21234024623E+02  0.30173984132E+03  0.30327571584E+03  0.19999999671E+01 0.  0.
        -13    1    3    3    0    0 -0.21779443960E+02 -0.21234024623E+02  0.61675615751E+02  0.68768602743E+02  0.10566000000E+00 0.  1.
         13    1    4    4    0    0  0.55159266979E+01  0.57735368086E+01  0.82981863106E+02  0.83365220225E+02  0.10566000000E+00 0. -1.
        -13    1    4    4    0    0  0.31988067541E+01  0.37033394708E+01  0.50954926287E+02  0.51189479044E+02  0.10566000000E+00 0.  1.
        -14    1    4    4    0    0  0.13064710508E+02  0.11757148344E+02  0.16780305192E+03  0.16872101657E+03  0.00000000000E+00 0.  1.
<mgrwt>
<rscale>  0 0.79662918E+02</rscale>
<asrwt>0</asrwt>
<pdfrwt beam="1">  1        2 0.56573838E-01 0.79662918E+02</pdfrwt>
<pdfrwt beam="2">  1       -1 0.66375847E-03 0.79662918E+02</pdfrwt>
<totfact> 0.27731846E+05</totfact>
</mgrwt>
</event>
<event>
 8    1  0.1226832E-024  0.7901392E+02  0.7818608E-02  0.1331873E+00
         -1   -1    0    0    0  501 -0.00000000000E+00  0.00000000000E+00  0.35350849782E+01  0.35350885709E+01  0.50400000000E-02 0.  1.
          2   -1    0    0  501    0  0.00000000000E+00 -0.00000000000E+00 -0.44151666462E+03  0.44151666463E+03  0.25500000000E-02 0. -1.
         24    2    1    2    0    0 -0.17763568394E-14  0.00000000000E+00 -0.43798157964E+03  0.44505175320E+03  0.79013915985E+02 0.  0.
         66    2    3    3    0    0 -0.97877813691E+01 -0.87172862355E+01 -0.42890179586E+03  0.42910667932E+03  0.20000007549E+01 0.  0.
        -13    1    3    3    0    0  0.97877813691E+01  0.87172862355E+01 -0.90797837867E+01  0.15945073882E+02  0.10566000000E+00 0.  1.
         13    1    4    4    0    0 -0.18901656855E+01 -0.16279848378E+01 -0.97139211974E+02  0.97171295803E+02  0.10566000000E+00 0.  1.
        -13    1    4    4    0    0 -0.28290676941E+01 -0.30476448758E+01 -0.14819520361E+03  0.14825357095E+03  0.10566000000E+00 0. -1.
         14    1    4    4    0    0 -0.50685479895E+01 -0.40416565218E+01 -0.18356738028E+03  0.18368181257E+03  0.00000000000E+00 0. -1.
<mgrwt>
<rscale>  0 0.79013916E+02</rscale>
<asrwt>0</asrwt>
<pdfrwt beam="1">  1        2 0.67925597E-01 0.79013916E+02</pdfrwt>
<pdfrwt beam="2">  1       -1 0.54385986E-03 0.79013916E+02</pdfrwt>
<totfact> 0.30191325E+05</totfact>
</mgrwt>
</event>
<event>
 8    1  0.1226832E-024  0.7492546E+02  0.7818608E-02  0.1344102E+00
          2   -1    0    0  501    0  0.00000000000E+00  0.00000000000E+00  0.22810913769E+03  0.22810913770E+03  0.25500000000E-02 0. -1.
         -1   -1    0    0    0  501 -0.00000000000E+00 -0.00000000000E+00 -0.61525634624E+01  0.61525655267E+01  0.50400000000E-02 0.  1.
         24    2    1    2    0    0 -0.35527136788E-14  0.00000000000E+00  0.22195657423E+03  0.23426170323E+03  0.74925461345E+02 0.  0.
         66    2    3    3    0    0  0.28552628358E+02 -0.22183899958E+02  0.14138244009E+03  0.14594647091E+03  0.20000006017E+01 0.  0.
        -13    1    3    3    0    0 -0.28552628358E+02  0.22183899958E+02  0.80574134141E+02  0.88315232322E+02  0.10566000000E+00 0.  1.
         13    1    4    4    0    0  0.10253156563E+02 -0.80982876034E+01  0.53393447682E+02  0.54968908494E+02  0.10566000000E+00 0. -1.
        -13    1    4    4    0    0  0.10048911716E+02 -0.85137577933E+01  0.49964898172E+02  0.51671722555E+02  0.10566000000E+00 0.  1.
         14    1    4    4    0    0  0.82505600797E+01 -0.55718545614E+01  0.38024094232E+02  0.39305839859E+02  0.00000000000E+00 0. -1.
<mgrwt>
<rscale>  0 0.74925461E+02</rscale>
<asrwt>0</asrwt>
<pdfrwt beam="1">  1        2 0.35093722E-01 0.74925461E+02</pdfrwt>
<pdfrwt beam="2">  1       -1 0.94654817E-03 0.74925461E+02</pdfrwt>
<totfact> 0.27434853E+05</totfact>
</mgrwt>
</event>
<event>
 8    1  0.1226832E-024  0.8008443E+02  0.7818608E-02  0.1328812E+00
         -1   -1    0    0    0  501 -0.00000000000E+00  0.00000000000E+00  0.13522171214E+02  0.13522172153E+02  0.50400000000E-02 0.  1.
          2   -1    0    0  501    0  0.00000000000E+00 -0.00000000000E+00 -0.11857406731E+03  0.11857406734E+03  0.25500000000E-02 0. -1.
         24    2    1    2    0    0 -0.35527136788E-14  0.00000000000E+00 -0.10505189610E+03  0.13209623949E+03  0.80084428038E+02 0.  0.
         66    2    3    3    0    0 -0.20537690075E+02  0.23223067768E+02 -0.94295759009E+02  0.99281406880E+02  0.19999987011E+01 0.  0.
        -13    1    3    3    0    0  0.20537690075E+02 -0.23223067768E+02 -0.10756137087E+02  0.32814832610E+02  0.10566000000E+00 0.  1.
         13    1    4    4    0    0 -0.55647791783E+01  0.63715999626E+01 -0.24591945091E+02  0.26006518044E+02  0.10566000000E+00 0. -1.
        -13    1    4    4    0    0 -0.10478485305E+01  0.17431218353E+01 -0.56097769840E+01  0.59680165986E+01  0.10566000000E+00 0.  1.
         14    1    4    4    0    0 -0.13925062366E+02  0.15108345970E+02 -0.64094036933E+02  0.67306872237E+02  0.00000000000E+00 0. -1.
<mgrwt>
<rscale>  0 0.80084428E+02</rscale>
<asrwt>0</asrwt>
<pdfrwt beam="1">  1        2 0.18242164E-01 0.80084428E+02</pdfrwt>
<pdfrwt beam="2">  1       -1 0.20803342E-02 0.80084428E+02</pdfrwt>
<totfact> 0.18567678E+05</totfact>
</mgrwt>
</event>
<event>
 8    1  0.1226832E-024  0.8121355E+02  0.7818608E-02  0.1325642E+00
         -1   -1    0    0    0  501 -0.00000000000E+00  0.00000000000E+00  0.21554230056E+03  0.21554230061E+03  0.50400000000E-02 0.  1.
          2   -1    0    0  501    0  0.00000000000E+00 -0.00000000000E+00 -0.76500537782E+01  0.76500542032E+01  0.25500000000E-02 0. -1.
         24    2    1    2    0    0  0.17763568394E-14 -0.35527136788E-14  0.20789224678E+03  0.22319235482E+03  0.81213551695E+02 0.  0.
         66    2    3    3    0    0 -0.99755340610E+01  0.31732998355E+02  0.40121938902E+02  0.52156154459E+02  0.20000005721E+01 0.  0.
        -13    1    3    3    0    0  0.99755340610E+01 -0.31732998355E+02  0.16777030788E+03  0.17103620036E+03  0.10566000000E+00 0.  1.
         13    1    4    4    0    0 -0.34959710344E+01  0.12808159253E+02  0.15616329599E+02  0.20497601594E+02  0.10566000000E+00 0.  1.
        -13    1    4    4    0    0 -0.14000062582E+01  0.50716532887E+01  0.57482390496E+01  0.77932727920E+01  0.10566000000E+00 0. -1.
        -14    1    4    4    0    0 -0.50795567685E+01  0.13853185814E+02  0.18757370253E+02  0.23865280073E+02  0.00000000000E+00 0.  1.
<mgrwt>
<rscale>  0 0.81213552E+02</rscale>
<asrwt>0</asrwt>
<pdfrwt beam="1">  1        2 0.11769312E-02 0.81213552E+02</pdfrwt>
<pdfrwt beam="2">  1       -1 0.33160358E-01 0.81213552E+02</pdfrwt>
<totfact> 0.93653324E+04</totfact>
</mgrwt>
</event>
<event>
 8    1  0.1226832E-024  0.7903593E+02  0.7818608E-02  0.1331810E+00
         -1   -1    0    0    0  501 -0.00000000000E+00  0.00000000000E+00  0.82576493925E+01  0.82576509306E+01  0.50400000000E-02 0.  1.
          2   -1    0    0  501    0  0.00000000000E+00 -0.00000000000E+00 -0.18911789179E+03  0.18911789181E+03  0.25500000000E-02 0. -1.
         24    2    1    2    0    0  0.00000000000E+00  0.00000000000E+00 -0.18086024240E+03  0.19737554274E+03  0.79035925952E+02 0.  0.
         66    2    3    3    0    0 -0.37534494233E+02 -0.74643519036E+01 -0.11484246999E+03  0.12106753370E+03  0.19999986136E+01 0.  0.
        -13    1    3    3    0    0  0.37534494233E+02  0.74643519036E+01 -0.66017772406E+02  0.76308009043E+02  0.10566000000E+00 0.  1.
         13    1    4    4    0    0 -0.13878640377E+02 -0.31182677221E+01 -0.40948313176E+02  0.43348768936E+02  0.10566000000E+00 0. -1.
        -13    1    4    4    0    0 -0.22534375464E+02 -0.42529768431E+01 -0.69662785370E+02  0.73340307601E+02  0.10566000000E+00 0.  1.
        -14    1    4    4    0    0 -0.11214783922E+01 -0.93107338296E-01 -0.42313714484E+01  0.43784571592E+01  0.00000000000E+00 0.  1.
<mgrwt>
<rscale>  0 0.79035926E+02</rscale>
<asrwt>0</asrwt>
<pdfrwt beam="1">  1        2 0.29095057E-01 0.79035926E+02</pdfrwt>
<pdfrwt beam="2">  1       -1 0.12704079E-02 0.79035926E+02</pdfrwt>
<totfact> 0.22340085E+05</totfact>
</mgrwt>
</event>
<event>
 8    1  0.1226832E-024  0.7663875E+02  0.7818608E-02  0.1338870E+00
         -1   -1    0    0    0  501 -0.00000000000E+00  0.00000000000E+00  0.12871540752E+02  0.12871541739E+02  0.50400000000E-02 0.  1.
          2   -1    0    0  501    0  0.00000000000E+00 -0.00000000000E+00 -0.11407915150E+03  0.11407915153E+03  0.25500000000E-02 0. -1.
         24    2    1    2    0    0  0.35527136788E-14 -0.35527136788E-14 -0.10120761075E+03  0.12695069327E+03  0.76638750300E+02 0.  0.
         66    2    3    3    0    0 -0.26818633621E+02  0.21335817812E+02 -0.78939945738E+02  0.86081189965E+02  0.20000004409E+01 0.  0.
        -13    1    3    3    0    0  0.26818633621E+02 -0.21335817812E+02 -0.22267665009E+02  0.40869503300E+02  0.10566000000E+00 0.  1.
         13    1    4    4    0    0 -0.15354550409E+02  0.12294316180E+02 -0.44857775407E+02  0.48981053552E+02  0.10566000000E+00 0. -1.
        -13    1    4    4    0    0 -0.83937221188E+01  0.65358216703E+01 -0.23341858124E+02  0.25651998765E+02  0.10566000000E+00 0.  1.
         14    1    4    4    0    0 -0.30703610931E+01  0.25056799621E+01 -0.10740312207E+02  0.11448137649E+02  0.00000000000E+00 0. -1.
<mgrwt>
<rscale>  0 0.76638750E+02</rscale>
<asrwt>0</asrwt>
<pdfrwt beam="1">  1        2 0.17550638E-01 0.76638750E+02</pdfrwt>
<pdfrwt beam="2">  1       -1 0.19802372E-02 0.76638750E+02</pdfrwt>
<totfact> 0.20637932E+05</totfact>
</mgrwt>
</event>
<event>
 8    1  0.1226832E-024  0.7942674E+02  0.7818608E-02  0.1330686E+00
         -1   -1    0    0    0  501 -0.00000000000E+00  0.00000000000E+00  0.10271158481E+02  0.10271159717E+02  0.50400000000E-02 0.  1.
          2   -1    0    0  501    0  0.00000000000E+00 -0.00000000000E+00 -0.15355147983E+03  0.15355147985E+03  0.25500000000E-02 0. -1.
         24    2    1    2    0    0 -0.17763568394E-14  0.71054273576E-14 -0.14328032135E+03  0.16382263957E+03  0.79426738250E+02 0.  0.
         66    2    3    3    0    0 -0.13829179454E+02 -0.36845062159E+02 -0.82271434348E+02  0.91221673548E+02  0.20000013472E+01 0.  0.
        -13    1    3    3    0    0  0.13829179454E+02  0.36845062159E+02 -0.61008887000E+02  0.72600966019E+02  0.10566000000E+00 0.  1.
         13    1    4    4    0    0 -0.30420345898E+01 -0.78861309683E+01 -0.18231406771E+02  0.20095780477E+02  0.10566000000E+00 0. -1.
        -13    1    4    4    0    0 -0.21519807051E+01 -0.40991860445E+01 -0.96500116844E+01  0.10703655297E+02  0.10566000000E+00 0.  1.
         14    1    4    4    0    0 -0.86351641587E+01 -0.24859745146E+02 -0.54390015893E+02  0.60422237774E+02  0.00000000000E+00 0. -1.
<mgrwt>
<rscale>  0 0.79426738E+02</rscale>
<asrwt>0</asrwt>
<pdfrwt beam="1">  1        2 0.23623303E-01 0.79426738E+02</pdfrwt>
<pdfrwt beam="2">  1       -1 0.15801784E-02 0.79426738E+02</pdfrwt>
<totfact> 0.20570613E+05</totfact>
</mgrwt>
</event>
<event>
 8    1  0.1226832E-024  0.7943744E+02  0.7818608E-02  0.1330656E+00
          2   -1    0    0  501    0  0.00000000000E+00  0.00000000000E+00  0.68705939343E+02  0.68705939391E+02  0.25500000000E-02 0. -1.
         -1   -1    0    0    0  501 -0.00000000000E+00 -0.00000000000E+00 -0.22961286798E+02  0.22961287351E+02  0.50400000000E-02 0.  1.
         24    2    1    2    0    0  0.00000000000E+00  0.00000000000E+00  0.45744652545E+02  0.91667226742E+02  0.79437442192E+02 0.  0.
         66    2    3    3    0    0  0.28790533910E+00  0.39641888541E+02  0.25197472384E+02  0.47015687091E+02  0.20000003731E+01 0.  0.
        -13    1    3    3    0    0 -0.28790533910E+00 -0.39641888541E+02  0.20547180161E+02  0.44651539651E+02  0.10566000000E+00 0.  1.
         13    1    4    4    0    0  0.17478321661E+00  0.25074982215E+02  0.16644426293E+02  0.30097065852E+02  0.10566000000E+00 0. -1.
        -13    1    4    4    0    0  0.27389084123E+00  0.13757410578E+02  0.79068954836E+01  0.15870460681E+02  0.10566000000E+00 0.  1.
         14    1    4    4    0    0 -0.16076871874E+00  0.80949574877E+00  0.64615060719E+00  0.10481605580E+01  0.00000000000E+00 0. -1.
<mgrwt>
<rscale>  0 0.79437442E+02</rscale>
<asrwt>0</asrwt>
<pdfrwt beam="1">  1        2 0.10570144E-01 0.79437442E+02</pdfrwt>
<pdfrwt beam="2">  1       -1 0.35325057E-02 0.79437442E+02</pdfrwt>
<totfact> 0.16383373E+05</totfact>
</mgrwt>
</event>
<event>
 8    1  0.1226832E-024  0.7945273E+02  0.7818608E-02  0.1330612E+00
         -1   -1    0    0    0  501 -0.00000000000E+00  0.00000000000E+00  0.20600843035E+03  0.20600843042E+03  0.50400000000E-02 0.  1.
          2   -1    0    0  501    0  0.00000000000E+00 -0.00000000000E+00 -0.76607736287E+01  0.76607740531E+01  0.25500000000E-02 0. -1.
         24    2    1    2    0    0  0.00000000000E+00 -0.35527136788E-14  0.19834765673E+03  0.21366920447E+03  0.79452728146E+02 0.  0.
         66    2    3    3    0    0  0.34853785765E+02  0.14748733885E+02  0.13149278932E+03  0.13684540612E+03  0.19999997476E+01 0.  0.
        -13    1    3    3    0    0 -0.34853785765E+02 -0.14748733885E+02  0.66854867407E+02  0.76823798353E+02  0.10566000000E+00 0.  1.
         13    1    4    4    0    0  0.17638806320E+02  0.80025277030E+01  0.68269175710E+02  0.70963789740E+02  0.10566000000E+00 0. -1.
        -13    1    4    4    0    0  0.54868852296E+01  0.26686859849E+01  0.21598742811E+02  0.22444256491E+02  0.10566000000E+00 0.  1.
        -14    1    4    4    0    0  0.11728094215E+02  0.40775201968E+01  0.41624870797E+02  0.43437359885E+02  0.00000000000E+00 0.  1.
<mgrwt>
<rscale>  0 0.79452728E+02</rscale>
<asrwt>0</asrwt>
<pdfrwt beam="1">  1        2 0.11785805E-02 0.79452728E+02</pdfrwt>
<pdfrwt beam="2">  1       -1 0.31693607E-01 0.79452728E+02</pdfrwt>
<totfact> 0.10044792E+05</totfact>
</mgrwt>
</event>
<event>
 8    1  0.1226832E-024  0.8508150E+02  0.7818608E-02  0.1315220E+00
         -1   -1    0    0    0  501 -0.00000000000E+00  0.00000000000E+00  0.58772983252E+01  0.58773004862E+01  0.50400000000E-02 0.  1.
          2   -1    0    0  501    0  0.00000000000E+00 -0.00000000000E+00 -0.30791616633E+03  0.30791616634E+03  0.25500000000E-02 0. -1.
         24    2    1    2    0    0  0.00000000000E+00  0.88817841970E-15 -0.30203886800E+03  0.31379346682E+03  0.85081502322E+02 0.  0.
         66    2    3    3    0    0 -0.41365992757E+02 -0.58703233580E+01 -0.12203767200E+03  0.12900697441E+03  0.20000014171E+01 0.  0.
        -13    1    3    3    0    0  0.41365992757E+02  0.58703233580E+01 -0.18000119600E+03  0.18478649241E+03  0.10566000000E+00 0.  1.
         13    1    4    4    0    0 -0.49816016226E+01 -0.10855659955E+01 -0.13988982562E+02  0.14889513270E+02  0.10566000000E+00 0. -1.
        -13    1    4    4    0    0 -0.14115278695E+02 -0.21564895903E+01 -0.40417570862E+02  0.42865869155E+02  0.10566000000E+00 0.  1.
         14    1    4    4    0    0 -0.22269112439E+02 -0.26282677722E+01 -0.67631118579E+02  0.71251591986E+02  0.00000000000E+00 0. -1.
<mgrwt>
<rscale>  0 0.85081502E+02</rscale>
<asrwt>0</asrwt>
<pdfrwt beam="1">  1        2 0.47371705E-01 0.85081502E+02</pdfrwt>
<pdfrwt beam="2">  1       -1 0.90420015E-03 0.85081502E+02</pdfrwt>
<totfact> 0.21889209E+05</totfact>
</mgrwt>
</event>
<event>
 8    1  0.1226832E-024  0.7573111E+02  0.7818608E-02  0.1341622E+00
          2   -1    0    0  501    0  0.00000000000E+00  0.00000000000E+00  0.51648320416E+02  0.51648320479E+02  0.25500000000E-02 0. -1.
         -1   -1    0    0    0  501 -0.00000000000E+00 -0.00000000000E+00 -0.27760830826E+02  0.27760831283E+02  0.50400000000E-02 0.  1.
         24    2    1    2    0    0  0.00000000000E+00  0.00000000000E+00  0.23887489590E+02  0.79409151763E+02  0.75731111339E+02 0.  0.
         66    2    3    3    0    0 -0.89593994213E+01  0.35353358577E+02  0.22524635413E+02  0.42912585675E+02  0.20000020434E+01 0.  0.
        -13    1    3    3    0    0  0.89593994213E+01 -0.35353358577E+02  0.13628541775E+01  0.36496566088E+02  0.10566000000E+00 0.  1.
         13    1    4    4    0    0 -0.10538016203E+01  0.56173180253E+01  0.32500216926E+01  0.65756037510E+01  0.10566000000E+00 0. -1.
        -13    1    4    4    0    0 -0.77738290327E+01  0.29615669726E+02  0.19104043562E+02  0.36090108833E+02  0.10566000000E+00 0.  1.
        -14    1    4    4    0    0 -0.13176876839E+00  0.12037082568E+00  0.17057015861E+00  0.24687309089E+00  0.00000000000E+00 0.  1.
<mgrwt>
<rscale>  0 0.75731111E+02</rscale>
<asrwt>0</asrwt>
<pdfrwt beam="1">  1        2 0.79458953E-02 0.75731111E+02</pdfrwt>
<pdfrwt beam="2">  1       -1 0.42708972E-02 0.75731111E+02</pdfrwt>
<totfact> 0.17475340E+05</totfact>
</mgrwt>
</event>
<event>
 8    1  0.1226832E-024  0.7939358E+02  0.7818608E-02  0.1330781E+00
         -1   -1    0    0    0  501 -0.00000000000E+00  0.00000000000E+00  0.29780817822E+01  0.29780860470E+01  0.50400000000E-02 0.  1.
          2   -1    0    0  501    0  0.00000000000E+00 -0.00000000000E+00 -0.52914390484E+03  0.52914390485E+03  0.25500000000E-02 0. -1.
         24    2    1    2    0    0  0.00000000000E+00  0.00000000000E+00 -0.52616582306E+03  0.53212199090E+03  0.79393575547E+02 0.  0.
         66    2    3    3    0    0 -0.12888118496E+01  0.22027027552E+02 -0.48422097788E+03  0.48472755895E+03  0.20000004338E+01 0.  0.
        -13    1    3    3    0    0  0.12888118496E+01 -0.22027027552E+02 -0.41944845176E+02  0.47394431948E+02  0.10566000000E+00 0.  1.
         13    1    4    4    0    0 -0.95881362486E+00  0.90511638762E+01 -0.19436354953E+03  0.19457657475E+03  0.10566000000E+00 0. -1.
        -13    1    4    4    0    0 -0.35224400882E+00  0.74983070667E+01 -0.15322643863E+03  0.15341023872E+03  0.10566000000E+00 0.  1.
        -14    1    4    4    0    0  0.22245784028E-01  0.54775566093E+01 -0.13663098972E+03  0.13674074548E+03  0.00000000000E+00 0.  1.
<mgrwt>
<rscale>  0 0.79393576E+02</rscale>
<asrwt>0</asrwt>
<pdfrwt beam="1">  1        2 0.81406680E-01 0.79393576E+02</pdfrwt>
<pdfrwt beam="2">  1       -1 0.45816718E-03 0.79393576E+02</pdfrwt>
<totfact> 0.31616854E+05</totfact>
</mgrwt>
</event>
<event>
 8    1  0.1226832E-024  0.8093374E+02  0.7818608E-02  0.1326422E+00
         -1   -1    0    0    0  501 -0.00000000000E+00  0.00000000000E+00  0.35118456174E+02  0.35118456535E+02  0.50400000000E-02 0.  1.
          2   -1    0    0  501    0  0.00000000000E+00 -0.00000000000E+00 -0.46629827218E+02  0.46629827287E+02  0.25500000000E-02 0. -1.
         24    2    1    2    0    0 -0.44408920985E-15 -0.35527136788E-14 -0.11511371044E+02  0.81748283823E+02  0.80933739841E+02 0.  0.
         66    2    3    3    0    0  0.30033703099E+01  0.26579774570E+02 -0.36396923263E+02  0.45213279748E+02  0.19999982981E+01 0.  0.
        -13    1    3    3    0    0 -0.30033703099E+01 -0.26579774570E+02  0.24885552219E+02  0.36535004074E+02  0.10566000000E+00 0.  1.
         13    1    4    4    0    0  0.23792360213E+01  0.22061529877E+02 -0.29656394740E+02  0.37038962966E+02  0.10566000000E+00 0. -1.
        -13    1    4    4    0    0  0.58281557658E+00  0.45384551713E+01 -0.66917013286E+01  0.81072362766E+01  0.10566000000E+00 0.  1.
        -14    1    4    4    0    0  0.41318712005E-01 -0.20210478393E-01 -0.48827194510E-01  0.67080506277E-01  0.00000000000E+00 0.  1.
<mgrwt>
<rscale>  0 0.80933740E+02</rscale>
<asrwt>0</asrwt>
<pdfrwt beam="1">  1        2 0.71738196E-02 0.80933740E+02</pdfrwt>
<pdfrwt beam="2">  1       -1 0.54028394E-02 0.80933740E+02</pdfrwt>
<totfact> 0.14257835E+05</totfact>
</mgrwt>
</event>
<event>
 8    1  0.1226832E-024  0.8281465E+02  0.7818608E-02  0.1321248E+00
          2   -1    0    0  501    0  0.00000000000E+00  0.00000000000E+00  0.62642433232E+02  0.62642433283E+02  0.25500000000E-02 0. -1.
         -1   -1    0    0    0  501 -0.00000000000E+00 -0.00000000000E+00 -0.27370689144E+02  0.27370689608E+02  0.50400000000E-02 0.  1.
         24    2    1    2    0    0  0.00000000000E+00  0.00000000000E+00  0.35271744088E+02  0.90013122891E+02  0.82814650646E+02 0.  0.
         66    2    3    3    0    0  0.56528161417E+00  0.40701997401E+02  0.25750043979E+02  0.48208265844E+02  0.19999987820E+01 0.  0.
        -13    1    3    3    0    0 -0.56528161417E+00 -0.40701997401E+02  0.95217001092E+01  0.41804857047E+02  0.10566000000E+00 0.  1.
         13    1    4    4    0    0  0.28803395436E+00  0.27585482502E+02  0.17213801443E+02  0.32517194414E+02  0.10566000000E+00 0. -1.
        -13    1    4    4    0    0 -0.25443347976E+00  0.11248014473E+01  0.63834576889E+00  0.13223328052E+01  0.10566000000E+00 0.  1.
        -14    1    4    4    0    0  0.53168113957E+00  0.11991713451E+02  0.78978967671E+01  0.14368738625E+02  0.00000000000E+00 0.  1.
<mgrwt>
<rscale>  0 0.82814651E+02</rscale>
<asrwt>0</asrwt>
<pdfrwt beam="1">  1        2 0.96372973E-02 0.82814651E+02</pdfrwt>
<pdfrwt beam="2">  1       -1 0.42108753E-02 0.82814651E+02</pdfrwt>
<totfact> 0.14310218E+05</totfact>
</mgrwt>
</event>
<event>
 8    1  0.1226832E-024  0.7939739E+02  0.7818608E-02  0.1330770E+00
         -1   -1    0    0    0  501 -0.00000000000E+00  0.00000000000E+00  0.29232589827E+01  0.29232633274E+01  0.50400000000E-02 0.  1.
          2   -1    0    0  501    0  0.00000000000E+00 -0.00000000000E+00 -0.53911927722E+03  0.53911927723E+03  0.25500000000E-02 0. -1.
         24    2    1    2    0    0  0.00000000000E+00  0.00000000000E+00 -0.53619601824E+03  0.54204254056E+03  0.79397391620E+02 0.  0.
         66    2    3    3    0    0 -0.12535015094E+02 -0.17821099146E+02 -0.49461634872E+03  0.49510004105E+03  0.20000129971E+01 0.  0.
        -13    1    3    3    0    0  0.12535015094E+02  0.17821099146E+02 -0.41579669523E+02  0.46942499506E+02  0.10566000000E+00 0.  1.
         13    1    4    4    0    0 -0.68101933410E+01 -0.87713697871E+01 -0.26554470674E+03  0.26577682011E+03  0.10566000000E+00 0. -1.
        -13    1    4    4    0    0 -0.48654952516E+01 -0.72597595236E+01 -0.18206333657E+03  0.18227300085E+03  0.10566000000E+00 0.  1.
         14    1    4    4    0    0 -0.85932650095E+00 -0.17899698349E+01 -0.47008305405E+02  0.47050220097E+02  0.00000000000E+00 0. -1.
<mgrwt>
<rscale>  0 0.79397392E+02</rscale>
<asrwt>0</asrwt>
<pdfrwt beam="1">  1        2 0.82941348E-01 0.79397392E+02</pdfrwt>
<pdfrwt beam="2">  1       -1 0.44973292E-03 0.79397392E+02</pdfrwt>
<totfact> 0.31793797E+05</totfact>
</mgrwt>
</event>
<event>
 8    1  0.1226832E-024  0.7945368E+02  0.7818608E-02  0.1330609E+00
         -1   -1    0    0    0  501 -0.00000000000E+00  0.00000000000E+00  0.52606852833E+02  0.52606853074E+02  0.50400000000E-02 0.  1.
          2   -1    0    0  501    0  0.00000000000E+00 -0.00000000000E+00 -0.30000309540E+02  0.30000309649E+02  0.25500000000E-02 0. -1.
         24    2    1    2    0    0  0.00000000000E+00  0.00000000000E+00  0.22606543292E+02  0.82607162723E+02  0.79453681686E+02 0.  0.
         66    2    3    3    0    0 -0.25754439921E+02  0.29894782048E+02  0.15869397423E+02  0.42577305518E+02  0.20000003099E+01 0.  0.
        -13    1    3    3    0    0  0.25754439921E+02 -0.29894782048E+02  0.67371458691E+01  0.40029857205E+02  0.10566000000E+00 0.  1.
         13    1    4    4    0    0 -0.61563853997E+01  0.72240283817E+01  0.40550663964E+01  0.10321937549E+02  0.10566000000E+00 0. -1.
        -13    1    4    4    0    0 -0.18701915582E+02  0.21137617765E+02  0.10873782080E+02  0.30245839912E+02  0.10566000000E+00 0.  1.
        -14    1    4    4    0    0 -0.89613893900E+00  0.15331359012E+01  0.94054894681E+00  0.20095280568E+01  0.00000000000E+00 0.  1.
<mgrwt>
<rscale>  0 0.79453682E+02</rscale>
<asrwt>0</asrwt>
<pdfrwt beam="1">  1        2 0.46154323E-02 0.79453682E+02</pdfrwt>
<pdfrwt beam="2">  1       -1 0.80933620E-02 0.79453682E+02</pdfrwt>
<totfact> 0.13716019E+05</totfact>
</mgrwt>
</event>
<event>
 8    1  0.1226832E-024  0.7934433E+02  0.7818608E-02  0.1330922E+00
          2   -1    0    0  501    0  0.00000000000E+00  0.00000000000E+00  0.24183262115E+03  0.24183262117E+03  0.25500000000E-02 0. -1.
         -1   -1    0    0    0  501 -0.00000000000E+00 -0.00000000000E+00 -0.65081397439E+01  0.65081416954E+01  0.50400000000E-02 0.  1.
         24    2    1    2    0    0 -0.71054273576E-14 -0.88817841970E-15  0.23532448141E+03  0.24834076286E+03  0.79344331545E+02 0.  0.
         66    2    3    3    0    0 -0.32495235009E+02 -0.62837123491E+01  0.18605570864E+03  0.18898717432E+03  0.19999996384E+01 0.  0.
        -13    1    3    3    0    0  0.32495235009E+02  0.62837123491E+01  0.49268772764E+02  0.59353588542E+02  0.10566000000E+00 0.  1.
         13    1    4    4    0    0 -0.23830182095E+02 -0.47181149189E+01  0.13346933975E+03  0.13566213180E+03  0.10566000000E+00 0.  1.
        -13    1    4    4    0    0 -0.48337314098E+01 -0.11862037291E+01  0.28018172081E+02  0.28457005630E+02  0.10566000000E+00 0. -1.
         14    1    4    4    0    0 -0.38313215045E+01 -0.37939370109E+00  0.24568196814E+02  0.24868036889E+02  0.00000000000E+00 0. -1.
<mgrwt>
<rscale>  0 0.79344332E+02</rscale>
<asrwt>0</asrwt>
<pdfrwt beam="1">  1        2 0.37205024E-01 0.79344332E+02</pdfrwt>
<pdfrwt beam="2">  1       -1 0.10012523E-02 0.79344332E+02</pdfrwt>
<totfact> 0.24102433E+05</totfact>
</mgrwt>
</event>
<event>
 8    1  0.1226832E-024  0.8137561E+02  0.7818608E-02  0.1325192E+00
          2   -1    0    0  501    0  0.00000000000E+00  0.00000000000E+00  0.33357414129E+04  0.33357414129E+04  0.25500000000E-02 0. -1.
         -1   -1    0    0    0  501 -0.00000000000E+00 -0.00000000000E+00 -0.49627787490E+00  0.49630346635E+00  0.50400000000E-02 0.  1.
         24    2    1    2    0    0 -0.44408920985E-15  0.00000000000E+00  0.33352451350E+04  0.33362377164E+04  0.81375606930E+02 0.  0.
         66    2    3    3    0    0 -0.18921635497E+01  0.11006738516E+02  0.32716249358E+04  0.32716446092E+04  0.20000016112E+01 0.  0.
        -13    1    3    3    0    0  0.18921635497E+01 -0.11006738516E+02  0.63620199227E+02  0.64593107135E+02  0.10566000000E+00 0.  1.
         13    1    4    4    0    0 -0.61936749787E+00  0.89325418297E+00  0.23620077142E+03  0.23620329613E+03  0.10566000000E+00 0. -1.
        -13    1    4    4    0    0 -0.57161093862E+00  0.31205746891E+01  0.92406870038E+03  0.92407415228E+03  0.10566000000E+00 0. -1.
         14    1    4    4    0    0 -0.70118511319E+00  0.69929096436E+01  0.21113554640E+04  0.21113671608E+04  0.00000000000E+00 0. -1.
<mgrwt>
<rscale>  0 0.81375607E+02</rscale>
<asrwt>0</asrwt>
<pdfrwt beam="1">  1        2 0.51318018E+00 0.81375607E+02</pdfrwt>
<pdfrwt beam="2">  1       -1 0.76354018E-04 0.81375607E+02</pdfrwt>
<totfact> 0.10129515E+05</totfact>
</mgrwt>
</event>
<event>
 8    1  0.1226832E-024  0.7949866E+02  0.7818608E-02  0.1330480E+00
          2   -1    0    0  501    0  0.00000000000E+00  0.00000000000E+00  0.59435633328E+03  0.59435633329E+03  0.25500000000E-02 0. -1.
         -1   -1    0    0    0  501 -0.00000000000E+00 -0.00000000000E+00 -0.26583511705E+01  0.26583559482E+01  0.50400000000E-02 0.  1.
         24    2    1    2    0    0  0.17763568394E-14  0.00000000000E+00  0.59169798211E+03  0.59701468923E+03  0.79498661173E+02 0.  0.
         66    2    3    3    0    0 -0.13549387396E+02 -0.11104886762E+02  0.56377681632E+03  0.56405248251E+03  0.20000003654E+01 0.  0.
        -13    1    3    3    0    0  0.13549387396E+02  0.11104886762E+02  0.27921165794E+02  0.32962206724E+02  0.10566000000E+00 0.  1.
         13    1    4    4    0    0 -0.42211088265E+01 -0.28833312624E+01  0.17207655086E+03  0.17215249600E+03  0.10566000000E+00 0. -1.
        -13    1    4    4    0    0 -0.34416148084E+01 -0.28797045388E+01  0.16219631085E+03  0.16225841066E+03  0.10566000000E+00 0.  1.
        -14    1    4    4    0    0 -0.58866637609E+01 -0.53418509604E+01  0.22950395460E+03  0.22964157585E+03  0.00000000000E+00 0.  1.
<mgrwt>
<rscale>  0 0.79498661E+02</rscale>
<asrwt>0</asrwt>
<pdfrwt beam="1">  1        2 0.91439472E-01 0.79498661E+02</pdfrwt>
<pdfrwt beam="2">  1       -1 0.40897731E-03 0.79498661E+02</pdfrwt>
<totfact> 0.32607594E+05</totfact>
</mgrwt>
</event>
<event>
 8    1  0.1226832E-024  0.7838385E+02  0.7818608E-02  0.1333701E+00
         -1   -1    0    0    0  501 -0.00000000000E+00  0.00000000000E+00  0.11824988369E+03  0.11824988379E+03  0.50400000000E-02 0.  1.
          2   -1    0    0  501    0  0.00000000000E+00 -0.00000000000E+00 -0.12989500320E+02  0.12989500571E+02  0.25500000000E-02 0. -1.
         24    2    1    2    0    0 -0.71054273576E-14 -0.88817841970E-15  0.10526038337E+03  0.13123938436E+03  0.78383848476E+02 0.  0.
         66    2    3    3    0    0 -0.35601293831E+02 -0.64447097595E+01  0.27548740458E+02  0.45518342526E+02  0.19999997867E+01 0.  0.
        -13    1    3    3    0    0  0.35601293831E+02  0.64447097595E+01  0.77711642908E+02  0.85721041838E+02  0.10566000000E+00 0.  1.
         13    1    4    4    0    0 -0.22057680670E+02 -0.46996677948E+01  0.17454591175E+02  0.28518451414E+02  0.10566000000E+00 0. -1.
        -13    1    4    4    0    0 -0.25160013152E+01 -0.87665909057E-01  0.20808551846E+01  0.32678846774E+01  0.10566000000E+00 0.  1.
         14    1    4    4    0    0 -0.11027611846E+02 -0.16573760556E+01  0.80132940978E+01  0.13732006434E+02  0.00000000000E+00 0. -1.
<mgrwt>
<rscale>  0 0.78383848E+02</rscale>
<asrwt>0</asrwt>
<pdfrwt beam="1">  1        2 0.19983848E-02 0.78383848E+02</pdfrwt>
<pdfrwt beam="2">  1       -1 0.18192289E-01 0.78383848E+02</pdfrwt>
<totfact> 0.12022712E+05</totfact>
</mgrwt>
</event>
<event>
 8    1  0.1226832E-024  0.7999730E+02  0.7818608E-02  0.1329059E+00
          2   -1    0    0  501    0  0.00000000000E+00  0.00000000000E+00  0.20842994089E+03  0.20842994091E+03  0.25500000000E-02 0. -1.
         -1   -1    0    0    0  501 -0.00000000000E+00 -0.00000000000E+00 -0.76759217329E+01  0.76759233876E+01  0.50400000000E-02 0.  1.
         24    2    1    2    0    0  0.00000000000E+00  0.00000000000E+00  0.20075401916E+03  0.21610586430E+03  0.79997302294E+02 0.  0.
         66    2    3    3    0    0  0.11909569975E+02  0.37051870200E+02  0.12508147777E+03  0.13101165987E+03  0.19999996946E+01 0.  0.
        -13    1    3    3    0    0 -0.11909569975E+02 -0.37051870200E+02  0.75672541392E+02  0.85094204427E+02  0.10566000000E+00 0.  1.
         13    1    4    4    0    0  0.31403479324E+01  0.12187607113E+02  0.40917811005E+02  0.42809788294E+02  0.10566000000E+00 0. -1.
        -13    1    4    4    0    0  0.14951555770E+00  0.62155310075E+00  0.18109584239E+01  0.19233870146E+01  0.10566000000E+00 0. -1.
         14    1    4    4    0    0  0.86197064849E+01  0.24242709986E+02  0.82352708339E+02  0.86278484561E+02  0.00000000000E+00 0. -1.
<mgrwt>
<rscale>  0 0.79997302E+02</rscale>
<asrwt>0</asrwt>
<pdfrwt beam="1">  1        2 0.32066148E-01 0.79997302E+02</pdfrwt>
<pdfrwt beam="2">  1       -1 0.11809111E-02 0.79997302E+02</pdfrwt>
<totfact> 0.22380306E+05</totfact>
</mgrwt>
</event>
<event>
 8    1  0.1226832E-024  0.7981136E+02  0.7818608E-02  0.1329588E+00
          2   -1    0    0  501    0  0.00000000000E+00  0.00000000000E+00  0.17371484502E+02  0.17371484690E+02  0.25500000000E-02 0. -1.
         -1   -1    0    0    0  501 -0.00000000000E+00 -0.00000000000E+00 -0.91671113031E+02  0.91671113169E+02  0.50400000000E-02 0.  1.
         24    2    1    2    0    0  0.00000000000E+00  0.00000000000E+00 -0.74299628528E+02  0.10904259786E+03  0.79811361023E+02 0.  0.
         66    2    3    3    0    0 -0.56479082803E+01  0.38842497773E+02 -0.46816535928E+02  0.61126316241E+02  0.19999999352E+01 0.  0.
        -13    1    3    3    0    0  0.56479082803E+01 -0.38842497773E+02 -0.27483092600E+02  0.47916281618E+02  0.10566000000E+00 0.  1.
         13    1    4    4    0    0 -0.44161658397E+01  0.27899252827E+02 -0.33409813967E+02  0.43750401854E+02  0.10566000000E+00 0. -1.
        -13    1    4    4    0    0 -0.10513238427E+01  0.83306149521E+01 -0.10804545623E+02  0.13684070938E+02  0.10566000000E+00 0.  1.
         14    1    4    4    0    0 -0.18041859785E+00  0.26126299937E+01 -0.26021763384E+01  0.36918434488E+01  0.00000000000E+00 0. -1.
<mgrwt>
<rscale>  0 0.79811361E+02</rscale>
<asrwt>0</asrwt>
<pdfrwt beam="1">  1        2 0.26725361E-02 0.79811361E+02</pdfrwt>
<pdfrwt beam="2">  1       -1 0.14103248E-01 0.79811361E+02</pdfrwt>
<totfact> 0.12144064E+05</totfact>
</mgrwt>
</event>
<event>
 8    1  0.1226832E-024  0.7669024E+02  0.7818608E-02  0.1338715E+00
         -1   -1    0    0    0  501 -0.00000000000E+00  0.00000000000E+00  0.12086737221E+01  0.12086842301E+01  0.50400000000E-02 0.  1.
          2   -1    0    0  501    0  0.00000000000E+00 -0.00000000000E+00 -0.12164917844E+04  0.12164917844E+04  0.25500000000E-02 0. -1.
         24    2    1    2    0    0  0.00000000000E+00  0.00000000000E+00 -0.12152831107E+04  0.12177004686E+04  0.76690235427E+02 0.  0.
         66    2    3    3    0    0 -0.31636021042E+00  0.24799139497E+02 -0.10718608456E+04  0.10721496023E+04  0.19999993435E+01 0.  0.
        -13    1    3    3    0    0  0.31636021042E+00 -0.24799139497E+02 -0.14342226510E+03  0.14555086634E+03  0.10566000000E+00 0.  1.
         13    1    4    4    0    0  0.23642826341E+00  0.44202099847E+01 -0.16950802389E+03  0.16956584409E+03  0.10566000000E+00 0. -1.
        -13    1    4    4    0    0  0.37365439141E-01  0.12648603712E+02 -0.57574913569E+03  0.57588806810E+03  0.10566000000E+00 0.  1.
         14    1    4    4    0    0 -0.59015391297E+00  0.77303258003E+01 -0.32660368602E+03  0.32669569011E+03  0.00000000000E+00 0. -1.
<mgrwt>
<rscale>  0 0.76690235E+02</rscale>
<asrwt>0</asrwt>
<pdfrwt beam="1">  1        2 0.18715160E+00 0.76690235E+02</pdfrwt>
<pdfrwt beam="2">  1       -1 0.18595159E-03 0.76690235E+02</pdfrwt>
<totfact> 0.39028775E+05</totfact>
</mgrwt>
</event>
<event>
 8    1  0.1226832E-024  0.7991214E+02  0.7818608E-02  0.1329301E+00
         -1   -1    0    0    0  501 -0.00000000000E+00  0.00000000000E+00  0.20841741774E+02  0.20841742383E+02  0.50400000000E-02 0.  1.
          2   -1    0    0  501    0  0.00000000000E+00 -0.00000000000E+00 -0.76600485751E+02  0.76600485793E+02  0.25500000000E-02 0. -1.
         24    2    1    2    0    0  0.35527136788E-14 -0.17763568394E-14 -0.55758743977E+02  0.97442228177E+02  0.79912141143E+02 0.  0.
         66    2    3    3    0    0  0.14655081739E+02 -0.12540909867E+02 -0.70529957791E+02  0.73147254157E+02  0.20000008869E+01 0.  0.
        -13    1    3    3    0    0 -0.14655081739E+02  0.12540909867E+02  0.14771213814E+02  0.24294974020E+02  0.10566000000E+00 0.  1.
         13    1    4    4    0    0  0.82982303508E+01 -0.65286263135E+01 -0.39267910657E+02  0.40662803148E+02  0.10566000000E+00 0. -1.
        -13    1    4    4    0    0  0.36168478935E+01 -0.27351939967E+01 -0.17188716333E+02  0.17777120355E+02  0.10566000000E+00 0. -1.
         14    1    4    4    0    0  0.27400034952E+01 -0.32770895564E+01 -0.14073330801E+02  0.14707330653E+02  0.00000000000E+00 0. -1.
<mgrwt>
<rscale>  0 0.79912141E+02</rscale>
<asrwt>0</asrwt>
<pdfrwt beam="1">  1        2 0.11784690E-01 0.79912141E+02</pdfrwt>
<pdfrwt beam="2">  1       -1 0.32064219E-02 0.79912141E+02</pdfrwt>
<totfact> 0.16561022E+05</totfact>
</mgrwt>
</event>
<event>
 8    1  0.1226832E-024  0.8173993E+02  0.7818608E-02  0.1324185E+00
          2   -1    0    0  501    0  0.00000000000E+00  0.00000000000E+00  0.33454438979E+02  0.33454439077E+02  0.25500000000E-02 0. -1.
         -1   -1    0    0    0  501 -0.00000000000E+00 -0.00000000000E+00 -0.49929216048E+02  0.49929216303E+02  0.50400000000E-02 0.  1.
         24    2    1    2    0    0  0.35527136788E-14  0.00000000000E+00 -0.16474777069E+02  0.83383655379E+02  0.81739927239E+02 0.  0.
         66    2    3    3    0    0  0.26207155995E+02 -0.57532401507E+01  0.23173649340E+02  0.35509615668E+02  0.19999958869E+01 0.  0.
        -13    1    3    3    0    0 -0.26207155995E+02  0.57532401507E+01 -0.39648426409E+02  0.47874039712E+02  0.10566000000E+00 0.  1.
         13    1    4    4    0    0  0.86514465605E+01 -0.15255218924E+01  0.76610447349E+01  0.11656651110E+02  0.10566000000E+00 0. -1.
        -13    1    4    4    0    0  0.89874378792E+01 -0.14216789123E+01  0.80375515835E+01  0.12141194754E+02  0.10566000000E+00 0.  1.
         14    1    4    4    0    0  0.85682715551E+01 -0.28060393461E+01  0.74750530218E+01  0.11711769804E+02  0.00000000000E+00 0. -1.
<mgrwt>
<rscale>  0 0.81739927E+02</rscale>
<asrwt>0</asrwt>
<pdfrwt beam="1">  1        2 0.51468368E-02 0.81739927E+02</pdfrwt>
<pdfrwt beam="2">  1       -1 0.76814179E-02 0.81739927E+02</pdfrwt>
<totfact> 0.12947449E+05</totfact>
</mgrwt>
</event>
<event>
 8    1  0.1226832E-024  0.7747733E+02  0.7818608E-02  0.1336367E+00
          2   -1    0    0  501    0  0.00000000000E+00  0.00000000000E+00  0.39846863303E+02  0.39846863385E+02  0.25500000000E-02 0. -1.
         -1   -1    0    0    0  501 -0.00000000000E+00 -0.00000000000E+00 -0.37661287245E+02  0.37661287582E+02  0.50400000000E-02 0.  1.
         24    2    1    2    0    0  0.88817841970E-15  0.00000000000E+00  0.21855760583E+01  0.77508150967E+02  0.77477330385E+02 0.  0.
         66    2    3    3    0    0 -0.58630557030E+01 -0.19996824411E+02  0.33732109229E+02  0.39700171283E+02  0.19999995314E+01 0.  0.
        -13    1    3    3    0    0  0.58630557030E+01  0.19996824411E+02 -0.31546533171E+02  0.37807979685E+02  0.10566000000E+00 0.  1.
         13    1    4    4    0    0 -0.10293647785E+01 -0.48130545506E+01  0.78889565193E+01  0.92990260218E+01  0.10566000000E+00 0. -1.
        -13    1    4    4    0    0 -0.41065034292E+01 -0.12172829749E+02  0.19659437840E+02  0.23485012555E+02  0.10566000000E+00 0.  1.
        -14    1    4    4    0    0 -0.72718749538E+00 -0.30109401120E+01  0.61837148699E+01  0.69161327057E+01  0.00000000000E+00 0.  1.
<mgrwt>
<rscale>  0 0.77477330E+02</rscale>
<asrwt>0</asrwt>
<pdfrwt beam="1">  1        2 0.61302867E-02 0.77477330E+02</pdfrwt>
<pdfrwt beam="2">  1       -1 0.57940443E-02 0.77477330E+02</pdfrwt>
<totfact> 0.15560071E+05</totfact>
</mgrwt>
</event>
<event>
 8    1  0.1226832E-024  0.8101367E+02  0.7818608E-02  0.1326199E+00
         -1   -1    0    0    0  501 -0.00000000000E+00  0.00000000000E+00  0.37089784543E+01  0.37089818787E+01  0.50400000000E-02 0.  1.
          2   -1    0    0  501    0  0.00000000000E+00 -0.00000000000E+00 -0.44238673805E+03  0.44238673806E+03  0.25500000000E-02 0. -1.
         24    2    1    2    0    0  0.35527136788E-14  0.00000000000E+00 -0.43867775960E+03  0.44609571994E+03  0.81013669102E+02 0.  0.
         66    2    3    3    0    0  0.18644660282E+02  0.33539393573E+02 -0.29047825845E+03  0.29300875909E+03  0.19999977176E+01 0.  0.
        -13    1    3    3    0    0 -0.18644660282E+02 -0.33539393573E+02 -0.14819950114E+03  0.15308696085E+03  0.10566000000E+00 0.  1.
         13    1    4    4    0    0  0.22400254894E+01  0.36580913180E+01 -0.35242289378E+02  0.35502527670E+02  0.10566000000E+00 0. -1.
        -13    1    4    4    0    0  0.57866260340E+01  0.91748118559E+01 -0.81738313329E+02  0.82454989196E+02  0.10566000000E+00 0.  1.
         14    1    4    4    0    0  0.10618008759E+02  0.20706490400E+02 -0.17349765575E+03  0.17505124223E+03  0.00000000000E+00 0. -1.
<mgrwt>
<rscale>  0 0.81013669E+02</rscale>
<asrwt>0</asrwt>
<pdfrwt beam="1">  1        2 0.68059456E-01 0.81013669E+02</pdfrwt>
<pdfrwt beam="2">  1       -1 0.57061269E-03 0.81013669E+02</pdfrwt>
<totfact> 0.28303935E+05</totfact>
</mgrwt>
</event>
<event>
 8    1  0.1226832E-024  0.7883464E+02  0.7818608E-02  0.1332391E+00
          2   -1    0    0  501    0  0.00000000000E+00  0.00000000000E+00  0.11617635240E+04  0.11617635240E+04  0.25500000000E-02 0. -1.
         -1   -1    0    0    0  501 -0.00000000000E+00 -0.00000000000E+00 -0.13373804073E+01  0.13373899040E+01  0.50400000000E-02 0.  1.
         24    2    1    2    0    0 -0.88817841970E-15  0.00000000000E+00  0.11604261436E+04  0.11631009139E+04  0.78834644652E+02 0.  0.
         66    2    3    3    0    0  0.70036965650E+01  0.21891050511E+02  0.10525764482E+04  0.10528292592E+04  0.19999983039E+01 0.  0.
        -13    1    3    3    0    0 -0.70036965650E+01 -0.21891050511E+02  0.10784969542E+03  0.11027165467E+03  0.10566000000E+00 0.  1.
         13    1    4    4    0    0  0.39523663304E+01  0.13429344668E+02  0.60935242080E+03  0.60951320937E+03  0.10566000000E+00 0. -1.
        -13    1    4    4    0    0  0.10482674528E+01  0.19576872368E+01  0.11461164323E+03  0.11463320345E+03  0.10566000000E+00 0.  1.
        -14    1    4    4    0    0  0.20030627819E+01  0.65040186061E+01  0.32861238415E+03  0.32868284643E+03  0.00000000000E+00 0.  1.
<mgrwt>
<rscale>  0 0.78834645E+02</rscale>
<asrwt>0</asrwt>
<pdfrwt beam="1">  1        2 0.17873309E+00 0.78834645E+02</pdfrwt>
<pdfrwt beam="2">  1       -1 0.20575129E-03 0.78834645E+02</pdfrwt>
<totfact> 0.36509427E+05</totfact>
</mgrwt>
</event>
<event>
 8    1  0.1226832E-024  0.8094096E+02  0.7818608E-02  0.1326402E+00
          2   -1    0    0  501    0  0.00000000000E+00  0.00000000000E+00  0.44282846931E+02  0.44282847005E+02  0.25500000000E-02 0. -1.
         -1   -1    0    0    0  501 -0.00000000000E+00 -0.00000000000E+00 -0.36986327709E+02  0.36986328053E+02  0.50400000000E-02 0.  1.
         24    2    1    2    0    0  0.00000000000E+00  0.71054273576E-14  0.72965192220E+01  0.81269175057E+02  0.80940963805E+02 0.  0.
         66    2    3    3    0    0 -0.10991182213E+01 -0.39003884239E+02  0.14339959675E+02  0.41619051930E+02  0.19999983692E+01 0.  0.
        -13    1    3    3    0    0  0.10991182213E+01  0.39003884239E+02 -0.70434404527E+01  0.39650123127E+02  0.10566000000E+00 0.  1.
         13    1    4    4    0    0 -0.58523905723E-01 -0.11284619635E+02  0.36684168560E+01  0.11866529047E+02  0.10566000000E+00 0. -1.
        -13    1    4    4    0    0 -0.55819687639E+00 -0.36317725285E+01  0.15971870925E+01  0.40079328956E+01  0.10566000000E+00 0.  1.
        -14    1    4    4    0    0 -0.48239743916E+00 -0.24087492075E+02  0.90743557262E+01  0.25744589987E+02  0.00000000000E+00 0.  1.
<mgrwt>
<rscale>  0 0.80940964E+02</rscale>
<asrwt>0</asrwt>
<pdfrwt beam="1">  1        2 0.68127457E-02 0.80940964E+02</pdfrwt>
<pdfrwt beam="2">  1       -1 0.56902043E-02 0.80940964E+02</pdfrwt>
<totfact> 0.14098282E+05</totfact>
</mgrwt>
</event>
<event>
 8    1  0.1226832E-024  0.7914874E+02  0.7818608E-02  0.1331485E+00
          2   -1    0    0  501    0  0.00000000000E+00  0.00000000000E+00  0.11070389815E+03  0.11070389818E+03  0.25500000000E-02 0. -1.
         -1   -1    0    0    0  501 -0.00000000000E+00 -0.00000000000E+00 -0.14147023093E+02  0.14147023991E+02  0.50400000000E-02 0.  1.
         24    2    1    2    0    0  0.00000000000E+00  0.00000000000E+00  0.96556875060E+02  0.12485092217E+03  0.79148737489E+02 0.  0.
         66    2    3    3    0    0  0.18211698009E+02 -0.30102059076E+02  0.76804493835E+02  0.84502841264E+02  0.20000008542E+01 0.  0.
        -13    1    3    3    0    0 -0.18211698009E+02  0.30102059076E+02  0.19752381225E+02  0.40348080909E+02  0.10566000000E+00 0.  1.
         13    1    4    4    0    0  0.58251702733E+01 -0.95695275694E+01  0.25115701040E+02  0.27501237597E+02  0.10566000000E+00 0. -1.
        -13    1    4    4    0    0  0.82001068242E+01 -0.14883392535E+02  0.37123554737E+02  0.40828012512E+02  0.10566000000E+00 0.  1.
         14    1    4    4    0    0  0.41864209116E+01 -0.56491389710E+01  0.14565238057E+02  0.16173591154E+02  0.00000000000E+00 0. -1.
<mgrwt>
<rscale>  0 0.79148737E+02</rscale>
<asrwt>0</asrwt>
<pdfrwt beam="1">  1        2 0.17031370E-01 0.79148737E+02</pdfrwt>
<pdfrwt beam="2">  1       -1 0.21764650E-02 0.79148737E+02</pdfrwt>
<totfact> 0.18776330E+05</totfact>
</mgrwt>
</event>
<event>
 8    1  0.1226832E-024  0.8011143E+02  0.7818608E-02  0.1328736E+00
         -1   -1    0    0    0  501 -0.00000000000E+00  0.00000000000E+00  0.13032783235E+01  0.13032880687E+01  0.50400000000E-02 0.  1.
          2   -1    0    0  501    0  0.00000000000E+00 -0.00000000000E+00 -0.12310909241E+04  0.12310909241E+04  0.25500000000E-02 0. -1.
         24    2    1    2    0    0 -0.35527136788E-14 -0.17763568394E-14 -0.12297876458E+04  0.12323942122E+04  0.80111425459E+02 0.  0.
         66    2    3    3    0    0 -0.16496266277E+02 -0.11928817999E+02 -0.11455119781E+04  0.11456945996E+04  0.19999998079E+01 0.  0.
        -13    1    3    3    0    0  0.16496266277E+02  0.11928817999E+02 -0.84275667676E+02  0.86699612607E+02  0.10566000000E+00 0.  1.
         13    1    4    4    0    0 -0.63213521625E+01 -0.43471545313E+01 -0.47516486606E+03  0.47522680727E+03  0.10566000000E+00 0. -1.
        -13    1    4    4    0    0 -0.30996034610E+01 -0.21039324842E+01 -0.17931715897E+03  0.17935631781E+03  0.10566000000E+00 0.  1.
         14    1    4    4    0    0 -0.70753106535E+01 -0.54777309838E+01 -0.49102995309E+03  0.49111147450E+03  0.00000000000E+00 0. -1.
<mgrwt>
<rscale>  0 0.80111425E+02</rscale>
<asrwt>0</asrwt>
<pdfrwt beam="1">  1        2 0.18939767E+00 0.80111425E+02</pdfrwt>
<pdfrwt beam="2">  1       -1 0.20050609E-03 0.80111425E+02</pdfrwt>
<totfact> 0.34802094E+05</totfact>
</mgrwt>
</event>
<event>
 8    1  0.1226832E-024  0.7977041E+02  0.7818608E-02  0.1329704E+00
         -1   -1    0    0    0  501 -0.00000000000E+00  0.00000000000E+00  0.95176358161E+01  0.95176371506E+01  0.50400000000E-02 0.  1.
          2   -1    0    0  501    0  0.00000000000E+00 -0.00000000000E+00 -0.16714543293E+03  0.16714543295E+03  0.25500000000E-02 0. -1.
         24    2    1    2    0    0  0.00000000000E+00  0.00000000000E+00 -0.15762779711E+03  0.17666307010E+03  0.79770407508E+02 0.  0.
         66    2    3    3    0    0  0.35338184640E+02  0.48819393225E+01 -0.11824437862E+03  0.12352470880E+03  0.19999958913E+01 0.  0.
        -13    1    3    3    0    0 -0.35338184640E+02 -0.48819393225E+01 -0.39383418487E+02  0.53138361294E+02  0.10566000000E+00 0.  1.
         13    1    4    4    0    0  0.27551592032E+02  0.42969598561E+01 -0.92371226856E+02  0.96488386879E+02  0.10566000000E+00 0. -1.
        -13    1    4    4    0    0  0.42808117784E+00  0.15499073489E+00 -0.13006685074E+01  0.13820919740E+01  0.10566000000E+00 0.  1.
         14    1    4    4    0    0  0.73585114302E+01  0.42998873147E+00 -0.24572483259E+02  0.25654229950E+02  0.00000000000E+00 0. -1.
<mgrwt>
<rscale>  0 0.79770408E+02</rscale>
<asrwt>0</asrwt>
<pdfrwt beam="1">  1        2 0.25714680E-01 0.79770408E+02</pdfrwt>
<pdfrwt beam="2">  1       -1 0.14642519E-02 0.79770408E+02</pdfrwt>
<totfact> 0.20910540E+05</totfact>
</mgrwt>
</event>
<event>
 8    1  0.1226832E-024  0.7932090E+02  0.7818608E-02  0.1330990E+00
          2   -1    0    0  501    0  0.00000000000E+00  0.00000000000E+00  0.24489426451E+03  0.24489426452E+03  0.25500000000E-02 0. -1.
         -1   -1    0    0    0  501 -0.00000000000E+00 -0.00000000000E+00 -0.64229800164E+01  0.64229819938E+01  0.50400000000E-02 0.  1.
         24    2    1    2    0    0  0.00000000000E+00  0.00000000000E+00  0.23847128449E+03  0.25131724652E+03  0.79320898059E+02 0.  0.
         66    2    3    3    0    0  0.14920132655E+02  0.26203627784E+02  0.20081302349E+03  0.20307415112E+03  0.19999957527E+01 0.  0.
        -13    1    3    3    0    0 -0.14920132655E+02 -0.26203627784E+02  0.37658261004E+02  0.48243095396E+02  0.10566000000E+00 0.  1.
         13    1    4    4    0    0  0.79642951275E+01  0.13549392814E+02  0.10647748711E+03  0.10763123370E+03  0.10566000000E+00 0. -1.
        -13    1    4    4    0    0  0.30866820787E+01  0.45582184760E+01  0.33610278000E+02  0.34058286998E+02  0.10566000000E+00 0.  1.
         14    1    4    4    0    0  0.38691554492E+01  0.80960164939E+01  0.60725258380E+02  0.61384630424E+02  0.00000000000E+00 0. -1.
<mgrwt>
<rscale>  0 0.79320898E+02</rscale>
<asrwt>0</asrwt>
<pdfrwt beam="1">  1        2 0.37676046E-01 0.79320898E+02</pdfrwt>
<pdfrwt beam="2">  1       -1 0.98815080E-03 0.79320898E+02</pdfrwt>
<totfact> 0.24229711E+05</totfact>
</mgrwt>
</event>
<event>
 8    1  0.1226832E-024  0.7692169E+02  0.7818608E-02  0.1338021E+00
          2   -1    0    0  501    0  0.00000000000E+00  0.00000000000E+00  0.62366519994E+02  0.62366520046E+02  0.25500000000E-02 0. -1.
         -1   -1    0    0    0  501 -0.00000000000E+00 -0.00000000000E+00 -0.23718441381E+02  0.23718441917E+02  0.50400000000E-02 0.  1.
         24    2    1    2    0    0  0.00000000000E+00 -0.35527136788E-14  0.38648078612E+02  0.86084961962E+02  0.76921691971E+02 0.  0.
         66    2    3    3    0    0  0.96404692236E+01  0.24523680112E+02  0.50650210860E+02  0.57129619181E+02  0.19999986330E+01 0.  0.
        -13    1    3    3    0    0 -0.96404692236E+01 -0.24523680112E+02 -0.12002132247E+02  0.28955342782E+02  0.10566000000E+00 0.  1.
         13    1    4    4    0    0  0.31683310487E+01  0.89045486247E+01  0.17610135965E+02  0.19986429411E+02  0.10566000000E+00 0. -1.
        -13    1    4    4    0    0  0.15430752804E+01  0.24064834960E+01  0.59774494634E+01  0.66267118740E+01  0.10566000000E+00 0.  1.
         14    1    4    4    0    0  0.49290628945E+01  0.13212647991E+02  0.27062625431E+02  0.30516477896E+02  0.00000000000E+00 0. -1.
<mgrwt>
<rscale>  0 0.76921692E+02</rscale>
<asrwt>0</asrwt>
<pdfrwt beam="1">  1        2 0.95948491E-02 0.76921692E+02</pdfrwt>
<pdfrwt beam="2">  1       -1 0.36489911E-02 0.76921692E+02</pdfrwt>
<totfact> 0.17469094E+05</totfact>
</mgrwt>
</event>
<event>
 8    1  0.1226832E-024  0.7871127E+02  0.7818608E-02  0.1332749E+00
         -1   -1    0    0    0  501 -0.00000000000E+00  0.00000000000E+00  0.82995107473E+01  0.82995122776E+01  0.50400000000E-02 0.  1.
          2   -1    0    0  501    0  0.00000000000E+00 -0.00000000000E+00 -0.18662136254E+03  0.18662136255E+03  0.25500000000E-02 0. -1.
         24    2    1    2    0    0  0.00000000000E+00  0.00000000000E+00 -0.17832185179E+03  0.19492087483E+03  0.78711273777E+02 0.  0.
         66    2    3    3    0    0  0.17919216579E+02 -0.22252142554E+02 -0.15615479111E+03  0.15875948777E+03  0.19999997366E+01 0.  0.
        -13    1    3    3    0    0 -0.17919216579E+02  0.22252142554E+02 -0.22167060677E+02  0.36161387060E+02  0.10566000000E+00 0.  1.
         13    1    4    4    0    0  0.44320720839E+01 -0.62885616717E+01 -0.40982604411E+02  0.41698612677E+02  0.10566000000E+00 0. -1.
        -13    1    4    4    0    0  0.58572677242E+00 -0.96663913641E+00 -0.76830477414E+01  0.77664569595E+01  0.10566000000E+00 0. -1.
         14    1    4    4    0    0  0.12901417722E+02 -0.14996941746E+02 -0.10748913896E+03  0.10929441813E+03  0.00000000000E+00 0. -1.
<mgrwt>
<rscale>  0 0.78711274E+02</rscale>
<asrwt>0</asrwt>
<pdfrwt beam="1">  1        2 0.28710976E-01 0.78711274E+02</pdfrwt>
<pdfrwt beam="2">  1       -1 0.12768481E-02 0.78711274E+02</pdfrwt>
<totfact> 0.22481493E+05</totfact>
</mgrwt>
</event>
<event>
 8    1  0.1226832E-024  0.8129034E+02  0.7818608E-02  0.1325429E+00
          2   -1    0    0  501    0  0.00000000000E+00  0.00000000000E+00  0.29808341008E+03  0.29808341009E+03  0.25500000000E-02 0. -1.
         -1   -1    0    0    0  501 -0.00000000000E+00 -0.00000000000E+00 -0.55421720268E+01  0.55421743185E+01  0.50400000000E-02 0.  1.
         24    2    1    2    0    0 -0.17763568394E-14 -0.71054273576E-14  0.29254123806E+03  0.30362558441E+03  0.81290341039E+02 0.  0.
         66    2    3    3    0    0  0.66261835618E+01  0.38929135437E+02  0.11079890970E+03  0.11764260408E+03  0.20000021474E+01 0.  0.
        -13    1    3    3    0    0 -0.66261835618E+01 -0.38929135437E+02  0.18174232836E+03  0.18598298034E+03  0.10566000000E+00 0.  1.
         13    1    4    4    0    0  0.14729759181E+01  0.11119924283E+02  0.32603979644E+02  0.34479748067E+02  0.10566000000E+00 0. -1.
        -13    1    4    4    0    0  0.25312479300E+00  0.30657383286E+01  0.78121068207E+01  0.83966064975E+01  0.10566000000E+00 0. -1.
        -14    1    4    4    0    0  0.49000828507E+01  0.24743472825E+02  0.70382823235E+02  0.74766249511E+02  0.00000000000E+00 0.  1.
<mgrwt>
<rscale>  0 0.81290341E+02</rscale>
<asrwt>0</asrwt>
<pdfrwt beam="1">  1        2 0.45858989E-01 0.81290341E+02</pdfrwt>
<pdfrwt beam="2">  1       -1 0.85264198E-03 0.81290341E+02</pdfrwt>
<totfact> 0.24389542E+05</totfact>
</mgrwt>
</event>
<event>
 8    1  0.1226832E-024  0.7997823E+02  0.7818608E-02  0.1329113E+00
          2   -1    0    0  501    0  0.00000000000E+00  0.00000000000E+00  0.32962616530E+03  0.32962616531E+03  0.25500000000E-02 0. -1.
         -1   -1    0    0    0  501 -0.00000000000E+00 -0.00000000000E+00 -0.48513412667E+01  0.48513438847E+01  0.50400000000E-02 0.  1.
         24    2    1    2    0    0  0.00000000000E+00  0.17763568394E-14  0.32477482403E+03  0.33447750919E+03  0.79978233483E+02 0.  0.
         66    2    3    3    0    0  0.38731902929E+02  0.98435556882E+01  0.16358411580E+03  0.16840670659E+03  0.19999972890E+01 0.  0.
        -13    1    3    3    0    0 -0.38731902929E+02 -0.98435556882E+01  0.16119070823E+03  0.16607080260E+03  0.10566000000E+00 0.  1.
         13    1    4    4    0    0  0.46170779886E+00  0.19719511364E+00  0.20786305720E+01  0.21410112318E+01  0.10566000000E+00 0.  1.
        -13    1    4    4    0    0  0.15197824720E+02  0.32520358668E+01  0.65888213079E+02  0.67696509513E+02  0.10566000000E+00 0.  1.
         14    1    4    4    0    0  0.23072370410E+02  0.63943247078E+01  0.95617272154E+02  0.98569185849E+02  0.00000000000E+00 0. -1.
<mgrwt>
<rscale>  0 0.79978233E+02</rscale>
<asrwt>0</asrwt>
<pdfrwt beam="1">  1        2 0.50711709E-01 0.79978233E+02</pdfrwt>
<pdfrwt beam="2">  1       -1 0.74636053E-03 0.79978233E+02</pdfrwt>
<totfact> 0.26395168E+05</totfact>
</mgrwt>
</event>
<event>
 8    1  0.1226832E-024  0.7847125E+02  0.7818608E-02  0.1333447E+00
          2   -1    0    0  501    0  0.00000000000E+00  0.00000000000E+00  0.14255377167E+02  0.14255377396E+02  0.25500000000E-02 0. -1.
         -1   -1    0    0    0  501 -0.00000000000E+00 -0.00000000000E+00 -0.10798971517E+03  0.10798971529E+03  0.50400000000E-02 0.  1.
         24    2    1    2    0    0 -0.17763568394E-14  0.00000000000E+00 -0.93734338007E+02  0.12224509269E+03  0.78471246738E+02 0.  0.
         66    2    3    3    0    0 -0.85033724782E+01  0.30685681124E+02 -0.11253751438E+02  0.33831424659E+02  0.20000008609E+01 0.  0.
        -13    1    3    3    0    0  0.85033724782E+01 -0.30685681124E+02 -0.82480586569E+02  0.88413668029E+02  0.10566000000E+00 0.  1.
         13    1    4    4    0    0 -0.11177398362E+01  0.47255929066E+01 -0.20788250702E+01  0.52832990043E+01  0.10566000000E+00 0. -1.
        -13    1    4    4    0    0 -0.11575934254E+01  0.25664908122E+01 -0.11669912324E+01  0.30495786922E+01  0.10566000000E+00 0.  1.
        -14    1    4    4    0    0 -0.62280392166E+01  0.23393597405E+02 -0.80079351353E+01  0.25498546962E+02  0.00000000000E+00 0.  1.
<mgrwt>
<rscale>  0 0.78471247E+02</rscale>
<asrwt>0</asrwt>
<pdfrwt beam="1">  1        2 0.21931350E-02 0.78471247E+02</pdfrwt>
<pdfrwt beam="2">  1       -1 0.16613802E-01 0.78471247E+02</pdfrwt>
<totfact> 0.12233053E+05</totfact>
</mgrwt>
</event>
<event>
 8    1  0.1226832E-024  0.7745794E+02  0.7818608E-02  0.1336424E+00
          2   -1    0    0  501    0  0.00000000000E+00  0.00000000000E+00  0.19658534910E+03  0.19658534912E+03  0.25500000000E-02 0. -1.
         -1   -1    0    0    0  501 -0.00000000000E+00 -0.00000000000E+00 -0.76299328677E+01  0.76299345323E+01  0.50400000000E-02 0.  1.
         24    2    1    2    0    0  0.00000000000E+00  0.00000000000E+00  0.18895541624E+03  0.20421528365E+03  0.77457941829E+02 0.  0.
         66    2    3    3    0    0  0.49339234648E+01  0.35672210750E+02  0.13192614291E+03  0.13676753054E+03  0.20000012046E+01 0.  0.
        -13    1    3    3    0    0 -0.49339234648E+01 -0.35672210750E+02  0.57029273323E+02  0.67447753115E+02  0.10566000000E+00 0.  1.
         13    1    4    4    0    0  0.16045820113E+01  0.12073001594E+02  0.45344389801E+02  0.46951644288E+02  0.10566000000E+00 0. -1.
        -13    1    4    4    0    0  0.72041373490E+00  0.93892041212E+01  0.32381227174E+02  0.33722858528E+02  0.10566000000E+00 0.  1.
        -14    1    4    4    0    0  0.26089277185E+01  0.14210005034E+02  0.54200525939E+02  0.56093027721E+02  0.00000000000E+00 0.  1.
<mgrwt>
<rscale>  0 0.77457942E+02</rscale>
<asrwt>0</asrwt>
<pdfrwt beam="1">  1        2 0.30243900E-01 0.77457942E+02</pdfrwt>
<pdfrwt beam="2">  1       -1 0.11738360E-02 0.77457942E+02</pdfrwt>
<totfact> 0.23874720E+05</totfact>
</mgrwt>
</event>
<event>
 8    1  0.1226832E-024  0.8099907E+02  0.7818608E-02  0.1326240E+00
          2   -1    0    0  501    0  0.00000000000E+00  0.00000000000E+00  0.38946435913E+02  0.38946435997E+02  0.25500000000E-02 0. -1.
         -1   -1    0    0    0  501 -0.00000000000E+00 -0.00000000000E+00 -0.42114568244E+02  0.42114568545E+02  0.50400000000E-02 0.  1.
         24    2    1    2    0    0 -0.35527136788E-14 -0.88817841970E-15 -0.31681323305E+01  0.81061004542E+02  0.80999070333E+02 0.  0.
         66    2    3    3    0    0 -0.21063377480E+02 -0.65291796554E+01  0.32380741089E+02  0.39227649151E+02  0.20000016436E+01 0.  0.
        -13    1    3    3    0    0  0.21063377480E+02  0.65291796554E+01 -0.35548873420E+02  0.41833355391E+02  0.10566000000E+00 0.  1.
         13    1    4    4    0    0 -0.19969150444E+01 -0.73667007180E+00  0.36642416826E+01  0.42388894339E+01  0.10566000000E+00 0. -1.
        -13    1    4    4    0    0 -0.74968606835E+00 -0.17506095552E+00  0.68747543059E+00  0.10375268876E+01  0.10566000000E+00 0.  1.
         14    1    4    4    0    0 -0.18316776367E+02 -0.56174486281E+01  0.28029023976E+02  0.33951232829E+02  0.00000000000E+00 0. -1.
<mgrwt>
<rscale>  0 0.80999070E+02</rscale>
<asrwt>0</asrwt>
<pdfrwt beam="1">  1        2 0.59917594E-02 0.80999070E+02</pdfrwt>
<pdfrwt beam="2">  1       -1 0.64791644E-02 0.80999070E+02</pdfrwt>
<totfact> 0.13698222E+05</totfact>
</mgrwt>
</event>
<event>
 8    1  0.1226832E-024  0.8115136E+02  0.7818608E-02  0.1325815E+00
         -1   -1    0    0    0  501 -0.00000000000E+00  0.00000000000E+00  0.66621769321E+01  0.66621788385E+01  0.50400000000E-02 0.  1.
          2   -1    0    0  501    0  0.00000000000E+00 -0.00000000000E+00 -0.24712428683E+03  0.24712428684E+03  0.25500000000E-02 0. -1.
         24    2    1    2    0    0  0.00000000000E+00 -0.44408920985E-15 -0.24046210990E+03  0.25378646568E+03  0.81151363923E+02 0.  0.
         66    2    3    3    0    0 -0.17973819614E+02  0.27597643765E+01 -0.23365395241E+03  0.23436903374E+03  0.20000014366E+01 0.  0.
        -13    1    3    3    0    0  0.17973819614E+02 -0.27597643765E+01 -0.68081574847E+01  0.19417431944E+02  0.10566000000E+00 0.  1.
         13    1    4    4    0    0 -0.35241785444E+01  0.20046215437E+00 -0.39793971508E+02  0.39950361098E+02  0.10566000000E+00 0. -1.
        -13    1    4    4    0    0 -0.43217284708E+01  0.79576788336E+00 -0.65859499885E+02  0.66006026033E+02  0.10566000000E+00 0.  1.
         14    1    4    4    0    0 -0.10127912599E+02  0.17635343387E+01 -0.12800048102E+03  0.12841264660E+03  0.00000000000E+00 0. -1.
<mgrwt>
<rscale>  0 0.81151364E+02</rscale>
<asrwt>0</asrwt>
<pdfrwt beam="1">  1        2 0.38019114E-01 0.81151364E+02</pdfrwt>
<pdfrwt beam="2">  1       -1 0.10249506E-02 0.81151364E+02</pdfrwt>
<totfact> 0.22892544E+05</totfact>
</mgrwt>
</event>
<event>
 8    1  0.1226832E-024  0.7814280E+02  0.7818608E-02  0.1334406E+00
         -1   -1    0    0    0  501 -0.00000000000E+00  0.00000000000E+00  0.19884098035E+02  0.19884098674E+02  0.50400000000E-02 0.  1.
          2   -1    0    0  501    0  0.00000000000E+00 -0.00000000000E+00 -0.76773632088E+02  0.76773632130E+02  0.25500000000E-02 0. -1.
         24    2    1    2    0    0  0.00000000000E+00  0.00000000000E+00 -0.56889534053E+02  0.96657730804E+02  0.78142804143E+02 0.  0.
         66    2    3    3    0    0 -0.22499994560E+02 -0.44449412861E+01 -0.67550603750E+02  0.71365897550E+02  0.20000019650E+01 0.  0.
        -13    1    3    3    0    0  0.22499994560E+02  0.44449412861E+01  0.10661069697E+02  0.25291833254E+02  0.10566000000E+00 0.  1.
         13    1    4    4    0    0 -0.15048931757E+02 -0.24556663969E+01 -0.43003577655E+02  0.45626960228E+02  0.10566000000E+00 0. -1.
        -13    1    4    4    0    0 -0.71331370947E+01 -0.19162604416E+01 -0.23880616626E+02  0.24996974084E+02  0.10566000000E+00 0.  1.
         14    1    4    4    0    0 -0.31792570891E+00 -0.73014447691E-01 -0.66640946941E+00  0.74196323823E+00  0.00000000000E+00 0. -1.
<mgrwt>
<rscale>  0 0.78142804E+02</rscale>
<asrwt>0</asrwt>
<pdfrwt beam="1">  1        2 0.11811328E-01 0.78142804E+02</pdfrwt>
<pdfrwt beam="2">  1       -1 0.30590921E-02 0.78142804E+02</pdfrwt>
<totfact> 0.17601125E+05</totfact>
</mgrwt>
</event>
<event>
 8    1  0.1226832E-024  0.7973943E+02  0.7818608E-02  0.1329793E+00
          2   -1    0    0  501    0  0.00000000000E+00  0.00000000000E+00  0.13896057257E+03  0.13896057260E+03  0.25500000000E-02 0. -1.
         -1   -1    0    0    0  501 -0.00000000000E+00 -0.00000000000E+00 -0.11439172081E+02  0.11439173192E+02  0.50400000000E-02 0.  1.
         24    2    1    2    0    0  0.00000000000E+00 -0.35527136788E-14  0.12752140049E+03  0.15039974579E+03  0.79739425316E+02 0.  0.
         66    2    3    3    0    0 -0.32034895537E+01 -0.30438814200E+02  0.11191780947E+03  0.11604473200E+03  0.19999987042E+01 0.  0.
        -13    1    3    3    0    0  0.32034895537E+01  0.30438814200E+02  0.15603591026E+02  0.34355013785E+02  0.10566000000E+00 0.  1.
         13    1    4    4    0    0 -0.13893300398E+01 -0.96907109805E+01  0.36815728150E+02  0.38095263755E+02  0.10566000000E+00 0. -1.
        -13    1    4    4    0    0 -0.15040818386E+01 -0.99938126073E+01  0.37589325578E+02  0.38924376861E+02  0.10566000000E+00 0.  1.
         14    1    4    4    0    0 -0.31007767530E+00 -0.10754290613E+02  0.37512755737E+02  0.39025091386E+02  0.00000000000E+00 0. -1.
<mgrwt>
<rscale>  0 0.79739425E+02</rscale>
<asrwt>0</asrwt>
<pdfrwt beam="1">  1        2 0.21378550E-01 0.79739425E+02</pdfrwt>
<pdfrwt beam="2">  1       -1 0.17598727E-02 0.79739425E+02</pdfrwt>
<totfact> 0.19718376E+05</totfact>
</mgrwt>
</event>
<event>
 8    1  0.1226832E-024  0.8016117E+02  0.7818608E-02  0.1328595E+00
         -1   -1    0    0    0  501 -0.00000000000E+00  0.00000000000E+00  0.10862080776E+02  0.10862081946E+02  0.50400000000E-02 0.  1.
          2   -1    0    0  501    0  0.00000000000E+00 -0.00000000000E+00 -0.14789554078E+03  0.14789554080E+03  0.25500000000E-02 0. -1.
         24    2    1    2    0    0  0.00000000000E+00  0.00000000000E+00 -0.13703346000E+03  0.15875762274E+03  0.80161172769E+02 0.  0.
         66    2    3    3    0    0  0.19739136553E+02  0.19759810209E+02 -0.12542232528E+03  0.12851009020E+03  0.19999985781E+01 0.  0.
        -13    1    3    3    0    0 -0.19739136553E+02 -0.19759810209E+02 -0.11611134724E+02  0.30247532543E+02  0.10566000000E+00 0.  1.
         13    1    4    4    0    0  0.81850185560E+01  0.85152001859E+01 -0.50333846143E+02  0.51701164345E+02  0.10566000000E+00 0.  1.
        -13    1    4    4    0    0  0.71726200260E+01  0.70179177286E+01 -0.49385954492E+02  0.50395250891E+02  0.10566000000E+00 0. -1.
        -14    1    4    4    0    0  0.43814979705E+01  0.42266922944E+01 -0.25702524641E+02  0.26413674965E+02  0.00000000000E+00 0.  1.
<mgrwt>
<rscale>  0 0.80161173E+02</rscale>
<asrwt>0</asrwt>
<pdfrwt beam="1">  1        2 0.22753159E-01 0.80161173E+02</pdfrwt>
<pdfrwt beam="2">  1       -1 0.16710896E-02 0.80161173E+02</pdfrwt>
<totfact> 0.19832977E+05</totfact>
</mgrwt>
</event>
<event>
 8    1  0.1226832E-024  0.7810997E+02  0.7818608E-02  0.1334502E+00
         -1   -1    0    0    0  501 -0.00000000000E+00  0.00000000000E+00  0.43843877485E+03  0.43843877488E+03  0.50400000000E-02 0.  1.
          2   -1    0    0  501    0  0.00000000000E+00 -0.00000000000E+00 -0.34789156496E+01  0.34789165841E+01  0.25500000000E-02 0. -1.
         24    2    1    2    0    0  0.00000000000E+00  0.00000000000E+00  0.43495985920E+03  0.44191769146E+03  0.78109966793E+02 0.  0.
         66    2    3    3    0    0 -0.32241186673E+02  0.17760247143E+02  0.29103334762E+03  0.29335870521E+03  0.19999997844E+01 0.  0.
        -13    1    3    3    0    0  0.32241186673E+02 -0.17760247143E+02  0.14392651158E+03  0.14855898625E+03  0.10566000000E+00 0.  1.
         13    1    4    4    0    0 -0.23480658309E+02  0.13690283461E+02  0.21816417302E+03  0.21985081926E+03  0.10566000000E+00 0. -1.
        -13    1    4    4    0    0 -0.71146943563E+01  0.34655054196E+01  0.60113977061E+02  0.60632746975E+02  0.10566000000E+00 0.  1.
        -14    1    4    4    0    0 -0.16458340083E+01  0.60445826212E+00  0.12755197541E+02  0.12875138977E+02  0.00000000000E+00 0.  1.
<mgrwt>
<rscale>  0 0.78109967E+02</rscale>
<asrwt>0</asrwt>
<pdfrwt beam="1">  1        2 0.53521830E-03 0.78109967E+02</pdfrwt>
<pdfrwt beam="2">  1       -1 0.67452065E-01 0.78109967E+02</pdfrwt>
<totfact> 0.76748545E+04</totfact>
</mgrwt>
</event>
<event>
 8    1  0.1226832E-024  0.8198529E+02  0.7818608E-02  0.1323510E+00
          2   -1    0    0  501    0  0.00000000000E+00  0.00000000000E+00  0.15221878989E+03  0.15221878991E+03  0.25500000000E-02 0. -1.
         -1   -1    0    0    0  501 -0.00000000000E+00 -0.00000000000E+00 -0.11039351529E+02  0.11039352679E+02  0.50400000000E-02 0.  1.
         24    2    1    2    0    0  0.00000000000E+00  0.00000000000E+00  0.14117943836E+03  0.16325814259E+03  0.81985287131E+02 0.  0.
         66    2    3    3    0    0 -0.16212265720E+02 -0.87083419432E+01  0.14351789162E+03  0.14470680013E+03  0.20000022005E+01 0.  0.
        -13    1    3    3    0    0  0.16212265720E+02  0.87083419432E+01 -0.23384532673E+01  0.18551342455E+02  0.10566000000E+00 0.  1.
         13    1    4    4    0    0 -0.12171835219E+02 -0.59333162806E+01  0.10611158293E+03  0.10697213194E+03  0.10566000000E+00 0. -1.
        -13    1    4    4    0    0 -0.37258307600E+01 -0.26747524999E+01  0.33209283734E+02  0.33524674584E+02  0.10566000000E+00 0.  1.
         14    1    4    4    0    0 -0.31459974077E+00 -0.10027316269E+00  0.41970249578E+01  0.42099936105E+01  0.00000000000E+00 0. -1.
<mgrwt>
<rscale>  0 0.81985287E+02</rscale>
<asrwt>0</asrwt>
<pdfrwt beam="1">  1        2 0.23418273E-01 0.81985287E+02</pdfrwt>
<pdfrwt beam="2">  1       -1 0.16983620E-02 0.81985287E+02</pdfrwt>
<totfact> 0.18856567E+05</totfact>
</mgrwt>
</event>
<event>
 8    1  0.1226832E-024  0.8000877E+02  0.7818608E-02  0.1329027E+00
         -1   -1    0    0    0  501 -0.00000000000E+00  0.00000000000E+00  0.96541948504E+02  0.96541948636E+02  0.50400000000E-02 0.  1.
          2   -1    0    0  501    0  0.00000000000E+00 -0.00000000000E+00 -0.16576740623E+02  0.16576740819E+02  0.25500000000E-02 0. -1.
         24    2    1    2    0    0  0.00000000000E+00 -0.71054273576E-14  0.79965207882E+02  0.11311868945E+03  0.80008770972E+02 0.  0.
         66    2    3    3    0    0  0.63902329016E+01 -0.34226126346E+02  0.12227203276E+02  0.36956289064E+02  0.20000000612E+01 0.  0.
        -13    1    3    3    0    0 -0.63902329016E+01  0.34226126346E+02  0.67738004606E+02  0.76162400390E+02  0.10566000000E+00 0.  1.
         13    1    4    4    0    0  0.24074136589E+01 -0.14951818555E+02  0.58283863906E+01  0.16227562065E+02  0.10566000000E+00 0.  1.
        -13    1    4    4    0    0  0.80656453965E+00 -0.25180531143E+01  0.11440649716E+01  0.28829128564E+01  0.10566000000E+00 0. -1.
        -14    1    4    4    0    0  0.31762547030E+01 -0.16756254677E+02  0.52547519138E+01  0.17845814143E+02  0.00000000000E+00 0.  1.
<mgrwt>
<rscale>  0 0.80008771E+02</rscale>
<asrwt>0</asrwt>
<pdfrwt beam="1">  1        2 0.25502678E-02 0.80008771E+02</pdfrwt>
<pdfrwt beam="2">  1       -1 0.14852608E-01 0.80008771E+02</pdfrwt>
<totfact> 0.11938983E+05</totfact>
</mgrwt>
</event>
<event>
 8    1  0.1226832E-024  0.8052127E+02  0.7818608E-02  0.1327579E+00
          2   -1    0    0  501    0  0.00000000000E+00  0.00000000000E+00  0.10613733088E+04  0.10613733088E+04  0.25500000000E-02 0. -1.
         -1   -1    0    0    0  501 -0.00000000000E+00 -0.00000000000E+00 -0.15271858753E+01  0.15271941918E+01  0.50400000000E-02 0.  1.
         24    2    1    2    0    0 -0.17763568394E-14  0.00000000000E+00  0.10598461229E+04  0.10629005030E+04  0.80521270408E+02 0.  0.
         66    2    3    3    0    0 -0.80393724332E+01  0.80859451878E+01  0.10395972162E+04  0.10396616690E+04  0.20000007082E+01 0.  0.
        -13    1    3    3    0    0  0.80393724332E+01 -0.80859451878E+01  0.20248906733E+02  0.23238834020E+02  0.10566000000E+00 0.  1.
         13    1    4    4    0    0 -0.10325840393E+01  0.61689513932E+00  0.80490462374E+02  0.80499518549E+02  0.10566000000E+00 0. -1.
        -13    1    4    4    0    0 -0.22779964748E-01  0.20447423365E+00  0.21304565643E+02  0.21305821033E+02  0.10566000000E+00 0.  1.
         14    1    4    4    0    0 -0.69840084291E+01  0.72645758149E+01  0.93780218816E+03  0.93785632938E+03  0.00000000000E+00 0. -1.
<mgrwt>
<rscale>  0 0.80521270E+02</rscale>
<asrwt>0</asrwt>
<pdfrwt beam="1">  1        2 0.16328833E+00 0.80521270E+02</pdfrwt>
<pdfrwt beam="2">  1       -1 0.23495212E-03 0.80521270E+02</pdfrwt>
<totfact> 0.34683306E+05</totfact>
</mgrwt>
</event>
<event>
 8    1  0.1226832E-024  0.7634493E+02  0.7818608E-02  0.1339756E+00
         -1   -1    0    0    0  501 -0.00000000000E+00  0.00000000000E+00  0.31642173564E+02  0.31642173966E+02  0.50400000000E-02 0.  1.
          2   -1    0    0  501    0  0.00000000000E+00 -0.00000000000E+00 -0.46050475336E+02  0.46050475407E+02  0.25500000000E-02 0. -1.
         24    2    1    2    0    0  0.00000000000E+00  0.17763568394E-14 -0.14408301772E+02  0.77692649373E+02  0.76344931768E+02 0.  0.
         66    2    3    3    0    0  0.21586372033E+02 -0.12785128053E+02 -0.36451359189E+02  0.44295965388E+02  0.20000015084E+01 0.  0.
        -13    1    3    3    0    0 -0.21586372033E+02  0.12785128053E+02  0.22043057417E+02  0.33396683985E+02  0.10566000000E+00 0.  1.
         13    1    4    4    0    0  0.10521524712E+02 -0.60519074028E+01 -0.17737502436E+02  0.21493213398E+02  0.10566000000E+00 0. -1.
        -13    1    4    4    0    0  0.18256574262E+01 -0.17496042213E+01 -0.37253520134E+01  0.45037264158E+01  0.10566000000E+00 0.  1.
         14    1    4    4    0    0  0.92391898940E+01 -0.49836164289E+01 -0.14988504740E+02  0.18299025573E+02  0.00000000000E+00 0. -1.
<mgrwt>
<rscale>  0 0.76344932E+02</rscale>
<asrwt>0</asrwt>
<pdfrwt beam="1">  1        2 0.70846886E-02 0.76344932E+02</pdfrwt>
<pdfrwt beam="2">  1       -1 0.48680267E-02 0.76344932E+02</pdfrwt>
<totfact> 0.16686878E+05</totfact>
</mgrwt>
</event>
<event>
 8    1  0.1226832E-024  0.8067062E+02  0.7818608E-02  0.1327159E+00
          2   -1    0    0  501    0  0.00000000000E+00  0.00000000000E+00  0.18882583091E+04  0.18882583091E+04  0.25500000000E-02 0. -1.
         -1   -1    0    0    0  501 -0.00000000000E+00 -0.00000000000E+00 -0.86159989689E+00  0.86161463771E+00  0.50400000000E-02 0.  1.
         24    2    1    2    0    0  0.00000000000E+00  0.17763568394E-14  0.18873967092E+04  0.18891199238E+04  0.80670616451E+02 0.  0.
         66    2    3    3    0    0 -0.26681404648E+01 -0.14663337809E+02  0.18213623804E+04  0.18214244572E+04  0.20000006502E+01 0.  0.
        -13    1    3    3    0    0  0.26681404648E+01  0.14663337809E+02  0.66034328836E+02  0.67695466600E+02  0.10566000000E+00 0.  1.
         13    1    4    4    0    0 -0.19769116567E+01 -0.60422455651E+01  0.79792294690E+03  0.79794827981E+03  0.10566000000E+00 0. -1.
        -13    1    4    4    0    0 -0.22547023234E+00 -0.57898931268E+01  0.70484661242E+03  0.70487043625E+03  0.10566000000E+00 0.  1.
         14    1    4    4    0    0 -0.46575857573E+00 -0.28311991170E+01  0.31859282107E+03  0.31860574109E+03  0.00000000000E+00 0. -1.
<mgrwt>
<rscale>  0 0.80670616E+02</rscale>
<asrwt>0</asrwt>
<pdfrwt beam="1">  1        2 0.29049891E+00 0.80670616E+02</pdfrwt>
<pdfrwt beam="2">  1       -1 0.13255605E-03 0.80670616E+02</pdfrwt>
<totfact> 0.28538603E+05</totfact>
</mgrwt>
</event>
<event>
 8    1  0.1226832E-024  0.7802001E+02  0.7818608E-02  0.1334766E+00
         -1   -1    0    0    0  501 -0.00000000000E+00  0.00000000000E+00  0.18173754787E+02  0.18173755486E+02  0.50400000000E-02 0.  1.
          2   -1    0    0  501    0  0.00000000000E+00 -0.00000000000E+00 -0.83735069432E+02  0.83735069470E+02  0.25500000000E-02 0. -1.
         24    2    1    2    0    0  0.22204460493E-15 -0.71054273576E-14 -0.65561314644E+02  0.10190882496E+03  0.78020014267E+02 0.  0.
         66    2    3    3    0    0  0.19954120825E+01 -0.27278464057E+02 -0.69086896758E+02  0.74330986681E+02  0.20000016359E+01 0.  0.
        -13    1    3    3    0    0 -0.19954120825E+01  0.27278464057E+02  0.35255821141E+01  0.27577838276E+02  0.10566000000E+00 0.  1.
         13    1    4    4    0    0  0.98486126531E+00 -0.68640162217E+01 -0.16618755563E+02  0.18007744748E+02  0.10566000000E+00 0. -1.
        -13    1    4    4    0    0  0.16453020213E+00 -0.60811018510E+00 -0.20674214379E+01  0.21638538819E+01  0.10566000000E+00 0.  1.
         14    1    4    4    0    0  0.84602061504E+00 -0.19806337650E+02 -0.50400719758E+02  0.54159388051E+02  0.00000000000E+00 0. -1.
<mgrwt>
<rscale>  0 0.78020014E+02</rscale>
<asrwt>0</asrwt>
<pdfrwt beam="1">  1        2 0.12882318E-01 0.78020014E+02</pdfrwt>
<pdfrwt beam="2">  1       -1 0.27959624E-02 0.78020014E+02</pdfrwt>
<totfact> 0.18071413E+05</totfact>
</mgrwt>
</event>
<event>
 8    1  0.1226832E-024  0.7818014E+02  0.7818608E-02  0.1334297E+00
          2   -1    0    0  501    0  0.00000000000E+00  0.00000000000E+00  0.32312317232E+03  0.32312317233E+03  0.25500000000E-02 0. -1.
         -1   -1    0    0    0  501 -0.00000000000E+00 -0.00000000000E+00 -0.47289491944E+01  0.47289518802E+01  0.50400000000E-02 0.  1.
         24    2    1    2    0    0  0.17763568394E-14  0.00000000000E+00  0.31839422313E+03  0.32785212421E+03  0.78180138331E+02 0.  0.
         66    2    3    3    0    0  0.13762539739E+02 -0.47359639703E+01  0.31132457647E+03  0.31167102652E+03  0.19999996141E+01 0.  0.
        -13    1    3    3    0    0 -0.13762539739E+02  0.47359639703E+01  0.70696466535E+01  0.16181097695E+02  0.10566000000E+00 0.  1.
         13    1    4    4    0    0  0.27920520902E+01 -0.27176904437E+00  0.64445508086E+02  0.64506620511E+02  0.10566000000E+00 0. -1.
        -13    1    4    4    0    0  0.67676203064E+01 -0.28822635481E+01  0.14527763209E+03  0.14546377446E+03  0.10566000000E+00 0.  1.
         14    1    4    4    0    0  0.42028673421E+01 -0.15819313778E+01  0.10160143629E+03  0.10170063155E+03  0.00000000000E+00 0. -1.
<mgrwt>
<rscale>  0 0.78180138E+02</rscale>
<asrwt>0</asrwt>
<pdfrwt beam="1">  1        2 0.49711275E-01 0.78180138E+02</pdfrwt>
<pdfrwt beam="2">  1       -1 0.72753060E-03 0.78180138E+02</pdfrwt>
<totfact> 0.27812755E+05</totfact>
</mgrwt>
</event>
<event>
 8    1  0.1226832E-024  0.7894532E+02  0.7818608E-02  0.1332071E+00
         -1   -1    0    0    0  501 -0.00000000000E+00  0.00000000000E+00  0.25684426433E+03  0.25684426437E+03  0.50400000000E-02 0.  1.
          2   -1    0    0  501    0  0.00000000000E+00 -0.00000000000E+00 -0.60662860505E+01  0.60662865865E+01  0.25500000000E-02 0. -1.
         24    2    1    2    0    0  0.00000000000E+00  0.00000000000E+00  0.25077797827E+03  0.26291055096E+03  0.78945319172E+02 0.  0.
         66    2    3    3    0    0  0.31413056449E+01 -0.38982229841E+02  0.14264650620E+03  0.14792399322E+03  0.19999984743E+01 0.  0.
        -13    1    3    3    0    0 -0.31413056449E+01  0.38982229841E+02  0.10813147208E+03  0.11498655774E+03  0.10566000000E+00 0.  1.
         13    1    4    4    0    0  0.61614475837E+00 -0.11119123270E+02  0.41780071438E+02  0.43238872211E+02  0.10566000000E+00 0. -1.
        -13    1    4    4    0    0  0.81047944332E-01 -0.35947745020E+00  0.97467543242E+00  0.10473533504E+01  0.10566000000E+00 0.  1.
         14    1    4    4    0    0  0.24441129422E+01 -0.27503629121E+02  0.99891759329E+02  0.10363776766E+03  0.00000000000E+00 0. -1.
<mgrwt>
<rscale>  0 0.78945319E+02</rscale>
<asrwt>0</asrwt>
<pdfrwt beam="1">  1        2 0.93327462E-03 0.78945319E+02</pdfrwt>
<pdfrwt beam="2">  1       -1 0.39514511E-01 0.78945319E+02</pdfrwt>
<totfact> 0.94886899E+04</totfact>
</mgrwt>
</event>
<event>
 8    1  0.1226832E-024  0.8063895E+02  0.7818608E-02  0.1327248E+00
          2   -1    0    0  501    0  0.00000000000E+00  0.00000000000E+00  0.12572273242E+02  0.12572273500E+02  0.25500000000E-02 0. -1.
         -1   -1    0    0    0  501 -0.00000000000E+00 -0.00000000000E+00 -0.12930519421E+03  0.12930519431E+03  0.50400000000E-02 0.  1.
         24    2    1    2    0    0  0.00000000000E+00  0.71054273576E-14 -0.11673292097E+03  0.14187746781E+03  0.80638954818E+02 0.  0.
         66    2    3    3    0    0 -0.87600172000E+01 -0.39300630555E+02 -0.55689210466E+02  0.68750022761E+02  0.20000009954E+01 0.  0.
        -13    1    3    3    0    0  0.87600172000E+01  0.39300630555E+02 -0.61043710503E+02  0.73127445049E+02  0.10566000000E+00 0.  1.
         13    1    4    4    0    0 -0.51862670964E+01 -0.22531272648E+02 -0.30927550960E+02  0.38614507455E+02  0.10566000000E+00 0. -1.
        -13    1    4    4    0    0 -0.24133644601E+01 -0.89575592321E+01 -0.13516473220E+02  0.16394157732E+02  0.10566000000E+00 0.  1.
         14    1    4    4    0    0 -0.11603856436E+01 -0.78117986749E+01 -0.11245186286E+02  0.13741357575E+02  0.00000000000E+00 0. -1.
<mgrwt>
<rscale>  0 0.80638955E+02</rscale>
<asrwt>0</asrwt>
<pdfrwt beam="1">  1        2 0.19341960E-02 0.80638955E+02</pdfrwt>
<pdfrwt beam="2">  1       -1 0.19893106E-01 0.80638955E+02</pdfrwt>
<totfact> 0.10966267E+05</totfact>
</mgrwt>
</event>
<event>
 8    1  0.1226832E-024  0.7993793E+02  0.7818608E-02  0.1329228E+00
         -1   -1    0    0    0  501 -0.00000000000E+00  0.00000000000E+00  0.43939452588E+02  0.43939452877E+02  0.50400000000E-02 0.  1.
          2   -1    0    0  501    0  0.00000000000E+00 -0.00000000000E+00 -0.36357261597E+02  0.36357261686E+02  0.25500000000E-02 0. -1.
         24    2    1    2    0    0  0.22204460493E-15 -0.71054273576E-14  0.75821909906E+01  0.80296714563E+02  0.79937930605E+02 0.  0.
         66    2    3    3    0    0  0.16202464992E+01 -0.39584056269E+02 -0.13275093691E+01  0.39689860044E+02  0.19999999399E+01 0.  0.
        -13    1    3    3    0    0 -0.16202464992E+01  0.39584056269E+02  0.89097003597E+01  0.40606854519E+02  0.10566000000E+00 0.  1.
         13    1    4    4    0    0  0.11669772541E+01 -0.12679159621E+02 -0.42302861167E+00  0.12740213571E+02  0.10566000000E+00 0. -1.
        -13    1    4    4    0    0  0.66064958933E+00 -0.19198451088E+02 -0.10534986396E+01  0.19238971009E+02  0.10566000000E+00 0.  1.
         14    1    4    4    0    0 -0.20738034418E+00 -0.77064455599E+01  0.14901788213E+00  0.77106754636E+01  0.00000000000E+00 0. -1.
<mgrwt>
<rscale>  0 0.79937931E+02</rscale>
<asrwt>0</asrwt>
<pdfrwt beam="1">  1        2 0.55934249E-02 0.79937931E+02</pdfrwt>
<pdfrwt beam="2">  1       -1 0.67599158E-02 0.79937931E+02</pdfrwt>
<totfact> 0.14010829E+05</totfact>
</mgrwt>
</event>
<event>
 8    1  0.1226832E-024  0.7606931E+02  0.7818608E-02  0.1340591E+00
          2   -1    0    0  501    0  0.00000000000E+00  0.00000000000E+00  0.22762684532E+03  0.22762684534E+03  0.25500000000E-02 0. -1.
         -1   -1    0    0    0  501 -0.00000000000E+00 -0.00000000000E+00 -0.63552900836E+01  0.63552920820E+01  0.50400000000E-02 0.  1.
         24    2    1    2    0    0  0.00000000000E+00  0.17763568394E-14  0.22127155524E+03  0.23398213742E+03  0.76069307038E+02 0.  0.
         66    2    3    3    0    0  0.25884694085E+02 -0.95221139405E+01  0.19115404192E+03  0.19314387332E+03  0.20000046087E+01 0.  0.
        -13    1    3    3    0    0 -0.25884694085E+02  0.95221139405E+01  0.30117513319E+02  0.40838264095E+02  0.10566000000E+00 0.  1.
         13    1    4    4    0    0  0.97010697080E+01 -0.35815612299E+01  0.70422495902E+02  0.71177787458E+02  0.10566000000E+00 0. -1.
        -13    1    4    4    0    0  0.92501605376E+00  0.90192711643E-02  0.67897470596E+01  0.68532886424E+01  0.10566000000E+00 0.  1.
        -14    1    4    4    0    0  0.15258608323E+02 -0.59495719818E+01  0.11394179896E+03  0.11511279722E+03  0.00000000000E+00 0.  1.
<mgrwt>
<rscale>  0 0.76069307E+02</rscale>
<asrwt>0</asrwt>
<pdfrwt beam="1">  1        2 0.35019515E-01 0.76069307E+02</pdfrwt>
<pdfrwt beam="2">  1       -1 0.97773709E-03 0.76069307E+02</pdfrwt>
<totfact> 0.26349311E+05</totfact>
</mgrwt>
</event>
<event>
 8    1  0.1226832E-024  0.8027657E+02  0.7818608E-02  0.1328268E+00
         -1   -1    0    0    0  501 -0.00000000000E+00  0.00000000000E+00  0.24581257837E+02  0.24581258354E+02  0.50400000000E-02 0.  1.
          2   -1    0    0  501    0  0.00000000000E+00 -0.00000000000E+00 -0.65541069191E+02  0.65541069240E+02  0.25500000000E-02 0. -1.
         24    2    1    2    0    0  0.00000000000E+00  0.00000000000E+00 -0.40959811354E+02  0.90122327594E+02  0.80276570584E+02 0.  0.
         66    2    3    3    0    0  0.24536561813E+02 -0.87915831249E+01 -0.54723997467E+02  0.60646934757E+02  0.19999993181E+01 0.  0.
        -13    1    3    3    0    0 -0.24536561813E+02  0.87915831249E+01  0.13764186113E+02  0.29475392836E+02  0.10566000000E+00 0.  1.
         13    1    4    4    0    0  0.21773356265E+01 -0.67046597288E+00 -0.38365683295E+01  0.44632651315E+01  0.10566000000E+00 0. -1.
        -13    1    4    4    0    0  0.53291821879E+01 -0.23739640892E+01 -0.12955871721E+02  0.14209210547E+02  0.10566000000E+00 0.  1.
         14    1    4    4    0    0  0.17030043999E+02 -0.57471530628E+01 -0.37931557416E+02  0.41974459079E+02  0.00000000000E+00 0. -1.
<mgrwt>
<rscale>  0 0.80276571E+02</rscale>
<asrwt>0</asrwt>
<pdfrwt beam="1">  1        2 0.10083241E-01 0.80276571E+02</pdfrwt>
<pdfrwt beam="2">  1       -1 0.37817321E-02 0.80276571E+02</pdfrwt>
<totfact> 0.15744021E+05</totfact>
</mgrwt>
</event>
<event>
 8    1  0.1226832E-024  0.8144482E+02  0.7818608E-02  0.1325001E+00
          2   -1    0    0  501    0  0.00000000000E+00  0.00000000000E+00  0.26600279164E+02  0.26600279286E+02  0.25500000000E-02 0. -1.
         -1   -1    0    0    0  501 -0.00000000000E+00 -0.00000000000E+00 -0.62342008112E+02  0.62342008316E+02  0.50400000000E-02 0.  1.
         24    2    1    2    0    0  0.71054273576E-14  0.22204460493E-15 -0.35741728948E+02  0.88942287602E+02  0.81444823873E+02 0.  0.
         66    2    3    3    0    0 -0.33073129528E+02 -0.11611155694E+01  0.79871997090E+01  0.34102425716E+02  0.19999985943E+01 0.  0.
        -13    1    3    3    0    0  0.33073129528E+02  0.11611155694E+01 -0.43728928657E+02  0.54839861886E+02  0.10566000000E+00 0.  1.
         13    1    4    4    0    0 -0.52257389966E+01 -0.60543465847E+00  0.12597853258E+01  0.54104641473E+01  0.10566000000E+00 0. -1.
        -13    1    4    4    0    0 -0.82082383457E+01  0.30938793756E+00  0.14994905973E+01  0.83504810474E+01  0.10566000000E+00 0.  1.
        -14    1    4    4    0    0 -0.19639152186E+02 -0.86506884850E+00  0.52279237859E+01  0.20341480521E+02  0.00000000000E+00 0.  1.
<mgrwt>
<rscale>  0 0.81444824E+02</rscale>
<asrwt>0</asrwt>
<pdfrwt beam="1">  1        2 0.40923507E-02 0.81444824E+02</pdfrwt>
<pdfrwt beam="2">  1       -1 0.95910782E-02 0.81444824E+02</pdfrwt>
<totfact> 0.12491977E+05</totfact>
</mgrwt>
</event>
<event>
 8    1  0.1226832E-024  0.8069727E+02  0.7818608E-02  0.1327084E+00
          2   -1    0    0  501    0  0.00000000000E+00  0.00000000000E+00  0.21141317583E+04  0.21141317583E+04  0.25500000000E-02 0. -1.
         -1   -1    0    0    0  501 -0.00000000000E+00 -0.00000000000E+00 -0.77005359667E+00  0.77007008989E+00  0.50400000000E-02 0.  1.
         24    2    1    2    0    0 -0.44408920985E-15  0.17763568394E-14  0.21133617047E+04  0.21149018284E+04  0.80697266539E+02 0.  0.
         66    2    3    3    0    0  0.19895298661E+01 -0.13836060343E+02  0.20485990716E+04  0.20486477371E+04  0.20000005264E+01 0.  0.
        -13    1    3    3    0    0 -0.19895298661E+01  0.13836060343E+02  0.64762633130E+02  0.66254091261E+02  0.10566000000E+00 0.  1.
         13    1    4    4    0    0  0.94721322916E+00 -0.28870161110E+01  0.37172797884E+03  0.37174041143E+03  0.10566000000E+00 0. -1.
        -13    1    4    4    0    0 -0.44224968451E-01 -0.26684062896E+01  0.39668646086E+03  0.39669545213E+03  0.10566000000E+00 0.  1.
         14    1    4    4    0    0  0.10865416054E+01 -0.82806379424E+01  0.12801846319E+04  0.12802118735E+04  0.00000000000E+00 0. -1.
<mgrwt>
<rscale>  0 0.80697267E+02</rscale>
<asrwt>0</asrwt>
<pdfrwt beam="1">  1        2 0.32524754E+00 0.80697267E+02</pdfrwt>
<pdfrwt beam="2">  1       -1 0.11847233E-03 0.80697267E+02</pdfrwt>
<totfact> 0.25674857E+05</totfact>
</mgrwt>
</event>
<event>
 8    1  0.1226832E-024  0.7998863E+02  0.7818608E-02  0.1329084E+00
         -1   -1    0    0    0  501 -0.00000000000E+00  0.00000000000E+00  0.25244066618E+03  0.25244066623E+03  0.50400000000E-02 0.  1.
          2   -1    0    0  501    0  0.00000000000E+00 -0.00000000000E+00 -0.63363205236E+01  0.63363210367E+01  0.25500000000E-02 0. -1.
         24    2    1    2    0    0  0.00000000000E+00 -0.35527136788E-14  0.24610434566E+03  0.25877698727E+03  0.79988625366E+02 0.  0.
         66    2    3    3    0    0 -0.18235981691E+02  0.30134840248E+02  0.62012340659E+02  0.71345567561E+02  0.19999978947E+01 0.  0.
        -13    1    3    3    0    0  0.18235981691E+02 -0.30134840248E+02  0.18409200500E+03  0.18743141971E+03  0.10566000000E+00 0.  1.
         13    1    4    4    0    0 -0.15183256855E+02  0.24326850514E+02  0.51093256766E+02  0.58590605012E+02  0.10566000000E+00 0. -1.
        -13    1    4    4    0    0 -0.12816566608E+01  0.31081547621E+01  0.55904045521E+01  0.65243434085E+01  0.10566000000E+00 0.  1.
         14    1    4    4    0    0 -0.17710681759E+01  0.26998349712E+01  0.53286793411E+01  0.62306191406E+01  0.00000000000E+00 0. -1.
<mgrwt>
<rscale>  0 0.79988625E+02</rscale>
<asrwt>0</asrwt>
<pdfrwt beam="1">  1        2 0.97481861E-03 0.79988625E+02</pdfrwt>
<pdfrwt beam="2">  1       -1 0.38837025E-01 0.79988625E+02</pdfrwt>
<totfact> 0.92323392E+04</totfact>
</mgrwt>
</event>
<event>
 8    1  0.1226832E-024  0.7922350E+02  0.7818608E-02  0.1331270E+00
          2   -1    0    0  501    0  0.00000000000E+00  0.00000000000E+00  0.28246181809E+03  0.28246181810E+03  0.25500000000E-02 0. -1.
         -1   -1    0    0    0  501 -0.00000000000E+00 -0.00000000000E+00 -0.55550527420E+01  0.55550550284E+01  0.50400000000E-02 0.  1.
         24    2    1    2    0    0  0.00000000000E+00  0.00000000000E+00  0.27690676535E+03  0.28801687313E+03  0.79223497221E+02 0.  0.
         66    2    3    3    0    0  0.35979866897E+02 -0.16491268116E+02  0.14129316251E+03  0.14674559797E+03  0.20000015195E+01 0.  0.
        -13    1    3    3    0    0 -0.35979866897E+02  0.16491268116E+02  0.13561360284E+03  0.14127127516E+03  0.10566000000E+00 0.  1.
         13    1    4    4    0    0  0.10349038529E+02 -0.42004205065E+01  0.41108804125E+02  0.42599190973E+02  0.10566000000E+00 0. -1.
        -13    1    4    4    0    0  0.24778417538E+02 -0.12077642766E+02  0.96609638429E+02  0.10046528172E+03  0.10566000000E+00 0.  1.
        -14    1    4    4    0    0  0.85241082894E+00 -0.21320484379E+00  0.35747199536E+01  0.36811252727E+01  0.00000000000E+00 0.  1.
<mgrwt>
<rscale>  0 0.79223497E+02</rscale>
<asrwt>0</asrwt>
<pdfrwt beam="1">  1        2 0.43455687E-01 0.79223497E+02</pdfrwt>
<pdfrwt beam="2">  1       -1 0.85462323E-03 0.79223497E+02</pdfrwt>
<totfact> 0.25590507E+05</totfact>
</mgrwt>
</event>
<event>
 8    1  0.1226832E-024  0.7869437E+02  0.7818608E-02  0.1332798E+00
         -1   -1    0    0    0  501 -0.00000000000E+00  0.00000000000E+00  0.56010624844E+01  0.56010647520E+01  0.50400000000E-02 0.  1.
          2   -1    0    0  501    0  0.00000000000E+00 -0.00000000000E+00 -0.27641197933E+03  0.27641197934E+03  0.25500000000E-02 0. -1.
         24    2    1    2    0    0  0.17763568394E-14  0.35527136788E-14 -0.27081091685E+03  0.28201304410E+03  0.78694373092E+02 0.  0.
         66    2    3    3    0    0 -0.12950706301E+02 -0.31506055367E+02 -0.20588596968E+03  0.20869447723E+03  0.19999991935E+01 0.  0.
        -13    1    3    3    0    0  0.12950706301E+02  0.31506055367E+02 -0.64924947171E+02  0.73318566869E+02  0.10566000000E+00 0.  1.
         13    1    4    4    0    0 -0.28849575622E+01 -0.52128753718E+01 -0.35629050978E+02  0.36123918495E+02  0.10566000000E+00 0. -1.
        -13    1    4    4    0    0 -0.77621617987E+01 -0.19717539452E+02 -0.12956032626E+03  0.13128184117E+03  0.10566000000E+00 0.  1.
        -14    1    4    4    0    0 -0.23035869406E+01 -0.65756405436E+01 -0.40696592443E+02  0.41288717561E+02  0.00000000000E+00 0.  1.
<mgrwt>
<rscale>  0 0.78694373E+02</rscale>
<asrwt>0</asrwt>
<pdfrwt beam="1">  1        2 0.42524909E-01 0.78694373E+02</pdfrwt>
<pdfrwt beam="2">  1       -1 0.86170231E-03 0.78694373E+02</pdfrwt>
<totfact> 0.25840740E+05</totfact>
</mgrwt>
</event>
<event>
 8    1  0.1226832E-024  0.7654742E+02  0.7818608E-02  0.1339145E+00
          2   -1    0    0  501    0  0.00000000000E+00  0.00000000000E+00  0.12967340849E+03  0.12967340851E+03  0.25500000000E-02 0. -1.
         -1   -1    0    0    0  501 -0.00000000000E+00 -0.00000000000E+00 -0.11296663219E+02  0.11296664343E+02  0.50400000000E-02 0.  1.
         24    2    1    2    0    0  0.00000000000E+00 -0.35527136788E-14  0.11837674527E+03  0.14097007285E+03  0.76547420730E+02 0.  0.
         66    2    3    3    0    0 -0.97477291907E+01 -0.19790942724E+02  0.11676730805E+03  0.11884992162E+03  0.20000006039E+01 0.  0.
        -13    1    3    3    0    0  0.97477291907E+01  0.19790942724E+02  0.16094372180E+01  0.22120151231E+02  0.10566000000E+00 0.  1.
         13    1    4    4    0    0 -0.15967869335E+01 -0.37367540553E+01  0.19590642228E+02  0.20007935584E+02  0.10566000000E+00 0.  1.
        -13    1    4    4    0    0 -0.19783940090E+01 -0.53945731738E+01  0.31733216062E+02  0.32249397332E+02  0.10566000000E+00 0. -1.
        -14    1    4    4    0    0 -0.61725482482E+01 -0.10659615495E+02  0.65443449759E+02  0.66592588708E+02  0.00000000000E+00 0.  1.
<mgrwt>
<rscale>  0 0.76547421E+02</rscale>
<asrwt>0</asrwt>
<pdfrwt beam="1">  1        2 0.19949755E-01 0.76547421E+02</pdfrwt>
<pdfrwt beam="2">  1       -1 0.17379483E-02 0.76547421E+02</pdfrwt>
<totfact> 0.21509321E+05</totfact>
</mgrwt>
</event>
<event>
 8    1  0.1226832E-024  0.7994998E+02  0.7818608E-02  0.1329193E+00
          2   -1    0    0  501    0  0.00000000000E+00  0.00000000000E+00  0.94769987001E+03  0.94769987002E+03  0.25500000000E-02 0. -1.
         -1   -1    0    0    0  501 -0.00000000000E+00 -0.00000000000E+00 -0.16861838986E+01  0.16861914308E+01  0.50400000000E-02 0.  1.
         24    2    1    2    0    0  0.00000000000E+00  0.00000000000E+00  0.94601368611E+03  0.94938606145E+03  0.79949980328E+02 0.  0.
         66    2    3    3    0    0 -0.11976218133E+02  0.54075514493E+01  0.92130024272E+03  0.92139611929E+03  0.19999988255E+01 0.  0.
        -13    1    3    3    0    0  0.11976218133E+02 -0.54075514493E+01  0.24713443394E+02  0.27989942156E+02  0.10566000000E+00 0.  1.
         13    1    4    4    0    0 -0.73082115548E+01  0.30112000019E+01  0.49298821438E+03  0.49305158753E+03  0.10566000000E+00 0. -1.
        -13    1    4    4    0    0 -0.46104460088E+01  0.24075543184E+01  0.41857965707E+03  0.41861198383E+03  0.10566000000E+00 0.  1.
         14    1    4    4    0    0 -0.57560569762E-01 -0.11202870996E-01  0.97323712686E+01  0.97325479312E+01  0.00000000000E+00 0. -1.
<mgrwt>
<rscale>  0 0.79949980E+02</rscale>
<asrwt>0</asrwt>
<pdfrwt beam="1">  1        2 0.14579980E+00 0.79949980E+02</pdfrwt>
<pdfrwt beam="2">  1       -1 0.25941380E-03 0.79949980E+02</pdfrwt>
<totfact> 0.35174306E+05</totfact>
</mgrwt>
</event>
<event>
 8    1  0.1226832E-024  0.7939543E+02  0.7818608E-02  0.1330776E+00
         -1   -1    0    0    0  501 -0.00000000000E+00  0.00000000000E+00  0.48777575711E+01  0.48777601750E+01  0.50400000000E-02 0.  1.
          2   -1    0    0  501    0  0.00000000000E+00 -0.00000000000E+00 -0.32308041967E+03  0.32308041968E+03  0.25500000000E-02 0. -1.
         24    2    1    2    0    0  0.00000000000E+00  0.00000000000E+00 -0.31820266210E+03  0.32795817986E+03  0.79395425353E+02 0.  0.
         66    2    3    3    0    0 -0.32498700265E+02  0.26767315621E+01 -0.25253859624E+03  0.25464303054E+03  0.19999994899E+01 0.  0.
        -13    1    3    3    0    0  0.32498700265E+02 -0.26767315621E+01 -0.65664065858E+02  0.73315149320E+02  0.10566000000E+00 0.  1.
         13    1    4    4    0    0 -0.12989518561E+02  0.70232363471E+00 -0.10338097059E+03  0.10419624319E+03  0.10566000000E+00 0. -1.
        -13    1    4    4    0    0 -0.13424916424E+02  0.18192671287E+01 -0.99834926412E+02  0.10074999657E+03  0.10566000000E+00 0.  1.
        -14    1    4    4    0    0 -0.60842652808E+01  0.15514079868E+00 -0.49322699242E+02  0.49696790774E+02  0.00000000000E+00 0.  1.
<mgrwt>
<rscale>  0 0.79395425E+02</rscale>
<asrwt>0</asrwt>
<pdfrwt beam="1">  1        2 0.49704663E-01 0.79395425E+02</pdfrwt>
<pdfrwt beam="2">  1       -1 0.75042470E-03 0.79395425E+02</pdfrwt>
<totfact> 0.26711841E+05</totfact>
</mgrwt>
</event>
<event>
 8    1  0.1226832E-024  0.7924825E+02  0.7818608E-02  0.1331198E+00
         -1   -1    0    0    0  501 -0.00000000000E+00  0.00000000000E+00  0.46817735482E+01  0.46817762611E+01  0.50400000000E-02 0.  1.
          2   -1    0    0  501    0  0.00000000000E+00 -0.00000000000E+00 -0.33535812771E+03  0.33535812772E+03  0.25500000000E-02 0. -1.
         24    2    1    2    0    0  0.00000000000E+00  0.00000000000E+00 -0.33067635416E+03  0.34003990398E+03  0.79248249807E+02 0.  0.
         66    2    3    3    0    0 -0.19592019241E+02 -0.20812264976E+02 -0.28303580370E+03  0.28448244900E+03  0.20000057195E+01 0.  0.
        -13    1    3    3    0    0  0.19592019241E+02  0.20812264976E+02 -0.47640550463E+02  0.55557454980E+02  0.10566000000E+00 0.  1.
         13    1    4    4    0    0 -0.12142619774E+02 -0.12044278126E+02 -0.16395048835E+03  0.16484017000E+03  0.10566000000E+00 0. -1.
        -13    1    4    4    0    0 -0.73628511684E+01 -0.87484110593E+01 -0.11771523807E+03  0.11826933124E+03  0.10566000000E+00 0.  1.
         14    1    4    4    0    0 -0.86548298121E-01 -0.19575791136E-01 -0.13700772707E+01  0.13729477584E+01  0.00000000000E+00 0. -1.
<mgrwt>
<rscale>  0 0.79248250E+02</rscale>
<asrwt>0</asrwt>
<pdfrwt beam="1">  1        2 0.51593539E-01 0.79248250E+02</pdfrwt>
<pdfrwt beam="2">  1       -1 0.72027333E-03 0.79248250E+02</pdfrwt>
<totfact> 0.27204151E+05</totfact>
</mgrwt>
</event>
<event>
 8    1  0.1226832E-024  0.7976704E+02  0.7818608E-02  0.1329714E+00
          2   -1    0    0  501    0  0.00000000000E+00  0.00000000000E+00  0.68760884117E+02  0.68760884164E+02  0.25500000000E-02 0. -1.
         -1   -1    0    0    0  501 -0.00000000000E+00 -0.00000000000E+00 -0.23133722326E+02  0.23133722875E+02  0.50400000000E-02 0.  1.
         24    2    1    2    0    0  0.17763568394E-14  0.71054273576E-14  0.45627161791E+02  0.91894607039E+02  0.79767041500E+02 0.  0.
         66    2    3    3    0    0  0.10023127928E+02  0.38483583454E+02  0.25927908309E+02  0.47515320871E+02  0.19999998292E+01 0.  0.
        -13    1    3    3    0    0 -0.10023127928E+02 -0.38483583454E+02  0.19699253482E+02  0.44379286167E+02  0.10566000000E+00 0.  1.
         13    1    4    4    0    0  0.18340374598E+01  0.81422951621E+01  0.53115718789E+01  0.98936658408E+01  0.10566000000E+00 0. -1.
        -13    1    4    4    0    0  0.71193074328E+01  0.26842203948E+02  0.17583031273E+02  0.32868869830E+02  0.10566000000E+00 0.  1.
        -14    1    4    4    0    0  0.10697830359E+01  0.34990843437E+01  0.30333051565E+01  0.47527852004E+01  0.00000000000E+00 0.  1.
<mgrwt>
<rscale>  0 0.79767042E+02</rscale>
<asrwt>0</asrwt>
<pdfrwt beam="1">  1        2 0.10578598E-01 0.79767042E+02</pdfrwt>
<pdfrwt beam="2">  1       -1 0.35590343E-02 0.79767042E+02</pdfrwt>
<totfact> 0.16203922E+05</totfact>
</mgrwt>
</event>
<event>
 8    1  0.1226832E-024  0.7953235E+02  0.7818608E-02  0.1330384E+00
         -1   -1    0    0    0  501 -0.00000000000E+00  0.00000000000E+00  0.45410935184E+02  0.45410935463E+02  0.50400000000E-02 0.  1.
          2   -1    0    0  501    0  0.00000000000E+00 -0.00000000000E+00 -0.34823083319E+02  0.34823083412E+02  0.25500000000E-02 0. -1.
         24    2    1    2    0    0  0.00000000000E+00 -0.71054273576E-14  0.10587851865E+02  0.80234018875E+02  0.79532353025E+02 0.  0.
         66    2    3    3    0    0 -0.14648857071E+02 -0.36035272217E+02 -0.29117226248E+01  0.39059032140E+02  0.20000014559E+01 0.  0.
        -13    1    3    3    0    0  0.14648857071E+02  0.36035272217E+02  0.13499574490E+02  0.41174986735E+02  0.10566000000E+00 0.  1.
         13    1    4    4    0    0 -0.31916807562E+01 -0.64791955545E+01 -0.26348657236E-01  0.72234797273E+01  0.10566000000E+00 0. -1.
        -13    1    4    4    0    0 -0.34126711829E+01 -0.95257356086E+01 -0.91911725416E+00  0.10160802333E+02  0.10566000000E+00 0.  1.
         14    1    4    4    0    0 -0.80445051322E+01 -0.20030341054E+02 -0.19662567134E+01  0.21674750079E+02  0.00000000000E+00 0. -1.
<mgrwt>
<rscale>  0 0.79532353E+02</rscale>
<asrwt>0</asrwt>
<pdfrwt beam="1">  1        2 0.53573974E-02 0.79532353E+02</pdfrwt>
<pdfrwt beam="2">  1       -1 0.69862978E-02 0.79532353E+02</pdfrwt>
<totfact> 0.14087724E+05</totfact>
</mgrwt>
</event>
<event>
 8    1  0.1226832E-024  0.8015407E+02  0.7818608E-02  0.1328615E+00
         -1   -1    0    0    0  501 -0.00000000000E+00  0.00000000000E+00  0.22714557665E+01  0.22714613580E+01  0.50400000000E-02 0.  1.
          2   -1    0    0  501    0  0.00000000000E+00 -0.00000000000E+00 -0.70710892178E+03  0.70710892178E+03  0.25500000000E-02 0. -1.
         24    2    1    2    0    0  0.71054273576E-14  0.17763568394E-14 -0.70483746601E+03  0.70938038314E+03  0.80154067215E+02 0.  0.
         66    2    3    3    0    0 -0.25585665709E+02  0.15482583515E+02 -0.58842996781E+03  0.58919280689E+03  0.19999996358E+01 0.  0.
        -13    1    3    3    0    0  0.25585665709E+02 -0.15482583515E+02 -0.11640749820E+03  0.12018757625E+03  0.10566000000E+00 0.  1.
         13    1    4    4    0    0 -0.14233349646E+02  0.78504963919E+01 -0.32168729033E+03  0.32209772191E+03  0.10566000000E+00 0. -1.
        -13    1    4    4    0    0 -0.74940743088E+01  0.49085646947E+01 -0.16550239715E+03  0.16574471269E+03  0.10566000000E+00 0.  1.
        -14    1    4    4    0    0 -0.38582417546E+01  0.27235224284E+01 -0.10124028033E+03  0.10135037230E+03  0.00000000000E+00 0.  1.
<mgrwt>
<rscale>  0 0.80154067E+02</rscale>
<asrwt>0</asrwt>
<pdfrwt beam="1">  1        2 0.10878581E+00 0.80154067E+02</pdfrwt>
<pdfrwt beam="2">  1       -1 0.34945573E-03 0.80154067E+02</pdfrwt>
<totfact> 0.33361214E+05</totfact>
</mgrwt>
</event>
<event>
 8    1  0.1226832E-024  0.8075097E+02  0.7818608E-02  0.1326934E+00
         -1   -1    0    0    0  501 -0.00000000000E+00  0.00000000000E+00  0.33079168568E+01  0.33079206963E+01  0.50400000000E-02 0.  1.
          2   -1    0    0  501    0  0.00000000000E+00 -0.00000000000E+00 -0.49281134846E+03  0.49281134847E+03  0.25500000000E-02 0. -1.
         24    2    1    2    0    0  0.35527136788E-14  0.17763568394E-14 -0.48950343160E+03  0.49611926916E+03  0.80750973266E+02 0.  0.
         66    2    3    3    0    0  0.17187244546E+02 -0.14813320161E+02 -0.44990058616E+03  0.45047682882E+03  0.20000117081E+01 0.  0.
        -13    1    3    3    0    0 -0.17187244546E+02  0.14813320161E+02 -0.39602845444E+02  0.45642440344E+02  0.10566000000E+00 0.  1.
         13    1    4    4    0    0  0.50292087637E+01 -0.49210984535E+01 -0.14258713622E+03  0.14276068342E+03  0.10566000000E+00 0. -1.
        -13    1    4    4    0    0  0.96470070396E+00 -0.10829575806E+01 -0.35420639480E+02  0.35450476863E+02  0.10566000000E+00 0.  1.
         14    1    4    4    0    0  0.11193335078E+02 -0.88092641270E+01 -0.27189281046E+03  0.27226566854E+03  0.00000000000E+00 0. -1.
<mgrwt>
<rscale>  0 0.80750973E+02</rscale>
<asrwt>0</asrwt>
<pdfrwt beam="1">  1        2 0.75817072E-01 0.80750973E+02</pdfrwt>
<pdfrwt beam="2">  1       -1 0.50891097E-03 0.80750973E+02</pdfrwt>
<totfact> 0.29580960E+05</totfact>
</mgrwt>
</event>
<event>
 8    1  0.1226832E-024  0.8689154E+02  0.7818608E-02  0.1310559E+00
          2   -1    0    0  501    0  0.00000000000E+00  0.00000000000E+00  0.12411790136E+02  0.12411790398E+02  0.25500000000E-02 0. -1.
         -1   -1    0    0    0  501 -0.00000000000E+00 -0.00000000000E+00 -0.15207595057E+03  0.15207595065E+03  0.50400000000E-02 0.  1.
         24    2    1    2    0    0  0.00000000000E+00  0.00000000000E+00 -0.13966416043E+03  0.16448774105E+03  0.86891537255E+02 0.  0.
         66    2    3    3    0    0  0.41290160452E+02 -0.76162629800E+01 -0.48904647956E+02  0.64486815650E+02  0.19999972671E+01 0.  0.
        -13    1    3    3    0    0 -0.41290160452E+02  0.76162629800E+01 -0.90759512478E+02  0.10000092540E+03  0.10566000000E+00 0.  1.
         13    1    4    4    0    0  0.10179338189E+02 -0.19990624266E+01 -0.13084692843E+02  0.16698369004E+02  0.10566000000E+00 0. -1.
        -13    1    4    4    0    0  0.50843618122E+01 -0.51651099773E+00 -0.57398119686E+01  0.76859693025E+01  0.10566000000E+00 0. -1.
         14    1    4    4    0    0  0.26026460451E+02 -0.51006895556E+01 -0.30080143144E+02  0.40102477344E+02  0.00000000000E+00 0. -1.
<mgrwt>
<rscale>  0 0.86891537E+02</rscale>
<asrwt>0</asrwt>
<pdfrwt beam="1">  1        2 0.19095063E-02 0.86891537E+02</pdfrwt>
<pdfrwt beam="2">  1       -1 0.23396299E-01 0.86891537E+02</pdfrwt>
<totfact> 0.87211846E+04</totfact>
</mgrwt>
</event>
<event>
 8    1  0.1226832E-024  0.8090398E+02  0.7818608E-02  0.1326505E+00
          2   -1    0    0  501    0  0.00000000000E+00  0.00000000000E+00  0.48412474683E+03  0.48412474683E+03  0.25500000000E-02 0. -1.
         -1   -1    0    0    0  501 -0.00000000000E+00 -0.00000000000E+00 -0.33800428577E+01  0.33800466153E+01  0.50400000000E-02 0.  1.
         24    2    1    2    0    0 -0.17763568394E-14  0.00000000000E+00  0.48074470397E+03  0.48750479345E+03  0.80903975435E+02 0.  0.
         66    2    3    3    0    0 -0.15012970155E+02  0.36781515496E+02  0.28564709495E+03  0.28840341886E+03  0.20000001007E+01 0.  0.
        -13    1    3    3    0    0  0.15012970155E+02 -0.36781515496E+02  0.19509760902E+03  0.19910137459E+03  0.10566000000E+00 0.  1.
         13    1    4    4    0    0 -0.88776872681E+01  0.22977445918E+02  0.17297902187E+03  0.17472415266E+03  0.10566000000E+00 0. -1.
        -13    1    4    4    0    0 -0.39779734218E+01  0.87906849973E+01  0.74832802698E+02  0.75452368677E+02  0.10566000000E+00 0.  1.
         14    1    4    4    0    0 -0.21573094652E+01  0.50133845801E+01  0.37835270385E+02  0.38226897522E+02  0.00000000000E+00 0. -1.
<mgrwt>
<rscale>  0 0.80903975E+02</rscale>
<asrwt>0</asrwt>
<pdfrwt beam="1">  1        2 0.74480732E-01 0.80903975E+02</pdfrwt>
<pdfrwt beam="2">  1       -1 0.52000687E-03 0.80903975E+02</pdfrwt>
<totfact> 0.29266591E+05</totfact>
</mgrwt>
</event>
<event>
 8    1  0.1226832E-024  0.8392057E+02  0.7818608E-02  0.1318280E+00
         -1   -1    0    0    0  501 -0.00000000000E+00  0.00000000000E+00  0.11665170722E+02  0.11665171811E+02  0.50400000000E-02 0.  1.
          2   -1    0    0  501    0  0.00000000000E+00 -0.00000000000E+00 -0.15093354648E+03  0.15093354650E+03  0.25500000000E-02 0. -1.
         24    2    1    2    0    0  0.00000000000E+00  0.00000000000E+00 -0.13926837576E+03  0.16259871831E+03  0.83920573823E+02 0.  0.
         66    2    3    3    0    0  0.38825430583E+02  0.61274452583E+01 -0.97997455957E+02  0.10560521315E+03  0.20000063210E+01 0.  0.
        -13    1    3    3    0    0 -0.38825430583E+02 -0.61274452583E+01 -0.41270919801E+02  0.56993505162E+02  0.10566000000E+00 0.  1.
         13    1    4    4    0    0  0.10729545788E+02  0.21273869784E+01 -0.27523507450E+02  0.29617622365E+02  0.10566000000E+00 0. -1.
        -13    1    4    4    0    0  0.22248017885E+02  0.35379622345E+01 -0.57125747362E+02  0.61407276868E+02  0.10566000000E+00 0.  1.
        -14    1    4    4    0    0  0.58478669111E+01  0.46209604544E+00 -0.13348201145E+02  0.14580313919E+02  0.00000000000E+00 0.  1.
<mgrwt>
<rscale>  0 0.83920574E+02</rscale>
<asrwt>0</asrwt>
<pdfrwt beam="1">  1        2 0.23220544E-01 0.83920574E+02</pdfrwt>
<pdfrwt beam="2">  1       -1 0.17946419E-02 0.83920574E+02</pdfrwt>
<totfact> 0.17671717E+05</totfact>
</mgrwt>
</event>
<event>
 8    1  0.1226832E-024  0.7734576E+02  0.7818608E-02  0.1336757E+00
         -1   -1    0    0    0  501 -0.00000000000E+00  0.00000000000E+00  0.93081448430E+01  0.93081462075E+01  0.50400000000E-02 0.  1.
          2   -1    0    0  501    0  0.00000000000E+00 -0.00000000000E+00 -0.16067556056E+03  0.16067556058E+03  0.25500000000E-02 0. -1.
         24    2    1    2    0    0  0.00000000000E+00 -0.35527136788E-14 -0.15136741571E+03  0.16998370678E+03  0.77345756395E+02 0.  0.
         66    2    3    3    0    0  0.83379024444E+01  0.23150844955E+02 -0.14122836541E+03  0.14336991817E+03  0.19999999452E+01 0.  0.
        -13    1    3    3    0    0 -0.83379024444E+01 -0.23150844955E+02 -0.10139050300E+02  0.26613788613E+02  0.10566000000E+00 0.  1.
         13    1    4    4    0    0  0.33114490197E+01  0.10462012256E+02 -0.58446723127E+02  0.59468058681E+02  0.10566000000E+00 0. -1.
        -13    1    4    4    0    0  0.33411997104E+00  0.91190817842E+00 -0.51317040665E+01  0.52238647898E+01  0.10566000000E+00 0. -1.
         14    1    4    4    0    0  0.46923334537E+01  0.11776924521E+02 -0.77649938219E+02  0.78677994699E+02  0.00000000000E+00 0. -1.
<mgrwt>
<rscale>  0 0.77345756E+02</rscale>
<asrwt>0</asrwt>
<pdfrwt beam="1">  1        2 0.24719315E-01 0.77345756E+02</pdfrwt>
<pdfrwt beam="2">  1       -1 0.14320225E-02 0.77345756E+02</pdfrwt>
<totfact> 0.22395258E+05</totfact>
</mgrwt>
</event>
<event>
 8    1  0.1226832E-024  0.7965756E+02  0.7818608E-02  0.1330026E+00
         -1   -1    0    0    0  501 -0.00000000000E+00  0.00000000000E+00  0.18330369479E+02  0.18330370172E+02  0.50400000000E-02 0.  1.
          2   -1    0    0  501    0  0.00000000000E+00 -0.00000000000E+00 -0.86541169593E+02  0.86541169630E+02  0.25500000000E-02 0. -1.
         24    2    1    2    0    0  0.00000000000E+00 -0.17763568394E-14 -0.68210800114E+02  0.10487153980E+03  0.79657558387E+02 0.  0.
         66    2    3    3    0    0  0.20523438039E+02 -0.13477105647E+02 -0.75371905629E+02  0.79295447806E+02  0.19999997519E+01 0.  0.
        -13    1    3    3    0    0 -0.20523438039E+02  0.13477105647E+02  0.71611055147E+01  0.25576091996E+02  0.10566000000E+00 0.  1.
         13    1    4    4    0    0  0.18066580271E+02 -0.12043196754E+02 -0.65559051213E+02  0.69061134299E+02  0.10566000000E+00 0. -1.
        -13    1    4    4    0    0  0.20236322250E+01 -0.97173554974E+00 -0.70392030190E+01  0.73892422168E+01  0.10566000000E+00 0.  1.
         14    1    4    4    0    0  0.43322554348E+00 -0.46217334348E+00 -0.27736513972E+01  0.28450712898E+01  0.00000000000E+00 0. -1.
<mgrwt>
<rscale>  0 0.79657558E+02</rscale>
<asrwt>0</asrwt>
<pdfrwt beam="1">  1        2 0.13314026E-01 0.79657558E+02</pdfrwt>
<pdfrwt beam="2">  1       -1 0.28200570E-02 0.79657558E+02</pdfrwt>
<totfact> 0.17239185E+05</totfact>
</mgrwt>
</event>
<event>
 8    1  0.1226832E-024  0.7873806E+02  0.7818608E-02  0.1332671E+00
          2   -1    0    0  501    0  0.00000000000E+00  0.00000000000E+00  0.28134851248E+02  0.28134851363E+02  0.25500000000E-02 0. -1.
         -1   -1    0    0    0  501 -0.00000000000E+00 -0.00000000000E+00 -0.55088986305E+02  0.55088986535E+02  0.50400000000E-02 0.  1.
         24    2    1    2    0    0  0.44408920985E-15  0.00000000000E+00 -0.26954135057E+02  0.83223837898E+02  0.78738058129E+02 0.  0.
         66    2    3    3    0    0  0.22612617251E+01  0.17721120660E+02  0.23565036178E+02  0.29638865673E+02  0.20000015665E+01 0.  0.
        -13    1    3    3    0    0 -0.22612617251E+01 -0.17721120660E+02 -0.50519171235E+02  0.53584972225E+02  0.10566000000E+00 0.  1.
         13    1    4    4    0    0  0.23615422246E+00  0.51134365054E+01  0.69492868615E+01  0.86317294693E+01  0.10566000000E+00 0.  1.
        -13    1    4    4    0    0  0.12741125308E+01  0.40904811666E+01  0.60764450004E+01  0.74357075516E+01  0.10566000000E+00 0.  1.
         14    1    4    4    0    0  0.75099497183E+00  0.85172029880E+01  0.10539304316E+02  0.13571428652E+02  0.00000000000E+00 0. -1.
<mgrwt>
<rscale>  0 0.78738058E+02</rscale>
<asrwt>0</asrwt>
<pdfrwt beam="1">  1        2 0.43284387E-02 0.78738058E+02</pdfrwt>
<pdfrwt beam="2">  1       -1 0.84752287E-02 0.78738058E+02</pdfrwt>
<totfact> 0.13892841E+05</totfact>
</mgrwt>
</event>
<event>
 8    1  0.1226832E-024  0.7991206E+02  0.7818608E-02  0.1329301E+00
         -1   -1    0    0    0  501 -0.00000000000E+00  0.00000000000E+00  0.41154470043E+01  0.41154500905E+01  0.50400000000E-02 0.  1.
          2   -1    0    0  501    0  0.00000000000E+00 -0.00000000000E+00 -0.38792473159E+03  0.38792473160E+03  0.25500000000E-02 0. -1.
         24    2    1    2    0    0  0.35527136788E-14 -0.35527136788E-14 -0.38380928458E+03  0.39204018169E+03  0.79912058692E+02 0.  0.
         66    2    3    3    0    0 -0.20177608642E+02  0.31788299473E+02 -0.25726506873E+03  0.26001336016E+03  0.19999990578E+01 0.  0.
        -13    1    3    3    0    0  0.20177608642E+02 -0.31788299473E+02 -0.12654421585E+03  0.13202682153E+03  0.10566000000E+00 0.  1.
         13    1    4    4    0    0 -0.10447490143E+02  0.14927216221E+02 -0.12729184109E+03  0.12858925230E+03  0.10566000000E+00 0. -1.
        -13    1    4    4    0    0 -0.52021472431E+01  0.85567884136E+01 -0.66061918814E+02  0.66816683885E+02  0.10566000000E+00 0.  1.
         14    1    4    4    0    0 -0.45279712555E+01  0.83042948386E+01 -0.63911308831E+02  0.64607423977E+02  0.00000000000E+00 0. -1.
<mgrwt>
<rscale>  0 0.79912059E+02</rscale>
<asrwt>0</asrwt>
<pdfrwt beam="1">  1        2 0.59680699E-01 0.79912059E+02</pdfrwt>
<pdfrwt beam="2">  1       -1 0.63314624E-03 0.79912059E+02</pdfrwt>
<totfact> 0.28031747E+05</totfact>
</mgrwt>
</event>
<event>
 8    1  0.1226832E-024  0.7802680E+02  0.7818608E-02  0.1334746E+00
         -1   -1    0    0    0  501 -0.00000000000E+00  0.00000000000E+00  0.72117481042E+02  0.72117481218E+02  0.50400000000E-02 0.  1.
          2   -1    0    0  501    0  0.00000000000E+00 -0.00000000000E+00 -0.21105080627E+02  0.21105080781E+02  0.25500000000E-02 0. -1.
         24    2    1    2    0    0  0.17763568394E-14  0.00000000000E+00  0.51012400415E+02  0.93222561999E+02  0.78026797125E+02 0.  0.
         66    2    3    3    0    0  0.11970641052E+02 -0.20431189989E+02 -0.11481787036E+02  0.26392446027E+02  0.20000005425E+01 0.  0.
        -13    1    3    3    0    0 -0.11970641052E+02  0.20431189989E+02  0.62494187451E+02  0.66830115972E+02  0.10566000000E+00 0.  1.
         13    1    4    4    0    0  0.17719584145E+01 -0.29956032368E+01 -0.21469031136E+01  0.40907007211E+01  0.10566000000E+00 0. -1.
        -13    1    4    4    0    0  0.10225153027E+01 -0.14061756086E+01 -0.12258967902E+01  0.21299892869E+01  0.10566000000E+00 0. -1.
         14    1    4    4    0    0  0.91761673346E+01 -0.16029411144E+02 -0.81089871324E+01  0.20171756019E+02  0.00000000000E+00 0. -1.
<mgrwt>
<rscale>  0 0.78026797E+02</rscale>
<asrwt>0</asrwt>
<pdfrwt beam="1">  1        2 0.32469355E-02 0.78026797E+02</pdfrwt>
<pdfrwt beam="2">  1       -1 0.11094997E-01 0.78026797E+02</pdfrwt>
<totfact> 0.13478433E+05</totfact>
</mgrwt>
</event>
<event>
 8    1  0.1226832E-024  0.8225489E+02  0.7818608E-02  0.1322771E+00
         -1   -1    0    0    0  501 -0.00000000000E+00  0.00000000000E+00  0.38631334850E+02  0.38631335179E+02  0.50400000000E-02 0.  1.
          2   -1    0    0  501    0  0.00000000000E+00 -0.00000000000E+00 -0.43784840725E+02  0.43784840800E+02  0.25500000000E-02 0. -1.
         24    2    1    2    0    0  0.00000000000E+00 -0.71054273576E-14 -0.51535058750E+01  0.82416175979E+02  0.82254893108E+02 0.  0.
         66    2    3    3    0    0  0.22255296234E+02  0.33988413321E+02 -0.88316163861E+01  0.41623405645E+02  0.19999997422E+01 0.  0.
        -13    1    3    3    0    0 -0.22255296234E+02 -0.33988413321E+02  0.36781105111E+01  0.40792770334E+02  0.10566000000E+00 0.  1.
         13    1    4    4    0    0  0.65762671936E+01  0.10611471741E+02 -0.24655838048E+01  0.12725599799E+02  0.10566000000E+00 0. -1.
        -13    1    4    4    0    0  0.64224321483E+01  0.96080134549E+01 -0.33659911732E+01  0.12037550326E+02  0.10566000000E+00 0.  1.
        -14    1    4    4    0    0  0.92565968922E+01  0.13768928125E+02 -0.30000414081E+01  0.16860255520E+02  0.00000000000E+00 0.  1.
<mgrwt>
<rscale>  0 0.82254893E+02</rscale>
<asrwt>0</asrwt>
<pdfrwt beam="1">  1        2 0.67361294E-02 0.82254893E+02</pdfrwt>
<pdfrwt beam="2">  1       -1 0.59432823E-02 0.82254893E+02</pdfrwt>
<totfact> 0.13452802E+05</totfact>
</mgrwt>
</event>
<event>
 8    1  0.1226832E-024  0.7629879E+02  0.7818608E-02  0.1339896E+00
          2   -1    0    0  501    0  0.00000000000E+00  0.00000000000E+00  0.48938170199E+03  0.48938170200E+03  0.25500000000E-02 0. -1.
         -1   -1    0    0    0  501 -0.00000000000E+00 -0.00000000000E+00 -0.29739065208E+01  0.29739107915E+01  0.50400000000E-02 0.  1.
         24    2    1    2    0    0  0.00000000000E+00 -0.17763568394E-14  0.48640779547E+03  0.49235561279E+03  0.76298793902E+02 0.  0.
         66    2    3    3    0    0  0.61344877824E+01  0.14094070181E+02  0.46849557007E+03  0.46875193220E+03  0.20000024581E+01 0.  0.
        -13    1    3    3    0    0 -0.61344877824E+01 -0.14094070181E+02  0.17912225400E+02  0.23603680591E+02  0.10566000000E+00 0.  1.
         13    1    4    4    0    0  0.38456444150E+00  0.14410325121E+01  0.34603786070E+02  0.34636074242E+02  0.10566000000E+00 0. -1.
        -13    1    4    4    0    0  0.24397515792E+00  0.44554242125E+00  0.11239894122E+02  0.11251862772E+02  0.10566000000E+00 0.  1.
         14    1    4    4    0    0  0.55059481829E+01  0.12207495247E+02  0.42265188988E+03  0.42286399518E+03  0.00000000000E+00 0. -1.
<mgrwt>
<rscale>  0 0.76298794E+02</rscale>
<asrwt>0</asrwt>
<pdfrwt beam="1">  1        2 0.75289424E-01 0.76298794E+02</pdfrwt>
<pdfrwt beam="2">  1       -1 0.45752483E-03 0.76298794E+02</pdfrwt>
<totfact> 0.34207321E+05</totfact>
</mgrwt>
</event>
<event>
 8    1  0.1226832E-024  0.7823648E+02  0.7818608E-02  0.1334132E+00
         -1   -1    0    0    0  501 -0.00000000000E+00  0.00000000000E+00  0.15586117979E+03  0.15586117987E+03  0.50400000000E-02 0.  1.
          2   -1    0    0  501    0  0.00000000000E+00 -0.00000000000E+00 -0.98179465441E+01  0.98179468752E+01  0.25500000000E-02 0. -1.
         24    2    1    2    0    0  0.00000000000E+00  0.00000000000E+00  0.14604323325E+03  0.16567912675E+03  0.78236481661E+02 0.  0.
         66    2    3    3    0    0  0.98013979766E+01  0.35329262920E+02  0.44343122447E+02  0.57572013561E+02  0.20000040878E+01 0.  0.
        -13    1    3    3    0    0 -0.98013979766E+01 -0.35329262920E+02  0.10170011080E+03  0.10810711319E+03  0.10566000000E+00 0.  1.
         13    1    4    4    0    0  0.37759080150E+01  0.13415346223E+02  0.16596905955E+02  0.21672504399E+02  0.10566000000E+00 0. -1.
        -13    1    4    4    0    0  0.25839812512E+01  0.88491980267E+01  0.10096883959E+02  0.13672728131E+02  0.10566000000E+00 0.  1.
         14    1    4    4    0    0  0.34415087105E+01  0.13064718671E+02  0.17649332533E+02  0.22226781031E+02  0.00000000000E+00 0. -1.
<mgrwt>
<rscale>  0 0.78236482E+02</rscale>
<asrwt>0</asrwt>
<pdfrwt beam="1">  1        2 0.15104535E-02 0.78236482E+02</pdfrwt>
<pdfrwt beam="2">  1       -1 0.23978640E-01 0.78236482E+02</pdfrwt>
<totfact> 0.11300856E+05</totfact>
</mgrwt>
</event>
<event>
 8    1  0.1226832E-024  0.8188591E+02  0.7818608E-02  0.1323783E+00
          2   -1    0    0  501    0  0.00000000000E+00  0.00000000000E+00  0.15347573226E+03  0.15347573228E+03  0.25500000000E-02 0. -1.
         -1   -1    0    0    0  501 -0.00000000000E+00 -0.00000000000E+00 -0.10922414383E+02  0.10922415545E+02  0.50400000000E-02 0.  1.
         24    2    1    2    0    0  0.00000000000E+00  0.00000000000E+00  0.14255331787E+03  0.16439814782E+03  0.81885911919E+02 0.  0.
         66    2    3    3    0    0 -0.23260005217E+02  0.28513420867E+02  0.35389570736E+02  0.51092707190E+02  0.19999997214E+01 0.  0.
        -13    1    3    3    0    0  0.23260005217E+02 -0.28513420867E+02  0.10716374714E+03  0.11330544063E+03  0.10566000000E+00 0.  1.
         13    1    4    4    0    0 -0.80387690774E+01  0.94348605066E+01  0.12240124627E+02  0.17420396551E+02  0.10566000000E+00 0. -1.
        -13    1    4    4    0    0 -0.45125837196E+01  0.66214884115E+01  0.80824258447E+01  0.11381752597E+02  0.10566000000E+00 0.  1.
        -14    1    4    4    0    0 -0.10708652420E+02  0.12457071949E+02  0.15067020264E+02  0.22290558042E+02  0.00000000000E+00 0.  1.
<mgrwt>
<rscale>  0 0.81885912E+02</rscale>
<asrwt>0</asrwt>
<pdfrwt beam="1">  1        2 0.23611652E-01 0.81885912E+02</pdfrwt>
<pdfrwt beam="2">  1       -1 0.16803715E-02 0.81885912E+02</pdfrwt>
<totfact> 0.18968157E+05</totfact>
</mgrwt>
</event>
<event>
 8    1  0.1226832E-024  0.7996771E+02  0.7818608E-02  0.1329143E+00
         -1   -1    0    0    0  501 -0.00000000000E+00  0.00000000000E+00  0.13090352846E+02  0.13090353816E+02  0.50400000000E-02 0.  1.
          2   -1    0    0  501    0  0.00000000000E+00 -0.00000000000E+00 -0.12212876553E+03  0.12212876556E+03  0.25500000000E-02 0. -1.
         24    2    1    2    0    0  0.00000000000E+00  0.00000000000E+00 -0.10903841269E+03  0.13521911937E+03  0.79967711004E+02 0.  0.
         66    2    3    3    0    0 -0.19394801842E+02  0.32234048660E+02 -0.31772069435E+02  0.49281402422E+02  0.19999992655E+01 0.  0.
        -13    1    3    3    0    0  0.19394801842E+02 -0.32234048660E+02 -0.77266343251E+02  0.85937716952E+02  0.10566000000E+00 0.  1.
         13    1    4    4    0    0 -0.91959017953E+01  0.14360785634E+02 -0.13882416825E+02  0.21989302735E+02  0.10566000000E+00 0. -1.
        -13    1    4    4    0    0 -0.24271612164E+01  0.48287394213E+01 -0.52539060621E+01  0.75380719627E+01  0.10566000000E+00 0.  1.
        -14    1    4    4    0    0 -0.77717388301E+01  0.13044523605E+02 -0.12635746548E+02  0.19754027725E+02  0.00000000000E+00 0.  1.
<mgrwt>
<rscale>  0 0.79967711E+02</rscale>
<asrwt>0</asrwt>
<pdfrwt beam="1">  1        2 0.18789040E-01 0.79967711E+02</pdfrwt>
<pdfrwt beam="2">  1       -1 0.20139006E-02 0.79967711E+02</pdfrwt>
<totfact> 0.18805661E+05</totfact>
</mgrwt>
</event>
<event>
 8    1  0.1226832E-024  0.7889684E+02  0.7818608E-02  0.1332212E+00
         -1   -1    0    0    0  501 -0.00000000000E+00  0.00000000000E+00  0.63638841379E+01  0.63638861337E+01  0.50400000000E-02 0.  1.
          2   -1    0    0  501    0  0.00000000000E+00 -0.00000000000E+00 -0.24453265989E+03  0.24453265991E+03  0.25500000000E-02 0. -1.
         24    2    1    2    0    0  0.00000000000E+00 -0.13877787808E-15 -0.23816877575E+03  0.25089654604E+03  0.78896838150E+02 0.  0.
         66    2    3    3    0    0 -0.14676266664E+02  0.22693493489E+00 -0.23551470433E+03  0.23598012684E+03  0.20000006258E+01 0.  0.
        -13    1    3    3    0    0  0.14676266664E+02 -0.22693493489E+00 -0.26540714217E+01  0.14916419202E+02  0.10566000000E+00 0.  1.
         13    1    4    4    0    0 -0.99534414372E+01 -0.56475478550E+00 -0.15443121953E+03  0.15475271459E+03  0.10566000000E+00 0. -1.
        -13    1    4    4    0    0 -0.21737449050E+00  0.72332485001E-01 -0.29190240702E+01  0.29299060080E+01  0.10566000000E+00 0. -1.
         14    1    4    4    0    0 -0.45054507366E+01  0.71935723538E+00 -0.78164460737E+02  0.78297506240E+02  0.00000000000E+00 0. -1.
<mgrwt>
<rscale>  0 0.78896838E+02</rscale>
<asrwt>0</asrwt>
<pdfrwt beam="1">  1        2 0.37620402E-01 0.78896838E+02</pdfrwt>
<pdfrwt beam="2">  1       -1 0.97905944E-03 0.78896838E+02</pdfrwt>
<totfact> 0.24560347E+05</totfact>
</mgrwt>
</event>
<event>
 8    1  0.1226832E-024  0.7983705E+02  0.7818608E-02  0.1329514E+00
          2   -1    0    0  501    0  0.00000000000E+00  0.00000000000E+00  0.12978968009E+02  0.12978968259E+02  0.25500000000E-02 0. -1.
         -1   -1    0    0    0  501 -0.00000000000E+00 -0.00000000000E+00 -0.12277467940E+03  0.12277467950E+03  0.50400000000E-02 0.  1.
         24    2    1    2    0    0  0.00000000000E+00  0.00000000000E+00 -0.10979571139E+03  0.13575364776E+03  0.79837050552E+02 0.  0.
         66    2    3    3    0    0  0.78536780402E+01 -0.38776618335E+02 -0.46232405166E+02  0.60883016334E+02  0.20000005556E+01 0.  0.
        -13    1    3    3    0    0 -0.78536780402E+01  0.38776618335E+02 -0.63563306223E+02  0.74870631427E+02  0.10566000000E+00 0.  1.
         13    1    4    4    0    0  0.53057143843E+01 -0.24067201769E+02 -0.29302302172E+02  0.38288599906E+02  0.10566000000E+00 0.  1.
        -13    1    4    4    0    0  0.10163170889E-01 -0.90469292220E+00 -0.79933242721E+00  0.12118865204E+01  0.10566000000E+00 0. -1.
         14    1    4    4    0    0  0.25378004851E+01 -0.13804723643E+02 -0.16130770567E+02  0.21382529908E+02  0.00000000000E+00 0. -1.
<mgrwt>
<rscale>  0 0.79837051E+02</rscale>
<asrwt>0</asrwt>
<pdfrwt beam="1">  1        2 0.19967644E-02 0.79837051E+02</pdfrwt>
<pdfrwt beam="2">  1       -1 0.18888412E-01 0.79837051E+02</pdfrwt>
<totfact> 0.11382846E+05</totfact>
</mgrwt>
</event>
<event>
 8    1  0.1226832E-024  0.8341385E+02  0.7818608E-02  0.1319633E+00
          2   -1    0    0  501    0  0.00000000000E+00  0.00000000000E+00  0.77374843242E+03  0.77374843242E+03  0.25500000000E-02 0. -1.
         -1   -1    0    0    0  501 -0.00000000000E+00 -0.00000000000E+00 -0.22481018087E+01  0.22481074583E+01  0.50400000000E-02 0.  1.
         24    2    1    2    0    0  0.00000000000E+00  0.00000000000E+00  0.77150033061E+03  0.77599653988E+03  0.83413846430E+02 0.  0.
         66    2    3    3    0    0 -0.21780088834E+02 -0.17065729414E+02  0.67598699668E+03  0.67655600734E+03  0.19999985146E+01 0.  0.
        -13    1    3    3    0    0  0.21780088834E+02  0.17065729414E+02  0.95513333924E+02  0.99440532538E+02  0.10566000000E+00 0.  1.
         13    1    4    4    0    0 -0.18837527472E+02 -0.14727084769E+02  0.58903807233E+03  0.58952319826E+03  0.10566000000E+00 0. -1.
        -13    1    4    4    0    0 -0.24441496207E+01 -0.22117639358E+01  0.73167237149E+02  0.73241528678E+02  0.10566000000E+00 0.  1.
         14    1    4    4    0    0 -0.49841174136E+00 -0.12688070983E+00  0.13781687202E+02  0.13791280402E+02  0.00000000000E+00 0. -1.
<mgrwt>
<rscale>  0 0.83413846E+02</rscale>
<asrwt>0</asrwt>
<pdfrwt beam="1">  1        2 0.11903826E+00 0.83413846E+02</pdfrwt>
<pdfrwt beam="2">  1       -1 0.34586215E-03 0.83413846E+02</pdfrwt>
<totfact> 0.30638158E+05</totfact>
</mgrwt>
</event>
<event>
 8    1  0.1226832E-024  0.7920403E+02  0.7818608E-02  0.1331326E+00
         -1   -1    0    0    0  501 -0.00000000000E+00  0.00000000000E+00  0.33168974273E+01  0.33169012564E+01  0.50400000000E-02 0.  1.
          2   -1    0    0  501    0  0.00000000000E+00 -0.00000000000E+00 -0.47282695576E+03  0.47282695577E+03  0.25500000000E-02 0. -1.
         24    2    1    2    0    0 -0.88817841970E-15 -0.35527136788E-14 -0.46951005833E+03  0.47614385703E+03  0.79204025816E+02 0.  0.
         66    2    3    3    0    0  0.76016616915E+01 -0.20572920595E+02 -0.43294873988E+03  0.43350852551E+03  0.20000008702E+01 0.  0.
        -13    1    3    3    0    0 -0.76016616915E+01  0.20572920595E+02 -0.36561318456E+02  0.42635331517E+02  0.10566000000E+00 0.  1.
         13    1    4    4    0    0  0.92593515945E+00 -0.13966707203E+01 -0.28430950005E+02  0.28480486780E+02  0.10566000000E+00 0. -1.
        -13    1    4    4    0    0  0.44610191564E+01 -0.13480453232E+02 -0.27603447032E+03  0.27639946324E+03  0.10566000000E+00 0.  1.
         14    1    4    4    0    0  0.22147073756E+01 -0.56957966427E+01 -0.12848331956E+03  0.12862857549E+03  0.00000000000E+00 0. -1.
<mgrwt>
<rscale>  0 0.79204026E+02</rscale>
<asrwt>0</asrwt>
<pdfrwt beam="1">  1        2 0.72742555E-01 0.79204026E+02</pdfrwt>
<pdfrwt beam="2">  1       -1 0.51029258E-03 0.79204026E+02</pdfrwt>
<totfact> 0.30695419E+05</totfact>
</mgrwt>
</event>
<event>
 8    1  0.1226832E-024  0.7823159E+02  0.7818608E-02  0.1334146E+00
         -1   -1    0    0    0  501 -0.00000000000E+00  0.00000000000E+00  0.19573897352E+01  0.19573962238E+01  0.50400000000E-02 0.  1.
          2   -1    0    0  501    0  0.00000000000E+00 -0.00000000000E+00 -0.78167512930E+03  0.78167512930E+03  0.25500000000E-02 0. -1.
         24    2    1    2    0    0  0.00000000000E+00  0.17763568394E-14 -0.77971773956E+03  0.78363252552E+03  0.78231589995E+02 0.  0.
         66    2    3    3    0    0 -0.14522779547E+02  0.12856117774E+02 -0.73007324509E+03  0.73033357727E+03  0.19999992709E+01 0.  0.
        -13    1    3    3    0    0  0.14522779547E+02 -0.12856117774E+02 -0.49644494468E+02  0.53298948255E+02  0.10566000000E+00 0.  1.
         13    1    4    4    0    0 -0.78757135126E+01  0.59208297304E+01 -0.37813382668E+03  0.37826219099E+03  0.10566000000E+00 0. -1.
        -13    1    4    4    0    0 -0.23646285895E+01  0.22359214078E+01 -0.10753435249E+03  0.10758363697E+03  0.10566000000E+00 0.  1.
        -14    1    4    4    0    0 -0.42824374450E+01  0.46993666360E+01 -0.24440506592E+03  0.24448774932E+03  0.00000000000E+00 0.  1.
<mgrwt>
<rscale>  0 0.78231590E+02</rscale>
<asrwt>0</asrwt>
<pdfrwt beam="1">  1        2 0.12025746E+00 0.78231590E+02</pdfrwt>
<pdfrwt beam="2">  1       -1 0.30113801E-03 0.78231590E+02</pdfrwt>
<totfact> 0.36268198E+05</totfact>
</mgrwt>
</event>
<event>
 8    1  0.1226832E-024  0.7866851E+02  0.7818608E-02  0.1332873E+00
         -1   -1    0    0    0  501 -0.00000000000E+00  0.00000000000E+00  0.80371095163E+01  0.80371110965E+01  0.50400000000E-02 0.  1.
          2   -1    0    0  501    0  0.00000000000E+00 -0.00000000000E+00 -0.19250494849E+03  0.19250494850E+03  0.25500000000E-02 0. -1.
         24    2    1    2    0    0 -0.71054273576E-14 -0.35527136788E-14 -0.18446783897E+03  0.20054205960E+03  0.78668507385E+02 0.  0.
         66    2    3    3    0    0  0.33487939183E+02  0.17494052800E+02 -0.11994895144E+03  0.12577454014E+03  0.20000103761E+01 0.  0.
        -13    1    3    3    0    0 -0.33487939183E+02 -0.17494052800E+02 -0.64518887524E+02  0.74767519455E+02  0.10566000000E+00 0.  1.
         13    1    4    4    0    0  0.53134681460E+01  0.26315289954E+01 -0.21099561162E+02  0.21917128778E+02  0.10566000000E+00 0. -1.
        -13    1    4    4    0    0  0.17561292498E+02  0.91203422494E+01 -0.60428350769E+02  0.63585976266E+02  0.10566000000E+00 0.  1.
         14    1    4    4    0    0  0.10613178538E+02  0.57421815553E+01 -0.38421039514E+02  0.40271435100E+02  0.00000000000E+00 0. -1.
<mgrwt>
<rscale>  0 0.78668507E+02</rscale>
<asrwt>0</asrwt>
<pdfrwt beam="1">  1        2 0.29616142E-01 0.78668507E+02</pdfrwt>
<pdfrwt beam="2">  1       -1 0.12364787E-02 0.78668507E+02</pdfrwt>
<totfact> 0.22754522E+05</totfact>
</mgrwt>
</event>
<event>
 8    1  0.1226832E-024  0.7808511E+02  0.7818608E-02  0.1334575E+00
          2   -1    0    0  501    0  0.00000000000E+00  0.00000000000E+00  0.28408802488E+03  0.28408802489E+03  0.25500000000E-02 0. -1.
         -1   -1    0    0    0  501 -0.00000000000E+00 -0.00000000000E+00 -0.53656638567E+01  0.53656662238E+01  0.50400000000E-02 0.  1.
         24    2    1    2    0    0  0.35527136788E-14  0.00000000000E+00  0.27872236102E+03  0.28945369112E+03  0.78085112319E+02 0.  0.
         66    2    3    3    0    0  0.20412602232E+02 -0.18558761632E+02  0.24172613411E+03  0.24330356725E+03  0.19999900182E+01 0.  0.
        -13    1    3    3    0    0 -0.20412602232E+02  0.18558761632E+02  0.36996226911E+02  0.46150123866E+02  0.10566000000E+00 0.  1.
         13    1    4    4    0    0  0.37515194915E+01 -0.32800902666E+01  0.40757956135E+02  0.41061600590E+02  0.10566000000E+00 0. -1.
        -13    1    4    4    0    0  0.15953595480E+02 -0.14675421500E+02  0.19510618913E+03  0.19630670240E+03  0.10566000000E+00 0.  1.
        -14    1    4    4    0    0  0.70748726046E+00 -0.60324986493E+00  0.58619888460E+01  0.59352642615E+01  0.00000000000E+00 0.  1.
<mgrwt>
<rscale>  0 0.78085112E+02</rscale>
<asrwt>0</asrwt>
<pdfrwt beam="1">  1        2 0.43705858E-01 0.78085112E+02</pdfrwt>
<pdfrwt beam="2">  1       -1 0.82548678E-03 0.78085112E+02</pdfrwt>
<totfact> 0.26634579E+05</totfact>
</mgrwt>
</event>
<event>
 8    1  0.1226832E-024  0.7862843E+02  0.7818608E-02  0.1332989E+00
         -1   -1    0    0    0  501 -0.00000000000E+00  0.00000000000E+00  0.20778945738E+01  0.20779006862E+01  0.50400000000E-02 0.  1.
          2   -1    0    0  501    0  0.00000000000E+00 -0.00000000000E+00 -0.74383229145E+03  0.74383229146E+03  0.25500000000E-02 0. -1.
         24    2    1    2    0    0  0.00000000000E+00 -0.11102230246E-15 -0.74175439688E+03  0.74591019214E+03  0.78628426501E+02 0.  0.
         66    2    3    3    0    0 -0.12826629436E+02 -0.33724316912E+00 -0.72339306986E+03  0.72350961961E+03  0.19999999769E+01 0.  0.
        -13    1    3    3    0    0  0.12826629436E+02  0.33724316912E+00 -0.18361327022E+02  0.22400572530E+02  0.10566000000E+00 0.  1.
         13    1    4    4    0    0 -0.80803244987E+01 -0.98951461602E+00 -0.45838844763E+03  0.45846074081E+03  0.10566000000E+00 0. -1.
        -13    1    4    4    0    0 -0.12968057425E+01  0.55354354964E-02 -0.86166267928E+02  0.86176090817E+02  0.10566000000E+00 0.  1.
        -14    1    4    4    0    0 -0.34494991945E+01  0.64673601140E+00 -0.17883835430E+03  0.17887278798E+03  0.00000000000E+00 0.  1.
<mgrwt>
<rscale>  0 0.78628427E+02</rscale>
<asrwt>0</asrwt>
<pdfrwt beam="1">  1        2 0.11443553E+00 0.78628427E+02</pdfrwt>
<pdfrwt beam="2">  1       -1 0.31967715E-03 0.78628427E+02</pdfrwt>
<totfact> 0.35452417E+05</totfact>
</mgrwt>
</event>
<event>
 8    1  0.1226832E-024  0.7418528E+02  0.7818608E-02  0.1346413E+00
          2   -1    0    0  501    0  0.00000000000E+00  0.00000000000E+00  0.46297074823E+03  0.46297074824E+03  0.25500000000E-02 0. -1.
         -1   -1    0    0    0  501 -0.00000000000E+00 -0.00000000000E+00 -0.29718139398E+01  0.29718182136E+01  0.50400000000E-02 0.  1.
         24    2    1    2    0    0  0.35527136788E-14  0.00000000000E+00  0.45999893429E+03  0.46594256645E+03  0.74185279419E+02 0.  0.
         66    2    3    3    0    0  0.18941155588E+02 -0.29813765191E+02  0.30073254426E+03  0.30280635917E+03  0.20000011206E+01 0.  0.
        -13    1    3    3    0    0 -0.18941155588E+02  0.29813765191E+02  0.15926639003E+03  0.16313620728E+03  0.10566000000E+00 0.  1.
         13    1    4    4    0    0  0.72518729796E+00 -0.13146662483E+01  0.10481525751E+02  0.10589041036E+02  0.10566000000E+00 0. -1.
        -13    1    4    4    0    0  0.42935040017E+01 -0.63015042748E+01  0.69015428130E+02  0.69435463682E+02  0.10566000000E+00 0.  1.
         14    1    4    4    0    0  0.13922464289E+02 -0.22197594668E+02  0.22123559038E+03  0.22278185445E+03  0.00000000000E+00 0. -1.
<mgrwt>
<rscale>  0 0.74185279E+02</rscale>
<asrwt>0</asrwt>
<pdfrwt beam="1">  1        2 0.71226293E-01 0.74185279E+02</pdfrwt>
<pdfrwt beam="2">  1       -1 0.45720232E-03 0.74185279E+02</pdfrwt>
<totfact> 0.36130734E+05</totfact>
</mgrwt>
</event>
<event>
 8    1  0.1226832E-024  0.8142046E+02  0.7818608E-02  0.1325068E+00
          2   -1    0    0  501    0  0.00000000000E+00  0.00000000000E+00  0.30572437839E+03  0.30572437840E+03  0.25500000000E-02 0. -1.
         -1   -1    0    0    0  501 -0.00000000000E+00 -0.00000000000E+00 -0.54209691850E+01  0.54209715279E+01  0.50400000000E-02 0.  1.
         24    2    1    2    0    0  0.00000000000E+00  0.00000000000E+00  0.30030340921E+03  0.31114534993E+03  0.81420459358E+02 0.  0.
         66    2    3    3    0    0 -0.40927474544E+01 -0.40400198414E+02  0.14058106925E+03  0.14634194081E+03  0.19999984851E+01 0.  0.
        -13    1    3    3    0    0  0.40927474544E+01  0.40400198414E+02  0.15972233996E+03  0.16480340912E+03  0.10566000000E+00 0.  1.
         13    1    4    4    0    0  0.37714627331E-01 -0.10695432450E+01  0.32168182214E+01  0.33918178977E+01  0.10566000000E+00 0. -1.
        -13    1    4    4    0    0 -0.36503061183E+01 -0.29425250723E+02  0.10358085455E+03  0.10774123959E+03  0.10566000000E+00 0.  1.
         14    1    4    4    0    0 -0.48015596342E+00 -0.99054044457E+01  0.33783396477E+02  0.35208883318E+02  0.00000000000E+00 0. -1.
<mgrwt>
<rscale>  0 0.81420459E+02</rscale>
<asrwt>0</asrwt>
<pdfrwt beam="1">  1        2 0.47034526E-01 0.81420459E+02</pdfrwt>
<pdfrwt beam="2">  1       -1 0.83399533E-03 0.81420459E+02</pdfrwt>
<totfact> 0.24511229E+05</totfact>
</mgrwt>
</event>
<event>
 8    1  0.1226832E-024  0.8053886E+02  0.7818608E-02  0.1327529E+00
          2   -1    0    0  501    0  0.00000000000E+00  0.00000000000E+00  0.10665754670E+04  0.10665754670E+04  0.25500000000E-02 0. -1.
         -1   -1    0    0    0  501 -0.00000000000E+00 -0.00000000000E+00 -0.15204009676E+01  0.15204093212E+01  0.50400000000E-02 0.  1.
         24    2    1    2    0    0  0.00000000000E+00  0.00000000000E+00  0.10650550660E+04  0.10680958763E+04  0.80538856084E+02 0.  0.
         66    2    3    3    0    0 -0.23225231252E+02  0.82099190532E+01  0.95490926426E+03  0.95522903908E+03  0.19999978681E+01 0.  0.
        -13    1    3    3    0    0  0.23225231252E+02 -0.82099190532E+01  0.11014580174E+03  0.11286683721E+03  0.10566000000E+00 0.  1.
         13    1    4    4    0    0 -0.17518774741E+01  0.55209425070E+00  0.87212184576E+02  0.87231589377E+02  0.10566000000E+00 0. -1.
        -13    1    4    4    0    0 -0.99520156913E+01  0.42123979486E+01  0.41294631063E+03  0.41308770684E+03  0.10566000000E+00 0.  1.
         14    1    4    4    0    0 -0.11521338087E+02  0.34454268540E+01  0.45475076906E+03  0.45490974287E+03  0.00000000000E+00 0. -1.
<mgrwt>
<rscale>  0 0.80538856E+02</rscale>
<asrwt>0</asrwt>
<pdfrwt beam="1">  1        2 0.16408907E+00 0.80538856E+02</pdfrwt>
<pdfrwt beam="2">  1       -1 0.23390772E-03 0.80538856E+02</pdfrwt>
<totfact> 0.34662869E+05</totfact>
</mgrwt>
</event>
<event>
 8    1  0.1226832E-024  0.8066781E+02  0.7818608E-02  0.1327167E+00
         -1   -1    0    0    0  501 -0.00000000000E+00  0.00000000000E+00  0.17536037396E+01  0.17536109822E+01  0.50400000000E-02 0.  1.
          2   -1    0    0  501    0  0.00000000000E+00 -0.00000000000E+00 -0.92770130729E+03  0.92770130729E+03  0.25500000000E-02 0. -1.
         24    2    1    2    0    0  0.00000000000E+00 -0.17763568394E-14 -0.92594770355E+03  0.92945491828E+03  0.80667808924E+02 0.  0.
         66    2    3    3    0    0 -0.16831781891E+02  0.13944590902E+02 -0.85348780349E+03  0.85376998729E+03  0.19999998330E+01 0.  0.
        -13    1    3    3    0    0  0.16831781891E+02 -0.13944590902E+02 -0.72459900063E+02  0.75684930985E+02  0.10566000000E+00 0.  1.
         13    1    4    4    0    0 -0.86382682609E+01  0.70534126051E+01 -0.45096750725E+03  0.45110539131E+03  0.10566000000E+00 0. -1.
        -13    1    4    4    0    0 -0.44039452520E+01  0.42448873220E+01 -0.21205551919E+03  0.21214374416E+03  0.10566000000E+00 0.  1.
         14    1    4    4    0    0 -0.37895683783E+01  0.26462909746E+01 -0.19046477705E+03  0.19052085183E+03  0.00000000000E+00 0. -1.
<mgrwt>
<rscale>  0 0.80667809E+02</rscale>
<asrwt>0</asrwt>
<pdfrwt beam="1">  1        2 0.14272289E+00 0.80667809E+02</pdfrwt>
<pdfrwt beam="2">  1       -1 0.26978649E-03 0.80667809E+02</pdfrwt>
<totfact> 0.34304830E+05</totfact>
</mgrwt>
</event>
<event>
 8    1  0.1226832E-024  0.7855488E+02  0.7818608E-02  0.1333203E+00
          2   -1    0    0  501    0  0.00000000000E+00  0.00000000000E+00  0.99185642690E+02  0.99185642723E+02  0.25500000000E-02 0. -1.
         -1   -1    0    0    0  501 -0.00000000000E+00 -0.00000000000E+00 -0.15553837793E+02  0.15553838610E+02  0.50400000000E-02 0.  1.
         24    2    1    2    0    0  0.10658141036E-13  0.53290705182E-14  0.83631804897E+02  0.11473948133E+03  0.78554883911E+02 0.  0.
         66    2    3    3    0    0  0.27062549689E+02  0.15836287835E+02  0.76331792422E+02  0.82545212368E+02  0.19999856112E+01 0.  0.
        -13    1    3    3    0    0 -0.27062549689E+02 -0.15836287835E+02  0.73000124750E+01  0.32194268965E+02  0.10566000000E+00 0.  1.
         13    1    4    4    0    0  0.94297649816E+01  0.53131151009E+01  0.24189681261E+02  0.26500971741E+02  0.10566000000E+00 0. -1.
        -13    1    4    4    0    0  0.70725138449E+01  0.44740413233E+01  0.21961529959E+02  0.23502286272E+02  0.10566000000E+00 0.  1.
         14    1    4    4    0    0  0.10560270862E+02  0.60491314107E+01  0.30180581203E+02  0.32541954355E+02  0.00000000000E+00 0. -1.
<mgrwt>
<rscale>  0 0.78554884E+02</rscale>
<asrwt>0</asrwt>
<pdfrwt beam="1">  1        2 0.15259330E-01 0.78554884E+02</pdfrwt>
<pdfrwt beam="2">  1       -1 0.23928981E-02 0.78554884E+02</pdfrwt>
<totfact> 0.18569676E+05</totfact>
</mgrwt>
</event>
<event>
 8    1  0.1226832E-024  0.8306521E+02  0.7818608E-02  0.1320571E+00
         -1   -1    0    0    0  501 -0.00000000000E+00  0.00000000000E+00  0.24239089634E+01  0.24239142032E+01  0.50400000000E-02 0.  1.
          2   -1    0    0  501    0  0.00000000000E+00 -0.00000000000E+00 -0.71164204893E+03  0.71164204894E+03  0.25500000000E-02 0. -1.
         24    2    1    2    0    0 -0.88817841970E-15  0.00000000000E+00 -0.70921813997E+03  0.71406596314E+03  0.83065213262E+02 0.  0.
         66    2    3    3    0    0  0.74538601146E+01 -0.75892400831E+01 -0.69972308582E+03  0.69980679721E+03  0.19999992527E+01 0.  0.
        -13    1    3    3    0    0 -0.74538601146E+01  0.75892400831E+01 -0.94950541455E+01  0.14259165926E+02  0.10566000000E+00 0.  1.
         13    1    4    4    0    0  0.26303112997E+01 -0.24776950434E+01 -0.28745534639E+03  0.28747807715E+03  0.10566000000E+00 0. -1.
        -13    1    4    4    0    0  0.93889089626E+00 -0.86508725875E+00 -0.57221605874E+02  0.57235943557E+02  0.10566000000E+00 0.  1.
         14    1    4    4    0    0  0.38846579186E+01 -0.42464577809E+01 -0.35504613356E+03  0.35509277650E+03  0.00000000000E+00 0. -1.
<mgrwt>
<rscale>  0 0.83065213E+02</rscale>
<asrwt>0</asrwt>
<pdfrwt beam="1">  1        2 0.10948323E+00 0.83065213E+02</pdfrwt>
<pdfrwt beam="2">  1       -1 0.37291004E-03 0.83065213E+02</pdfrwt>
<totfact> 0.30444715E+05</totfact>
</mgrwt>
</event>
<event>
 8    1  0.1226832E-024  0.8043238E+02  0.7818608E-02  0.1327829E+00
          2   -1    0    0  501    0  0.00000000000E+00  0.00000000000E+00  0.27798311956E+02  0.27798312073E+02  0.25500000000E-02 0. -1.
         -1   -1    0    0    0  501 -0.00000000000E+00 -0.00000000000E+00 -0.58181295387E+02  0.58181295605E+02  0.50400000000E-02 0.  1.
         24    2    1    2    0    0  0.00000000000E+00  0.00000000000E+00 -0.30382983431E+02  0.85979607678E+02  0.80432376903E+02 0.  0.
         66    2    3    3    0    0 -0.34914849661E+02  0.67627954095E+01  0.48135364563E+01  0.35943737496E+02  0.20000008473E+01 0.  0.
        -13    1    3    3    0    0  0.34914849661E+02 -0.67627954095E+01 -0.35196519888E+02  0.50035870182E+02  0.10566000000E+00 0.  1.
         13    1    4    4    0    0 -0.74844111788E+01  0.17258296938E+01  0.79778108357E+00  0.77228568237E+01  0.10566000000E+00 0.  1.
        -13    1    4    4    0    0 -0.37495624520E+01  0.39965296157E+00  0.99946592768E+00  0.39024399095E+01  0.10566000000E+00 0. -1.
         14    1    4    4    0    0 -0.23680876030E+02  0.46373127541E+01  0.30162894451E+01  0.24318440763E+02  0.00000000000E+00 0. -1.
<mgrwt>
<rscale>  0 0.80432377E+02</rscale>
<asrwt>0</asrwt>
<pdfrwt beam="1">  1        2 0.42766634E-02 0.80432377E+02</pdfrwt>
<pdfrwt beam="2">  1       -1 0.89509685E-02 0.80432377E+02</pdfrwt>
<totfact> 0.13055012E+05</totfact>
</mgrwt>
</event>
<event>
 8    1  0.1226832E-024  0.7913228E+02  0.7818608E-02  0.1331532E+00
          2   -1    0    0  501    0  0.00000000000E+00  0.00000000000E+00  0.42764318420E+03  0.42764318421E+03  0.25500000000E-02 0. -1.
         -1   -1    0    0    0  501 -0.00000000000E+00 -0.00000000000E+00 -0.36607124883E+01  0.36607159578E+01  0.50400000000E-02 0.  1.
         24    2    1    2    0    0  0.00000000000E+00  0.00000000000E+00  0.42398247171E+03  0.43130390017E+03  0.79132281523E+02 0.  0.
         66    2    3    3    0    0  0.47699227755E+01  0.21879331526E+02  0.38974775242E+03  0.39039565552E+03  0.20000044923E+01 0.  0.
        -13    1    3    3    0    0 -0.47699227755E+01 -0.21879331526E+02  0.34234719293E+02  0.40908244651E+02  0.10566000000E+00 0.  1.
         13    1    4    4    0    0  0.72740052809E+00  0.39640123575E+01  0.78267147428E+02  0.78370913202E+02  0.10566000000E+00 0. -1.
        -13    1    4    4    0    0  0.73189909493E+00  0.52375313208E+01  0.97412598714E+02  0.97556101618E+02  0.10566000000E+00 0.  1.
         14    1    4    4    0    0  0.33106231525E+01  0.12677787847E+02  0.21406800628E+03  0.21446864070E+03  0.00000000000E+00 0. -1.
<mgrwt>
<rscale>  0 0.79132282E+02</rscale>
<asrwt>0</asrwt>
<pdfrwt beam="1">  1        2 0.65791259E-01 0.79132282E+02</pdfrwt>
<pdfrwt beam="2">  1       -1 0.56318681E-03 0.79132282E+02</pdfrwt>
<totfact> 0.29749080E+05</totfact>
</mgrwt>
</event>
<event>
 8    1  0.1226832E-024  0.8062225E+02  0.7818608E-02  0.1327295E+00
          2   -1    0    0  501    0  0.00000000000E+00  0.00000000000E+00  0.87025178288E+03  0.87025178289E+03  0.25500000000E-02 0. -1.
         -1   -1    0    0    0  501 -0.00000000000E+00 -0.00000000000E+00 -0.18672571321E+01  0.18672639339E+01  0.50400000000E-02 0.  1.
         24    2    1    2    0    0  0.17763568394E-14  0.44408920985E-15  0.86838452575E+03  0.87211904682E+03  0.80622250426E+02 0.  0.
         66    2    3    3    0    0  0.10360662048E+02  0.36912847048E+01  0.85369386897E+03  0.85376705888E+03  0.20000006123E+01 0.  0.
        -13    1    3    3    0    0 -0.10360662048E+02 -0.36912847048E+01  0.14690656779E+02  0.18351987943E+02  0.10566000000E+00 0.  1.
         13    1    4    4    0    0  0.25744089843E+01  0.52108511130E+00  0.24324268419E+03  0.24325688826E+03  0.10566000000E+00 0. -1.
        -13    1    4    4    0    0  0.54886896229E+01  0.27537861627E+01  0.42890470330E+03  0.42894867377E+03  0.10566000000E+00 0.  1.
        -14    1    4    4    0    0  0.22975634408E+01  0.41641343081E+00  0.18154648148E+03  0.18156149685E+03  0.00000000000E+00 0.  1.
<mgrwt>
<rscale>  0 0.80622250E+02</rscale>
<asrwt>0</asrwt>
<pdfrwt beam="1">  1        2 0.13388470E+00 0.80622250E+02</pdfrwt>
<pdfrwt beam="2">  1       -1 0.28727126E-03 0.80622250E+02</pdfrwt>
<totfact> 0.34112658E+05</totfact>
</mgrwt>
</event>
<event>
 8    1  0.1226832E-024  0.8688336E+02  0.7818608E-02  0.1310580E+00
          2   -1    0    0  501    0  0.00000000000E+00  0.00000000000E+00  0.19587421748E+03  0.19587421750E+03  0.25500000000E-02 0. -1.
         -1   -1    0    0    0  501 -0.00000000000E+00 -0.00000000000E+00 -0.96346500574E+01  0.96346513757E+01  0.50400000000E-02 0.  1.
         24    2    1    2    0    0 -0.88817841970E-15  0.35527136788E-14  0.18623956742E+03  0.20550886887E+03  0.86883362685E+02 0.  0.
         66    2    3    3    0    0  0.44326984806E+01 -0.26058642119E+02  0.17464370876E+03  0.17664406770E+03  0.19999990849E+01 0.  0.
        -13    1    3    3    0    0 -0.44326984806E+01  0.26058642119E+02  0.11595858658E+02  0.28864801176E+02  0.10566000000E+00 0.  1.
         13    1    4    4    0    0  0.32582206583E+01 -0.18829993184E+02  0.12266720904E+03  0.12414684846E+03  0.10566000000E+00 0. -1.
        -13    1    4    4    0    0  0.10991347454E+01 -0.65049157669E+01  0.48381212158E+02  0.48829037265E+02  0.10566000000E+00 0.  1.
         14    1    4    4    0    0  0.75343076827E-01 -0.72373316833E+00  0.35952875637E+01  0.36681819671E+01  0.00000000000E+00 0. -1.
<mgrwt>
<rscale>  0 0.86883363E+02</rscale>
<asrwt>0</asrwt>
<pdfrwt beam="1">  1        2 0.30134495E-01 0.86883363E+02</pdfrwt>
<pdfrwt beam="2">  1       -1 0.14822540E-02 0.86883363E+02</pdfrwt>
<totfact> 0.17595667E+05</totfact>
</mgrwt>
</event>
<event>
 8    1  0.1226832E-024  0.7996111E+02  0.7818608E-02  0.1329162E+00
         -1   -1    0    0    0  501 -0.00000000000E+00  0.00000000000E+00  0.14830591931E+02  0.14830592788E+02  0.50400000000E-02 0.  1.
          2   -1    0    0  501    0  0.00000000000E+00 -0.00000000000E+00 -0.10778023608E+03  0.10778023611E+03  0.25500000000E-02 0. -1.
         24    2    1    2    0    0  0.00000000000E+00 -0.17763568394E-14 -0.92949644144E+02  0.12261082889E+03  0.79961109393E+02 0.  0.
         66    2    3    3    0    0 -0.16572188397E+02  0.14012339163E+02 -0.97945409830E+02  0.10034085099E+03  0.19999982121E+01 0.  0.
        -13    1    3    3    0    0  0.16572188397E+02 -0.14012339163E+02  0.49957656865E+01  0.22269977906E+02  0.10566000000E+00 0.  1.
         13    1    4    4    0    0 -0.10178653018E+02  0.92683963078E+01 -0.61932410353E+02  0.63444012826E+02  0.10566000000E+00 0. -1.
        -13    1    4    4    0    0 -0.50967455479E+01  0.38285931522E+01 -0.26783157558E+02  0.27531502565E+02  0.10566000000E+00 0.  1.
        -14    1    4    4    0    0 -0.12967898314E+01  0.91534970340E+00 -0.92298419199E+01  0.93653355953E+01  0.00000000000E+00 0.  1.
<mgrwt>
<rscale>  0 0.79961109E+02</rscale>
<asrwt>0</asrwt>
<pdfrwt beam="1">  1        2 0.16581574E-01 0.79961109E+02</pdfrwt>
<pdfrwt beam="2">  1       -1 0.22816297E-02 0.79961109E+02</pdfrwt>
<totfact> 0.18130398E+05</totfact>
</mgrwt>
</event>
<event>
 8    1  0.1226832E-024  0.7925820E+02  0.7818608E-02  0.1331170E+00
          2   -1    0    0  501    0  0.00000000000E+00  0.00000000000E+00  0.23584612386E+03  0.23584612388E+03  0.25500000000E-02 0. -1.
         -1   -1    0    0    0  501 -0.00000000000E+00 -0.00000000000E+00 -0.66588555458E+01  0.66588574531E+01  0.50400000000E-02 0.  1.
         24    2    1    2    0    0  0.71054273576E-14 -0.88817841970E-15  0.22918726832E+03  0.24250498133E+03  0.79258198384E+02 0.  0.
         66    2    3    3    0    0  0.33759022366E+02 -0.46466540328E+01  0.17640816562E+03  0.17968056068E+03  0.20000006794E+01 0.  0.
        -13    1    3    3    0    0 -0.33759022366E+02  0.46466540328E+01  0.52779102693E+02  0.62824420649E+02  0.10566000000E+00 0.  1.
         13    1    4    4    0    0  0.11241695465E+02 -0.14008647619E+01  0.57259984285E+02  0.58369984610E+02  0.10566000000E+00 0. -1.
        -13    1    4    4    0    0  0.69843096698E+01 -0.17169082833E+01  0.38275512493E+02  0.38945530889E+02  0.10566000000E+00 0.  1.
        -14    1    4    4    0    0  0.15533017231E+02 -0.15288809877E+01  0.80872668845E+02  0.82365045180E+02  0.00000000000E+00 0.  1.
<mgrwt>
<rscale>  0 0.79258198E+02</rscale>
<asrwt>0</asrwt>
<pdfrwt beam="1">  1        2 0.36284013E-01 0.79258198E+02</pdfrwt>
<pdfrwt beam="2">  1       -1 0.10244396E-02 0.79258198E+02</pdfrwt>
<totfact> 0.23956474E+05</totfact>
</mgrwt>
</event>
<event>
 8    1  0.1226832E-024  0.7882838E+02  0.7818608E-02  0.1332410E+00
         -1   -1    0    0    0  501 -0.00000000000E+00  0.00000000000E+00  0.32016453958E+01  0.32016493628E+01  0.50400000000E-02 0.  1.
          2   -1    0    0  501    0  0.00000000000E+00 -0.00000000000E+00 -0.48521216399E+03  0.48521216400E+03  0.25500000000E-02 0. -1.
         24    2    1    2    0    0  0.00000000000E+00  0.00000000000E+00 -0.48201051860E+03  0.48841381336E+03  0.78828377155E+02 0.  0.
         66    2    3    3    0    0  0.16182435914E+02  0.35792734480E+02 -0.25920512627E+03  0.26217224979E+03  0.20000004109E+01 0.  0.
        -13    1    3    3    0    0 -0.16182435914E+02 -0.35792734480E+02 -0.22280539232E+03  0.22624156357E+03  0.10566000000E+00 0.  1.
         13    1    4    4    0    0  0.35014051564E+01  0.71754036178E+01 -0.51679306440E+02  0.52292524641E+02  0.10566000000E+00 0. -1.
        -13    1    4    4    0    0  0.75495429112E+00  0.12985943248E+01 -0.12174197847E+02  0.12266970305E+02  0.10566000000E+00 0.  1.
        -14    1    4    4    0    0  0.11926076466E+02  0.27318736537E+02 -0.19535162199E+03  0.19761275485E+03  0.00000000000E+00 0.  1.
<mgrwt>
<rscale>  0 0.78828377E+02</rscale>
<asrwt>0</asrwt>
<pdfrwt beam="1">  1        2 0.74647967E-01 0.78828377E+02</pdfrwt>
<pdfrwt beam="2">  1       -1 0.49256152E-03 0.78828377E+02</pdfrwt>
<totfact> 0.31340687E+05</totfact>
</mgrwt>
</event>
<event>
 8    1  0.1226832E-024  0.8049222E+02  0.7818608E-02  0.1327660E+00
         -1   -1    0    0    0  501 -0.00000000000E+00  0.00000000000E+00  0.40950849842E+01  0.40950880857E+01  0.50400000000E-02 0.  1.
          2   -1    0    0  501    0  0.00000000000E+00 -0.00000000000E+00 -0.39553483796E+03  0.39553483797E+03  0.25500000000E-02 0. -1.
         24    2    1    2    0    0 -0.71054273576E-14  0.00000000000E+00 -0.39143975298E+03  0.39962992606E+03  0.80492220669E+02 0.  0.
         66    2    3    3    0    0  0.29030103133E+02  0.13771478674E+02 -0.31595880272E+03  0.31759465603E+03  0.20000020787E+01 0.  0.
        -13    1    3    3    0    0 -0.29030103133E+02 -0.13771478674E+02 -0.75480950259E+02  0.82035270030E+02  0.10566000000E+00 0.  1.
         13    1    4    4    0    0  0.17376795174E+01  0.55180636763E+00 -0.16423839298E+02  0.16525062230E+02  0.10566000000E+00 0.  1.
        -13    1    4    4    0    0  0.31897657355E+01  0.19732061258E+01 -0.39648818376E+02  0.39825972813E+02  0.10566000000E+00 0.  1.
         14    1    4    4    0    0  0.24102657880E+02  0.11246466180E+02 -0.25988614505E+03  0.26124362099E+03  0.00000000000E+00 0. -1.
<mgrwt>
<rscale>  0 0.80492221E+02</rscale>
<asrwt>0</asrwt>
<pdfrwt beam="1">  1        2 0.60851484E-01 0.80492221E+02</pdfrwt>
<pdfrwt beam="2">  1       -1 0.63001362E-03 0.80492221E+02</pdfrwt>
<totfact> 0.27695271E+05</totfact>
</mgrwt>
</event>
<event>
 8    1  0.1226832E-024  0.8387706E+02  0.7818608E-02  0.1318396E+00
          2   -1    0    0  501    0  0.00000000000E+00  0.00000000000E+00  0.18967937222E+03  0.18967937223E+03  0.25500000000E-02 0. -1.
         -1   -1    0    0    0  501 -0.00000000000E+00 -0.00000000000E+00 -0.92727014414E+01  0.92727028111E+01  0.50400000000E-02 0.  1.
         24    2    1    2    0    0  0.11102230246E-15  0.35527136788E-14  0.18040667078E+03  0.19895207504E+03  0.83877060657E+02 0.  0.
         66    2    3    3    0    0 -0.84581996041E+00 -0.25571314886E+02  0.16900273333E+03  0.17094013991E+03  0.20000012531E+01 0.  0.
        -13    1    3    3    0    0  0.84581996041E+00  0.25571314886E+02  0.11403937446E+02  0.28011935130E+02  0.10566000000E+00 0.  1.
         13    1    4    4    0    0 -0.12562691562E+01 -0.14387278006E+02  0.94802393858E+02  0.95896178369E+02  0.10566000000E+00 0. -1.
        -13    1    4    4    0    0 -0.18762604954E+00 -0.12239319086E+01  0.82163351003E+01  0.83097857594E+01  0.10566000000E+00 0. -1.
        -14    1    4    4    0    0  0.59807524529E+00 -0.99601049720E+01  0.65984004371E+02  0.66734175786E+02  0.00000000000E+00 0.  1.
<mgrwt>
<rscale>  0 0.83877061E+02</rscale>
<asrwt>0</asrwt>
<pdfrwt beam="1">  1        2 0.29181442E-01 0.83877061E+02</pdfrwt>
<pdfrwt beam="2">  1       -1 0.14265696E-02 0.83877061E+02</pdfrwt>
<totfact> 0.19107666E+05</totfact>
</mgrwt>
</event>
<event>
 8    1  0.1226832E-024  0.7860690E+02  0.7818608E-02  0.1333052E+00
          2   -1    0    0  501    0  0.00000000000E+00  0.00000000000E+00  0.14470456379E+04  0.14470456379E+04  0.25500000000E-02 0. -1.
         -1   -1    0    0    0  501 -0.00000000000E+00 -0.00000000000E+00 -0.10675217133E+01  0.10675336107E+01  0.50400000000E-02 0.  1.
         24    2    1    2    0    0 -0.17763568394E-14  0.00000000000E+00  0.14459781162E+04  0.14481131715E+04  0.78606901852E+02 0.  0.
         66    2    3    3    0    0  0.15858211493E+02  0.11132399953E+01  0.13851272740E+04  0.13852199419E+04  0.20000051409E+01 0.  0.
        -13    1    3    3    0    0 -0.15858211493E+02 -0.11132399953E+01  0.60850842159E+02  0.62893229608E+02  0.10566000000E+00 0.  1.
         13    1    4    4    0    0  0.91312691038E+01  0.13474458809E+00  0.77389304759E+03  0.77394693520E+03  0.10566000000E+00 0. -1.
        -13    1    4    4    0    0  0.36507761414E+01  0.39153554874E+00  0.37583899802E+03  0.37585694760E+03  0.10566000000E+00 0.  1.
         14    1    4    4    0    0  0.30761662479E+01  0.58695985843E+00  0.23539522844E+03  0.23541605912E+03  0.00000000000E+00 0. -1.
<mgrwt>
<rscale>  0 0.78606902E+02</rscale>
<asrwt>0</asrwt>
<pdfrwt beam="1">  1        2 0.22262293E+00 0.78606902E+02</pdfrwt>
<pdfrwt beam="2">  1       -1 0.16423464E-03 0.78606902E+02</pdfrwt>
<totfact> 0.35245022E+05</totfact>
</mgrwt>
</event>
<event>
 8    1  0.1226832E-024  0.7968344E+02  0.7818608E-02  0.1329952E+00
          2   -1    0    0  501    0  0.00000000000E+00  0.00000000000E+00  0.31137106808E+03  0.31137106809E+03  0.25500000000E-02 0. -1.
         -1   -1    0    0    0  501 -0.00000000000E+00 -0.00000000000E+00 -0.50979763592E+01  0.50979788505E+01  0.50400000000E-02 0.  1.
         24    2    1    2    0    0 -0.17763568394E-14  0.00000000000E+00  0.30627309172E+03  0.31646904694E+03  0.79683442191E+02 0.  0.
         66    2    3    3    0    0 -0.11222998431E+02  0.62706431593E+01  0.30289756962E+03  0.30317686981E+03  0.20000115601E+01 0.  0.
        -13    1    3    3    0    0  0.11222998431E+02 -0.62706431593E+01  0.33755221012E+01  0.13292177132E+02  0.10566000000E+00 0.  1.
         13    1    4    4    0    0 -0.74356111749E+01  0.37565230290E+01  0.18743891198E+03  0.18762397679E+03  0.10566000000E+00 0. -1.
        -13    1    4    4    0    0 -0.62125692515E+00  0.93008893915E+00  0.26381755732E+02  0.26405666535E+02  0.10566000000E+00 0.  1.
        -14    1    4    4    0    0 -0.31661303312E+01  0.15840311912E+01  0.89076901905E+02  0.89147226480E+02  0.00000000000E+00 0.  1.
<mgrwt>
<rscale>  0 0.79683442E+02</rscale>
<asrwt>0</asrwt>
<pdfrwt beam="1">  1        2 0.47903253E-01 0.79683442E+02</pdfrwt>
<pdfrwt beam="2">  1       -1 0.78430406E-03 0.79683442E+02</pdfrwt>
<totfact> 0.26109745E+05</totfact>
</mgrwt>
</event>
<event>
 8    1  0.1226832E-024  0.8004108E+02  0.7818608E-02  0.1328935E+00
         -1   -1    0    0    0  501 -0.00000000000E+00  0.00000000000E+00  0.19553420663E+02  0.19553421313E+02  0.50400000000E-02 0.  1.
          2   -1    0    0  501    0  0.00000000000E+00 -0.00000000000E+00 -0.81911178380E+02  0.81911178420E+02  0.25500000000E-02 0. -1.
         24    2    1    2    0    0  0.17763568394E-14  0.00000000000E+00 -0.62357757717E+02  0.10146459973E+03  0.80041083522E+02 0.  0.
         66    2    3    3    0    0 -0.14214012144E+02  0.37369228848E+02 -0.29843975526E+02  0.49931555942E+02  0.19999994238E+01 0.  0.
        -13    1    3    3    0    0  0.14214012144E+02 -0.37369228848E+02 -0.32513782191E+02  0.51533043790E+02  0.10566000000E+00 0.  1.
         13    1    4    4    0    0 -0.58113598850E+01  0.17140718409E+02 -0.13048901488E+02  0.22312801827E+02  0.10566000000E+00 0. -1.
        -13    1    4    4    0    0 -0.35708192941E+01  0.74252139983E+01 -0.64240710457E+01  0.10448177171E+02  0.10566000000E+00 0.  1.
         14    1    4    4    0    0 -0.48318329648E+01  0.12803296440E+02 -0.10371002992E+02  0.17170576944E+02  0.00000000000E+00 0. -1.
<mgrwt>
<rscale>  0 0.80041084E+02</rscale>
<asrwt>0</asrwt>
<pdfrwt beam="1">  1        2 0.12601720E-01 0.80041084E+02</pdfrwt>
<pdfrwt beam="2">  1       -1 0.30082187E-02 0.80041084E+02</pdfrwt>
<totfact> 0.16774454E+05</totfact>
</mgrwt>
</event>
<event>
 8    1  0.1290390E-024  0.8109867E+02  0.7818608E-02  0.1325962E+00
          2   -1    0    0  501    0  0.00000000000E+00  0.00000000000E+00  0.44089573703E+03  0.44089573704E+03  0.25500000000E-02 0. -1.
         -1   -1    0    0    0  501 -0.00000000000E+00 -0.00000000000E+00 -0.37293351565E+01  0.37293385621E+01  0.50400000000E-02 0.  1.
         24    2    1    2    0    0  0.00000000000E+00  0.35527136788E-14  0.43716640187E+03  0.44462507560E+03  0.81098674002E+02 0.  0.
         66    2    3    3    0    0 -0.82112701007E+01  0.25708196567E+02  0.38445728200E+03  0.38540853392E+03  0.20000006130E+01 0.  0.
        -13    1    3    3    0    0  0.82112701007E+01 -0.25708196567E+02  0.52709119869E+02  0.59216541682E+02  0.10566000000E+00 0.  1.
         13    1    4    4    0    0 -0.45337067237E+01  0.14907230430E+02  0.22473568805E+03  0.22527521094E+03  0.10566000000E+00 0. -1.
        -13    1    4    4    0    0 -0.22333079473E+01  0.60236525173E+01  0.97884886257E+02  0.98095535961E+02  0.10566000000E+00 0.  1.
        -14    1    4    4    0    0 -0.14442554297E+01  0.47773136195E+01  0.61836707699E+02  0.62037787019E+02  0.00000000000E+00 0.  1.
<mgrwt>
<rscale>  0 0.81098674E+02</rscale>
<asrwt>0</asrwt>
<pdfrwt beam="1">  1        2 0.67830063E-01 0.81098674E+02</pdfrwt>
<pdfrwt beam="2">  1       -1 0.57374456E-03 0.81098674E+02</pdfrwt>
<totfact> 0.28194242E+05</totfact>
</mgrwt>
</event>
<event>
 8    1  0.1226832E-024  0.8065477E+02  0.7818608E-02  0.1327203E+00
          2   -1    0    0  501    0  0.00000000000E+00  0.00000000000E+00  0.57085452467E+02  0.57085452524E+02  0.25500000000E-02 0. -1.
         -1   -1    0    0    0  501 -0.00000000000E+00 -0.00000000000E+00 -0.28488836467E+02  0.28488836913E+02  0.50400000000E-02 0.  1.
         24    2    1    2    0    0  0.00000000000E+00  0.17763568394E-14  0.28596616000E+02  0.85574289437E+02  0.80654773982E+02 0.  0.
         66    2    3    3    0    0  0.28946238768E+02  0.13960202376E+02  0.40111749217E+02  0.51436605769E+02  0.19999996370E+01 0.  0.
        -13    1    3    3    0    0 -0.28946238768E+02 -0.13960202376E+02 -0.11515133217E+02  0.34137683669E+02  0.10566000000E+00 0.  1.
         13    1    4    4    0    0  0.11560272677E+02  0.55716578287E+01  0.16330620267E+02  0.20769776063E+02  0.10566000000E+00 0. -1.
        -13    1    4    4    0    0  0.33240798539E+01  0.11126253912E+01  0.37543748038E+01  0.51375029284E+01  0.10566000000E+00 0.  1.
        -14    1    4    4    0    0  0.14061886237E+02  0.72759191564E+01  0.20026754146E+02  0.25529326778E+02  0.00000000000E+00 0.  1.
<mgrwt>
<rscale>  0 0.80654774E+02</rscale>
<asrwt>0</asrwt>
<pdfrwt beam="1">  1        2 0.87823771E-02 0.80654774E+02</pdfrwt>
<pdfrwt beam="2">  1       -1 0.43828981E-02 0.80654774E+02</pdfrwt>
<totfact> 0.15051317E+05</totfact>
</mgrwt>
</event>
<event>
 8    1  0.1226832E-024  0.8046908E+02  0.7818608E-02  0.1327726E+00
         -1   -1    0    0    0  501 -0.00000000000E+00  0.00000000000E+00  0.18580198786E+01  0.18580267143E+01  0.50400000000E-02 0.  1.
          2   -1    0    0  501    0  0.00000000000E+00 -0.00000000000E+00 -0.87125821424E+03  0.87125821425E+03  0.25500000000E-02 0. -1.
         24    2    1    2    0    0  0.00000000000E+00  0.00000000000E+00 -0.86940019436E+03  0.87311624096E+03  0.80469076477E+02 0.  0.
         66    2    3    3    0    0 -0.32484591047E+02 -0.91298698986E+01 -0.67224307184E+03  0.67309237912E+03  0.20000029895E+01 0.  0.
        -13    1    3    3    0    0  0.32484591047E+02  0.91298698986E+01 -0.19715712252E+03  0.20002386184E+03  0.10566000000E+00 0.  1.
         13    1    4    4    0    0 -0.25301269542E+02 -0.79013257997E+01 -0.52998077043E+03  0.53064320723E+03  0.10566000000E+00 0. -1.
        -13    1    4    4    0    0 -0.56333108795E+01 -0.96911900219E+00 -0.11380366625E+03  0.11394717636E+03  0.10566000000E+00 0.  1.
         14    1    4    4    0    0 -0.15500106250E+01 -0.25942509674E+00 -0.28458635166E+02  0.28501995541E+02  0.00000000000E+00 0. -1.
<mgrwt>
<rscale>  0 0.80469076E+02</rscale>
<asrwt>0</asrwt>
<pdfrwt beam="1">  1        2 0.13403940E+00 0.80469076E+02</pdfrwt>
<pdfrwt beam="2">  1       -1 0.28585043E-03 0.80469076E+02</pdfrwt>
<totfact> 0.34286759E+05</totfact>
</mgrwt>
</event>
<event>
 8    1  0.1226832E-024  0.8580416E+02  0.7818608E-02  0.1313343E+00
          2   -1    0    0  501    0  0.00000000000E+00  0.00000000000E+00  0.11038317018E+02  0.11038317313E+02  0.25500000000E-02 0. -1.
         -1   -1    0    0    0  501 -0.00000000000E+00 -0.00000000000E+00 -0.16674537843E+03  0.16674537850E+03  0.50400000000E-02 0.  1.
         24    2    1    2    0    0  0.00000000000E+00 -0.35527136788E-14 -0.15570706141E+03  0.17778369582E+03  0.85804157972E+02 0.  0.
         66    2    3    3    0    0 -0.88354737810E+01 -0.25440139576E+02 -0.87614976858E+01  0.28390670006E+02  0.20000007774E+01 0.  0.
        -13    1    3    3    0    0  0.88354737810E+01  0.25440139576E+02 -0.14694556372E+03  0.14939302581E+03  0.10566000000E+00 0.  1.
         13    1    4    4    0    0 -0.33605477026E+00 -0.18414220632E+01 -0.23700483032E+00  0.18897363173E+01  0.10566000000E+00 0. -1.
        -13    1    4    4    0    0 -0.20597537397E+01 -0.64858720355E+01 -0.21569094806E+01  0.71395058703E+01  0.10566000000E+00 0.  1.
         14    1    4    4    0    0 -0.64396652711E+01 -0.17112845477E+02 -0.63675833749E+01  0.19361427819E+02  0.00000000000E+00 0. -1.
<mgrwt>
<rscale>  0 0.85804158E+02</rscale>
<asrwt>0</asrwt>
<pdfrwt beam="1">  1        2 0.16982028E-02 0.85804158E+02</pdfrwt>
<pdfrwt beam="2">  1       -1 0.25653133E-01 0.85804158E+02</pdfrwt>
<totfact> 0.87838614E+04</totfact>
</mgrwt>
</event>
<event>
 8    1  0.1226832E-024  0.8125915E+02  0.7818608E-02  0.1325516E+00
          2   -1    0    0  501    0  0.00000000000E+00  0.00000000000E+00  0.11520358971E+02  0.11520359253E+02  0.25500000000E-02 0. -1.
         -1   -1    0    0    0  501 -0.00000000000E+00 -0.00000000000E+00 -0.14329089113E+03  0.14329089121E+03  0.50400000000E-02 0.  1.
         24    2    1    2    0    0  0.00000000000E+00 -0.35527136788E-14 -0.13177053215E+03  0.15481125047E+03  0.81259154111E+02 0.  0.
         66    2    3    3    0    0 -0.22230092068E+02  0.17614454773E+02 -0.10566913167E+02  0.30333242650E+02  0.19999863705E+01 0.  0.
        -13    1    3    3    0    0  0.22230092068E+02 -0.17614454773E+02 -0.12120361899E+03  0.12447800782E+03  0.10566000000E+00 0.  1.
         13    1    4    4    0    0 -0.69845353375E+01  0.51094849492E+01 -0.38737020703E+01  0.94819461131E+01  0.10566000000E+00 0. -1.
        -13    1    4    4    0    0 -0.66468577084E+01  0.60866414604E+01 -0.28318106922E+01  0.94476577783E+01  0.10566000000E+00 0.  1.
         14    1    4    4    0    0 -0.85986990219E+01  0.64183283635E+01 -0.38614004043E+01  0.11403638758E+02  0.00000000000E+00 0. -1.
<mgrwt>
<rscale>  0 0.81259154E+02</rscale>
<asrwt>0</asrwt>
<pdfrwt beam="1">  1        2 0.17723630E-02 0.81259154E+02</pdfrwt>
<pdfrwt beam="2">  1       -1 0.22044751E-01 0.81259154E+02</pdfrwt>
<totfact> 0.10490500E+05</totfact>
</mgrwt>
</event>
<event>
 8    1  0.1226832E-024  0.7862909E+02  0.7818608E-02  0.1332988E+00
          2   -1    0    0  501    0  0.00000000000E+00  0.00000000000E+00  0.28290781207E+03  0.28290781208E+03  0.25500000000E-02 0. -1.
         -1   -1    0    0    0  501 -0.00000000000E+00 -0.00000000000E+00 -0.54633806073E+01  0.54633829321E+01  0.50400000000E-02 0.  1.
         24    2    1    2    0    0  0.00000000000E+00  0.35527136788E-14  0.27744443146E+03  0.28837119502E+03  0.78629088536E+02 0.  0.
         66    2    3    3    0    0  0.17496066667E+02 -0.24382566692E+02  0.23181029970E+03  0.23375336776E+03  0.19999971668E+01 0.  0.
        -13    1    3    3    0    0 -0.17496066667E+02  0.24382566692E+02  0.45634131768E+02  0.54617827251E+02  0.10566000000E+00 0.  1.
         13    1    4    4    0    0  0.55449584942E+01 -0.86378982886E+01  0.75617608943E+02  0.76311164306E+02  0.10566000000E+00 0. -1.
        -13    1    4    4    0    0  0.12939474051E+01 -0.16723553423E+01  0.19428891171E+02  0.19543900543E+02  0.10566000000E+00 0.  1.
         14    1    4    4    0    0  0.10657160768E+02 -0.14072313062E+02  0.13676379958E+03  0.13789830292E+03  0.00000000000E+00 0. -1.
<mgrwt>
<rscale>  0 0.78629089E+02</rscale>
<asrwt>0</asrwt>
<pdfrwt beam="1">  1        2 0.43524275E-01 0.78629089E+02</pdfrwt>
<pdfrwt beam="2">  1       -1 0.84052036E-03 0.78629089E+02</pdfrwt>
<totfact> 0.26115451E+05</totfact>
</mgrwt>
</event>
<event>
 8    1  0.1226832E-024  0.7930917E+02  0.7818608E-02  0.1331023E+00
          2   -1    0    0  501    0  0.00000000000E+00  0.00000000000E+00  0.65963653514E+03  0.65963653514E+03  0.25500000000E-02 0. -1.
         -1   -1    0    0    0  501 -0.00000000000E+00 -0.00000000000E+00 -0.23838647663E+01  0.23838700941E+01  0.50400000000E-02 0.  1.
         24    2    1    2    0    0  0.00000000000E+00 -0.88817841970E-15  0.65725267037E+03  0.66202040524E+03  0.79309168698E+02 0.  0.
         66    2    3    3    0    0  0.19256529368E+02 -0.77912820281E+01  0.61054508972E+03  0.61090164886E+03  0.20000007645E+01 0.  0.
        -13    1    3    3    0    0 -0.19256529368E+02  0.77912820281E+01  0.46707580658E+02  0.51118756380E+02  0.10566000000E+00 0.  1.
         13    1    4    4    0    0  0.16871539158E+02 -0.68065588212E+01  0.51759887657E+03  0.51791851315E+03  0.10566000000E+00 0. -1.
        -13    1    4    4    0    0  0.78032845260E+00 -0.39497459812E+00  0.38546910209E+02  0.38556975609E+02  0.10566000000E+00 0.  1.
         14    1    4    4    0    0  0.16046617577E+01 -0.58974860885E+00  0.54399302941E+02  0.54426160101E+02  0.00000000000E+00 0. -1.
<mgrwt>
<rscale>  0 0.79309169E+02</rscale>
<asrwt>0</asrwt>
<pdfrwt beam="1">  1        2 0.10148260E+00 0.79309169E+02</pdfrwt>
<pdfrwt beam="2">  1       -1 0.36674862E-03 0.79309169E+02</pdfrwt>
<totfact> 0.33731345E+05</totfact>
</mgrwt>
</event>
<event>
 8    1  0.1226832E-024  0.8013839E+02  0.7818608E-02  0.1328659E+00
         -1   -1    0    0    0  501 -0.00000000000E+00  0.00000000000E+00  0.41950406716E+01  0.41950436992E+01  0.50400000000E-02 0.  1.
          2   -1    0    0  501    0  0.00000000000E+00 -0.00000000000E+00 -0.38272328222E+03  0.38272328223E+03  0.25500000000E-02 0. -1.
         24    2    1    2    0    0  0.35527136788E-14  0.00000000000E+00 -0.37852824155E+03  0.38691832593E+03  0.80138388361E+02 0.  0.
         66    2    3    3    0    0  0.26818658720E+02 -0.25430246117E+02 -0.26380338019E+03  0.26638723927E+03  0.19999933191E+01 0.  0.
        -13    1    3    3    0    0 -0.26818658720E+02  0.25430246117E+02 -0.11472486136E+03  0.12053108665E+03  0.10566000000E+00 0.  1.
         13    1    4    4    0    0  0.86314697594E+01 -0.76658765474E+01 -0.83254439125E+02  0.84051060264E+02  0.10566000000E+00 0. -1.
        -13    1    4    4    0    0  0.33586150914E+01 -0.31263915648E+01 -0.36743148146E+02  0.37028701291E+02  0.10566000000E+00 0.  1.
         14    1    4    4    0    0  0.14828573869E+02 -0.14637978004E+02 -0.14380579292E+03  0.14530747772E+03  0.00000000000E+00 0. -1.
<mgrwt>
<rscale>  0 0.80138388E+02</rscale>
<asrwt>0</asrwt>
<pdfrwt beam="1">  1        2 0.58880478E-01 0.80138388E+02</pdfrwt>
<pdfrwt beam="2">  1       -1 0.64539140E-03 0.80138388E+02</pdfrwt>
<totfact> 0.27693094E+05</totfact>
</mgrwt>
</event>
<event>
 8    1  0.1226832E-024  0.7758038E+02  0.7818608E-02  0.1336062E+00
         -1   -1    0    0    0  501 -0.00000000000E+00  0.00000000000E+00  0.40667894763E+01  0.40667925993E+01  0.50400000000E-02 0.  1.
          2   -1    0    0  501    0  0.00000000000E+00 -0.00000000000E+00 -0.36999169028E+03  0.36999169029E+03  0.25500000000E-02 0. -1.
         24    2    1    2    0    0 -0.35527136788E-14  0.00000000000E+00 -0.36592490081E+03  0.37405848289E+03  0.77580381492E+02 0.  0.
         66    2    3    3    0    0 -0.25787431083E+02  0.21023531701E+02 -0.27899440436E+03  0.28097839445E+03  0.19999996655E+01 0.  0.
        -13    1    3    3    0    0  0.25787431083E+02 -0.21023531701E+02 -0.86930496450E+02  0.93080088440E+02  0.10566000000E+00 0.  1.
         13    1    4    4    0    0 -0.13062962831E+02  0.10604717597E+02 -0.13760042664E+03  0.13862535702E+03  0.10566000000E+00 0. -1.
        -13    1    4    4    0    0 -0.69012871129E+01  0.62804043753E+01 -0.76533755250E+02  0.77100571331E+02  0.10566000000E+00 0.  1.
         14    1    4    4    0    0 -0.58231811388E+01  0.41384097278E+01 -0.64860222465E+02  0.65252466098E+02  0.00000000000E+00 0. -1.
<mgrwt>
<rscale>  0 0.77580381E+02</rscale>
<asrwt>0</asrwt>
<pdfrwt beam="1">  1        2 0.56921772E-01 0.77580381E+02</pdfrwt>
<pdfrwt beam="2">  1       -1 0.62566046E-03 0.77580381E+02</pdfrwt>
<totfact> 0.29781585E+05</totfact>
</mgrwt>
</event>
<event>
 8    1  0.1226832E-024  0.7976768E+02  0.7818608E-02  0.1329712E+00
          2   -1    0    0  501    0  0.00000000000E+00  0.00000000000E+00  0.72218747490E+01  0.72218751992E+01  0.25500000000E-02 0. -1.
         -1   -1    0    0    0  501 -0.00000000000E+00 -0.00000000000E+00 -0.22026423564E+03  0.22026423570E+03  0.50400000000E-02 0.  1.
         24    2    1    2    0    0  0.00000000000E+00  0.00000000000E+00 -0.21304236089E+03  0.22748611090E+03  0.79767682159E+02 0.  0.
         66    2    3    3    0    0  0.26380067559E+02 -0.29754811971E+02 -0.11437672636E+03  0.12110859729E+03  0.20000011865E+01 0.  0.
        -13    1    3    3    0    0 -0.26380067559E+02  0.29754811971E+02 -0.98665634529E+02  0.10637751361E+03  0.10566000000E+00 0.  1.
         13    1    4    4    0    0  0.15893776779E+02 -0.18001390427E+02 -0.66967985647E+02  0.71143407729E+02  0.10566000000E+00 0. -1.
        -13    1    4    4    0    0  0.13483117644E+01 -0.16200497130E+01 -0.73011487594E+01  0.76000291401E+01  0.10566000000E+00 0.  1.
         14    1    4    4    0    0  0.91379790153E+01 -0.10133371831E+02 -0.40107591958E+02  0.42365160425E+02  0.00000000000E+00 0. -1.
<mgrwt>
<rscale>  0 0.79767682E+02</rscale>
<asrwt>0</asrwt>
<pdfrwt beam="1">  1        2 0.11110579E-02 0.79767682E+02</pdfrwt>
<pdfrwt beam="2">  1       -1 0.33886801E-01 0.79767682E+02</pdfrwt>
<totfact> 0.97365553E+04</totfact>
</mgrwt>
</event>
<event>
 8    1  0.1226832E-024  0.8126866E+02  0.7818608E-02  0.1325489E+00
          2   -1    0    0  501    0  0.00000000000E+00  0.00000000000E+00  0.67661661268E+01  0.67661666073E+01  0.25500000000E-02 0. -1.
         -1   -1    0    0    0  501 -0.00000000000E+00 -0.00000000000E+00 -0.24403018608E+03  0.24403018613E+03  0.50400000000E-02 0.  1.
         24    2    1    2    0    0  0.00000000000E+00  0.00000000000E+00 -0.23726401995E+03  0.25079635274E+03  0.81268661752E+02 0.  0.
         66    2    3    3    0    0  0.11260560422E+02 -0.19468539404E+02 -0.22305113053E+03  0.22419105933E+03  0.20000012723E+01 0.  0.
        -13    1    3    3    0    0 -0.11260560422E+02  0.19468539404E+02 -0.14212889421E+02  0.26605293407E+02  0.10566000000E+00 0.  1.
         13    1    4    4    0    0  0.52862905279E+00 -0.13263681437E+01 -0.17994100053E+02  0.18050969555E+02  0.10566000000E+00 0. -1.
        -13    1    4    4    0    0  0.83196910084E+01 -0.14548884314E+02 -0.15970098760E+03  0.16057803056E+03  0.10566000000E+00 0.  1.
        -14    1    4    4    0    0  0.24122403607E+01 -0.35932869471E+01 -0.45356042879E+02  0.45562059219E+02  0.00000000000E+00 0.  1.
<mgrwt>
<rscale>  0 0.81268662E+02</rscale>
<asrwt>0</asrwt>
<pdfrwt beam="1">  1        2 0.10409489E-02 0.81268662E+02</pdfrwt>
<pdfrwt beam="2">  1       -1 0.37543099E-01 0.81268662E+02</pdfrwt>
<totfact> 0.89710968E+04</totfact>
</mgrwt>
</event>
<event>
 8    1  0.1226832E-024  0.7963678E+02  0.7818608E-02  0.1330085E+00
         -1   -1    0    0    0  501 -0.00000000000E+00  0.00000000000E+00  0.11429254410E+02  0.11429255522E+02  0.50400000000E-02 0.  1.
          2   -1    0    0  501    0  0.00000000000E+00 -0.00000000000E+00 -0.13872331047E+03  0.13872331050E+03  0.25500000000E-02 0. -1.
         24    2    1    2    0    0  0.00000000000E+00 -0.88817841970E-15 -0.12729405606E+03  0.15015256602E+03  0.79636777766E+02 0.  0.
         66    2    3    3    0    0 -0.18339035129E+02  0.53343416612E+01 -0.12950915572E+03  0.13092515743E+03  0.20000055781E+01 0.  0.
        -13    1    3    3    0    0  0.18339035129E+02 -0.53343416612E+01  0.22150996584E+01  0.19227408587E+02  0.10566000000E+00 0.  1.
         13    1    4    4    0    0 -0.65602540097E+01  0.24845552532E+01 -0.51471134551E+02  0.51947076948E+02  0.10566000000E+00 0. -1.
        -13    1    4    4    0    0 -0.66404909404E+00  0.34402761996E+00 -0.49800573852E+01  0.50370082189E+01  0.10566000000E+00 0.  1.
         14    1    4    4    0    0 -0.11114732026E+02  0.25057587881E+01 -0.73057963786E+02  0.73941072265E+02  0.00000000000E+00 0. -1.
<mgrwt>
<rscale>  0 0.79636778E+02</rscale>
<asrwt>0</asrwt>
<pdfrwt beam="1">  1        2 0.21342047E-01 0.79636778E+02</pdfrwt>
<pdfrwt beam="2">  1       -1 0.17583470E-02 0.79636778E+02</pdfrwt>
<totfact> 0.19775338E+05</totfact>
</mgrwt>
</event>
<event>
 8    1  0.1226832E-024  0.7480303E+02  0.7818608E-02  0.1344482E+00
          2   -1    0    0  501    0  0.00000000000E+00  0.00000000000E+00  0.24448033648E+03  0.24448033649E+03  0.25500000000E-02 0. -1.
         -1   -1    0    0    0  501 -0.00000000000E+00 -0.00000000000E+00 -0.57218217977E+01  0.57218240174E+01  0.50400000000E-02 0.  1.
         24    2    1    2    0    0  0.00000000000E+00  0.00000000000E+00  0.23875851468E+03  0.25020216051E+03  0.74803026616E+02 0.  0.
         66    2    3    3    0    0  0.26694984969E+02  0.99201667166E+01  0.20042241272E+03  0.20244548760E+03  0.19999993430E+01 0.  0.
        -13    1    3    3    0    0 -0.26694984969E+02 -0.99201667166E+01  0.38336101962E+02  0.47756672914E+02  0.10566000000E+00 0.  1.
         13    1    4    4    0    0  0.12197583220E+02  0.49607325309E+01  0.96138865235E+02  0.97036500743E+02  0.10566000000E+00 0. -1.
        -13    1    4    4    0    0  0.11977653945E+02  0.44770689178E+01  0.85455321545E+02  0.86406779158E+02  0.10566000000E+00 0.  1.
        -14    1    4    4    0    0  0.25197478040E+01  0.48236526791E+00  0.18828225941E+02  0.19002207697E+02  0.00000000000E+00 0.  1.
<mgrwt>
<rscale>  0 0.74803027E+02</rscale>
<asrwt>0</asrwt>
<pdfrwt beam="1">  1        2 0.37612364E-01 0.74803027E+02</pdfrwt>
<pdfrwt beam="2">  1       -1 0.88028035E-03 0.74803027E+02</pdfrwt>
<totfact> 0.28235181E+05</totfact>
</mgrwt>
</event>
<event>
 8    1  0.1226832E-024  0.7412662E+02  0.7818608E-02  0.1346597E+00
         -1   -1    0    0    0  501 -0.00000000000E+00  0.00000000000E+00  0.86192897847E+00  0.86194371367E+00  0.50400000000E-02 0.  1.
          2   -1    0    0  501    0  0.00000000000E+00 -0.00000000000E+00 -0.15937243307E+04  0.15937243307E+04  0.25500000000E-02 0. -1.
         24    2    1    2    0    0  0.00000000000E+00  0.00000000000E+00 -0.15928624017E+04  0.15945862744E+04  0.74126619623E+02 0.  0.
         66    2    3    3    0    0  0.97937111854E+01 -0.87986906936E+01 -0.15416825636E+04  0.15417400756E+04  0.20000040010E+01 0.  0.
        -13    1    3    3    0    0 -0.97937111854E+01  0.87986906936E+01 -0.51179838091E+02  0.52846198801E+02  0.10566000000E+00 0.  1.
         13    1    4    4    0    0  0.36287569038E+01 -0.32746029655E+01 -0.50854111132E+03  0.50856461140E+03  0.10566000000E+00 0. -1.
        -13    1    4    4    0    0  0.36721157981E+01 -0.35495615452E+01 -0.55862700267E+03  0.55865035854E+03  0.10566000000E+00 0.  1.
         14    1    4    4    0    0  0.24928384835E+01 -0.19745261828E+01 -0.47451444960E+03  0.47452510563E+03  0.00000000000E+00 0. -1.
<mgrwt>
<rscale>  0 0.74126620E+02</rscale>
<asrwt>0</asrwt>
<pdfrwt beam="1">  1        2 0.24518600E+00 0.74126620E+02</pdfrwt>
<pdfrwt beam="2">  1       -1 0.13260687E-03 0.74126620E+02</pdfrwt>
<totfact> 0.39491027E+05</totfact>
</mgrwt>
</event>
<event>
 8    1  0.1226832E-024  0.7954263E+02  0.7818608E-02  0.1330354E+00
          2   -1    0    0  501    0  0.00000000000E+00  0.00000000000E+00  0.11759625647E+04  0.11759625647E+04  0.25500000000E-02 0. -1.
         -1   -1    0    0    0  501 -0.00000000000E+00 -0.00000000000E+00 -0.13450699238E+01  0.13450793663E+01  0.50400000000E-02 0.  1.
         24    2    1    2    0    0  0.00000000000E+00  0.00000000000E+00  0.11746174948E+04  0.11773076441E+04  0.79542628503E+02 0.  0.
         66    2    3    3    0    0  0.23795590407E+02  0.93892059486E+01  0.10379216303E+04  0.10382387480E+04  0.19999991696E+01 0.  0.
        -13    1    3    3    0    0 -0.23795590407E+02 -0.93892059486E+01  0.13669586450E+03  0.13906889604E+03  0.10566000000E+00 0.  1.
         13    1    4    4    0    0  0.10226703022E+02  0.37581616016E+01  0.47699505524E+03  0.47711948516E+03  0.10566000000E+00 0.  1.
        -13    1    4    4    0    0  0.72821380267E+01  0.33096307987E+01  0.29996714991E+03  0.30007379989E+03  0.10566000000E+00 0. -1.
         14    1    4    4    0    0  0.62867493583E+01  0.23214135484E+01  0.26095942511E+03  0.26104546296E+03  0.00000000000E+00 0. -1.
<mgrwt>
<rscale>  0 0.79542629E+02</rscale>
<asrwt>0</asrwt>
<pdfrwt beam="1">  1        2 0.18091748E+00 0.79542629E+02</pdfrwt>
<pdfrwt beam="2">  1       -1 0.20693438E-03 0.79542629E+02</pdfrwt>
<totfact> 0.35635771E+05</totfact>
</mgrwt>
</event>
<event>
 8    1  0.1239766E-024  0.8165151E+02  0.7818608E-02  0.1324429E+00
         -1   -1    0    0    0  501 -0.00000000000E+00  0.00000000000E+00  0.76457673214E+02  0.76457673380E+02  0.50400000000E-02 0.  1.
          2   -1    0    0  501    0  0.00000000000E+00 -0.00000000000E+00 -0.21799539410E+02  0.21799539560E+02  0.25500000000E-02 0. -1.
         24    2    1    2    0    0  0.35527136788E-14  0.17763568394E-14  0.54658133804E+02  0.98257212940E+02  0.81651505215E+02 0.  0.
         66    2    3    3    0    0  0.23424566352E+02  0.11044299147E+02 -0.10595201234E+02  0.28052542512E+02  0.19999999395E+01 0.  0.
        -13    1    3    3    0    0 -0.23424566352E+02 -0.11044299147E+02  0.65253335037E+02  0.70204670428E+02  0.10566000000E+00 0.  1.
         13    1    4    4    0    0  0.13529653534E+02  0.59431569496E+01 -0.55950033292E+01  0.15801514661E+02  0.10566000000E+00 0. -1.
        -13    1    4    4    0    0  0.13810772477E+01  0.34586708716E+00 -0.52141841970E+00  0.15198814461E+01  0.10566000000E+00 0. -1.
        -14    1    4    4    0    0  0.85138355698E+01  0.47552751107E+01 -0.44787794847E+01  0.10731146405E+02  0.00000000000E+00 0.  1.
<mgrwt>
<rscale>  0 0.81651505E+02</rscale>
<asrwt>0</asrwt>
<pdfrwt beam="1">  1        2 0.33537753E-02 0.81651505E+02</pdfrwt>
<pdfrwt beam="2">  1       -1 0.11762719E-01 0.81651505E+02</pdfrwt>
<totfact> 0.11915056E+05</totfact>
</mgrwt>
</event>
<event>
 8    1  0.1226832E-024  0.7962396E+02  0.7818608E-02  0.1330122E+00
         -1   -1    0    0    0  501 -0.00000000000E+00  0.00000000000E+00  0.48940425660E+03  0.48940425662E+03  0.50400000000E-02 0.  1.
          2   -1    0    0  501    0  0.00000000000E+00 -0.00000000000E+00 -0.32386177866E+01  0.32386187905E+01  0.25500000000E-02 0. -1.
         24    2    1    2    0    0  0.00000000000E+00  0.00000000000E+00  0.48616563881E+03  0.49264287542E+03  0.79623955790E+02 0.  0.
         66    2    3    3    0    0  0.37776905698E+02  0.98075867658E+01  0.29104311874E+03  0.29365520654E+03  0.19999995129E+01 0.  0.
        -13    1    3    3    0    0 -0.37776905698E+02 -0.98075867658E+01  0.19512252007E+03  0.19898766888E+03  0.10566000000E+00 0.  1.
         13    1    4    4    0    0  0.10968373305E+02  0.28327875567E+01  0.81021217228E+02  0.81809404738E+02  0.10566000000E+00 0. -1.
        -13    1    4    4    0    0  0.59828981907E+01  0.10146922231E+01  0.43909270823E+02  0.44326740229E+02  0.10566000000E+00 0.  1.
        -14    1    4    4    0    0  0.20825634202E+02  0.59601069860E+01  0.16611263069E+03  0.16751906157E+03  0.00000000000E+00 0.  1.
<mgrwt>
<rscale>  0 0.79623956E+02</rscale>
<asrwt>0</asrwt>
<pdfrwt beam="1">  1        2 0.49824919E-03 0.79623956E+02</pdfrwt>
<pdfrwt beam="2">  1       -1 0.75292930E-01 0.79623956E+02</pdfrwt>
<totfact> 0.68508326E+04</totfact>
</mgrwt>
</event>
<event>
 8    1  0.1226832E-024  0.8047521E+02  0.7818608E-02  0.1327708E+00
         -1   -1    0    0    0  501 -0.00000000000E+00  0.00000000000E+00  0.11285919294E+03  0.11285919306E+03  0.50400000000E-02 0.  1.
          2   -1    0    0  501    0  0.00000000000E+00 -0.00000000000E+00 -0.14345885098E+02  0.14345885324E+02  0.25500000000E-02 0. -1.
         24    2    1    2    0    0  0.00000000000E+00  0.00000000000E+00  0.98513307846E+02  0.12720507838E+03  0.80475214464E+02 0.  0.
         66    2    3    3    0    0  0.29185583763E+02 -0.18888767059E+02  0.17340313446E+02  0.38900774949E+02  0.20000001570E+01 0.  0.
        -13    1    3    3    0    0 -0.29185583763E+02  0.18888767059E+02  0.81172994400E+02  0.88304303431E+02  0.10566000000E+00 0.  1.
         13    1    4    4    0    0  0.17236249904E+02 -0.11447296416E+02  0.94281766178E+01  0.22738306541E+02  0.10566000000E+00 0. -1.
        -13    1    4    4    0    0  0.11426380311E+02 -0.69530528672E+01  0.75659837555E+01  0.15367575782E+02  0.10566000000E+00 0.  1.
         14    1    4    4    0    0  0.52295354837E+00 -0.48841777608E+00  0.34615307291E+00  0.79489262648E+00  0.00000000000E+00 0. -1.
<mgrwt>
<rscale>  0 0.80475214E+02</rscale>
<asrwt>0</asrwt>
<pdfrwt beam="1">  1        2 0.22070593E-02 0.80475214E+02</pdfrwt>
<pdfrwt beam="2">  1       -1 0.17362953E-01 0.80475214E+02</pdfrwt>
<totfact> 0.11373578E+05</totfact>
</mgrwt>
</event>
<event>
 8    1  0.1226832E-024  0.8073783E+02  0.7818608E-02  0.1326971E+00
          2   -1    0    0  501    0  0.00000000000E+00  0.00000000000E+00  0.40566034858E+03  0.40566034859E+03  0.25500000000E-02 0. -1.
         -1   -1    0    0    0  501 -0.00000000000E+00 -0.00000000000E+00 -0.40172737713E+01  0.40172769328E+01  0.50400000000E-02 0.  1.
         24    2    1    2    0    0  0.00000000000E+00 -0.35527136788E-14  0.40164307481E+03  0.40967762552E+03  0.80737830728E+02 0.  0.
         66    2    3    3    0    0  0.29419867674E+02  0.18676030619E+02  0.30410392412E+03  0.30610050539E+03  0.20000002441E+01 0.  0.
        -13    1    3    3    0    0 -0.29419867674E+02 -0.18676030619E+02  0.97539150695E+02  0.10357712014E+03  0.10566000000E+00 0.  1.
         13    1    4    4    0    0  0.65982787531E+01  0.40735925963E+01  0.69305263788E+02  0.69737810347E+02  0.10566000000E+00 0. -1.
        -13    1    4    4    0    0  0.13576600936E+02  0.80252167836E+01  0.14188373315E+03  0.14275760258E+03  0.10566000000E+00 0.  1.
         14    1    4    4    0    0  0.92449879845E+01  0.65772212393E+01  0.92914927175E+02  0.93605092458E+02  0.00000000000E+00 0. -1.
<mgrwt>
<rscale>  0 0.80737831E+02</rscale>
<asrwt>0</asrwt>
<pdfrwt beam="1">  1        2 0.62409266E-01 0.80737831E+02</pdfrwt>
<pdfrwt beam="2">  1       -1 0.61804254E-03 0.80737831E+02</pdfrwt>
<totfact> 0.27719455E+05</totfact>
</mgrwt>
</event>
<event>
 8    1  0.1226832E-024  0.8047075E+02  0.7818608E-02  0.1327721E+00
         -1   -1    0    0    0  501 -0.00000000000E+00  0.00000000000E+00  0.63494544017E+01  0.63494564020E+01  0.50400000000E-02 0.  1.
          2   -1    0    0  501    0  0.00000000000E+00 -0.00000000000E+00 -0.25496442196E+03  0.25496442197E+03  0.25500000000E-02 0. -1.
         24    2    1    2    0    0 -0.35527136788E-14  0.88817841970E-15 -0.24861496755E+03  0.26131387837E+03  0.80470745847E+02 0.  0.
         66    2    3    3    0    0  0.30660431974E+02 -0.65810496655E+01 -0.20611762907E+03  0.20849903912E+03  0.19999984486E+01 0.  0.
        -13    1    3    3    0    0 -0.30660431974E+02  0.65810496655E+01 -0.42497338479E+02  0.52814839253E+02  0.10566000000E+00 0.  1.
         13    1    4    4    0    0  0.10059628842E+02 -0.21701838818E+01 -0.68917647815E+02  0.69681842505E+02  0.10566000000E+00 0. -1.
        -13    1    4    4    0    0  0.18054935209E+01 -0.96386020438E-01 -0.97936668602E+01  0.99597274924E+01  0.10566000000E+00 0.  1.
        -14    1    4    4    0    0  0.18795309610E+02 -0.43144797633E+01 -0.12740631440E+03  0.12885746912E+03  0.00000000000E+00 0.  1.
<mgrwt>
<rscale>  0 0.80470746E+02</rscale>
<asrwt>0</asrwt>
<pdfrwt beam="1">  1        2 0.39225288E-01 0.80470746E+02</pdfrwt>
<pdfrwt beam="2">  1       -1 0.97683950E-03 0.80470746E+02</pdfrwt>
<totfact> 0.23669296E+05</totfact>
</mgrwt>
</event>
<event>
 8    1  0.1226832E-024  0.7990850E+02  0.7818608E-02  0.1329311E+00
          2   -1    0    0  501    0  0.00000000000E+00  0.00000000000E+00  0.38823027302E+03  0.38823027303E+03  0.25500000000E-02 0. -1.
         -1   -1    0    0    0  501 -0.00000000000E+00 -0.00000000000E+00 -0.41118421668E+01  0.41118452557E+01  0.50400000000E-02 0.  1.
         24    2    1    2    0    0  0.00000000000E+00 -0.44408920985E-15  0.38411843085E+03  0.39234211829E+03  0.79908503043E+02 0.  0.
         66    2    3    3    0    0 -0.32537738546E+02  0.18257962205E+01  0.30545831593E+03  0.30719834103E+03  0.19999996684E+01 0.  0.
        -13    1    3    3    0    0  0.32537738546E+02 -0.18257962205E+01  0.78660114928E+02  0.85143777260E+02  0.10566000000E+00 0.  1.
         13    1    4    4    0    0 -0.36817312820E+00 -0.69711469149E-01  0.30166696916E+01  0.30416888738E+01  0.10566000000E+00 0.  1.
        -13    1    4    4    0    0 -0.39132140748E+01  0.57257669785E+00  0.39717027728E+02  0.39913588463E+02  0.10566000000E+00 0. -1.
         14    1    4    4    0    0 -0.28256351343E+02  0.13229309918E+01  0.26272461851E+03  0.26424306369E+03  0.00000000000E+00 0. -1.
<mgrwt>
<rscale>  0 0.79908503E+02</rscale>
<asrwt>0</asrwt>
<pdfrwt beam="1">  1        2 0.59727741E-01 0.79908503E+02</pdfrwt>
<pdfrwt beam="2">  1       -1 0.63259127E-03 0.79908503E+02</pdfrwt>
<totfact> 0.28042787E+05</totfact>
</mgrwt>
</event>
<event>
 8    1  0.1226832E-024  0.8016659E+02  0.7818608E-02  0.1328579E+00
         -1   -1    0    0    0  501 -0.00000000000E+00  0.00000000000E+00  0.10685890705E+02  0.10685891894E+02  0.50400000000E-02 0.  1.
          2   -1    0    0  501    0  0.00000000000E+00 -0.00000000000E+00 -0.15035436341E+03  0.15035436343E+03  0.25500000000E-02 0. -1.
         24    2    1    2    0    0  0.35527136788E-14  0.00000000000E+00 -0.13966847270E+03  0.16104025532E+03  0.80166586352E+02 0.  0.
         66    2    3    3    0    0  0.30596774569E+02  0.25309021091E+02 -0.80498952167E+02  0.89781905025E+02  0.20000018412E+01 0.  0.
        -13    1    3    3    0    0 -0.30596774569E+02 -0.25309021091E+02 -0.59169520534E+02  0.71258350296E+02  0.10566000000E+00 0.  1.
         13    1    4    4    0    0  0.69956778818E+01  0.66685813402E+01 -0.20373702587E+02  0.22550130981E+02  0.10566000000E+00 0. -1.
        -13    1    4    4    0    0  0.20092859964E+02  0.16161498427E+02 -0.51834820753E+02  0.57894532207E+02  0.10566000000E+00 0.  1.
        -14    1    4    4    0    0  0.35082367231E+01  0.24789413239E+01 -0.82904288266E+01  0.93372418369E+01  0.00000000000E+00 0.  1.
<mgrwt>
<rscale>  0 0.80166586E+02</rscale>
<asrwt>0</asrwt>
<pdfrwt beam="1">  1        2 0.23131439E-01 0.80166586E+02</pdfrwt>
<pdfrwt beam="2">  1       -1 0.16439834E-02 0.80166586E+02</pdfrwt>
<totfact> 0.19934906E+05</totfact>
</mgrwt>
</event>
<event>
 8    1  0.1226832E-024  0.7847519E+02  0.7818608E-02  0.1333435E+00
          2   -1    0    0  501    0  0.00000000000E+00  0.00000000000E+00  0.37796704785E+02  0.37796704871E+02  0.25500000000E-02 0. -1.
         -1   -1    0    0    0  501 -0.00000000000E+00 -0.00000000000E+00 -0.40733417529E+02  0.40733417840E+02  0.50400000000E-02 0.  1.
         24    2    1    2    0    0  0.00000000000E+00  0.88817841970E-15 -0.29367127434E+01  0.78530122712E+02  0.78475192841E+02 0.  0.
         66    2    3    3    0    0 -0.34757953395E+02 -0.55534148117E+01  0.15823653612E+02  0.38643806134E+02  0.19999996410E+01 0.  0.
        -13    1    3    3    0    0  0.34757953395E+02  0.55534148117E+01 -0.18760366356E+02  0.39886316578E+02  0.10566000000E+00 0.  1.
         13    1    4    4    0    0 -0.81169476942E+01 -0.18649358413E+01  0.38685850260E+01  0.91836778962E+01  0.10566000000E+00 0. -1.
        -13    1    4    4    0    0 -0.45939364374E+01 -0.98220802197E+00  0.17323612121E+01  0.50081158127E+01  0.10566000000E+00 0.  1.
        -14    1    4    4    0    0 -0.22047069264E+02 -0.27062709485E+01  0.10222707374E+02  0.24452012425E+02  0.00000000000E+00 0.  1.
<mgrwt>
<rscale>  0 0.78475193E+02</rscale>
<asrwt>0</asrwt>
<pdfrwt beam="1">  1        2 0.58148777E-02 0.78475193E+02</pdfrwt>
<pdfrwt beam="2">  1       -1 0.62666796E-02 0.78475193E+02</pdfrwt>
<totfact> 0.14861885E+05</totfact>
</mgrwt>
</event>
<event>
 8    1  0.1226832E-024  0.8093690E+02  0.7818608E-02  0.1326413E+00
          2   -1    0    0  501    0  0.00000000000E+00  0.00000000000E+00  0.81664231120E+03  0.81664231120E+03  0.25500000000E-02 0. -1.
         -1   -1    0    0    0  501 -0.00000000000E+00 -0.00000000000E+00 -0.20053980807E+01  0.20054044140E+01  0.50400000000E-02 0.  1.
         24    2    1    2    0    0  0.00000000000E+00  0.00000000000E+00  0.81463691312E+03  0.81864771561E+03  0.80936901780E+02 0.  0.
         66    2    3    3    0    0  0.20605305895E+01  0.29822002136E+02  0.68310328910E+03  0.68375997337E+03  0.20000006019E+01 0.  0.
        -13    1    3    3    0    0 -0.20605305895E+01 -0.29822002136E+02  0.13153362401E+03  0.13488774225E+03  0.10566000000E+00 0.  1.
         13    1    4    4    0    0  0.39745133411E+00  0.12534290226E+01  0.30236938130E+02  0.30265700774E+02  0.10566000000E+00 0. -1.
        -13    1    4    4    0    0  0.35949708524E-01  0.57883282045E+00  0.16699582148E+02  0.16709983476E+02  0.10566000000E+00 0.  1.
         14    1    4    4    0    0  0.16271295469E+01  0.27989740293E+02  0.63616676882E+03  0.63678428912E+03  0.00000000000E+00 0. -1.
<mgrwt>
<rscale>  0 0.80936902E+02</rscale>
<asrwt>0</asrwt>
<pdfrwt beam="1">  1        2 0.12563708E+00 0.80936902E+02</pdfrwt>
<pdfrwt beam="2">  1       -1 0.30852377E-03 0.80936902E+02</pdfrwt>
<totfact> 0.33456472E+05</totfact>
</mgrwt>
</event>
<event>
 8    1  0.1226832E-024  0.7903311E+02  0.7818608E-02  0.1331818E+00
         -1   -1    0    0    0  501 -0.00000000000E+00  0.00000000000E+00  0.10434341151E+01  0.10434462872E+01  0.50400000000E-02 0.  1.
          2   -1    0    0  501    0  0.00000000000E+00 -0.00000000000E+00 -0.14965476272E+04  0.14965476272E+04  0.25500000000E-02 0. -1.
         24    2    1    2    0    0  0.17763568394E-14 -0.44408920985E-15 -0.14955041931E+04  0.14975910735E+04  0.79033106103E+02 0.  0.
         66    2    3    3    0    0 -0.10433455441E+02  0.22353276809E+01 -0.14687116897E+04  0.14687518106E+04  0.20000006355E+01 0.  0.
        -13    1    3    3    0    0  0.10433455441E+02 -0.22353276809E+01 -0.26792503398E+02  0.28839262901E+02  0.10566000000E+00 0.  1.
         13    1    4    4    0    0 -0.22116484385E+01  0.98167126131E+00 -0.37454541594E+03  0.37455324699E+03  0.10566000000E+00 0. -1.
        -13    1    4    4    0    0 -0.59685428872E+01  0.96526167845E+00 -0.71992861245E+03  0.71995400785E+03  0.10566000000E+00 0.  1.
        -14    1    4    4    0    0 -0.22532641153E+01  0.28839474113E+00 -0.37423766126E+03  0.37424455571E+03  0.00000000000E+00 0.  1.
<mgrwt>
<rscale>  0 0.79033106E+02</rscale>
<asrwt>0</asrwt>
<pdfrwt beam="1">  1        2 0.23023638E+00 0.79033106E+02</pdfrwt>
<pdfrwt beam="2">  1       -1 0.16053046E-03 0.79033106E+02</pdfrwt>
<totfact> 0.34348410E+05</totfact>
</mgrwt>
</event>
<event>
 8    1  0.1226832E-024  0.8498227E+02  0.7818608E-02  0.1315479E+00
          2   -1    0    0  501    0  0.00000000000E+00  0.00000000000E+00  0.45151084532E+02  0.45151084604E+02  0.25500000000E-02 0. -1.
         -1   -1    0    0    0  501 -0.00000000000E+00 -0.00000000000E+00 -0.39987887636E+02  0.39987887954E+02  0.50400000000E-02 0.  1.
         24    2    1    2    0    0  0.00000000000E+00  0.00000000000E+00  0.51631968959E+01  0.85138972558E+02  0.84982269010E+02 0.  0.
         66    2    3    3    0    0 -0.25686975940E+01 -0.36485432662E+02  0.24203050849E+02  0.43904130416E+02  0.19999983447E+01 0.  0.
        -13    1    3    3    0    0  0.25686975940E+01  0.36485432662E+02 -0.19039853953E+02  0.41234842141E+02  0.10566000000E+00 0.  1.
         13    1    4    4    0    0 -0.15349966671E+01 -0.13261688877E+02  0.86171095465E+01  0.15890070724E+02  0.10566000000E+00 0. -1.
        -13    1    4    4    0    0 -0.38218993862E+00 -0.93853422663E+01  0.70061411132E+01  0.11718698560E+02  0.10566000000E+00 0.  1.
        -14    1    4    4    0    0 -0.65151098830E+00 -0.13838401519E+02  0.85798001892E+01  0.16295361133E+02  0.00000000000E+00 0.  1.
<mgrwt>
<rscale>  0 0.84982269E+02</rscale>
<asrwt>0</asrwt>
<pdfrwt beam="1">  1        2 0.69463207E-02 0.84982269E+02</pdfrwt>
<pdfrwt beam="2">  1       -1 0.61519828E-02 0.84982269E+02</pdfrwt>
<totfact> 0.12372190E+05</totfact>
</mgrwt>
</event>
<event>
 8    1  0.1226832E-024  0.7686185E+02  0.7818608E-02  0.1338201E+00
         -1   -1    0    0    0  501 -0.00000000000E+00  0.00000000000E+00  0.10053273845E+03  0.10053273858E+03  0.50400000000E-02 0.  1.
          2   -1    0    0  501    0  0.00000000000E+00 -0.00000000000E+00 -0.14691094405E+02  0.14691094626E+02  0.25500000000E-02 0. -1.
         24    2    1    2    0    0  0.35527136788E-14 -0.35527136788E-14  0.85841644048E+02  0.11522383320E+03  0.76861849350E+02 0.  0.
         66    2    3    3    0    0 -0.22605042985E+02  0.28534494983E+02  0.61293193656E+02  0.71316624765E+02  0.20000017443E+01 0.  0.
        -13    1    3    3    0    0  0.22605042985E+02 -0.28534494983E+02  0.24548450392E+02  0.43907208440E+02  0.10566000000E+00 0.  1.
         13    1    4    4    0    0 -0.71049629354E+01  0.81892564458E+01  0.18237117563E+02  0.21216692496E+02  0.10566000000E+00 0. -1.
        -13    1    4    4    0    0 -0.10582859945E+02  0.13222311363E+02  0.27447967442E+02  0.32252573900E+02  0.10566000000E+00 0. -1.
         14    1    4    4    0    0 -0.49172201054E+01  0.71229271738E+01  0.15608108651E+02  0.17847358369E+02  0.00000000000E+00 0. -1.
<mgrwt>
<rscale>  0 0.76861849E+02</rscale>
<asrwt>0</asrwt>
<pdfrwt beam="1">  1        2 0.22601683E-02 0.76861849E+02</pdfrwt>
<pdfrwt beam="2">  1       -1 0.15466576E-01 0.76861849E+02</pdfrwt>
<totfact> 0.13081697E+05</totfact>
</mgrwt>
</event>
<event>
 8    1  0.1226832E-024  0.7843893E+02  0.7818608E-02  0.1333541E+00
          2   -1    0    0  501    0  0.00000000000E+00  0.00000000000E+00  0.83710918545E+03  0.83710918545E+03  0.25500000000E-02 0. -1.
         -1   -1    0    0    0  501 -0.00000000000E+00 -0.00000000000E+00 -0.18374704882E+01  0.18374774003E+01  0.50400000000E-02 0.  1.
         24    2    1    2    0    0  0.00000000000E+00  0.00000000000E+00  0.83527171496E+03  0.83894666285E+03  0.78438927192E+02 0.  0.
         66    2    3    3    0    0 -0.13752211473E+02  0.23456327515E+02  0.71982386954E+03  0.72034000707E+03  0.19999995021E+01 0.  0.
        -13    1    3    3    0    0  0.13752211473E+02 -0.23456327515E+02  0.11544784542E+03  0.11860665578E+03  0.10566000000E+00 0.  1.
         13    1    4    4    0    0 -0.61467099713E+01  0.11685315212E+02  0.34114730191E+03  0.34140272612E+03  0.10566000000E+00 0. -1.
        -13    1    4    4    0    0 -0.78500465387E+00  0.17550730156E+01  0.57289125845E+02  0.57321476060E+02  0.10566000000E+00 0.  1.
         14    1    4    4    0    0 -0.68204968473E+01  0.10015939287E+02  0.32138744179E+03  0.32161580489E+03  0.00000000000E+00 0. -1.
<mgrwt>
<rscale>  0 0.78438927E+02</rscale>
<asrwt>0</asrwt>
<pdfrwt beam="1">  1        2 0.12878598E+00 0.78438927E+02</pdfrwt>
<pdfrwt beam="2">  1       -1 0.28268842E-03 0.78438927E+02</pdfrwt>
<totfact> 0.36434035E+05</totfact>
</mgrwt>
</event>
<event>
 8    1  0.1226832E-024  0.8196583E+02  0.7818608E-02  0.1323563E+00
          2   -1    0    0  501    0  0.00000000000E+00  0.00000000000E+00  0.32690462703E+03  0.32690462704E+03  0.25500000000E-02 0. -1.
         -1   -1    0    0    0  501 -0.00000000000E+00 -0.00000000000E+00 -0.51378869325E+01  0.51378894045E+01  0.50400000000E-02 0.  1.
         24    2    1    2    0    0 -0.17763568394E-14  0.00000000000E+00  0.32176674010E+03  0.33204251645E+03  0.81965832478E+02 0.  0.
         66    2    3    3    0    0 -0.89835451320E+01  0.29799745397E+02  0.26883450699E+03  0.27063761945E+03  0.20000012784E+01 0.  0.
        -13    1    3    3    0    0  0.89835451320E+01 -0.29799745397E+02  0.52932233106E+02  0.61404896991E+02  0.10566000000E+00 0.  1.
         13    1    4    4    0    0 -0.23615975958E+01  0.10194714576E+02  0.91182677717E+02  0.91781268395E+02  0.10566000000E+00 0. -1.
        -13    1    4    4    0    0 -0.10578301771E+01  0.38114950217E+01  0.37195444691E+02  0.37405330754E+02  0.10566000000E+00 0.  1.
         14    1    4    4    0    0 -0.55641173591E+01  0.15793535799E+02  0.14045638458E+03  0.14145102031E+03  0.00000000000E+00 0. -1.
<mgrwt>
<rscale>  0 0.81965832E+02</rscale>
<asrwt>0</asrwt>
<pdfrwt beam="1">  1        2 0.50293023E-01 0.81965832E+02</pdfrwt>
<pdfrwt beam="2">  1       -1 0.79044428E-03 0.81965832E+02</pdfrwt>
<totfact> 0.24676104E+05</totfact>
</mgrwt>
</event>
<event>
 8    1  0.1226832E-024  0.7971702E+02  0.7818608E-02  0.1329856E+00
         -1   -1    0    0    0  501 -0.00000000000E+00  0.00000000000E+00  0.77621027263E+02  0.77621027427E+02  0.50400000000E-02 0.  1.
          2   -1    0    0  501    0  0.00000000000E+00 -0.00000000000E+00 -0.20467400121E+02  0.20467400280E+02  0.25500000000E-02 0. -1.
         24    2    1    2    0    0  0.00000000000E+00  0.00000000000E+00  0.57153627143E+02  0.98088427707E+02  0.79717015463E+02 0.  0.
         66    2    3    3    0    0  0.26313305459E+02  0.19714920086E+02  0.92647396465E+00  0.32953398446E+02  0.19999992403E+01 0.  0.
        -13    1    3    3    0    0 -0.26313305459E+02 -0.19714920086E+02  0.56227153178E+02  0.65135029260E+02  0.10566000000E+00 0.  1.
         13    1    4    4    0    0  0.10712234977E+02  0.77780216581E+01  0.64172711814E+00  0.13254153192E+02  0.10566000000E+00 0. -1.
        -13    1    4    4    0    0  0.67137521345E+01  0.58374797565E+01  0.58003203219E+00  0.89161784878E+01  0.10566000000E+00 0.  1.
        -14    1    4    4    0    0  0.88873183478E+01  0.60994186716E+01 -0.29528518568E+00  0.10783066766E+02  0.00000000000E+00 0.  1.
<mgrwt>
<rscale>  0 0.79717015E+02</rscale>
<asrwt>0</asrwt>
<pdfrwt beam="1">  1        2 0.31488308E-02 0.79717015E+02</pdfrwt>
<pdfrwt beam="2">  1       -1 0.11941697E-01 0.79717015E+02</pdfrwt>
<totfact> 0.12601131E+05</totfact>
</mgrwt>
</event>
<event>
 8    1  0.1226832E-024  0.7866677E+02  0.7818608E-02  0.1332878E+00
         -1   -1    0    0    0  501 -0.00000000000E+00  0.00000000000E+00  0.22232926100E+01  0.22232983226E+01  0.50400000000E-02 0.  1.
          2   -1    0    0  501    0  0.00000000000E+00 -0.00000000000E+00 -0.69586569574E+03  0.69586569574E+03  0.25500000000E-02 0. -1.
         24    2    1    2    0    0  0.83266726847E-16  0.00000000000E+00 -0.69364240313E+03  0.69808899406E+03  0.78666766922E+02 0.  0.
         66    2    3    3    0    0  0.16801218586E+00 -0.11373658126E+02 -0.68093861982E+03  0.68103655724E+03  0.20000025817E+01 0.  0.
        -13    1    3    3    0    0 -0.16801218586E+00  0.11373658126E+02 -0.12703783310E+02  0.17052436826E+02  0.10566000000E+00 0.  1.
         13    1    4    4    0    0 -0.33400727865E+00 -0.10269343973E+02 -0.61510666087E+03  0.61519247915E+03  0.10566000000E+00 0. -1.
        -13    1    4    4    0    0  0.30532582705E+00 -0.81971618404E+00 -0.39371703191E+02  0.39381560846E+02  0.10566000000E+00 0.  1.
         14    1    4    4    0    0  0.19669363746E+00 -0.28459796925E+00 -0.26460255754E+02  0.26462517246E+02  0.00000000000E+00 0. -1.
<mgrwt>
<rscale>  0 0.78666767E+02</rscale>
<asrwt>0</asrwt>
<pdfrwt beam="1">  1        2 0.10705609E+00 0.78666767E+02</pdfrwt>
<pdfrwt beam="2">  1       -1 0.34204601E-03 0.78666767E+02</pdfrwt>
<totfact> 0.34896696E+05</totfact>
</mgrwt>
</event>
<event>
 8    1  0.1226832E-024  0.7883208E+02  0.7818608E-02  0.1332399E+00
          2   -1    0    0  501    0  0.00000000000E+00  0.00000000000E+00  0.41256335184E+01  0.41256343065E+01  0.25500000000E-02 0. -1.
         -1   -1    0    0    0  501 -0.00000000000E+00 -0.00000000000E+00 -0.37657828201E+03  0.37657828204E+03  0.50400000000E-02 0.  1.
         24    2    1    2    0    0  0.00000000000E+00  0.00000000000E+00 -0.37245264849E+03  0.38070391635E+03  0.78832078216E+02 0.  0.
         66    2    3    3    0    0  0.28728637861E+02  0.26454511388E+02 -0.16151207316E+03  0.16617859549E+03  0.20000038867E+01 0.  0.
        -13    1    3    3    0    0 -0.28728637861E+02 -0.26454511388E+02 -0.21094057533E+03  0.21452532086E+03  0.10566000000E+00 0.  1.
         13    1    4    4    0    0  0.46152578168E+01  0.45707129811E+01 -0.28438653847E+02  0.29171222438E+02  0.10566000000E+00 0. -1.
        -13    1    4    4    0    0  0.77383888715E+00  0.65146847816E+00 -0.52223397832E+01  0.53204543648E+01  0.10566000000E+00 0. -1.
         14    1    4    4    0    0  0.23339541157E+02  0.21232329928E+02 -0.12785107953E+03  0.13168691868E+03  0.00000000000E+00 0. -1.
<mgrwt>
<rscale>  0 0.78832078E+02</rscale>
<asrwt>0</asrwt>
<pdfrwt beam="1">  1        2 0.63471321E-03 0.78832078E+02</pdfrwt>
<pdfrwt beam="2">  1       -1 0.57935093E-01 0.78832078E+02</pdfrwt>
<totfact> 0.81135958E+04</totfact>
</mgrwt>
</event>
<event>
 8    1  0.1226832E-024  0.7981158E+02  0.7818608E-02  0.1329587E+00
         -1   -1    0    0    0  501 -0.00000000000E+00  0.00000000000E+00  0.21759030311E+02  0.21759030895E+02  0.50400000000E-02 0.  1.
          2   -1    0    0  501    0  0.00000000000E+00 -0.00000000000E+00 -0.73186714457E+02  0.73186714501E+02  0.25500000000E-02 0. -1.
         24    2    1    2    0    0  0.00000000000E+00  0.17763568394E-14 -0.51427684146E+02  0.94945745396E+02  0.79811577306E+02 0.  0.
         66    2    3    3    0    0 -0.81765244379E+01 -0.82842860633E+01 -0.71107221402E+02  0.72081356094E+02  0.20000033193E+01 0.  0.
        -13    1    3    3    0    0  0.81765244379E+01  0.82842860633E+01  0.19679537257E+02  0.22864389302E+02  0.10566000000E+00 0.  1.
         13    1    4    4    0    0 -0.41786085870E+01 -0.38055843346E+01 -0.30634798768E+02  0.31151971068E+02  0.10566000000E+00 0. -1.
        -13    1    4    4    0    0 -0.35130218902E+00 -0.48861904737E+00 -0.24696225046E+01  0.25440835585E+01  0.10566000000E+00 0. -1.
         14    1    4    4    0    0 -0.36466136619E+01 -0.39900826813E+01 -0.38002800130E+02  0.38385301467E+02  0.00000000000E+00 0. -1.
<mgrwt>
<rscale>  0 0.79811577E+02</rscale>
<asrwt>0</asrwt>
<pdfrwt beam="1">  1        2 0.11259494E-01 0.79811577E+02</pdfrwt>
<pdfrwt beam="2">  1       -1 0.33475432E-02 0.79811577E+02</pdfrwt>
<totfact> 0.16428865E+05</totfact>
</mgrwt>
</event>
<event>
 8    1  0.1226832E-024  0.8054375E+02  0.7818608E-02  0.1327515E+00
         -1   -1    0    0    0  501 -0.00000000000E+00  0.00000000000E+00  0.12319204951E+02  0.12319205982E+02  0.50400000000E-02 0.  1.
          2   -1    0    0  501    0  0.00000000000E+00 -0.00000000000E+00 -0.13165005602E+03  0.13165005604E+03  0.25500000000E-02 0. -1.
         24    2    1    2    0    0 -0.35527136788E-14  0.35527136788E-14 -0.11933085107E+03  0.14396926203E+03  0.80543754516E+02 0.  0.
         66    2    3    3    0    0 -0.26551293745E+02 -0.25384353852E+02 -0.89099416049E+02  0.96395241306E+02  0.19999965796E+01 0.  0.
        -13    1    3    3    0    0  0.26551293745E+02  0.25384353852E+02 -0.30231435020E+02  0.47574020720E+02  0.10566000000E+00 0.  1.
         13    1    4    4    0    0 -0.31684143874E+01 -0.36241924182E+01 -0.11732445615E+02  0.12682076508E+02  0.10566000000E+00 0. -1.
        -13    1    4    4    0    0 -0.60301023320E+01 -0.57573011165E+01 -0.21805775424E+02  0.23345484706E+02  0.10566000000E+00 0.  1.
        -14    1    4    4    0    0 -0.17352777026E+02 -0.16002860317E+02 -0.55561195010E+02  0.60367680093E+02  0.00000000000E+00 0.  1.
<mgrwt>
<rscale>  0 0.80543755E+02</rscale>
<asrwt>0</asrwt>
<pdfrwt beam="1">  1        2 0.20253854E-01 0.80543755E+02</pdfrwt>
<pdfrwt beam="2">  1       -1 0.18952625E-02 0.80543755E+02</pdfrwt>
<totfact> 0.18877753E+05</totfact>
</mgrwt>
</event>
<event>
 8    1  0.1226832E-024  0.7343333E+02  0.7818608E-02  0.1348792E+00
          2   -1    0    0  501    0  0.00000000000E+00  0.00000000000E+00  0.78861743062E+02  0.78861743103E+02  0.25500000000E-02 0. -1.
         -1   -1    0    0    0  501 -0.00000000000E+00 -0.00000000000E+00 -0.17094644521E+02  0.17094645264E+02  0.50400000000E-02 0.  1.
         24    2    1    2    0    0 -0.71054273576E-14  0.00000000000E+00  0.61767098541E+02  0.95956388367E+02  0.73433330350E+02 0.  0.
         66    2    3    3    0    0  0.33835519865E+02 -0.84945548659E+01  0.45754072932E+02  0.57571130518E+02  0.20000030968E+01 0.  0.
        -13    1    3    3    0    0 -0.33835519865E+02  0.84945548659E+01  0.16013025609E+02  0.38385257849E+02  0.10566000000E+00 0.  1.
         13    1    4    4    0    0  0.85125234826E+00 -0.18170708785E+00  0.80871167343E+00  0.11928229678E+01  0.10566000000E+00 0. -1.
        -13    1    4    4    0    0  0.76707079379E+01 -0.23455746966E+01  0.10139907276E+02  0.12929437904E+02  0.10566000000E+00 0.  1.
         14    1    4    4    0    0  0.25313559579E+02 -0.59672730815E+01  0.34805453983E+02  0.43448869646E+02  0.00000000000E+00 0. -1.
<mgrwt>
<rscale>  0 0.73433330E+02</rscale>
<asrwt>0</asrwt>
<pdfrwt beam="1">  1        2 0.12132576E-01 0.73433330E+02</pdfrwt>
<pdfrwt beam="2">  1       -1 0.26299454E-02 0.73433330E+02</pdfrwt>
<totfact> 0.20927527E+05</totfact>
</mgrwt>
</event>
<event>
 8    1  0.1226832E-024  0.7865625E+02  0.7818608E-02  0.1332909E+00
         -1   -1    0    0    0  501 -0.00000000000E+00  0.00000000000E+00  0.36792324922E+02  0.36792325268E+02  0.50400000000E-02 0.  1.
          2   -1    0    0  501    0  0.00000000000E+00 -0.00000000000E+00 -0.42038693803E+02  0.42038693880E+02  0.25500000000E-02 0. -1.
         24    2    1    2    0    0 -0.71054273576E-14 -0.44408920985E-15 -0.52463688805E+01  0.78831019148E+02  0.78656247009E+02 0.  0.
         66    2    3    3    0    0  0.34587640839E+02  0.24108805762E+01 -0.21174894807E+02  0.40675464556E+02  0.20000007019E+01 0.  0.
        -13    1    3    3    0    0 -0.34587640839E+02 -0.24108805762E+01  0.15928525927E+02  0.38155554592E+02  0.10566000000E+00 0.  1.
         13    1    4    4    0    0  0.18135030533E+02  0.20174441104E+01 -0.11597578524E+02  0.21620925161E+02  0.10566000000E+00 0. -1.
        -13    1    4    4    0    0  0.97094068386E+01  0.47732902532E+00 -0.59326658844E+01  0.11388946953E+02  0.10566000000E+00 0.  1.
        -14    1    4    4    0    0  0.67432034676E+01 -0.83892559518E-01 -0.36446503988E+01  0.76655924426E+01  0.00000000000E+00 0.  1.
<mgrwt>
<rscale>  0 0.78656247E+02</rscale>
<asrwt>0</asrwt>
<pdfrwt beam="1">  1        2 0.64674914E-02 0.78656247E+02</pdfrwt>
<pdfrwt beam="2">  1       -1 0.56603577E-02 0.78656247E+02</pdfrwt>
<totfact> 0.15090436E+05</totfact>
</mgrwt>
</event>
<event>
 8    1  0.1771345E-024  0.8079582E+02  0.7818608E-02  0.1326808E+00
         -1   -1    0    0    0  501 -0.00000000000E+00  0.00000000000E+00  0.22026285514E+02  0.22026286091E+02  0.50400000000E-02 0.  1.
          2   -1    0    0  501    0  0.00000000000E+00 -0.00000000000E+00 -0.74092889403E+02  0.74092889447E+02  0.25500000000E-02 0. -1.
         24    2    1    2    0    0  0.00000000000E+00  0.00000000000E+00 -0.52066603889E+02  0.96119175538E+02  0.80795820842E+02 0.  0.
         66    2    3    3    0    0  0.72834277865E+01 -0.15811523641E+02 -0.69384901105E+02  0.71563378204E+02  0.19999996093E+01 0.  0.
        -13    1    3    3    0    0 -0.72834277865E+01  0.15811523641E+02  0.17318297216E+02  0.24555797333E+02  0.10566000000E+00 0.  1.
         13    1    4    4    0    0  0.32343039029E+01 -0.74576271982E+01 -0.32728059107E+02  0.33722602837E+02  0.10566000000E+00 0. -1.
        -13    1    4    4    0    0  0.23734099130E+01 -0.36478746451E+01 -0.15282241905E+02  0.15890190236E+02  0.10566000000E+00 0.  1.
        -14    1    4    4    0    0  0.16757139706E+01 -0.47060217982E+01 -0.21374600093E+02  0.21950585132E+02  0.00000000000E+00 0.  1.
<mgrwt>
<rscale>  0 0.80795821E+02</rscale>
<asrwt>0</asrwt>
<pdfrwt beam="1">  1        2 0.11398906E-01 0.80795821E+02</pdfrwt>
<pdfrwt beam="2">  1       -1 0.33886594E-02 0.80795821E+02</pdfrwt>
<totfact> 0.15942135E+05</totfact>
</mgrwt>
</event>
<event>
 8    1  0.1226832E-024  0.8016473E+02  0.7818608E-02  0.1328585E+00
         -1   -1    0    0    0  501 -0.00000000000E+00  0.00000000000E+00  0.47323769479E+02  0.47323769747E+02  0.50400000000E-02 0.  1.
          2   -1    0    0  501    0  0.00000000000E+00 -0.00000000000E+00 -0.33949025429E+02  0.33949025525E+02  0.25500000000E-02 0. -1.
         24    2    1    2    0    0  0.00000000000E+00  0.44408920985E-15  0.13374744050E+02  0.81272795272E+02  0.80164727112E+02 0.  0.
         66    2    3    3    0    0  0.12364254811E+02  0.27940865593E+01 -0.31832516558E+02  0.34321870974E+02  0.19999999936E+01 0.  0.
        -13    1    3    3    0    0 -0.12364254811E+02 -0.27940865593E+01  0.45207260608E+02  0.46950924298E+02  0.10566000000E+00 0.  1.
         13    1    4    4    0    0  0.86568980864E+01  0.15642171367E+01 -0.23928617567E+02  0.25494677140E+02  0.10566000000E+00 0. -1.
        -13    1    4    4    0    0  0.13367182078E+01  0.28564326399E+00 -0.30290472576E+01  0.33248607438E+01  0.10566000000E+00 0.  1.
         14    1    4    4    0    0  0.23706385170E+01  0.94422615862E+00 -0.48748517334E+01  0.55023330906E+01  0.00000000000E+00 0. -1.
<mgrwt>
<rscale>  0 0.80164727E+02</rscale>
<asrwt>0</asrwt>
<pdfrwt beam="1">  1        2 0.52229271E-02 0.80164727E+02</pdfrwt>
<pdfrwt beam="2">  1       -1 0.72805799E-02 0.80164727E+02</pdfrwt>
<totfact> 0.13710755E+05</totfact>
</mgrwt>
</event>
<event>
 8    1  0.1226832E-024  0.7930319E+02  0.7818608E-02  0.1331041E+00
          2   -1    0    0  501    0  0.00000000000E+00  0.00000000000E+00  0.24660204219E+03  0.24660204221E+03  0.25500000000E-02 0. -1.
         -1   -1    0    0    0  501 -0.00000000000E+00 -0.00000000000E+00 -0.63756511176E+01  0.63756531097E+01  0.50400000000E-02 0.  1.
         24    2    1    2    0    0  0.17763568394E-14 -0.17763568394E-14  0.24022639108E+03  0.25297769532E+03  0.79303186306E+02 0.  0.
         66    2    3    3    0    0  0.87200440320E+01 -0.14284252321E+02  0.23477079774E+03  0.23537503373E+03  0.19999998505E+01 0.  0.
        -13    1    3    3    0    0 -0.87200440320E+01  0.14284252321E+02  0.54555933371E+01  0.17602661588E+02  0.10566000000E+00 0.  1.
         13    1    4    4    0    0  0.13875373123E+01 -0.23779468737E+01  0.30362102770E+02  0.30486855196E+02  0.10566000000E+00 0. -1.
        -13    1    4    4    0    0  0.48650006169E+01 -0.75570728042E+01  0.13653678599E+03  0.13683231589E+03  0.10566000000E+00 0.  1.
         14    1    4    4    0    0  0.24675061028E+01 -0.43492326431E+01  0.67871908982E+02  0.68055862641E+02  0.00000000000E+00 0. -1.
<mgrwt>
<rscale>  0 0.79303186E+02</rscale>
<asrwt>0</asrwt>
<pdfrwt beam="1">  1        2 0.37938772E-01 0.79303186E+02</pdfrwt>
<pdfrwt beam="2">  1       -1 0.98086965E-03 0.79303186E+02</pdfrwt>
<totfact> 0.24304198E+05</totfact>
</mgrwt>
</event>
<event>
 8    1  0.1226832E-024  0.7859589E+02  0.7818608E-02  0.1333084E+00
         -1   -1    0    0    0  501 -0.00000000000E+00  0.00000000000E+00  0.50871963051E+02  0.50871963301E+02  0.50400000000E-02 0.  1.
          2   -1    0    0  501    0  0.00000000000E+00 -0.00000000000E+00 -0.30357162130E+02  0.30357162237E+02  0.25500000000E-02 0. -1.
         24    2    1    2    0    0  0.17763568394E-14 -0.17763568394E-14  0.20514800921E+02  0.81229125538E+02  0.78595889071E+02 0.  0.
         66    2    3    3    0    0 -0.12398890772E+02  0.11090681464E+02 -0.26502966920E+02  0.31355110616E+02  0.19999996152E+01 0.  0.
        -13    1    3    3    0    0  0.12398890772E+02 -0.11090681464E+02  0.47017767841E+02  0.49874014922E+02  0.10566000000E+00 0.  1.
         13    1    4    4    0    0 -0.81297383225E+01  0.70423739742E+01 -0.18392230762E+02  0.21306641988E+02  0.10566000000E+00 0. -1.
        -13    1    4    4    0    0 -0.27016278030E+01  0.30171698988E+01 -0.57197086645E+01  0.70091610216E+01  0.10566000000E+00 0.  1.
         14    1    4    4    0    0 -0.15675246461E+01  0.10311375907E+01 -0.23910274937E+01  0.30393076058E+01  0.00000000000E+00 0. -1.
<mgrwt>
<rscale>  0 0.78595889E+02</rscale>
<asrwt>0</asrwt>
<pdfrwt beam="1">  1        2 0.46703327E-02 0.78595889E+02</pdfrwt>
<pdfrwt beam="2">  1       -1 0.78264559E-02 0.78595889E+02</pdfrwt>
<totfact> 0.14171465E+05</totfact>
</mgrwt>
</event>
<event>
 8    1  0.1226832E-024  0.7821437E+02  0.7818608E-02  0.1334197E+00
          2   -1    0    0  501    0  0.00000000000E+00  0.00000000000E+00  0.17361906597E+03  0.17361906599E+03  0.25500000000E-02 0. -1.
         -1   -1    0    0    0  501 -0.00000000000E+00 -0.00000000000E+00 -0.88087768459E+01  0.88087782877E+01  0.50400000000E-02 0.  1.
         24    2    1    2    0    0  0.00000000000E+00  0.00000000000E+00  0.16481028912E+03  0.18242784428E+03  0.78214365471E+02 0.  0.
         66    2    3    3    0    0  0.89931573364E+01 -0.16063549466E+02  0.16286617588E+03  0.16391554456E+03  0.20000004680E+01 0.  0.
        -13    1    3    3    0    0 -0.89931573364E+01  0.16063549466E+02  0.19441132394E+01  0.18512299713E+02  0.10566000000E+00 0.  1.
         13    1    4    4    0    0  0.28101524410E+01 -0.64425244591E+01  0.63589812821E+02  0.63977171998E+02  0.10566000000E+00 0.  1.
        -13    1    4    4    0    0  0.26207860356E+01 -0.39403273297E+01  0.36780879295E+02  0.37084214225E+02  0.10566000000E+00 0. -1.
         14    1    4    4    0    0  0.35622188599E+01 -0.56806976777E+01  0.62495483767E+02  0.62854158339E+02  0.00000000000E+00 0. -1.
<mgrwt>
<rscale>  0 0.78214365E+02</rscale>
<asrwt>0</asrwt>
<pdfrwt beam="1">  1        2 0.26710624E-01 0.78214365E+02</pdfrwt>
<pdfrwt beam="2">  1       -1 0.13551966E-02 0.78214365E+02</pdfrwt>
<totfact> 0.22308662E+05</totfact>
</mgrwt>
</event>
<event>
 8    1  0.1226832E-024  0.7758656E+02  0.7818608E-02  0.1336043E+00
         -1   -1    0    0    0  501 -0.00000000000E+00  0.00000000000E+00  0.10723031405E+02  0.10723032590E+02  0.50400000000E-02 0.  1.
          2   -1    0    0  501    0  0.00000000000E+00 -0.00000000000E+00 -0.14034449023E+03  0.14034449025E+03  0.25500000000E-02 0. -1.
         24    2    1    2    0    0  0.00000000000E+00  0.00000000000E+00 -0.12962145882E+03  0.15106752284E+03  0.77586557276E+02 0.  0.
         66    2    3    3    0    0  0.12487474863E+02  0.36691343418E+02 -0.66507938150E+02  0.77003230729E+02  0.19999988846E+01 0.  0.
        -13    1    3    3    0    0 -0.12487474863E+02 -0.36691343418E+02 -0.63113520675E+02  0.74064292113E+02  0.10566000000E+00 0.  1.
         13    1    4    4    0    0  0.13074420144E+01  0.38440060957E+01 -0.61648484746E+01  0.73825678619E+01  0.10566000000E+00 0. -1.
        -13    1    4    4    0    0  0.17946169482E+01  0.42730762062E+01 -0.86943813592E+01  0.98530838579E+01  0.10566000000E+00 0.  1.
         14    1    4    4    0    0  0.93854159008E+01  0.28574261116E+02 -0.51648708316E+02  0.59767579009E+02  0.00000000000E+00 0. -1.
<mgrwt>
<rscale>  0 0.77586557E+02</rscale>
<asrwt>0</asrwt>
<pdfrwt beam="1">  1        2 0.21591459E-01 0.77586557E+02</pdfrwt>
<pdfrwt beam="2">  1       -1 0.16496973E-02 0.77586557E+02</pdfrwt>
<totfact> 0.21269312E+05</totfact>
</mgrwt>
</event>
<event>
 8    1  0.1226832E-024  0.7827909E+02  0.7818608E-02  0.1334007E+00
         -1   -1    0    0    0  501 -0.00000000000E+00  0.00000000000E+00  0.55080268598E+01  0.55080291657E+01  0.50400000000E-02 0.  1.
          2   -1    0    0  501    0  0.00000000000E+00 -0.00000000000E+00 -0.27812201400E+03  0.27812201402E+03  0.25500000000E-02 0. -1.
         24    2    1    2    0    0  0.00000000000E+00  0.17763568394E-14 -0.27261398714E+03  0.28363004318E+03  0.78279086661E+02 0.  0.
         66    2    3    3    0    0  0.34403272131E+01  0.13872336240E+02 -0.26831742040E+03  0.26870525796E+03  0.20000006796E+01 0.  0.
        -13    1    3    3    0    0 -0.34403272131E+01 -0.13872336240E+02 -0.42965667479E+01  0.14924785222E+02  0.10566000000E+00 0.  1.
         13    1    4    4    0    0  0.26138301079E+01  0.91597262960E+01 -0.19179270328E+03  0.19202912510E+03  0.10566000000E+00 0. -1.
        -13    1    4    4    0    0  0.11617963532E+00  0.68364698934E+00 -0.87639446462E+01  0.87919713780E+01  0.10566000000E+00 0.  1.
         14    1    4    4    0    0  0.71031746990E+00  0.40289629542E+01 -0.67760772472E+02  0.67884161477E+02  0.00000000000E+00 0. -1.
<mgrwt>
<rscale>  0 0.78279087E+02</rscale>
<asrwt>0</asrwt>
<pdfrwt beam="1">  1        2 0.42787991E-01 0.78279087E+02</pdfrwt>
<pdfrwt beam="2">  1       -1 0.84738915E-03 0.78279087E+02</pdfrwt>
<totfact> 0.26259900E+05</totfact>
</mgrwt>
</event>
<event>
 8    1  0.1226832E-024  0.7914685E+02  0.7818608E-02  0.1331490E+00
         -1   -1    0    0    0  501 -0.00000000000E+00  0.00000000000E+00  0.68717632827E+01  0.68717651310E+01  0.50400000000E-02 0.  1.
          2   -1    0    0  501    0  0.00000000000E+00 -0.00000000000E+00 -0.22789721850E+03  0.22789721851E+03  0.25500000000E-02 0. -1.
         24    2    1    2    0    0  0.00000000000E+00  0.17763568394E-14 -0.22102545522E+03  0.23476898364E+03  0.79146849765E+02 0.  0.
         66    2    3    3    0    0  0.17461585693E+02  0.15217174902E+02 -0.20566880757E+03  0.20697856843E+03  0.19999987309E+01 0.  0.
        -13    1    3    3    0    0 -0.17461585693E+02 -0.15217174902E+02 -0.15356647649E+02  0.27790415217E+02  0.10566000000E+00 0.  1.
         13    1    4    4    0    0  0.10846217518E+01  0.14833559494E+01 -0.17786870532E+02  0.17881853276E+02  0.10566000000E+00 0. -1.
        -13    1    4    4    0    0  0.14664403579E+02  0.12155290311E+02 -0.16999357209E+03  0.17105736327E+03  0.10566000000E+00 0.  1.
        -14    1    4    4    0    0  0.17125603621E+01  0.15785286420E+01 -0.17888364947E+02  0.18039351878E+02  0.00000000000E+00 0.  1.
<mgrwt>
<rscale>  0 0.79146850E+02</rscale>
<asrwt>0</asrwt>
<pdfrwt beam="1">  1        2 0.35061105E-01 0.79146850E+02</pdfrwt>
<pdfrwt beam="2">  1       -1 0.10571947E-02 0.79146850E+02</pdfrwt>
<totfact> 0.23754364E+05</totfact>
</mgrwt>
</event>
<event>
 8    1  0.1226832E-024  0.7987269E+02  0.7818608E-02  0.1329413E+00
          2   -1    0    0  501    0  0.00000000000E+00  0.00000000000E+00  0.52256155241E+03  0.52256155242E+03  0.25500000000E-02 0. -1.
         -1   -1    0    0    0  501 -0.00000000000E+00 -0.00000000000E+00 -0.30521005908E+01  0.30521047521E+01  0.50400000000E-02 0.  1.
         24    2    1    2    0    0  0.35527136788E-14 -0.71054273576E-14  0.51950945182E+03  0.52561365717E+03  0.79872686648E+02 0.  0.
         66    2    3    3    0    0  0.31375170678E+02 -0.23520261292E+02  0.30885453221E+03  0.31134020957E+03  0.20000004513E+01 0.  0.
        -13    1    3    3    0    0 -0.31375170678E+02  0.23520261292E+02  0.21065491962E+03  0.21427344760E+03  0.10566000000E+00 0.  1.
         13    1    4    4    0    0  0.59208852732E+01 -0.43235872941E+01  0.53912195491E+02  0.54408512902E+02  0.10566000000E+00 0. -1.
        -13    1    4    4    0    0  0.61000630992E+01 -0.42104678694E+01  0.55500851548E+02  0.55993700504E+02  0.10566000000E+00 0.  1.
        -14    1    4    4    0    0  0.19354222306E+02 -0.14986206128E+02  0.19944148517E+03  0.20093799616E+03  0.00000000000E+00 0.  1.
<mgrwt>
<rscale>  0 0.79872687E+02</rscale>
<asrwt>0</asrwt>
<pdfrwt beam="1">  1        2 0.80394020E-01 0.79872687E+02</pdfrwt>
<pdfrwt beam="2">  1       -1 0.46955464E-03 0.79872687E+02</pdfrwt>
<totfact> 0.31005312E+05</totfact>
</mgrwt>
</event>
<event>
 8    1  0.1226832E-024  0.7011159E+02  0.7818608E-02  0.1359714E+00
         -1   -1    0    0    0  501 -0.00000000000E+00  0.00000000000E+00  0.11502527958E+02  0.11502529062E+02  0.50400000000E-02 0.  1.
          2   -1    0    0  501    0  0.00000000000E+00 -0.00000000000E+00 -0.10683813189E+03  0.10683813192E+03  0.25500000000E-02 0. -1.
         24    2    1    2    0    0  0.00000000000E+00  0.00000000000E+00 -0.95335603928E+02  0.11834066098E+03  0.70111587233E+02 0.  0.
         66    2    3    3    0    0 -0.20584039195E+02 -0.69929154920E+01 -0.94063592075E+02  0.96563776102E+02  0.19999911267E+01 0.  0.
        -13    1    3    3    0    0  0.20584039195E+02  0.69929154920E+01 -0.12720118533E+01  0.21776884875E+02  0.10566000000E+00 0.  1.
         13    1    4    4    0    0 -0.62882041604E+01 -0.26839475307E+01 -0.31667358788E+02  0.32397189115E+02  0.10566000000E+00 0. -1.
        -13    1    4    4    0    0 -0.46724907166E+01 -0.11091029328E+01 -0.21779559988E+02  0.22302974602E+02  0.10566000000E+00 0.  1.
         14    1    4    4    0    0 -0.96233443184E+01 -0.31998650285E+01 -0.40616673299E+02  0.41863612385E+02  0.00000000000E+00 0. -1.
<mgrwt>
<rscale>  0 0.70111587E+02</rscale>
<asrwt>0</asrwt>
<pdfrwt beam="1">  1        2 0.16436635E-01 0.70111587E+02</pdfrwt>
<pdfrwt beam="2">  1       -1 0.17696199E-02 0.70111587E+02</pdfrwt>
<totfact> 0.25624013E+05</totfact>
</mgrwt>
</event>
<event>
 8    1  0.1226832E-024  0.8096970E+02  0.7818608E-02  0.1326322E+00
         -1   -1    0    0    0  501 -0.00000000000E+00  0.00000000000E+00  0.18227184288E+03  0.18227184295E+03  0.50400000000E-02 0.  1.
          2   -1    0    0  501    0  0.00000000000E+00 -0.00000000000E+00 -0.89921899018E+01  0.89921902634E+01  0.25500000000E-02 0. -1.
         24    2    1    2    0    0 -0.71054273576E-14  0.00000000000E+00  0.17327965298E+03  0.19126403322E+03  0.80969699671E+02 0.  0.
         66    2    3    3    0    0  0.35173764961E+02  0.16391615613E+02  0.59641923900E+02  0.71183129494E+02  0.20000085247E+01 0.  0.
        -13    1    3    3    0    0 -0.35173764961E+02 -0.16391615613E+02  0.11363772908E+03  0.12008090372E+03  0.10566000000E+00 0.  1.
         13    1    4    4    0    0  0.10634316058E+02  0.56429294973E+01  0.18080077208E+02  0.21721687025E+02  0.10566000000E+00 0. -1.
        -13    1    4    4    0    0  0.78371261815E+01  0.39512019016E+01  0.14059662454E+02  0.16574613589E+02  0.10566000000E+00 0.  1.
         14    1    4    4    0    0  0.16702322722E+02  0.67974842141E+01  0.27502184238E+02  0.32886828880E+02  0.00000000000E+00 0. -1.
<mgrwt>
<rscale>  0 0.80969700E+02</rscale>
<asrwt>0</asrwt>
<pdfrwt beam="1">  1        2 0.13834139E-02 0.80969700E+02</pdfrwt>
<pdfrwt beam="2">  1       -1 0.28041821E-01 0.80969700E+02</pdfrwt>
<totfact> 0.99272558E+04</totfact>
</mgrwt>
</event>
<event>
 8    1  0.1226832E-024  0.7995891E+02  0.7818608E-02  0.1329168E+00
          2   -1    0    0  501    0  0.00000000000E+00  0.00000000000E+00  0.50613682206E+03  0.50613682207E+03  0.25500000000E-02 0. -1.
         -1   -1    0    0    0  501 -0.00000000000E+00 -0.00000000000E+00 -0.31579522827E+01  0.31579563046E+01  0.50400000000E-02 0.  1.
         24    2    1    2    0    0  0.00000000000E+00  0.00000000000E+00  0.50297886978E+03  0.50929477837E+03  0.79958913409E+02 0.  0.
         66    2    3    3    0    0  0.31381627743E+02 -0.22419329654E+02  0.31812072696E+03  0.32045628380E+03  0.20000008653E+01 0.  0.
        -13    1    3    3    0    0 -0.31381627743E+02  0.22419329654E+02  0.18485814282E+03  0.18883849457E+03  0.10566000000E+00 0.  1.
         13    1    4    4    0    0  0.78031836375E+01 -0.50802569653E+01  0.82042808987E+02  0.82569560712E+02  0.10566000000E+00 0. -1.
        -13    1    4    4    0    0  0.11656218065E+02 -0.87463336170E+01  0.11434078617E+03  0.11526574651E+03  0.10566000000E+00 0.  1.
         14    1    4    4    0    0  0.11922226041E+02 -0.85927390714E+01  0.12173713180E+03  0.12262097658E+03  0.00000000000E+00 0. -1.
<mgrwt>
<rscale>  0 0.79958913E+02</rscale>
<asrwt>0</asrwt>
<pdfrwt beam="1">  1        2 0.77867190E-01 0.79958913E+02</pdfrwt>
<pdfrwt beam="2">  1       -1 0.48583921E-03 0.79958913E+02</pdfrwt>
<totfact> 0.30610469E+05</totfact>
</mgrwt>
</event>
<event>
 8    1  0.1226832E-024  0.8234709E+02  0.7818608E-02  0.1322520E+00
         -1   -1    0    0    0  501 -0.00000000000E+00  0.00000000000E+00  0.25183546103E+02  0.25183546607E+02  0.50400000000E-02 0.  1.
          2   -1    0    0  501    0  0.00000000000E+00 -0.00000000000E+00 -0.67316198989E+02  0.67316199038E+02  0.25500000000E-02 0. -1.
         24    2    1    2    0    0  0.00000000000E+00  0.00000000000E+00 -0.42132652886E+02  0.92499745645E+02  0.82347085590E+02 0.  0.
         66    2    3    3    0    0  0.40410960920E+02 -0.12886559204E+01 -0.29673857068E+02  0.50192073127E+02  0.20000037380E+01 0.  0.
        -13    1    3    3    0    0 -0.40410960920E+02  0.12886559204E+01 -0.12458795818E+02  0.42307672517E+02  0.10566000000E+00 0.  1.
         13    1    4    4    0    0  0.28128016794E+02 -0.79769254799E+00 -0.21374763952E+02  0.35337138258E+02  0.10566000000E+00 0. -1.
        -13    1    4    4    0    0  0.19063454590E+01 -0.22642943519E+00 -0.15959214021E+01  0.24987101584E+01  0.10566000000E+00 0.  1.
        -14    1    4    4    0    0  0.10376598667E+02 -0.26453393720E+00 -0.67031717139E+01  0.12356224711E+02  0.00000000000E+00 0.  1.
<mgrwt>
<rscale>  0 0.82347086E+02</rscale>
<asrwt>0</asrwt>
<pdfrwt beam="1">  1        2 0.10356338E-01 0.82347086E+02</pdfrwt>
<pdfrwt beam="2">  1       -1 0.38743918E-02 0.82347086E+02</pdfrwt>
<totfact> 0.14786365E+05</totfact>
</mgrwt>
</event>
<event>
 8    1  0.1226832E-024  0.8020050E+02  0.7818608E-02  0.1328483E+00
          2   -1    0    0  501    0  0.00000000000E+00  0.00000000000E+00  0.15553078906E+02  0.15553079116E+02  0.25500000000E-02 0. -1.
         -1   -1    0    0    0  501 -0.00000000000E+00 -0.00000000000E+00 -0.10338982960E+03  0.10338982973E+03  0.50400000000E-02 0.  1.
         24    2    1    2    0    0  0.00000000000E+00 -0.17763568394E-14 -0.87836750696E+02  0.11894290884E+03  0.80200503681E+02 0.  0.
         66    2    3    3    0    0  0.32029098183E+02 -0.93499792291E+01 -0.11024811925E+02  0.35197041219E+02  0.19999976383E+01 0.  0.
        -13    1    3    3    0    0 -0.32029098183E+02  0.93499792291E+01 -0.76811938771E+02  0.83745867622E+02  0.10566000000E+00 0.  1.
         13    1    4    4    0    0  0.45150014353E+01 -0.15212948454E+01 -0.95337727871E+00  0.48600070204E+01  0.10566000000E+00 0. -1.
        -13    1    4    4    0    0  0.26089945164E+01 -0.63794607865E+00 -0.11311765165E+01  0.29162564930E+01  0.10566000000E+00 0.  1.
         14    1    4    4    0    0  0.24905102232E+02 -0.71907383051E+01 -0.89402581302E+01  0.27420777706E+02  0.00000000000E+00 0. -1.
<mgrwt>
<rscale>  0 0.80200504E+02</rscale>
<asrwt>0</asrwt>
<pdfrwt beam="1">  1        2 0.23927815E-02 0.80200504E+02</pdfrwt>
<pdfrwt beam="2">  1       -1 0.15906127E-01 0.80200504E+02</pdfrwt>
<totfact> 0.11694886E+05</totfact>
</mgrwt>
</event>
<event>
 8    1  0.1226832E-024  0.7948824E+02  0.7818608E-02  0.1330510E+00
         -1   -1    0    0    0  501 -0.00000000000E+00  0.00000000000E+00  0.10677465397E+01  0.10677584346E+01  0.50400000000E-02 0.  1.
          2   -1    0    0  501    0  0.00000000000E+00 -0.00000000000E+00 -0.14793643875E+04  0.14793643875E+04  0.25500000000E-02 0. -1.
         24    2    1    2    0    0 -0.17763568394E-14  0.11102230246E-15 -0.14782966410E+04  0.14804321460E+04  0.79488238429E+02 0.  0.
         66    2    3    3    0    0  0.15063808179E+02 -0.89088900225E+00 -0.14238934639E+04  0.14239748272E+04  0.19999963082E+01 0.  0.
        -13    1    3    3    0    0 -0.15063808179E+02  0.89088900225E+00 -0.54403177144E+02  0.56457318813E+02  0.10566000000E+00 0.  1.
         13    1    4    4    0    0  0.62125574147E+01 -0.65177744771E+00 -0.57876442371E+03  0.57879814271E+03  0.10566000000E+00 0. -1.
        -13    1    4    4    0    0  0.33846828228E+01  0.18284202925E+00 -0.38633825524E+03  0.38635313915E+03  0.10566000000E+00 0.  1.
        -14    1    4    4    0    0  0.54665679419E+01 -0.42195358379E+00 -0.45879078491E+03  0.45882354530E+03  0.00000000000E+00 0.  1.
<mgrwt>
<rscale>  0 0.79488238E+02</rscale>
<asrwt>0</asrwt>
<pdfrwt beam="1">  1        2 0.22759288E+00 0.79488238E+02</pdfrwt>
<pdfrwt beam="2">  1       -1 0.16427080E-03 0.79488238E+02</pdfrwt>
<totfact> 0.33982841E+05</totfact>
</mgrwt>
</event>
<event>
 8    1  0.1226832E-024  0.8055294E+02  0.7818608E-02  0.1327490E+00
         -1   -1    0    0    0  501 -0.00000000000E+00  0.00000000000E+00  0.12306014945E+03  0.12306014955E+03  0.50400000000E-02 0.  1.
          2   -1    0    0  501    0  0.00000000000E+00 -0.00000000000E+00 -0.13182123683E+02  0.13182123929E+02  0.25500000000E-02 0. -1.
         24    2    1    2    0    0 -0.35527136788E-14 -0.35527136788E-14  0.10987802577E+03  0.13624227348E+03  0.80552942448E+02 0.  0.
         66    2    3    3    0    0  0.28545575199E+02  0.22571781635E+02  0.25881080057E+02  0.44700844378E+02  0.19999984201E+01 0.  0.
        -13    1    3    3    0    0 -0.28545575199E+02 -0.22571781635E+02  0.83996945711E+02  0.91541429104E+02  0.10566000000E+00 0.  1.
         13    1    4    4    0    0  0.10638313997E+02  0.86164032442E+01  0.10549866989E+02  0.17283720290E+02  0.10566000000E+00 0. -1.
        -13    1    4    4    0    0  0.61637015433E+01  0.42896020825E+01  0.46878617527E+01  0.88531979865E+01  0.10566000000E+00 0.  1.
         14    1    4    4    0    0  0.11743559659E+02  0.96657763080E+01  0.10643351315E+02  0.18563926102E+02  0.00000000000E+00 0. -1.
<mgrwt>
<rscale>  0 0.80552942E+02</rscale>
<asrwt>0</asrwt>
<pdfrwt beam="1">  1        2 0.20280190E-02 0.80552942E+02</pdfrwt>
<pdfrwt beam="2">  1       -1 0.18932331E-01 0.80552942E+02</pdfrwt>
<totfact> 0.11124440E+05</totfact>
</mgrwt>
</event>
<event>
 8    1  0.1226832E-024  0.7947626E+02  0.7818608E-02  0.1330544E+00
          2   -1    0    0  501    0  0.00000000000E+00  0.00000000000E+00  0.12416225305E+03  0.12416225307E+03  0.25500000000E-02 0. -1.
         -1   -1    0    0    0  501 -0.00000000000E+00 -0.00000000000E+00 -0.12718187432E+02  0.12718188431E+02  0.50400000000E-02 0.  1.
         24    2    1    2    0    0 -0.71054273576E-14 -0.88817841970E-15  0.11144406561E+03  0.13688044150E+03  0.79476257496E+02 0.  0.
         66    2    3    3    0    0 -0.33700413924E+02 -0.63683649634E+01  0.90238986286E+02  0.96557488681E+02  0.20000008792E+01 0.  0.
        -13    1    3    3    0    0  0.33700413924E+02  0.63683649634E+01  0.21205079326E+02  0.40322952821E+02  0.10566000000E+00 0.  1.
         13    1    4    4    0    0 -0.21200346854E+02 -0.47101678438E+01  0.57033487441E+02  0.61028437974E+02  0.10566000000E+00 0. -1.
        -13    1    4    4    0    0 -0.11945966992E+02 -0.17522233860E+01  0.31620377142E+02  0.33847242558E+02  0.10566000000E+00 0.  1.
         14    1    4    4    0    0 -0.55410007803E+00  0.94026266293E-01  0.15851217036E+01  0.16818081492E+01  0.00000000000E+00 0. -1.
<mgrwt>
<rscale>  0 0.79476257E+02</rscale>
<asrwt>0</asrwt>
<pdfrwt beam="1">  1        2 0.19101885E-01 0.79476257E+02</pdfrwt>
<pdfrwt beam="2">  1       -1 0.19566443E-02 0.79476257E+02</pdfrwt>
<totfact> 0.19212685E+05</totfact>
</mgrwt>
</event>
<event>
 8    1  0.1226832E-024  0.8959396E+02  0.7818608E-02  0.1303838E+00
         -1   -1    0    0    0  501 -0.00000000000E+00  0.00000000000E+00  0.68571311128E+02  0.68571311313E+02  0.50400000000E-02 0.  1.
          2   -1    0    0  501    0  0.00000000000E+00 -0.00000000000E+00 -0.29265438979E+02  0.29265439090E+02  0.25500000000E-02 0. -1.
         24    2    1    2    0    0 -0.35527136788E-14 -0.35527136788E-14  0.39305872149E+02  0.97836750404E+02  0.89593962654E+02 0.  0.
         66    2    3    3    0    0  0.30509993172E+02  0.31792324565E+02  0.10984698894E+02  0.45456299821E+02  0.19999997656E+01 0.  0.
        -13    1    3    3    0    0 -0.30509993172E+02 -0.31792324565E+02  0.28321173255E+02  0.52380450582E+02  0.10566000000E+00 0.  1.
         13    1    4    4    0    0  0.87060798559E+01  0.80577076412E+01  0.31513629165E+01  0.12274556251E+02  0.10566000000E+00 0. -1.
        -13    1    4    4    0    0  0.10044881181E+02  0.10846477875E+02  0.40759496991E+01  0.15335261661E+02  0.10566000000E+00 0.  1.
         14    1    4    4    0    0  0.11759032136E+02  0.12888139048E+02  0.37573862782E+01  0.17846481909E+02  0.00000000000E+00 0. -1.
<mgrwt>
<rscale>  0 0.89593963E+02</rscale>
<asrwt>0</asrwt>
<pdfrwt beam="1">  1        2 0.45023752E-02 0.89593963E+02</pdfrwt>
<pdfrwt beam="2">  1       -1 0.10549433E-01 0.89593963E+02</pdfrwt>
<totfact> 0.97120571E+04</totfact>
</mgrwt>
</event>
<event>
 8    1  0.1226832E-024  0.7542137E+02  0.7818608E-02  0.1342571E+00
          2   -1    0    0  501    0  0.00000000000E+00  0.00000000000E+00  0.27529644500E+02  0.27529644618E+02  0.25500000000E-02 0. -1.
         -1   -1    0    0    0  501 -0.00000000000E+00 -0.00000000000E+00 -0.51656892910E+02  0.51656893156E+02  0.50400000000E-02 0.  1.
         24    2    1    2    0    0  0.00000000000E+00 -0.35527136788E-14 -0.24127248410E+02  0.79186537774E+02  0.75421373952E+02 0.  0.
         66    2    3    3    0    0 -0.66461165773E+01  0.20522107452E+02  0.20369703336E+02  0.29736384705E+02  0.20000003778E+01 0.  0.
        -13    1    3    3    0    0  0.66461165773E+01 -0.20522107452E+02 -0.44496951746E+02  0.49450153069E+02  0.10566000000E+00 0.  1.
         13    1    4    4    0    0 -0.29421576160E+01  0.80700063531E+01  0.78792709227E+01  0.11656559024E+02  0.10566000000E+00 0. -1.
        -13    1    4    4    0    0 -0.24635843129E+01  0.98939051258E+01  0.92264440615E+01  0.13751255956E+02  0.10566000000E+00 0.  1.
        -14    1    4    4    0    0 -0.12403746484E+01  0.25581959726E+01  0.32639883521E+01  0.43285697251E+01  0.00000000000E+00 0.  1.
<mgrwt>
<rscale>  0 0.75421374E+02</rscale>
<asrwt>0</asrwt>
<pdfrwt beam="1">  1        2 0.42353299E-02 0.75421374E+02</pdfrwt>
<pdfrwt beam="2">  1       -1 0.79472143E-02 0.75421374E+02</pdfrwt>
<totfact> 0.15604178E+05</totfact>
</mgrwt>
</event>
<event>
 8    1  0.1226832E-024  0.8136856E+02  0.7818608E-02  0.1325212E+00
         -1   -1    0    0    0  501 -0.00000000000E+00  0.00000000000E+00  0.22553275972E+02  0.22553276535E+02  0.50400000000E-02 0.  1.
          2   -1    0    0  501    0  0.00000000000E+00 -0.00000000000E+00 -0.73391131007E+02  0.73391131051E+02  0.25500000000E-02 0. -1.
         24    2    1    2    0    0  0.44408920985E-15  0.00000000000E+00 -0.50837855034E+02  0.95944407586E+02  0.81368555613E+02 0.  0.
         66    2    3    3    0    0 -0.37567183141E+01 -0.40466170734E+02 -0.23951358091E+02  0.47215373240E+02  0.20000023645E+01 0.  0.
        -13    1    3    3    0    0  0.37567183141E+01  0.40466170734E+02 -0.26886496943E+02  0.48729034346E+02  0.10566000000E+00 0.  1.
         13    1    4    4    0    0 -0.15234218426E+00 -0.29102903222E+01 -0.20957158654E+01  0.35911261361E+01  0.10566000000E+00 0. -1.
        -13    1    4    4    0    0 -0.40291867435E-01 -0.20663615790E+00 -0.14351539522E+00  0.27583081880E+00  0.10566000000E+00 0. -1.
         14    1    4    4    0    0 -0.35640842624E+01 -0.37349244254E+02 -0.21712126830E+02  0.43348416286E+02  0.00000000000E+00 0. -1.
<mgrwt>
<rscale>  0 0.81368556E+02</rscale>
<asrwt>0</asrwt>
<pdfrwt beam="1">  1        2 0.11290943E-01 0.81368556E+02</pdfrwt>
<pdfrwt beam="2">  1       -1 0.34697348E-02 0.81368556E+02</pdfrwt>
<totfact> 0.15602991E+05</totfact>
</mgrwt>
</event>
<event>
 8    1  0.1226832E-024  0.7935266E+02  0.7818608E-02  0.1330899E+00
          2   -1    0    0  501    0  0.00000000000E+00  0.00000000000E+00  0.84588651399E+02  0.84588651438E+02  0.25500000000E-02 0. -1.
         -1   -1    0    0    0  501 -0.00000000000E+00 -0.00000000000E+00 -0.18610195270E+02  0.18610195953E+02  0.50400000000E-02 0.  1.
         24    2    1    2    0    0 -0.44408920985E-15  0.17763568394E-14  0.65978456129E+02  0.10319884739E+03  0.79352664918E+02 0.  0.
         66    2    3    3    0    0  0.36606529739E+01 -0.97498257282E+01  0.82766225185E+02  0.83442839801E+02  0.20000001936E+01 0.  0.
        -13    1    3    3    0    0 -0.36606529739E+01  0.97498257282E+01 -0.16787769057E+02  0.19756007589E+02  0.10566000000E+00 0.  1.
         13    1    4    4    0    0  0.92629500608E+00 -0.35624200354E+01  0.33814611135E+02  0.34014525562E+02  0.10566000000E+00 0. -1.
        -13    1    4    4    0    0  0.53042779415E+00 -0.52697322963E+00  0.66662853190E+01  0.67089178277E+01  0.10566000000E+00 0. -1.
         14    1    4    4    0    0  0.22039301737E+01 -0.56604324632E+01  0.42285328732E+02  0.42719396412E+02  0.00000000000E+00 0. -1.
<mgrwt>
<rscale>  0 0.79352665E+02</rscale>
<asrwt>0</asrwt>
<pdfrwt beam="1">  1        2 0.13013639E-01 0.79352665E+02</pdfrwt>
<pdfrwt beam="2">  1       -1 0.28631070E-02 0.79352665E+02</pdfrwt>
<totfact> 0.17313473E+05</totfact>
</mgrwt>
</event>
<event>
 8    1  0.1226832E-024  0.7765388E+02  0.7818608E-02  0.1335844E+00
          2   -1    0    0  501    0  0.00000000000E+00  0.00000000000E+00  0.29146455672E+02  0.29146455784E+02  0.25500000000E-02 0. -1.
         -1   -1    0    0    0  501 -0.00000000000E+00 -0.00000000000E+00 -0.51722632787E+02  0.51722633033E+02  0.50400000000E-02 0.  1.
         24    2    1    2    0    0  0.00000000000E+00  0.88817841970E-15 -0.22576177115E+02  0.80869088817E+02  0.77653884339E+02 0.  0.
         66    2    3    3    0    0 -0.33630945008E+02  0.53230030071E+01  0.80799299645E+01  0.35052248153E+02  0.20000023092E+01 0.  0.
        -13    1    3    3    0    0  0.33630945008E+02 -0.53230030071E+01 -0.30656107079E+02  0.45816840664E+02  0.10566000000E+00 0.  1.
         13    1    4    4    0    0 -0.39803836854E+01  0.72974223390E+00  0.12838282124E+01  0.42468054965E+01  0.10566000000E+00 0. -1.
        -13    1    4    4    0    0 -0.43148530230E+00 -0.87584855367E-01  0.14640322956E+00  0.47586617259E+00  0.10566000000E+00 0. -1.
         14    1    4    4    0    0 -0.29219076020E+02  0.46808456286E+01  0.66496985226E+01  0.30329576484E+02  0.00000000000E+00 0. -1.
<mgrwt>
<rscale>  0 0.77653884E+02</rscale>
<asrwt>0</asrwt>
<pdfrwt beam="1">  1        2 0.44840701E-02 0.77653884E+02</pdfrwt>
<pdfrwt beam="2">  1       -1 0.79573282E-02 0.77653884E+02</pdfrwt>
<totfact> 0.14541624E+05</totfact>
</mgrwt>
</event>
<event>
 8    1  0.1226832E-024  0.7864947E+02  0.7818608E-02  0.1332928E+00
         -1   -1    0    0    0  501 -0.00000000000E+00  0.00000000000E+00  0.10071457744E+03  0.10071457756E+03  0.50400000000E-02 0.  1.
          2   -1    0    0  501    0  0.00000000000E+00 -0.00000000000E+00 -0.15354628148E+02  0.15354628360E+02  0.25500000000E-02 0. -1.
         24    2    1    2    0    0  0.35527136788E-14  0.00000000000E+00  0.85359949289E+02  0.11606920592E+03  0.78649473114E+02 0.  0.
         66    2    3    3    0    0 -0.17538498669E+02  0.17645086532E+02  0.87603240528E+02  0.91089383388E+02  0.20000001542E+01 0.  0.
        -13    1    3    3    0    0  0.17538498669E+02 -0.17645086532E+02 -0.22432912389E+01  0.24979822536E+02  0.10566000000E+00 0.  1.
         13    1    4    4    0    0 -0.54392423826E+01  0.43358898734E+01  0.23657014189E+02  0.24658685753E+02  0.10566000000E+00 0. -1.
        -13    1    4    4    0    0 -0.34766820653E+00  0.40785766346E+00  0.18795029357E+01  0.19572726883E+01  0.10566000000E+00 0. -1.
         14    1    4    4    0    0 -0.11751588080E+02  0.12901338995E+02  0.62066723403E+02  0.64473424946E+02  0.00000000000E+00 0. -1.
<mgrwt>
<rscale>  0 0.78649473E+02</rscale>
<asrwt>0</asrwt>
<pdfrwt beam="1">  1        2 0.23622505E-02 0.78649473E+02</pdfrwt>
<pdfrwt beam="2">  1       -1 0.15494551E-01 0.78649473E+02</pdfrwt>
<totfact> 0.12348137E+05</totfact>
</mgrwt>
</event>
<event>
 8    1  0.1226832E-024  0.7604711E+02  0.7818608E-02  0.1340659E+00
          2   -1    0    0  501    0  0.00000000000E+00  0.00000000000E+00  0.42877355387E+03  0.42877355388E+03  0.25500000000E-02 0. -1.
         -1   -1    0    0    0  501 -0.00000000000E+00 -0.00000000000E+00 -0.33719192085E+01  0.33719229751E+01  0.50400000000E-02 0.  1.
         24    2    1    2    0    0  0.00000000000E+00  0.00000000000E+00  0.42540163466E+03  0.43214547685E+03  0.76047106398E+02 0.  0.
         66    2    3    3    0    0 -0.97560722143E+01 -0.89256833331E+01  0.41527399198E+03  0.41548927446E+03  0.20000006648E+01 0.  0.
        -13    1    3    3    0    0  0.97560722143E+01  0.89256833331E+01  0.10127642679E+02  0.16656202396E+02  0.10566000000E+00 0.  1.
         13    1    4    4    0    0 -0.41910372097E+01 -0.41464513356E+01  0.15657376868E+03  0.15668476012E+03  0.10566000000E+00 0. -1.
        -13    1    4    4    0    0 -0.40716268257E+01 -0.36905233707E+01  0.19088979706E+03  0.19096890818E+03  0.10566000000E+00 0. -1.
         14    1    4    4    0    0 -0.14934081789E+01 -0.10887086268E+01  0.67810426245E+02  0.67835606152E+02  0.00000000000E+00 0. -1.
<mgrwt>
<rscale>  0 0.76047106E+02</rscale>
<asrwt>0</asrwt>
<pdfrwt beam="1">  1        2 0.65965160E-01 0.76047106E+02</pdfrwt>
<pdfrwt beam="2">  1       -1 0.51875711E-03 0.76047106E+02</pdfrwt>
<totfact> 0.33022473E+05</totfact>
</mgrwt>
</event>
<event>
 8    1  0.1226832E-024  0.7944338E+02  0.7818608E-02  0.1330638E+00
          2   -1    0    0  501    0  0.00000000000E+00  0.00000000000E+00  0.81756671593E+02  0.81756671633E+02  0.25500000000E-02 0. -1.
         -1   -1    0    0    0  501 -0.00000000000E+00 -0.00000000000E+00 -0.19298886690E+02  0.19298887348E+02  0.50400000000E-02 0.  1.
         24    2    1    2    0    0  0.00000000000E+00 -0.35527136788E-14  0.62457784903E+02  0.10105555898E+03  0.79443383021E+02 0.  0.
         66    2    3    3    0    0 -0.16994057598E+02  0.26635939893E+02  0.61818402718E+02  0.69453482131E+02  0.19999944722E+01 0.  0.
        -13    1    3    3    0    0  0.16994057598E+02 -0.26635939893E+02  0.63938218556E+00  0.31602076850E+02  0.10566000000E+00 0.  1.
         13    1    4    4    0    0 -0.82775042117E+01  0.14232790813E+02  0.33016404446E+02  0.36894220914E+02  0.10566000000E+00 0. -1.
        -13    1    4    4    0    0 -0.54864066986E+01  0.71999540150E+01  0.17658470614E+02  0.19843707938E+02  0.10566000000E+00 0.  1.
         14    1    4    4    0    0 -0.32301466875E+01  0.52031950652E+01  0.11143527658E+02  0.12715553278E+02  0.00000000000E+00 0. -1.
<mgrwt>
<rscale>  0 0.79443383E+02</rscale>
<asrwt>0</asrwt>
<pdfrwt beam="1">  1        2 0.12577949E-01 0.79443383E+02</pdfrwt>
<pdfrwt beam="2">  1       -1 0.29690596E-02 0.79443383E+02</pdfrwt>
<totfact> 0.17108127E+05</totfact>
</mgrwt>
</event>
<event>
 8    1  0.1226832E-024  0.8043127E+02  0.7818608E-02  0.1327832E+00
          2   -1    0    0  501    0  0.00000000000E+00  0.00000000000E+00  0.13068310062E+04  0.13068310062E+04  0.25500000000E-02 0. -1.
         -1   -1    0    0    0  501 -0.00000000000E+00 -0.00000000000E+00 -0.12375667099E+01  0.12375769726E+01  0.50400000000E-02 0.  1.
         24    2    1    2    0    0  0.11102230246E-15  0.35527136788E-14  0.13055934395E+04  0.13080685831E+04  0.80431269107E+02 0.  0.
         66    2    3    3    0    0  0.98773486825E+00 -0.20795747535E+02  0.12122965694E+04  0.12124769733E+04  0.19999992143E+01 0.  0.
        -13    1    3    3    0    0 -0.98773486825E+00  0.20795747535E+02  0.93296870089E+02  0.95591609821E+02  0.10566000000E+00 0.  1.
         13    1    4    4    0    0  0.11212748447E+01 -0.15970187488E+02  0.93712154981E+03  0.93725829654E+03  0.10566000000E+00 0. -1.
        -13    1    4    4    0    0 -0.25520168882E+00 -0.47508249162E+01  0.26665551060E+03  0.26669797142E+03  0.10566000000E+00 0.  1.
        -14    1    4    4    0    0  0.12166171241E+00 -0.74735131427E-01  0.85195089652E+01  0.85207053651E+01  0.00000000000E+00 0.  1.
<mgrwt>
<rscale>  0 0.80431269E+02</rscale>
<asrwt>0</asrwt>
<pdfrwt beam="1">  1        2 0.20105074E+00 0.80431269E+02</pdfrwt>
<pdfrwt beam="2">  1       -1 0.19039584E-03 0.80431269E+02</pdfrwt>
<totfact> 0.34101669E+05</totfact>
</mgrwt>
</event>
<event>
 8    1  0.1226832E-024  0.7891623E+02  0.7818608E-02  0.1332155E+00
          2   -1    0    0  501    0  0.00000000000E+00  0.00000000000E+00  0.19188852678E+02  0.19188852848E+02  0.25500000000E-02 0. -1.
         -1   -1    0    0    0  501 -0.00000000000E+00 -0.00000000000E+00 -0.81137883485E+02  0.81137883641E+02  0.50400000000E-02 0.  1.
         24    2    1    2    0    0  0.00000000000E+00  0.00000000000E+00 -0.61949030806E+02  0.10032673649E+03  0.78916231770E+02 0.  0.
         66    2    3    3    0    0  0.29822311283E+02  0.30642087241E+01  0.15714110118E+01  0.30087023234E+02  0.20000022788E+01 0.  0.
        -13    1    3    3    0    0 -0.29822311283E+02 -0.30642087241E+01 -0.63520441818E+02  0.70239713255E+02  0.10566000000E+00 0.  1.
         13    1    4    4    0    0  0.27517751809E+01  0.52970812111E+00 -0.20192336477E+00  0.28115466244E+01  0.10566000000E+00 0. -1.
        -13    1    4    4    0    0  0.12666913991E+01  0.33558380013E+00  0.20641118986E+00  0.13307491132E+01  0.10566000000E+00 0.  1.
         14    1    4    4    0    0  0.25803844703E+02  0.21989168028E+01  0.15669231867E+01  0.25944727496E+02  0.00000000000E+00 0. -1.
<mgrwt>
<rscale>  0 0.78916232E+02</rscale>
<asrwt>0</asrwt>
<pdfrwt beam="1">  1        2 0.29521312E-02 0.78916232E+02</pdfrwt>
<pdfrwt beam="2">  1       -1 0.12482751E-01 0.78916232E+02</pdfrwt>
<totfact> 0.12804394E+05</totfact>
</mgrwt>
</event>
<event>
 8    1  0.1226832E-024  0.8042549E+02  0.7818608E-02  0.1327848E+00
         -1   -1    0    0    0  501 -0.00000000000E+00  0.00000000000E+00  0.27989798537E+01  0.27989843914E+01  0.50400000000E-02 0.  1.
          2   -1    0    0  501    0  0.00000000000E+00 -0.00000000000E+00 -0.57773324898E+03  0.57773324898E+03  0.25500000000E-02 0. -1.
         24    2    1    2    0    0 -0.17763568394E-14  0.00000000000E+00 -0.57493426912E+03  0.58053223337E+03  0.80425494552E+02 0.  0.
         66    2    3    3    0    0 -0.15222843846E+02 -0.23343337329E+02 -0.49665186699E+03  0.49743715518E+03  0.19999989674E+01 0.  0.
        -13    1    3    3    0    0  0.15222843846E+02  0.23343337329E+02 -0.78282402136E+02  0.83095078197E+02  0.10566000000E+00 0.  1.
         13    1    4    4    0    0 -0.15952304961E+01 -0.20596637552E+01 -0.44735797272E+02  0.44811713834E+02  0.10566000000E+00 0. -1.
        -13    1    4    4    0    0 -0.11546617231E+02 -0.18073770860E+02 -0.37180091467E+03  0.37241900714E+03  0.10566000000E+00 0.  1.
         14    1    4    4    0    0 -0.20809961180E+01 -0.32099027144E+01 -0.80115155046E+02  0.80206434208E+02  0.00000000000E+00 0. -1.
<mgrwt>
<rscale>  0 0.80425495E+02</rscale>
<asrwt>0</asrwt>
<pdfrwt beam="1">  1        2 0.88881944E-01 0.80425495E+02</pdfrwt>
<pdfrwt beam="2">  1       -1 0.43061310E-03 0.80425495E+02</pdfrwt>
<totfact> 0.31384197E+05</totfact>
</mgrwt>
</event>
<event>
 8    1  0.1226832E-024  0.7991644E+02  0.7818608E-02  0.1329289E+00
         -1   -1    0    0    0  501 -0.00000000000E+00  0.00000000000E+00  0.24773676047E+01  0.24773727314E+01  0.50400000000E-02 0.  1.
          2   -1    0    0  501    0  0.00000000000E+00 -0.00000000000E+00 -0.64449764439E+03  0.64449764440E+03  0.25500000000E-02 0. -1.
         24    2    1    2    0    0  0.00000000000E+00  0.00000000000E+00 -0.64202027679E+03  0.64697501713E+03  0.79916437497E+02 0.  0.
         66    2    3    3    0    0  0.18676552470E+02  0.73095616659E+01 -0.60076377093E+03  0.60110178154E+03  0.20000005811E+01 0.  0.
        -13    1    3    3    0    0 -0.18676552470E+02 -0.73095616659E+01 -0.41256505855E+02  0.45873235589E+02  0.10566000000E+00 0.  1.
         13    1    4    4    0    0  0.60925376446E+01  0.28952550614E+01 -0.18967394430E+03  0.18979388248E+03  0.10566000000E+00 0. -1.
        -13    1    4    4    0    0  0.60158837120E+01  0.26358050023E+01 -0.21270093905E+03  0.21280234717E+03  0.10566000000E+00 0.  1.
         14    1    4    4    0    0  0.65681311137E+01  0.17785016021E+01 -0.19838888758E+03  0.19850555188E+03  0.00000000000E+00 0. -1.
<mgrwt>
<rscale>  0 0.79916437E+02</rscale>
<asrwt>0</asrwt>
<pdfrwt beam="1">  1        2 0.99153350E-01 0.79916437E+02</pdfrwt>
<pdfrwt beam="2">  1       -1 0.38113439E-03 0.79916437E+02</pdfrwt>
<totfact> 0.32875204E+05</totfact>
</mgrwt>
</event>
<event>
 8    1  0.1226832E-024  0.9010375E+02  0.7818608E-02  0.1302601E+00
         -1   -1    0    0    0  501 -0.00000000000E+00  0.00000000000E+00  0.13605162473E+03  0.13605162482E+03  0.50400000000E-02 0.  1.
          2   -1    0    0  501    0  0.00000000000E+00 -0.00000000000E+00 -0.14918391878E+02  0.14918392096E+02  0.25500000000E-02 0. -1.
         24    2    1    2    0    0  0.00000000000E+00  0.00000000000E+00  0.12113323285E+03  0.15097001692E+03  0.90103750796E+02 0.  0.
         66    2    3    3    0    0 -0.17511470473E+02  0.14541479931E+02 -0.45024355077E+01  0.23289013771E+02  0.20000000555E+01 0.  0.
        -13    1    3    3    0    0  0.17511470473E+02 -0.14541479931E+02  0.12563566836E+03  0.12768100315E+03  0.10566000000E+00 0.  1.
         13    1    4    4    0    0 -0.58313983951E+01  0.51505952547E+01 -0.14424505994E+01  0.79136380058E+01  0.10566000000E+00 0. -1.
        -13    1    4    4    0    0 -0.56255646245E+01  0.50309251964E+01 -0.22188596720E+01  0.78671270459E+01  0.10566000000E+00 0.  1.
        -14    1    4    4    0    0 -0.60545074536E+01  0.43599594794E+01 -0.84112523633E+00  0.75082487193E+01  0.00000000000E+00 0.  1.
<mgrwt>
<rscale>  0 0.90103751E+02</rscale>
<asrwt>0</asrwt>
<pdfrwt beam="1">  1        2 0.22951371E-02 0.90103751E+02</pdfrwt>
<pdfrwt beam="2">  1       -1 0.20931021E-01 0.90103751E+02</pdfrwt>
<totfact> 0.81883507E+04</totfact>
</mgrwt>
</event>
<event>
 8    1  0.1226832E-024  0.8161488E+02  0.7818608E-02  0.1324530E+00
         -1   -1    0    0    0  501 -0.00000000000E+00  0.00000000000E+00  0.40122636259E+02  0.40122636576E+02  0.50400000000E-02 0.  1.
          2   -1    0    0  501    0  0.00000000000E+00 -0.00000000000E+00 -0.41503934656E+02  0.41503934734E+02  0.25500000000E-02 0. -1.
         24    2    1    2    0    0 -0.44408920985E-15 -0.71054273576E-14 -0.13812983966E+01  0.81626571310E+02  0.81614883193E+02 0.  0.
         66    2    3    3    0    0 -0.23436010787E+01 -0.38869380067E+02 -0.12813901423E+02  0.41042870779E+02  0.19999998087E+01 0.  0.
        -13    1    3    3    0    0  0.23436010787E+01  0.38869380067E+02  0.11432603027E+02  0.40583700531E+02  0.10566000000E+00 0.  1.
         13    1    4    4    0    0 -0.48095905484E+00 -0.90850470192E+01 -0.28326203943E+01  0.95291291988E+01  0.10566000000E+00 0.  1.
        -13    1    4    4    0    0 -0.11637463571E+01 -0.83616778006E+01 -0.23835389473E+01  0.87729346956E+01  0.10566000000E+00 0.  1.
         14    1    4    4    0    0 -0.69889566677E+00 -0.21422655248E+02 -0.75977420816E+01  0.22740806884E+02  0.00000000000E+00 0. -1.
<mgrwt>
<rscale>  0 0.81614883E+02</rscale>
<asrwt>0</asrwt>
<pdfrwt beam="1">  1        2 0.63852207E-02 0.81614883E+02</pdfrwt>
<pdfrwt beam="2">  1       -1 0.61727133E-02 0.81614883E+02</pdfrwt>
<totfact> 0.13592211E+05</totfact>
</mgrwt>
</event>
<event>
 8    1  0.1226832E-024  0.7950336E+02  0.7818608E-02  0.1330467E+00
          2   -1    0    0  501    0  0.00000000000E+00  0.00000000000E+00  0.45067730904E+03  0.45067730905E+03  0.25500000000E-02 0. -1.
         -1   -1    0    0    0  501 -0.00000000000E+00 -0.00000000000E+00 -0.35062678629E+01  0.35062714852E+01  0.50400000000E-02 0.  1.
         24    2    1    2    0    0 -0.35527136788E-14  0.35527136788E-14  0.44717104118E+03  0.45418358053E+03  0.79503363185E+02 0.  0.
         66    2    3    3    0    0 -0.22520366187E+02  0.22484662759E+02  0.35957313830E+03  0.36098416688E+03  0.19999996756E+01 0.  0.
        -13    1    3    3    0    0  0.22520366187E+02 -0.22484662759E+02  0.87597902876E+02  0.93199413651E+02  0.10566000000E+00 0.  1.
         13    1    4    4    0    0 -0.21960630345E+01  0.25773170905E+01  0.44241629153E+02  0.44371141189E+02  0.10566000000E+00 0. -1.
        -13    1    4    4    0    0 -0.80440407205E+01  0.81822534808E+01  0.12447365458E+03  0.12500143084E+03  0.10566000000E+00 0.  1.
         14    1    4    4    0    0 -0.12280262432E+02  0.11725092188E+02  0.19085785457E+03  0.19161159485E+03  0.00000000000E+00 0. -1.
<mgrwt>
<rscale>  0 0.79503363E+02</rscale>
<asrwt>0</asrwt>
<pdfrwt beam="1">  1        2 0.69334906E-01 0.79503363E+02</pdfrwt>
<pdfrwt beam="2">  1       -1 0.53942661E-03 0.79503363E+02</pdfrwt>
<totfact> 0.29915275E+05</totfact>
</mgrwt>
</event>
<event>
 8    1  0.1226832E-024  0.7908007E+02  0.7818608E-02  0.1331683E+00
         -1   -1    0    0    0  501 -0.00000000000E+00  0.00000000000E+00  0.12096640533E+02  0.12096641583E+02  0.50400000000E-02 0.  1.
          2   -1    0    0  501    0  0.00000000000E+00 -0.00000000000E+00 -0.12924369090E+03  0.12924369093E+03  0.25500000000E-02 0. -1.
         24    2    1    2    0    0 -0.35527136788E-14  0.00000000000E+00 -0.11714705037E+03  0.14134033251E+03  0.79080074505E+02 0.  0.
         66    2    3    3    0    0 -0.31661939753E+02  0.95290477225E+01 -0.97281542066E+02  0.10276662691E+03  0.20000000963E+01 0.  0.
        -13    1    3    3    0    0  0.31661939753E+02 -0.95290477225E+01 -0.19865508302E+02  0.38573705598E+02  0.10566000000E+00 0.  1.
         13    1    4    4    0    0 -0.88098035518E+01  0.20131267486E+01 -0.25544280495E+02  0.27095880646E+02  0.10566000000E+00 0. -1.
        -13    1    4    4    0    0 -0.97365049881E+01  0.37453779165E+01 -0.31221181130E+02  0.32918090776E+02  0.10566000000E+00 0.  1.
        -14    1    4    4    0    0 -0.13115631213E+02  0.37705430573E+01 -0.40516080441E+02  0.42752655489E+02  0.00000000000E+00 0.  1.
<mgrwt>
<rscale>  0 0.79080075E+02</rscale>
<asrwt>0</asrwt>
<pdfrwt beam="1">  1        2 0.19883644E-01 0.79080075E+02</pdfrwt>
<pdfrwt beam="2">  1       -1 0.18610218E-02 0.79080075E+02</pdfrwt>
<totfact> 0.19709361E+05</totfact>
</mgrwt>
</event>
<event>
 8    1  0.1226832E-024  0.7767801E+02  0.7818608E-02  0.1335773E+00
          2   -1    0    0  501    0  0.00000000000E+00  0.00000000000E+00  0.82184257846E+02  0.82184257885E+02  0.25500000000E-02 0. -1.
         -1   -1    0    0    0  501 -0.00000000000E+00 -0.00000000000E+00 -0.18354711618E+02  0.18354712310E+02  0.50400000000E-02 0.  1.
         24    2    1    2    0    0  0.17763568394E-14  0.00000000000E+00  0.63829546228E+02  0.10053897020E+03  0.77678012051E+02 0.  0.
         66    2    3    3    0    0  0.14962993514E+02  0.80881603192E+01  0.77091208232E+02  0.78970651869E+02  0.19999894219E+01 0.  0.
        -13    1    3    3    0    0 -0.14962993514E+02 -0.80881603192E+01 -0.13261662004E+02  0.21568318326E+02  0.10566000000E+00 0.  1.
         13    1    4    4    0    0  0.32360663984E+01  0.25422069526E+01  0.20210869446E+02  0.20625841794E+02  0.10566000000E+00 0. -1.
        -13    1    4    4    0    0  0.32732811051E+01  0.12297428376E+01  0.15427053545E+02  0.15818716185E+02  0.10566000000E+00 0.  1.
         14    1    4    4    0    0  0.84536460107E+01  0.43162105290E+01  0.41453285242E+02  0.42526093890E+02  0.00000000000E+00 0. -1.
<mgrwt>
<rscale>  0 0.77678012E+02</rscale>
<asrwt>0</asrwt>
<pdfrwt beam="1">  1        2 0.12643732E-01 0.77678012E+02</pdfrwt>
<pdfrwt beam="2">  1       -1 0.28238019E-02 0.77678012E+02</pdfrwt>
<totfact> 0.18197681E+05</totfact>
</mgrwt>
</event>
<event>
 8    1  0.1226832E-024  0.7962512E+02  0.7818608E-02  0.1330119E+00
         -1   -1    0    0    0  501 -0.00000000000E+00  0.00000000000E+00  0.12133191593E+03  0.12133191603E+03  0.50400000000E-02 0.  1.
          2   -1    0    0  501    0  0.00000000000E+00 -0.00000000000E+00 -0.13063667736E+02  0.13063667985E+02  0.25500000000E-02 0. -1.
         24    2    1    2    0    0  0.35527136788E-14  0.71054273576E-14  0.10826824819E+03  0.13439558402E+03  0.79625118127E+02 0.  0.
         66    2    3    3    0    0  0.27056145581E+02  0.24158813514E+02  0.26570264151E+02  0.45007357474E+02  0.20000014137E+01 0.  0.
        -13    1    3    3    0    0 -0.27056145581E+02 -0.24158813514E+02  0.81697984040E+02  0.89388226542E+02  0.10566000000E+00 0.  1.
         13    1    4    4    0    0  0.63014023701E+00  0.46914535197E+00  0.55651435164E+00  0.96852792358E+00  0.10566000000E+00 0. -1.
        -13    1    4    4    0    0  0.69361537388E+01  0.62466476832E+01  0.58927563372E+01  0.11039319601E+02  0.10566000000E+00 0.  1.
         14    1    4    4    0    0  0.19489851605E+02  0.17443020479E+02  0.20120993462E+02  0.32999509950E+02  0.00000000000E+00 0. -1.
<mgrwt>
<rscale>  0 0.79625118E+02</rscale>
<asrwt>0</asrwt>
<pdfrwt beam="1">  1        2 0.20097951E-02 0.79625118E+02</pdfrwt>
<pdfrwt beam="2">  1       -1 0.18666448E-01 0.79625118E+02</pdfrwt>
<totfact> 0.11490373E+05</totfact>
</mgrwt>
</event>
<event>
 8    1  0.1226832E-024  0.7149046E+02  0.7818608E-02  0.1355097E+00
          2   -1    0    0  501    0  0.00000000000E+00  0.00000000000E+00  0.21571536039E+01  0.21571551111E+01  0.25500000000E-02 0. -1.
         -1   -1    0    0    0  501 -0.00000000000E+00 -0.00000000000E+00 -0.59231799992E+03  0.59231799994E+03  0.50400000000E-02 0.  1.
         24    2    1    2    0    0 -0.35527136788E-14  0.00000000000E+00 -0.59016084632E+03  0.59447515505E+03  0.71490457057E+02 0.  0.
         66    2    3    3    0    0  0.31655924406E+02 -0.11333596048E+02 -0.39550017157E+03  0.39693190054E+03  0.19999999253E+01 0.  0.
        -13    1    3    3    0    0 -0.31655924406E+02  0.11333596048E+02 -0.19466067474E+03  0.19754325452E+03  0.10566000000E+00 0.  1.
         13    1    4    4    0    0  0.28560185569E+01 -0.11021286910E+01 -0.35215969586E+02  0.35348935027E+02  0.10566000000E+00 0. -1.
        -13    1    4    4    0    0  0.28285274839E+02 -0.97621414591E+01 -0.35208824805E+03  0.35335747022E+03  0.10566000000E+00 0.  1.
        -14    1    4    4    0    0  0.51463101025E+00 -0.46932589799E+00 -0.81959539360E+01  0.82254952919E+01  0.00000000000E+00 0.  1.
<mgrwt>
<rscale>  0 0.71490457E+02</rscale>
<asrwt>0</asrwt>
<pdfrwt beam="1">  1        2 0.33187037E-03 0.71490457E+02</pdfrwt>
<pdfrwt beam="2">  1       -1 0.91125717E-01 0.71490457E+02</pdfrwt>
<totfact> 0.79546160E+04</totfact>
</mgrwt>
</event>
<event>
 8    1  0.1226832E-024  0.7831289E+02  0.7818608E-02  0.1333909E+00
          2   -1    0    0  501    0  0.00000000000E+00  0.00000000000E+00  0.26050198993E+03  0.26050198994E+03  0.25500000000E-02 0. -1.
         -1   -1    0    0    0  501 -0.00000000000E+00 -0.00000000000E+00 -0.58856630847E+01  0.58856652426E+01  0.50400000000E-02 0.  1.
         24    2    1    2    0    0  0.00000000000E+00  0.35527136788E-14  0.25461632685E+03  0.26638765518E+03  0.78312891268E+02 0.  0.
         66    2    3    3    0    0  0.59042776095E-01 -0.24696533860E+02  0.23063890075E+03  0.23196599926E+03  0.20000000620E+01 0.  0.
        -13    1    3    3    0    0 -0.59042776095E-01  0.24696533860E+02  0.23977426091E+02  0.34421655927E+02  0.10566000000E+00 0.  1.
         13    1    4    4    0    0 -0.11490641356E+00 -0.15390663128E+02  0.14988300140E+03  0.15067120159E+03  0.10566000000E+00 0. -1.
        -13    1    4    4    0    0 -0.23597742812E+00 -0.51259217415E+01  0.46496848340E+02  0.46779256392E+02  0.10566000000E+00 0.  1.
         14    1    4    4    0    0  0.40992661777E+00 -0.41799489903E+01  0.34259051012E+02  0.34515541276E+02  0.00000000000E+00 0. -1.
<mgrwt>
<rscale>  0 0.78312891E+02</rscale>
<asrwt>0</asrwt>
<pdfrwt beam="1">  1        2 0.40077226E-01 0.78312891E+02</pdfrwt>
<pdfrwt beam="2">  1       -1 0.90548686E-03 0.78312891E+02</pdfrwt>
<totfact> 0.25617725E+05</totfact>
</mgrwt>
</event>
<event>
 8    1  0.1226832E-024  0.7709186E+02  0.7818608E-02  0.1337513E+00
         -1   -1    0    0    0  501 -0.00000000000E+00  0.00000000000E+00  0.10370379315E+03  0.10370379327E+03  0.50400000000E-02 0.  1.
          2   -1    0    0  501    0  0.00000000000E+00 -0.00000000000E+00 -0.14327234330E+02  0.14327234557E+02  0.25500000000E-02 0. -1.
         24    2    1    2    0    0 -0.35527136788E-14  0.00000000000E+00  0.89376558822E+02  0.11803102783E+03  0.77091856015E+02 0.  0.
         66    2    3    3    0    0 -0.27024991369E+02  0.40555407926E+01  0.31542731802E+01  0.27581642675E+02  0.20000009361E+01 0.  0.
        -13    1    3    3    0    0  0.27024991369E+02 -0.40555407926E+01  0.86222285642E+02  0.90449385156E+02  0.10566000000E+00 0.  1.
         13    1    4    4    0    0 -0.56141488283E+01  0.24407333001E+00  0.72064372152E+00  0.56664565882E+01  0.10566000000E+00 0.  1.
        -13    1    4    4    0    0 -0.71939479875E+01  0.10389030609E+01  0.31328398883E+00  0.72760922280E+01  0.10566000000E+00 0. -1.
        -14    1    4    4    0    0 -0.14216894553E+02  0.27725644017E+01  0.21203454698E+01  0.14639093859E+02  0.00000000000E+00 0.  1.
<mgrwt>
<rscale>  0 0.77091856E+02</rscale>
<asrwt>0</asrwt>
<pdfrwt beam="1">  1        2 0.22041899E-02 0.77091856E+02</pdfrwt>
<pdfrwt beam="2">  1       -1 0.15954430E-01 0.77091856E+02</pdfrwt>
<totfact> 0.12899363E+05</totfact>
</mgrwt>
</event>
<event>
 8    1  0.1226832E-024  0.7952507E+02  0.7818608E-02  0.1330405E+00
          2   -1    0    0  501    0  0.00000000000E+00  0.00000000000E+00  0.59413235386E+02  0.59413235441E+02  0.25500000000E-02 0. -1.
         -1   -1    0    0    0  501 -0.00000000000E+00 -0.00000000000E+00 -0.26611225144E+02  0.26611225621E+02  0.50400000000E-02 0.  1.
         24    2    1    2    0    0  0.00000000000E+00  0.00000000000E+00  0.32802010242E+02  0.86024461061E+02  0.79525065388E+02 0.  0.
         66    2    3    3    0    0 -0.21602805150E+02  0.89801363747E+01  0.51157041030E+02  0.56288248140E+02  0.19999980062E+01 0.  0.
        -13    1    3    3    0    0  0.21602805150E+02 -0.89801363747E+01 -0.18355030788E+02  0.29736212922E+02  0.10566000000E+00 0.  1.
         13    1    4    4    0    0 -0.14705315198E+02  0.55160543311E+01  0.33584278419E+02  0.37075437575E+02  0.10566000000E+00 0. -1.
        -13    1    4    4    0    0 -0.16138622811E+01  0.88927003502E+00  0.51234830358E+01  0.54457869138E+01  0.10566000000E+00 0.  1.
         14    1    4    4    0    0 -0.52836276710E+01  0.25748120086E+01  0.12449279576E+02  0.13767023651E+02  0.00000000000E+00 0. -1.
<mgrwt>
<rscale>  0 0.79525065E+02</rscale>
<asrwt>0</asrwt>
<pdfrwt beam="1">  1        2 0.91404977E-02 0.79525065E+02</pdfrwt>
<pdfrwt beam="2">  1       -1 0.40940347E-02 0.79525065E+02</pdfrwt>
<totfact> 0.15784598E+05</totfact>
</mgrwt>
</event>
<event>
 8    1  0.1226832E-024  0.7934236E+02  0.7818608E-02  0.1330928E+00
          2   -1    0    0  501    0  0.00000000000E+00  0.00000000000E+00  0.20015588555E+03  0.20015588557E+03  0.25500000000E-02 0. -1.
         -1   -1    0    0    0  501 -0.00000000000E+00 -0.00000000000E+00 -0.78628839852E+01  0.78628856005E+01  0.50400000000E-02 0.  1.
         24    2    1    2    0    0  0.71054273576E-14  0.88817841970E-15  0.19229300157E+03  0.20801877117E+03  0.79342363886E+02 0.  0.
         66    2    3    3    0    0  0.31539305859E+02  0.47261646616E+01  0.34457061116E+02  0.46993121943E+02  0.20000006927E+01 0.  0.
        -13    1    3    3    0    0 -0.31539305859E+02 -0.47261646616E+01  0.15783594045E+03  0.16102564923E+03  0.10566000000E+00 0.  1.
         13    1    4    4    0    0  0.23254831977E+02  0.38648404558E+01  0.24481446710E+02  0.33986417862E+02  0.10566000000E+00 0. -1.
        -13    1    4    4    0    0  0.41529346876E+01  0.57783097777E+00  0.53504567638E+01  0.67984782691E+01  0.10566000000E+00 0.  1.
         14    1    4    4    0    0  0.41315391942E+01  0.28349322799E+00  0.46251576425E+01  0.62082258127E+01  0.00000000000E+00 0. -1.
<mgrwt>
<rscale>  0 0.79342364E+02</rscale>
<asrwt>0</asrwt>
<pdfrwt beam="1">  1        2 0.30793211E-01 0.79342364E+02</pdfrwt>
<pdfrwt beam="2">  1       -1 0.12096747E-02 0.79342364E+02</pdfrwt>
<totfact> 0.22550165E+05</totfact>
</mgrwt>
</event>
<event>
 8    1  0.1226832E-024  0.7656409E+02  0.7818608E-02  0.1339095E+00
          2   -1    0    0  501    0  0.00000000000E+00  0.00000000000E+00  0.89239093078E+02  0.89239093114E+02  0.25500000000E-02 0. -1.
         -1   -1    0    0    0  501 -0.00000000000E+00 -0.00000000000E+00 -0.16422340871E+02  0.16422341644E+02  0.50400000000E-02 0.  1.
         24    2    1    2    0    0  0.17763568394E-14 -0.35527136788E-14  0.72816752207E+02  0.10566143476E+03  0.76564086837E+02 0.  0.
         66    2    3    3    0    0  0.15695453207E+02 -0.18592155529E+02  0.77173402143E+02  0.80942877735E+02  0.19999897655E+01 0.  0.
        -13    1    3    3    0    0 -0.15695453207E+02  0.18592155529E+02 -0.43566499365E+01  0.24718557023E+02  0.10566000000E+00 0.  1.
         13    1    4    4    0    0  0.80966571065E+01 -0.10200405277E+02  0.41919801485E+02  0.43896298759E+02  0.10566000000E+00 0. -1.
        -13    1    4    4    0    0  0.32648271700E+00 -0.75813333082E+00  0.21954401885E+01  0.23478668550E+01  0.10566000000E+00 0.  1.
         14    1    4    4    0    0  0.72723133834E+01 -0.76336169215E+01  0.33058160470E+02  0.34698712121E+02  0.00000000000E+00 0. -1.
<mgrwt>
<rscale>  0 0.76564087E+02</rscale>
<asrwt>0</asrwt>
<pdfrwt beam="1">  1        2 0.13729091E-01 0.76564087E+02</pdfrwt>
<pdfrwt beam="2">  1       -1 0.25265140E-02 0.76564087E+02</pdfrwt>
<totfact> 0.19326472E+05</totfact>
</mgrwt>
</event>
<event>
 8    1  0.1226832E-024  0.7219808E+02  0.7818608E-02  0.1352774E+00
          2   -1    0    0  501    0  0.00000000000E+00  0.00000000000E+00  0.43155696030E+03  0.43155696030E+03  0.25500000000E-02 0. -1.
         -1   -1    0    0    0  501 -0.00000000000E+00 -0.00000000000E+00 -0.30196239559E+01  0.30196281620E+01  0.50400000000E-02 0.  1.
         24    2    1    2    0    0  0.17763568394E-14  0.00000000000E+00  0.42853733634E+03  0.43457658847E+03  0.72198078955E+02 0.  0.
         66    2    3    3    0    0 -0.87400292038E+01 -0.32170503066E+02  0.29735967654E+03  0.29922918741E+03  0.19999968922E+01 0.  0.
        -13    1    3    3    0    0  0.87400292038E+01  0.32170503066E+02  0.13117765980E+03  0.13534740105E+03  0.10566000000E+00 0.  1.
         13    1    4    4    0    0 -0.40971017458E+01 -0.12750961306E+02  0.11896220214E+03  0.11971378349E+03  0.10566000000E+00 0. -1.
        -13    1    4    4    0    0 -0.43847805411E+01 -0.17977582142E+02  0.16776805746E+03  0.16878552079E+03  0.10566000000E+00 0.  1.
        -14    1    4    4    0    0 -0.25814691689E+00 -0.14419596183E+01  0.10629416952E+02  0.10729883136E+02  0.00000000000E+00 0.  1.
<mgrwt>
<rscale>  0 0.72198079E+02</rscale>
<asrwt>0</asrwt>
<pdfrwt beam="1">  1        2 0.66393403E-01 0.72198079E+02</pdfrwt>
<pdfrwt beam="2">  1       -1 0.46455769E-03 0.72198079E+02</pdfrwt>
<totfact> 0.37857021E+05</totfact>
</mgrwt>
</event>
<event>
 8    1  0.1226832E-024  0.8249986E+02  0.7818608E-02  0.1322103E+00
          2   -1    0    0  501    0  0.00000000000E+00  0.00000000000E+00  0.17356790879E+02  0.17356791067E+02  0.25500000000E-02 0. -1.
         -1   -1    0    0    0  501 -0.00000000000E+00 -0.00000000000E+00 -0.98034060086E+02  0.98034060216E+02  0.50400000000E-02 0.  1.
         24    2    1    2    0    0  0.35527136788E-14 -0.35527136788E-14 -0.80677269207E+02  0.11539085128E+03  0.82499859351E+02 0.  0.
         66    2    3    3    0    0  0.24982849260E+02 -0.21773508938E+02 -0.74660541609E+02  0.81709393124E+02  0.20000006695E+01 0.  0.
        -13    1    3    3    0    0 -0.24982849260E+02  0.21773508938E+02 -0.60167275973E+01  0.33681458158E+02  0.10566000000E+00 0.  1.
         13    1    4    4    0    0  0.53952627673E+01 -0.44301240369E+01 -0.15138472159E+02  0.16670913672E+02  0.10566000000E+00 0. -1.
        -13    1    4    4    0    0  0.97293213193E+01 -0.94978687424E+01 -0.29725662922E+02  0.32687847959E+02  0.10566000000E+00 0.  1.
        -14    1    4    4    0    0  0.98582651732E+01 -0.78455161590E+01 -0.29796406529E+02  0.32350631494E+02  0.00000000000E+00 0.  1.
<mgrwt>
<rscale>  0 0.82499859E+02</rscale>
<asrwt>0</asrwt>
<pdfrwt beam="1">  1        2 0.26702756E-02 0.82499859E+02</pdfrwt>
<pdfrwt beam="2">  1       -1 0.15082163E-01 0.82499859E+02</pdfrwt>
<totfact> 0.11025389E+05</totfact>
</mgrwt>
</event>
<event>
 8    1  0.1226832E-024  0.7233968E+02  0.7818608E-02  0.1352313E+00
          2   -1    0    0  501    0  0.00000000000E+00  0.00000000000E+00  0.81025809320E+03  0.81025809320E+03  0.25500000000E-02 0. -1.
         -1   -1    0    0    0  501 -0.00000000000E+00 -0.00000000000E+00 -0.16146141633E+01  0.16146220294E+01  0.50400000000E-02 0.  1.
         24    2    1    2    0    0  0.00000000000E+00  0.17763568394E-14  0.80864347904E+03  0.81187271523E+03  0.72339681723E+02 0.  0.
         66    2    3    3    0    0  0.21618681134E+02 -0.13973697522E+02  0.68935548389E+03  0.68983883246E+03  0.19999983976E+01 0.  0.
        -13    1    3    3    0    0 -0.21618681134E+02  0.13973697522E+02  0.11928799514E+03  0.12203388278E+03  0.10566000000E+00 0.  1.
         13    1    4    4    0    0  0.18894660515E+02 -0.11927920879E+02  0.60995138930E+03  0.61036054260E+03  0.10566000000E+00 0. -1.
        -13    1    4    4    0    0  0.20046997082E+01 -0.17155382026E+01  0.60172303145E+02  0.60230217682E+02  0.10566000000E+00 0.  1.
         14    1    4    4    0    0  0.71932091087E+00 -0.33023844061E+00  0.19231791447E+02  0.19248072170E+02  0.00000000000E+00 0. -1.
<mgrwt>
<rscale>  0 0.72339682E+02</rscale>
<asrwt>0</asrwt>
<pdfrwt beam="1">  1        2 0.12465501E+00 0.72339682E+02</pdfrwt>
<pdfrwt beam="2">  1       -1 0.24840295E-03 0.72339682E+02</pdfrwt>
<totfact> 0.44670373E+05</totfact>
</mgrwt>
</event>
<event>
 8    1  0.1226832E-024  0.7992238E+02  0.7818608E-02  0.1329272E+00
          2   -1    0    0  501    0  0.00000000000E+00  0.00000000000E+00  0.62923054723E+03  0.62923054723E+03  0.25500000000E-02 0. -1.
         -1   -1    0    0    0  501 -0.00000000000E+00 -0.00000000000E+00 -0.25378538962E+01  0.25378589007E+01  0.50400000000E-02 0.  1.
         24    2    1    2    0    0  0.00000000000E+00  0.00000000000E+00  0.62669269333E+03  0.63176840613E+03  0.79922381805E+02 0.  0.
         66    2    3    3    0    0 -0.13543622715E+02 -0.48542554568E+01  0.60803049982E+03  0.60820398076E+03  0.19999983914E+01 0.  0.
        -13    1    3    3    0    0  0.13543622715E+02  0.48542554568E+01  0.18662193510E+02  0.23564425368E+02  0.10566000000E+00 0.  1.
         13    1    4    4    0    0 -0.20684263142E+01 -0.10540254459E+01  0.12325545299E+03  0.12327735888E+03  0.10566000000E+00 0.  1.
        -13    1    4    4    0    0 -0.94233591386E+01 -0.31374851349E+01  0.38330356109E+03  0.38343222950E+03  0.10566000000E+00 0. -1.
        -14    1    4    4    0    0 -0.20518372620E+01 -0.66274487598E+00  0.10147148574E+03  0.10149439238E+03  0.00000000000E+00 0.  1.
<mgrwt>
<rscale>  0 0.79922382E+02</rscale>
<asrwt>0</asrwt>
<pdfrwt beam="1">  1        2 0.96804789E-01 0.79922382E+02</pdfrwt>
<pdfrwt beam="2">  1       -1 0.39043909E-03 0.79922382E+02</pdfrwt>
<totfact> 0.32664002E+05</totfact>
</mgrwt>
</event>
<event>
 8    1  0.1226832E-024  0.8085596E+02  0.7818608E-02  0.1326640E+00
          2   -1    0    0  501    0  0.00000000000E+00  0.00000000000E+00  0.32278532743E+02  0.32278532844E+02  0.25500000000E-02 0. -1.
         -1   -1    0    0    0  501 -0.00000000000E+00 -0.00000000000E+00 -0.50634938612E+02  0.50634938863E+02  0.50400000000E-02 0.  1.
         24    2    1    2    0    0  0.00000000000E+00  0.35527136788E-14 -0.18356405869E+02  0.82913471707E+02  0.80855959299E+02 0.  0.
         66    2    3    3    0    0 -0.41824436918E+01  0.18881563173E+02  0.27192972196E+02  0.33428491468E+02  0.20000104810E+01 0.  0.
        -13    1    3    3    0    0  0.41824436918E+01 -0.18881563173E+02 -0.45549378065E+02  0.49484980239E+02  0.10566000000E+00 0.  1.
         13    1    4    4    0    0 -0.13277982754E+01  0.38231821378E+01  0.58076593844E+01  0.70795368125E+01  0.10566000000E+00 0. -1.
        -13    1    4    4    0    0 -0.93785609455E+00  0.22242803781E+01  0.33793025893E+01  0.41542565256E+01  0.10566000000E+00 0.  1.
        -14    1    4    4    0    0 -0.19167893218E+01  0.12834100657E+02  0.18006010222E+02  0.22194698130E+02  0.00000000000E+00 0.  1.
<mgrwt>
<rscale>  0 0.80855959E+02</rscale>
<asrwt>0</asrwt>
<pdfrwt beam="1">  1        2 0.49659281E-02 0.80855959E+02</pdfrwt>
<pdfrwt beam="2">  1       -1 0.77899906E-02 0.80855959E+02</pdfrwt>
<totfact> 0.13251545E+05</totfact>
</mgrwt>
</event>
<event>
 8    1  0.1226832E-024  0.7989355E+02  0.7818608E-02  0.1329354E+00
          2   -1    0    0  501    0  0.00000000000E+00  0.00000000000E+00  0.16232173254E+03  0.16232173256E+03  0.25500000000E-02 0. -1.
         -1   -1    0    0    0  501 -0.00000000000E+00 -0.00000000000E+00 -0.98307524132E+01  0.98307537052E+01  0.50400000000E-02 0.  1.
         24    2    1    2    0    0 -0.17763568394E-14  0.71054273576E-14  0.15249098013E+03  0.17215248627E+03  0.79893551100E+02 0.  0.
         66    2    3    3    0    0  0.95723806706E+01 -0.36846280606E+02  0.10219177556E+03  0.10907079312E+03  0.20000133573E+01 0.  0.
        -13    1    3    3    0    0 -0.95723806706E+01  0.36846280606E+02  0.50299204573E+02  0.63081693151E+02  0.10566000000E+00 0.  1.
         13    1    4    4    0    0  0.65634959741E+01 -0.25380991813E+02  0.70154372831E+02  0.74892732732E+02  0.10566000000E+00 0. -1.
        -13    1    4    4    0    0  0.11840863994E+00 -0.40901906783E+00  0.74943422763E+00  0.86840825710E+00  0.10566000000E+00 0.  1.
        -14    1    4    4    0    0  0.28904760566E+01 -0.11056269725E+02  0.31287968500E+02  0.33309652129E+02  0.00000000000E+00 0.  1.
<mgrwt>
<rscale>  0 0.79893551E+02</rscale>
<asrwt>0</asrwt>
<pdfrwt beam="1">  1        2 0.24972573E-01 0.79893551E+02</pdfrwt>
<pdfrwt beam="2">  1       -1 0.15124236E-02 0.79893551E+02</pdfrwt>
<totfact> 0.20624621E+05</totfact>
</mgrwt>
</event>
<event>
 8    1  0.1226832E-024  0.7236047E+02  0.7818608E-02  0.1352245E+00
          2   -1    0    0  501    0  0.00000000000E+00  0.00000000000E+00  0.29362802247E+03  0.29362802248E+03  0.25500000000E-02 0. -1.
         -1   -1    0    0    0  501 -0.00000000000E+00 -0.00000000000E+00 -0.44580521244E+01  0.44580549734E+01  0.50400000000E-02 0.  1.
         24    2    1    2    0    0 -0.35527136788E-14  0.00000000000E+00  0.28916997034E+03  0.29808607745E+03  0.72360471408E+02 0.  0.
         66    2    3    3    0    0  0.28478179730E+02 -0.13875855130E+02  0.21645638220E+03  0.21877136796E+03  0.19999924795E+01 0.  0.
        -13    1    3    3    0    0 -0.28478179730E+02  0.13875855130E+02  0.72713588147E+02  0.79314709490E+02  0.10566000000E+00 0.  1.
         13    1    4    4    0    0  0.94076796399E+01 -0.39865847071E+01  0.67249452479E+02  0.68021300462E+02  0.10566000000E+00 0. -1.
        -13    1    4    4    0    0  0.90962123142E+01 -0.52877185565E+01  0.75051814338E+02  0.75785797122E+02  0.10566000000E+00 0.  1.
         14    1    4    4    0    0  0.99742877760E+01 -0.46015518665E+01  0.74155115379E+02  0.74964270377E+02  0.00000000000E+00 0. -1.
<mgrwt>
<rscale>  0 0.72360471E+02</rscale>
<asrwt>0</asrwt>
<pdfrwt beam="1">  1        2 0.45173547E-01 0.72360471E+02</pdfrwt>
<pdfrwt beam="2">  1       -1 0.68585432E-03 0.72360471E+02</pdfrwt>
<totfact> 0.32866125E+05</totfact>
</mgrwt>
</event>
<event>
 8    1  0.1226832E-024  0.8014813E+02  0.7818608E-02  0.1328632E+00
          2   -1    0    0  501    0  0.00000000000E+00  0.00000000000E+00  0.85840863138E+03  0.85840863138E+03  0.25500000000E-02 0. -1.
         -1   -1    0    0    0  501 -0.00000000000E+00 -0.00000000000E+00 -0.18708196843E+01  0.18708264732E+01  0.50400000000E-02 0.  1.
         24    2    1    2    0    0  0.00000000000E+00  0.00000000000E+00  0.85653781169E+03  0.86027945785E+03  0.80148130023E+02 0.  0.
         66    2    3    3    0    0  0.20669970244E+02  0.71965505469E+01  0.78853338609E+03  0.78883961550E+03  0.19999993169E+01 0.  0.
        -13    1    3    3    0    0 -0.20669970244E+02 -0.71965505469E+01  0.68004425599E+02  0.71439842348E+02  0.10566000000E+00 0.  1.
         13    1    4    4    0    0  0.39599348993E+01  0.18028713617E+01  0.14964508690E+03  0.14970836526E+03  0.10566000000E+00 0. -1.
        -13    1    4    4    0    0  0.48040410474E+01  0.22297111346E+01  0.19869344199E+03  0.19876404473E+03  0.10566000000E+00 0.  1.
        -14    1    4    4    0    0  0.11905994297E+02  0.31639680506E+01  0.44019485720E+03  0.44036720552E+03  0.00000000000E+00 0.  1.
<mgrwt>
<rscale>  0 0.80148130E+02</rscale>
<asrwt>0</asrwt>
<pdfrwt beam="1">  1        2 0.13206324E+00 0.80148130E+02</pdfrwt>
<pdfrwt beam="2">  1       -1 0.28781813E-03 0.80148130E+02</pdfrwt>
<totfact> 0.34576398E+05</totfact>
</mgrwt>
</event>
<event>
 8    1  0.1226832E-024  0.8020167E+02  0.7818608E-02  0.1328480E+00
          2   -1    0    0  501    0  0.00000000000E+00  0.00000000000E+00  0.57312844936E+02  0.57312844993E+02  0.25500000000E-02 0. -1.
         -1   -1    0    0    0  501 -0.00000000000E+00 -0.00000000000E+00 -0.28057883598E+02  0.28057884051E+02  0.50400000000E-02 0.  1.
         24    2    1    2    0    0 -0.71054273576E-14 -0.17763568394E-14  0.29254961337E+02  0.85370729044E+02  0.80201674637E+02 0.  0.
         66    2    3    3    0    0  0.38266581784E+02  0.10877241796E+02  0.19788595906E+02  0.44477344382E+02  0.19999912125E+01 0.  0.
        -13    1    3    3    0    0 -0.38266581784E+02 -0.10877241796E+02  0.94663654316E+01  0.40893384661E+02  0.10566000000E+00 0.  1.
         13    1    4    4    0    0  0.82539709910E+01  0.25740403278E+01  0.49044683050E+01  0.99407592326E+01  0.10566000000E+00 0. -1.
        -13    1    4    4    0    0  0.29802301701E+01  0.49139250087E+00  0.16069272570E+01  0.34229545281E+01  0.10566000000E+00 0.  1.
        -14    1    4    4    0    0  0.27032380623E+02  0.78118089669E+01  0.13277200344E+02  0.31113630622E+02  0.00000000000E+00 0.  1.
<mgrwt>
<rscale>  0 0.80201675E+02</rscale>
<asrwt>0</asrwt>
<pdfrwt beam="1">  1        2 0.88173607E-02 0.80201675E+02</pdfrwt>
<pdfrwt beam="2">  1       -1 0.43165976E-02 0.80201675E+02</pdfrwt>
<totfact> 0.15298239E+05</totfact>
</mgrwt>
</event>
<event>
 8    1  0.1226832E-024  0.8039107E+02  0.7818608E-02  0.1327945E+00
          2   -1    0    0  501    0  0.00000000000E+00  0.00000000000E+00  0.28553153730E+03  0.28553153731E+03  0.25500000000E-02 0. -1.
         -1   -1    0    0    0  501 -0.00000000000E+00 -0.00000000000E+00 -0.56585011804E+01  0.56585034249E+01  0.50400000000E-02 0.  1.
         24    2    1    2    0    0 -0.22204460493E-15  0.00000000000E+00  0.27987303612E+03  0.29119004073E+03  0.80391065904E+02 0.  0.
         66    2    3    3    0    0  0.88046121026E+00 -0.19933611975E+02  0.26630896308E+03  0.26706289130E+03  0.19999988996E+01 0.  0.
        -13    1    3    3    0    0 -0.88046121026E+00  0.19933611975E+02  0.13564073037E+02  0.24127149432E+02  0.10566000000E+00 0.  1.
         13    1    4    4    0    0  0.44477713809E+00 -0.75652724412E+01  0.95591489777E+02  0.95891476449E+02  0.10566000000E+00 0. -1.
        -13    1    4    4    0    0 -0.40913870456E+00 -0.21489371326E+01  0.27130418747E+02  0.27218672096E+02  0.10566000000E+00 0.  1.
        -14    1    4    4    0    0  0.84482277674E+00 -0.10219402401E+02  0.14358705455E+03  0.14395274275E+03  0.00000000000E+00 0.  1.
<mgrwt>
<rscale>  0 0.80391066E+02</rscale>
<asrwt>0</asrwt>
<pdfrwt beam="1">  1        2 0.43927931E-01 0.80391066E+02</pdfrwt>
<pdfrwt beam="2">  1       -1 0.87053878E-03 0.80391066E+02</pdfrwt>
<totfact> 0.24723634E+05</totfact>
</mgrwt>
</event>
<event>
 8    1  0.1226832E-024  0.7921479E+02  0.7818608E-02  0.1331295E+00
         -1   -1    0    0    0  501 -0.00000000000E+00  0.00000000000E+00  0.43636431061E+02  0.43636431352E+02  0.50400000000E-02 0.  1.
          2   -1    0    0  501    0  0.00000000000E+00 -0.00000000000E+00 -0.35950366962E+02  0.35950367052E+02  0.25500000000E-02 0. -1.
         24    2    1    2    0    0  0.17763568394E-14  0.00000000000E+00  0.76860640989E+01  0.79586798404E+02  0.79214789647E+02 0.  0.
         66    2    3    3    0    0 -0.92297386539E+01  0.14558192884E+02 -0.31953469578E+02  0.36361425648E+02  0.20000003494E+01 0.  0.
        -13    1    3    3    0    0  0.92297386539E+01 -0.14558192884E+02  0.39639533677E+02  0.43225372756E+02  0.10566000000E+00 0.  1.
         13    1    4    4    0    0 -0.97172353431E+00  0.24670312438E+01 -0.53620732633E+01  0.59827655396E+01  0.10566000000E+00 0. -1.
        -13    1    4    4    0    0 -0.34437556502E+00  0.93206281385E+00 -0.15529233878E+01  0.18466376750E+01  0.10566000000E+00 0.  1.
        -14    1    4    4    0    0 -0.79136395546E+01  0.11159098827E+02 -0.25038472927E+02  0.28532022434E+02  0.00000000000E+00 0.  1.
<mgrwt>
<rscale>  0 0.79214790E+02</rscale>
<asrwt>0</asrwt>
<pdfrwt beam="1">  1        2 0.55308257E-02 0.79214790E+02</pdfrwt>
<pdfrwt beam="2">  1       -1 0.67132971E-02 0.79214790E+02</pdfrwt>
<totfact> 0.14336159E+05</totfact>
</mgrwt>
</event>
<event>
 8    1  0.1226832E-024  0.8671603E+02  0.7818608E-02  0.1311005E+00
         -1   -1    0    0    0  501 -0.00000000000E+00  0.00000000000E+00  0.10592227568E+03  0.10592227580E+03  0.50400000000E-02 0.  1.
          2   -1    0    0  501    0  0.00000000000E+00 -0.00000000000E+00 -0.17748085744E+02  0.17748085927E+02  0.25500000000E-02 0. -1.
         24    2    1    2    0    0 -0.35527136788E-14 -0.35527136788E-14  0.88174189940E+02  0.12367036173E+03  0.86716034268E+02 0.  0.
         66    2    3    3    0    0 -0.26067333840E+02  0.16271682700E+02  0.53364097069E+00  0.30798673154E+02  0.19999859853E+01 0.  0.
        -13    1    3    3    0    0  0.26067333840E+02 -0.16271682700E+02  0.87640548969E+02  0.92871688577E+02  0.10566000000E+00 0.  1.
         13    1    4    4    0    0 -0.79725728330E+01  0.54494657014E+01  0.91626844177E+00  0.97009950985E+01  0.10566000000E+00 0. -1.
        -13    1    4    4    0    0 -0.13740358392E+02  0.79856086577E+01 -0.97489425213E-01  0.15893019304E+02  0.10566000000E+00 0.  1.
         14    1    4    4    0    0 -0.43544026150E+01  0.28366083413E+01 -0.28513804587E+00  0.52046587516E+01  0.00000000000E+00 0. -1.
<mgrwt>
<rscale>  0 0.86716034E+02</rscale>
<asrwt>0</asrwt>
<pdfrwt beam="1">  1        2 0.27304748E-02 0.86716034E+02</pdfrwt>
<pdfrwt beam="2">  1       -1 0.16295734E-01 0.86716034E+02</pdfrwt>
<totfact> 0.95714478E+04</totfact>
</mgrwt>
</event>
<event>
 8    1  0.1226832E-024  0.8231567E+02  0.7818608E-02  0.1322605E+00
         -1   -1    0    0    0  501 -0.00000000000E+00  0.00000000000E+00  0.23173138207E+01  0.23173193016E+01  0.50400000000E-02 0.  1.
          2   -1    0    0  501    0  0.00000000000E+00 -0.00000000000E+00 -0.73100389853E+03  0.73100389853E+03  0.25500000000E-02 0. -1.
         24    2    1    2    0    0  0.00000000000E+00  0.00000000000E+00 -0.72868658471E+03  0.73332121784E+03  0.82315671614E+02 0.  0.
         66    2    3    3    0    0  0.24644359491E+02 -0.16486667082E+02 -0.61854136531E+03  0.61925485484E+03  0.19999998583E+01 0.  0.
        -13    1    3    3    0    0 -0.24644359491E+02  0.16486667082E+02 -0.11014521940E+03  0.11406636299E+03  0.10566000000E+00 0.  1.
         13    1    4    4    0    0  0.27350166644E+01 -0.21702833803E+01 -0.80798625751E+02  0.80874096801E+02  0.10566000000E+00 0.  1.
        -13    1    4    4    0    0  0.11601691937E+02 -0.80806954161E+01 -0.29994709412E+03  0.30028014808E+03  0.10566000000E+00 0. -1.
        -14    1    4    4    0    0  0.10307650889E+02 -0.62356882854E+01 -0.23779564543E+03  0.23810060996E+03  0.00000000000E+00 0.  1.
<mgrwt>
<rscale>  0 0.82315672E+02</rscale>
<asrwt>0</asrwt>
<pdfrwt beam="1">  1        2 0.11246195E+00 0.82315672E+02</pdfrwt>
<pdfrwt beam="2">  1       -1 0.35651082E-03 0.82315672E+02</pdfrwt>
<totfact> 0.31355759E+05</totfact>
</mgrwt>
</event>
<event>
 8    1  0.1226832E-024  0.8186576E+02  0.7818608E-02  0.1323839E+00
          2   -1    0    0  501    0  0.00000000000E+00  0.00000000000E+00  0.59497529683E+03  0.59497529683E+03  0.25500000000E-02 0. -1.
         -1   -1    0    0    0  501 -0.00000000000E+00 -0.00000000000E+00 -0.28160824479E+01  0.28160869580E+01  0.50400000000E-02 0.  1.
         24    2    1    2    0    0  0.00000000000E+00  0.35527136788E-14  0.59215921438E+03  0.59779138379E+03  0.81865764274E+02 0.  0.
         66    2    3    3    0    0  0.36047540504E+02 -0.17749467941E+02  0.35235712355E+03  0.35464631862E+03  0.20000007758E+01 0.  0.
        -13    1    3    3    0    0 -0.36047540504E+02  0.17749467941E+02  0.23980209083E+03  0.24314506517E+03  0.10566000000E+00 0.  1.
         13    1    4    4    0    0  0.27468830684E+01 -0.13696150275E+01  0.24508356880E+02  0.24700039128E+02  0.10566000000E+00 0. -1.
        -13    1    4    4    0    0  0.28117347887E+02 -0.13410884898E+02  0.27106845579E+03  0.27285262684E+03  0.10566000000E+00 0.  1.
        -14    1    4    4    0    0  0.51833095482E+01 -0.29689680152E+01  0.56780310884E+02  0.57093652651E+02  0.00000000000E+00 0.  1.
<mgrwt>
<rscale>  0 0.81865764E+02</rscale>
<asrwt>0</asrwt>
<pdfrwt beam="1">  1        2 0.91534614E-01 0.81865764E+02</pdfrwt>
<pdfrwt beam="2">  1       -1 0.43324403E-03 0.81865764E+02</pdfrwt>
<totfact> 0.30217462E+05</totfact>
</mgrwt>
</event>
<event>
 8    1  0.1226832E-024  0.8086879E+02  0.7818608E-02  0.1326604E+00
          2   -1    0    0  501    0  0.00000000000E+00  0.00000000000E+00  0.66683633107E+02  0.66683633155E+02  0.25500000000E-02 0. -1.
         -1   -1    0    0    0  501 -0.00000000000E+00 -0.00000000000E+00 -0.24517866594E+02  0.24517867112E+02  0.50400000000E-02 0.  1.
         24    2    1    2    0    0  0.00000000000E+00  0.00000000000E+00  0.42165766512E+02  0.91201500268E+02  0.80868793645E+02 0.  0.
         66    2    3    3    0    0  0.19957653215E+02  0.35075969997E+02  0.23435393227E+02  0.46710269216E+02  0.20000003731E+01 0.  0.
        -13    1    3    3    0    0 -0.19957653215E+02 -0.35075969997E+02  0.18730373286E+02  0.44491231052E+02  0.10566000000E+00 0.  1.
         13    1    4    4    0    0  0.75449357237E+01  0.14818466898E+02  0.97974255820E+01  0.19300614715E+02  0.10566000000E+00 0. -1.
        -13    1    4    4    0    0  0.45800665945E+01  0.69989942726E+01  0.43939938047E+01  0.94488769930E+01  0.10566000000E+00 0.  1.
         14    1    4    4    0    0  0.78326508966E+01  0.13258508826E+02  0.92439738401E+01  0.17960777508E+02  0.00000000000E+00 0. -1.
<mgrwt>
<rscale>  0 0.80868794E+02</rscale>
<asrwt>0</asrwt>
<pdfrwt beam="1">  1        2 0.10259020E-01 0.80868794E+02</pdfrwt>
<pdfrwt beam="2">  1       -1 0.37719796E-02 0.80868794E+02</pdfrwt>
<totfact> 0.15497096E+05</totfact>
</mgrwt>
</event>
<event>
 8    1  0.1226832E-024  0.7583350E+02  0.7818608E-02  0.1341309E+00
         -1   -1    0    0    0  501 -0.00000000000E+00  0.00000000000E+00  0.12251986885E+02  0.12251987922E+02  0.50400000000E-02 0.  1.
          2   -1    0    0  501    0  0.00000000000E+00 -0.00000000000E+00 -0.11734258900E+03  0.11734258903E+03  0.25500000000E-02 0. -1.
         24    2    1    2    0    0  0.17763568394E-14 -0.55511151231E-16 -0.10509060211E+03  0.12959457695E+03  0.75833499997E+02 0.  0.
         66    2    3    3    0    0 -0.15645683131E+02 -0.44464440410E+00 -0.11155092493E+03  0.11266141292E+03  0.19999996452E+01 0.  0.
        -13    1    3    3    0    0  0.15645683131E+02  0.44464440410E+00  0.64603228140E+01  0.16933164033E+02  0.10566000000E+00 0.  1.
         13    1    4    4    0    0 -0.79289551719E+01 -0.43568000529E+00 -0.61232997869E+02  0.61745844712E+02  0.10566000000E+00 0.  1.
        -13    1    4    4    0    0 -0.63739000007E+01  0.26769133594E+00 -0.42922288139E+02  0.43393919424E+02  0.10566000000E+00 0. -1.
        -14    1    4    4    0    0 -0.13428279580E+01 -0.27665573475E+00 -0.73956389209E+01  0.75216487799E+01  0.00000000000E+00 0.  1.
<mgrwt>
<rscale>  0 0.75833500E+02</rscale>
<asrwt>0</asrwt>
<pdfrwt beam="1">  1        2 0.18052705E-01 0.75833500E+02</pdfrwt>
<pdfrwt beam="2">  1       -1 0.18849212E-02 0.75833500E+02</pdfrwt>
<totfact> 0.21400281E+05</totfact>
</mgrwt>
</event>
<event>
 8    1  0.1226832E-024  0.7966420E+02  0.7818608E-02  0.1330007E+00
          2   -1    0    0  501    0  0.00000000000E+00  0.00000000000E+00  0.32067146111E+03  0.32067146112E+03  0.25500000000E-02 0. -1.
         -1   -1    0    0    0  501 -0.00000000000E+00 -0.00000000000E+00 -0.49477302225E+01  0.49477327895E+01  0.50400000000E-02 0.  1.
         24    2    1    2    0    0 -0.35527136788E-14  0.71054273576E-14  0.31572373088E+03  0.32561919391E+03  0.79664202731E+02 0.  0.
         66    2    3    3    0    0 -0.27535449046E+02  0.27791552114E+02  0.12791940856E+03  0.13378320675E+03  0.19999992986E+01 0.  0.
        -13    1    3    3    0    0  0.27535449046E+02 -0.27791552114E+02  0.18780432232E+03  0.19183598716E+03  0.10566000000E+00 0.  1.
         13    1    4    4    0    0 -0.36567425521E+01  0.41059898846E+01  0.19338859117E+02  0.20105560301E+02  0.10566000000E+00 0. -1.
        -13    1    4    4    0    0 -0.18169734701E+01  0.20290818417E+01  0.98506322803E+01  0.10220796743E+02  0.10566000000E+00 0.  1.
         14    1    4    4    0    0 -0.22061733023E+02  0.21656480388E+02  0.98729917167E+02  0.10345684970E+03  0.00000000000E+00 0. -1.
<mgrwt>
<rscale>  0 0.79664203E+02</rscale>
<asrwt>0</asrwt>
<pdfrwt beam="1">  1        2 0.49334066E-01 0.79664203E+02</pdfrwt>
<pdfrwt beam="2">  1       -1 0.76118954E-03 0.79664203E+02</pdfrwt>
<totfact> 0.26405259E+05</totfact>
</mgrwt>
</event>
<event>
 8    1  0.1226832E-024  0.7006976E+02  0.7818608E-02  0.1359856E+00
          2   -1    0    0  501    0  0.00000000000E+00  0.00000000000E+00  0.13477222343E+02  0.13477222584E+02  0.25500000000E-02 0. -1.
         -1   -1    0    0    0  501 -0.00000000000E+00 -0.00000000000E+00 -0.91075356600E+02  0.91075356739E+02  0.50400000000E-02 0.  1.
         24    2    1    2    0    0  0.00000000000E+00  0.71054273576E-14 -0.77598134257E+02  0.10455257932E+03  0.70069760974E+02 0.  0.
         66    2    3    3    0    0 -0.96928154929E+01 -0.23544005793E+02 -0.29834134240E+01  0.25713257852E+02  0.19999981900E+01 0.  0.
        -13    1    3    3    0    0  0.96928154929E+01  0.23544005793E+02 -0.74614720833E+02  0.78839321471E+02  0.10566000000E+00 0.  1.
         13    1    4    4    0    0 -0.29790078136E+01 -0.71746392160E+01 -0.85099986990E+00  0.78157085570E+01  0.10566000000E+00 0. -1.
        -13    1    4    4    0    0 -0.15110685037E+01 -0.30964125561E+01  0.19509035818E+00  0.34525820807E+01  0.10566000000E+00 0.  1.
        -14    1    4    4    0    0 -0.52027391755E+01 -0.13272954021E+02 -0.23275039123E+01  0.14444967214E+02  0.00000000000E+00 0.  1.
<mgrwt>
<rscale>  0 0.70069761E+02</rscale>
<asrwt>0</asrwt>
<pdfrwt beam="1">  1        2 0.20734189E-02 0.70069761E+02</pdfrwt>
<pdfrwt beam="2">  1       -1 0.14011593E-01 0.70069761E+02</pdfrwt>
<totfact> 0.16794226E+05</totfact>
</mgrwt>
</event>
<event>
 8    1  0.1226832E-024  0.8007792E+02  0.7818608E-02  0.1328830E+00
         -1   -1    0    0    0  501 -0.00000000000E+00  0.00000000000E+00  0.12356328332E+02  0.12356329360E+02  0.50400000000E-02 0.  1.
          2   -1    0    0  501    0  0.00000000000E+00 -0.00000000000E+00 -0.12974066097E+03  0.12974066099E+03  0.25500000000E-02 0. -1.
         24    2    1    2    0    0  0.35527136788E-14  0.00000000000E+00 -0.11738433264E+03  0.14209699035E+03  0.80077919047E+02 0.  0.
         66    2    3    3    0    0  0.25358845491E+02  0.25980383216E+01 -0.11345913943E+03  0.11630475987E+03  0.19999996043E+01 0.  0.
        -13    1    3    3    0    0 -0.25358845491E+02 -0.25980383216E+01 -0.39251932014E+01  0.25792230487E+02  0.10566000000E+00 0.  1.
         13    1    4    4    0    0  0.12188341579E+02  0.84589364619E+00 -0.54164300060E+02  0.55525253457E+02  0.10566000000E+00 0. -1.
        -13    1    4    4    0    0  0.70970500313E+00  0.32146613549E+00 -0.44303397855E+01  0.44995662367E+01  0.10566000000E+00 0.  1.
        -14    1    4    4    0    0  0.12460798909E+02  0.14306785400E+01 -0.54864499589E+02  0.56279940171E+02  0.00000000000E+00 0.  1.
<mgrwt>
<rscale>  0 0.80077919E+02</rscale>
<asrwt>0</asrwt>
<pdfrwt beam="1">  1        2 0.19960101E-01 0.80077919E+02</pdfrwt>
<pdfrwt beam="2">  1       -1 0.19009738E-02 0.80077919E+02</pdfrwt>
<totfact> 0.19085243E+05</totfact>
</mgrwt>
</event>
<event>
 8    1  0.1226832E-024  0.7851230E+02  0.7818608E-02  0.1333327E+00
         -1   -1    0    0    0  501 -0.00000000000E+00  0.00000000000E+00  0.90246716036E+01  0.90246730110E+01  0.50400000000E-02 0.  1.
          2   -1    0    0  501    0  0.00000000000E+00 -0.00000000000E+00 -0.17075915562E+03  0.17075915564E+03  0.25500000000E-02 0. -1.
         24    2    1    2    0    0 -0.35527136788E-14  0.00000000000E+00 -0.16173448402E+03  0.17978382865E+03  0.78512303011E+02 0.  0.
         66    2    3    3    0    0 -0.20766696486E+02  0.22732477456E+02 -0.13658861125E+03  0.14003024648E+03  0.19999979330E+01 0.  0.
        -13    1    3    3    0    0  0.20766696486E+02 -0.22732477456E+02 -0.25145872768E+02  0.39753582172E+02  0.10566000000E+00 0.  1.
         13    1    4    4    0    0 -0.65368754438E+01  0.83059423997E+01 -0.48439228758E+02  0.49579123292E+02  0.10566000000E+00 0. -1.
        -13    1    4    4    0    0 -0.93419272488E+01  0.99096211345E+01 -0.59590012163E+02  0.61126531959E+02  0.10566000000E+00 0.  1.
         14    1    4    4    0    0 -0.48878937934E+01  0.45169139215E+01 -0.28559370329E+02  0.29324591228E+02  0.00000000000E+00 0. -1.
<mgrwt>
<rscale>  0 0.78512303E+02</rscale>
<asrwt>0</asrwt>
<pdfrwt beam="1">  1        2 0.26270637E-01 0.78512303E+02</pdfrwt>
<pdfrwt beam="2">  1       -1 0.13884112E-02 0.78512303E+02</pdfrwt>
<totfact> 0.21963864E+05</totfact>
</mgrwt>
</event>
<event>
 8    1  0.1226832E-024  0.8065047E+02  0.7818608E-02  0.1327216E+00
          2   -1    0    0  501    0  0.00000000000E+00  0.00000000000E+00  0.32086198267E+03  0.32086198268E+03  0.25500000000E-02 0. -1.
         -1   -1    0    0    0  501 -0.00000000000E+00 -0.00000000000E+00 -0.50679865246E+01  0.50679890307E+01  0.50400000000E-02 0.  1.
         24    2    1    2    0    0  0.00000000000E+00 -0.35527136788E-14  0.31579399615E+03  0.32592997172E+03  0.80650470910E+02 0.  0.
         66    2    3    3    0    0 -0.63729875846E+01  0.19244620744E+02  0.29875228760E+03  0.29944598801E+03  0.19999984769E+01 0.  0.
        -13    1    3    3    0    0  0.63729875846E+01 -0.19244620744E+02  0.17041708553E+02  0.26483983703E+02  0.10566000000E+00 0.  1.
         13    1    4    4    0    0 -0.24333947287E+01  0.68823387950E+01  0.98727269601E+02  0.98996832899E+02  0.10566000000E+00 0. -1.
        -13    1    4    4    0    0 -0.19973415233E+00  0.18921756825E+01  0.32042060591E+02  0.32098676507E+02  0.10566000000E+00 0.  1.
        -14    1    4    4    0    0 -0.37398587036E+01  0.10470106267E+02  0.16798295741E+03  0.16835047861E+03  0.00000000000E+00 0.  1.
<mgrwt>
<rscale>  0 0.80650471E+02</rscale>
<asrwt>0</asrwt>
<pdfrwt beam="1">  1        2 0.49363404E-01 0.80650471E+02</pdfrwt>
<pdfrwt beam="2">  1       -1 0.77969009E-03 0.80650471E+02</pdfrwt>
<totfact> 0.25573103E+05</totfact>
</mgrwt>
</event>
<event>
 8    1  0.1226832E-024  0.7866814E+02  0.7818608E-02  0.1332874E+00
         -1   -1    0    0    0  501 -0.00000000000E+00  0.00000000000E+00  0.12269549183E+02  0.12269550218E+02  0.50400000000E-02 0.  1.
          2   -1    0    0  501    0  0.00000000000E+00 -0.00000000000E+00 -0.12609827265E+03  0.12609827267E+03  0.25500000000E-02 0. -1.
         24    2    1    2    0    0  0.00000000000E+00 -0.35527136788E-14 -0.11382872347E+03  0.13836782289E+03  0.78668139207E+02 0.  0.
         66    2    3    3    0    0  0.16599582264E+02  0.26305267715E+02 -0.99224616464E+02  0.10400498910E+03  0.20000010949E+01 0.  0.
        -13    1    3    3    0    0 -0.16599582264E+02 -0.26305267715E+02 -0.14604107001E+02  0.34362833792E+02  0.10566000000E+00 0.  1.
         13    1    4    4    0    0  0.12269146959E+02  0.18474806969E+02 -0.71993278465E+02  0.75331890775E+02  0.10566000000E+00 0. -1.
        -13    1    4    4    0    0  0.31870588000E+00  0.87300478328E+00 -0.33071283404E+01  0.34368550573E+01  0.10566000000E+00 0.  1.
        -14    1    4    4    0    0  0.40117294252E+01  0.69574559629E+01 -0.23924209659E+02  0.25236243268E+02  0.00000000000E+00 0.  1.
<mgrwt>
<rscale>  0 0.78668139E+02</rscale>
<asrwt>0</asrwt>
<pdfrwt beam="1">  1        2 0.19399733E-01 0.78668139E+02</pdfrwt>
<pdfrwt beam="2">  1       -1 0.18876231E-02 0.78668139E+02</pdfrwt>
<totfact> 0.19835136E+05</totfact>
</mgrwt>
</event>
<event>
 8    1  0.1226832E-024  0.7973223E+02  0.7818608E-02  0.1329813E+00
         -1   -1    0    0    0  501 -0.00000000000E+00  0.00000000000E+00  0.36226903604E+01  0.36226938663E+01  0.50400000000E-02 0.  1.
          2   -1    0    0  501    0  0.00000000000E+00 -0.00000000000E+00 -0.43870888061E+03  0.43870888062E+03  0.25500000000E-02 0. -1.
         24    2    1    2    0    0  0.00000000000E+00  0.00000000000E+00 -0.43508619025E+03  0.44233157448E+03  0.79732232123E+02 0.  0.
         66    2    3    3    0    0  0.13475233597E+02  0.16083763075E+02 -0.40556885228E+03  0.40611619433E+03  0.19999995427E+01 0.  0.
        -13    1    3    3    0    0 -0.13475233597E+02 -0.16083763075E+02 -0.29517337965E+02  0.36215380155E+02  0.10566000000E+00 0.  1.
         13    1    4    4    0    0  0.82957577273E+01  0.10651240755E+02 -0.24756498941E+03  0.24793286122E+03  0.10566000000E+00 0. -1.
        -13    1    4    4    0    0  0.27224889908E+01  0.28677521251E+01 -0.89732532999E+02  0.89819678195E+02  0.10566000000E+00 0.  1.
        -14    1    4    4    0    0  0.24569868785E+01  0.25647701948E+01 -0.68271329873E+02  0.68363654915E+02  0.00000000000E+00 0.  1.
<mgrwt>
<rscale>  0 0.79732232E+02</rscale>
<asrwt>0</asrwt>
<pdfrwt beam="1">  1        2 0.67493632E-01 0.79732232E+02</pdfrwt>
<pdfrwt beam="2">  1       -1 0.55733760E-03 0.79732232E+02</pdfrwt>
<totfact> 0.29423624E+05</totfact>
</mgrwt>
</event>
<event>
 8    1  0.1226832E-024  0.8056262E+02  0.7818608E-02  0.1327462E+00
          2   -1    0    0  501    0  0.00000000000E+00  0.00000000000E+00  0.13730289816E+04  0.13730289816E+04  0.25500000000E-02 0. -1.
         -1   -1    0    0    0  501 -0.00000000000E+00 -0.00000000000E+00 -0.11817496995E+01  0.11817604469E+01  0.50400000000E-02 0.  1.
         24    2    1    2    0    0  0.17763568394E-14  0.17763568394E-14  0.13718472319E+04  0.13742107420E+04  0.80562620926E+02 0.  0.
         66    2    3    3    0    0 -0.15962749469E+02 -0.10332963612E+02  0.12915920113E+04  0.12917335264E+04  0.19999997750E+01 0.  0.
        -13    1    3    3    0    0  0.15962749469E+02  0.10332963612E+02  0.80255220570E+02  0.82477215644E+02  0.10566000000E+00 0.  1.
         13    1    4    4    0    0 -0.13195513187E+01 -0.51161440939E+00  0.10504706835E+03  0.10505665470E+03  0.10566000000E+00 0. -1.
        -13    1    4    4    0    0 -0.49240035641E+00 -0.27748496767E+00  0.25547159645E+02  0.25553629605E+02  0.10566000000E+00 0.  1.
         14    1    4    4    0    0 -0.14150797794E+02 -0.95438642352E+01  0.11609977833E+04  0.11611232420E+04  0.00000000000E+00 0. -1.
<mgrwt>
<rscale>  0 0.80562621E+02</rscale>
<asrwt>0</asrwt>
<pdfrwt beam="1">  1        2 0.21123650E+00 0.80562621E+02</pdfrwt>
<pdfrwt beam="2">  1       -1 0.18180738E-03 0.80562621E+02</pdfrwt>
<totfact> 0.33575885E+05</totfact>
</mgrwt>
</event>
<event>
 8    1  0.1226832E-024  0.7915657E+02  0.7818608E-02  0.1331462E+00
          2   -1    0    0  501    0  0.00000000000E+00  0.00000000000E+00  0.63094638009E+02  0.63094638060E+02  0.25500000000E-02 0. -1.
         -1   -1    0    0    0  501 -0.00000000000E+00 -0.00000000000E+00 -0.24826841496E+02  0.24826842007E+02  0.50400000000E-02 0.  1.
         24    2    1    2    0    0 -0.35527136788E-14  0.22204460493E-15  0.38267796513E+02  0.87921480067E+02  0.79156568946E+02 0.  0.
         66    2    3    3    0    0  0.30433719548E+02 -0.17811093385E+01  0.47136708613E+02  0.56171639093E+02  0.20000258986E+01 0.  0.
        -13    1    3    3    0    0 -0.30433719548E+02  0.17811093385E+01 -0.88689120997E+01  0.31749840974E+02  0.10566000000E+00 0.  1.
         13    1    4    4    0    0  0.69995638214E+01 -0.11382551737E+01  0.11327299490E+02  0.13364445230E+02  0.10566000000E+00 0. -1.
        -13    1    4    4    0    0  0.66167166806E+01  0.31179991896E-01  0.10565160060E+02  0.12466582649E+02  0.10566000000E+00 0. -1.
        -14    1    4    4    0    0  0.16817439046E+02 -0.67403415676E+00  0.25244249062E+02  0.30340611214E+02  0.00000000000E+00 0.  1.
<mgrwt>
<rscale>  0 0.79156569E+02</rscale>
<asrwt>0</asrwt>
<pdfrwt beam="1">  1        2 0.97068673E-02 0.79156569E+02</pdfrwt>
<pdfrwt beam="2">  1       -1 0.38195142E-02 0.79156569E+02</pdfrwt>
<totfact> 0.16209315E+05</totfact>
</mgrwt>
</event>
<event>
 8    1  0.1487657E-024  0.8101582E+02  0.7818608E-02  0.1326193E+00
         -1   -1    0    0    0  501 -0.00000000000E+00  0.00000000000E+00  0.11604704697E+02  0.11604705792E+02  0.50400000000E-02 0.  1.
          2   -1    0    0  501    0  0.00000000000E+00 -0.00000000000E+00 -0.14139874763E+03  0.14139874766E+03  0.25500000000E-02 0. -1.
         24    2    1    2    0    0  0.35527136788E-14  0.00000000000E+00 -0.12979404294E+03  0.15300345345E+03  0.81015820586E+02 0.  0.
         66    2    3    3    0    0  0.26698598985E+02 -0.28825646140E+02 -0.83358686618E+02  0.92175938756E+02  0.19999969538E+01 0.  0.
        -13    1    3    3    0    0 -0.26698598985E+02  0.28825646140E+02 -0.46435356318E+02  0.60827514692E+02  0.10566000000E+00 0.  1.
         13    1    4    4    0    0  0.12065192909E+02 -0.13336541837E+02 -0.38321566078E+02  0.42331853477E+02  0.10566000000E+00 0. -1.
        -13    1    4    4    0    0  0.13295058511E+02 -0.13752899591E+02 -0.41219829626E+02  0.45442120839E+02  0.10566000000E+00 0.  1.
        -14    1    4    4    0    0  0.13383475648E+01 -0.17362047124E+01 -0.38172909144E+01  0.44019644402E+01  0.00000000000E+00 0.  1.
<mgrwt>
<rscale>  0 0.81015821E+02</rscale>
<asrwt>0</asrwt>
<pdfrwt beam="1">  1        2 0.21753652E-01 0.81015821E+02</pdfrwt>
<pdfrwt beam="2">  1       -1 0.17853394E-02 0.81015821E+02</pdfrwt>
<totfact> 0.19007362E+05</totfact>
</mgrwt>
</event>
<event>
 8    1  0.1226832E-024  0.8169825E+02  0.7818608E-02  0.1324300E+00
         -1   -1    0    0    0  501 -0.00000000000E+00  0.00000000000E+00  0.40537527539E+01  0.40537558870E+01  0.50400000000E-02 0.  1.
          2   -1    0    0  501    0  0.00000000000E+00 -0.00000000000E+00 -0.41163104765E+03  0.41163104766E+03  0.25500000000E-02 0. -1.
         24    2    1    2    0    0  0.71054273576E-14  0.00000000000E+00 -0.40757729490E+03  0.41568480355E+03  0.81698253246E+02 0.  0.
         66    2    3    3    0    0  0.40102218623E+02  0.76409338087E+01 -0.20252305574E+03  0.20660629205E+03  0.20000003873E+01 0.  0.
        -13    1    3    3    0    0 -0.40102218623E+02 -0.76409338087E+01 -0.20505423916E+03  0.20907851150E+03  0.10566000000E+00 0.  1.
         13    1    4    4    0    0  0.85914986055E+01  0.22426147839E+01 -0.41673250794E+02  0.42608850784E+02  0.10566000000E+00 0.  1.
        -13    1    4    4    0    0  0.25479681203E+02  0.42886371881E+01 -0.13122878677E+03  0.13374831664E+03  0.10566000000E+00 0. -1.
        -14    1    4    4    0    0  0.60310388142E+01  0.11096818367E+01 -0.29621018171E+02  0.30249124623E+02  0.00000000000E+00 0.  1.
<mgrwt>
<rscale>  0 0.81698253E+02</rscale>
<asrwt>0</asrwt>
<pdfrwt beam="1">  1        2 0.63327820E-01 0.81698253E+02</pdfrwt>
<pdfrwt beam="2">  1       -1 0.62365484E-03 0.81698253E+02</pdfrwt>
<totfact> 0.27012184E+05</totfact>
</mgrwt>
</event>
<event>
 8    1  0.1226832E-024  0.8018832E+02  0.7818608E-02  0.1328518E+00
         -1   -1    0    0    0  501 -0.00000000000E+00  0.00000000000E+00  0.15024928877E+01  0.15025013408E+01  0.50400000000E-02 0.  1.
          2   -1    0    0  501    0  0.00000000000E+00 -0.00000000000E+00 -0.10699133980E+04  0.10699133980E+04  0.25500000000E-02 0. -1.
         24    2    1    2    0    0  0.00000000000E+00  0.00000000000E+00 -0.10684109051E+04  0.10714158994E+04  0.80188323366E+02 0.  0.
         66    2    3    3    0    0 -0.28202424317E+02  0.41217838776E+01 -0.91083349990E+03  0.91128153190E+03  0.20000000072E+01 0.  0.
        -13    1    3    3    0    0  0.28202424317E+02 -0.41217838776E+01 -0.15757740524E+03  0.16013436747E+03  0.10566000000E+00 0.  1.
         13    1    4    4    0    0 -0.16778258204E+02  0.28734631613E+01 -0.53424202845E+03  0.53451316435E+03  0.10566000000E+00 0. -1.
        -13    1    4    4    0    0 -0.25525212954E+01  0.13090507482E+00 -0.70832277671E+02  0.70878453885E+02  0.10566000000E+00 0.  1.
         14    1    4    4    0    0 -0.88716448174E+01  0.11174156414E+01 -0.30575919379E+03  0.30588991367E+03  0.00000000000E+00 0. -1.
<mgrwt>
<rscale>  0 0.80188323E+02</rscale>
<asrwt>0</asrwt>
<pdfrwt beam="1">  1        2 0.16460145E+00 0.80188323E+02</pdfrwt>
<pdfrwt beam="2">  1       -1 0.23115426E-03 0.80188323E+02</pdfrwt>
<totfact> 0.35056964E+05</totfact>
</mgrwt>
</event>
<event>
 8    1  0.1226832E-024  0.7707801E+02  0.7818608E-02  0.1337554E+00
         -1   -1    0    0    0  501 -0.00000000000E+00  0.00000000000E+00  0.19049319605E+02  0.19049320271E+02  0.50400000000E-02 0.  1.
          2   -1    0    0  501    0  0.00000000000E+00 -0.00000000000E+00 -0.77968926169E+02  0.77968926211E+02  0.25500000000E-02 0. -1.
         24    2    1    2    0    0 -0.35527136788E-14  0.00000000000E+00 -0.58919606564E+02  0.97018246482E+02  0.77078013160E+02 0.  0.
         66    2    3    3    0    0 -0.25394753878E+02 -0.16350804398E+02 -0.59557234260E+02  0.66807982297E+02  0.20000042244E+01 0.  0.
        -13    1    3    3    0    0  0.25394753878E+02  0.16350804398E+02  0.63762769560E+00  0.30210264185E+02  0.10566000000E+00 0.  1.
         13    1    4    4    0    0 -0.49813640098E+01 -0.38258987442E+01 -0.11928833856E+02  0.13481829616E+02  0.10566000000E+00 0. -1.
        -13    1    4    4    0    0 -0.11975028824E+01 -0.10819480591E+01 -0.33544168120E+01  0.37239630691E+01  0.10566000000E+00 0.  1.
         14    1    4    4    0    0 -0.19215886986E+02 -0.11442957595E+02 -0.44273983592E+02  0.49602189612E+02  0.00000000000E+00 0. -1.
<mgrwt>
<rscale>  0 0.77078013E+02</rscale>
<asrwt>0</asrwt>
<pdfrwt beam="1">  1        2 0.11995219E-01 0.77078013E+02</pdfrwt>
<pdfrwt beam="2">  1       -1 0.29306647E-02 0.77078013E+02</pdfrwt>
<totfact> 0.18333434E+05</totfact>
</mgrwt>
</event>
<event>
 8    1  0.1226832E-024  0.8036898E+02  0.7818608E-02  0.1328008E+00
          2   -1    0    0  501    0  0.00000000000E+00  0.00000000000E+00  0.52663261954E+03  0.52663261955E+03  0.25500000000E-02 0. -1.
         -1   -1    0    0    0  501 -0.00000000000E+00 -0.00000000000E+00 -0.30662592348E+01  0.30662633770E+01  0.50400000000E-02 0.  1.
         24    2    1    2    0    0  0.35527136788E-14  0.44408920985E-15  0.52356636031E+03  0.52969888292E+03  0.80368979879E+02 0.  0.
         66    2    3    3    0    0 -0.15055440642E+02 -0.38996865541E+01  0.50597627792E+03  0.50621918935E+03  0.19999990839E+01 0.  0.
        -13    1    3    3    0    0  0.15055440642E+02  0.38996865541E+01  0.17590082388E+02  0.23479693579E+02  0.10566000000E+00 0.  1.
         13    1    4    4    0    0 -0.10934831326E+02 -0.33661859125E+01  0.37729833895E+03  0.37747178633E+03  0.10566000000E+00 0. -1.
        -13    1    4    4    0    0 -0.11522289489E+01  0.17170660036E+00  0.39303999009E+02  0.39321401511E+02  0.10566000000E+00 0.  1.
        -14    1    4    4    0    0 -0.29683803672E+01 -0.70520724195E+00  0.89373939965E+02  0.89426001499E+02  0.00000000000E+00 0.  1.
<mgrwt>
<rscale>  0 0.80368980E+02</rscale>
<asrwt>0</asrwt>
<pdfrwt beam="1">  1        2 0.81020435E-01 0.80368980E+02</pdfrwt>
<pdfrwt beam="2">  1       -1 0.47173232E-03 0.80368980E+02</pdfrwt>
<totfact> 0.30582295E+05</totfact>
</mgrwt>
</event>
<event>
 8    1  0.1226832E-024  0.7143308E+02  0.7818608E-02  0.1355287E+00
          2   -1    0    0  501    0  0.00000000000E+00  0.00000000000E+00  0.50044674816E+03  0.50044674817E+03  0.25500000000E-02 0. -1.
         -1   -1    0    0    0  501 -0.00000000000E+00 -0.00000000000E+00 -0.25490622843E+01  0.25490672669E+01  0.50400000000E-02 0.  1.
         24    2    1    2    0    0  0.00000000000E+00  0.00000000000E+00  0.49789768588E+03  0.50299581544E+03  0.71433078774E+02 0.  0.
         66    2    3    3    0    0 -0.30982537969E+02  0.12252833392E+02  0.33921319802E+03  0.34085135073E+03  0.19999989462E+01 0.  0.
        -13    1    3    3    0    0  0.30982537969E+02 -0.12252833392E+02  0.15868448786E+03  0.16214446471E+03  0.10566000000E+00 0.  1.
         13    1    4    4    0    0 -0.42191782645E+01  0.13189770190E+01  0.45150114463E+02  0.45366123547E+02  0.10566000000E+00 0. -1.
        -13    1    4    4    0    0 -0.92748905214E+01  0.30490715002E+01  0.10249152291E+03  0.10295554314E+03  0.10566000000E+00 0.  1.
        -14    1    4    4    0    0 -0.17488469183E+02  0.78847848726E+01  0.19157156065E+03  0.19252968404E+03  0.00000000000E+00 0.  1.
<mgrwt>
<rscale>  0 0.71433079E+02</rscale>
<asrwt>0</asrwt>
<pdfrwt beam="1">  1        2 0.76991797E-01 0.71433079E+02</pdfrwt>
<pdfrwt beam="2">  1       -1 0.39216387E-03 0.71433079E+02</pdfrwt>
<totfact> 0.40846836E+05</totfact>
</mgrwt>
</event>
<event>
 8    1  0.1226832E-024  0.8857417E+02  0.7818608E-02  0.1306342E+00
          2   -1    0    0  501    0  0.00000000000E+00  0.00000000000E+00  0.27921376038E+03  0.27921376040E+03  0.25500000000E-02 0. -1.
         -1   -1    0    0    0  501 -0.00000000000E+00 -0.00000000000E+00 -0.70245303565E+01  0.70245321646E+01  0.50400000000E-02 0.  1.
         24    2    1    2    0    0  0.00000000000E+00  0.00000000000E+00  0.27218923003E+03  0.28623829256E+03  0.88574167706E+02 0.  0.
         66    2    3    3    0    0 -0.71072734747E+01 -0.74875323259E+01  0.27526496377E+03  0.27546574511E+03  0.19999932437E+01 0.  0.
        -13    1    3    3    0    0  0.71072734747E+01  0.74875323259E+01 -0.30757337391E+01  0.10772547454E+02  0.10566000000E+00 0.  1.
         13    1    4    4    0    0 -0.40127734057E+01 -0.33552693168E+01  0.14497493740E+03  0.14506930696E+03  0.10566000000E+00 0. -1.
        -13    1    4    4    0    0 -0.13640175864E+01 -0.23818670286E+01  0.58945125120E+02  0.59009090605E+02  0.10566000000E+00 0.  1.
        -14    1    4    4    0    0 -0.17304824826E+01 -0.17503959805E+01  0.71344901246E+02  0.71387347545E+02  0.00000000000E+00 0.  1.
<mgrwt>
<rscale>  0 0.88574168E+02</rscale>
<asrwt>0</asrwt>
<pdfrwt beam="1">  1        2 0.42955957E-01 0.88574168E+02</pdfrwt>
<pdfrwt beam="2">  1       -1 0.10806973E-02 0.88574168E+02</pdfrwt>
<totfact> 0.18989232E+05</totfact>
</mgrwt>
</event>
<event>
 8    1  0.1226832E-024  0.8876611E+02  0.7818608E-02  0.1305868E+00
         -1   -1    0    0    0  501 -0.00000000000E+00  0.00000000000E+00  0.32001982979E+01  0.32002022666E+01  0.50400000000E-02 0.  1.
          2   -1    0    0  501    0  0.00000000000E+00 -0.00000000000E+00 -0.61554137199E+03  0.61554137200E+03  0.25500000000E-02 0. -1.
         24    2    1    2    0    0  0.35527136788E-14 -0.22204460493E-15 -0.61234117370E+03  0.61874157426E+03  0.88766112461E+02 0.  0.
         66    2    3    3    0    0 -0.25736756810E+02  0.12862885465E+01 -0.55801801066E+03  0.55861626848E+03  0.20000006989E+01 0.  0.
        -13    1    3    3    0    0  0.25736756810E+02 -0.12862885465E+01 -0.54323163038E+02  0.60125305786E+02  0.10566000000E+00 0.  1.
         13    1    4    4    0    0 -0.50070576502E+01  0.28109053157E+00 -0.12571003686E+03  0.12581007181E+03  0.10566000000E+00 0. -1.
        -13    1    4    4    0    0 -0.12136563159E+01  0.89022654299E-02 -0.24264943954E+02  0.24295508022E+02  0.10566000000E+00 0.  1.
         14    1    4    4    0    0 -0.19516042844E+02  0.99629574947E+00 -0.40804302984E+03  0.40851068865E+03  0.00000000000E+00 0. -1.
<mgrwt>
<rscale>  0 0.88766112E+02</rscale>
<asrwt>0</asrwt>
<pdfrwt beam="1">  1        2 0.94698579E-01 0.88766112E+02</pdfrwt>
<pdfrwt beam="2">  1       -1 0.49233900E-03 0.88766112E+02</pdfrwt>
<totfact> 0.24679122E+05</totfact>
</mgrwt>
</event>
<event>
 8    1  0.1226832E-024  0.8131067E+02  0.7818608E-02  0.1325373E+00
          2   -1    0    0  501    0  0.00000000000E+00  0.00000000000E+00  0.21700068720E+03  0.21700068721E+03  0.25500000000E-02 0. -1.
         -1   -1    0    0    0  501 -0.00000000000E+00 -0.00000000000E+00 -0.76168242829E+01  0.76168259504E+01  0.50400000000E-02 0.  1.
         24    2    1    2    0    0  0.00000000000E+00 -0.35527136788E-14  0.20938386291E+03  0.22461751316E+03  0.81310670704E+02 0.  0.
         66    2    3    3    0    0 -0.44080909885E+01  0.30059928814E+02  0.17928117508E+03  0.18184820681E+03  0.19999994034E+01 0.  0.
        -13    1    3    3    0    0  0.44080909885E+01 -0.30059928814E+02  0.30102687834E+02  0.42769306347E+02  0.10566000000E+00 0.  1.
         13    1    4    4    0    0 -0.27780248161E-01  0.21025959213E+01  0.14782916848E+02  0.14932095496E+02  0.10566000000E+00 0.  1.
        -13    1    4    4    0    0 -0.32654186063E+01  0.21167971066E+02  0.12272024828E+03  0.12457534451E+03  0.10566000000E+00 0. -1.
         14    1    4    4    0    0 -0.11148921341E+01  0.67893618273E+01  0.41778009950E+02  0.42340766808E+02  0.00000000000E+00 0. -1.
<mgrwt>
<rscale>  0 0.81310671E+02</rscale>
<asrwt>0</asrwt>
<pdfrwt beam="1">  1        2 0.33384725E-01 0.81310671E+02</pdfrwt>
<pdfrwt beam="2">  1       -1 0.11718191E-02 0.81310671E+02</pdfrwt>
<totfact> 0.21744965E+05</totfact>
</mgrwt>
</event>
<event>
 8    1  0.1226832E-024  0.8038178E+02  0.7818608E-02  0.1327971E+00
          2   -1    0    0  501    0  0.00000000000E+00  0.00000000000E+00  0.39850580046E+03  0.39850580047E+03  0.25500000000E-02 0. -1.
         -1   -1    0    0    0  501 -0.00000000000E+00 -0.00000000000E+00 -0.40534086826E+01  0.40534118159E+01  0.50400000000E-02 0.  1.
         24    2    1    2    0    0  0.00000000000E+00  0.00000000000E+00  0.39445239178E+03  0.40255921228E+03  0.80381776640E+02 0.  0.
         66    2    3    3    0    0 -0.31814242592E+02  0.16531384353E+02  0.28803033114E+03  0.29026006333E+03  0.20000026280E+01 0.  0.
        -13    1    3    3    0    0  0.31814242592E+02 -0.16531384353E+02  0.10642206064E+03  0.11229914895E+03  0.10566000000E+00 0.  1.
         13    1    4    4    0    0 -0.15268961715E+02  0.83422484915E+01  0.14034887529E+03  0.14142330876E+03  0.10566000000E+00 0. -1.
        -13    1    4    4    0    0 -0.94711917444E+00  0.80153997129E+00  0.10755329742E+02  0.10827177978E+02  0.10566000000E+00 0.  1.
         14    1    4    4    0    0 -0.15598161702E+02  0.73875958905E+01  0.13692612610E+03  0.13800957659E+03  0.00000000000E+00 0. -1.
<mgrwt>
<rscale>  0 0.80381777E+02</rscale>
<asrwt>0</asrwt>
<pdfrwt beam="1">  1        2 0.61308589E-01 0.80381777E+02</pdfrwt>
<pdfrwt beam="2">  1       -1 0.62360154E-03 0.80381777E+02</pdfrwt>
<totfact> 0.27867827E+05</totfact>
</mgrwt>
</event>
<event>
 8    1  0.1226832E-024  0.7802214E+02  0.7818608E-02  0.1334760E+00
         -1   -1    0    0    0  501 -0.00000000000E+00  0.00000000000E+00  0.47552840988E+01  0.47552867697E+01  0.50400000000E-02 0.  1.
          2   -1    0    0  501    0  0.00000000000E+00 -0.00000000000E+00 -0.32003619961E+03  0.32003619962E+03  0.25500000000E-02 0. -1.
         24    2    1    2    0    0  0.00000000000E+00  0.00000000000E+00 -0.31528091551E+03  0.32479148639E+03  0.78022137537E+02 0.  0.
         66    2    3    3    0    0 -0.19522942679E+02 -0.33621781610E+02 -0.16972879775E+03  0.17413625204E+03  0.19999995085E+01 0.  0.
        -13    1    3    3    0    0  0.19522942679E+02  0.33621781610E+02 -0.14555211776E+03  0.15065523435E+03  0.10566000000E+00 0.  1.
         13    1    4    4    0    0 -0.11551789952E+02 -0.19076996000E+02 -0.99234986809E+02  0.10171022268E+03  0.10566000000E+00 0. -1.
        -13    1    4    4    0    0 -0.93882220861E-01 -0.24091698097E+00 -0.91322129077E+00  0.95498273525E+00  0.10566000000E+00 0. -1.
         14    1    4    4    0    0 -0.78772705060E+01 -0.14303868629E+02 -0.69580589651E+02  0.71471046618E+02  0.00000000000E+00 0. -1.
<mgrwt>
<rscale>  0 0.78022138E+02</rscale>
<asrwt>0</asrwt>
<pdfrwt beam="1">  1        2 0.49236322E-01 0.78022138E+02</pdfrwt>
<pdfrwt beam="2">  1       -1 0.73158263E-03 0.78022138E+02</pdfrwt>
<totfact> 0.27863776E+05</totfact>
</mgrwt>
</event>
<event>
 8    1  0.1226832E-024  0.7671368E+02  0.7818608E-02  0.1338645E+00
          2   -1    0    0  501    0  0.00000000000E+00  0.00000000000E+00  0.19429760415E+02  0.19429760582E+02  0.25500000000E-02 0. -1.
         -1   -1    0    0    0  501 -0.00000000000E+00 -0.00000000000E+00 -0.75721313057E+02  0.75721313225E+02  0.50400000000E-02 0.  1.
         24    2    1    2    0    0  0.00000000000E+00  0.00000000000E+00 -0.56291552642E+02  0.95151073807E+02  0.76713675103E+02 0.  0.
         66    2    3    3    0    0  0.18616071102E+02 -0.19382215458E+02  0.57355751041E+01  0.27552226777E+02  0.19999998137E+01 0.  0.
        -13    1    3    3    0    0 -0.18616071102E+02  0.19382215458E+02 -0.62027127746E+02  0.67598847030E+02  0.10566000000E+00 0.  1.
         13    1    4    4    0    0  0.56342986078E+01 -0.56777283977E+01  0.16748497196E+01  0.81730169570E+01  0.10566000000E+00 0. -1.
        -13    1    4    4    0    0  0.67853326357E+01 -0.83096701900E+01  0.20885282914E+01  0.10929980426E+02  0.10566000000E+00 0.  1.
        -14    1    4    4    0    0  0.61964398586E+01 -0.53948168702E+01  0.19721970932E+01  0.84492293943E+01  0.00000000000E+00 0.  1.
<mgrwt>
<rscale>  0 0.76713675E+02</rscale>
<asrwt>0</asrwt>
<pdfrwt beam="1">  1        2 0.29891940E-02 0.76713675E+02</pdfrwt>
<pdfrwt beam="2">  1       -1 0.11649433E-01 0.76713675E+02</pdfrwt>
<totfact> 0.13919650E+05</totfact>
</mgrwt>
</event>
<event>
 8    1  0.1226832E-024  0.7814823E+02  0.7818608E-02  0.1334390E+00
         -1   -1    0    0    0  501 -0.00000000000E+00  0.00000000000E+00  0.61981105046E+01  0.61981125538E+01  0.50400000000E-02 0.  1.
          2   -1    0    0  501    0  0.00000000000E+00 -0.00000000000E+00 -0.24633091267E+03  0.24633091269E+03  0.25500000000E-02 0. -1.
         24    2    1    2    0    0  0.17763568394E-14  0.00000000000E+00 -0.24013280217E+03  0.25252902524E+03  0.78148230379E+02 0.  0.
         66    2    3    3    0    0  0.11132405510E+02  0.69856747043E+01 -0.23896460659E+03  0.23933410393E+03  0.19999995054E+01 0.  0.
        -13    1    3    3    0    0 -0.11132405510E+02 -0.69856747043E+01 -0.11681955822E+01  0.13194921313E+02  0.10566000000E+00 0.  1.
         13    1    4    4    0    0  0.48680145186E+01  0.27440063024E+01 -0.10233842771E+03  0.10249093660E+03  0.10566000000E+00 0. -1.
        -13    1    4    4    0    0  0.17292582522E+01  0.19747840769E+01 -0.49240256547E+02  0.49310284273E+02  0.10566000000E+00 0.  1.
        -14    1    4    4    0    0  0.45351327389E+01  0.22668843250E+01 -0.87385922333E+02  0.87532883053E+02  0.00000000000E+00 0.  1.
<mgrwt>
<rscale>  0 0.78148230E+02</rscale>
<asrwt>0</asrwt>
<pdfrwt beam="1">  1        2 0.37897056E-01 0.78148230E+02</pdfrwt>
<pdfrwt beam="2">  1       -1 0.95355581E-03 0.78148230E+02</pdfrwt>
<totfact> 0.25248617E+05</totfact>
</mgrwt>
</event>
<event>
 8    1  0.1226832E-024  0.8129785E+02  0.7818608E-02  0.1325408E+00
         -1   -1    0    0    0  501 -0.00000000000E+00  0.00000000000E+00  0.47495106525E+01  0.47495133267E+01  0.50400000000E-02 0.  1.
          2   -1    0    0  501    0  0.00000000000E+00 -0.00000000000E+00 -0.34789579490E+03  0.34789579491E+03  0.25500000000E-02 0. -1.
         24    2    1    2    0    0 -0.35527136788E-14  0.00000000000E+00 -0.34314628425E+03  0.35264530824E+03  0.81297853773E+02 0.  0.
         66    2    3    3    0    0 -0.30953244962E+02 -0.26121913640E+02 -0.18530598079E+03  0.18969123401E+03  0.19999998596E+01 0.  0.
        -13    1    3    3    0    0  0.30953244962E+02  0.26121913640E+02 -0.15784030346E+03  0.16295407422E+03  0.10566000000E+00 0.  1.
         13    1    4    4    0    0 -0.26096368940E+01 -0.19599273355E+01 -0.16195727211E+02  0.16521630181E+02  0.10566000000E+00 0. -1.
        -13    1    4    4    0    0 -0.61704728885E+01 -0.59877214540E+01 -0.40411865693E+02  0.41316553543E+02  0.10566000000E+00 0.  1.
        -14    1    4    4    0    0 -0.22173135179E+02 -0.18174264851E+02 -0.12869838788E+03  0.13185305029E+03  0.00000000000E+00 0.  1.
<mgrwt>
<rscale>  0 0.81297854E+02</rscale>
<asrwt>0</asrwt>
<pdfrwt beam="1">  1        2 0.53522410E-01 0.81297854E+02</pdfrwt>
<pdfrwt beam="2">  1       -1 0.73069443E-03 0.81297854E+02</pdfrwt>
<totfact> 0.25781829E+05</totfact>
</mgrwt>
</event>
<event>
 8    1  0.1381910E-024  0.8063882E+02  0.7818608E-02  0.1327248E+00
         -1   -1    0    0    0  501 -0.00000000000E+00  0.00000000000E+00  0.10713924926E+02  0.10713926112E+02  0.50400000000E-02 0.  1.
          2   -1    0    0  501    0  0.00000000000E+00 -0.00000000000E+00 -0.15173288538E+03  0.15173288540E+03  0.25500000000E-02 0. -1.
         24    2    1    2    0    0  0.00000000000E+00  0.00000000000E+00 -0.14101896046E+03  0.16244681152E+03  0.80638820450E+02 0.  0.
         66    2    3    3    0    0 -0.18886170995E+02  0.97108230750E+01 -0.13953754847E+03  0.14115847468E+03  0.20000003023E+01 0.  0.
        -13    1    3    3    0    0  0.18886170995E+02 -0.97108230750E+01 -0.14814119836E+01  0.21288336834E+02  0.10566000000E+00 0.  1.
         13    1    4    4    0    0 -0.12806369858E+02  0.64409760756E+01 -0.94090194822E+02  0.95175969695E+02  0.10566000000E+00 0. -1.
        -13    1    4    4    0    0 -0.38704900746E+01  0.24574912336E+01 -0.32645088600E+02  0.32965632563E+02  0.10566000000E+00 0.  1.
        -14    1    4    4    0    0 -0.22093110621E+01  0.81235576574E+00 -0.12802265051E+02  0.13016872424E+02  0.00000000000E+00 0.  1.
<mgrwt>
<rscale>  0 0.80638820E+02</rscale>
<asrwt>0</asrwt>
<pdfrwt beam="1">  1        2 0.23343519E-01 0.80638820E+02</pdfrwt>
<pdfrwt beam="2">  1       -1 0.16482964E-02 0.80638820E+02</pdfrwt>
<totfact> 0.19684477E+05</totfact>
</mgrwt>
</event>
<event>
 8    1  0.1226832E-024  0.8145417E+02  0.7818608E-02  0.1324975E+00
          2   -1    0    0  501    0  0.00000000000E+00  0.00000000000E+00  0.12137887390E+03  0.12137887393E+03  0.25500000000E-02 0. -1.
         -1   -1    0    0    0  501 -0.00000000000E+00 -0.00000000000E+00 -0.13665437632E+02  0.13665438562E+02  0.50400000000E-02 0.  1.
         24    2    1    2    0    0  0.00000000000E+00  0.00000000000E+00  0.10771343627E+03  0.13504431249E+03  0.81454171058E+02 0.  0.
         66    2    3    3    0    0 -0.24579455323E+02 -0.11643175377E+02  0.10409355401E+03  0.10760660361E+03  0.19999991446E+01 0.  0.
        -13    1    3    3    0    0  0.24579455323E+02  0.11643175377E+02  0.36198822525E+01  0.27437708876E+02  0.10566000000E+00 0.  1.
         13    1    4    4    0    0 -0.12022794487E+02 -0.58354822588E+01  0.53167578181E+02  0.54821555743E+02  0.10566000000E+00 0. -1.
        -13    1    4    4    0    0 -0.48536348759E+01 -0.28295160406E+01  0.19768352455E+02  0.20551468448E+02  0.10566000000E+00 0.  1.
         14    1    4    4    0    0 -0.77030259601E+01 -0.29781770772E+01  0.31157623378E+02  0.32233579419E+02  0.00000000000E+00 0. -1.
<mgrwt>
<rscale>  0 0.81454171E+02</rscale>
<asrwt>0</asrwt>
<pdfrwt beam="1">  1        2 0.18673673E-01 0.81454171E+02</pdfrwt>
<pdfrwt beam="2">  1       -1 0.21023751E-02 0.81454171E+02</pdfrwt>
<totfact> 0.17870497E+05</totfact>
</mgrwt>
</event>
<event>
 8    1  0.1226832E-024  0.7684306E+02  0.7818608E-02  0.1338257E+00
         -1   -1    0    0    0  501 -0.00000000000E+00  0.00000000000E+00  0.11362100796E+02  0.11362101914E+02  0.50400000000E-02 0.  1.
          2   -1    0    0  501    0  0.00000000000E+00 -0.00000000000E+00 -0.12992437871E+03  0.12992437874E+03  0.25500000000E-02 0. -1.
         24    2    1    2    0    0  0.17763568394E-14 -0.88817841970E-15 -0.11856227792E+03  0.14128648065E+03  0.76843060000E+02 0.  0.
         66    2    3    3    0    0  0.86941336134E+01 -0.52024781737E+01 -0.12741420837E+03  0.12783205479E+03  0.19999999399E+01 0.  0.
        -13    1    3    3    0    0 -0.86941336134E+01  0.52024781737E+01  0.88519304522E+01  0.13454425859E+02  0.10566000000E+00 0.  1.
         13    1    4    4    0    0  0.67416090089E+01 -0.39245050827E+01 -0.95859265766E+02  0.96176197832E+02  0.10566000000E+00 0. -1.
        -13    1    4    4    0    0  0.63043043785E+00 -0.43157625163E+00 -0.16788155290E+02  0.16805862747E+02  0.10566000000E+00 0.  1.
        -14    1    4    4    0    0  0.13220941666E+01 -0.84639683944E+00 -0.14766787314E+02  0.14849994215E+02  0.00000000000E+00 0.  1.
<mgrwt>
<rscale>  0 0.76843060E+02</rscale>
<asrwt>0</asrwt>
<pdfrwt beam="1">  1        2 0.19988365E-01 0.76843060E+02</pdfrwt>
<pdfrwt beam="2">  1       -1 0.17480157E-02 0.76843060E+02</pdfrwt>
<totfact> 0.21303360E+05</totfact>
</mgrwt>
</event>
<event>
 8    1  0.1286102E-024  0.8185618E+02  0.7818608E-02  0.1323865E+00
         -1   -1    0    0    0  501 -0.00000000000E+00  0.00000000000E+00  0.48553593769E+01  0.48553619927E+01  0.50400000000E-02 0.  1.
          2   -1    0    0  501    0  0.00000000000E+00 -0.00000000000E+00 -0.34500185141E+03  0.34500185142E+03  0.25500000000E-02 0. -1.
         24    2    1    2    0    0 -0.88817841970E-15  0.00000000000E+00 -0.34014649203E+03  0.34985721341E+03  0.81856177128E+02 0.  0.
         66    2    3    3    0    0  0.65296644892E+01  0.32627201222E+02 -0.27185126554E+03  0.27388735160E+03  0.20000031835E+01 0.  0.
        -13    1    3    3    0    0 -0.65296644892E+01 -0.32627201222E+02 -0.68295226485E+02  0.75969861804E+02  0.10566000000E+00 0.  1.
         13    1    4    4    0    0  0.23039781134E+01  0.11403481109E+02 -0.95513133928E+02  0.96219112516E+02  0.10566000000E+00 0. -1.
        -13    1    4    4    0    0  0.33859609541E+01  0.18376702454E+02 -0.15583825829E+03  0.15695458526E+03  0.10566000000E+00 0.  1.
        -14    1    4    4    0    0  0.83972542167E+00  0.28470176586E+01 -0.20499873327E+02  0.20713653824E+02  0.00000000000E+00 0.  1.
<mgrwt>
<rscale>  0 0.81856177E+02</rscale>
<asrwt>0</asrwt>
<pdfrwt beam="1">  1        2 0.53077189E-01 0.81856177E+02</pdfrwt>
<pdfrwt beam="2">  1       -1 0.74697884E-03 0.81856177E+02</pdfrwt>
<totfact> 0.25247650E+05</totfact>
</mgrwt>
</event>
<event>
 8    1  0.1226832E-024  0.8005037E+02  0.7818608E-02  0.1328909E+00
          2   -1    0    0  501    0  0.00000000000E+00  0.00000000000E+00  0.27355421863E+02  0.27355421981E+02  0.25500000000E-02 0. -1.
         -1   -1    0    0    0  501 -0.00000000000E+00 -0.00000000000E+00 -0.58562996416E+02  0.58562996633E+02  0.50400000000E-02 0.  1.
         24    2    1    2    0    0  0.71054273576E-14  0.00000000000E+00 -0.31207574553E+02  0.85918418614E+02  0.80050371315E+02 0.  0.
         66    2    3    3    0    0  0.22433426052E+02 -0.33046347157E+02 -0.17938112313E+02  0.43830303225E+02  0.19999856356E+01 0.  0.
        -13    1    3    3    0    0 -0.22433426052E+02  0.33046347157E+02 -0.13269462240E+02  0.42088115389E+02  0.10566000000E+00 0.  1.
         13    1    4    4    0    0  0.17599860958E+02 -0.25753882696E+02 -0.14190812340E+02  0.34269635227E+02  0.10566000000E+00 0. -1.
        -13    1    4    4    0    0  0.22239718413E+01 -0.36573842511E+01 -0.13825357925E+01  0.44994532517E+01  0.10566000000E+00 0.  1.
        -14    1    4    4    0    0  0.26095932527E+01 -0.36350802099E+01 -0.23647641810E+01  0.50612147463E+01  0.00000000000E+00 0.  1.
<mgrwt>
<rscale>  0 0.80050371E+02</rscale>
<asrwt>0</asrwt>
<pdfrwt beam="1">  1        2 0.42085265E-02 0.80050371E+02</pdfrwt>
<pdfrwt beam="2">  1       -1 0.90096918E-02 0.80050371E+02</pdfrwt>
<totfact> 0.13189407E+05</totfact>
</mgrwt>
</event>
<event>
 8    1  0.1226832E-024  0.7835075E+02  0.7818608E-02  0.1333798E+00
         -1   -1    0    0    0  501 -0.00000000000E+00  0.00000000000E+00  0.62560906825E+02  0.62560907029E+02  0.50400000000E-02 0.  1.
          2   -1    0    0  501    0  0.00000000000E+00 -0.00000000000E+00 -0.24531453001E+02  0.24531453133E+02  0.25500000000E-02 0. -1.
         24    2    1    2    0    0  0.00000000000E+00  0.00000000000E+00  0.38029453825E+02  0.87092360162E+02  0.78350748818E+02 0.  0.
         66    2    3    3    0    0  0.11292550828E+02 -0.28849804525E+02 -0.75780699233E+01  0.31957159865E+02  0.19999993823E+01 0.  0.
        -13    1    3    3    0    0 -0.11292550828E+02  0.28849804525E+02  0.45607523748E+02  0.55135200297E+02  0.10566000000E+00 0.  1.
         13    1    4    4    0    0  0.44649283188E+01 -0.10158185538E+02 -0.29961905464E+01  0.11494026281E+02  0.10566000000E+00 0. -1.
        -13    1    4    4    0    0  0.38130536852E+01 -0.11557798453E+02 -0.33268048072E+01  0.12617483019E+02  0.10566000000E+00 0.  1.
        -14    1    4    4    0    0  0.30145688243E+01 -0.71338205341E+01 -0.12550745697E+01  0.78456505648E+01  0.00000000000E+00 0.  1.
<mgrwt>
<rscale>  0 0.78350749E+02</rscale>
<asrwt>0</asrwt>
<pdfrwt beam="1">  1        2 0.37740698E-02 0.78350749E+02</pdfrwt>
<pdfrwt beam="2">  1       -1 0.96247548E-02 0.78350749E+02</pdfrwt>
<totfact> 0.13717104E+05</totfact>
</mgrwt>
</event>
<event>
 8    1  0.1226832E-024  0.7764393E+02  0.7818608E-02  0.1335874E+00
         -1   -1    0    0    0  501 -0.00000000000E+00  0.00000000000E+00  0.79340906557E+01  0.79340922564E+01  0.50400000000E-02 0.  1.
          2   -1    0    0  501    0  0.00000000000E+00 -0.00000000000E+00 -0.18995810839E+03  0.18995810840E+03  0.25500000000E-02 0. -1.
         24    2    1    2    0    0  0.00000000000E+00 -0.17763568394E-14 -0.18202401773E+03  0.19789220066E+03  0.77643931194E+02 0.  0.
         66    2    3    3    0    0 -0.18163774405E+01  0.12029867979E+02 -0.18496470294E+03  0.18537518248E+03  0.19999987904E+01 0.  0.
        -13    1    3    3    0    0  0.18163774405E+01 -0.12029867979E+02  0.29406852088E+01  0.12517018181E+02  0.10566000000E+00 0.  1.
         13    1    4    4    0    0 -0.94655895841E+00  0.18936116196E+01 -0.35788079045E+02  0.35850795035E+02  0.10566000000E+00 0. -1.
        -13    1    4    4    0    0 -0.35019295541E+00  0.71283925453E+01 -0.10577985039E+03  0.10602039676E+03  0.10566000000E+00 0.  1.
         14    1    4    4    0    0 -0.51962552666E+00  0.30078638141E+01 -0.43396773502E+02  0.43503990688E+02  0.00000000000E+00 0. -1.
<mgrwt>
<rscale>  0 0.77643931E+02</rscale>
<asrwt>0</asrwt>
<pdfrwt beam="1">  1        2 0.29224321E-01 0.77643931E+02</pdfrwt>
<pdfrwt beam="2">  1       -1 0.12206296E-02 0.77643931E+02</pdfrwt>
<totfact> 0.23446703E+05</totfact>
</mgrwt>
</event>
<event>
 8    1  0.1226832E-024  0.7977675E+02  0.7818608E-02  0.1329686E+00
         -1   -1    0    0    0  501 -0.00000000000E+00  0.00000000000E+00  0.56009890902E+01  0.56009913578E+01  0.50400000000E-02 0.  1.
          2   -1    0    0  501    0  0.00000000000E+00 -0.00000000000E+00 -0.28407161975E+03  0.28407161976E+03  0.25500000000E-02 0. -1.
         24    2    1    2    0    0  0.00000000000E+00  0.35527136788E-14 -0.27847063066E+03  0.28967261112E+03  0.79776747819E+02 0.  0.
         66    2    3    3    0    0 -0.14153125512E+02 -0.24985378623E+02 -0.23971919844E+03  0.24144124405E+03  0.20000295358E+01 0.  0.
        -13    1    3    3    0    0  0.14153125512E+02  0.24985378623E+02 -0.38751432212E+02  0.48231367068E+02  0.10566000000E+00 0.  1.
         13    1    4    4    0    0 -0.36930692701E+01 -0.56342550736E+01 -0.59174673994E+02  0.59557004602E+02  0.10566000000E+00 0. -1.
        -13    1    4    4    0    0 -0.35233565315E+01 -0.77396568335E+01 -0.67821941082E+02  0.68353077366E+02  0.10566000000E+00 0.  1.
         14    1    4    4    0    0 -0.69366997103E+01 -0.11611466716E+02 -0.11272258337E+03  0.11353116208E+03  0.00000000000E+00 0. -1.
<mgrwt>
<rscale>  0 0.79776748E+02</rscale>
<asrwt>0</asrwt>
<pdfrwt beam="1">  1        2 0.43703315E-01 0.79776748E+02</pdfrwt>
<pdfrwt beam="2">  1       -1 0.86169103E-03 0.79776748E+02</pdfrwt>
<totfact> 0.25179504E+05</totfact>
</mgrwt>
</event>
<event>
 8    1  0.1226832E-024  0.7536245E+02  0.7818608E-02  0.1342752E+00
         -1   -1    0    0    0  501 -0.00000000000E+00  0.00000000000E+00  0.99699600375E+00  0.99700874273E+00  0.50400000000E-02 0.  1.
          2   -1    0    0  501    0  0.00000000000E+00 -0.00000000000E+00 -0.14241436252E+04  0.14241436252E+04  0.25500000000E-02 0. -1.
         24    2    1    2    0    0  0.00000000000E+00  0.00000000000E+00 -0.14231466292E+04  0.14251406339E+04  0.75362446408E+02 0.  0.
         66    2    3    3    0    0  0.42907178243E+01 -0.10493968641E+02 -0.13910981241E+04  0.13911457596E+04  0.19999996709E+01 0.  0.
        -13    1    3    3    0    0 -0.42907178243E+01  0.10493968641E+02 -0.32048505071E+02  0.33994874299E+02  0.10566000000E+00 0.  1.
         13    1    4    4    0    0  0.74862587988E-01 -0.74960513115E+00 -0.72402498819E+02  0.72406494954E+02  0.10566000000E+00 0.  1.
        -13    1    4    4    0    0  0.39455109985E+01 -0.96736231379E+01 -0.12871017249E+04  0.12871441285E+04  0.10566000000E+00 0. -1.
        -14    1    4    4    0    0  0.27034423781E+00 -0.70740372309E-01 -0.31593900409E+02  0.31595136228E+02  0.00000000000E+00 0.  1.
<mgrwt>
<rscale>  0 0.75362446E+02</rscale>
<asrwt>0</asrwt>
<pdfrwt beam="1">  1        2 0.21909739E+00 0.75362446E+02</pdfrwt>
<pdfrwt beam="2">  1       -1 0.15338612E-03 0.75362446E+02</pdfrwt>
<totfact> 0.39505001E+05</totfact>
</mgrwt>
</event>
<event>
 8    1  0.1226832E-024  0.7923107E+02  0.7818608E-02  0.1331248E+00
          2   -1    0    0  501    0  0.00000000000E+00  0.00000000000E+00  0.37766958971E+03  0.37766958972E+03  0.25500000000E-02 0. -1.
         -1   -1    0    0    0  501 -0.00000000000E+00 -0.00000000000E+00 -0.41554575432E+01  0.41554605996E+01  0.50400000000E-02 0.  1.
         24    2    1    2    0    0  0.17763568394E-14  0.17763568394E-14  0.37351413216E+03  0.38182505031E+03  0.79231067910E+02 0.  0.
         66    2    3    3    0    0 -0.14837479929E+02 -0.15020233331E+02  0.34827189673E+03  0.34891699912E+03  0.20000001850E+01 0.  0.
        -13    1    3    3    0    0  0.14837479929E+02  0.15020233331E+02  0.25242235435E+02  0.32908051200E+02  0.10566000000E+00 0.  1.
         13    1    4    4    0    0 -0.10429826763E+02 -0.96078525731E+01  0.22344319634E+03  0.22389275395E+03  0.10566000000E+00 0. -1.
        -13    1    4    4    0    0 -0.15924241683E+01 -0.18533256320E+01  0.46252225105E+02  0.46316844904E+02  0.10566000000E+00 0.  1.
         14    1    4    4    0    0 -0.28152289975E+01 -0.35590551263E+01  0.78576475284E+02  0.78707400260E+02  0.00000000000E+00 0. -1.
<mgrwt>
<rscale>  0 0.79231068E+02</rscale>
<asrwt>0</asrwt>
<pdfrwt beam="1">  1        2 0.58102998E-01 0.79231068E+02</pdfrwt>
<pdfrwt beam="2">  1       -1 0.63930157E-03 0.79231068E+02</pdfrwt>
<totfact> 0.28395478E+05</totfact>
</mgrwt>
</event>
<event>
 8    1  0.1226832E-024  0.7939165E+02  0.7818608E-02  0.1330787E+00
          2   -1    0    0  501    0  0.00000000000E+00  0.00000000000E+00  0.84233006685E+02  0.84233006724E+02  0.25500000000E-02 0. -1.
         -1   -1    0    0    0  501 -0.00000000000E+00 -0.00000000000E+00 -0.18707139681E+02  0.18707140360E+02  0.50400000000E-02 0.  1.
         24    2    1    2    0    0  0.17763568394E-14  0.00000000000E+00  0.65525867004E+02  0.10294014708E+03  0.79391653435E+02 0.  0.
         66    2    3    3    0    0 -0.15634802538E+02  0.23153439007E+02  0.69301762170E+02  0.74747996818E+02  0.20000000649E+01 0.  0.
        -13    1    3    3    0    0  0.15634802538E+02 -0.23153439007E+02 -0.37758951664E+01  0.28192150266E+02  0.10566000000E+00 0.  1.
         13    1    4    4    0    0 -0.68364293552E+01  0.10489111656E+02  0.30693502781E+02  0.33149064944E+02  0.10566000000E+00 0. -1.
        -13    1    4    4    0    0 -0.70705357702E+01  0.10274623679E+02  0.32637882546E+02  0.34939990110E+02  0.10566000000E+00 0.  1.
         14    1    4    4    0    0 -0.17278374122E+01  0.23897036724E+01  0.59703768435E+01  0.66589417641E+01  0.00000000000E+00 0. -1.
<mgrwt>
<rscale>  0 0.79391653E+02</rscale>
<asrwt>0</asrwt>
<pdfrwt beam="1">  1        2 0.12958924E-01 0.79391653E+02</pdfrwt>
<pdfrwt beam="2">  1       -1 0.28780216E-02 0.79391653E+02</pdfrwt>
<totfact> 0.17271560E+05</totfact>
</mgrwt>
</event>
<event>
 8    1  0.1226832E-024  0.7945819E+02  0.7818608E-02  0.1330596E+00
         -1   -1    0    0    0  501 -0.00000000000E+00  0.00000000000E+00  0.34775557291E+02  0.34775557656E+02  0.50400000000E-02 0.  1.
          2   -1    0    0  501    0  0.00000000000E+00 -0.00000000000E+00 -0.45388230078E+02  0.45388230150E+02  0.25500000000E-02 0. -1.
         24    2    1    2    0    0 -0.35527136788E-14  0.00000000000E+00 -0.10612672787E+02  0.80163787806E+02  0.79458190589E+02 0.  0.
         66    2    3    3    0    0  0.27258264747E+02 -0.24506973405E+02 -0.20702677546E+02  0.42145054233E+02  0.19999990588E+01 0.  0.
        -13    1    3    3    0    0 -0.27258264747E+02  0.24506973405E+02  0.10090004758E+02  0.38018733573E+02  0.10566000000E+00 0.  1.
         13    1    4    4    0    0  0.82923782416E+01 -0.73382395420E+01 -0.67564759412E+01  0.12972063354E+02  0.10566000000E+00 0. -1.
        -13    1    4    4    0    0  0.17723791637E+01 -0.18145064691E+01 -0.18445095435E+01  0.31380154745E+01  0.10566000000E+00 0.  1.
        -14    1    4    4    0    0  0.17193507341E+02 -0.15354227394E+02 -0.12101692061E+02  0.26034975404E+02  0.00000000000E+00 0.  1.
<mgrwt>
<rscale>  0 0.79458191E+02</rscale>
<asrwt>0</asrwt>
<pdfrwt beam="1">  1        2 0.69828047E-02 0.79458191E+02</pdfrwt>
<pdfrwt beam="2">  1       -1 0.53500858E-02 0.79458191E+02</pdfrwt>
<totfact> 0.14911721E+05</totfact>
</mgrwt>
</event>
<event>
 8    1  0.1226832E-024  0.7699593E+02  0.7818608E-02  0.1337799E+00
         -1   -1    0    0    0  501 -0.00000000000E+00  0.00000000000E+00  0.16885846318E+01  0.16885921534E+01  0.50400000000E-02 0.  1.
          2   -1    0    0  501    0  0.00000000000E+00 -0.00000000000E+00 -0.87771143863E+03  0.87771143864E+03  0.25500000000E-02 0. -1.
         24    2    1    2    0    0  0.00000000000E+00  0.00000000000E+00 -0.87602285400E+03  0.87940003079E+03  0.76995931200E+02 0.  0.
         66    2    3    3    0    0  0.33620171148E+01 -0.19266805079E+02 -0.81669287386E+03  0.81692947257E+03  0.19999998485E+01 0.  0.
        -13    1    3    3    0    0 -0.33620171148E+01  0.19266805079E+02 -0.59329980145E+02  0.62470558226E+02  0.10566000000E+00 0.  1.
         13    1    4    4    0    0  0.22622850740E+01 -0.11513582858E+02 -0.46611034134E+03  0.46625802084E+03  0.10566000000E+00 0. -1.
        -13    1    4    4    0    0  0.90026929076E+00 -0.49950882912E+01 -0.24591091102E+03  0.24596330766E+03  0.10566000000E+00 0.  1.
         14    1    4    4    0    0  0.19946275004E+00 -0.27581339294E+01 -0.10467162149E+03  0.10470814406E+03  0.00000000000E+00 0. -1.
<mgrwt>
<rscale>  0 0.76995931E+02</rscale>
<asrwt>0</asrwt>
<pdfrwt beam="1">  1        2 0.13503216E+00 0.76995931E+02</pdfrwt>
<pdfrwt beam="2">  1       -1 0.25978353E-03 0.76995931E+02</pdfrwt>
<totfact> 0.38477570E+05</totfact>
</mgrwt>
</event>
<event>
 8    1  0.1226832E-024  0.8030553E+02  0.7818608E-02  0.1328187E+00
         -1   -1    0    0    0  501 -0.00000000000E+00  0.00000000000E+00  0.12380454187E+03  0.12380454198E+03  0.50400000000E-02 0.  1.
          2   -1    0    0  501    0  0.00000000000E+00 -0.00000000000E+00 -0.13022497804E+02  0.13022498054E+02  0.25500000000E-02 0. -1.
         24    2    1    2    0    0  0.00000000000E+00 -0.71054273576E-14  0.11078204407E+03  0.13682704003E+03  0.80305526554E+02 0.  0.
         66    2    3    3    0    0 -0.18824869213E+02 -0.34806821349E+02  0.44078623032E+02  0.59269009785E+02  0.19999997982E+01 0.  0.
        -13    1    3    3    0    0  0.18824869213E+02  0.34806821349E+02  0.66703421038E+02  0.77558030245E+02  0.10566000000E+00 0.  1.
         13    1    4    4    0    0 -0.14783592557E+02 -0.27764902705E+02  0.34147504849E+02  0.46427445359E+02  0.10566000000E+00 0. -1.
        -13    1    4    4    0    0 -0.16174621916E+01 -0.29231424701E+01  0.45304640234E+01  0.56300278991E+01  0.10566000000E+00 0.  1.
        -14    1    4    4    0    0 -0.24238144640E+01 -0.41187761742E+01  0.54006541594E+01  0.72115365268E+01  0.00000000000E+00 0.  1.
<mgrwt>
<rscale>  0 0.80305527E+02</rscale>
<asrwt>0</asrwt>
<pdfrwt beam="1">  1        2 0.20034611E-02 0.80305527E+02</pdfrwt>
<pdfrwt beam="2">  1       -1 0.19046854E-01 0.80305527E+02</pdfrwt>
<totfact> 0.11195037E+05</totfact>
</mgrwt>
</event>
<event>
 8    1  0.1226832E-024  0.7984723E+02  0.7818608E-02  0.1329486E+00
         -1   -1    0    0    0  501 -0.00000000000E+00  0.00000000000E+00  0.56029554480E+01  0.56029577148E+01  0.50400000000E-02 0.  1.
          2   -1    0    0  501    0  0.00000000000E+00 -0.00000000000E+00 -0.28447395606E+03  0.28447395607E+03  0.25500000000E-02 0. -1.
         24    2    1    2    0    0  0.00000000000E+00  0.00000000000E+00 -0.27887100061E+03  0.29007691379E+03  0.79847234952E+02 0.  0.
         66    2    3    3    0    0  0.18089507358E+01  0.37556505112E+02 -0.18800892446E+03  0.19174232462E+03  0.19999991943E+01 0.  0.
        -13    1    3    3    0    0 -0.18089507358E+01 -0.37556505112E+02 -0.90862076154E+02  0.98334589164E+02  0.10566000000E+00 0.  1.
         13    1    4    4    0    0  0.47581653928E-01  0.26036447241E+01 -0.12629735701E+02  0.12895837227E+02  0.10566000000E+00 0. -1.
        -13    1    4    4    0    0  0.22270086524E+00  0.20676082558E+02 -0.10546189094E+03  0.10746986363E+03  0.10566000000E+00 0.  1.
        -14    1    4    4    0    0  0.15386682166E+01  0.14276777829E+02 -0.69917297822E+02  0.71376623763E+02  0.00000000000E+00 0.  1.
<mgrwt>
<rscale>  0 0.79847235E+02</rscale>
<asrwt>0</asrwt>
<pdfrwt beam="1">  1        2 0.43765213E-01 0.79847235E+02</pdfrwt>
<pdfrwt beam="2">  1       -1 0.86199355E-03 0.79847235E+02</pdfrwt>
<totfact> 0.25134121E+05</totfact>
</mgrwt>
</event>
<event>
 8    1  0.1226832E-024  0.7865717E+02  0.7818608E-02  0.1332906E+00
          2   -1    0    0  501    0  0.00000000000E+00  0.00000000000E+00  0.64491597306E+03  0.64491597306E+03  0.25500000000E-02 0. -1.
         -1   -1    0    0    0  501 -0.00000000000E+00 -0.00000000000E+00 -0.23983524053E+01  0.23983577009E+01  0.50400000000E-02 0.  1.
         24    2    1    2    0    0  0.88817841970E-15  0.00000000000E+00  0.64251762065E+03  0.64731433077E+03  0.78657167272E+02 0.  0.
         66    2    3    3    0    0 -0.54948056737E+01  0.26892339046E+02  0.55297017892E+03  0.55365459409E+03  0.19999986164E+01 0.  0.
        -13    1    3    3    0    0  0.54948056737E+01 -0.26892339046E+02  0.89547441737E+02  0.93659736677E+02  0.10566000000E+00 0.  1.
         13    1    4    4    0    0 -0.15158818207E+01  0.98239754991E+01  0.20437875577E+03  0.20462036889E+03  0.10566000000E+00 0. -1.
        -13    1    4    4    0    0 -0.27384175100E+01  0.11023412897E+02  0.23766094811E+03  0.23793224242E+03  0.10566000000E+00 0.  1.
         14    1    4    4    0    0 -0.12405063430E+01  0.60449506503E+01  0.11093047504E+03  0.11110198278E+03  0.00000000000E+00 0. -1.
<mgrwt>
<rscale>  0 0.78657167E+02</rscale>
<asrwt>0</asrwt>
<pdfrwt beam="1">  1        2 0.99217966E-01 0.78657167E+02</pdfrwt>
<pdfrwt beam="2">  1       -1 0.36897724E-03 0.78657167E+02</pdfrwt>
<totfact> 0.34266140E+05</totfact>
</mgrwt>
</event>
<event>
 8    1  0.1226832E-024  0.8031479E+02  0.7818608E-02  0.1328160E+00
          2   -1    0    0  501    0  0.00000000000E+00  0.00000000000E+00  0.52119802768E+03  0.52119802769E+03  0.25500000000E-02 0. -1.
         -1   -1    0    0    0  501 -0.00000000000E+00 -0.00000000000E+00 -0.30940545525E+01  0.30940586574E+01  0.50400000000E-02 0.  1.
         24    2    1    2    0    0 -0.35527136788E-14  0.35527136788E-14  0.51810397313E+03  0.52429208634E+03  0.80314785887E+02 0.  0.
         66    2    3    3    0    0 -0.18969204360E+02  0.29747336204E+02  0.38407843159E+03  0.38570063036E+03  0.19999790733E+01 0.  0.
        -13    1    3    3    0    0  0.18969204360E+02 -0.29747336204E+02  0.13402554153E+03  0.13859145599E+03  0.10566000000E+00 0.  1.
         13    1    4    4    0    0 -0.11545461817E+02  0.17972764765E+02  0.23452190228E+03  0.23549278498E+03  0.10566000000E+00 0. -1.
        -13    1    4    4    0    0 -0.30567235271E+00  0.23067903449E+00  0.55037919917E+01  0.55181100684E+01  0.10566000000E+00 0. -1.
        -14    1    4    4    0    0 -0.71180701907E+01  0.11543892405E+02  0.14405273732E+03  0.14468973531E+03  0.00000000000E+00 0.  1.
<mgrwt>
<rscale>  0 0.80314786E+02</rscale>
<asrwt>0</asrwt>
<pdfrwt beam="1">  1        2 0.80184257E-01 0.80314786E+02</pdfrwt>
<pdfrwt beam="2">  1       -1 0.47600904E-03 0.80314786E+02</pdfrwt>
<totfact> 0.30537809E+05</totfact>
</mgrwt>
</event>
<event>
 8    1  0.1226832E-024  0.7865884E+02  0.7818608E-02  0.1332901E+00
          2   -1    0    0  501    0  0.00000000000E+00  0.00000000000E+00  0.45495322523E+03  0.45495322523E+03  0.25500000000E-02 0. -1.
         -1   -1    0    0    0  501 -0.00000000000E+00 -0.00000000000E+00 -0.33999149678E+01  0.33999187034E+01  0.50400000000E-02 0.  1.
         24    2    1    2    0    0 -0.17763568394E-14  0.00000000000E+00  0.45155331026E+03  0.45835314394E+03  0.78658836448E+02 0.  0.
         66    2    3    3    0    0  0.14243219616E+02 -0.34584833565E+02  0.29628750965E+03  0.29864572389E+03  0.20000002677E+01 0.  0.
        -13    1    3    3    0    0 -0.14243219616E+02  0.34584833565E+02  0.15526580061E+03  0.15970742005E+03  0.10566000000E+00 0.  1.
         13    1    4    4    0    0  0.98709763466E+01 -0.22738246907E+02  0.20122653807E+03  0.20274761364E+03  0.10566000000E+00 0. -1.
        -13    1    4    4    0    0  0.62732261758E+00 -0.14995510571E+01  0.13643463979E+02  0.13740358817E+02  0.10566000000E+00 0. -1.
         14    1    4    4    0    0  0.37449206516E+01 -0.10347035601E+02  0.81417507602E+02  0.82157751433E+02  0.00000000000E+00 0. -1.
<mgrwt>
<rscale>  0 0.78658836E+02</rscale>
<asrwt>0</asrwt>
<pdfrwt beam="1">  1        2 0.69992835E-01 0.78658836E+02</pdfrwt>
<pdfrwt beam="2">  1       -1 0.52306390E-03 0.78658836E+02</pdfrwt>
<totfact> 0.30856759E+05</totfact>
</mgrwt>
</event>
<event>
 8    1  0.1226832E-024  0.7950834E+02  0.7818608E-02  0.1330453E+00
          2   -1    0    0  501    0  0.00000000000E+00  0.00000000000E+00  0.35501740971E+01  0.35501750129E+01  0.25500000000E-02 0. -1.
         -1   -1    0    0    0  501 -0.00000000000E+00 -0.00000000000E+00 -0.44515954957E+03  0.44515954960E+03  0.50400000000E-02 0.  1.
         24    2    1    2    0    0  0.00000000000E+00 -0.88817841970E-15 -0.44160937548E+03  0.44870972461E+03  0.79508342049E+02 0.  0.
         66    2    3    3    0    0  0.39478886491E+02  0.34987344803E+01 -0.20542111787E+03  0.20921916569E+03  0.20000003404E+01 0.  0.
        -13    1    3    3    0    0 -0.39478886491E+02 -0.34987344803E+01 -0.23618825760E+03  0.23949055893E+03  0.10566000000E+00 0.  1.
         13    1    4    4    0    0  0.21846938335E+02  0.17470134346E+01 -0.10885962563E+03  0.11104400041E+03  0.10566000000E+00 0. -1.
        -13    1    4    4    0    0  0.44567852863E+01  0.32368981274E+00 -0.25354201423E+02  0.25745182152E+02  0.10566000000E+00 0.  1.
        -14    1    4    4    0    0  0.13175162869E+02  0.14280312329E+01 -0.71207290819E+02  0.72429983126E+02  0.00000000000E+00 0.  1.
<mgrwt>
<rscale>  0 0.79508342E+02</rscale>
<asrwt>0</asrwt>
<pdfrwt beam="1">  1        2 0.54618105E-03 0.79508342E+02</pdfrwt>
<pdfrwt beam="2">  1       -1 0.68486041E-01 0.79508342E+02</pdfrwt>
<totfact> 0.72701385E+04</totfact>
</mgrwt>
</event>
<event>
 8    1  0.1226832E-024  0.7330936E+02  0.7818608E-02  0.1349188E+00
          2   -1    0    0  501    0  0.00000000000E+00  0.00000000000E+00  0.10918788488E+03  0.10918788491E+03  0.25500000000E-02 0. -1.
         -1   -1    0    0    0  501 -0.00000000000E+00 -0.00000000000E+00 -0.12305076983E+02  0.12305078015E+02  0.50400000000E-02 0.  1.
         24    2    1    2    0    0  0.17763568394E-14  0.00000000000E+00  0.96882807894E+02  0.12149296292E+03  0.73309355297E+02 0.  0.
         66    2    3    3    0    0 -0.15381338874E+02 -0.97334501567E+01  0.10115215952E+03  0.10279632780E+03  0.19999988267E+01 0.  0.
        -13    1    3    3    0    0  0.15381338874E+02  0.97334501567E+01 -0.42693516303E+01  0.18696635122E+02  0.10566000000E+00 0.  1.
         13    1    4    4    0    0 -0.13483252808E+01 -0.12285932207E+01  0.90122099728E+01  0.91955704007E+01  0.10566000000E+00 0. -1.
        -13    1    4    4    0    0 -0.30662999383E+01 -0.25028133526E+01  0.20736641186E+02  0.21111270016E+02  0.10566000000E+00 0.  1.
        -14    1    4    4    0    0 -0.10966713654E+02 -0.60020435834E+01  0.71403308366E+02  0.72489487383E+02  0.00000000000E+00 0.  1.
<mgrwt>
<rscale>  0 0.73309355E+02</rscale>
<asrwt>0</asrwt>
<pdfrwt beam="1">  1        2 0.16798137E-01 0.73309355E+02</pdfrwt>
<pdfrwt beam="2">  1       -1 0.18930888E-02 0.73309355E+02</pdfrwt>
<totfact> 0.22923146E+05</totfact>
</mgrwt>
</event>
<event>
 8    1  0.1307419E-024  0.8432383E+02  0.7818608E-02  0.1317210E+00
          2   -1    0    0  501    0  0.00000000000E+00  0.00000000000E+00  0.10261147662E+03  0.10261147666E+03  0.25500000000E-02 0. -1.
         -1   -1    0    0    0  501 -0.00000000000E+00 -0.00000000000E+00 -0.17323863761E+02  0.17323864494E+02  0.50400000000E-02 0.  1.
         24    2    1    2    0    0  0.00000000000E+00  0.00000000000E+00  0.85287612864E+02  0.11993534115E+03  0.84323835000E+02 0.  0.
         66    2    3    3    0    0 -0.12352399032E+02 -0.24312340717E+02  0.88358267223E+02  0.92492459465E+02  0.19999995883E+01 0.  0.
        -13    1    3    3    0    0  0.12352399032E+02  0.24312340717E+02 -0.30706543590E+01  0.27442881686E+02  0.10566000000E+00 0.  1.
         13    1    4    4    0    0 -0.85708517109E+01 -0.17264579839E+02  0.61959854825E+02  0.64888827929E+02  0.10566000000E+00 0. -1.
        -13    1    4    4    0    0 -0.29669166960E+01 -0.59110979400E+01  0.22895701312E+02  0.23832078720E+02  0.10566000000E+00 0.  1.
        -14    1    4    4    0    0 -0.81463062476E+00 -0.11366629385E+01  0.35027110856E+01  0.37715528154E+01  0.00000000000E+00 0.  1.
<mgrwt>
<rscale>  0 0.84323835E+02</rscale>
<asrwt>0</asrwt>
<pdfrwt beam="1">  1        2 0.15786381E-01 0.84323835E+02</pdfrwt>
<pdfrwt beam="2">  1       -1 0.26652098E-02 0.84323835E+02</pdfrwt>
<totfact> 0.15501227E+05</totfact>
</mgrwt>
</event>
<event>
 8    1  0.1226832E-024  0.8762775E+02  0.7818608E-02  0.1308700E+00
          2   -1    0    0  501    0  0.00000000000E+00  0.00000000000E+00  0.97940472485E+02  0.97940472518E+02  0.25500000000E-02 0. -1.
         -1   -1    0    0    0  501 -0.00000000000E+00 -0.00000000000E+00 -0.19600227732E+02  0.19600228380E+02  0.50400000000E-02 0.  1.
         24    2    1    2    0    0 -0.44408920985E-15 -0.71054273576E-14  0.78340244754E+02  0.11754070090E+03  0.87627749141E+02 0.  0.
         66    2    3    3    0    0  0.34114375981E+01  0.37427669085E+02  0.69339313143E+02  0.78894921652E+02  0.19999989183E+01 0.  0.
        -13    1    3    3    0    0 -0.34114375981E+01 -0.37427669085E+02  0.90009316101E+01  0.38645779246E+02  0.10566000000E+00 0.  1.
         13    1    4    4    0    0  0.75905369619E+00  0.12902405918E+02  0.22504735637E+02  0.25952312635E+02  0.10566000000E+00 0. -1.
        -13    1    4    4    0    0  0.20091210280E+01  0.20578618959E+02  0.39824013450E+02  0.44871810046E+02  0.10566000000E+00 0.  1.
        -14    1    4    4    0    0  0.64326287398E+00  0.39466442088E+01  0.70105640569E+01  0.80707989711E+01  0.00000000000E+00 0.  1.
<mgrwt>
<rscale>  0 0.87627749E+02</rscale>
<asrwt>0</asrwt>
<pdfrwt beam="1">  1        2 0.15067765E-01 0.87627749E+02</pdfrwt>
<pdfrwt beam="2">  1       -1 0.30154197E-02 0.87627749E+02</pdfrwt>
<totfact> 0.13787711E+05</totfact>
</mgrwt>
</event>
<event>
 8    1  0.1226832E-024  0.7914095E+02  0.7818608E-02  0.1331507E+00
         -1   -1    0    0    0  501 -0.00000000000E+00  0.00000000000E+00  0.37850082299E+01  0.37850115855E+01  0.50400000000E-02 0.  1.
          2   -1    0    0  501    0  0.00000000000E+00 -0.00000000000E+00 -0.41369042634E+03  0.41369042635E+03  0.25500000000E-02 0. -1.
         24    2    1    2    0    0  0.00000000000E+00  0.17763568394E-14 -0.40990541811E+03  0.41747543793E+03  0.79140946934E+02 0.  0.
         66    2    3    3    0    0 -0.32505224012E+02 -0.14738846296E+02 -0.29491385104E+03  0.29707238631E+03  0.19999990395E+01 0.  0.
        -13    1    3    3    0    0  0.32505224012E+02  0.14738846296E+02 -0.11499156707E+03  0.12040305162E+03  0.10566000000E+00 0.  1.
         13    1    4    4    0    0 -0.25782310793E+01 -0.88229747953E+00 -0.25798996968E+02  0.25942727939E+02  0.10566000000E+00 0.  1.
        -13    1    4    4    0    0 -0.96753130421E+01 -0.47320415975E+01 -0.90856520863E+02  0.91492745327E+02  0.10566000000E+00 0. -1.
         14    1    4    4    0    0 -0.20251679891E+02 -0.91245072188E+01 -0.17825833321E+03  0.17963691305E+03  0.00000000000E+00 0. -1.
<mgrwt>
<rscale>  0 0.79140947E+02</rscale>
<asrwt>0</asrwt>
<pdfrwt beam="1">  1        2 0.63644645E-01 0.79140947E+02</pdfrwt>
<pdfrwt beam="2">  1       -1 0.58230955E-03 0.79140947E+02</pdfrwt>
<totfact> 0.29403215E+05</totfact>
</mgrwt>
</event>
<event>
 8    1  0.1226832E-024  0.8100708E+02  0.7818608E-02  0.1326218E+00
         -1   -1    0    0    0  501 -0.00000000000E+00  0.00000000000E+00  0.16481677456E+02  0.16481678227E+02  0.50400000000E-02 0.  1.
          2   -1    0    0  501    0  0.00000000000E+00 -0.00000000000E+00 -0.99536987335E+02  0.99536987368E+02  0.25500000000E-02 0. -1.
         24    2    1    2    0    0  0.00000000000E+00  0.00000000000E+00 -0.83055309879E+02  0.11601866559E+03  0.81007075414E+02 0.  0.
         66    2    3    3    0    0 -0.18520291090E+02  0.54549042873E+01 -0.92507459573E+02  0.94521887680E+02  0.20000027896E+01 0.  0.
        -13    1    3    3    0    0  0.18520291090E+02 -0.54549042873E+01  0.94521496935E+01  0.21496777914E+02  0.10566000000E+00 0.  1.
         13    1    4    4    0    0 -0.41482331422E+01  0.99794220900E+00 -0.23764889440E+02  0.24145079436E+02  0.10566000000E+00 0. -1.
        -13    1    4    4    0    0 -0.24617638412E+01  0.10429169283E+01 -0.11142991157E+02  0.11459728308E+02  0.10566000000E+00 0.  1.
        -14    1    4    4    0    0 -0.11910294106E+02  0.34140451500E+01 -0.57599578976E+02  0.58917079936E+02  0.00000000000E+00 0.  1.
<mgrwt>
<rscale>  0 0.81007075E+02</rscale>
<asrwt>0</asrwt>
<pdfrwt beam="1">  1        2 0.15313382E-01 0.81007075E+02</pdfrwt>
<pdfrwt beam="2">  1       -1 0.25356428E-02 0.81007075E+02</pdfrwt>
<totfact> 0.17118934E+05</totfact>
</mgrwt>
</event>
<event>
 8    1  0.1226832E-024  0.8008417E+02  0.7818608E-02  0.1328813E+00
          2   -1    0    0  501    0  0.00000000000E+00  0.00000000000E+00  0.39045584523E+03  0.39045584524E+03  0.25500000000E-02 0. -1.
         -1   -1    0    0    0  501 -0.00000000000E+00 -0.00000000000E+00 -0.41064004510E+01  0.41064035439E+01  0.50400000000E-02 0.  1.
         24    2    1    2    0    0  0.00000000000E+00 -0.22204460493E-15  0.38634944478E+03  0.39456224879E+03  0.80084172488E+02 0.  0.
         66    2    3    3    0    0 -0.29185958296E+02 -0.16460103267E+01  0.32793698501E+03  0.32924336842E+03  0.19999997382E+01 0.  0.
        -13    1    3    3    0    0  0.29185958296E+02  0.16460103267E+01  0.58412459772E+02  0.65318880367E+02  0.10566000000E+00 0.  1.
         13    1    4    4    0    0 -0.11532766509E+02 -0.45005701784E+00  0.12280749770E+03  0.12334869237E+03  0.10566000000E+00 0. -1.
        -13    1    4    4    0    0 -0.91045625357E+01 -0.11104217872E+01  0.11007157519E+03  0.11045310736E+03  0.10566000000E+00 0.  1.
        -14    1    4    4    0    0 -0.85486292512E+01 -0.85531521653E-01  0.95057912123E+02  0.95441568695E+02  0.00000000000E+00 0.  1.
<mgrwt>
<rscale>  0 0.80084172E+02</rscale>
<asrwt>0</asrwt>
<pdfrwt beam="1">  1        2 0.60070113E-01 0.80084172E+02</pdfrwt>
<pdfrwt beam="2">  1       -1 0.63175433E-03 0.80084172E+02</pdfrwt>
<totfact> 0.27938489E+05</totfact>
</mgrwt>
</event>
<event>
 8    1  0.1226832E-024  0.7848890E+02  0.7818608E-02  0.1333395E+00
         -1   -1    0    0    0  501 -0.00000000000E+00  0.00000000000E+00  0.10925083178E+03  0.10925083190E+03  0.50400000000E-02 0.  1.
          2   -1    0    0  501    0  0.00000000000E+00 -0.00000000000E+00 -0.14097163824E+02  0.14097164054E+02  0.25500000000E-02 0. -1.
         24    2    1    2    0    0  0.00000000000E+00 -0.71054273576E-14  0.95153667958E+02  0.12334799595E+03  0.78488900997E+02 0.  0.
         66    2    3    3    0    0  0.68639980461E+01 -0.37563263864E+02  0.61664633061E+02  0.72557840571E+02  0.19999991528E+01 0.  0.
        -13    1    3    3    0    0 -0.68639980461E+01  0.37563263864E+02  0.33489034898E+02  0.50790155381E+02  0.10566000000E+00 0.  1.
         13    1    4    4    0    0  0.19421788816E+01 -0.12328575106E+02  0.18971875350E+02  0.22709228108E+02  0.10566000000E+00 0. -1.
        -13    1    4    4    0    0  0.32408360883E+01 -0.16389236813E+02  0.28731648597E+02  0.33235957892E+02  0.10566000000E+00 0.  1.
        -14    1    4    4    0    0  0.16809830763E+01 -0.88454519445E+01  0.13961109113E+02  0.16612654571E+02  0.00000000000E+00 0.  1.
<mgrwt>
<rscale>  0 0.78488901E+02</rscale>
<asrwt>0</asrwt>
<pdfrwt beam="1">  1        2 0.21687944E-02 0.78488901E+02</pdfrwt>
<pdfrwt beam="2">  1       -1 0.16807821E-01 0.78488901E+02</pdfrwt>
<totfact> 0.12195195E+05</totfact>
</mgrwt>
</event>
<event>
 8    1  0.1226832E-024  0.8078335E+02  0.7818608E-02  0.1326843E+00
          2   -1    0    0  501    0  0.00000000000E+00  0.00000000000E+00  0.94679079868E+03  0.94679079869E+03  0.25500000000E-02 0. -1.
         -1   -1    0    0    0  501 -0.00000000000E+00 -0.00000000000E+00 -0.17231726790E+01  0.17231800496E+01  0.50400000000E-02 0.  1.
         24    2    1    2    0    0  0.00000000000E+00  0.00000000000E+00  0.94506762601E+03  0.94851397874E+03  0.80783353092E+02 0.  0.
         66    2    3    3    0    0  0.51264024915E+01  0.19547458289E+02  0.88311872514E+03  0.88335217543E+03  0.20000030275E+01 0.  0.
        -13    1    3    3    0    0 -0.51264024915E+01 -0.19547458289E+02  0.61948900863E+02  0.65161803307E+02  0.10566000000E+00 0.  1.
         13    1    4    4    0    0  0.40261787821E+01  0.14643068877E+02  0.65060876187E+03  0.65078598768E+03  0.10566000000E+00 0. -1.
        -13    1    4    4    0    0  0.82651153919E+00  0.18227122342E+01  0.82681210271E+02  0.82705496173E+02  0.10566000000E+00 0.  1.
         14    1    4    4    0    0  0.27371217023E+00  0.30816771782E+01  0.14982875300E+03  0.14986069158E+03  0.00000000000E+00 0. -1.
<mgrwt>
<rscale>  0 0.80783353E+02</rscale>
<asrwt>0</asrwt>
<pdfrwt beam="1">  1        2 0.14566033E+00 0.80783353E+02</pdfrwt>
<pdfrwt beam="2">  1       -1 0.26510368E-03 0.80783353E+02</pdfrwt>
<totfact> 0.34236923E+05</totfact>
</mgrwt>
</event>
<event>
 8    1  0.1226832E-024  0.7955055E+02  0.7818608E-02  0.1330332E+00
         -1   -1    0    0    0  501 -0.00000000000E+00  0.00000000000E+00  0.22671805490E+02  0.22671806051E+02  0.50400000000E-02 0.  1.
          2   -1    0    0  501    0  0.00000000000E+00 -0.00000000000E+00 -0.69781488579E+02  0.69781488625E+02  0.25500000000E-02 0. -1.
         24    2    1    2    0    0  0.00000000000E+00  0.71054273576E-14 -0.47109683089E+02  0.92453294676E+02  0.79550546546E+02 0.  0.
         66    2    3    3    0    0  0.68732584888E+01  0.39138156272E+02 -0.24749454208E+02  0.46856935630E+02  0.19999936019E+01 0.  0.
        -13    1    3    3    0    0 -0.68732584888E+01 -0.39138156272E+02 -0.22360228881E+02  0.45596359046E+02  0.10566000000E+00 0.  1.
         13    1    4    4    0    0  0.33780237849E+01  0.17616779657E+02 -0.11030293943E+02  0.21058027416E+02  0.10566000000E+00 0. -1.
        -13    1    4    4    0    0  0.17148180440E+01  0.13604370457E+02 -0.91695989605E+01  0.16495823883E+02  0.10566000000E+00 0.  1.
        -14    1    4    4    0    0  0.17804166598E+01  0.79170061582E+01 -0.45495613045E+01  0.93030843302E+01  0.00000000000E+00 0.  1.
<mgrwt>
<rscale>  0 0.79550547E+02</rscale>
<asrwt>0</asrwt>
<pdfrwt beam="1">  1        2 0.10735614E-01 0.79550547E+02</pdfrwt>
<pdfrwt beam="2">  1       -1 0.34879702E-02 0.79550547E+02</pdfrwt>
<totfact> 0.16382063E+05</totfact>
</mgrwt>
</event>
<event>
 8    1  0.1226832E-024  0.8037954E+02  0.7818608E-02  0.1327978E+00
         -1   -1    0    0    0  501 -0.00000000000E+00  0.00000000000E+00  0.55456946044E+01  0.55456968946E+01  0.50400000000E-02 0.  1.
          2   -1    0    0  501    0  0.00000000000E+00 -0.00000000000E+00 -0.29125609128E+03  0.29125609129E+03  0.25500000000E-02 0. -1.
         24    2    1    2    0    0 -0.35527136788E-14  0.00000000000E+00 -0.28571039667E+03  0.29680178818E+03  0.80379541562E+02 0.  0.
         66    2    3    3    0    0  0.26993110522E+02  0.42094267559E+01 -0.25166023662E+03  0.25314664126E+03  0.19999989889E+01 0.  0.
        -13    1    3    3    0    0 -0.26993110522E+02 -0.42094267559E+01 -0.34050160053E+02  0.43655146924E+02  0.10566000000E+00 0.  1.
         13    1    4    4    0    0  0.72800348001E+01  0.16702033161E+01 -0.73106143609E+02  0.73486787133E+02  0.10566000000E+00 0. -1.
        -13    1    4    4    0    0  0.27476653108E+01  0.64610244271E+00 -0.27051441574E+02  0.27198506729E+02  0.10566000000E+00 0. -1.
         14    1    4    4    0    0  0.16965410411E+02  0.18931209971E+01 -0.15150265144E+03  0.15246134740E+03  0.00000000000E+00 0. -1.
<mgrwt>
<rscale>  0 0.80379542E+02</rscale>
<asrwt>0</asrwt>
<pdfrwt beam="1">  1        2 0.44808617E-01 0.80379542E+02</pdfrwt>
<pdfrwt beam="2">  1       -1 0.85318419E-03 0.80379542E+02</pdfrwt>
<totfact> 0.24911552E+05</totfact>
</mgrwt>
</event>
<event>
 8    1  0.1226832E-024  0.7969449E+02  0.7818608E-02  0.1329921E+00
         -1   -1    0    0    0  501 -0.00000000000E+00  0.00000000000E+00  0.11065132492E+01  0.11065247274E+01  0.50400000000E-02 0.  1.
          2   -1    0    0  501    0  0.00000000000E+00 -0.00000000000E+00 -0.14349532835E+04  0.14349532835E+04  0.25500000000E-02 0. -1.
         24    2    1    2    0    0  0.00000000000E+00  0.00000000000E+00 -0.14338467703E+04  0.14360598083E+04  0.79694493248E+02 0.  0.
         66    2    3    3    0    0  0.10695988225E+02  0.19417607532E+02 -0.13134781803E+04  0.13136667681E+04  0.20000009866E+01 0.  0.
        -13    1    3    3    0    0 -0.10695988225E+02 -0.19417607532E+02 -0.12036859002E+03  0.12239304013E+03  0.10566000000E+00 0.  1.
         13    1    4    4    0    0  0.17276684412E+01  0.29697277520E+01 -0.18315185013E+03  0.18318410272E+03  0.10566000000E+00 0. -1.
        -13    1    4    4    0    0  0.62215942075E+00  0.15734245116E+01 -0.81118943507E+02  0.81136655752E+02  0.10566000000E+00 0.  1.
         14    1    4    4    0    0  0.83461603629E+01  0.14874455268E+02 -0.10492073866E+04  0.10493460096E+04  0.00000000000E+00 0. -1.
<mgrwt>
<rscale>  0 0.79694493E+02</rscale>
<asrwt>0</asrwt>
<pdfrwt beam="1">  1        2 0.22076056E+00 0.79694493E+02</pdfrwt>
<pdfrwt beam="2">  1       -1 0.17023484E-03 0.79694493E+02</pdfrwt>
<totfact> 0.34101722E+05</totfact>
</mgrwt>
</event>
<event>
 8    1  0.1226832E-024  0.8010017E+02  0.7818608E-02  0.1328767E+00
          2   -1    0    0  501    0  0.00000000000E+00  0.00000000000E+00  0.13451501248E+02  0.13451501490E+02  0.25500000000E-02 0. -1.
         -1   -1    0    0    0  501 -0.00000000000E+00 -0.00000000000E+00 -0.11924387282E+03  0.11924387292E+03  0.50400000000E-02 0.  1.
         24    2    1    2    0    0  0.00000000000E+00  0.00000000000E+00 -0.10579237157E+03  0.13269537441E+03  0.80100165470E+02 0.  0.
         66    2    3    3    0    0  0.21352325852E+02 -0.25760501740E+02 -0.16540790867E+02  0.37378108972E+02  0.19999996633E+01 0.  0.
        -13    1    3    3    0    0 -0.21352325852E+02  0.25760501740E+02 -0.89251580700E+02  0.95317265439E+02  0.10566000000E+00 0.  1.
         13    1    4    4    0    0  0.11636275605E+02 -0.14982217616E+02 -0.96177661140E+01  0.21269281693E+02  0.10566000000E+00 0. -1.
        -13    1    4    4    0    0  0.86755909133E+01 -0.91560813350E+01 -0.61352354879E+01  0.14026830777E+02  0.10566000000E+00 0.  1.
         14    1    4    4    0    0  0.10404593335E+01 -0.16222027892E+01 -0.78778926520E+00  0.20819965034E+01  0.00000000000E+00 0. -1.
<mgrwt>
<rscale>  0 0.80100165E+02</rscale>
<asrwt>0</asrwt>
<pdfrwt beam="1">  1        2 0.20694618E-02 0.80100165E+02</pdfrwt>
<pdfrwt beam="2">  1       -1 0.18345211E-01 0.80100165E+02</pdfrwt>
<totfact> 0.11365189E+05</totfact>
</mgrwt>
</event>
<event>
 8    1  0.1226832E-024  0.7802619E+02  0.7818608E-02  0.1334748E+00
         -1   -1    0    0    0  501 -0.00000000000E+00  0.00000000000E+00  0.44717171912E+02  0.44717172196E+02  0.50400000000E-02 0.  1.
          2   -1    0    0  501    0  0.00000000000E+00 -0.00000000000E+00 -0.34036627344E+02  0.34036627439E+02  0.25500000000E-02 0. -1.
         24    2    1    2    0    0 -0.14210854715E-13  0.17763568394E-14  0.10680544569E+02  0.78753799635E+02  0.78026193837E+02 0.  0.
         66    2    3    3    0    0  0.37549526528E+02 -0.10441636126E+02  0.43233546095E+01  0.39264310709E+02  0.19999982133E+01 0.  0.
        -13    1    3    3    0    0 -0.37549526528E+02  0.10441636126E+02  0.63571899592E+01  0.39489488927E+02  0.10566000000E+00 0.  1.
         13    1    4    4    0    0  0.22450783881E+02 -0.65621336593E+01  0.20250401012E+01  0.23477888459E+02  0.10566000000E+00 0. -1.
        -13    1    4    4    0    0  0.93901299680E+01 -0.23655196748E+01  0.96677181971E+00  0.97322163938E+01  0.10566000000E+00 0.  1.
        -14    1    4    4    0    0  0.57086126790E+01 -0.15139827921E+01  0.13315426886E+01  0.60542058559E+01  0.00000000000E+00 0.  1.
<mgrwt>
<rscale>  0 0.78026194E+02</rscale>
<asrwt>0</asrwt>
<pdfrwt beam="1">  1        2 0.52364043E-02 0.78026194E+02</pdfrwt>
<pdfrwt beam="2">  1       -1 0.68795649E-02 0.78026194E+02</pdfrwt>
<totfact> 0.14788741E+05</totfact>
</mgrwt>
</event>
<event>
 8    1  0.1226832E-024  0.8160459E+02  0.7818608E-02  0.1324559E+00
         -1   -1    0    0    0  501 -0.00000000000E+00  0.00000000000E+00  0.87979799908E+01  0.87979814344E+01  0.50400000000E-02 0.  1.
          2   -1    0    0  501    0  0.00000000000E+00 -0.00000000000E+00 -0.18922834026E+03  0.18922834027E+03  0.25500000000E-02 0. -1.
         24    2    1    2    0    0  0.00000000000E+00  0.00000000000E+00 -0.18043036027E+03  0.19802632171E+03  0.81604590457E+02 0.  0.
         66    2    3    3    0    0 -0.13257870010E+02  0.38548978894E+02 -0.92728918739E+02  0.10131360847E+03  0.20000001850E+01 0.  0.
        -13    1    3    3    0    0  0.13257870010E+02 -0.38548978894E+02 -0.87701441527E+02  0.96712713233E+02  0.10566000000E+00 0.  1.
         13    1    4    4    0    0 -0.75306257634E+01  0.22748413634E+02 -0.52988678961E+02  0.58155067787E+02  0.10566000000E+00 0. -1.
        -13    1    4    4    0    0 -0.73357960769E+00  0.20599125630E+01 -0.44326205799E+01  0.49437504032E+01  0.10566000000E+00 0.  1.
        -14    1    4    4    0    0 -0.49936646392E+01  0.13740652697E+02 -0.35307619198E+02  0.38214790284E+02  0.00000000000E+00 0.  1.
<mgrwt>
<rscale>  0 0.81604590E+02</rscale>
<asrwt>0</asrwt>
<pdfrwt beam="1">  1        2 0.29112049E-01 0.81604590E+02</pdfrwt>
<pdfrwt beam="2">  1       -1 0.13535356E-02 0.81604590E+02</pdfrwt>
<totfact> 0.20533810E+05</totfact>
</mgrwt>
</event>
<event>
 8    1  0.1226832E-024  0.7991866E+02  0.7818608E-02  0.1329282E+00
         -1   -1    0    0    0  501 -0.00000000000E+00  0.00000000000E+00  0.27237636845E+03  0.27237636849E+03  0.50400000000E-02 0.  1.
          2   -1    0    0  501    0  0.00000000000E+00 -0.00000000000E+00 -0.58622858061E+01  0.58622863607E+01  0.25500000000E-02 0. -1.
         24    2    1    2    0    0  0.00000000000E+00  0.00000000000E+00  0.26651408264E+03  0.27823865485E+03  0.79918663710E+02 0.  0.
         66    2    3    3    0    0  0.39397844838E+02 -0.39257889793E+01  0.15147804414E+03  0.15657969170E+03  0.20000001070E+01 0.  0.
        -13    1    3    3    0    0 -0.39397844838E+02  0.39257889793E+01  0.11503603851E+03  0.12165896316E+03  0.10566000000E+00 0.  1.
         13    1    4    4    0    0  0.17656915091E+02 -0.12265911344E+01  0.67835844157E+02  0.70106947537E+02  0.10566000000E+00 0. -1.
        -13    1    4    4    0    0  0.77621349291E+01 -0.13995067585E+01  0.28500968980E+02  0.29572381620E+02  0.10566000000E+00 0.  1.
        -14    1    4    4    0    0  0.13978794818E+02 -0.12996910864E+01  0.55141230998E+02  0.56900362543E+02  0.00000000000E+00 0.  1.
<mgrwt>
<rscale>  0 0.79918664E+02</rscale>
<asrwt>0</asrwt>
<pdfrwt beam="1">  1        2 0.90189045E-03 0.79918664E+02</pdfrwt>
<pdfrwt beam="2">  1       -1 0.41904044E-01 0.79918664E+02</pdfrwt>
<totfact> 0.89991846E+04</totfact>
</mgrwt>
</event>
<event>
 8    1  0.1226832E-024  0.7867578E+02  0.7818608E-02  0.1332852E+00
          2   -1    0    0  501    0  0.00000000000E+00  0.00000000000E+00  0.14061127071E+03  0.14061127074E+03  0.25500000000E-02 0. -1.
         -1   -1    0    0    0  501 -0.00000000000E+00 -0.00000000000E+00 -0.11005301050E+02  0.11005302204E+02  0.50400000000E-02 0.  1.
         24    2    1    2    0    0  0.00000000000E+00  0.00000000000E+00  0.12960596966E+03  0.15161657294E+03  0.78675776564E+02 0.  0.
         66    2    3    3    0    0  0.18659688891E+02 -0.58154780170E+01  0.13057744965E+03  0.13204724205E+03  0.20000005279E+01 0.  0.
        -13    1    3    3    0    0 -0.18659688891E+02  0.58154780170E+01 -0.97147998624E+00  0.19569330890E+02  0.10566000000E+00 0.  1.
         13    1    4    4    0    0  0.87463194380E-01 -0.53095664001E-01  0.94254220432E+00  0.95394905652E+00  0.10566000000E+00 0.  1.
        -13    1    4    4    0    0  0.13439187099E+01 -0.34162937768E+00  0.71541293041E+01  0.72880421421E+01  0.10566000000E+00 0.  1.
         14    1    4    4    0    0  0.17228306987E+02 -0.54207529753E+01  0.12248077814E+03  0.12380525085E+03  0.00000000000E+00 0. -1.
<mgrwt>
<rscale>  0 0.78675777E+02</rscale>
<asrwt>0</asrwt>
<pdfrwt beam="1">  1        2 0.21632502E-01 0.78675777E+02</pdfrwt>
<pdfrwt beam="2">  1       -1 0.16931235E-02 0.78675777E+02</pdfrwt>
<totfact> 0.20510056E+05</totfact>
</mgrwt>
</event>
<event>
 8    1  0.1226832E-024  0.8017592E+02  0.7818608E-02  0.1328553E+00
         -1   -1    0    0    0  501 -0.00000000000E+00  0.00000000000E+00  0.18231812232E+02  0.18231812929E+02  0.50400000000E-02 0.  1.
          2   -1    0    0  501    0  0.00000000000E+00 -0.00000000000E+00 -0.88145075686E+02  0.88145075723E+02  0.25500000000E-02 0. -1.
         24    2    1    2    0    0  0.00000000000E+00  0.00000000000E+00 -0.69913263454E+02  0.10637688865E+03  0.80175919280E+02 0.  0.
         66    2    3    3    0    0 -0.37066385989E+02 -0.15089569517E+02 -0.32521974066E+02  0.51607081599E+02  0.19999988711E+01 0.  0.
        -13    1    3    3    0    0  0.37066385989E+02  0.15089569517E+02 -0.37391289387E+02  0.54769807052E+02  0.10566000000E+00 0.  1.
         13    1    4    4    0    0 -0.65946358981E+01 -0.28834782640E+01 -0.65457822474E+01  0.97294449376E+01  0.10566000000E+00 0. -1.
        -13    1    4    4    0    0 -0.83330013592E+01 -0.27883915129E+01 -0.71170136151E+01  0.11308275099E+02  0.10566000000E+00 0.  1.
        -14    1    4    4    0    0 -0.22138748732E+02 -0.94176997401E+01 -0.18859178204E+02  0.30569361562E+02  0.00000000000E+00 0.  1.
<mgrwt>
<rscale>  0 0.80175919E+02</rscale>
<asrwt>0</asrwt>
<pdfrwt beam="1">  1        2 0.13560781E-01 0.80175919E+02</pdfrwt>
<pdfrwt beam="2">  1       -1 0.28048943E-02 0.80175919E+02</pdfrwt>
<totfact> 0.17024084E+05</totfact>
</mgrwt>
</event>
<event>
 8    1  0.1226832E-024  0.8033469E+02  0.7818608E-02  0.1328104E+00
         -1   -1    0    0    0  501 -0.00000000000E+00  0.00000000000E+00  0.32111647260E+02  0.32111647655E+02  0.50400000000E-02 0.  1.
          2   -1    0    0  501    0  0.00000000000E+00 -0.00000000000E+00 -0.50243931534E+02  0.50243931598E+02  0.25500000000E-02 0. -1.
         24    2    1    2    0    0 -0.35527136788E-14  0.00000000000E+00 -0.18132284274E+02  0.82355579254E+02  0.80334685543E+02 0.  0.
         66    2    3    3    0    0  0.21224118639E+02  0.24891090253E+02  0.14781164997E+02  0.35951528860E+02  0.20000006767E+01 0.  0.
        -13    1    3    3    0    0 -0.21224118639E+02 -0.24891090253E+02 -0.32913449271E+02  0.46404050394E+02  0.10566000000E+00 0.  1.
         13    1    4    4    0    0  0.40453237983E+01  0.41536680082E+01  0.22047038833E+01  0.62039895070E+01  0.10566000000E+00 0. -1.
        -13    1    4    4    0    0  0.27073880375E+01  0.26007067488E+01  0.17421336086E+01  0.41400264642E+01  0.10566000000E+00 0.  1.
        -14    1    4    4    0    0  0.14471406803E+02  0.18136715496E+02  0.10834327505E+02  0.25607512889E+02  0.00000000000E+00 0.  1.
<mgrwt>
<rscale>  0 0.80334686E+02</rscale>
<asrwt>0</asrwt>
<pdfrwt beam="1">  1        2 0.77298357E-02 0.80334686E+02</pdfrwt>
<pdfrwt beam="2">  1       -1 0.49402534E-02 0.80334686E+02</pdfrwt>
<totfact> 0.14788733E+05</totfact>
</mgrwt>
</event>
<event>
 8    1  0.1226832E-024  0.8104756E+02  0.7818608E-02  0.1326105E+00
          2   -1    0    0  501    0  0.00000000000E+00  0.00000000000E+00  0.11794093901E+04  0.11794093901E+04  0.25500000000E-02 0. -1.
         -1   -1    0    0    0  501 -0.00000000000E+00 -0.00000000000E+00 -0.13923677090E+01  0.13923768307E+01  0.50400000000E-02 0.  1.
         24    2    1    2    0    0 -0.35527136788E-14  0.00000000000E+00  0.11780170224E+04  0.11808017669E+04  0.81047564739E+02 0.  0.
         66    2    3    3    0    0 -0.23248396366E+02 -0.14452126933E+02  0.10242087183E+04  0.10245764250E+04  0.20000033973E+01 0.  0.
        -13    1    3    3    0    0  0.23248396366E+02  0.14452126933E+02  0.15380830405E+03  0.15622534194E+03  0.10566000000E+00 0.  1.
         13    1    4    4    0    0 -0.35570880387E+01 -0.26151173829E+01  0.17367551791E+03  0.17373165630E+03  0.10566000000E+00 0. -1.
        -13    1    4    4    0    0 -0.66716710718E+01 -0.48054762477E+01  0.31135425894E+03  0.31146282205E+03  0.10566000000E+00 0.  1.
         14    1    4    4    0    0 -0.13019637256E+02 -0.70315333020E+01  0.53917894148E+03  0.53938194663E+03  0.00000000000E+00 0. -1.
<mgrwt>
<rscale>  0 0.81047565E+02</rscale>
<asrwt>0</asrwt>
<pdfrwt beam="1">  1        2 0.18144820E+00 0.81047565E+02</pdfrwt>
<pdfrwt beam="2">  1       -1 0.21421041E-03 0.81047565E+02</pdfrwt>
<totfact> 0.33933450E+05</totfact>
</mgrwt>
</event>
<event>
 8    1  0.1226832E-024  0.7982921E+02  0.7818608E-02  0.1329537E+00
          2   -1    0    0  501    0  0.00000000000E+00  0.00000000000E+00  0.37343545274E+02  0.37343545361E+02  0.25500000000E-02 0. -1.
         -1   -1    0    0    0  501 -0.00000000000E+00 -0.00000000000E+00 -0.42662683559E+02  0.42662683857E+02  0.50400000000E-02 0.  1.
         24    2    1    2    0    0  0.00000000000E+00  0.00000000000E+00 -0.53191382851E+01  0.80006229218E+02  0.79829214462E+02 0.  0.
         66    2    3    3    0    0  0.18044879161E+02  0.20399262443E+02  0.26548260669E+02  0.38086188041E+02  0.20000007088E+01 0.  0.
        -13    1    3    3    0    0 -0.18044879161E+02 -0.20399262443E+02 -0.31867398954E+02  0.41920041177E+02  0.10566000000E+00 0.  1.
         13    1    4    4    0    0  0.42864333724E+01  0.47509756600E+01  0.65522049871E+01  0.91590302438E+01  0.10566000000E+00 0. -1.
        -13    1    4    4    0    0  0.73685908972E+01  0.96083200903E+01  0.11418461962E+02  0.16643568860E+02  0.10566000000E+00 0.  1.
         14    1    4    4    0    0  0.63898548910E+01  0.60399666932E+01  0.85775937194E+01  0.12283588938E+02  0.00000000000E+00 0. -1.
<mgrwt>
<rscale>  0 0.79829214E+02</rscale>
<asrwt>0</asrwt>
<pdfrwt beam="1">  1        2 0.57451608E-02 0.79829214E+02</pdfrwt>
<pdfrwt beam="2">  1       -1 0.65634899E-02 0.79829214E+02</pdfrwt>
<totfact> 0.14140149E+05</totfact>
</mgrwt>
</event>
<event>
 8    1  0.1226832E-024  0.7971640E+02  0.7818608E-02  0.1329858E+00
          2   -1    0    0  501    0  0.00000000000E+00  0.00000000000E+00  0.41599653469E+01  0.41599661284E+01  0.25500000000E-02 0. -1.
         -1   -1    0    0    0  501 -0.00000000000E+00 -0.00000000000E+00 -0.38189647765E+03  0.38189647768E+03  0.50400000000E-02 0.  1.
         24    2    1    2    0    0  0.00000000000E+00  0.00000000000E+00 -0.37773651230E+03  0.38605644381E+03  0.79716404094E+02 0.  0.
         66    2    3    3    0    0 -0.36858515593E+02  0.53653600977E+01 -0.25736125913E+03  0.26005029316E+03  0.20000031520E+01 0.  0.
        -13    1    3    3    0    0  0.36858515593E+02 -0.53653600977E+01 -0.12037525318E+03  0.12600615065E+03  0.10566000000E+00 0.  1.
         13    1    4    4    0    0 -0.55606386058E+01  0.99346906177E+00 -0.38702045860E+02  0.39112238497E+02  0.10566000000E+00 0. -1.
        -13    1    4    4    0    0 -0.22662565731E+02  0.33787992031E+01 -0.16365839951E+03  0.16525462494E+03  0.10566000000E+00 0.  1.
        -14    1    4    4    0    0 -0.86353112568E+01  0.99309183286E+00 -0.55000813758E+02  0.55683429725E+02  0.00000000000E+00 0.  1.
<mgrwt>
<rscale>  0 0.79716404E+02</rscale>
<asrwt>0</asrwt>
<pdfrwt beam="1">  1        2 0.63999503E-03 0.79716404E+02</pdfrwt>
<pdfrwt beam="2">  1       -1 0.58753277E-01 0.79716404E+02</pdfrwt>
<totfact> 0.78301352E+04</totfact>
</mgrwt>
</event>
<event>
 8    1  0.1226832E-024  0.7985618E+02  0.7818608E-02  0.1329460E+00
          2   -1    0    0  501    0  0.00000000000E+00  0.00000000000E+00  0.11977777973E+04  0.11977777973E+04  0.25500000000E-02 0. -1.
         -1   -1    0    0    0  501 -0.00000000000E+00 -0.00000000000E+00 -0.13310036896E+01  0.13310132319E+01  0.50400000000E-02 0.  1.
         24    2    1    2    0    0  0.00000000000E+00  0.00000000000E+00  0.11964467936E+04  0.11991088105E+04  0.79856180481E+02 0.  0.
         66    2    3    3    0    0  0.12375853960E+02  0.15844441378E+02  0.11161632695E+04  0.11163461167E+04  0.19999997893E+01 0.  0.
        -13    1    3    3    0    0 -0.12375853960E+02 -0.15844441378E+02  0.80283524137E+02  0.82762693864E+02  0.10566000000E+00 0.  1.
         13    1    4    4    0    0  0.51477796041E+01  0.65984220978E+01  0.44362652695E+03  0.44370547144E+03  0.10566000000E+00 0.  1.
        -13    1    4    4    0    0  0.61301628958E+01  0.85492592619E+01  0.60188641275E+03  0.60197834990E+03  0.10566000000E+00 0. -1.
        -14    1    4    4    0    0  0.10979114597E+01  0.69676001837E+00  0.70650329760E+02  0.70662295316E+02  0.00000000000E+00 0.  1.
<mgrwt>
<rscale>  0 0.79856180E+02</rscale>
<asrwt>0</asrwt>
<pdfrwt beam="1">  1        2 0.18427384E+00 0.79856180E+02</pdfrwt>
<pdfrwt beam="2">  1       -1 0.20477016E-03 0.79856180E+02</pdfrwt>
<totfact> 0.35209253E+05</totfact>
</mgrwt>
</event>
<event>
 8    1  0.1226832E-024  0.7866470E+02  0.7818608E-02  0.1332884E+00
          2   -1    0    0  501    0  0.00000000000E+00  0.00000000000E+00  0.12998744411E+04  0.12998744411E+04  0.25500000000E-02 0. -1.
         -1   -1    0    0    0  501 -0.00000000000E+00 -0.00000000000E+00 -0.11901356074E+01  0.11901462791E+01  0.50400000000E-02 0.  1.
         24    2    1    2    0    0  0.00000000000E+00  0.00000000000E+00  0.12986843055E+04  0.13010645874E+04  0.78664701141E+02 0.  0.
         66    2    3    3    0    0  0.23946951862E+02  0.51837570284E+00  0.11652224940E+04  0.11654703710E+04  0.20000027567E+01 0.  0.
        -13    1    3    3    0    0 -0.23946951862E+02 -0.51837570284E+00  0.13346181151E+03  0.13559421637E+03  0.10566000000E+00 0.  1.
         13    1    4    4    0    0  0.15794262006E+02  0.91046064297E+00  0.78421394145E+03  0.78437351101E+03  0.10566000000E+00 0. -1.
        -13    1    4    4    0    0  0.26296539176E+01  0.21837718146E+00  0.12973405103E+03  0.12976092605E+03  0.10566000000E+00 0.  1.
        -14    1    4    4    0    0  0.55230359389E+01 -0.61046212159E+00  0.25127450148E+03  0.25133593393E+03  0.00000000000E+00 0.  1.
<mgrwt>
<rscale>  0 0.78664701E+02</rscale>
<asrwt>0</asrwt>
<pdfrwt beam="1">  1        2 0.19998027E+00 0.78664701E+02</pdfrwt>
<pdfrwt beam="2">  1       -1 0.18309899E-03 0.78664701E+02</pdfrwt>
<totfact> 0.36163046E+05</totfact>
</mgrwt>
</event>
<event>
 8    1  0.1226832E-024  0.7936426E+02  0.7818608E-02  0.1330865E+00
         -1   -1    0    0    0  501 -0.00000000000E+00  0.00000000000E+00  0.20426044552E+02  0.20426045174E+02  0.50400000000E-02 0.  1.
          2   -1    0    0  501    0  0.00000000000E+00 -0.00000000000E+00 -0.77091356966E+02  0.77091357008E+02  0.25500000000E-02 0. -1.
         24    2    1    2    0    0  0.00000000000E+00  0.00000000000E+00 -0.56665312414E+02  0.97517402182E+02  0.79364262091E+02 0.  0.
         66    2    3    3    0    0 -0.10968496050E+02  0.99206220924E+01 -0.73562923517E+02  0.75061510454E+02  0.19999967451E+01 0.  0.
        -13    1    3    3    0    0  0.10968496050E+02 -0.99206220924E+01  0.16897611102E+02  0.22455891728E+02  0.10566000000E+00 0.  1.
         13    1    4    4    0    0 -0.32225275785E+01  0.28947076859E+01 -0.22606002686E+02  0.23017526758E+02  0.10566000000E+00 0. -1.
        -13    1    4    4    0    0 -0.31137640644E+01  0.36509459103E+01 -0.25778411978E+02  0.26221415309E+02  0.10566000000E+00 0.  1.
         14    1    4    4    0    0 -0.46322044071E+01  0.33749684962E+01 -0.25178508853E+02  0.25822568387E+02  0.00000000000E+00 0. -1.
<mgrwt>
<rscale>  0 0.79364262E+02</rscale>
<asrwt>0</asrwt>
<pdfrwt beam="1">  1        2 0.11860209E-01 0.79364262E+02</pdfrwt>
<pdfrwt beam="2">  1       -1 0.31424685E-02 0.79364262E+02</pdfrwt>
<totfact> 0.16898479E+05</totfact>
</mgrwt>
</event>
<event>
 8    1  0.1226832E-024  0.7990193E+02  0.7818608E-02  0.1329330E+00
         -1   -1    0    0    0  501 -0.00000000000E+00  0.00000000000E+00  0.22003303920E+02  0.22003304497E+02  0.50400000000E-02 0.  1.
          2   -1    0    0  501    0  0.00000000000E+00 -0.00000000000E+00 -0.72538183336E+02  0.72538183381E+02  0.25500000000E-02 0. -1.
         24    2    1    2    0    0  0.00000000000E+00  0.00000000000E+00 -0.50534879417E+02  0.94541487878E+02  0.79901932971E+02 0.  0.
         66    2    3    3    0    0 -0.32392534722E+02  0.51434995560E+01 -0.52221745236E+02  0.61699615615E+02  0.19999995205E+01 0.  0.
        -13    1    3    3    0    0  0.32392534722E+02 -0.51434995560E+01  0.16868658195E+01  0.32841872263E+02  0.10566000000E+00 0.  1.
         13    1    4    4    0    0 -0.22985766445E+02  0.34856182582E+01 -0.36963542925E+02  0.43667031767E+02  0.10566000000E+00 0. -1.
        -13    1    4    4    0    0 -0.32892185361E+01  0.10111851623E+01 -0.49820768687E+01  0.60558820969E+01  0.10566000000E+00 0.  1.
        -14    1    4    4    0    0 -0.61175497411E+01  0.64669613551E+00 -0.10276125442E+02  0.11976701751E+02  0.00000000000E+00 0.  1.
<mgrwt>
<rscale>  0 0.79901933E+02</rscale>
<asrwt>0</asrwt>
<pdfrwt beam="1">  1        2 0.11159720E-01 0.79901933E+02</pdfrwt>
<pdfrwt beam="2">  1       -1 0.33851238E-02 0.79901933E+02</pdfrwt>
<totfact> 0.16342619E+05</totfact>
</mgrwt>
</event>
<event>
 8    1  0.1226832E-024  0.8024372E+02  0.7818608E-02  0.1328361E+00
         -1   -1    0    0    0  501 -0.00000000000E+00  0.00000000000E+00  0.78363823471E+01  0.78363839679E+01  0.50400000000E-02 0.  1.
          2   -1    0    0  501    0  0.00000000000E+00 -0.00000000000E+00 -0.20542174094E+03  0.20542174095E+03  0.25500000000E-02 0. -1.
         24    2    1    2    0    0  0.00000000000E+00  0.00000000000E+00 -0.19758535859E+03  0.21325812492E+03  0.80243715739E+02 0.  0.
         66    2    3    3    0    0 -0.55403608733E+01  0.36659287968E+02 -0.13943472865E+03  0.14429359839E+03  0.19999975474E+01 0.  0.
        -13    1    3    3    0    0  0.55403608733E+01 -0.36659287968E+02 -0.58150629938E+02  0.68964526528E+02  0.10566000000E+00 0.  1.
         13    1    4    4    0    0 -0.50213097469E+00  0.46132458525E+01 -0.16863416907E+02  0.17490573651E+02  0.10566000000E+00 0. -1.
        -13    1    4    4    0    0 -0.28699718745E+01  0.20849532374E+02 -0.76680855731E+02  0.79516693458E+02  0.10566000000E+00 0.  1.
        -14    1    4    4    0    0 -0.21682580241E+01  0.11196509741E+02 -0.45890456013E+02  0.47286331284E+02  0.00000000000E+00 0.  1.
<mgrwt>
<rscale>  0 0.80243716E+02</rscale>
<asrwt>0</asrwt>
<pdfrwt beam="1">  1        2 0.31603341E-01 0.80243716E+02</pdfrwt>
<pdfrwt beam="2">  1       -1 0.12055976E-02 0.80243716E+02</pdfrwt>
<totfact> 0.22086987E+05</totfact>
</mgrwt>
</event>
<event>
 8    1  0.1226832E-024  0.7882190E+02  0.7818608E-02  0.1332428E+00
         -1   -1    0    0    0  501 -0.00000000000E+00  0.00000000000E+00  0.17064745275E+02  0.17064746019E+02  0.50400000000E-02 0.  1.
          2   -1    0    0  501    0  0.00000000000E+00 -0.00000000000E+00 -0.91019408704E+02  0.91019408740E+02  0.25500000000E-02 0. -1.
         24    2    1    2    0    0  0.00000000000E+00  0.00000000000E+00 -0.73954663430E+02  0.10808415476E+03  0.78821902203E+02 0.  0.
         66    2    3    3    0    0 -0.33764987988E+01 -0.32247353408E+02 -0.67660765010E+02  0.75055124084E+02  0.19999959156E+01 0.  0.
        -13    1    3    3    0    0  0.33764987988E+01  0.32247353408E+02 -0.62938984195E+01  0.33029030674E+02  0.10566000000E+00 0.  1.
         13    1    4    4    0    0 -0.23266668974E+01 -0.17268693936E+02 -0.36012032847E+02  0.40006235050E+02  0.10566000000E+00 0. -1.
        -13    1    4    4    0    0  0.15481943010E+00 -0.14186380143E+01 -0.25774691988E+01  0.29480526416E+01  0.10566000000E+00 0.  1.
        -14    1    4    4    0    0 -0.12046513315E+01 -0.13560021458E+02 -0.29071262964E+02  0.32100836393E+02  0.00000000000E+00 0.  1.
<mgrwt>
<rscale>  0 0.78821902E+02</rscale>
<asrwt>0</asrwt>
<pdfrwt beam="1">  1        2 0.14002986E-01 0.78821902E+02</pdfrwt>
<pdfrwt beam="2">  1       -1 0.26253455E-02 0.78821902E+02</pdfrwt>
<totfact> 0.17974516E+05</totfact>
</mgrwt>
</event>
<event>
 8    1  0.1226832E-024  0.7928984E+02  0.7818608E-02  0.1331079E+00
          2   -1    0    0  501    0  0.00000000000E+00  0.00000000000E+00  0.18849729621E+02  0.18849729793E+02  0.25500000000E-02 0. -1.
         -1   -1    0    0    0  501 -0.00000000000E+00 -0.00000000000E+00 -0.83381560101E+02  0.83381560253E+02  0.50400000000E-02 0.  1.
         24    2    1    2    0    0  0.35527136788E-14 -0.35527136788E-14 -0.64531830480E+02  0.10223129005E+03  0.79289844996E+02 0.  0.
         66    2    3    3    0    0 -0.16442407890E+02 -0.22200531785E+02  0.43293740952E+01  0.28034975796E+02  0.19999997678E+01 0.  0.
        -13    1    3    3    0    0  0.16442407890E+02  0.22200531785E+02 -0.68861204575E+02  0.74196314251E+02  0.10566000000E+00 0.  1.
         13    1    4    4    0    0 -0.13640317514E+02 -0.18619738948E+02  0.30597686123E+01  0.23283605571E+02  0.10566000000E+00 0. -1.
        -13    1    4    4    0    0 -0.14406278490E+01 -0.19427368670E+01  0.93537730373E+00  0.25953284705E+01  0.10566000000E+00 0.  1.
        -14    1    4    4    0    0 -0.13614625266E+01 -0.16380559704E+01  0.33422817912E+00  0.21560417550E+01  0.00000000000E+00 0.  1.
<mgrwt>
<rscale>  0 0.79289845E+02</rscale>
<asrwt>0</asrwt>
<pdfrwt beam="1">  1        2 0.28999585E-02 0.79289845E+02</pdfrwt>
<pdfrwt beam="2">  1       -1 0.12827932E-01 0.79289845E+02</pdfrwt>
<totfact> 0.12586223E+05</totfact>
</mgrwt>
</event>
<event>
 8    1  0.1226832E-024  0.7911418E+02  0.7818608E-02  0.1331584E+00
         -1   -1    0    0    0  501 -0.00000000000E+00  0.00000000000E+00  0.53857883746E+02  0.53857883982E+02  0.50400000000E-02 0.  1.
          2   -1    0    0  501    0  0.00000000000E+00 -0.00000000000E+00 -0.29053560959E+02  0.29053561071E+02  0.25500000000E-02 0. -1.
         24    2    1    2    0    0  0.00000000000E+00 -0.22204460493E-15  0.24804322787E+02  0.82911445053E+02  0.79114178829E+02 0.  0.
         66    2    3    3    0    0  0.31177926705E+02  0.11414011655E+01 -0.13032591056E+02  0.33870552693E+02  0.19999999627E+01 0.  0.
        -13    1    3    3    0    0 -0.31177926705E+02 -0.11414011655E+01  0.37836913843E+02  0.49040892360E+02  0.10566000000E+00 0.  1.
         13    1    4    4    0    0  0.17366922013E+02  0.47173593737E+00 -0.75343180184E+01  0.18936990971E+02  0.10566000000E+00 0. -1.
        -13    1    4    4    0    0  0.76667190919E+01 -0.24031099907E+00 -0.29116058029E+01  0.82051778407E+01  0.10566000000E+00 0.  1.
        -14    1    4    4    0    0  0.61442855998E+01  0.90997622725E+00 -0.25866672347E+01  0.67283838810E+01  0.00000000000E+00 0.  1.
<mgrwt>
<rscale>  0 0.79114179E+02</rscale>
<asrwt>0</asrwt>
<pdfrwt beam="1">  1        2 0.44697787E-02 0.79114179E+02</pdfrwt>
<pdfrwt beam="2">  1       -1 0.82858282E-02 0.79114179E+02</pdfrwt>
<totfact> 0.13794591E+05</totfact>
</mgrwt>
</event>
<event>
 8    1  0.1226832E-024  0.7927319E+02  0.7818608E-02  0.1331127E+00
          2   -1    0    0  501    0  0.00000000000E+00  0.00000000000E+00  0.71446151793E+03  0.71446151793E+03  0.25500000000E-02 0. -1.
         -1   -1    0    0    0  501 -0.00000000000E+00 -0.00000000000E+00 -0.21989393803E+01  0.21989451561E+01  0.50400000000E-02 0.  1.
         24    2    1    2    0    0  0.17763568394E-14 -0.55511151231E-16  0.71226257855E+03  0.71666046309E+03  0.79273189383E+02 0.  0.
         66    2    3    3    0    0  0.12830387438E+02 -0.44158844623E+00  0.69512965661E+03  0.69525107215E+03  0.19999967067E+01 0.  0.
        -13    1    3    3    0    0 -0.12830387438E+02  0.44158844623E+00  0.17132921939E+02  0.21409390938E+02  0.10566000000E+00 0.  1.
         13    1    4    4    0    0  0.34542190045E+01 -0.98694763787E+00  0.19029476358E+03  0.19032869963E+03  0.10566000000E+00 0. -1.
        -13    1    4    4    0    0  0.75364763742E+01  0.33590904014E+00  0.40971550538E+03  0.40978496535E+03  0.10566000000E+00 0.  1.
         14    1    4    4    0    0  0.18396920589E+01  0.20945015150E+00  0.95119387652E+02  0.95137407172E+02  0.00000000000E+00 0. -1.
<mgrwt>
<rscale>  0 0.79273189E+02</rscale>
<asrwt>0</asrwt>
<pdfrwt beam="1">  1        2 0.10991729E+00 0.79273189E+02</pdfrwt>
<pdfrwt beam="2">  1       -1 0.33829840E-03 0.79273189E+02</pdfrwt>
<totfact> 0.34412341E+05</totfact>
</mgrwt>
</event>
<event>
 8    1  0.1226832E-024  0.8081244E+02  0.7818608E-02  0.1326762E+00
         -1   -1    0    0    0  501 -0.00000000000E+00  0.00000000000E+00  0.74761024364E+01  0.74761041352E+01  0.50400000000E-02 0.  1.
          2   -1    0    0  501    0  0.00000000000E+00 -0.00000000000E+00 -0.21838417249E+03  0.21838417251E+03  0.25500000000E-02 0. -1.
         24    2    1    2    0    0  0.00000000000E+00  0.00000000000E+00 -0.21090807006E+03  0.22586027664E+03  0.80812440567E+02 0.  0.
         66    2    3    3    0    0 -0.38505438035E+02 -0.50806283162E+01 -0.74625820932E+02  0.84151617300E+02  0.20000005069E+01 0.  0.
        -13    1    3    3    0    0  0.38505438035E+02  0.50806283162E+01 -0.13628224913E+03  0.14170865934E+03  0.10566000000E+00 0.  1.
         13    1    4    4    0    0 -0.28695521379E+02 -0.42038265842E+01 -0.54215254629E+02  0.61485039674E+02  0.10566000000E+00 0. -1.
        -13    1    4    4    0    0 -0.92920975580E+01 -0.79173124963E+00 -0.19118128128E+02  0.21271669012E+02  0.10566000000E+00 0.  1.
         14    1    4    4    0    0 -0.51781909809E+00 -0.85070482294E-01 -0.12924381753E+01  0.13949086143E+01  0.00000000000E+00 0. -1.
<mgrwt>
<rscale>  0 0.80812441E+02</rscale>
<asrwt>0</asrwt>
<pdfrwt beam="1">  1        2 0.33597560E-01 0.80812441E+02</pdfrwt>
<pdfrwt beam="2">  1       -1 0.11501699E-02 0.80812441E+02</pdfrwt>
<totfact> 0.22150089E+05</totfact>
</mgrwt>
</event>
<event>
 8    1  0.1226832E-024  0.8497002E+02  0.7818608E-02  0.1315511E+00
         -1   -1    0    0    0  501 -0.00000000000E+00  0.00000000000E+00  0.77481174899E+01  0.77481191291E+01  0.50400000000E-02 0.  1.
          2   -1    0    0  501    0  0.00000000000E+00 -0.00000000000E+00 -0.23295670051E+03  0.23295670052E+03  0.25500000000E-02 0. -1.
         24    2    1    2    0    0  0.00000000000E+00  0.00000000000E+00 -0.22520858302E+03  0.24070481965E+03  0.84970020232E+02 0.  0.
         66    2    3    3    0    0  0.20107331203E+02 -0.60043602719E+01 -0.21723611061E+03  0.21825646580E+03  0.19999996408E+01 0.  0.
        -13    1    3    3    0    0 -0.20107331203E+02  0.60043602719E+01 -0.79724724058E+01  0.22448353852E+02  0.10566000000E+00 0.  1.
         13    1    4    4    0    0  0.12196666718E+02 -0.34015610426E+01 -0.13547036090E+03  0.13606086558E+03  0.10566000000E+00 0. -1.
        -13    1    4    4    0    0  0.44128582796E+00  0.19710245554E-02 -0.30855070093E+01  0.31186943754E+01  0.10566000000E+00 0. -1.
         14    1    4    4    0    0  0.74693786576E+01 -0.26047702539E+01 -0.78680242708E+02  0.79076905846E+02  0.00000000000E+00 0. -1.
<mgrwt>
<rscale>  0 0.84970020E+02</rscale>
<asrwt>0</asrwt>
<pdfrwt beam="1">  1        2 0.35839487E-01 0.84970020E+02</pdfrwt>
<pdfrwt beam="2">  1       -1 0.11920184E-02 0.84970020E+02</pdfrwt>
<totfact> 0.19850567E+05</totfact>
</mgrwt>
</event>
<event>
 8    1  0.1226832E-024  0.7984013E+02  0.7818608E-02  0.1329506E+00
         -1   -1    0    0    0  501 -0.00000000000E+00  0.00000000000E+00  0.90331561123E+01  0.90331575184E+01  0.50400000000E-02 0.  1.
          2   -1    0    0  501    0  0.00000000000E+00 -0.00000000000E+00 -0.17641799752E+03  0.17641799754E+03  0.25500000000E-02 0. -1.
         24    2    1    2    0    0  0.00000000000E+00  0.35527136788E-14 -0.16738484141E+03  0.18545115506E+03  0.79840126371E+02 0.  0.
         66    2    3    3    0    0  0.23851343533E+01  0.29915080636E+02 -0.14480370925E+03  0.14789427008E+03  0.19999991065E+01 0.  0.
        -13    1    3    3    0    0 -0.23851343533E+01 -0.29915080636E+02 -0.22581132164E+02  0.37556884977E+02  0.10566000000E+00 0.  1.
         13    1    4    4    0    0  0.10232288232E+01  0.91774001450E+01 -0.46285564843E+02  0.47197842615E+02  0.10566000000E+00 0. -1.
        -13    1    4    4    0    0  0.98575295613E+00  0.55082088481E+01 -0.26151746525E+02  0.26743916766E+02  0.10566000000E+00 0.  1.
         14    1    4    4    0    0  0.37615257397E+00  0.15229471642E+02 -0.72366397880E+02  0.73952510704E+02  0.00000000000E+00 0. -1.
<mgrwt>
<rscale>  0 0.79840126E+02</rscale>
<asrwt>0</asrwt>
<pdfrwt beam="1">  1        2 0.27141228E-01 0.79840126E+02</pdfrwt>
<pdfrwt beam="2">  1       -1 0.13897166E-02 0.79840126E+02</pdfrwt>
<totfact> 0.21242191E+05</totfact>
</mgrwt>
</event>
<event>
 8    1  0.1226832E-024  0.8126625E+02  0.7818608E-02  0.1325496E+00
         -1   -1    0    0    0  501 -0.00000000000E+00  0.00000000000E+00  0.22889191921E+02  0.22889192475E+02  0.50400000000E-02 0.  1.
          2   -1    0    0  501    0  0.00000000000E+00 -0.00000000000E+00 -0.72132325637E+02  0.72132325682E+02  0.25500000000E-02 0. -1.
         24    2    1    2    0    0 -0.71054273576E-14  0.22204460493E-15 -0.49243133717E+02  0.95021518158E+02  0.81266245728E+02 0.  0.
         66    2    3    3    0    0 -0.40558065331E+02 -0.18871330858E+01 -0.23787003950E+02  0.47099251503E+02  0.20000001256E+01 0.  0.
        -13    1    3    3    0    0  0.40558065331E+02  0.18871330858E+01 -0.25456129766E+02  0.47922266655E+02  0.10566000000E+00 0.  1.
         13    1    4    4    0    0 -0.89142829115E+01 -0.78118056980E+00 -0.47718694940E+01  0.10141823574E+02  0.10566000000E+00 0.  1.
        -13    1    4    4    0    0 -0.81260680550E+01 -0.68289200739E+00 -0.44295132672E+01  0.92806829139E+01  0.10566000000E+00 0. -1.
         14    1    4    4    0    0 -0.23517714364E+02 -0.42306050859E+00 -0.14585621189E+02  0.27676745014E+02  0.00000000000E+00 0. -1.
<mgrwt>
<rscale>  0 0.81266246E+02</rscale>
<asrwt>0</asrwt>
<pdfrwt beam="1">  1        2 0.11097281E-01 0.81266246E+02</pdfrwt>
<pdfrwt beam="2">  1       -1 0.35214142E-02 0.81266246E+02</pdfrwt>
<totfact> 0.15588926E+05</totfact>
</mgrwt>
</event>
<event>
 8    1  0.1226832E-024  0.8234918E+02  0.7818608E-02  0.1322514E+00
          2   -1    0    0  501    0  0.00000000000E+00  0.00000000000E+00  0.62535247858E+02  0.62535247910E+02  0.25500000000E-02 0. -1.
         -1   -1    0    0    0  501 -0.00000000000E+00 -0.00000000000E+00 -0.27110262797E+02  0.27110263265E+02  0.50400000000E-02 0.  1.
         24    2    1    2    0    0  0.00000000000E+00  0.35527136788E-14  0.35424985061E+02  0.89645511175E+02  0.82349184011E+02 0.  0.
         66    2    3    3    0    0  0.10554709464E+01  0.26467852269E+02  0.52004046829E+02  0.58395908365E+02  0.20000011212E+01 0.  0.
        -13    1    3    3    0    0 -0.10554709464E+01 -0.26467852269E+02 -0.16579061768E+02  0.31249602810E+02  0.10566000000E+00 0.  1.
         13    1    4    4    0    0  0.17108216009E-01  0.19628832468E+01  0.38789602150E+01  0.43486434341E+01  0.10566000000E+00 0. -1.
        -13    1    4    4    0    0  0.13270131285E+01  0.22926023277E+02  0.45579430421E+02  0.51037820768E+02  0.10566000000E+00 0.  1.
        -14    1    4    4    0    0 -0.28865039819E+00  0.15789457449E+01  0.25456561931E+01  0.30094441631E+01  0.00000000000E+00 0.  1.
<mgrwt>
<rscale>  0 0.82349184E+02</rscale>
<asrwt>0</asrwt>
<pdfrwt beam="1">  1        2 0.96208073E-02 0.82349184E+02</pdfrwt>
<pdfrwt beam="2">  1       -1 0.41708097E-02 0.82349184E+02</pdfrwt>
<totfact> 0.14526082E+05</totfact>
</mgrwt>
</event>
<event>
 8    1  0.1391062E-024  0.8124819E+02  0.7818608E-02  0.1325546E+00
         -1   -1    0    0    0  501 -0.00000000000E+00  0.00000000000E+00  0.60487943318E+02  0.60487943528E+02  0.50400000000E-02 0.  1.
          2   -1    0    0  501    0  0.00000000000E+00 -0.00000000000E+00 -0.27283405338E+02  0.27283405457E+02  0.25500000000E-02 0. -1.
         24    2    1    2    0    0 -0.71054273576E-14  0.00000000000E+00  0.33204537980E+02  0.87771348985E+02  0.81248189889E+02 0.  0.
         66    2    3    3    0    0  0.38006065809E+02  0.49810260959E+01  0.21574152825E+01  0.38443804438E+02  0.19999999371E+01 0.  0.
        -13    1    3    3    0    0 -0.38006065809E+02 -0.49810260959E+01  0.31047122698E+02  0.49327544547E+02  0.10566000000E+00 0.  1.
         13    1    4    4    0    0  0.23070706438E+02  0.30898212727E+01  0.14205999494E+01  0.23320243551E+02  0.10566000000E+00 0. -1.
        -13    1    4    4    0    0  0.13004808501E+02  0.18687118778E+01  0.29077911249E+00  0.13142025900E+02  0.10566000000E+00 0.  1.
        -14    1    4    4    0    0  0.19305508702E+01  0.22492945432E-01  0.44603622057E+00  0.19815349871E+01  0.00000000000E+00 0.  1.
<mgrwt>
<rscale>  0 0.81248190E+02</rscale>
<asrwt>0</asrwt>
<pdfrwt beam="1">  1        2 0.41974470E-02 0.81248190E+02</pdfrwt>
<pdfrwt beam="2">  1       -1 0.93058374E-02 0.81248190E+02</pdfrwt>
<totfact> 0.12641519E+05</totfact>
</mgrwt>
</event>
<event>
 8    1  0.1226832E-024  0.7875971E+02  0.7818608E-02  0.1332608E+00
         -1   -1    0    0    0  501 -0.00000000000E+00  0.00000000000E+00  0.11395145780E+01  0.11395257238E+01  0.50400000000E-02 0.  1.
          2   -1    0    0  501    0  0.00000000000E+00 -0.00000000000E+00 -0.13609000415E+04  0.13609000415E+04  0.25500000000E-02 0. -1.
         24    2    1    2    0    0  0.44408920985E-15  0.35527136788E-14 -0.13597605270E+04  0.13620395673E+04  0.78759711240E+02 0.  0.
         66    2    3    3    0    0 -0.37415647145E+01 -0.18645136819E+02 -0.12761638538E+04  0.12763071034E+04  0.20000003993E+01 0.  0.
        -13    1    3    3    0    0  0.37415647145E+01  0.18645136819E+02 -0.83596673203E+02  0.85732463911E+02  0.10566000000E+00 0.  1.
         13    1    4    4    0    0 -0.18316134373E+01 -0.73639822497E+01 -0.52399714319E+03  0.52405209691E+03  0.10566000000E+00 0. -1.
        -13    1    4    4    0    0 -0.90651407626E+00 -0.69399782672E+01 -0.41822297101E+03  0.41828154359E+03  0.10566000000E+00 0.  1.
        -14    1    4    4    0    0 -0.10034372010E+01 -0.43411763023E+01 -0.33394373957E+03  0.33397346286E+03  0.00000000000E+00 0.  1.
<mgrwt>
<rscale>  0 0.78759711E+02</rscale>
<asrwt>0</asrwt>
<pdfrwt beam="1">  1        2 0.20936794E+00 0.78759711E+02</pdfrwt>
<pdfrwt beam="2">  1       -1 0.17531188E-03 0.78759711E+02</pdfrwt>
<totfact> 0.35688165E+05</totfact>
</mgrwt>
</event>
<event>
 8    1  0.1226832E-024  0.8075403E+02  0.7818608E-02  0.1326925E+00
          2   -1    0    0  501    0  0.00000000000E+00  0.00000000000E+00  0.47424552118E+03  0.47424552118E+03  0.25500000000E-02 0. -1.
         -1   -1    0    0    0  501 -0.00000000000E+00 -0.00000000000E+00 -0.34376763981E+01  0.34376800927E+01  0.50400000000E-02 0.  1.
         24    2    1    2    0    0  0.00000000000E+00 -0.35527136788E-14  0.47080784478E+03  0.47768320128E+03  0.80754034429E+02 0.  0.
         66    2    3    3    0    0 -0.18100919011E+02 -0.27848709397E+02  0.37109764841E+03  0.37258644439E+03  0.20000008711E+01 0.  0.
        -13    1    3    3    0    0  0.18100919011E+02  0.27848709397E+02  0.99710196368E+02  0.10509675689E+03  0.10566000000E+00 0.  1.
         13    1    4    4    0    0 -0.10118948311E+02 -0.14442705621E+02  0.20224070103E+03  0.20300812097E+03  0.10566000000E+00 0. -1.
        -13    1    4    4    0    0 -0.11345321425E+01 -0.16755381482E+01  0.19471207584E+02  0.19576355128E+02  0.10566000000E+00 0.  1.
         14    1    4    4    0    0 -0.68474385571E+01 -0.11730465628E+02  0.14938573979E+03  0.15000196829E+03  0.00000000000E+00 0. -1.
<mgrwt>
<rscale>  0 0.80754034E+02</rscale>
<asrwt>0</asrwt>
<pdfrwt beam="1">  1        2 0.72960837E-01 0.80754034E+02</pdfrwt>
<pdfrwt beam="2">  1       -1 0.52887367E-03 0.80754034E+02</pdfrwt>
<totfact> 0.29211449E+05</totfact>
</mgrwt>
</event>
<event>
 8    1  0.1226832E-024  0.7969445E+02  0.7818608E-02  0.1329921E+00
         -1   -1    0    0    0  501 -0.00000000000E+00  0.00000000000E+00  0.28664654830E+01  0.28664699138E+01  0.50400000000E-02 0.  1.
          2   -1    0    0  501    0  0.00000000000E+00 -0.00000000000E+00 -0.55392257913E+03  0.55392257914E+03  0.25500000000E-02 0. -1.
         24    2    1    2    0    0  0.00000000000E+00  0.00000000000E+00 -0.55105611365E+03  0.55678904905E+03  0.79694446193E+02 0.  0.
         66    2    3    3    0    0 -0.16495776782E+02 -0.22152616445E+02 -0.47612458377E+03  0.47692920682E+03  0.19999954650E+01 0.  0.
        -13    1    3    3    0    0  0.16495776782E+02  0.22152616445E+02 -0.74931529873E+02  0.79859842225E+02  0.10566000000E+00 0.  1.
         13    1    4    4    0    0 -0.85219061427E+01 -0.11232553005E+02 -0.23425711307E+03  0.23468105872E+03  0.10566000000E+00 0. -1.
        -13    1    4    4    0    0 -0.18116665465E+01 -0.18097006900E+01 -0.50145422952E+02  0.50210872919E+02  0.10566000000E+00 0.  1.
        -14    1    4    4    0    0 -0.61622040928E+01 -0.91103627501E+01 -0.19172204775E+03  0.19203727519E+03  0.00000000000E+00 0.  1.
<mgrwt>
<rscale>  0 0.79694446E+02</rscale>
<asrwt>0</asrwt>
<pdfrwt beam="1">  1        2 0.85218773E-01 0.79694446E+02</pdfrwt>
<pdfrwt beam="2">  1       -1 0.44099547E-03 0.79694446E+02</pdfrwt>
<totfact> 0.31744559E+05</totfact>
</mgrwt>
</event>
<event>
 8    1  0.1226832E-024  0.8329635E+02  0.7818608E-02  0.1319949E+00
          2   -1    0    0  501    0  0.00000000000E+00  0.00000000000E+00  0.85924155704E+02  0.85924155742E+02  0.25500000000E-02 0. -1.
         -1   -1    0    0    0  501 -0.00000000000E+00 -0.00000000000E+00 -0.20187224787E+02  0.20187225417E+02  0.50400000000E-02 0.  1.
         24    2    1    2    0    0  0.22204460493E-15 -0.71054273576E-14  0.65736930917E+02  0.10611138116E+03  0.83296345208E+02 0.  0.
         66    2    3    3    0    0 -0.12243919960E+01  0.41503483603E+02  0.29167440065E+02  0.50781668416E+02  0.20000000567E+01 0.  0.
        -13    1    3    3    0    0  0.12243919960E+01 -0.41503483603E+02  0.36569490852E+02  0.55329712743E+02  0.10566000000E+00 0.  1.
         13    1    4    4    0    0  0.69623283626E-01  0.10140330076E+02  0.73322249756E+01  0.12514145140E+02  0.10566000000E+00 0. -1.
        -13    1    4    4    0    0 -0.25924376885E+00  0.19603691629E+02  0.13036023517E+02  0.23544022723E+02  0.10566000000E+00 0.  1.
         14    1    4    4    0    0 -0.10347715107E+01  0.11759461898E+02  0.87991915715E+01  0.14723500553E+02  0.00000000000E+00 0. -1.
<mgrwt>
<rscale>  0 0.83296345E+02</rscale>
<asrwt>0</asrwt>
<pdfrwt beam="1">  1        2 0.13219101E-01 0.83296345E+02</pdfrwt>
<pdfrwt beam="2">  1       -1 0.31057270E-02 0.83296345E+02</pdfrwt>
<totfact> 0.15254298E+05</totfact>
</mgrwt>
</event>
<event>
 8    1  0.1226832E-024  0.7857891E+02  0.7818608E-02  0.1333133E+00
          2   -1    0    0  501    0  0.00000000000E+00  0.00000000000E+00  0.15181679830E+03  0.15181679833E+03  0.25500000000E-02 0. -1.
         -1   -1    0    0    0  501 -0.00000000000E+00 -0.00000000000E+00 -0.10167921521E+02  0.10167922770E+02  0.50400000000E-02 0.  1.
         24    2    1    2    0    0  0.00000000000E+00  0.00000000000E+00  0.14164887678E+03  0.16198472110E+03  0.78578913040E+02 0.  0.
         66    2    3    3    0    0  0.19888930288E+02  0.32190835558E+02  0.92474600282E+02  0.99936835754E+02  0.20000003081E+01 0.  0.
        -13    1    3    3    0    0 -0.19888930288E+02 -0.32190835558E+02  0.49174276501E+02  0.62047885342E+02  0.10566000000E+00 0.  1.
         13    1    4    4    0    0  0.11619344588E+02  0.18855303077E+02  0.55810071148E+02  0.60044207284E+02  0.10566000000E+00 0. -1.
        -13    1    4    4    0    0  0.36627937680E+00  0.95668185215E+00  0.26332830432E+01  0.28274978991E+01  0.10566000000E+00 0.  1.
        -14    1    4    4    0    0  0.79033063224E+01  0.12378850630E+02  0.34031246090E+02  0.37065130570E+02  0.00000000000E+00 0.  1.
<mgrwt>
<rscale>  0 0.78578913E+02</rscale>
<asrwt>0</asrwt>
<pdfrwt beam="1">  1        2 0.23356428E-01 0.78578913E+02</pdfrwt>
<pdfrwt beam="2">  1       -1 0.15642959E-02 0.78578913E+02</pdfrwt>
<totfact> 0.21086200E+05</totfact>
</mgrwt>
</event>
<event>
 8    1  0.1226832E-024  0.8051619E+02  0.7818608E-02  0.1327593E+00
          2   -1    0    0  501    0  0.00000000000E+00  0.00000000000E+00  0.63178936980E+03  0.63178936980E+03  0.25500000000E-02 0. -1.
         -1   -1    0    0    0  501 -0.00000000000E+00 -0.00000000000E+00 -0.25652737076E+01  0.25652786586E+01  0.50400000000E-02 0.  1.
         24    2    1    2    0    0  0.35527136788E-14  0.00000000000E+00  0.62922409609E+03  0.63435464846E+03  0.80516190448E+02 0.  0.
         66    2    3    3    0    0 -0.27569396531E+02 -0.21925315458E+02  0.46796648708E+03  0.46929460269E+03  0.19999997263E+01 0.  0.
        -13    1    3    3    0    0  0.27569396531E+02  0.21925315458E+02  0.16125760900E+03  0.16506004577E+03  0.10566000000E+00 0.  1.
         13    1    4    4    0    0 -0.18780763052E+02 -0.14181081204E+02  0.31906481883E+03  0.31993153940E+03  0.10566000000E+00 0. -1.
        -13    1    4    4    0    0 -0.76262998799E+01 -0.64701249185E+01  0.12545867332E+03  0.12585671552E+03  0.10566000000E+00 0.  1.
        -14    1    4    4    0    0 -0.11623335996E+01 -0.12741093353E+01  0.23442994940E+02  0.23506347776E+02  0.00000000000E+00 0.  1.
<mgrwt>
<rscale>  0 0.80516190E+02</rscale>
<asrwt>0</asrwt>
<pdfrwt beam="1">  1        2 0.97198440E-01 0.80516190E+02</pdfrwt>
<pdfrwt beam="2">  1       -1 0.39465757E-03 0.80516190E+02</pdfrwt>
<totfact> 0.32075236E+05</totfact>
</mgrwt>
</event>
<event>
 8    1  0.1267059E-024  0.8074202E+02  0.7818608E-02  0.1326959E+00
          2   -1    0    0  501    0  0.00000000000E+00  0.00000000000E+00  0.28120109895E+03  0.28120109896E+03  0.25500000000E-02 0. -1.
         -1   -1    0    0    0  501 -0.00000000000E+00 -0.00000000000E+00 -0.57959160932E+01  0.57959182845E+01  0.50400000000E-02 0.  1.
         24    2    1    2    0    0 -0.35527136788E-14  0.35527136788E-14  0.27540518286E+03  0.28699701725E+03  0.80742016099E+02 0.  0.
         66    2    3    3    0    0 -0.27004629694E+02  0.29324324484E+02  0.11568964129E+03  0.12238161270E+03  0.19999985638E+01 0.  0.
        -13    1    3    3    0    0  0.27004629694E+02 -0.29324324484E+02  0.15971554157E+03  0.16461540455E+03  0.10566000000E+00 0.  1.
         13    1    4    4    0    0 -0.11502950470E+02  0.13063085869E+02  0.50394486839E+02  0.53315828323E+02  0.10566000000E+00 0. -1.
        -13    1    4    4    0    0 -0.61661548789E+01  0.74351494854E+01  0.27676493419E+02  0.29313859621E+02  0.10566000000E+00 0.  1.
        -14    1    4    4    0    0 -0.93355243454E+01  0.88260891294E+01  0.37618661030E+02  0.39751924756E+02  0.00000000000E+00 0.  1.
<mgrwt>
<rscale>  0 0.80742016E+02</rscale>
<asrwt>0</asrwt>
<pdfrwt beam="1">  1        2 0.43261702E-01 0.80742016E+02</pdfrwt>
<pdfrwt beam="2">  1       -1 0.89167969E-03 0.80742016E+02</pdfrwt>
<totfact> 0.24307392E+05</totfact>
</mgrwt>
</event>
<event>
 8    1  0.1226832E-024  0.7638302E+02  0.7818608E-02  0.1339641E+00
          2   -1    0    0  501    0  0.00000000000E+00  0.00000000000E+00  0.13639050500E+04  0.13639050501E+04  0.25500000000E-02 0. -1.
         -1   -1    0    0    0  501 -0.00000000000E+00 -0.00000000000E+00 -0.10694171538E+01  0.10694290301E+01  0.50400000000E-02 0.  1.
         24    2    1    2    0    0 -0.17763568394E-14  0.00000000000E+00  0.13628356329E+04  0.13649744791E+04  0.76383023342E+02 0.  0.
         66    2    3    3    0    0 -0.15480774938E+02  0.28777848421E+01  0.13031503903E+04  0.13032470510E+04  0.19999954365E+01 0.  0.
        -13    1    3    3    0    0  0.15480774938E+02 -0.28777848421E+01  0.59685242555E+02  0.61727428111E+02  0.10566000000E+00 0.  1.
         13    1    4    4    0    0 -0.89948763275E+00  0.46667709415E+00  0.11171741519E+03  0.11172206087E+03  0.10566000000E+00 0. -1.
        -13    1    4    4    0    0 -0.12977795890E+02  0.23891071297E+01  0.10738420605E+04  0.10739231412E+04  0.10566000000E+00 0. -1.
         14    1    4    4    0    0 -0.16034914153E+01  0.22000618174E-01  0.11759091462E+03  0.11760184892E+03  0.00000000000E+00 0. -1.
<mgrwt>
<rscale>  0 0.76383023E+02</rscale>
<asrwt>0</asrwt>
<pdfrwt beam="1">  1        2 0.20983317E+00 0.76383023E+02</pdfrwt>
<pdfrwt beam="2">  1       -1 0.16452536E-03 0.76383023E+02</pdfrwt>
<totfact> 0.38613523E+05</totfact>
</mgrwt>
</event>
<event>
 8    1  0.1226832E-024  0.8012623E+02  0.7818608E-02  0.1328694E+00
          2   -1    0    0  501    0  0.00000000000E+00  0.00000000000E+00  0.47399859344E+02  0.47399859413E+02  0.25500000000E-02 0. -1.
         -1   -1    0    0    0  501 -0.00000000000E+00 -0.00000000000E+00 -0.33861984431E+02  0.33861984807E+02  0.50400000000E-02 0.  1.
         24    2    1    2    0    0 -0.35527136788E-14 -0.35527136788E-14  0.13537874913E+02  0.81261844219E+02  0.80126233337E+02 0.  0.
         66    2    3    3    0    0  0.21770845440E+02  0.29803676635E+02  0.22511441299E+02  0.43278098882E+02  0.20000003300E+01 0.  0.
        -13    1    3    3    0    0 -0.21770845440E+02 -0.29803676635E+02 -0.89735663861E+01  0.37983745338E+02  0.10566000000E+00 0.  1.
         13    1    4    4    0    0  0.51979679753E+01  0.62938013727E+01  0.43627049739E+01  0.92560880245E+01  0.10566000000E+00 0. -1.
        -13    1    4    4    0    0  0.11349048207E+01  0.19703355252E+01  0.14015838200E+01  0.26731689573E+01  0.10566000000E+00 0.  1.
         14    1    4    4    0    0  0.15437972644E+02  0.21539539737E+02  0.16747152505E+02  0.31348841900E+02  0.00000000000E+00 0. -1.
<mgrwt>
<rscale>  0 0.80126233E+02</rscale>
<asrwt>0</asrwt>
<pdfrwt beam="1">  1        2 0.72922861E-02 0.80126233E+02</pdfrwt>
<pdfrwt beam="2">  1       -1 0.52095361E-02 0.80126233E+02</pdfrwt>
<totfact> 0.14707841E+05</totfact>
</mgrwt>
</event>
<event>
 8    1  0.1226832E-024  0.7990001E+02  0.7818608E-02  0.1329335E+00
         -1   -1    0    0    0  501 -0.00000000000E+00  0.00000000000E+00  0.41744040372E+01  0.41744070797E+01  0.50400000000E-02 0.  1.
          2   -1    0    0  501    0  0.00000000000E+00 -0.00000000000E+00 -0.38233055422E+03  0.38233055423E+03  0.25500000000E-02 0. -1.
         24    2    1    2    0    0  0.00000000000E+00  0.00000000000E+00 -0.37815615018E+03  0.38650496131E+03  0.79900007477E+02 0.  0.
         66    2    3    3    0    0  0.20800876028E+02  0.18396743398E+02 -0.32796022091E+03  0.32913982302E+03  0.19999968927E+01 0.  0.
        -13    1    3    3    0    0 -0.20800876028E+02 -0.18396743398E+02 -0.50195929276E+02  0.57365138291E+02  0.10566000000E+00 0.  1.
         13    1    4    4    0    0  0.15409808977E+02  0.13871881004E+02 -0.25241585929E+03  0.25326600341E+03  0.10566000000E+00 0. -1.
        -13    1    4    4    0    0  0.10039716589E+01  0.98754545465E+00 -0.13238352166E+02  0.13313464509E+02  0.10566000000E+00 0.  1.
         14    1    4    4    0    0  0.43870953922E+01  0.35373169394E+01 -0.62306009449E+02  0.62560355103E+02  0.00000000000E+00 0. -1.
<mgrwt>
<rscale>  0 0.79900007E+02</rscale>
<asrwt>0</asrwt>
<pdfrwt beam="1">  1        2 0.58820058E-01 0.79900007E+02</pdfrwt>
<pdfrwt beam="2">  1       -1 0.64221654E-03 0.79900007E+02</pdfrwt>
<totfact> 0.27899430E+05</totfact>
</mgrwt>
</event>
<event>
 8    1  0.1226832E-024  0.7816060E+02  0.7818608E-02  0.1334354E+00
          2   -1    0    0  501    0  0.00000000000E+00  0.00000000000E+00  0.15120705417E+03  0.15120705419E+03  0.25500000000E-02 0. -1.
         -1   -1    0    0    0  501 -0.00000000000E+00 -0.00000000000E+00 -0.10100518853E+02  0.10100520111E+02  0.50400000000E-02 0.  1.
         24    2    1    2    0    0  0.35527136788E-14  0.00000000000E+00  0.14110653531E+03  0.16130757430E+03  0.78160598885E+02 0.  0.
         66    2    3    3    0    0  0.11948881763E+02 -0.36452761126E+02  0.85720825450E+02  0.93934229494E+02  0.19999964267E+01 0.  0.
        -13    1    3    3    0    0 -0.11948881763E+02  0.36452761126E+02  0.55385709862E+02  0.67373344804E+02  0.10566000000E+00 0.  1.
         13    1    4    4    0    0  0.12394099030E+01 -0.26302917119E+01  0.61694376940E+01  0.68211213809E+01  0.10566000000E+00 0. -1.
        -13    1    4    4    0    0  0.22323578621E+00 -0.67465103354E+00  0.12852245386E+01  0.14723974951E+01  0.10566000000E+00 0. -1.
         14    1    4    4    0    0  0.10486236074E+02 -0.33147818380E+02  0.78266163217E+02  0.85640710618E+02  0.00000000000E+00 0. -1.
<mgrwt>
<rscale>  0 0.78160599E+02</rscale>
<asrwt>0</asrwt>
<pdfrwt beam="1">  1        2 0.23262623E-01 0.78160599E+02</pdfrwt>
<pdfrwt beam="2">  1       -1 0.15539261E-02 0.78160599E+02</pdfrwt>
<totfact> 0.21358543E+05</totfact>
</mgrwt>
</event>
<event>
 8    1  0.1226832E-024  0.8028379E+02  0.7818608E-02  0.1328248E+00
          2   -1    0    0  501    0  0.00000000000E+00  0.00000000000E+00  0.36167305607E+03  0.36167305608E+03  0.25500000000E-02 0. -1.
         -1   -1    0    0    0  501 -0.00000000000E+00 -0.00000000000E+00 -0.44553259534E+01  0.44553288041E+01  0.50400000000E-02 0.  1.
         24    2    1    2    0    0  0.00000000000E+00  0.17763568394E-14  0.35721773012E+03  0.36612838488E+03  0.80283793554E+02 0.  0.
         66    2    3    3    0    0 -0.13614221060E+02  0.12685537372E+02  0.34079732520E+03  0.34131083595E+03  0.19999994902E+01 0.  0.
        -13    1    3    3    0    0  0.13614221060E+02 -0.12685537372E+02  0.16420404914E+02  0.24817548933E+02  0.10566000000E+00 0.  1.
         13    1    4    4    0    0 -0.46404526724E+01  0.43420854403E+01  0.10152852940E+03  0.10172728716E+03  0.10566000000E+00 0. -1.
        -13    1    4    4    0    0 -0.27189886179E+01  0.28623454585E+01  0.81845376509E+02  0.81940604956E+02  0.10566000000E+00 0.  1.
         14    1    4    4    0    0 -0.62547797693E+01  0.54811064734E+01  0.15742341930E+03  0.15764294384E+03  0.00000000000E+00 0. -1.
<mgrwt>
<rscale>  0 0.80283794E+02</rscale>
<asrwt>0</asrwt>
<pdfrwt beam="1">  1        2 0.55642031E-01 0.80283794E+02</pdfrwt>
<pdfrwt beam="2">  1       -1 0.68543471E-03 0.80283794E+02</pdfrwt>
<totfact> 0.27014915E+05</totfact>
</mgrwt>
</event>
<event>
 8    1  0.1226832E-024  0.8189235E+02  0.7818608E-02  0.1323765E+00
         -1   -1    0    0    0  501 -0.00000000000E+00  0.00000000000E+00  0.38173083828E+02  0.38173084161E+02  0.50400000000E-02 0.  1.
          2   -1    0    0  501    0  0.00000000000E+00 -0.00000000000E+00 -0.43920717028E+02  0.43920717102E+02  0.25500000000E-02 0. -1.
         24    2    1    2    0    0  0.00000000000E+00  0.00000000000E+00 -0.57476332003E+01  0.82093801263E+02  0.81892349572E+02 0.  0.
         66    2    3    3    0    0  0.27479645030E+00 -0.34718738799E+02 -0.24587936208E+02  0.42591465657E+02  0.20000007446E+01 0.  0.
        -13    1    3    3    0    0 -0.27479645030E+00  0.34718738799E+02  0.18840303008E+02  0.39502335606E+02  0.10566000000E+00 0.  1.
         13    1    4    4    0    0 -0.12811351170E+00 -0.48034604102E+01 -0.41112786205E+01  0.63248257616E+01  0.10566000000E+00 0. -1.
        -13    1    4    4    0    0  0.79753934531E-01 -0.42864793581E+01 -0.33233443669E+01  0.54254997737E+01  0.10566000000E+00 0.  1.
         14    1    4    4    0    0  0.32315602747E+00 -0.25628799031E+02 -0.17153313221E+02  0.30841140122E+02  0.00000000000E+00 0. -1.
<mgrwt>
<rscale>  0 0.81892350E+02</rscale>
<asrwt>0</asrwt>
<pdfrwt beam="1">  1        2 0.67570334E-02 0.81892350E+02</pdfrwt>
<pdfrwt beam="2">  1       -1 0.58727821E-02 0.81892350E+02</pdfrwt>
<totfact> 0.13627052E+05</totfact>
</mgrwt>
</event>
<event>
 8    1  0.1226832E-024  0.8319061E+02  0.7818608E-02  0.1320233E+00
          2   -1    0    0  501    0  0.00000000000E+00  0.00000000000E+00  0.11788033887E+02  0.11788034163E+02  0.25500000000E-02 0. -1.
         -1   -1    0    0    0  501 -0.00000000000E+00 -0.00000000000E+00 -0.14677334886E+03  0.14677334894E+03  0.50400000000E-02 0.  1.
         24    2    1    2    0    0  0.00000000000E+00  0.00000000000E+00 -0.13498531497E+03  0.15856138311E+03  0.83190606172E+02 0.  0.
         66    2    3    3    0    0  0.33589016042E+02 -0.22980320078E+02 -0.51375781488E+02  0.65572768951E+02  0.19999987084E+01 0.  0.
        -13    1    3    3    0    0 -0.33589016042E+02  0.22980320078E+02 -0.83609533482E+02  0.92988614156E+02  0.10566000000E+00 0.  1.
         13    1    4    4    0    0  0.19003459609E+02 -0.13164280236E+02 -0.30041804263E+02  0.37907135458E+02  0.10566000000E+00 0. -1.
        -13    1    4    4    0    0  0.66725541885E+01 -0.51145684644E+01 -0.99955093448E+01  0.13061514502E+02  0.10566000000E+00 0.  1.
        -14    1    4    4    0    0  0.79130022450E+01 -0.47014713775E+01 -0.11338467880E+02  0.14604118991E+02  0.00000000000E+00 0.  1.
<mgrwt>
<rscale>  0 0.83190606E+02</rscale>
<asrwt>0</asrwt>
<pdfrwt beam="1">  1        2 0.18135438E-02 0.83190606E+02</pdfrwt>
<pdfrwt beam="2">  1       -1 0.22580514E-01 0.83190606E+02</pdfrwt>
<totfact> 0.98262890E+04</totfact>
</mgrwt>
</event>
<event>
 8    1  0.1226832E-024  0.8065135E+02  0.7818608E-02  0.1327213E+00
         -1   -1    0    0    0  501 -0.00000000000E+00  0.00000000000E+00  0.50022354013E+02  0.50022354267E+02  0.50400000000E-02 0.  1.
          2   -1    0    0  501    0  0.00000000000E+00 -0.00000000000E+00 -0.32508670477E+02  0.32508670577E+02  0.25500000000E-02 0. -1.
         24    2    1    2    0    0 -0.17763568394E-14  0.00000000000E+00  0.17513683535E+02  0.82531024844E+02  0.80651354303E+02 0.  0.
         66    2    3    3    0    0  0.13272585226E+02 -0.38030244253E+02  0.10094189982E+02  0.41573473097E+02  0.19999993563E+01 0.  0.
        -13    1    3    3    0    0 -0.13272585226E+02  0.38030244253E+02  0.74194935538E+01  0.40957551747E+02  0.10566000000E+00 0.  1.
         13    1    4    4    0    0  0.67951853278E+01 -0.20410611561E+02  0.58813074047E+01  0.22301761114E+02  0.10566000000E+00 0. -1.
        -13    1    4    4    0    0  0.41377916715E+01 -0.11109144961E+02  0.21138085474E+01  0.12042166429E+02  0.10566000000E+00 0.  1.
        -14    1    4    4    0    0  0.23396082263E+01 -0.65104877304E+01  0.20990740295E+01  0.72295455543E+01  0.00000000000E+00 0.  1.
<mgrwt>
<rscale>  0 0.80651354E+02</rscale>
<asrwt>0</asrwt>
<pdfrwt beam="1">  1        2 0.50013339E-02 0.80651354E+02</pdfrwt>
<pdfrwt beam="2">  1       -1 0.76957469E-02 0.80651354E+02</pdfrwt>
<totfact> 0.13364743E+05</totfact>
</mgrwt>
</event>
<event>
 8    1  0.1226832E-024  0.8034377E+02  0.7818608E-02  0.1328079E+00
          2   -1    0    0  501    0  0.00000000000E+00  0.00000000000E+00  0.30354351639E+02  0.30354351746E+02  0.25500000000E-02 0. -1.
         -1   -1    0    0    0  501 -0.00000000000E+00 -0.00000000000E+00 -0.53164709603E+02  0.53164709842E+02  0.50400000000E-02 0.  1.
         24    2    1    2    0    0  0.88817841970E-15  0.00000000000E+00 -0.22810357964E+02  0.83519061588E+02  0.80343769006E+02 0.  0.
         66    2    3    3    0    0 -0.74483236977E+01 -0.20121610712E+02  0.23861393848E+02  0.32151558974E+02  0.19999711277E+01 0.  0.
        -13    1    3    3    0    0  0.74483236977E+01  0.20121610712E+02 -0.46671751812E+02  0.51367502614E+02  0.10566000000E+00 0.  1.
         13    1    4    4    0    0 -0.98091495021E+00 -0.29127386871E+01  0.38791207127E+01  0.49502507349E+01  0.10566000000E+00 0. -1.
        -13    1    4    4    0    0 -0.14203728909E+01 -0.24121279960E+01  0.35163032956E+01  0.44957061203E+01  0.10566000000E+00 0.  1.
         14    1    4    4    0    0 -0.50470358566E+01 -0.14796744029E+02  0.16465969840E+02  0.22705602119E+02  0.00000000000E+00 0. -1.
<mgrwt>
<rscale>  0 0.80343769E+02</rscale>
<asrwt>0</asrwt>
<pdfrwt beam="1">  1        2 0.46699003E-02 0.80343769E+02</pdfrwt>
<pdfrwt beam="2">  1       -1 0.81791862E-02 0.80343769E+02</pdfrwt>
<totfact> 0.13325384E+05</totfact>
</mgrwt>
</event>
<event>
 8    1  0.1226832E-024  0.8396431E+02  0.7818608E-02  0.1318163E+00
          2   -1    0    0  501    0  0.00000000000E+00  0.00000000000E+00  0.21084237116E+03  0.21084237118E+03  0.25500000000E-02 0. -1.
         -1   -1    0    0    0  501 -0.00000000000E+00 -0.00000000000E+00 -0.83593301687E+01  0.83593316881E+01  0.50400000000E-02 0.  1.
         24    2    1    2    0    0  0.00000000000E+00  0.00000000000E+00  0.20248304100E+03  0.21920170287E+03  0.83964305805E+02 0.  0.
         66    2    3    3    0    0 -0.16273397234E+02 -0.32481401650E+02  0.15609959750E+03  0.16028396441E+03  0.19999990292E+01 0.  0.
        -13    1    3    3    0    0  0.16273397234E+02  0.32481401650E+02  0.46383443497E+02  0.58917738461E+02  0.10566000000E+00 0.  1.
         13    1    4    4    0    0 -0.41323339653E+01 -0.91730469478E+01  0.46477016100E+02  0.47553603059E+02  0.10566000000E+00 0. -1.
        -13    1    4    4    0    0 -0.56681168581E+01 -0.10339591815E+02  0.49702324339E+02  0.51081962730E+02  0.10566000000E+00 0.  1.
         14    1    4    4    0    0 -0.64729464108E+01 -0.12968762887E+02  0.59920257059E+02  0.61648398617E+02  0.00000000000E+00 0. -1.
<mgrwt>
<rscale>  0 0.83964306E+02</rscale>
<asrwt>0</asrwt>
<pdfrwt beam="1">  1        2 0.32437283E-01 0.83964306E+02</pdfrwt>
<pdfrwt beam="2">  1       -1 0.12860511E-02 0.83964306E+02</pdfrwt>
<totfact> 0.19772684E+05</totfact>
</mgrwt>
</event>
<event>
 8    1  0.1226832E-024  0.7643105E+02  0.7818608E-02  0.1339496E+00
          2   -1    0    0  501    0  0.00000000000E+00  0.00000000000E+00  0.28594835792E+02  0.28594835905E+02  0.25500000000E-02 0. -1.
         -1   -1    0    0    0  501 -0.00000000000E+00 -0.00000000000E+00 -0.51073081782E+02  0.51073082031E+02  0.50400000000E-02 0.  1.
         24    2    1    2    0    0  0.00000000000E+00  0.00000000000E+00 -0.22478245990E+02  0.79667917936E+02  0.76431051317E+02 0.  0.
         66    2    3    3    0    0  0.26206156274E+02 -0.11641924350E+02  0.15042845438E+02  0.32443554571E+02  0.20000012809E+01 0.  0.
        -13    1    3    3    0    0 -0.26206156274E+02  0.11641924350E+02 -0.37521091428E+02  0.47224363365E+02  0.10566000000E+00 0.  1.
         13    1    4    4    0    0  0.54144466990E+01 -0.23925353617E+01  0.26068455801E+01  0.64689463151E+01  0.10566000000E+00 0. -1.
        -13    1    4    4    0    0  0.22136141975E+00 -0.86676164458E-01  0.28807095115E+00  0.38815273300E+00  0.10566000000E+00 0. -1.
         14    1    4    4    0    0  0.20570348155E+02 -0.91627128238E+01  0.12147928907E+02  0.25586455523E+02  0.00000000000E+00 0. -1.
<mgrwt>
<rscale>  0 0.76431051E+02</rscale>
<asrwt>0</asrwt>
<pdfrwt beam="1">  1        2 0.43992055E-02 0.76431051E+02</pdfrwt>
<pdfrwt beam="2">  1       -1 0.78573972E-02 0.76431051E+02</pdfrwt>
<totfact> 0.15144659E+05</totfact>
</mgrwt>
</event>
<event>
 8    1  0.1226832E-024  0.7976149E+02  0.7818608E-02  0.1329730E+00
         -1   -1    0    0    0  501 -0.00000000000E+00  0.00000000000E+00  0.12630574609E+02  0.12630575615E+02  0.50400000000E-02 0.  1.
          2   -1    0    0  501    0  0.00000000000E+00 -0.00000000000E+00 -0.12592251705E+03  0.12592251707E+03  0.25500000000E-02 0. -1.
         24    2    1    2    0    0  0.00000000000E+00  0.00000000000E+00 -0.11329194244E+03  0.13855309269E+03  0.79761489907E+02 0.  0.
         66    2    3    3    0    0  0.22244542310E+02  0.60059736997E+01 -0.11317246171E+03  0.11551146032E+03  0.19999978401E+01 0.  0.
        -13    1    3    3    0    0 -0.22244542310E+02 -0.60059736997E+01 -0.11948072310E+00  0.23041632371E+02  0.10566000000E+00 0.  1.
         13    1    4    4    0    0  0.66205202263E+01  0.24700528865E+01 -0.35205789622E+02  0.35908094301E+02  0.10566000000E+00 0. -1.
        -13    1    4    4    0    0  0.14984043569E+02  0.35139287230E+01 -0.75653829536E+02  0.77203512512E+02  0.10566000000E+00 0.  1.
        -14    1    4    4    0    0  0.63997851409E+00  0.21992090310E-01 -0.23128425563E+01  0.23998535040E+01  0.00000000000E+00 0.  1.
<mgrwt>
<rscale>  0 0.79761490E+02</rscale>
<asrwt>0</asrwt>
<pdfrwt beam="1">  1        2 0.19372694E-01 0.79761490E+02</pdfrwt>
<pdfrwt beam="2">  1       -1 0.19431655E-02 0.79761490E+02</pdfrwt>
<totfact> 0.19111845E+05</totfact>
</mgrwt>
</event>
<event>
 8    1  0.1226832E-024  0.8334378E+02  0.7818608E-02  0.1319821E+00
         -1   -1    0    0    0  501 -0.00000000000E+00  0.00000000000E+00  0.53327586539E+01  0.53327610356E+01  0.50400000000E-02 0.  1.
          2   -1    0    0  501    0  0.00000000000E+00 -0.00000000000E+00 -0.32563745825E+03  0.32563745826E+03  0.25500000000E-02 0. -1.
         24    2    1    2    0    0  0.35527136788E-14  0.71054273576E-14 -0.32030469959E+03  0.33097021929E+03  0.83343778875E+02 0.  0.
         66    2    3    3    0    0 -0.28453124313E+02 -0.30404835016E+02 -0.15741647493E+03  0.16284342436E+03  0.20000007891E+01 0.  0.
        -13    1    3    3    0    0  0.28453124313E+02  0.30404835016E+02 -0.16288822467E+03  0.16812679493E+03  0.10566000000E+00 0.  1.
         13    1    4    4    0    0 -0.37826346281E+01 -0.36535506212E+01 -0.20885513308E+02  0.21537701526E+02  0.10566000000E+00 0. -1.
        -13    1    4    4    0    0 -0.49846015895E+01 -0.59640146244E+01 -0.31099947696E+02  0.32056725256E+02  0.10566000000E+00 0.  1.
         14    1    4    4    0    0 -0.19685888096E+02 -0.20787269770E+02 -0.10543101393E+03  0.10924899758E+03  0.00000000000E+00 0. -1.
<mgrwt>
<rscale>  0 0.83343779E+02</rscale>
<asrwt>0</asrwt>
<pdfrwt beam="1">  1        2 0.50098055E-01 0.83343779E+02</pdfrwt>
<pdfrwt beam="2">  1       -1 0.82042485E-03 0.83343779E+02</pdfrwt>
<totfact> 0.23585486E+05</totfact>
</mgrwt>
</event>
<event>
 8    1  0.1226832E-024  0.7967097E+02  0.7818608E-02  0.1329988E+00
         -1   -1    0    0    0  501 -0.00000000000E+00  0.00000000000E+00  0.54658487754E+02  0.54658487986E+02  0.50400000000E-02 0.  1.
          2   -1    0    0  501    0  0.00000000000E+00 -0.00000000000E+00 -0.29032375042E+02  0.29032375154E+02  0.25500000000E-02 0. -1.
         24    2    1    2    0    0  0.00000000000E+00  0.00000000000E+00  0.25626112712E+02  0.83690863140E+02  0.79670966609E+02 0.  0.
         66    2    3    3    0    0  0.32005355622E+01  0.95178362892E+01 -0.27645707119E+02  0.29480803302E+02  0.20000014188E+01 0.  0.
        -13    1    3    3    0    0 -0.32005355622E+01 -0.95178362892E+01  0.53271819831E+02  0.54210059838E+02  0.10566000000E+00 0.  1.
         13    1    4    4    0    0  0.13970235838E+00  0.23285610815E+01 -0.76246674435E+01  0.79742354567E+01  0.10566000000E+00 0. -1.
        -13    1    4    4    0    0  0.11362030876E+01  0.29564815328E+01 -0.91341410759E+01  0.96682696352E+01  0.10566000000E+00 0.  1.
        -14    1    4    4    0    0  0.19246301163E+01  0.42327936749E+01 -0.10886898600E+02  0.11838298210E+02  0.00000000000E+00 0.  1.
<mgrwt>
<rscale>  0 0.79670967E+02</rscale>
<asrwt>0</asrwt>
<pdfrwt beam="1">  1        2 0.44665193E-02 0.79670967E+02</pdfrwt>
<pdfrwt beam="2">  1       -1 0.84089981E-02 0.79670967E+02</pdfrwt>
<totfact> 0.13524045E+05</totfact>
</mgrwt>
</event>
<event>
 8    1  0.1372701E-024  0.8538917E+02  0.7818608E-02  0.1314418E+00
          2   -1    0    0  501    0  0.00000000000E+00  0.00000000000E+00  0.11935713417E+02  0.11935713690E+02  0.25500000000E-02 0. -1.
         -1   -1    0    0    0  501 -0.00000000000E+00 -0.00000000000E+00 -0.15272046446E+03  0.15272046454E+03  0.50400000000E-02 0.  1.
         24    2    1    2    0    0 -0.35527136788E-14 -0.17763568394E-14 -0.14078475104E+03  0.16465617823E+03  0.85389173225E+02 0.  0.
         66    2    3    3    0    0  0.20011408646E+02  0.14243734991E+02 -0.31477004838E+01  0.24844485900E+02  0.19999997013E+01 0.  0.
        -13    1    3    3    0    0 -0.20011408646E+02 -0.14243734991E+02 -0.13763705056E+03  0.13981169233E+03  0.10566000000E+00 0.  1.
         13    1    4    4    0    0  0.83526585164E+01  0.59383495613E+01 -0.91773341991E+00  0.10290009644E+02  0.10566000000E+00 0. -1.
        -13    1    4    4    0    0  0.55254321628E+01  0.34648571871E+01 -0.43293000944E+00  0.65371422152E+01  0.10566000000E+00 0.  1.
        -14    1    4    4    0    0  0.61333179665E+01  0.48405282427E+01 -0.17970370544E+01  0.80173340408E+01  0.00000000000E+00 0.  1.
<mgrwt>
<rscale>  0 0.85389173E+02</rscale>
<asrwt>0</asrwt>
<pdfrwt beam="1">  1        2 0.18362637E-02 0.85389173E+02</pdfrwt>
<pdfrwt beam="2">  1       -1 0.23495455E-01 0.85389173E+02</pdfrwt>
<totfact> 0.91048022E+04</totfact>
</mgrwt>
</event>
<event>
 8    1  0.1226832E-024  0.7974627E+02  0.7818608E-02  0.1329773E+00
         -1   -1    0    0    0  501 -0.00000000000E+00  0.00000000000E+00  0.74136073946E+02  0.74136074117E+02  0.50400000000E-02 0.  1.
          2   -1    0    0  501    0  0.00000000000E+00 -0.00000000000E+00 -0.21445252000E+02  0.21445252151E+02  0.25500000000E-02 0. -1.
         24    2    1    2    0    0  0.26645352591E-14  0.71054273576E-14  0.52690821946E+02  0.95581326268E+02  0.79746267711E+02 0.  0.
         66    2    3    3    0    0  0.72929557613E+01  0.33484838992E+02  0.19911775153E+01  0.34385846407E+02  0.19999997977E+01 0.  0.
        -13    1    3    3    0    0 -0.72929557613E+01 -0.33484838992E+02  0.50699644431E+02  0.61195479861E+02  0.10566000000E+00 0.  1.
         13    1    4    4    0    0  0.44431472914E+01  0.19165772405E+02  0.13561547653E+01  0.19721022021E+02  0.10566000000E+00 0. -1.
        -13    1    4    4    0    0  0.16077866242E+01  0.68573092511E+01 -0.25203622032E+00  0.70485710811E+01  0.10566000000E+00 0.  1.
        -14    1    4    4    0    0  0.12420218457E+01  0.74617573351E+01  0.88705897024E+00  0.76162533053E+01  0.00000000000E+00 0.  1.
<mgrwt>
<rscale>  0 0.79746268E+02</rscale>
<asrwt>0</asrwt>
<pdfrwt beam="1">  1        2 0.32992696E-02 0.79746268E+02</pdfrwt>
<pdfrwt beam="2">  1       -1 0.11405550E-01 0.79746268E+02</pdfrwt>
<totfact> 0.12706035E+05</totfact>
</mgrwt>
</event>
<event>
 8    1  0.1226832E-024  0.7946796E+02  0.7818608E-02  0.1330568E+00
          2   -1    0    0  501    0  0.00000000000E+00  0.00000000000E+00  0.44090158670E+03  0.44090158670E+03  0.25500000000E-02 0. -1.
         -1   -1    0    0    0  501 -0.00000000000E+00 -0.00000000000E+00 -0.35808179681E+01  0.35808215150E+01  0.50400000000E-02 0.  1.
         24    2    1    2    0    0  0.00000000000E+00  0.00000000000E+00  0.43732076873E+03  0.44448240822E+03  0.79467958668E+02 0.  0.
         66    2    3    3    0    0 -0.34524077429E+01 -0.22000972611E+02  0.40268068234E+03  0.40330099659E+03  0.20000005865E+01 0.  0.
        -13    1    3    3    0    0  0.34524077429E+01  0.22000972611E+02  0.34640086386E+02  0.41181411631E+02  0.10566000000E+00 0.  1.
         13    1    4    4    0    0 -0.40924372242E+00 -0.42821226680E+01  0.69101739784E+02  0.69235580883E+02  0.10566000000E+00 0. -1.
        -13    1    4    4    0    0 -0.27250313988E+01 -0.12759851908E+02  0.23810980149E+03  0.23846703828E+03  0.10566000000E+00 0.  1.
         14    1    4    4    0    0 -0.31813262169E+00 -0.49589980347E+01  0.95469141068E+02  0.95598377424E+02  0.00000000000E+00 0. -1.
<mgrwt>
<rscale>  0 0.79467959E+02</rscale>
<asrwt>0</asrwt>
<pdfrwt beam="1">  1        2 0.67830966E-01 0.79467959E+02</pdfrwt>
<pdfrwt beam="2">  1       -1 0.55089573E-03 0.79467959E+02</pdfrwt>
<totfact> 0.29729669E+05</totfact>
</mgrwt>
</event>
<event>
 8    1  0.1226832E-024  0.7982083E+02  0.7818608E-02  0.1329561E+00
         -1   -1    0    0    0  501 -0.00000000000E+00  0.00000000000E+00  0.25988308095E+03  0.25988308100E+03  0.50400000000E-02 0.  1.
          2   -1    0    0  501    0  0.00000000000E+00 -0.00000000000E+00 -0.61290682849E+01  0.61290688153E+01  0.25500000000E-02 0. -1.
         24    2    1    2    0    0  0.71054273576E-14 -0.35527136788E-14  0.25375401267E+03  0.26601214982E+03  0.79820830020E+02 0.  0.
         66    2    3    3    0    0 -0.29800947203E+02  0.26456043706E+02  0.13255044753E+03  0.13842557501E+03  0.19999939407E+01 0.  0.
        -13    1    3    3    0    0  0.29800947203E+02 -0.26456043706E+02  0.12120356514E+03  0.12758657480E+03  0.10566000000E+00 0.  1.
         13    1    4    4    0    0 -0.86720967447E+01  0.81035848000E+01  0.39838987523E+02  0.41569573482E+02  0.10566000000E+00 0. -1.
        -13    1    4    4    0    0 -0.14076331987E+02  0.13052263741E+02  0.62251760349E+02  0.65144435999E+02  0.10566000000E+00 0.  1.
         14    1    4    4    0    0 -0.70525184713E+01  0.53001951657E+01  0.30459699655E+02  0.31711565535E+02  0.00000000000E+00 0. -1.
<mgrwt>
<rscale>  0 0.79820830E+02</rscale>
<asrwt>0</asrwt>
<pdfrwt beam="1">  1        2 0.94293344E-03 0.79820830E+02</pdfrwt>
<pdfrwt beam="2">  1       -1 0.39982020E-01 0.79820830E+02</pdfrwt>
<totfact> 0.91856780E+04</totfact>
</mgrwt>
</event>
<event>
 8    1  0.1226832E-024  0.7904953E+02  0.7818608E-02  0.1331771E+00
         -1   -1    0    0    0  501 -0.00000000000E+00  0.00000000000E+00  0.29300678248E+02  0.29300678681E+02  0.50400000000E-02 0.  1.
          2   -1    0    0  501    0  0.00000000000E+00 -0.00000000000E+00 -0.53316410140E+02  0.53316410201E+02  0.25500000000E-02 0. -1.
         24    2    1    2    0    0  0.17763568394E-14  0.00000000000E+00 -0.24015731893E+02  0.82617088883E+02  0.79049528759E+02 0.  0.
         66    2    3    3    0    0 -0.98240310523E+01  0.11287821818E+02 -0.50220391046E+02  0.52440577604E+02  0.19999987757E+01 0.  0.
        -13    1    3    3    0    0  0.98240310523E+01 -0.11287821818E+02  0.26204659154E+02  0.30176511278E+02  0.10566000000E+00 0.  1.
         13    1    4    4    0    0 -0.54342598365E+01  0.54527641087E+01 -0.23151978016E+02  0.24398546401E+02  0.10566000000E+00 0. -1.
        -13    1    4    4    0    0 -0.24126726655E+01  0.28698374492E+01 -0.13132183173E+02  0.13657318744E+02  0.10566000000E+00 0.  1.
        -14    1    4    4    0    0 -0.19770985503E+01  0.29652202604E+01 -0.13936229858E+02  0.14384712459E+02  0.00000000000E+00 0.  1.
<mgrwt>
<rscale>  0 0.79049529E+02</rscale>
<asrwt>0</asrwt>
<pdfrwt beam="1">  1        2 0.82025247E-02 0.79049529E+02</pdfrwt>
<pdfrwt beam="2">  1       -1 0.45077967E-02 0.79049529E+02</pdfrwt>
<totfact> 0.15658192E+05</totfact>
</mgrwt>
</event>
<event>
 8    1  0.1226832E-024  0.8010415E+02  0.7818608E-02  0.1328756E+00
         -1   -1    0    0    0  501 -0.00000000000E+00  0.00000000000E+00  0.33251355183E+02  0.33251355565E+02  0.50400000000E-02 0.  1.
          2   -1    0    0  501    0  0.00000000000E+00 -0.00000000000E+00 -0.48243704661E+02  0.48243704729E+02  0.25500000000E-02 0. -1.
         24    2    1    2    0    0  0.00000000000E+00  0.71054273576E-14 -0.14992349479E+02  0.81495060293E+02  0.80104146643E+02 0.  0.
         66    2    3    3    0    0  0.23428461047E+02 -0.30019451261E+02 -0.20048002241E+02  0.43081117122E+02  0.20000043997E+01 0.  0.
        -13    1    3    3    0    0 -0.23428461047E+02  0.30019451261E+02  0.50556527625E+01  0.38413943171E+02  0.10566000000E+00 0.  1.
         13    1    4    4    0    0  0.14301782895E+02 -0.18885630234E+02 -0.11710087011E+02  0.26426224194E+02  0.10566000000E+00 0. -1.
        -13    1    4    4    0    0  0.49914442504E+01 -0.61742570428E+01 -0.50325788536E+01  0.94007435711E+01  0.10566000000E+00 0.  1.
        -14    1    4    4    0    0  0.41352339020E+01 -0.49595639841E+01 -0.33053363764E+01  0.72541493573E+01  0.00000000000E+00 0.  1.
<mgrwt>
<rscale>  0 0.80104147E+02</rscale>
<asrwt>0</asrwt>
<pdfrwt beam="1">  1        2 0.74221084E-02 0.80104147E+02</pdfrwt>
<pdfrwt beam="2">  1       -1 0.51155932E-02 0.80104147E+02</pdfrwt>
<totfact> 0.14774924E+05</totfact>
</mgrwt>
</event>
<event>
 8    1  0.1226832E-024  0.7543969E+02  0.7818608E-02  0.1342515E+00
          2   -1    0    0  501    0  0.00000000000E+00  0.00000000000E+00  0.46524293747E+02  0.46524293817E+02  0.25500000000E-02 0. -1.
         -1   -1    0    0    0  501 -0.00000000000E+00 -0.00000000000E+00 -0.30581586828E+02  0.30581587243E+02  0.50400000000E-02 0.  1.
         24    2    1    2    0    0 -0.88817841970E-15  0.17763568394E-14  0.15942706919E+02  0.77105881060E+02  0.75439691079E+02 0.  0.
         66    2    3    3    0    0 -0.46433680436E+01  0.12464224400E+02  0.44024350814E+02  0.46033262172E+02  0.20000012164E+01 0.  0.
        -13    1    3    3    0    0  0.46433680436E+01 -0.12464224400E+02 -0.28081643895E+02  0.31072618888E+02  0.10566000000E+00 0.  1.
         13    1    4    4    0    0 -0.20700990464E+01  0.57523541115E+01  0.20664840879E+02  0.21550445482E+02  0.10566000000E+00 0. -1.
        -13    1    4    4    0    0  0.15986949365E+00  0.28159137687E+00  0.94186134520E+00  0.10015581799E+01  0.10566000000E+00 0.  1.
         14    1    4    4    0    0 -0.27331384908E+01  0.64302789114E+01  0.22417648590E+02  0.23481258510E+02  0.00000000000E+00 0. -1.
<mgrwt>
<rscale>  0 0.75439691E+02</rscale>
<asrwt>0</asrwt>
<pdfrwt beam="1">  1        2 0.71575837E-02 0.75439691E+02</pdfrwt>
<pdfrwt beam="2">  1       -1 0.47048596E-02 0.75439691E+02</pdfrwt>
<totfact> 0.17275142E+05</totfact>
</mgrwt>
</event>
<event>
 8    1  0.1226832E-024  0.7961899E+02  0.7818608E-02  0.1330136E+00
          2   -1    0    0  501    0  0.00000000000E+00  0.00000000000E+00  0.57590286225E+03  0.57590286225E+03  0.25500000000E-02 0. -1.
         -1   -1    0    0    0  501 -0.00000000000E+00 -0.00000000000E+00 -0.27518432540E+01  0.27518478694E+01  0.50400000000E-02 0.  1.
         24    2    1    2    0    0  0.35527136788E-14  0.00000000000E+00  0.57315101899E+03  0.57865471012E+03  0.79618986264E+02 0.  0.
         66    2    3    3    0    0  0.28319724298E+02 -0.20875347641E+02  0.42174994570E+03  0.42321956904E+03  0.20000002701E+01 0.  0.
        -13    1    3    3    0    0 -0.28319724298E+02  0.20875347641E+02  0.15140107330E+03  0.15543514108E+03  0.10566000000E+00 0.  1.
         13    1    4    4    0    0  0.34452186648E+01 -0.25391055802E+01  0.51874598893E+02  0.52050953528E+02  0.10566000000E+00 0. -1.
        -13    1    4    4    0    0  0.18324926230E+02 -0.12660914715E+02  0.27179255778E+03  0.27270369875E+03  0.10566000000E+00 0.  1.
        -14    1    4    4    0    0  0.65495794037E+01 -0.56753273455E+01  0.98082789021E+02  0.98464916762E+02  0.00000000000E+00 0.  1.
<mgrwt>
<rscale>  0 0.79618986E+02</rscale>
<asrwt>0</asrwt>
<pdfrwt beam="1">  1        2 0.88600574E-01 0.79618986E+02</pdfrwt>
<pdfrwt beam="2">  1       -1 0.42336022E-03 0.79618986E+02</pdfrwt>
<totfact> 0.32188963E+05</totfact>
</mgrwt>
</event>
<event>
 8    1  0.1226832E-024  0.7917509E+02  0.7818608E-02  0.1331409E+00
         -1   -1    0    0    0  501 -0.00000000000E+00  0.00000000000E+00  0.77748039491E+02  0.77748039655E+02  0.50400000000E-02 0.  1.
          2   -1    0    0  501    0  0.00000000000E+00 -0.00000000000E+00 -0.20157085047E+02  0.20157085209E+02  0.25500000000E-02 0. -1.
         24    2    1    2    0    0  0.88817841970E-15  0.71054273576E-14  0.57590954444E+02  0.97905124863E+02  0.79175093563E+02 0.  0.
         66    2    3    3    0    0  0.50532056712E+01  0.39237576037E+02  0.28546721965E+02  0.48826607515E+02  0.20000014178E+01 0.  0.
        -13    1    3    3    0    0 -0.50532056712E+01 -0.39237576037E+02  0.29044232479E+02  0.49078517349E+02  0.10566000000E+00 0.  1.
         13    1    4    4    0    0  0.35680315684E+00  0.17624953517E+01  0.12147089679E+01  0.21726436132E+01  0.10566000000E+00 0. -1.
        -13    1    4    4    0    0  0.43126962184E+00  0.47537209107E+01  0.27894074175E+01  0.55295401039E+01  0.10566000000E+00 0. -1.
        -14    1    4    4    0    0  0.42651328925E+01  0.32721359774E+02  0.24542605579E+02  0.41124423798E+02  0.00000000000E+00 0.  1.
<mgrwt>
<rscale>  0 0.79175094E+02</rscale>
<asrwt>0</asrwt>
<pdfrwt beam="1">  1        2 0.31010900E-02 0.79175094E+02</pdfrwt>
<pdfrwt beam="2">  1       -1 0.11961237E-01 0.79175094E+02</pdfrwt>
<totfact> 0.12810544E+05</totfact>
</mgrwt>
</event>
<event>
 8    1  0.1226832E-024  0.8031617E+02  0.7818608E-02  0.1328157E+00
         -1   -1    0    0    0  501 -0.00000000000E+00  0.00000000000E+00  0.18877335261E+02  0.18877335934E+02  0.50400000000E-02 0.  1.
          2   -1    0    0  501    0  0.00000000000E+00 -0.00000000000E+00 -0.85428987496E+02  0.85428987534E+02  0.25500000000E-02 0. -1.
         24    2    1    2    0    0  0.00000000000E+00  0.00000000000E+00 -0.66551652234E+02  0.10430632347E+03  0.80316167116E+02 0.  0.
         66    2    3    3    0    0 -0.16353343930E+02 -0.35101236890E+02 -0.46987523045E+02  0.60920899603E+02  0.19999994234E+01 0.  0.
        -13    1    3    3    0    0  0.16353343930E+02  0.35101236890E+02 -0.19564129190E+02  0.43385423864E+02  0.10566000000E+00 0.  1.
         13    1    4    4    0    0 -0.38192042523E+01 -0.98435210646E+01 -0.12261839427E+02  0.16181628418E+02  0.10566000000E+00 0. -1.
        -13    1    4    4    0    0 -0.93211653731E+01 -0.18712010700E+02 -0.26299672506E+02  0.33596240955E+02  0.10566000000E+00 0.  1.
        -14    1    4    4    0    0 -0.32129743051E+01 -0.65457051250E+01 -0.84260111116E+01  0.11143030231E+02  0.00000000000E+00 0.  1.
<mgrwt>
<rscale>  0 0.80316167E+02</rscale>
<asrwt>0</asrwt>
<pdfrwt beam="1">  1        2 0.13142921E-01 0.80316167E+02</pdfrwt>
<pdfrwt beam="2">  1       -1 0.29042055E-02 0.80316167E+02</pdfrwt>
<totfact> 0.16804039E+05</totfact>
</mgrwt>
</event>
<event>
 8    1  0.1226832E-024  0.8171461E+02  0.7818608E-02  0.1324255E+00
         -1   -1    0    0    0  501 -0.00000000000E+00  0.00000000000E+00  0.74942400363E+00  0.74944095086E+00  0.50400000000E-02 0.  1.
          2   -1    0    0  501    0  0.00000000000E+00 -0.00000000000E+00 -0.22274444421E+04  0.22274444421E+04  0.25500000000E-02 0. -1.
         24    2    1    2    0    0  0.17763568394E-14 -0.11102230246E-15 -0.22266950181E+04  0.22281938831E+04  0.81714606140E+02 0.  0.
         66    2    3    3    0    0  0.12659007347E+02  0.97376822846E+00 -0.21722483472E+04  0.21722863717E+04  0.20000003343E+01 0.  0.
        -13    1    3    3    0    0 -0.12659007347E+02 -0.97376822846E+00 -0.54446670887E+02  0.55907511358E+02  0.10566000000E+00 0.  1.
         13    1    4    4    0    0  0.34989059856E+00  0.16861015859E+00 -0.78807221344E+02  0.78808249269E+02  0.10566000000E+00 0. -1.
        -13    1    4    4    0    0  0.58222919897E+01  0.96259735695E+00 -0.10957488717E+04  0.10957647679E+04  0.10566000000E+00 0.  1.
         14    1    4    4    0    0  0.64868247592E+01 -0.15743928709E+00 -0.99769225420E+03  0.99771335451E+03  0.00000000000E+00 0. -1.
<mgrwt>
<rscale>  0 0.81714606E+02</rscale>
<asrwt>0</asrwt>
<pdfrwt beam="1">  1        2 0.34267846E+00 0.81714606E+02</pdfrwt>
<pdfrwt beam="2">  1       -1 0.11529909E-03 0.81714606E+02</pdfrwt>
<totfact> 0.23398644E+05</totfact>
</mgrwt>
</event>
<event>
 8    1  0.1226832E-024  0.7739378E+02  0.7818608E-02  0.1336615E+00
         -1   -1    0    0    0  501 -0.00000000000E+00  0.00000000000E+00  0.28435199212E+03  0.28435199216E+03  0.50400000000E-02 0.  1.
          2   -1    0    0  501    0  0.00000000000E+00 -0.00000000000E+00 -0.52661809214E+01  0.52661815388E+01  0.25500000000E-02 0. -1.
         24    2    1    2    0    0 -0.35527136788E-14 -0.35527136788E-14  0.27908581120E+03  0.28961817370E+03  0.77393775764E+02 0.  0.
         66    2    3    3    0    0  0.29992307351E+02  0.19462224519E+02  0.84494504177E+02  0.91769482487E+02  0.19999991095E+01 0.  0.
        -13    1    3    3    0    0 -0.29992307351E+02 -0.19462224519E+02  0.19459130702E+03  0.19784869122E+03  0.10566000000E+00 0.  1.
         13    1    4    4    0    0  0.51247438788E+01  0.36589325226E+01  0.16097080026E+02  0.17285194139E+02  0.10566000000E+00 0.  1.
        -13    1    4    4    0    0  0.22003824007E+02  0.13620206507E+02  0.60700787976E+02  0.65986931442E+02  0.10566000000E+00 0. -1.
         14    1    4    4    0    0  0.28637394655E+01  0.21830854899E+01  0.76966361747E+01  0.84973569060E+01  0.00000000000E+00 0. -1.
<mgrwt>
<rscale>  0 0.77393776E+02</rscale>
<asrwt>0</asrwt>
<pdfrwt beam="1">  1        2 0.81018171E-03 0.77393776E+02</pdfrwt>
<pdfrwt beam="2">  1       -1 0.43746461E-01 0.77393776E+02</pdfrwt>
<totfact> 0.96102304E+04</totfact>
</mgrwt>
</event>
<event>
 8    1  0.1226832E-024  0.7973006E+02  0.7818608E-02  0.1329819E+00
         -1   -1    0    0    0  501 -0.00000000000E+00  0.00000000000E+00  0.34582709085E+02  0.34582709453E+02  0.50400000000E-02 0.  1.
          2   -1    0    0  501    0  0.00000000000E+00 -0.00000000000E+00 -0.45954201496E+02  0.45954201567E+02  0.25500000000E-02 0. -1.
         24    2    1    2    0    0  0.00000000000E+00 -0.88817841970E-15 -0.11371492411E+02  0.80536911019E+02  0.79730064574E+02 0.  0.
         66    2    3    3    0    0 -0.14001344396E+02 -0.78928635867E+01 -0.42512035492E+02  0.45492945377E+02  0.19999942376E+01 0.  0.
        -13    1    3    3    0    0  0.14001344396E+02  0.78928635867E+01  0.31140543081E+02  0.35043965642E+02  0.10566000000E+00 0.  1.
         13    1    4    4    0    0 -0.56369694336E+01 -0.38727854543E+01 -0.19738883847E+02  0.20890394710E+02  0.10566000000E+00 0. -1.
        -13    1    4    4    0    0 -0.12707314158E+01 -0.54383748703E+00 -0.40678594881E+01  0.42975763395E+01  0.10566000000E+00 0.  1.
         14    1    4    4    0    0 -0.70936435471E+01 -0.34762406454E+01 -0.18705292156E+02  0.20304974328E+02  0.00000000000E+00 0. -1.
<mgrwt>
<rscale>  0 0.79730065E+02</rscale>
<asrwt>0</asrwt>
<pdfrwt beam="1">  1        2 0.70698772E-02 0.79730065E+02</pdfrwt>
<pdfrwt beam="2">  1       -1 0.53204168E-02 0.79730065E+02</pdfrwt>
<totfact> 0.14811241E+05</totfact>
</mgrwt>
</event>
<event>
 8    1  0.1226832E-024  0.7517335E+02  0.7818608E-02  0.1343335E+00
          2   -1    0    0  501    0  0.00000000000E+00  0.00000000000E+00  0.45162082771E+03  0.45162082772E+03  0.25500000000E-02 0. -1.
         -1   -1    0    0    0  501 -0.00000000000E+00 -0.00000000000E+00 -0.31281929601E+01  0.31281970202E+01  0.50400000000E-02 0.  1.
         24    2    1    2    0    0  0.00000000000E+00  0.00000000000E+00  0.44849263475E+03  0.45474902474E+03  0.75173346837E+02 0.  0.
         66    2    3    3    0    0 -0.27230657469E+02 -0.19827717718E+02  0.32492306884E+03  0.32667054926E+03  0.19999991871E+01 0.  0.
        -13    1    3    3    0    0  0.27230657469E+02  0.19827717718E+02  0.12356956592E+03  0.12807847548E+03  0.10566000000E+00 0.  1.
         13    1    4    4    0    0 -0.12610277246E+02 -0.10026880009E+02  0.15350229650E+03  0.15434546838E+03  0.10566000000E+00 0. -1.
        -13    1    4    4    0    0 -0.13381565199E+02 -0.90923497105E+01  0.15984541583E+03  0.16066208400E+03  0.10566000000E+00 0.  1.
        -14    1    4    4    0    0 -0.12388150242E+01 -0.70848799857E+00  0.11575356511E+02  0.11662996882E+02  0.00000000000E+00 0.  1.
<mgrwt>
<rscale>  0 0.75173347E+02</rscale>
<asrwt>0</asrwt>
<pdfrwt beam="1">  1        2 0.69480113E-01 0.75173347E+02</pdfrwt>
<pdfrwt beam="2">  1       -1 0.48126087E-03 0.75173347E+02</pdfrwt>
<totfact> 0.34628191E+05</totfact>
</mgrwt>
</event>
<event>
 8    1  0.1226832E-024  0.7915596E+02  0.7818608E-02  0.1331464E+00
         -1   -1    0    0    0  501 -0.00000000000E+00  0.00000000000E+00  0.53668578904E+02  0.53668579141E+02  0.50400000000E-02 0.  1.
          2   -1    0    0  501    0  0.00000000000E+00 -0.00000000000E+00 -0.29186845046E+02  0.29186845158E+02  0.25500000000E-02 0. -1.
         24    2    1    2    0    0  0.00000000000E+00 -0.88817841970E-15  0.24481733858E+02  0.82855424298E+02  0.79155960249E+02 0.  0.
         66    2    3    3    0    0 -0.38679284417E+02  0.45758947159E+01  0.50432117651E+01  0.39325053744E+02  0.20000028959E+01 0.  0.
        -13    1    3    3    0    0  0.38679284417E+02 -0.45758947159E+01  0.19438522093E+02  0.43530370555E+02  0.10566000000E+00 0.  1.
         13    1    4    4    0    0 -0.78065455455E+01  0.28713405890E+00  0.14023104556E+01  0.79373949109E+01  0.10566000000E+00 0. -1.
        -13    1    4    4    0    0 -0.81628661891E+01  0.10896600297E+01  0.12277139038E+01  0.83269555581E+01  0.10566000000E+00 0.  1.
         14    1    4    4    0    0 -0.22709872682E+02  0.31991006272E+01  0.24131874057E+01  0.23060703275E+02  0.00000000000E+00 0. -1.
<mgrwt>
<rscale>  0 0.79155960E+02</rscale>
<asrwt>0</asrwt>
<pdfrwt beam="1">  1        2 0.44902839E-02 0.79155960E+02</pdfrwt>
<pdfrwt beam="2">  1       -1 0.82567045E-02 0.79155960E+02</pdfrwt>
<totfact> 0.13786527E+05</totfact>
</mgrwt>
</event>
<event>
 8    1  0.1226832E-024  0.8096671E+02  0.7818608E-02  0.1326330E+00
          2   -1    0    0  501    0  0.00000000000E+00  0.00000000000E+00  0.21463303803E+03  0.21463303805E+03  0.25500000000E-02 0. -1.
         -1   -1    0    0    0  501 -0.00000000000E+00 -0.00000000000E+00 -0.76358324112E+01  0.76358340745E+01  0.50400000000E-02 0.  1.
         24    2    1    2    0    0  0.00000000000E+00  0.00000000000E+00  0.20699720562E+03  0.22226887212E+03  0.80966711552E+02 0.  0.
         66    2    3    3    0    0 -0.12633273622E+02  0.35454865732E+02  0.62820724537E+02  0.73260429514E+02  0.19999987062E+01 0.  0.
        -13    1    3    3    0    0  0.12633273622E+02 -0.35454865732E+02  0.14417648109E+03  0.14900844261E+03  0.10566000000E+00 0.  1.
         13    1    4    4    0    0 -0.23142174047E+01  0.67597252465E+01  0.11468267083E+02  0.13512283357E+02  0.10566000000E+00 0. -1.
        -13    1    4    4    0    0 -0.89090827975E+01  0.25681851793E+02  0.46551332963E+02  0.53907022108E+02  0.10566000000E+00 0.  1.
        -14    1    4    4    0    0 -0.14099734202E+01  0.30132886924E+01  0.48011244904E+01  0.58411240495E+01  0.00000000000E+00 0.  1.
<mgrwt>
<rscale>  0 0.80966712E+02</rscale>
<asrwt>0</asrwt>
<pdfrwt beam="1">  1        2 0.33020461E-01 0.80966712E+02</pdfrwt>
<pdfrwt beam="2">  1       -1 0.11747438E-02 0.80966712E+02</pdfrwt>
<totfact> 0.21904727E+05</totfact>
</mgrwt>
</event>
<event>
 8    1  0.1226832E-024  0.7908580E+02  0.7818608E-02  0.1331666E+00
         -1   -1    0    0    0  501 -0.00000000000E+00  0.00000000000E+00  0.73455141982E+01  0.73455159272E+01  0.50400000000E-02 0.  1.
          2   -1    0    0  501    0  0.00000000000E+00 -0.00000000000E+00 -0.21287016932E+03  0.21287016933E+03  0.25500000000E-02 0. -1.
         24    2    1    2    0    0 -0.35527136788E-14  0.00000000000E+00 -0.20552465512E+03  0.22021568526E+03  0.79085802598E+02 0.  0.
         66    2    3    3    0    0  0.17288577978E+02 -0.21593977733E+02 -0.18141050269E+03  0.18351829688E+03  0.19999996127E+01 0.  0.
        -13    1    3    3    0    0 -0.17288577978E+02  0.21593977733E+02 -0.24114152424E+02  0.36697388381E+02  0.10566000000E+00 0.  1.
         13    1    4    4    0    0  0.94229951065E+01 -0.12407012153E+02 -0.99489949421E+02  0.10070247260E+03  0.10566000000E+00 0. -1.
        -13    1    4    4    0    0  0.58717902804E+01 -0.69579519037E+01 -0.64698727246E+02  0.65336264717E+02  0.10566000000E+00 0.  1.
        -14    1    4    4    0    0  0.19937925906E+01 -0.22290136765E+01 -0.17221826026E+02  0.17479559564E+02  0.00000000000E+00 0.  1.
<mgrwt>
<rscale>  0 0.79085803E+02</rscale>
<asrwt>0</asrwt>
<pdfrwt beam="1">  1        2 0.32749252E-01 0.79085803E+02</pdfrwt>
<pdfrwt beam="2">  1       -1 0.11300794E-02 0.79085803E+02</pdfrwt>
<totfact> 0.23237259E+05</totfact>
</mgrwt>
</event>
<event>
 8    1  0.1226832E-024  0.8151618E+02  0.7818608E-02  0.1324803E+00
          2   -1    0    0  501    0  0.00000000000E+00  0.00000000000E+00  0.61944940416E+03  0.61944940416E+03  0.25500000000E-02 0. -1.
         -1   -1    0    0    0  501 -0.00000000000E+00 -0.00000000000E+00 -0.26817692494E+01  0.26817739854E+01  0.50400000000E-02 0.  1.
         24    2    1    2    0    0  0.00000000000E+00  0.35527136788E-14  0.61676763491E+03  0.62213117815E+03  0.81516178479E+02 0.  0.
         66    2    3    3    0    0 -0.91845296887E+01  0.30289324966E+02  0.50425458216E+03  0.50525091037E+03  0.20000027026E+01 0.  0.
        -13    1    3    3    0    0  0.91845296887E+01 -0.30289324966E+02  0.11251305275E+03  0.11688026778E+03  0.10566000000E+00 0.  1.
         13    1    4    4    0    0 -0.34479371067E+00  0.10979653239E+01  0.16666925959E+02  0.16706944530E+02  0.10566000000E+00 0. -1.
        -13    1    4    4    0    0 -0.32340166347E+01  0.12388165886E+02  0.21629779365E+03  0.21667642285E+03  0.10566000000E+00 0.  1.
        -14    1    4    4    0    0 -0.56057193433E+01  0.16803193756E+02  0.27128986255E+03  0.27186754299E+03  0.00000000000E+00 0.  1.
<mgrwt>
<rscale>  0 0.81516178E+02</rscale>
<asrwt>0</asrwt>
<pdfrwt beam="1">  1        2 0.95299945E-01 0.81516178E+02</pdfrwt>
<pdfrwt beam="2">  1       -1 0.41258009E-03 0.81516178E+02</pdfrwt>
<totfact> 0.30897596E+05</totfact>
</mgrwt>
</event>
<event>
 8    1  0.1226832E-024  0.7870740E+02  0.7818608E-02  0.1332760E+00
          2   -1    0    0  501    0  0.00000000000E+00  0.00000000000E+00  0.15352179943E+02  0.15352180155E+02  0.25500000000E-02 0. -1.
         -1   -1    0    0    0  501 -0.00000000000E+00 -0.00000000000E+00 -0.10087907059E+03  0.10087907071E+03  0.50400000000E-02 0.  1.
         24    2    1    2    0    0 -0.35527136788E-14  0.00000000000E+00 -0.85526890643E+02  0.11623125087E+03  0.78707398986E+02 0.  0.
         66    2    3    3    0    0  0.22890457739E+02 -0.49716445209E+01  0.38617029586E+01  0.23824421385E+02  0.19999999634E+01 0.  0.
        -13    1    3    3    0    0 -0.22890457739E+02  0.49716445209E+01 -0.89388593602E+02  0.92406829482E+02  0.10566000000E+00 0.  1.
         13    1    4    4    0    0  0.13152967404E+02 -0.21177293115E+01  0.18121007791E+01  0.13445452846E+02  0.10566000000E+00 0. -1.
        -13    1    4    4    0    0  0.43431464880E+01 -0.16520165707E+01  0.92273098313E+00  0.47386365833E+01  0.10566000000E+00 0.  1.
         14    1    4    4    0    0  0.53943438471E+01 -0.12018986386E+01  0.11268711963E+01  0.56403319558E+01  0.00000000000E+00 0. -1.
<mgrwt>
<rscale>  0 0.78707399E+02</rscale>
<asrwt>0</asrwt>
<pdfrwt beam="1">  1        2 0.23618739E-02 0.78707399E+02</pdfrwt>
<pdfrwt beam="2">  1       -1 0.15519857E-01 0.78707399E+02</pdfrwt>
<totfact> 0.12321202E+05</totfact>
</mgrwt>
</event>
<event>
 8    1  0.1226832E-024  0.7956595E+02  0.7818608E-02  0.1330288E+00
          2   -1    0    0  501    0  0.00000000000E+00  0.00000000000E+00  0.59936737689E+03  0.59936737690E+03  0.25500000000E-02 0. -1.
         -1   -1    0    0    0  501 -0.00000000000E+00 -0.00000000000E+00 -0.26405903888E+01  0.26405951987E+01  0.50400000000E-02 0.  1.
         24    2    1    2    0    0  0.00000000000E+00  0.35527136788E-14  0.59672678650E+03  0.60200797210E+03  0.79565952120E+02 0.  0.
         66    2    3    3    0    0  0.25862492008E+02  0.21367966399E+02  0.45998221441E+03  0.46120830007E+03  0.20000004691E+01 0.  0.
        -13    1    3    3    0    0 -0.25862492008E+02 -0.21367966399E+02  0.13674457210E+03  0.14079967203E+03  0.10566000000E+00 0.  1.
         13    1    4    4    0    0  0.69383655675E+01  0.57334060253E+01  0.11896654988E+03  0.11930659670E+03  0.10566000000E+00 0. -1.
        -13    1    4    4    0    0  0.11750445915E+02  0.95197169719E+01  0.22043960727E+03  0.22095775526E+03  0.10566000000E+00 0.  1.
        -14    1    4    4    0    0  0.71736805255E+01  0.61148434014E+01  0.12057605725E+03  0.12094394811E+03  0.00000000000E+00 0.  1.
<mgrwt>
<rscale>  0 0.79565952E+02</rscale>
<asrwt>0</asrwt>
<pdfrwt beam="1">  1        2 0.92210305E-01 0.79565952E+02</pdfrwt>
<pdfrwt beam="2">  1       -1 0.40624531E-03 0.79565952E+02</pdfrwt>
<totfact> 0.32612386E+05</totfact>
</mgrwt>
</event>
<event>
 8    1  0.1226832E-024  0.8352218E+02  0.7818608E-02  0.1319343E+00
          2   -1    0    0  501    0  0.00000000000E+00  0.00000000000E+00  0.42384373324E+03  0.42384373325E+03  0.25500000000E-02 0. -1.
         -1   -1    0    0    0  501 -0.00000000000E+00 -0.00000000000E+00 -0.41146957346E+01  0.41146988213E+01  0.50400000000E-02 0.  1.
         24    2    1    2    0    0 -0.71054273576E-14  0.00000000000E+00  0.41972903751E+03  0.42795843207E+03  0.83522180610E+02 0.  0.
         66    2    3    3    0    0 -0.36818672502E+02 -0.15778349756E+02  0.27004836994E+03  0.27301042668E+03  0.20000013335E+01 0.  0.
        -13    1    3    3    0    0  0.36818672502E+02  0.15778349756E+02  0.14968066757E+03  0.15494800539E+03  0.10566000000E+00 0.  1.
         13    1    4    4    0    0 -0.28651393616E+02 -0.11625156383E+02  0.21137686289E+03  0.21362639338E+03  0.10566000000E+00 0. -1.
        -13    1    4    4    0    0 -0.53118143164E+01 -0.28767958785E+01  0.38054293322E+02  0.38530919145E+02  0.10566000000E+00 0.  1.
         14    1    4    4    0    0 -0.28554645696E+01 -0.12763974951E+01  0.20617213721E+02  0.20853114158E+02  0.00000000000E+00 0. -1.
<mgrwt>
<rscale>  0 0.83522181E+02</rscale>
<asrwt>0</asrwt>
<pdfrwt beam="1">  1        2 0.65206727E-01 0.83522181E+02</pdfrwt>
<pdfrwt beam="2">  1       -1 0.63303036E-03 0.83522181E+02</pdfrwt>
<totfact> 0.25753553E+05</totfact>
</mgrwt>
</event>
<event>
 8    1  0.1226832E-024  0.7910567E+02  0.7818608E-02  0.1331609E+00
          2   -1    0    0  501    0  0.00000000000E+00  0.00000000000E+00  0.11964594981E+04  0.11964594981E+04  0.25500000000E-02 0. -1.
         -1   -1    0    0    0  501 -0.00000000000E+00 -0.00000000000E+00 -0.13075418618E+01  0.13075515752E+01  0.50400000000E-02 0.  1.
         24    2    1    2    0    0  0.35527136788E-14  0.00000000000E+00  0.11951519562E+04  0.11977670497E+04  0.79105668534E+02 0.  0.
         66    2    3    3    0    0 -0.19901244106E+02  0.93563372398E+01  0.10952809725E+04  0.10955035414E+04  0.19999974015E+01 0.  0.
        -13    1    3    3    0    0  0.19901244106E+02 -0.93563372398E+01  0.99870983757E+02  0.10226350827E+03  0.10566000000E+00 0.  1.
         13    1    4    4    0    0 -0.76396118961E+01  0.32439134022E+01  0.38870777923E+03  0.38879639330E+03  0.10566000000E+00 0. -1.
        -13    1    4    4    0    0 -0.26905928716E+01  0.98634082171E+00  0.16893540184E+03  0.16895973875E+03  0.10566000000E+00 0.  1.
        -14    1    4    4    0    0 -0.95710393385E+01  0.51260830159E+01  0.53763779139E+03  0.53774740934E+03  0.00000000000E+00 0.  1.
<mgrwt>
<rscale>  0 0.79105669E+02</rscale>
<asrwt>0</asrwt>
<pdfrwt beam="1">  1        2 0.18407086E+00 0.79105669E+02</pdfrwt>
<pdfrwt beam="2">  1       -1 0.20116085E-03 0.79105669E+02</pdfrwt>
<totfact> 0.36086792E+05</totfact>
</mgrwt>
</event>
<event>
 8    1  0.1226832E-024  0.8089097E+02  0.7818608E-02  0.1326542E+00
          2   -1    0    0  501    0  0.00000000000E+00  0.00000000000E+00  0.19399397489E+03  0.19399397490E+03  0.25500000000E-02 0. -1.
         -1   -1    0    0    0  501 -0.00000000000E+00 -0.00000000000E+00 -0.84324111017E+01  0.84324126079E+01  0.50400000000E-02 0.  1.
         24    2    1    2    0    0  0.00000000000E+00 -0.71054273576E-14  0.18556156378E+03  0.20242638751E+03  0.80890966161E+02 0.  0.
         66    2    3    3    0    0  0.23199113015E+02  0.33045745194E+02  0.97593337662E+02  0.10563465185E+03  0.19999990930E+01 0.  0.
        -13    1    3    3    0    0 -0.23199113015E+02 -0.33045745194E+02  0.87968226123E+02  0.96791735656E+02  0.10566000000E+00 0.  1.
         13    1    4    4    0    0  0.93769646731E+01  0.14098095519E+02  0.39818078690E+02  0.43268629726E+02  0.10566000000E+00 0. -1.
        -13    1    4    4    0    0  0.96919938321E+00  0.10090087024E+01  0.39935022574E+01  0.42328087982E+01  0.10566000000E+00 0. -1.
        -14    1    4    4    0    0  0.12852948958E+02  0.17938640973E+02  0.53781756715E+02  0.58133213331E+02  0.00000000000E+00 0.  1.
<mgrwt>
<rscale>  0 0.80890966E+02</rscale>
<asrwt>0</asrwt>
<pdfrwt beam="1">  1        2 0.29845228E-01 0.80890966E+02</pdfrwt>
<pdfrwt beam="2">  1       -1 0.12972941E-02 0.80890966E+02</pdfrwt>
<totfact> 0.21197569E+05</totfact>
</mgrwt>
</event>
<event>
 8    1  0.1226832E-024  0.8411626E+02  0.7818608E-02  0.1317760E+00
         -1   -1    0    0    0  501 -0.00000000000E+00  0.00000000000E+00  0.22944797484E+02  0.22944798038E+02  0.50400000000E-02 0.  1.
          2   -1    0    0  501    0  0.00000000000E+00 -0.00000000000E+00 -0.77093127271E+02  0.77093127313E+02  0.25500000000E-02 0. -1.
         24    2    1    2    0    0  0.71054273576E-14  0.00000000000E+00 -0.54148329787E+02  0.10003792535E+03  0.84116258177E+02 0.  0.
         66    2    3    3    0    0 -0.37465373480E+02  0.18280453246E+02 -0.33499647692E+02  0.53516871867E+02  0.19999995255E+01 0.  0.
        -13    1    3    3    0    0  0.37465373480E+02 -0.18280453246E+02 -0.20648682094E+02  0.46521053483E+02  0.10566000000E+00 0.  1.
         13    1    4    4    0    0 -0.36232178673E+01  0.17277972917E+01 -0.27553984100E+01  0.48699461628E+01  0.10566000000E+00 0. -1.
        -13    1    4    4    0    0 -0.13706568113E+02  0.71836152163E+01 -0.13334369263E+02  0.20427699447E+02  0.10566000000E+00 0. -1.
        -14    1    4    4    0    0 -0.20135587500E+02  0.93690407383E+01 -0.17409880019E+02  0.28219226258E+02  0.00000000000E+00 0.  1.
<mgrwt>
<rscale>  0 0.84116258E+02</rscale>
<asrwt>0</asrwt>
<pdfrwt beam="1">  1        2 0.11860481E-01 0.84116258E+02</pdfrwt>
<pdfrwt beam="2">  1       -1 0.35299689E-02 0.84116258E+02</pdfrwt>
<totfact> 0.14438019E+05</totfact>
</mgrwt>
</event>
<event>
 8    1  0.1226832E-024  0.7794073E+02  0.7818608E-02  0.1334999E+00
         -1   -1    0    0    0  501 -0.00000000000E+00  0.00000000000E+00  0.54219641623E+01  0.54219665048E+01  0.50400000000E-02 0.  1.
          2   -1    0    0  501    0  0.00000000000E+00 -0.00000000000E+00 -0.28009944842E+03  0.28009944844E+03  0.25500000000E-02 0. -1.
         24    2    1    2    0    0  0.00000000000E+00  0.35527136788E-14 -0.27467748426E+03  0.28552141494E+03  0.77940734082E+02 0.  0.
         66    2    3    3    0    0 -0.28564496402E+02  0.25542763095E+02 -0.11196391222E+03  0.11835658344E+03  0.20000004605E+01 0.  0.
        -13    1    3    3    0    0  0.28564496402E+02 -0.25542763095E+02 -0.16271357204E+03  0.16716483150E+03  0.10566000000E+00 0.  1.
         13    1    4    4    0    0 -0.21766397277E+02  0.19692946053E+02 -0.85893107859E+02  0.90770178563E+02  0.10566000000E+00 0. -1.
        -13    1    4    4    0    0 -0.39314503129E+01  0.37412394646E+01 -0.14607019063E+02  0.15582982521E+02  0.10566000000E+00 0.  1.
         14    1    4    4    0    0 -0.28666488123E+01  0.21085775770E+01 -0.11463785300E+02  0.12003422354E+02  0.00000000000E+00 0. -1.
<mgrwt>
<rscale>  0 0.77940734E+02</rscale>
<asrwt>0</asrwt>
<pdfrwt beam="1">  1        2 0.43092212E-01 0.77940734E+02</pdfrwt>
<pdfrwt beam="2">  1       -1 0.83414873E-03 0.77940734E+02</pdfrwt>
<totfact> 0.26627502E+05</totfact>
</mgrwt>
</event>
<event>
 8    1  0.1226832E-024  0.8454230E+02  0.7818608E-02  0.1316634E+00
         -1   -1    0    0    0  501 -0.00000000000E+00  0.00000000000E+00  0.40335883989E+02  0.40335884304E+02  0.50400000000E-02 0.  1.
          2   -1    0    0  501    0  0.00000000000E+00 -0.00000000000E+00 -0.44299268399E+02  0.44299268473E+02  0.25500000000E-02 0. -1.
         24    2    1    2    0    0 -0.17763568394E-14  0.00000000000E+00 -0.39633844101E+01  0.84635152777E+02  0.84542301066E+02 0.  0.
         66    2    3    3    0    0  0.15146070665E+02 -0.23615405101E+02 -0.33604739519E+02  0.43822018721E+02  0.19999979922E+01 0.  0.
        -13    1    3    3    0    0 -0.15146070665E+02  0.23615405101E+02  0.29641355109E+02  0.40813134056E+02  0.10566000000E+00 0.  1.
         13    1    4    4    0    0  0.68295065454E+01 -0.11794182569E+02 -0.15833635307E+02  0.20891626868E+02  0.10566000000E+00 0. -1.
        -13    1    4    4    0    0  0.48012933067E+01 -0.66372787788E+01 -0.92746930439E+01  0.12374852811E+02  0.10566000000E+00 0.  1.
         14    1    4    4    0    0  0.35152708135E+01 -0.51839437538E+01 -0.84964111683E+01  0.10555539042E+02  0.00000000000E+00 0. -1.
<mgrwt>
<rscale>  0 0.84542301E+02</rscale>
<asrwt>0</asrwt>
<pdfrwt beam="1">  1        2 0.68152721E-02 0.84542301E+02</pdfrwt>
<pdfrwt beam="2">  1       -1 0.62055206E-02 0.84542301E+02</pdfrwt>
<totfact> 0.12499755E+05</totfact>
</mgrwt>
</event>
<event>
 8    1  0.1226832E-024  0.7415313E+02  0.7818608E-02  0.1346514E+00
          2   -1    0    0  501    0  0.00000000000E+00  0.00000000000E+00  0.25976722316E+02  0.25976722441E+02  0.25500000000E-02 0. -1.
         -1   -1    0    0    0  501 -0.00000000000E+00 -0.00000000000E+00 -0.52919367126E+02  0.52919367366E+02  0.50400000000E-02 0.  1.
         24    2    1    2    0    0  0.71054273576E-14 -0.35527136788E-14 -0.26942644810E+02  0.78896089807E+02  0.74153131272E+02 0.  0.
         66    2    3    3    0    0 -0.21528688419E+02  0.21799701250E+02  0.86829264764E+01  0.31907751965E+02  0.20000059116E+01 0.  0.
        -13    1    3    3    0    0  0.21528688419E+02 -0.21799701250E+02 -0.35625571286E+02  0.46988337842E+02  0.10566000000E+00 0.  1.
         13    1    4    4    0    0 -0.74508104632E+00  0.49087767808E+00  0.61183068820E-01  0.90056319264E+00  0.10566000000E+00 0.  1.
        -13    1    4    4    0    0 -0.71329569985E+01  0.77623782700E+01  0.34474582126E+01  0.11091876492E+02  0.10566000000E+00 0. -1.
         14    1    4    4    0    0 -0.13650650374E+02  0.13546445302E+02  0.51742851949E+01  0.19915312281E+02  0.00000000000E+00 0. -1.
<mgrwt>
<rscale>  0 0.74153131E+02</rscale>
<asrwt>0</asrwt>
<pdfrwt beam="1">  1        2 0.39964188E-02 0.74153131E+02</pdfrwt>
<pdfrwt beam="2">  1       -1 0.81414411E-02 0.74153131E+02</pdfrwt>
<totfact> 0.16181391E+05</totfact>
</mgrwt>
</event>
<event>
 8    1  0.1226832E-024  0.8039603E+02  0.7818608E-02  0.1327931E+00
         -1   -1    0    0    0  501 -0.00000000000E+00  0.00000000000E+00  0.58318640089E+01  0.58318661867E+01  0.50400000000E-02 0.  1.
          2   -1    0    0  501    0  0.00000000000E+00 -0.00000000000E+00 -0.27707782942E+03  0.27707782943E+03  0.25500000000E-02 0. -1.
         24    2    1    2    0    0  0.00000000000E+00  0.71054273576E-14 -0.27124596541E+03  0.28290969562E+03  0.80396033006E+02 0.  0.
         66    2    3    3    0    0 -0.28140794473E+02 -0.28602299678E+02 -0.14263794376E+03  0.14818764747E+03  0.20000004945E+01 0.  0.
        -13    1    3    3    0    0  0.28140794473E+02  0.28602299678E+02 -0.12860802165E+03  0.13472204815E+03  0.10566000000E+00 0.  1.
         13    1    4    4    0    0 -0.36645697531E+01 -0.37373412489E+01 -0.18606638165E+02  0.19329121525E+02  0.10566000000E+00 0. -1.
        -13    1    4    4    0    0 -0.12503967962E+02 -0.13975059536E+02 -0.67349330142E+02  0.69911336265E+02  0.10566000000E+00 0.  1.
         14    1    4    4    0    0 -0.11972256758E+02 -0.10889898893E+02 -0.56681975453E+02  0.58947189679E+02  0.00000000000E+00 0. -1.
<mgrwt>
<rscale>  0 0.80396033E+02</rscale>
<asrwt>0</asrwt>
<pdfrwt beam="1">  1        2 0.42627348E-01 0.80396033E+02</pdfrwt>
<pdfrwt beam="2">  1       -1 0.89721023E-03 0.80396033E+02</pdfrwt>
<totfact> 0.24451788E+05</totfact>
</mgrwt>
</event>
<event>
 8    1  0.1226832E-024  0.7735021E+02  0.7818608E-02  0.1336744E+00
         -1   -1    0    0    0  501 -0.00000000000E+00  0.00000000000E+00  0.51019530854E+01  0.51019555748E+01  0.50400000000E-02 0.  1.
          2   -1    0    0  501    0  0.00000000000E+00 -0.00000000000E+00 -0.29317466045E+03  0.29317466046E+03  0.25500000000E-02 0. -1.
         24    2    1    2    0    0  0.00000000000E+00  0.44408920985E-15 -0.28807270736E+03  0.29827661604E+03  0.77350209731E+02 0.  0.
         66    2    3    3    0    0  0.31445487382E+02  0.30324507422E+01 -0.22999153754E+03  0.23215969017E+03  0.19999909774E+01 0.  0.
        -13    1    3    3    0    0 -0.31445487382E+02 -0.30324507422E+01 -0.58081169823E+02  0.66116925868E+02  0.10566000000E+00 0.  1.
         13    1    4    4    0    0  0.14381209128E+02  0.17700860364E+01 -0.10230388630E+03  0.10332496648E+03  0.10566000000E+00 0. -1.
        -13    1    4    4    0    0  0.69988754542E+01  0.10333845671E+01 -0.50530115214E+02  0.51023091329E+02  0.10566000000E+00 0.  1.
         14    1    4    4    0    0  0.10065402799E+02  0.22898013876E+00 -0.77157536025E+02  0.77811632362E+02  0.00000000000E+00 0. -1.
<mgrwt>
<rscale>  0 0.77350210E+02</rscale>
<asrwt>0</asrwt>
<pdfrwt beam="1">  1        2 0.45103781E-01 0.77350210E+02</pdfrwt>
<pdfrwt beam="2">  1       -1 0.78491628E-03 0.77350210E+02</pdfrwt>
<totfact> 0.27613862E+05</totfact>
</mgrwt>
</event>
<event>
 8    1  0.1226832E-024  0.8195561E+02  0.7818608E-02  0.1323592E+00
          2   -1    0    0  501    0  0.00000000000E+00  0.00000000000E+00  0.83427630673E+01  0.83427634570E+01  0.25500000000E-02 0. -1.
         -1   -1    0    0    0  501 -0.00000000000E+00 -0.00000000000E+00 -0.20127390835E+03  0.20127390841E+03  0.50400000000E-02 0.  1.
         24    2    1    2    0    0  0.71054273576E-14 -0.35527136788E-14 -0.19293114528E+03  0.20961667187E+03  0.81955611802E+02 0.  0.
         66    2    3    3    0    0  0.30735042707E+02 -0.23218143168E+02 -0.60948907063E+02  0.72128318211E+02  0.19999983576E+01 0.  0.
        -13    1    3    3    0    0 -0.30735042707E+02  0.23218143168E+02 -0.13198223822E+03  0.13748835366E+03  0.10566000000E+00 0.  1.
         13    1    4    4    0    0  0.16924962922E+02 -0.12168745479E+02 -0.34015519524E+02  0.39894855169E+02  0.10566000000E+00 0. -1.
        -13    1    4    4    0    0  0.11717566755E+02 -0.90475539938E+01 -0.22156440335E+02  0.26647300357E+02  0.10566000000E+00 0.  1.
         14    1    4    4    0    0  0.20925130297E+01 -0.20018436953E+01 -0.47769472037E+01  0.55861626853E+01  0.00000000000E+00 0. -1.
<mgrwt>
<rscale>  0 0.81955612E+02</rscale>
<asrwt>0</asrwt>
<pdfrwt beam="1">  1        2 0.12835022E-02 0.81955612E+02</pdfrwt>
<pdfrwt beam="2">  1       -1 0.30965213E-01 0.81955612E+02</pdfrwt>
<totfact> 0.93481834E+04</totfact>
</mgrwt>
</event>
<event>
 8    1  0.1226832E-024  0.8222454E+02  0.7818608E-02  0.1322854E+00
         -1   -1    0    0    0  501 -0.00000000000E+00  0.00000000000E+00  0.17266604597E+01  0.17266678154E+01  0.50400000000E-02 0.  1.
          2   -1    0    0  501    0  0.00000000000E+00 -0.00000000000E+00 -0.97889265345E+03  0.97889265345E+03  0.25500000000E-02 0. -1.
         24    2    1    2    0    0  0.00000000000E+00  0.00000000000E+00 -0.97716599299E+03  0.98061932127E+03  0.82224542497E+02 0.  0.
         66    2    3    3    0    0  0.60169905755E+00 -0.28664657379E+02 -0.83986984307E+03  0.84036145670E+03  0.19999990969E+01 0.  0.
        -13    1    3    3    0    0 -0.60169905755E+00  0.28664657379E+02 -0.13729614993E+03  0.14025786457E+03  0.10566000000E+00 0.  1.
         13    1    4    4    0    0  0.15043492648E+00 -0.21489972726E+02 -0.60666076841E+03  0.60704130062E+03  0.10566000000E+00 0. -1.
        -13    1    4    4    0    0  0.28073942879E+00 -0.50387773290E+01 -0.16875880964E+03  0.16883428292E+03  0.10566000000E+00 0.  1.
        -14    1    4    4    0    0  0.17052470228E+00 -0.21359073239E+01 -0.64450265006E+02  0.64485873167E+02  0.00000000000E+00 0.  1.
<mgrwt>
<rscale>  0 0.82224542E+02</rscale>
<asrwt>0</asrwt>
<pdfrwt beam="1">  1        2 0.15059843E+00 0.82224542E+02</pdfrwt>
<pdfrwt beam="2">  1       -1 0.26564142E-03 0.82224542E+02</pdfrwt>
<totfact> 0.32771923E+05</totfact>
</mgrwt>
</event>
<event>
 8    1  0.1226832E-024  0.7712017E+02  0.7818608E-02  0.1337428E+00
         -1   -1    0    0    0  501 -0.00000000000E+00  0.00000000000E+00  0.41473692795E+01  0.41473723419E+01  0.50400000000E-02 0.  1.
          2   -1    0    0  501    0  0.00000000000E+00 -0.00000000000E+00 -0.35851148692E+03  0.35851148693E+03  0.25500000000E-02 0. -1.
         24    2    1    2    0    0 -0.71054273576E-14 -0.17763568394E-14 -0.35436411764E+03  0.36265885927E+03  0.77120168157E+02 0.  0.
         66    2    3    3    0    0  0.35497141007E+02  0.13994157953E+02 -0.15198068984E+03  0.15670996636E+03  0.19999994180E+01 0.  0.
        -13    1    3    3    0    0 -0.35497141007E+02 -0.13994157953E+02 -0.20238342780E+03  0.20594889291E+03  0.10566000000E+00 0.  1.
         13    1    4    4    0    0  0.74186014221E+01  0.29127986824E+01 -0.34634181581E+02  0.35539523647E+02  0.10566000000E+00 0. -1.
        -13    1    4    4    0    0  0.12182857229E+02  0.47555116360E+01 -0.49029450600E+02  0.50743818257E+02  0.10566000000E+00 0.  1.
         14    1    4    4    0    0  0.15895682357E+02  0.63258476342E+01 -0.68317057655E+02  0.70426624457E+02  0.00000000000E+00 0. -1.
<mgrwt>
<rscale>  0 0.77120168E+02</rscale>
<asrwt>0</asrwt>
<pdfrwt beam="1">  1        2 0.55155589E-01 0.77120168E+02</pdfrwt>
<pdfrwt beam="2">  1       -1 0.63805733E-03 0.77120168E+02</pdfrwt>
<totfact> 0.29911770E+05</totfact>
</mgrwt>
</event>
<event>
 8    1  0.1226832E-024  0.8013335E+02  0.7818608E-02  0.1328673E+00
          2   -1    0    0  501    0  0.00000000000E+00  0.00000000000E+00  0.93596488584E+02  0.93596488618E+02  0.25500000000E-02 0. -1.
         -1   -1    0    0    0  501 -0.00000000000E+00 -0.00000000000E+00 -0.17151696137E+02  0.17151696877E+02  0.50400000000E-02 0.  1.
         24    2    1    2    0    0  0.00000000000E+00  0.00000000000E+00  0.76444792447E+02  0.11074818550E+03  0.80133353221E+02 0.  0.
         66    2    3    3    0    0 -0.27954189813E+02  0.17199010309E+02  0.69945733971E+02  0.77289380843E+02  0.20000016465E+01 0.  0.
        -13    1    3    3    0    0  0.27954189813E+02 -0.17199010309E+02  0.64990584754E+01  0.33458804653E+02  0.10566000000E+00 0.  1.
         13    1    4    4    0    0 -0.14570583037E+02  0.90071869991E+01  0.36028381757E+02  0.39893442616E+02  0.10566000000E+00 0. -1.
        -13    1    4    4    0    0 -0.65642110180E+01  0.43838196926E+01  0.15628569925E+02  0.17509143421E+02  0.10566000000E+00 0.  1.
        -14    1    4    4    0    0 -0.68193957578E+01  0.38080036178E+01  0.18288782289E+02  0.19886794806E+02  0.00000000000E+00 0.  1.
<mgrwt>
<rscale>  0 0.80133353E+02</rscale>
<asrwt>0</asrwt>
<pdfrwt beam="1">  1        2 0.14399460E-01 0.80133353E+02</pdfrwt>
<pdfrwt beam="2">  1       -1 0.26387226E-02 0.80133353E+02</pdfrwt>
<totfact> 0.17326900E+05</totfact>
</mgrwt>
</event>
<event>
 8    1  0.1226832E-024  0.7937024E+02  0.7818608E-02  0.1330848E+00
          2   -1    0    0  501    0  0.00000000000E+00  0.00000000000E+00  0.19832918259E+03  0.19832918261E+03  0.25500000000E-02 0. -1.
         -1   -1    0    0    0  501 -0.00000000000E+00 -0.00000000000E+00 -0.79408807693E+01  0.79408823687E+01  0.50400000000E-02 0.  1.
         24    2    1    2    0    0  0.00000000000E+00  0.35527136788E-14  0.19038830182E+03  0.20627006498E+03  0.79370235194E+02 0.  0.
         66    2    3    3    0    0 -0.18593966191E+02 -0.28123747574E+02  0.14953353970E+03  0.15330022914E+03  0.20000009383E+01 0.  0.
        -13    1    3    3    0    0  0.18593966191E+02  0.28123747574E+02  0.40854762130E+02  0.52969835841E+02  0.10566000000E+00 0.  1.
         13    1    4    4    0    0 -0.11360630293E+02 -0.17322737095E+02  0.90154059941E+02  0.92503550359E+02  0.10566000000E+00 0. -1.
        -13    1    4    4    0    0 -0.30300391782E+00 -0.63036053027E+00  0.44013286169E+01  0.44578047738E+01  0.10566000000E+00 0.  1.
        -14    1    4    4    0    0 -0.69303319798E+01 -0.10170649948E+02  0.54978151137E+02  0.56338874005E+02  0.00000000000E+00 0.  1.
<mgrwt>
<rscale>  0 0.79370235E+02</rscale>
<asrwt>0</asrwt>
<pdfrwt beam="1">  1        2 0.30512180E-01 0.79370235E+02</pdfrwt>
<pdfrwt beam="2">  1       -1 0.12216742E-02 0.79370235E+02</pdfrwt>
<totfact> 0.22457805E+05</totfact>
</mgrwt>
</event>
<event>
 8    1  0.1226832E-024  0.8052726E+02  0.7818608E-02  0.1327562E+00
          2   -1    0    0  501    0  0.00000000000E+00  0.00000000000E+00  0.57197268222E+03  0.57197268223E+03  0.25500000000E-02 0. -1.
         -1   -1    0    0    0  501 -0.00000000000E+00 -0.00000000000E+00 -0.28343284072E+01  0.28343328882E+01  0.50400000000E-02 0.  1.
         24    2    1    2    0    0  0.00000000000E+00  0.88817841970E-15  0.56913835382E+03  0.57480701512E+03  0.80527255283E+02 0.  0.
         66    2    3    3    0    0  0.38785875487E+02  0.73694958354E+01  0.34026568851E+03  0.34255421816E+03  0.19999989521E+01 0.  0.
        -13    1    3    3    0    0 -0.38785875487E+02 -0.73694958354E+01  0.22887266531E+03  0.23225279696E+03  0.10566000000E+00 0.  1.
         13    1    4    4    0    0  0.33507662609E+02  0.60989151962E+01  0.29344802881E+03  0.29541786844E+03  0.10566000000E+00 0. -1.
        -13    1    4    4    0    0  0.20083072118E+01  0.31162627776E+00  0.15213080745E+02  0.15348595980E+02  0.10566000000E+00 0.  1.
         14    1    4    4    0    0  0.32699056661E+01  0.95895436149E+00  0.31604578960E+02  0.31787753739E+02  0.00000000000E+00 0. -1.
<mgrwt>
<rscale>  0 0.80527255E+02</rscale>
<asrwt>0</asrwt>
<pdfrwt beam="1">  1        2 0.87995799E-01 0.80527255E+02</pdfrwt>
<pdfrwt beam="2">  1       -1 0.43605086E-03 0.80527255E+02</pdfrwt>
<totfact> 0.31190319E+05</totfact>
</mgrwt>
</event>
<event>
 8    1  0.1226832E-024  0.8053337E+02  0.7818608E-02  0.1327545E+00
          2   -1    0    0  501    0  0.00000000000E+00  0.00000000000E+00  0.12262061011E+04  0.12262061011E+04  0.25500000000E-02 0. -1.
         -1   -1    0    0    0  501 -0.00000000000E+00 -0.00000000000E+00 -0.13222900353E+01  0.13222996404E+01  0.50400000000E-02 0.  1.
         24    2    1    2    0    0  0.00000000000E+00  0.00000000000E+00  0.12248838111E+04  0.12275284007E+04  0.80533372104E+02 0.  0.
         66    2    3    3    0    0 -0.11578883311E+01 -0.17527233231E+02  0.11646840531E+04  0.11648182211E+04  0.20000018579E+01 0.  0.
        -13    1    3    3    0    0  0.11578883311E+01  0.17527233231E+02  0.60199757953E+02  0.62710179650E+02  0.10566000000E+00 0.  1.
         13    1    4    4    0    0 -0.14109679549E+00 -0.20034010836E+01  0.16748420052E+03  0.16749627492E+03  0.10566000000E+00 0.  1.
        -13    1    4    4    0    0  0.21791151525E+00 -0.10386851510E+01  0.65570988380E+02  0.65579661736E+02  0.10566000000E+00 0. -1.
         14    1    4    4    0    0 -0.12347030509E+01 -0.14485146996E+02  0.93162886421E+03  0.93174228444E+03  0.00000000000E+00 0. -1.
<mgrwt>
<rscale>  0 0.80533372E+02</rscale>
<asrwt>0</asrwt>
<pdfrwt beam="1">  1        2 0.18864747E+00 0.80533372E+02</pdfrwt>
<pdfrwt beam="2">  1       -1 0.20342957E-03 0.80533372E+02</pdfrwt>
<totfact> 0.34348666E+05</totfact>
</mgrwt>
</event>
<event>
 8    1  0.1226832E-024  0.8131038E+02  0.7818608E-02  0.1325373E+00
         -1   -1    0    0    0  501 -0.00000000000E+00  0.00000000000E+00  0.22797383992E+03  0.22797383998E+03  0.50400000000E-02 0.  1.
          2   -1    0    0  501    0  0.00000000000E+00 -0.00000000000E+00 -0.72501493889E+01  0.72501498373E+01  0.25500000000E-02 0. -1.
         24    2    1    2    0    0  0.00000000000E+00  0.71054273576E-14  0.22072369053E+03  0.23522398982E+03  0.81310379546E+02 0.  0.
         66    2    3    3    0    0 -0.37713737889E+01 -0.40099959844E+02  0.94954869403E+02  0.10316325541E+03  0.20000008068E+01 0.  0.
        -13    1    3    3    0    0  0.37713737889E+01  0.40099959844E+02  0.12576882113E+03  0.13206073441E+03  0.10566000000E+00 0.  1.
         13    1    4    4    0    0 -0.91875375626E+00 -0.62858550066E+01  0.13814389279E+02  0.15205413405E+02  0.10566000000E+00 0. -1.
        -13    1    4    4    0    0  0.36204861157E-01 -0.47435021726E+00  0.12462519926E+01  0.13381431109E+01  0.10566000000E+00 0.  1.
        -14    1    4    4    0    0 -0.28888248938E+01 -0.33339754620E+02  0.79894228132E+02  0.86619698892E+02  0.00000000000E+00 0.  1.
<mgrwt>
<rscale>  0 0.81310380E+02</rscale>
<asrwt>0</asrwt>
<pdfrwt beam="1">  1        2 0.11154078E-02 0.81310380E+02</pdfrwt>
<pdfrwt beam="2">  1       -1 0.35072894E-01 0.81310380E+02</pdfrwt>
<totfact> 0.91684133E+04</totfact>
</mgrwt>
</event>
<event>
 8    1  0.1226832E-024  0.7490266E+02  0.7818608E-02  0.1344173E+00
          2   -1    0    0  501    0  0.00000000000E+00  0.00000000000E+00  0.24143392826E+03  0.24143392827E+03  0.25500000000E-02 0. -1.
         -1   -1    0    0    0  501 -0.00000000000E+00 -0.00000000000E+00 -0.58094648858E+01  0.58094670721E+01  0.50400000000E-02 0.  1.
         24    2    1    2    0    0  0.00000000000E+00  0.00000000000E+00  0.23562446337E+03  0.24724339534E+03  0.74902662180E+02 0.  0.
         66    2    3    3    0    0 -0.18321508426E+02  0.12270934984E+01  0.22553721275E+03  0.22629232810E+03  0.19999983300E+01 0.  0.
        -13    1    3    3    0    0  0.18321508426E+02 -0.12270934984E+01  0.10087250624E+02  0.20951067243E+02  0.10566000000E+00 0.  1.
         13    1    4    4    0    0 -0.25403799703E+01 -0.13742432896E+00  0.25652679283E+02  0.25778741906E+02  0.10566000000E+00 0. -1.
        -13    1    4    4    0    0 -0.11180767709E+02  0.13854535851E+01  0.14006514969E+03  0.14051756605E+03  0.10566000000E+00 0.  1.
        -14    1    4    4    0    0 -0.46003607466E+01 -0.20935757742E-01  0.59819383779E+02  0.59996020143E+02  0.00000000000E+00 0.  1.
<mgrwt>
<rscale>  0 0.74902662E+02</rscale>
<asrwt>0</asrwt>
<pdfrwt beam="1">  1        2 0.37143680E-01 0.74902662E+02</pdfrwt>
<pdfrwt beam="2">  1       -1 0.89376403E-03 0.74902662E+02</pdfrwt>
<totfact> 0.28012543E+05</totfact>
</mgrwt>
</event>
<event>
 8    1  0.1226832E-024  0.7989693E+02  0.7818608E-02  0.1329344E+00
         -1   -1    0    0    0  501 -0.00000000000E+00  0.00000000000E+00  0.63099974763E+01  0.63099994891E+01  0.50400000000E-02 0.  1.
          2   -1    0    0  501    0  0.00000000000E+00 -0.00000000000E+00 -0.25291285602E+03  0.25291285604E+03  0.25500000000E-02 0. -1.
         24    2    1    2    0    0  0.00000000000E+00  0.17763568394E-14 -0.24660285855E+03  0.25922285553E+03  0.79896927245E+02 0.  0.
         66    2    3    3    0    0  0.39063038860E+02  0.82433856339E+01 -0.12331546784E+03  0.12963247671E+03  0.19999990372E+01 0.  0.
        -13    1    3    3    0    0 -0.39063038860E+02 -0.82433856339E+01 -0.12328739070E+03  0.12959037882E+03  0.10566000000E+00 0.  1.
         13    1    4    4    0    0  0.19920579969E+02  0.47028543252E+01 -0.62253424502E+02  0.65532025540E+02  0.10566000000E+00 0. -1.
        -13    1    4    4    0    0  0.44269416777E+01  0.12932560348E+01 -0.14822998746E+02  0.15524264223E+02  0.10566000000E+00 0.  1.
        -14    1    4    4    0    0  0.14715517213E+02  0.22472752739E+01 -0.46239044596E+02  0.48576186945E+02  0.00000000000E+00 0.  1.
<mgrwt>
<rscale>  0 0.79896927E+02</rscale>
<asrwt>0</asrwt>
<pdfrwt beam="1">  1        2 0.38909662E-01 0.79896927E+02</pdfrwt>
<pdfrwt beam="2">  1       -1 0.97076920E-03 0.79896927E+02</pdfrwt>
<totfact> 0.24049013E+05</totfact>
</mgrwt>
</event>
<event>
 8    1  0.1226832E-024  0.7871370E+02  0.7818608E-02  0.1332742E+00
          2   -1    0    0  501    0  0.00000000000E+00  0.00000000000E+00  0.36155507643E+02  0.36155507733E+02  0.25500000000E-02 0. -1.
         -1   -1    0    0    0  501 -0.00000000000E+00 -0.00000000000E+00 -0.42841655742E+02  0.42841656039E+02  0.50400000000E-02 0.  1.
         24    2    1    2    0    0  0.00000000000E+00  0.00000000000E+00 -0.66861480993E+01  0.78997163771E+02  0.78713704699E+02 0.  0.
         66    2    3    3    0    0 -0.20085003191E+02 -0.26348756992E+01  0.30489783214E+02  0.36660289109E+02  0.19999985007E+01 0.  0.
        -13    1    3    3    0    0  0.20085003191E+02  0.26348756992E+01 -0.37175931313E+02  0.42336874662E+02  0.10566000000E+00 0.  1.
         13    1    4    4    0    0 -0.10209304219E+02 -0.15234948283E+01  0.16322157214E+02  0.19312558331E+02  0.10566000000E+00 0. -1.
        -13    1    4    4    0    0 -0.79781326671E+00  0.78893505299E-01  0.74230441450E+00  0.10976839587E+01  0.10566000000E+00 0.  1.
         14    1    4    4    0    0 -0.90778857055E+01 -0.11902743762E+01  0.13425321585E+02  0.16250046819E+02  0.00000000000E+00 0. -1.
<mgrwt>
<rscale>  0 0.78713705E+02</rscale>
<asrwt>0</asrwt>
<pdfrwt beam="1">  1        2 0.55623858E-02 0.78713705E+02</pdfrwt>
<pdfrwt beam="2">  1       -1 0.65910240E-02 0.78713705E+02</pdfrwt>
<totfact> 0.14607172E+05</totfact>
</mgrwt>
</event>
<event>
 8    1  0.1226832E-024  0.7512691E+02  0.7818608E-02  0.1343478E+00
         -1   -1    0    0    0  501 -0.00000000000E+00  0.00000000000E+00  0.20379551632E+01  0.20379613953E+01  0.50400000000E-02 0.  1.
          2   -1    0    0  501    0  0.00000000000E+00 -0.00000000000E+00 -0.69236603373E+03  0.69236603373E+03  0.25500000000E-02 0. -1.
         24    2    1    2    0    0  0.00000000000E+00  0.00000000000E+00 -0.69032807856E+03  0.69440399513E+03  0.75126908593E+02 0.  0.
         66    2    3    3    0    0  0.19686478331E+02  0.14604640522E+02 -0.60817090829E+03  0.60866797734E+03  0.19999999755E+01 0.  0.
        -13    1    3    3    0    0 -0.19686478331E+02 -0.14604640522E+02 -0.82157170272E+02  0.85736017781E+02  0.10566000000E+00 0.  1.
         13    1    4    4    0    0  0.79505851076E+01  0.58280531355E+01 -0.26273984876E+03  0.26292473695E+03  0.10566000000E+00 0. -1.
        -13    1    4    4    0    0  0.47573640791E+00  0.17846367475E+00 -0.13478886580E+02  0.13488874004E+02  0.10566000000E+00 0. -1.
        -14    1    4    4    0    0  0.11260156815E+02  0.85981237120E+01 -0.33195217295E+03  0.33225436639E+03  0.00000000000E+00 0.  1.
<mgrwt>
<rscale>  0 0.75126909E+02</rscale>
<asrwt>0</asrwt>
<pdfrwt beam="1">  1        2 0.10651766E+00 0.75126909E+02</pdfrwt>
<pdfrwt beam="2">  1       -1 0.31353260E-03 0.75126909E+02</pdfrwt>
<totfact> 0.39268958E+05</totfact>
</mgrwt>
</event>
<event>
 8    1  0.1226832E-024  0.7960923E+02  0.7818608E-02  0.1330164E+00
          2   -1    0    0  501    0  0.00000000000E+00  0.00000000000E+00  0.11006593008E+03  0.11006593011E+03  0.25500000000E-02 0. -1.
         -1   -1    0    0    0  501 -0.00000000000E+00 -0.00000000000E+00 -0.14395076623E+02  0.14395077505E+02  0.50400000000E-02 0.  1.
         24    2    1    2    0    0  0.00000000000E+00  0.35527136788E-14  0.95670853456E+02  0.12446100761E+03  0.79609234485E+02 0.  0.
         66    2    3    3    0    0 -0.17130231650E+02 -0.21270603517E+02  0.93083166236E+02  0.97027621028E+02  0.19999988656E+01 0.  0.
        -13    1    3    3    0    0  0.17130231650E+02  0.21270603517E+02  0.25876872191E+01  0.27433386585E+02  0.10566000000E+00 0.  1.
         13    1    4    4    0    0 -0.59966288294E+01 -0.63651558301E+01  0.30835848777E+02  0.32052074814E+02  0.10566000000E+00 0. -1.
        -13    1    4    4    0    0 -0.31559226314E+01 -0.45856482897E+01  0.19987141789E+02  0.20748132900E+02  0.10566000000E+00 0.  1.
        -14    1    4    4    0    0 -0.79776801890E+01 -0.10319799397E+02  0.42260175671E+02  0.44227413315E+02  0.00000000000E+00 0.  1.
<mgrwt>
<rscale>  0 0.79609234E+02</rscale>
<asrwt>0</asrwt>
<pdfrwt beam="1">  1        2 0.16933220E-01 0.79609234E+02</pdfrwt>
<pdfrwt beam="2">  1       -1 0.22146273E-02 0.79609234E+02</pdfrwt>
<totfact> 0.18456820E+05</totfact>
</mgrwt>
</event>
<event>
 8    1  0.1226832E-024  0.7946425E+02  0.7818608E-02  0.1330579E+00
         -1   -1    0    0    0  501 -0.00000000000E+00  0.00000000000E+00  0.78124442745E+01  0.78124459002E+01  0.50400000000E-02 0.  1.
          2   -1    0    0  501    0  0.00000000000E+00 -0.00000000000E+00 -0.20206754329E+03  0.20206754331E+03  0.25500000000E-02 0. -1.
         24    2    1    2    0    0  0.88817841970E-15  0.00000000000E+00 -0.19425509902E+03  0.20987998921E+03  0.79464245895E+02 0.  0.
         66    2    3    3    0    0  0.48124082057E+01  0.34560716848E+02 -0.14723465259E+03  0.15132628764E+03  0.19999959108E+01 0.  0.
        -13    1    3    3    0    0 -0.48124082057E+01 -0.34560716848E+02 -0.47020446422E+02  0.58553701570E+02  0.10566000000E+00 0.  1.
         13    1    4    4    0    0  0.26103215972E+01  0.23913198284E+02 -0.99848278302E+02  0.10270513461E+03  0.10566000000E+00 0. -1.
        -13    1    4    4    0    0  0.59240276188E+00  0.40878957421E+01 -0.18415739520E+02  0.18873591569E+02  0.10566000000E+00 0.  1.
        -14    1    4    4    0    0  0.16096838466E+01  0.65596228222E+01 -0.28970634772E+02  0.29747561459E+02  0.00000000000E+00 0.  1.
<mgrwt>
<rscale>  0 0.79464246E+02</rscale>
<asrwt>0</asrwt>
<pdfrwt beam="1">  1        2 0.31087310E-01 0.79464246E+02</pdfrwt>
<pdfrwt beam="2">  1       -1 0.12019148E-02 0.79464246E+02</pdfrwt>
<totfact> 0.22533357E+05</totfact>
</mgrwt>
</event>
<event>
 8    1  0.1226832E-024  0.7558286E+02  0.7818608E-02  0.1342076E+00
          2   -1    0    0  501    0  0.00000000000E+00  0.00000000000E+00  0.59966783881E+02  0.59966783935E+02  0.25500000000E-02 0. -1.
         -1   -1    0    0    0  501 -0.00000000000E+00 -0.00000000000E+00 -0.23816384600E+02  0.23816385133E+02  0.50400000000E-02 0.  1.
         24    2    1    2    0    0  0.35527136788E-14  0.00000000000E+00  0.36150399281E+02  0.83783169068E+02  0.75582855535E+02 0.  0.
         66    2    3    3    0    0  0.20775708020E+02 -0.13981641981E+02  0.49422561367E+02  0.55441013069E+02  0.20000004480E+01 0.  0.
        -13    1    3    3    0    0 -0.20775708020E+02  0.13981641981E+02 -0.13272162086E+02  0.28342155999E+02  0.10566000000E+00 0.  1.
         13    1    4    4    0    0  0.77462365193E+01 -0.56572524609E+01  0.17645822979E+02  0.20084693631E+02  0.10566000000E+00 0. -1.
        -13    1    4    4    0    0  0.58695361117E+01 -0.33974678341E+01  0.14986240648E+02  0.16449705610E+02  0.10566000000E+00 0.  1.
         14    1    4    4    0    0  0.71599353890E+01 -0.49269216864E+01  0.16790497739E+02  0.18906613827E+02  0.00000000000E+00 0. -1.
<mgrwt>
<rscale>  0 0.75582856E+02</rscale>
<asrwt>0</asrwt>
<pdfrwt beam="1">  1        2 0.92256590E-02 0.75582856E+02</pdfrwt>
<pdfrwt beam="2">  1       -1 0.36640593E-02 0.75582856E+02</pdfrwt>
<totfact> 0.18154427E+05</totfact>
</mgrwt>
</event>
<event>
 8    1  0.1226832E-024  0.7957346E+02  0.7818608E-02  0.1330266E+00
          2   -1    0    0  501    0  0.00000000000E+00  0.00000000000E+00  0.30143518424E+03  0.30143518425E+03  0.25500000000E-02 0. -1.
         -1   -1    0    0    0  501 -0.00000000000E+00 -0.00000000000E+00 -0.52514884497E+01  0.52514908682E+01  0.50400000000E-02 0.  1.
         24    2    1    2    0    0 -0.88817841970E-15  0.17763568394E-14  0.29618369579E+03  0.30668667511E+03  0.79573456903E+02 0.  0.
         66    2    3    3    0    0  0.51678907357E+01  0.94686992570E+01  0.29568393900E+03  0.29588740286E+03  0.20000070575E+01 0.  0.
        -13    1    3    3    0    0 -0.51678907357E+01 -0.94686992570E+01  0.49975678204E+00  0.10799272251E+02  0.10566000000E+00 0.  1.
         13    1    4    4    0    0  0.54324015222E+00  0.31773184124E+00  0.20769926318E+02  0.20779727301E+02  0.10566000000E+00 0. -1.
        -13    1    4    4    0    0  0.89701183346E+00  0.24619623888E+01  0.59992088032E+02  0.60049377012E+02  0.10566000000E+00 0.  1.
         14    1    4    4    0    0  0.37276387500E+01  0.66890050269E+01  0.21492192465E+03  0.21505829855E+03  0.00000000000E+00 0. -1.
<mgrwt>
<rscale>  0 0.79573457E+02</rscale>
<asrwt>0</asrwt>
<pdfrwt beam="1">  1        2 0.46374645E-01 0.79573457E+02</pdfrwt>
<pdfrwt beam="2">  1       -1 0.80792147E-03 0.79573457E+02</pdfrwt>
<totfact> 0.25898930E+05</totfact>
</mgrwt>
</event>
<event>
 8    1  0.1226832E-024  0.7838385E+02  0.7818608E-02  0.1333701E+00
         -1   -1    0    0    0  501 -0.00000000000E+00  0.00000000000E+00  0.11687063686E+03  0.11687063697E+03  0.50400000000E-02 0.  1.
          2   -1    0    0  501    0  0.00000000000E+00 -0.00000000000E+00 -0.13142796699E+02  0.13142796947E+02  0.25500000000E-02 0. -1.
         24    2    1    2    0    0  0.00000000000E+00 -0.35527136788E-14  0.10372784016E+03  0.13001343392E+03  0.78383851489E+02 0.  0.
         66    2    3    3    0    0  0.55373457197E+01  0.20288580114E+02 -0.29068759988E+01  0.21324600381E+02  0.19999931627E+01 0.  0.
        -13    1    3    3    0    0 -0.55373457197E+01 -0.20288580114E+02  0.10663471616E+03  0.10868883354E+03  0.10566000000E+00 0.  1.
         13    1    4    4    0    0  0.43735403487E+01  0.16175062707E+02 -0.17936917695E+01  0.16851973266E+02  0.10566000000E+00 0. -1.
        -13    1    4    4    0    0  0.81505728509E+00  0.31661899666E+01 -0.55113915135E+00  0.33172271075E+01  0.10566000000E+00 0.  1.
        -14    1    4    4    0    0  0.34874808590E+00  0.94732744097E+00 -0.56204507796E+00  0.11554000076E+01  0.00000000000E+00 0.  1.
<mgrwt>
<rscale>  0 0.78383851E+02</rscale>
<asrwt>0</asrwt>
<pdfrwt beam="1">  1        2 0.20219688E-02 0.78383851E+02</pdfrwt>
<pdfrwt beam="2">  1       -1 0.17980098E-01 0.78383851E+02</pdfrwt>
<totfact> 0.12054542E+05</totfact>
</mgrwt>
</event>
<event>
 8    1  0.1226832E-024  0.8078180E+02  0.7818608E-02  0.1326847E+00
         -1   -1    0    0    0  501 -0.00000000000E+00  0.00000000000E+00  0.51866744142E+02  0.51866744387E+02  0.50400000000E-02 0.  1.
          2   -1    0    0  501    0  0.00000000000E+00 -0.00000000000E+00 -0.31454157349E+02  0.31454157452E+02  0.25500000000E-02 0. -1.
         24    2    1    2    0    0  0.00000000000E+00  0.35527136788E-14  0.20412586793E+02  0.83320901839E+02  0.80781798591E+02 0.  0.
         66    2    3    3    0    0 -0.21940090820E+02  0.28257090602E+02 -0.90724542433E+01  0.36961333642E+02  0.20000010313E+01 0.  0.
        -13    1    3    3    0    0  0.21940090820E+02 -0.28257090602E+02  0.29485041037E+02  0.46359568197E+02  0.10566000000E+00 0.  1.
         13    1    4    4    0    0 -0.81587857713E+01  0.10501430568E+02 -0.35809449899E+01  0.13772442060E+02  0.10566000000E+00 0. -1.
        -13    1    4    4    0    0 -0.11448794820E+02  0.15618433350E+02 -0.47544034186E+01  0.19940558644E+02  0.10566000000E+00 0.  1.
        -14    1    4    4    0    0 -0.23325102280E+01  0.21372266846E+01 -0.73710583488E+00  0.32483329381E+01  0.00000000000E+00 0.  1.
<mgrwt>
<rscale>  0 0.80781799E+02</rscale>
<asrwt>0</asrwt>
<pdfrwt beam="1">  1        2 0.48391012E-02 0.80781799E+02</pdfrwt>
<pdfrwt beam="2">  1       -1 0.79794991E-02 0.80781799E+02</pdfrwt>
<totfact> 0.13217123E+05</totfact>
</mgrwt>
</event>
<event>
 8    1  0.1226832E-024  0.7954227E+02  0.7818608E-02  0.1330355E+00
          2   -1    0    0  501    0  0.00000000000E+00  0.00000000000E+00  0.28992237043E+03  0.28992237044E+03  0.25500000000E-02 0. -1.
         -1   -1    0    0    0  501 -0.00000000000E+00 -0.00000000000E+00 -0.54557455792E+01  0.54557479072E+01  0.50400000000E-02 0.  1.
         24    2    1    2    0    0  0.00000000000E+00 -0.35527136788E-14  0.28446662485E+03  0.29537811835E+03  0.79542266406E+02 0.  0.
         66    2    3    3    0    0 -0.19940199285E+02  0.30213349789E+02  0.20326017275E+03  0.20646829280E+03  0.20000126235E+01 0.  0.
        -13    1    3    3    0    0  0.19940199285E+02 -0.30213349789E+02  0.81206452096E+02  0.88909825549E+02  0.10566000000E+00 0.  1.
         13    1    4    4    0    0 -0.12310203425E+02  0.18598967052E+02  0.12128943499E+03  0.12332315634E+03  0.10566000000E+00 0. -1.
        -13    1    4    4    0    0 -0.11022957748E+01  0.12197108727E+01  0.91163788089E+01  0.92640313693E+01  0.10566000000E+00 0.  1.
        -14    1    4    4    0    0 -0.65277000851E+01  0.10394671864E+02  0.72854358951E+02  0.73881105093E+02  0.00000000000E+00 0.  1.
<mgrwt>
<rscale>  0 0.79542266E+02</rscale>
<asrwt>0</asrwt>
<pdfrwt beam="1">  1        2 0.44603433E-01 0.79542266E+02</pdfrwt>
<pdfrwt beam="2">  1       -1 0.83934581E-03 0.79542266E+02</pdfrwt>
<totfact> 0.25562663E+05</totfact>
</mgrwt>
</event>
<event>
 8    1  0.1226832E-024  0.7872267E+02  0.7818608E-02  0.1332716E+00
         -1   -1    0    0    0  501 -0.00000000000E+00  0.00000000000E+00  0.15505267582E+03  0.15505267591E+03  0.50400000000E-02 0.  1.
          2   -1    0    0  501    0  0.00000000000E+00 -0.00000000000E+00 -0.99921821949E+01  0.99921825203E+01  0.25500000000E-02 0. -1.
         24    2    1    2    0    0  0.00000000000E+00  0.35527136788E-14  0.14506049363E+03  0.16504485843E+03  0.78722668152E+02 0.  0.
         66    2    3    3    0    0 -0.93215643667E+01  0.27060161843E+02  0.16002873733E+02  0.32851725705E+02  0.19999982252E+01 0.  0.
        -13    1    3    3    0    0  0.93215643667E+01 -0.27060161843E+02  0.12905761990E+03  0.13219313272E+03  0.10566000000E+00 0.  1.
         13    1    4    4    0    0 -0.37251271591E+01  0.12199031133E+02  0.78105772232E+01  0.14956911898E+02  0.10566000000E+00 0. -1.
        -13    1    4    4    0    0 -0.13557997408E+01  0.43987787333E+01  0.20109599521E+01  0.50241985675E+01  0.10566000000E+00 0.  1.
        -14    1    4    4    0    0 -0.42406374667E+01  0.10462351977E+02  0.61813365575E+01  0.12870615240E+02  0.00000000000E+00 0.  1.
<mgrwt>
<rscale>  0 0.78722668E+02</rscale>
<asrwt>0</asrwt>
<pdfrwt beam="1">  1        2 0.15372587E-02 0.78722668E+02</pdfrwt>
<pdfrwt beam="2">  1       -1 0.23854259E-01 0.78722668E+02</pdfrwt>
<totfact> 0.11140162E+05</totfact>
</mgrwt>
</event>
<event>
 8    1  0.1226832E-024  0.7690770E+02  0.7818608E-02  0.1338063E+00
         -1   -1    0    0    0  501 -0.00000000000E+00  0.00000000000E+00  0.33511181440E+01  0.33511219341E+01  0.50400000000E-02 0.  1.
          2   -1    0    0  501    0  0.00000000000E+00 -0.00000000000E+00 -0.44125506655E+03  0.44125506656E+03  0.25500000000E-02 0. -1.
         24    2    1    2    0    0  0.35527136788E-14  0.00000000000E+00 -0.43790394840E+03  0.44460618849E+03  0.76907703225E+02 0.  0.
         66    2    3    3    0    0  0.20075594285E+02  0.15986528863E+02 -0.38445092034E+03  0.38531170338E+03  0.20000053379E+01 0.  0.
        -13    1    3    3    0    0 -0.20075594285E+02 -0.15986528863E+02 -0.53453028064E+02  0.59294485108E+02  0.10566000000E+00 0.  1.
         13    1    4    4    0    0  0.73507919832E+01  0.60445458768E+01 -0.15334286022E+03  0.15363793354E+03  0.10566000000E+00 0. -1.
        -13    1    4    4    0    0  0.14787876538E+01  0.11143539986E+01 -0.22442577724E+02  0.22519082058E+02  0.10566000000E+00 0.  1.
         14    1    4    4    0    0  0.11246014648E+02  0.88276289871E+01 -0.20866548240E+03  0.20915468778E+03  0.00000000000E+00 0. -1.
<mgrwt>
<rscale>  0 0.76907703E+02</rscale>
<asrwt>0</asrwt>
<pdfrwt beam="1">  1        2 0.67885349E-01 0.76907703E+02</pdfrwt>
<pdfrwt beam="2">  1       -1 0.51555728E-03 0.76907703E+02</pdfrwt>
<totfact> 0.32384366E+05</totfact>
</mgrwt>
</event>
<event>
 8    1  0.1226832E-024  0.7701262E+02  0.7818608E-02  0.1337749E+00
          2   -1    0    0  501    0  0.00000000000E+00  0.00000000000E+00  0.25362514432E+02  0.25362514561E+02  0.25500000000E-02 0. -1.
         -1   -1    0    0    0  501 -0.00000000000E+00 -0.00000000000E+00 -0.58461705983E+02  0.58461706200E+02  0.50400000000E-02 0.  1.
         24    2    1    2    0    0  0.00000000000E+00  0.00000000000E+00 -0.33099191550E+02  0.83824220760E+02  0.77012619127E+02 0.  0.
         66    2    3    3    0    0  0.30563257824E+02  0.23043774967E+02 -0.12261331051E+02  0.40242620426E+02  0.19999915174E+01 0.  0.
        -13    1    3    3    0    0 -0.30563257824E+02 -0.23043774967E+02 -0.20837860499E+02  0.43581600334E+02  0.10566000000E+00 0.  1.
         13    1    4    4    0    0  0.13064601110E+02  0.10180983865E+02 -0.48772960019E+01  0.17266598245E+02  0.10566000000E+00 0. -1.
        -13    1    4    4    0    0  0.10395963136E+02  0.70033975185E+01 -0.38467637139E+01  0.13112298861E+02  0.10566000000E+00 0.  1.
        -14    1    4    4    0    0  0.71026935777E+01  0.58593935835E+01 -0.35372713356E+01  0.98637233197E+01  0.00000000000E+00 0.  1.
<mgrwt>
<rscale>  0 0.77012619E+02</rscale>
<asrwt>0</asrwt>
<pdfrwt beam="1">  1        2 0.39019253E-02 0.77012619E+02</pdfrwt>
<pdfrwt beam="2">  1       -1 0.89941086E-02 0.77012619E+02</pdfrwt>
<totfact> 0.14491810E+05</totfact>
</mgrwt>
</event>
<event>
 8    1  0.1226832E-024  0.7798064E+02  0.7818608E-02  0.1334882E+00
          2   -1    0    0  501    0  0.00000000000E+00  0.00000000000E+00  0.11886502736E+03  0.11886502739E+03  0.25500000000E-02 0. -1.
         -1   -1    0    0    0  501 -0.00000000000E+00 -0.00000000000E+00 -0.12789674969E+02  0.12789675962E+02  0.50400000000E-02 0.  1.
         24    2    1    2    0    0  0.00000000000E+00  0.00000000000E+00  0.10607535239E+03  0.13165470335E+03  0.77980642015E+02 0.  0.
         66    2    3    3    0    0 -0.20172093085E+02 -0.12517875103E+02  0.10523600394E+03  0.10789915229E+03  0.20000007995E+01 0.  0.
        -13    1    3    3    0    0  0.20172093085E+02  0.12517875103E+02  0.83934845685E+00  0.23755551064E+02  0.10566000000E+00 0.  1.
         13    1    4    4    0    0 -0.12531192290E+02 -0.79197048384E+01  0.68468006042E+02  0.70054489651E+02  0.10566000000E+00 0.  1.
        -13    1    4    4    0    0 -0.63444013500E+01 -0.41492540709E+01  0.30483861769E+02  0.31412493219E+02  0.10566000000E+00 0. -1.
         14    1    4    4    0    0 -0.12964994450E+01 -0.44891619337E+00  0.62841361251E+01  0.64321694162E+01  0.00000000000E+00 0. -1.
<mgrwt>
<rscale>  0 0.77980642E+02</rscale>
<asrwt>0</asrwt>
<pdfrwt beam="1">  1        2 0.18286927E-01 0.77980642E+02</pdfrwt>
<pdfrwt beam="2">  1       -1 0.19676424E-02 0.77980642E+02</pdfrwt>
<totfact> 0.19946626E+05</totfact>
</mgrwt>
</event>
<event>
 8    1  0.1226832E-024  0.8363556E+02  0.7818608E-02  0.1319040E+00
         -1   -1    0    0    0  501 -0.00000000000E+00  0.00000000000E+00  0.51749547628E+01  0.51749572171E+01  0.50400000000E-02 0.  1.
          2   -1    0    0  501    0  0.00000000000E+00 -0.00000000000E+00 -0.33792107903E+03  0.33792107904E+03  0.25500000000E-02 0. -1.
         24    2    1    2    0    0  0.11102230246E-15  0.35527136788E-14 -0.33274612427E+03  0.34309603626E+03  0.83635559902E+02 0.  0.
         66    2    3    3    0    0  0.67489222236E+00  0.27654564674E+02 -0.29498711874E+03  0.29628808726E+03  0.20000006169E+01 0.  0.
        -13    1    3    3    0    0 -0.67489222236E+00 -0.27654564674E+02 -0.37759005523E+02  0.46807948993E+02  0.10566000000E+00 0.  1.
         13    1    4    4    0    0  0.26589431960E-01  0.16199911570E+01 -0.14820905613E+02  0.14909576975E+02  0.10566000000E+00 0. -1.
        -13    1    4    4    0    0 -0.47781048982E+00  0.52705789051E+01 -0.58749975136E+02  0.58987948323E+02  0.10566000000E+00 0.  1.
        -14    1    4    4    0    0  0.11261132802E+01  0.20763994612E+02 -0.22141623799E+03  0.22239056196E+03  0.00000000000E+00 0.  1.
<mgrwt>
<rscale>  0 0.83635560E+02</rscale>
<asrwt>0</asrwt>
<pdfrwt beam="1">  1        2 0.51987841E-01 0.83635560E+02</pdfrwt>
<pdfrwt beam="2">  1       -1 0.79614734E-03 0.83635560E+02</pdfrwt>
<totfact> 0.23684187E+05</totfact>
</mgrwt>
</event>
<event>
 8    1  0.1226832E-024  0.8021819E+02  0.7818608E-02  0.1328433E+00
         -1   -1    0    0    0  501 -0.00000000000E+00  0.00000000000E+00  0.14339142166E+02  0.14339143052E+02  0.50400000000E-02 0.  1.
          2   -1    0    0  501    0  0.00000000000E+00 -0.00000000000E+00 -0.11219217712E+03  0.11219217715E+03  0.25500000000E-02 0. -1.
         24    2    1    2    0    0 -0.35527136788E-14  0.35527136788E-14 -0.97853034956E+02  0.12653132020E+03  0.80218193337E+02 0.  0.
         66    2    3    3    0    0 -0.29896125335E+02  0.26533456429E+02 -0.53670963608E+02  0.66950541316E+02  0.20000069659E+01 0.  0.
        -13    1    3    3    0    0  0.29896125335E+02 -0.26533456429E+02 -0.44182071348E+02  0.59580778887E+02  0.10566000000E+00 0.  1.
         13    1    4    4    0    0 -0.15053452574E+02  0.13802990431E+02 -0.28342585776E+02  0.34934829493E+02  0.10566000000E+00 0. -1.
        -13    1    4    4    0    0 -0.27607370772E+01  0.19516960112E+01 -0.40210654563E+01  0.52546092119E+01  0.10566000000E+00 0.  1.
        -14    1    4    4    0    0 -0.12081935684E+02  0.10778769987E+02 -0.21307312376E+02  0.26761102611E+02  0.00000000000E+00 0.  1.
<mgrwt>
<rscale>  0 0.80218193E+02</rscale>
<asrwt>0</asrwt>
<pdfrwt beam="1">  1        2 0.17260334E-01 0.80218193E+02</pdfrwt>
<pdfrwt beam="2">  1       -1 0.22060220E-02 0.80218193E+02</pdfrwt>
<totfact> 0.18185841E+05</totfact>
</mgrwt>
</event>
<event>
 8    1  0.1226832E-024  0.7814316E+02  0.7818608E-02  0.1334405E+00
         -1   -1    0    0    0  501 -0.00000000000E+00  0.00000000000E+00  0.28194911598E+01  0.28194956644E+01  0.50400000000E-02 0.  1.
          2   -1    0    0  501    0  0.00000000000E+00 -0.00000000000E+00 -0.54144060513E+03  0.54144060513E+03  0.25500000000E-02 0. -1.
         24    2    1    2    0    0  0.00000000000E+00  0.00000000000E+00 -0.53862111397E+03  0.54426010080E+03  0.78143156506E+02 0.  0.
         66    2    3    3    0    0 -0.10822345249E+02  0.12918086785E+02 -0.51480395578E+03  0.51508359808E+03  0.19999995129E+01 0.  0.
        -13    1    3    3    0    0  0.10822345249E+02 -0.12918086785E+02 -0.23817158187E+02  0.29176502720E+02  0.10566000000E+00 0.  1.
         13    1    4    4    0    0 -0.41889151837E+01  0.52352286190E+01 -0.21782607263E+03  0.21792926309E+03  0.10566000000E+00 0. -1.
        -13    1    4    4    0    0 -0.36328483849E+01  0.51946179899E+01 -0.18600839957E+03  0.18611640851E+03  0.10566000000E+00 0.  1.
        -14    1    4    4    0    0 -0.30005816801E+01  0.24882401757E+01 -0.11096948358E+03  0.11103792648E+03  0.00000000000E+00 0.  1.
<mgrwt>
<rscale>  0 0.78143157E+02</rscale>
<asrwt>0</asrwt>
<pdfrwt beam="1">  1        2 0.83298472E-01 0.78143157E+02</pdfrwt>
<pdfrwt beam="2">  1       -1 0.43376865E-03 0.78143157E+02</pdfrwt>
<totfact> 0.33181123E+05</totfact>
</mgrwt>
</event>
<event>
 8    1  0.1226832E-024  0.7839243E+02  0.7818608E-02  0.1333676E+00
         -1   -1    0    0    0  501 -0.00000000000E+00  0.00000000000E+00  0.12866037597E+02  0.12866038584E+02  0.50400000000E-02 0.  1.
          2   -1    0    0  501    0  0.00000000000E+00 -0.00000000000E+00 -0.11941075758E+03  0.11941075761E+03  0.25500000000E-02 0. -1.
         24    2    1    2    0    0  0.35527136788E-14  0.00000000000E+00 -0.10654471998E+03  0.13227679619E+03  0.78392432380E+02 0.  0.
         66    2    3    3    0    0 -0.17372922690E+02 -0.20790670006E+02 -0.10104087549E+03  0.10462948402E+03  0.20000010008E+01 0.  0.
        -13    1    3    3    0    0  0.17372922690E+02  0.20790670006E+02 -0.55038444908E+01  0.27647312171E+02  0.10566000000E+00 0.  1.
         13    1    4    4    0    0 -0.75467047036E+01 -0.98093230829E+01 -0.44985562498E+02  0.46657127736E+02  0.10566000000E+00 0. -1.
        -13    1    4    4    0    0 -0.67989318211E+01 -0.69266492784E+01 -0.38197161388E+02  0.39411143681E+02  0.10566000000E+00 0.  1.
        -14    1    4    4    0    0 -0.30272861651E+01 -0.40546976448E+01 -0.17858151606E+02  0.18561212604E+02  0.00000000000E+00 0.  1.
<mgrwt>
<rscale>  0 0.78392432E+02</rscale>
<asrwt>0</asrwt>
<pdfrwt beam="1">  1        2 0.18370885E-01 0.78392432E+02</pdfrwt>
<pdfrwt beam="2">  1       -1 0.19793906E-02 0.78392432E+02</pdfrwt>
<totfact> 0.19695880E+05</totfact>
</mgrwt>
</event>
<event>
 8    1  0.1226832E-024  0.8426089E+02  0.7818608E-02  0.1317377E+00
          2   -1    0    0  501    0  0.00000000000E+00  0.00000000000E+00  0.10572559650E+03  0.10572559653E+03  0.25500000000E-02 0. -1.
         -1   -1    0    0    0  501 -0.00000000000E+00 -0.00000000000E+00 -0.16788500083E+02  0.16788500840E+02  0.50400000000E-02 0.  1.
         24    2    1    2    0    0 -0.44408920985E-15  0.35527136788E-14  0.88937096421E+02  0.12251409737E+03  0.84260886156E+02 0.  0.
         66    2    3    3    0    0 -0.38274811781E+01  0.26014662694E+02  0.92310796719E+02  0.96003621993E+02  0.19999893979E+01 0.  0.
        -13    1    3    3    0    0  0.38274811781E+01 -0.26014662694E+02 -0.33737002983E+01  0.26510475382E+02  0.10566000000E+00 0.  1.
         13    1    4    4    0    0 -0.28256273156E+01  0.19831377228E+02  0.68110178649E+02  0.70994896240E+02  0.10566000000E+00 0. -1.
        -13    1    4    4    0    0 -0.13552172873E-01  0.25878105407E+00  0.15617148681E+01  0.15865902622E+01  0.10566000000E+00 0. -1.
         14    1    4    4    0    0 -0.98830168954E+00  0.59245044113E+01  0.22638903202E+02  0.23422135491E+02  0.00000000000E+00 0. -1.
<mgrwt>
<rscale>  0 0.84260886E+02</rscale>
<asrwt>0</asrwt>
<pdfrwt beam="1">  1        2 0.16265476E-01 0.84260886E+02</pdfrwt>
<pdfrwt beam="2">  1       -1 0.25828463E-02 0.84260886E+02</pdfrwt>
<totfact> 0.15666660E+05</totfact>
</mgrwt>
</event>
<event>
 8    1  0.1226832E-024  0.7960162E+02  0.7818608E-02  0.1330186E+00
          2   -1    0    0  501    0  0.00000000000E+00  0.00000000000E+00  0.14242734789E+03  0.14242734791E+03  0.25500000000E-02 0. -1.
         -1   -1    0    0    0  501 -0.00000000000E+00 -0.00000000000E+00 -0.11122192899E+02  0.11122194041E+02  0.50400000000E-02 0.  1.
         24    2    1    2    0    0  0.71054273576E-14 -0.44408920985E-15  0.13130515499E+03  0.15354954195E+03  0.79601621258E+02 0.  0.
         66    2    3    3    0    0  0.39558362810E+02 -0.19766183294E+01  0.58651569413E+02  0.70800972482E+02  0.20000053683E+01 0.  0.
        -13    1    3    3    0    0 -0.39558362810E+02  0.19766183294E+01  0.72653585577E+02  0.82748569471E+02  0.10566000000E+00 0.  1.
         13    1    4    4    0    0  0.25638663009E+02 -0.95766110807E+00  0.37302722365E+02  0.45274301934E+02  0.10566000000E+00 0. -1.
        -13    1    4    4    0    0  0.67158354927E+00  0.11196557794E+00  0.86648691255E+00  0.11070340372E+01  0.10566000000E+00 0.  1.
        -14    1    4    4    0    0  0.13248116252E+02 -0.11309227993E+01  0.20482360136E+02  0.24419636511E+02  0.00000000000E+00 0.  1.
<mgrwt>
<rscale>  0 0.79601621E+02</rscale>
<asrwt>0</asrwt>
<pdfrwt beam="1">  1        2 0.21911900E-01 0.79601621E+02</pdfrwt>
<pdfrwt beam="2">  1       -1 0.17111067E-02 0.79601621E+02</pdfrwt>
<totfact> 0.19963908E+05</totfact>
</mgrwt>
</event>
<event>
 8    1  0.1226832E-024  0.8366599E+02  0.7818608E-02  0.1318958E+00
          2   -1    0    0  501    0  0.00000000000E+00  0.00000000000E+00  0.95326625812E+02  0.95326625846E+02  0.25500000000E-02 0. -1.
         -1   -1    0    0    0  501 -0.00000000000E+00 -0.00000000000E+00 -0.18357930984E+02  0.18357931676E+02  0.50400000000E-02 0.  1.
         24    2    1    2    0    0  0.00000000000E+00  0.00000000000E+00  0.76968694828E+02  0.11368455752E+03  0.83665994499E+02 0.  0.
         66    2    3    3    0    0  0.22457665695E+01 -0.36979025703E+02  0.64836777736E+02  0.74701402368E+02  0.19999897555E+01 0.  0.
        -13    1    3    3    0    0 -0.22457665695E+01  0.36979025703E+02  0.12131917092E+02  0.38983155155E+02  0.10566000000E+00 0.  1.
         13    1    4    4    0    0  0.15397527419E+01 -0.30474597606E+02  0.53149783532E+02  0.61286071756E+02  0.10566000000E+00 0. -1.
        -13    1    4    4    0    0  0.61190831449E+00 -0.49974869231E+01  0.95830192573E+01  0.10825651456E+02  0.10566000000E+00 0.  1.
        -14    1    4    4    0    0  0.94105513054E-01 -0.15069411740E+01  0.21039749471E+01  0.25896791553E+01  0.00000000000E+00 0.  1.
<mgrwt>
<rscale>  0 0.83665994E+02</rscale>
<asrwt>0</asrwt>
<pdfrwt beam="1">  1        2 0.14665635E-01 0.83665994E+02</pdfrwt>
<pdfrwt beam="2">  1       -1 0.28242971E-02 0.83665994E+02</pdfrwt>
<totfact> 0.15506266E+05</totfact>
</mgrwt>
</event>
<event>
 8    1  0.1226832E-024  0.7771729E+02  0.7818608E-02  0.1335657E+00
         -1   -1    0    0    0  501 -0.00000000000E+00  0.00000000000E+00  0.22789020230E+02  0.22789020787E+02  0.50400000000E-02 0.  1.
          2   -1    0    0  501    0  0.00000000000E+00 -0.00000000000E+00 -0.66259731460E+02  0.66259731509E+02  0.25500000000E-02 0. -1.
         24    2    1    2    0    0  0.00000000000E+00  0.00000000000E+00 -0.43470711230E+02  0.89048752297E+02  0.77717292482E+02 0.  0.
         66    2    3    3    0    0  0.60747175340E+01 -0.38309634285E+02 -0.19618640103E+02  0.43513461222E+02  0.19999989584E+01 0.  0.
        -13    1    3    3    0    0 -0.60747175340E+01  0.38309634285E+02 -0.23852071128E+02  0.45535291075E+02  0.10566000000E+00 0.  1.
         13    1    4    4    0    0  0.26650603835E+01 -0.17916361551E+02 -0.93863490382E+01  0.20401305605E+02  0.10566000000E+00 0. -1.
        -13    1    4    4    0    0  0.79750685231E+00 -0.89418589786E+01 -0.44792565686E+01  0.10033332578E+02  0.10566000000E+00 0.  1.
         14    1    4    4    0    0  0.26121502983E+01 -0.11451413755E+02 -0.57530344958E+01  0.13078823039E+02  0.00000000000E+00 0. -1.
<mgrwt>
<rscale>  0 0.77717292E+02</rscale>
<asrwt>0</asrwt>
<pdfrwt beam="1">  1        2 0.10193805E-01 0.77717292E+02</pdfrwt>
<pdfrwt beam="2">  1       -1 0.35060032E-02 0.77717292E+02</pdfrwt>
<totfact> 0.17232190E+05</totfact>
</mgrwt>
</event>
<event>
 8    1  0.1226832E-024  0.7928415E+02  0.7818608E-02  0.1331095E+00
         -1   -1    0    0    0  501 -0.00000000000E+00  0.00000000000E+00  0.45104465918E+02  0.45104466199E+02  0.50400000000E-02 0.  1.
          2   -1    0    0  501    0  0.00000000000E+00 -0.00000000000E+00 -0.34841207006E+02  0.34841207099E+02  0.25500000000E-02 0. -1.
         24    2    1    2    0    0  0.00000000000E+00  0.00000000000E+00  0.10263258911E+02  0.79945673299E+02  0.79284148452E+02 0.  0.
         66    2    3    3    0    0  0.17476590278E+02  0.40690118066E+01 -0.30479794978E+02  0.35426063360E+02  0.19999996183E+01 0.  0.
        -13    1    3    3    0    0 -0.17476590278E+02 -0.40690118066E+01  0.40743053889E+02  0.44519609939E+02  0.10566000000E+00 0.  1.
         13    1    4    4    0    0  0.53323366717E+01  0.82012003381E+00 -0.81484059244E+01  0.97731312483E+01  0.10566000000E+00 0. -1.
        -13    1    4    4    0    0  0.11152490287E+02  0.31705791728E+01 -0.21032536705E+02  0.24016856084E+02  0.10566000000E+00 0.  1.
        -14    1    4    4    0    0  0.99176331924E+00  0.78312599949E-01 -0.12988523484E+01  0.16360760275E+01  0.00000000000E+00 0.  1.
<mgrwt>
<rscale>  0 0.79284148E+02</rscale>
<asrwt>0</asrwt>
<pdfrwt beam="1">  1        2 0.53601857E-02 0.79284148E+02</pdfrwt>
<pdfrwt beam="2">  1       -1 0.69391487E-02 0.79284148E+02</pdfrwt>
<totfact> 0.14212094E+05</totfact>
</mgrwt>
</event>
<event>
 8    1  0.1226832E-024  0.8100918E+02  0.7818608E-02  0.1326212E+00
         -1   -1    0    0    0  501 -0.00000000000E+00  0.00000000000E+00  0.27422525714E+02  0.27422526178E+02  0.50400000000E-02 0.  1.
          2   -1    0    0  501    0  0.00000000000E+00 -0.00000000000E+00 -0.59827527156E+02  0.59827527210E+02  0.25500000000E-02 0. -1.
         24    2    1    2    0    0  0.88817841970E-15  0.00000000000E+00 -0.32405001441E+02  0.87250053388E+02  0.81009182799E+02 0.  0.
         66    2    3    3    0    0 -0.79776939237E+01 -0.38687064827E+02 -0.66828749570E+01  0.40112260268E+02  0.20000052081E+01 0.  0.
        -13    1    3    3    0    0  0.79776939237E+01  0.38687064827E+02 -0.25722126484E+02  0.47137793120E+02  0.10566000000E+00 0.  1.
         13    1    4    4    0    0 -0.19541936271E+01 -0.79461573576E+01 -0.17766897540E+01  0.83742510114E+01  0.10566000000E+00 0.  1.
        -13    1    4    4    0    0 -0.11786999717E+01 -0.68561030456E+01 -0.53632592127E+00  0.69781295577E+01  0.10566000000E+00 0. -1.
         14    1    4    4    0    0 -0.48448003249E+01 -0.23884804424E+02 -0.43698592816E+01  0.24759879699E+02  0.00000000000E+00 0. -1.
<mgrwt>
<rscale>  0 0.81009183E+02</rscale>
<asrwt>0</asrwt>
<pdfrwt beam="1">  1        2 0.92042349E-02 0.81009183E+02</pdfrwt>
<pdfrwt beam="2">  1       -1 0.42188502E-02 0.81009183E+02</pdfrwt>
<totfact> 0.15033763E+05</totfact>
</mgrwt>
</event>
<event>
 8    1  0.1226832E-024  0.7861474E+02  0.7818608E-02  0.1333029E+00
         -1   -1    0    0    0  501 -0.00000000000E+00  0.00000000000E+00  0.14595235783E+02  0.14595236653E+02  0.50400000000E-02 0.  1.
          2   -1    0    0  501    0  0.00000000000E+00 -0.00000000000E+00 -0.10586120802E+03  0.10586120805E+03  0.25500000000E-02 0. -1.
         24    2    1    2    0    0  0.35527136788E-14 -0.35527136788E-14 -0.91265972240E+02  0.12045644471E+03  0.78614740238E+02 0.  0.
         66    2    3    3    0    0 -0.22822978857E+02  0.29863263190E+02 -0.63156909517E+02  0.73522092432E+02  0.20000009170E+01 0.  0.
        -13    1    3    3    0    0  0.22822978857E+02 -0.29863263190E+02 -0.28109062723E+02  0.46934352275E+02  0.10566000000E+00 0.  1.
         13    1    4    4    0    0 -0.68420773045E+01  0.86031055810E+01 -0.18633360484E+02  0.21634249108E+02  0.10566000000E+00 0. -1.
        -13    1    4    4    0    0 -0.76614757334E+01  0.11495512336E+02 -0.22720551967E+02  0.26590969519E+02  0.10566000000E+00 0.  1.
        -14    1    4    4    0    0 -0.83194258195E+01  0.97646452724E+01 -0.21802997066E+02  0.25296873805E+02  0.00000000000E+00 0.  1.
<mgrwt>
<rscale>  0 0.78614740E+02</rscale>
<asrwt>0</asrwt>
<pdfrwt beam="1">  1        2 0.16286339E-01 0.78614740E+02</pdfrwt>
<pdfrwt beam="2">  1       -1 0.22454210E-02 0.78614740E+02</pdfrwt>
<totfact> 0.18874551E+05</totfact>
</mgrwt>
</event>
<event>
 8    1  0.1226832E-024  0.8148930E+02  0.7818608E-02  0.1324877E+00
         -1   -1    0    0    0  501 -0.00000000000E+00  0.00000000000E+00  0.35024019472E+01  0.35024055735E+01  0.50400000000E-02 0.  1.
          2   -1    0    0  501    0  0.00000000000E+00 -0.00000000000E+00 -0.47399628590E+03  0.47399628591E+03  0.25500000000E-02 0. -1.
         24    2    1    2    0    0  0.00000000000E+00 -0.35527136788E-14 -0.47049388396E+03  0.47749869148E+03  0.81489297018E+02 0.  0.
         66    2    3    3    0    0 -0.39539668095E+01 -0.28854528722E+02 -0.40214687778E+03  0.40320507064E+03  0.19999992951E+01 0.  0.
        -13    1    3    3    0    0  0.39539668095E+01  0.28854528722E+02 -0.68347006171E+02  0.74293620843E+02  0.10566000000E+00 0.  1.
         13    1    4    4    0    0 -0.27983309564E+01 -0.18823012674E+02 -0.26172225474E+03  0.26241319755E+03  0.10566000000E+00 0. -1.
        -13    1    4    4    0    0 -0.96559576759E+00 -0.37605551601E+01 -0.51628667204E+02  0.51774555446E+02  0.10566000000E+00 0.  1.
        -14    1    4    4    0    0 -0.19004008558E+00 -0.62709608878E+01 -0.88795955845E+02  0.89017317641E+02  0.00000000000E+00 0.  1.
<mgrwt>
<rscale>  0 0.81489297E+02</rscale>
<asrwt>0</asrwt>
<pdfrwt beam="1">  1        2 0.72922455E-01 0.81489297E+02</pdfrwt>
<pdfrwt beam="2">  1       -1 0.53883172E-03 0.81489297E+02</pdfrwt>
<totfact> 0.28523309E+05</totfact>
</mgrwt>
</event>
<event>
 8    1  0.1226832E-024  0.8053610E+02  0.7818608E-02  0.1327537E+00
          2   -1    0    0  501    0  0.00000000000E+00  0.00000000000E+00  0.59373594267E+02  0.59373594322E+02  0.25500000000E-02 0. -1.
         -1   -1    0    0    0  501 -0.00000000000E+00 -0.00000000000E+00 -0.27310383606E+02  0.27310384071E+02  0.50400000000E-02 0.  1.
         24    2    1    2    0    0  0.71054273576E-14  0.00000000000E+00  0.32063210662E+02  0.86683978393E+02  0.80536095212E+02 0.  0.
         66    2    3    3    0    0  0.25250537625E+02 -0.21021773189E+02  0.41053417013E+02  0.52620220928E+02  0.20000009184E+01 0.  0.
        -13    1    3    3    0    0 -0.25250537625E+02  0.21021773189E+02 -0.89902063514E+01  0.34063757465E+02  0.10566000000E+00 0.  1.
         13    1    4    4    0    0  0.84461281530E+01 -0.66855428293E+01  0.13953180356E+02  0.17627704609E+02  0.10566000000E+00 0. -1.
        -13    1    4    4    0    0  0.50823387442E+01 -0.36149393374E+01  0.82044473174E+01  0.10306409333E+02  0.10566000000E+00 0.  1.
         14    1    4    4    0    0  0.11722070728E+02 -0.10721291022E+02  0.18895789339E+02  0.24686106985E+02  0.00000000000E+00 0. -1.
<mgrwt>
<rscale>  0 0.80536095E+02</rscale>
<asrwt>0</asrwt>
<pdfrwt beam="1">  1        2 0.91343990E-02 0.80536095E+02</pdfrwt>
<pdfrwt beam="2">  1       -1 0.42015976E-02 0.80536095E+02</pdfrwt>
<totfact> 0.15248732E+05</totfact>
</mgrwt>
</event>
<event>
 8    1  0.1226832E-024  0.8116410E+02  0.7818608E-02  0.1325780E+00
          2   -1    0    0  501    0  0.00000000000E+00  0.00000000000E+00  0.64361462516E+03  0.64361462516E+03  0.25500000000E-02 0. -1.
         -1   -1    0    0    0  501 -0.00000000000E+00 -0.00000000000E+00 -0.25588314009E+01  0.25588363644E+01  0.50400000000E-02 0.  1.
         24    2    1    2    0    0  0.88817841970E-15 -0.71054273576E-14  0.64105579375E+03  0.64617346152E+03  0.81164103351E+02 0.  0.
         66    2    3    3    0    0 -0.62209311856E+01  0.37595556156E+02  0.43125886368E+03  0.43294379928E+03  0.20000016508E+01 0.  0.
        -13    1    3    3    0    0  0.62209311856E+01 -0.37595556156E+02  0.20979693007E+03  0.21322966224E+03  0.10566000000E+00 0.  1.
         13    1    4    4    0    0 -0.46271684610E+01  0.25007460010E+02  0.28469137159E+03  0.28582507232E+03  0.10566000000E+00 0. -1.
        -13    1    4    4    0    0 -0.10759319400E+01  0.10388399842E+02  0.11725450744E+03  0.11771876299E+03  0.10566000000E+00 0.  1.
        -14    1    4    4    0    0 -0.51783078452E+00  0.21996963040E+01  0.29312984649E+02  0.29399963973E+02  0.00000000000E+00 0.  1.
<mgrwt>
<rscale>  0 0.81164103E+02</rscale>
<asrwt>0</asrwt>
<pdfrwt beam="1">  1        2 0.99017704E-01 0.81164103E+02</pdfrwt>
<pdfrwt beam="2">  1       -1 0.39366648E-03 0.81164103E+02</pdfrwt>
<totfact> 0.31564980E+05</totfact>
</mgrwt>
</event>
<event>
 8    1  0.1226832E-024  0.8169422E+02  0.7818608E-02  0.1324311E+00
          2   -1    0    0  501    0  0.00000000000E+00  0.00000000000E+00  0.20506860542E+03  0.20506860544E+03  0.25500000000E-02 0. -1.
         -1   -1    0    0    0  501 -0.00000000000E+00 -0.00000000000E+00 -0.81362336500E+01  0.81362352110E+01  0.50400000000E-02 0.  1.
         24    2    1    2    0    0  0.00000000000E+00  0.00000000000E+00  0.19693237177E+03  0.21320484065E+03  0.81694216590E+02 0.  0.
         66    2    3    3    0    0 -0.29561446276E+02  0.24836604491E+02  0.13312276083E+03  0.13862325015E+03  0.20000006859E+01 0.  0.
        -13    1    3    3    0    0  0.29561446276E+02 -0.24836604491E+02  0.63809610943E+02  0.74581590499E+02  0.10566000000E+00 0.  1.
         13    1    4    4    0    0 -0.27740100270E+01  0.26889565365E+01  0.14464617687E+02  0.14972038864E+02  0.10566000000E+00 0.  1.
        -13    1    4    4    0    0 -0.92727994065E+01  0.69201922290E+01  0.38631142228E+02  0.40326792374E+02  0.10566000000E+00 0. -1.
        -14    1    4    4    0    0 -0.17514636843E+02  0.15227455726E+02  0.80027000912E+02  0.83324418909E+02  0.00000000000E+00 0.  1.
<mgrwt>
<rscale>  0 0.81694217E+02</rscale>
<asrwt>0</asrwt>
<pdfrwt beam="1">  1        2 0.31549012E-01 0.81694217E+02</pdfrwt>
<pdfrwt beam="2">  1       -1 0.12517285E-02 0.81694217E+02</pdfrwt>
<totfact> 0.21053754E+05</totfact>
</mgrwt>
</event>
<event>
 8    1  0.1226832E-024  0.7818326E+02  0.7818608E-02  0.1334288E+00
         -1   -1    0    0    0  501 -0.00000000000E+00  0.00000000000E+00  0.44731719461E+02  0.44731719745E+02  0.50400000000E-02 0.  1.
          2   -1    0    0  501    0  0.00000000000E+00 -0.00000000000E+00 -0.34162678502E+02  0.34162678597E+02  0.25500000000E-02 0. -1.
         24    2    1    2    0    0  0.00000000000E+00  0.00000000000E+00  0.10569040959E+02  0.78894398342E+02  0.78183255643E+02 0.  0.
         66    2    3    3    0    0  0.33265365108E+02 -0.17226630824E+01 -0.15308425139E+02  0.36713757053E+02  0.19999982202E+01 0.  0.
        -13    1    3    3    0    0 -0.33265365108E+02  0.17226630824E+01  0.25877466098E+02  0.42180641289E+02  0.10566000000E+00 0.  1.
         13    1    4    4    0    0  0.12629853282E+02 -0.73799203205E+00 -0.63338912117E+01  0.14148751468E+02  0.10566000000E+00 0. -1.
        -13    1    4    4    0    0  0.47821271767E+01 -0.67903738433E+00 -0.24746006830E+01  0.54281345488E+01  0.10566000000E+00 0.  1.
         14    1    4    4    0    0  0.15853384649E+02 -0.30563366604E+00 -0.64999332447E+01  0.17136871037E+02  0.00000000000E+00 0. -1.
<mgrwt>
<rscale>  0 0.78183256E+02</rscale>
<asrwt>0</asrwt>
<pdfrwt beam="1">  1        2 0.52557967E-02 0.78183256E+02</pdfrwt>
<pdfrwt beam="2">  1       -1 0.68818031E-02 0.78183256E+02</pdfrwt>
<totfact> 0.14717172E+05</totfact>
</mgrwt>
</event>
<event>
 8    1  0.1226832E-024  0.7906464E+02  0.7818608E-02  0.1331727E+00
         -1   -1    0    0    0  501 -0.00000000000E+00  0.00000000000E+00  0.20765286249E+01  0.20765347413E+01  0.50400000000E-02 0.  1.
          2   -1    0    0  501    0  0.00000000000E+00 -0.00000000000E+00 -0.75260313623E+03  0.75260313623E+03  0.25500000000E-02 0. -1.
         24    2    1    2    0    0  0.00000000000E+00  0.00000000000E+00 -0.75052660761E+03  0.75467967098E+03  0.79064638497E+02 0.  0.
         66    2    3    3    0    0 -0.15835011782E+02  0.23151846649E+02 -0.64106302926E+03  0.64167948624E+03  0.19999950069E+01 0.  0.
        -13    1    3    3    0    0  0.15835011782E+02 -0.23151846649E+02 -0.10946357835E+03  0.11300018473E+03  0.10566000000E+00 0.  1.
         13    1    4    4    0    0 -0.11785889929E+02  0.16550957218E+02 -0.46682810412E+03  0.46727008394E+03  0.10566000000E+00 0. -1.
        -13    1    4    4    0    0 -0.98635451007E+00  0.23423700445E+01 -0.61139565704E+02  0.61192460738E+02  0.10566000000E+00 0.  1.
         14    1    4    4    0    0 -0.30627673423E+01  0.42585193871E+01 -0.11309535944E+03  0.11321694157E+03  0.00000000000E+00 0. -1.
<mgrwt>
<rscale>  0 0.79064638E+02</rscale>
<asrwt>0</asrwt>
<pdfrwt beam="1">  1        2 0.11578488E+00 0.79064638E+02</pdfrwt>
<pdfrwt beam="2">  1       -1 0.31946701E-03 0.79064638E+02</pdfrwt>
<totfact> 0.35030122E+05</totfact>
</mgrwt>
</event>
<event>
 8    1  0.1226832E-024  0.7585512E+02  0.7818608E-02  0.1341243E+00
         -1   -1    0    0    0  501 -0.00000000000E+00  0.00000000000E+00  0.92950825490E+02  0.92950825627E+02  0.50400000000E-02 0.  1.
          2   -1    0    0  501    0  0.00000000000E+00 -0.00000000000E+00 -0.15475922729E+02  0.15475922939E+02  0.25500000000E-02 0. -1.
         24    2    1    2    0    0  0.35527136788E-14  0.35527136788E-14  0.77474902761E+02  0.10842674857E+03  0.75855120110E+02 0.  0.
         66    2    3    3    0    0  0.23463857853E+02  0.28199710802E+02  0.25149867339E+02  0.44522939520E+02  0.20000004198E+01 0.  0.
        -13    1    3    3    0    0 -0.23463857853E+02 -0.28199710802E+02  0.52325035422E+02  0.63903809046E+02  0.10566000000E+00 0.  1.
         13    1    4    4    0    0  0.10337640202E+02  0.12347898522E+02  0.11697088225E+02  0.19904030744E+02  0.10566000000E+00 0. -1.
        -13    1    4    4    0    0  0.27328221832E+01  0.32828720206E+01  0.22164855330E+01  0.48134746226E+01  0.10566000000E+00 0.  1.
        -14    1    4    4    0    0  0.10393395468E+02  0.12568940259E+02  0.11236293581E+02  0.19805434154E+02  0.00000000000E+00 0.  1.
<mgrwt>
<rscale>  0 0.75855120E+02</rscale>
<asrwt>0</asrwt>
<pdfrwt beam="1">  1        2 0.23809113E-02 0.75855120E+02</pdfrwt>
<pdfrwt beam="2">  1       -1 0.14300126E-01 0.75855120E+02</pdfrwt>
<totfact> 0.13739796E+05</totfact>
</mgrwt>
</event>
<event>
 8    1  0.1226832E-024  0.7846163E+02  0.7818608E-02  0.1333475E+00
          2   -1    0    0  501    0  0.00000000000E+00  0.00000000000E+00  0.79755366003E+02  0.79755366044E+02  0.25500000000E-02 0. -1.
         -1   -1    0    0    0  501 -0.00000000000E+00 -0.00000000000E+00 -0.19297218395E+02  0.19297219054E+02  0.50400000000E-02 0.  1.
         24    2    1    2    0    0  0.00000000000E+00  0.00000000000E+00  0.60458147607E+02  0.99052585097E+02  0.78461627579E+02 0.  0.
         66    2    3    3    0    0  0.37253236583E+02 -0.42428658633E+01  0.15785873406E+02  0.40730815637E+02  0.19999991667E+01 0.  0.
        -13    1    3    3    0    0 -0.37253236583E+02  0.42428658633E+01  0.44672274201E+02  0.58321769460E+02  0.10566000000E+00 0.  1.
         13    1    4    4    0    0  0.19121457672E+02 -0.23256811907E+01  0.83265350875E+01  0.20985263570E+02  0.10566000000E+00 0.  1.
        -13    1    4    4    0    0  0.11998238382E+02 -0.79763261188E+00  0.53719187286E+01  0.13170520754E+02  0.10566000000E+00 0. -1.
        -14    1    4    4    0    0  0.61335405287E+01 -0.11195520607E+01  0.20874195901E+01  0.65750313139E+01  0.00000000000E+00 0.  1.
<mgrwt>
<rscale>  0 0.78461628E+02</rscale>
<asrwt>0</asrwt>
<pdfrwt beam="1">  1        2 0.12270056E-01 0.78461628E+02</pdfrwt>
<pdfrwt beam="2">  1       -1 0.29688029E-02 0.78461628E+02</pdfrwt>
<totfact> 0.17578012E+05</totfact>
</mgrwt>
</event>
<event>
 8    1  0.1226832E-024  0.8405840E+02  0.7818608E-02  0.1317913E+00
         -1   -1    0    0    0  501 -0.00000000000E+00  0.00000000000E+00  0.35408421372E+01  0.35408457241E+01  0.50400000000E-02 0.  1.
          2   -1    0    0  501    0  0.00000000000E+00 -0.00000000000E+00 -0.49887932213E+03  0.49887932214E+03  0.25500000000E-02 0. -1.
         24    2    1    2    0    0  0.35527136788E-14  0.10658141036E-13 -0.49533848000E+03  0.50242016786E+03  0.84058404170E+02 0.  0.
         66    2    3    3    0    0 -0.19981000734E+02 -0.31020272103E+02 -0.36778995413E+03  0.36964164819E+03  0.20000118470E+01 0.  0.
        -13    1    3    3    0    0  0.19981000734E+02  0.31020272103E+02 -0.12754852587E+03  0.13277851967E+03  0.10566000000E+00 0.  1.
         13    1    4    4    0    0 -0.14807787293E+01 -0.25873340146E+01 -0.32908190851E+02  0.33043111114E+02  0.10566000000E+00 0. -1.
        -13    1    4    4    0    0 -0.45701323885E+01 -0.65786427212E+01 -0.73688239910E+02  0.74122415741E+02  0.10566000000E+00 0.  1.
         14    1    4    4    0    0 -0.13930089616E+02 -0.21854295367E+02 -0.26119352337E+03  0.26247612134E+03  0.00000000000E+00 0. -1.
<mgrwt>
<rscale>  0 0.84058404E+02</rscale>
<asrwt>0</asrwt>
<pdfrwt beam="1">  1        2 0.76750609E-01 0.84058404E+02</pdfrwt>
<pdfrwt beam="2">  1       -1 0.54474562E-03 0.84058404E+02</pdfrwt>
<totfact> 0.26739169E+05</totfact>
</mgrwt>
</event>
<event>
 8    1  0.1226832E-024  0.7097391E+02  0.7818608E-02  0.1356812E+00
          2   -1    0    0  501    0  0.00000000000E+00  0.00000000000E+00  0.40711048846E+02  0.40711048925E+02  0.25500000000E-02 0. -1.
         -1   -1    0    0    0  501 -0.00000000000E+00 -0.00000000000E+00 -0.30933221533E+02  0.30933221944E+02  0.50400000000E-02 0.  1.
         24    2    1    2    0    0  0.00000000000E+00  0.00000000000E+00  0.97778273124E+01  0.71644270869E+02  0.70973908174E+02 0.  0.
         66    2    3    3    0    0 -0.12912061758E+02 -0.96704501778E+01  0.36767608453E+02  0.40200696080E+02  0.19999971282E+01 0.  0.
        -13    1    3    3    0    0  0.12912061758E+02  0.96704501778E+01 -0.26989781140E+02  0.31443574789E+02  0.10566000000E+00 0.  1.
         13    1    4    4    0    0 -0.10407624122E+02 -0.73332246473E+01  0.29917159311E+02  0.32513726469E+02  0.10566000000E+00 0. -1.
        -13    1    4    4    0    0 -0.21315455530E+01 -0.19219373270E+01  0.51425784947E+01  0.58902128267E+01  0.10566000000E+00 0.  1.
         14    1    4    4    0    0 -0.37289208277E+00 -0.41528820350E+00  0.17078706464E+01  0.17967567844E+01  0.00000000000E+00 0. -1.
<mgrwt>
<rscale>  0 0.70973908E+02</rscale>
<asrwt>0</asrwt>
<pdfrwt beam="1">  1        2 0.62632383E-02 0.70973908E+02</pdfrwt>
<pdfrwt beam="2">  1       -1 0.47589572E-02 0.70973908E+02</pdfrwt>
<totfact> 0.19847925E+05</totfact>
</mgrwt>
</event>
<event>
 8    1  0.1226832E-024  0.7874187E+02  0.7818608E-02  0.1332660E+00
         -1   -1    0    0    0  501 -0.00000000000E+00  0.00000000000E+00  0.57456032917E+01  0.57456055022E+01  0.50400000000E-02 0.  1.
          2   -1    0    0  501    0  0.00000000000E+00 -0.00000000000E+00 -0.26978374239E+03  0.26978374240E+03  0.25500000000E-02 0. -1.
         24    2    1    2    0    0 -0.71054273576E-14 -0.88817841970E-15 -0.26403813910E+03  0.27552934790E+03  0.78741873600E+02 0.  0.
         66    2    3    3    0    0 -0.38918046969E+02 -0.30954651807E+01 -0.11500844240E+03  0.12147072937E+03  0.19999960784E+01 0.  0.
        -13    1    3    3    0    0  0.38918046969E+02  0.30954651807E+01 -0.14902969669E+03  0.15405861854E+03  0.10566000000E+00 0.  1.
         13    1    4    4    0    0 -0.13721547869E+02 -0.12152049571E+01 -0.38650449021E+02  0.41032011559E+02  0.10566000000E+00 0. -1.
        -13    1    4    4    0    0 -0.20840963928E+02 -0.12285066891E+01 -0.62024935851E+02  0.65444318604E+02  0.10566000000E+00 0.  1.
         14    1    4    4    0    0 -0.43555351727E+01 -0.65175353459E+00 -0.14333057532E+02  0.14994399205E+02  0.00000000000E+00 0. -1.
<mgrwt>
<rscale>  0 0.78741874E+02</rscale>
<asrwt>0</asrwt>
<pdfrwt beam="1">  1        2 0.41505181E-01 0.78741874E+02</pdfrwt>
<pdfrwt beam="2">  1       -1 0.88393935E-03 0.78741874E+02</pdfrwt>
<totfact> 0.25574551E+05</totfact>
</mgrwt>
</event>
<event>
 8    1  0.1226832E-024  0.8001211E+02  0.7818608E-02  0.1329017E+00
          2   -1    0    0  501    0  0.00000000000E+00  0.00000000000E+00  0.92384104313E+01  0.92384107832E+01  0.25500000000E-02 0. -1.
         -1   -1    0    0    0  501 -0.00000000000E+00 -0.00000000000E+00 -0.17324240890E+03  0.17324240898E+03  0.50400000000E-02 0.  1.
         24    2    1    2    0    0 -0.17763568394E-14 -0.35527136788E-14 -0.16400399847E+03  0.18248081976E+03  0.80012111992E+02 0.  0.
         66    2    3    3    0    0 -0.11352865339E+02  0.27792413620E+02 -0.21834304755E+02  0.37175834361E+02  0.19999975136E+01 0.  0.
        -13    1    3    3    0    0  0.11352865339E+02 -0.27792413620E+02 -0.14216969372E+03  0.14530498540E+03  0.10566000000E+00 0.  1.
         13    1    4    4    0    0 -0.25475208387E+01  0.71615775846E+01 -0.57180421451E+01  0.95123722558E+01  0.10566000000E+00 0. -1.
        -13    1    4    4    0    0 -0.66336172434E+01  0.16380912324E+02 -0.13331986559E+02  0.22138026018E+02  0.10566000000E+00 0.  1.
         14    1    4    4    0    0 -0.21717272568E+01  0.42499237111E+01 -0.27842760505E+01  0.55254360872E+01  0.00000000000E+00 0. -1.
<mgrwt>
<rscale>  0 0.80012112E+02</rscale>
<asrwt>0</asrwt>
<pdfrwt beam="1">  1        2 0.14212941E-02 0.80012112E+02</pdfrwt>
<pdfrwt beam="2">  1       -1 0.26652676E-01 0.80012112E+02</pdfrwt>
<totfact> 0.10378931E+05</totfact>
</mgrwt>
</event>
<event>
 8    1  0.1226832E-024  0.7920822E+02  0.7818608E-02  0.1331314E+00
          2   -1    0    0  501    0  0.00000000000E+00  0.00000000000E+00  0.45630590303E+02  0.45630590374E+02  0.25500000000E-02 0. -1.
         -1   -1    0    0    0  501 -0.00000000000E+00 -0.00000000000E+00 -0.34373552392E+02  0.34373552761E+02  0.50400000000E-02 0.  1.
         24    2    1    2    0    0  0.00000000000E+00  0.00000000000E+00  0.11257037911E+02  0.80004143135E+02  0.79208219373E+02 0.  0.
         66    2    3    3    0    0 -0.27677740040E+02 -0.15479251049E+02  0.29551616841E+02  0.43393116258E+02  0.19999934733E+01 0.  0.
        -13    1    3    3    0    0  0.27677740040E+02  0.15479251049E+02 -0.18294578930E+02  0.36611026878E+02  0.10566000000E+00 0.  1.
         13    1    4    4    0    0 -0.10651772877E+02 -0.61332649153E+01  0.10373167135E+02  0.16083872804E+02  0.10566000000E+00 0. -1.
        -13    1    4    4    0    0 -0.91559189419E+01 -0.54675785627E+01  0.10274437697E+02  0.14808798095E+02  0.10566000000E+00 0.  1.
        -14    1    4    4    0    0 -0.78700482214E+01 -0.38784075712E+01  0.89040120087E+01  0.12500445358E+02  0.00000000000E+00 0.  1.
<mgrwt>
<rscale>  0 0.79208219E+02</rscale>
<asrwt>0</asrwt>
<pdfrwt beam="1">  1        2 0.70200908E-02 0.79208219E+02</pdfrwt>
<pdfrwt beam="2">  1       -1 0.52882389E-02 0.79208219E+02</pdfrwt>
<totfact> 0.15058215E+05</totfact>
</mgrwt>
</event>
<event>
 8    1  0.1226832E-024  0.7971315E+02  0.7818608E-02  0.1329867E+00
         -1   -1    0    0    0  501 -0.00000000000E+00  0.00000000000E+00  0.26292498258E+01  0.26292546564E+01  0.50400000000E-02 0.  1.
          2   -1    0    0  501    0  0.00000000000E+00 -0.00000000000E+00 -0.60418193611E+03  0.60418193611E+03  0.25500000000E-02 0. -1.
         24    2    1    2    0    0  0.00000000000E+00  0.00000000000E+00 -0.60155268628E+03  0.60681119077E+03  0.79713153682E+02 0.  0.
         66    2    3    3    0    0  0.22187107052E+02 -0.27093427057E+02 -0.44544512880E+03  0.44682399698E+03  0.19999995151E+01 0.  0.
        -13    1    3    3    0    0 -0.22187107052E+02  0.27093427057E+02 -0.15610755748E+03  0.15998719378E+03  0.10566000000E+00 0.  1.
         13    1    4    4    0    0  0.77163635812E+00 -0.63749650297E+00 -0.13546810445E+02  0.13584147443E+02  0.10566000000E+00 0.  1.
        -13    1    4    4    0    0  0.61257095509E+01 -0.65812962660E+01 -0.11520191745E+03  0.11555228568E+03  0.10566000000E+00 0. -1.
         14    1    4    4    0    0  0.15289761143E+02 -0.19874634288E+02 -0.31669640090E+03  0.31768756386E+03  0.00000000000E+00 0. -1.
<mgrwt>
<rscale>  0 0.79713154E+02</rscale>
<asrwt>0</asrwt>
<pdfrwt beam="1">  1        2 0.92950956E-01 0.79713154E+02</pdfrwt>
<pdfrwt beam="2">  1       -1 0.40450083E-03 0.79713154E+02</pdfrwt>
<totfact> 0.32528087E+05</totfact>
</mgrwt>
</event>
<event>
 8    1  0.1226832E-024  0.7975053E+02  0.7818608E-02  0.1329761E+00
         -1   -1    0    0    0  501 -0.00000000000E+00  0.00000000000E+00  0.33972582931E+01  0.33972620317E+01  0.50400000000E-02 0.  1.
          2   -1    0    0  501    0  0.00000000000E+00 -0.00000000000E+00 -0.46803500330E+03  0.46803500331E+03  0.25500000000E-02 0. -1.
         24    2    1    2    0    0  0.44408920985E-15  0.35527136788E-14 -0.46463774501E+03  0.47143226534E+03  0.79750528006E+02 0.  0.
         66    2    3    3    0    0  0.30467181461E+01  0.24874985736E+02 -0.41561916286E+03  0.41637883705E+03  0.19999994467E+01 0.  0.
        -13    1    3    3    0    0 -0.30467181461E+01 -0.24874985736E+02 -0.49018582145E+02  0.55053428289E+02  0.10566000000E+00 0.  1.
         13    1    4    4    0    0  0.61473742644E+00  0.29209655184E+01 -0.55970939439E+02  0.56050576869E+02  0.10566000000E+00 0. -1.
        -13    1    4    4    0    0  0.44890727209E+00  0.27182775202E+01 -0.38826217112E+02  0.38923988100E+02  0.10566000000E+00 0.  1.
         14    1    4    4    0    0  0.19830734476E+01  0.19235742698E+02 -0.32082200631E+03  0.32140427208E+03  0.00000000000E+00 0. -1.
<mgrwt>
<rscale>  0 0.79750528E+02</rscale>
<asrwt>0</asrwt>
<pdfrwt beam="1">  1        2 0.72005334E-01 0.79750528E+02</pdfrwt>
<pdfrwt beam="2">  1       -1 0.52265578E-03 0.79750528E+02</pdfrwt>
<totfact> 0.30049433E+05</totfact>
</mgrwt>
</event>
<event>
 8    1  0.1226832E-024  0.8196406E+02  0.7818608E-02  0.1323568E+00
          2   -1    0    0  501    0  0.00000000000E+00  0.00000000000E+00  0.61629439723E+01  0.61629444998E+01  0.25500000000E-02 0. -1.
         -1   -1    0    0    0  501 -0.00000000000E+00 -0.00000000000E+00 -0.27252019341E+03  0.27252019345E+03  0.50400000000E-02 0.  1.
         24    2    1    2    0    0  0.35527136788E-14 -0.35527136788E-14 -0.26635724943E+03  0.27868313795E+03  0.81964059521E+02 0.  0.
         66    2    3    3    0    0 -0.25826454111E+02  0.19871045141E+02 -0.21762163931E+03  0.22005690640E+03  0.19999988005E+01 0.  0.
        -13    1    3    3    0    0  0.25826454111E+02 -0.19871045141E+02 -0.48735610127E+02  0.58626231547E+02  0.10566000000E+00 0.  1.
         13    1    4    4    0    0 -0.19171569654E+02  0.14942055428E+02 -0.15953982446E+03  0.16138085653E+03  0.10566000000E+00 0. -1.
        -13    1    4    4    0    0 -0.21288064329E+01  0.12356569969E+01 -0.15258698028E+02  0.15456315686E+02  0.10566000000E+00 0.  1.
         14    1    4    4    0    0 -0.45260780235E+01  0.36933327165E+01 -0.42823116822E+02  0.43219734186E+02  0.00000000000E+00 0. -1.
<mgrwt>
<rscale>  0 0.81964060E+02</rscale>
<asrwt>0</asrwt>
<pdfrwt beam="1">  1        2 0.94814548E-03 0.81964060E+02</pdfrwt>
<pdfrwt beam="2">  1       -1 0.41926174E-01 0.81964060E+02</pdfrwt>
<totfact> 0.84334274E+04</totfact>
</mgrwt>
</event>
<event>
 8    1  0.1226832E-024  0.8023922E+02  0.7818608E-02  0.1328374E+00
         -1   -1    0    0    0  501 -0.00000000000E+00  0.00000000000E+00  0.10176451267E+02  0.10176452515E+02  0.50400000000E-02 0.  1.
          2   -1    0    0  501    0  0.00000000000E+00 -0.00000000000E+00 -0.15816740532E+03  0.15816740534E+03  0.25500000000E-02 0. -1.
         24    2    1    2    0    0 -0.17763568394E-14  0.00000000000E+00 -0.14799095406E+03  0.16834385786E+03  0.80239217322E+02 0.  0.
         66    2    3    3    0    0  0.10279240825E+02 -0.36161457651E+02 -0.10328331613E+03  0.10993069270E+03  0.19999985714E+01 0.  0.
        -13    1    3    3    0    0 -0.10279240825E+02  0.36161457651E+02 -0.44707637925E+02  0.58413165163E+02  0.10566000000E+00 0.  1.
         13    1    4    4    0    0  0.42403690768E+01 -0.15657551872E+02 -0.42052992418E+02  0.45073329097E+02  0.10566000000E+00 0. -1.
        -13    1    4    4    0    0  0.42454537056E+00 -0.16566709626E+01 -0.53398424764E+01  0.56080191832E+01  0.10566000000E+00 0. -1.
        -14    1    4    4    0    0  0.56143263780E+01 -0.18847234817E+02 -0.55890481236E+02  0.59249344416E+02  0.00000000000E+00 0.  1.
<mgrwt>
<rscale>  0 0.80239217E+02</rscale>
<asrwt>0</asrwt>
<pdfrwt beam="1">  1        2 0.24333445E-01 0.80239217E+02</pdfrwt>
<pdfrwt beam="2">  1       -1 0.15656081E-02 0.80239217E+02</pdfrwt>
<totfact> 0.20217145E+05</totfact>
</mgrwt>
</event>
<event>
 8    1  0.1226832E-024  0.7966959E+02  0.7818608E-02  0.1329992E+00
         -1   -1    0    0    0  501 -0.00000000000E+00  0.00000000000E+00  0.15459779834E+02  0.15459780656E+02  0.50400000000E-02 0.  1.
          2   -1    0    0  501    0  0.00000000000E+00 -0.00000000000E+00 -0.10264122602E+03  0.10264122606E+03  0.25500000000E-02 0. -1.
         24    2    1    2    0    0  0.00000000000E+00  0.00000000000E+00 -0.87181446190E+02  0.11810100671E+03  0.79669587839E+02 0.  0.
         66    2    3    3    0    0  0.30486536382E+02  0.12766729984E+02 -0.76511956161E+02  0.83369645140E+02  0.20000000540E+01 0.  0.
        -13    1    3    3    0    0 -0.30486536382E+02 -0.12766729984E+02 -0.10669490029E+02  0.34731361571E+02  0.10566000000E+00 0.  1.
         13    1    4    4    0    0  0.19966450657E+02  0.86885144662E+01 -0.51288784078E+02  0.55719834635E+02  0.10566000000E+00 0. -1.
        -13    1    4    4    0    0  0.64551986631E+01  0.23367856891E+01 -0.16441780587E+02  0.17817785217E+02  0.10566000000E+00 0.  1.
         14    1    4    4    0    0  0.40648870614E+01  0.17414298286E+01 -0.87813914955E+01  0.98320252881E+01  0.00000000000E+00 0. -1.
<mgrwt>
<rscale>  0 0.79669588E+02</rscale>
<asrwt>0</asrwt>
<pdfrwt beam="1">  1        2 0.15790957E-01 0.79669588E+02</pdfrwt>
<pdfrwt beam="2">  1       -1 0.23784278E-02 0.79669588E+02</pdfrwt>
<totfact> 0.18055194E+05</totfact>
</mgrwt>
</event>
<event>
 8    1  0.1226832E-024  0.7872888E+02  0.7818608E-02  0.1332698E+00
         -1   -1    0    0    0  501 -0.00000000000E+00  0.00000000000E+00  0.12227406195E+03  0.12227406205E+03  0.50400000000E-02 0.  1.
          2   -1    0    0  501    0  0.00000000000E+00 -0.00000000000E+00 -0.12672834367E+02  0.12672834624E+02  0.25500000000E-02 0. -1.
         24    2    1    2    0    0 -0.17763568394E-14  0.00000000000E+00  0.10960122758E+03  0.13494689667E+03  0.78728875485E+02 0.  0.
         66    2    3    3    0    0 -0.99269931353E+01  0.36015344451E+02  0.75961680056E+02  0.84674831367E+02  0.20000003741E+01 0.  0.
        -13    1    3    3    0    0  0.99269931353E+01 -0.36015344451E+02  0.33639547524E+02  0.50272065308E+02  0.10566000000E+00 0.  1.
         13    1    4    4    0    0 -0.13291209817E+01  0.57889846141E+01  0.12742623028E+02  0.14059321147E+02  0.10566000000E+00 0. -1.
        -13    1    4    4    0    0 -0.82544184843E+01  0.29739615090E+02  0.62147116589E+02  0.69389159057E+02  0.10566000000E+00 0.  1.
        -14    1    4    4    0    0 -0.34345366928E+00  0.48674474707E+00  0.10719404383E+01  0.12263511630E+01  0.00000000000E+00 0.  1.
<mgrwt>
<rscale>  0 0.78728875E+02</rscale>
<asrwt>0</asrwt>
<pdfrwt beam="1">  1        2 0.19496669E-02 0.78728875E+02</pdfrwt>
<pdfrwt beam="2">  1       -1 0.18811394E-01 0.78728875E+02</pdfrwt>
<totfact> 0.11800609E+05</totfact>
</mgrwt>
</event>
<event>
 8    1  0.1226832E-024  0.7739932E+02  0.7818608E-02  0.1336598E+00
          2   -1    0    0  501    0  0.00000000000E+00  0.00000000000E+00  0.25188525384E+03  0.25188525385E+03  0.25500000000E-02 0. -1.
         -1   -1    0    0    0  501 -0.00000000000E+00 -0.00000000000E+00 -0.59458165819E+01  0.59458187180E+01  0.50400000000E-02 0.  1.
         24    2    1    2    0    0 -0.88817841970E-15  0.00000000000E+00  0.24593943726E+03  0.25783107257E+03  0.77399322893E+02 0.  0.
         66    2    3    3    0    0  0.73589355480E+01 -0.27916028247E+02  0.20877369367E+03  0.21076981222E+03  0.20000020426E+01 0.  0.
        -13    1    3    3    0    0 -0.73589355480E+01  0.27916028247E+02  0.37165743586E+02  0.47061260351E+02  0.10566000000E+00 0.  1.
         13    1    4    4    0    0  0.59673006524E+01 -0.19569681891E+02  0.14831917814E+03  0.14972364841E+03  0.10566000000E+00 0. -1.
        -13    1    4    4    0    0  0.51609857800E+00 -0.20204525435E+01  0.14069273720E+02  0.14223368562E+02  0.10566000000E+00 0.  1.
         14    1    4    4    0    0  0.87553631760E+00 -0.63258938125E+01  0.46385241818E+02  0.46822795248E+02  0.00000000000E+00 0. -1.
<mgrwt>
<rscale>  0 0.77399323E+02</rscale>
<asrwt>0</asrwt>
<pdfrwt beam="1">  1        2 0.38751580E-01 0.77399323E+02</pdfrwt>
<pdfrwt beam="2">  1       -1 0.91474111E-03 0.77399323E+02</pdfrwt>
<totfact> 0.26100920E+05</totfact>
</mgrwt>
</event>
<event>
 8    1  0.1226832E-024  0.7908404E+02  0.7818608E-02  0.1331671E+00
          2   -1    0    0  501    0  0.00000000000E+00  0.00000000000E+00  0.35622350873E+03  0.35622350874E+03  0.25500000000E-02 0. -1.
         -1   -1    0    0    0  501 -0.00000000000E+00 -0.00000000000E+00 -0.43892973783E+01  0.43893002719E+01  0.50400000000E-02 0.  1.
         24    2    1    2    0    0  0.00000000000E+00  0.00000000000E+00  0.35183421135E+03  0.36061280901E+03  0.79084042292E+02 0.  0.
         66    2    3    3    0    0  0.10965908727E+02  0.18786168747E+02  0.32646316099E+03  0.32719316433E+03  0.20000017734E+01 0.  0.
        -13    1    3    3    0    0 -0.10965908727E+02 -0.18786168747E+02  0.25371050358E+02  0.33419644682E+02  0.10566000000E+00 0.  1.
         13    1    4    4    0    0  0.45291846756E+01  0.77914110723E+01  0.12505356986E+03  0.12537793306E+03  0.10566000000E+00 0. -1.
        -13    1    4    4    0    0  0.30882714633E+01  0.45185029202E+01  0.92603756270E+02  0.92765409117E+02  0.10566000000E+00 0.  1.
         14    1    4    4    0    0  0.33484525879E+01  0.64762547541E+01  0.10880583486E+03  0.10904982215E+03  0.00000000000E+00 0. -1.
<mgrwt>
<rscale>  0 0.79084042E+02</rscale>
<asrwt>0</asrwt>
<pdfrwt beam="1">  1        2 0.54803611E-01 0.79084042E+02</pdfrwt>
<pdfrwt beam="2">  1       -1 0.67527681E-03 0.79084042E+02</pdfrwt>
<totfact> 0.27948383E+05</totfact>
</mgrwt>
</event>
<event>
 8    1  0.1226832E-024  0.7906934E+02  0.7818608E-02  0.1331713E+00
         -1   -1    0    0    0  501 -0.00000000000E+00  0.00000000000E+00  0.15347605167E+01  0.15347687921E+01  0.50400000000E-02 0.  1.
          2   -1    0    0  501    0  0.00000000000E+00 -0.00000000000E+00 -0.10183907951E+04  0.10183907951E+04  0.25500000000E-02 0. -1.
         24    2    1    2    0    0 -0.88817841970E-15  0.00000000000E+00 -0.10168560346E+04  0.10199255639E+04  0.79069341836E+02 0.  0.
         66    2    3    3    0    0 -0.77373194907E+01  0.28893232341E+02 -0.84171492039E+03  0.84224859287E+03  0.19999986591E+01 0.  0.
        -13    1    3    3    0    0  0.77373194907E+01 -0.28893232341E+02 -0.17514111416E+03  0.17767697100E+03  0.10566000000E+00 0.  1.
         13    1    4    4    0    0 -0.45698014801E+01  0.17431460651E+02 -0.48996674519E+03  0.49029803330E+03  0.10566000000E+00 0. -1.
        -13    1    4    4    0    0 -0.96257405918E-01  0.88919251196E+00 -0.21304655651E+02  0.21323682732E+02  0.10566000000E+00 0. -1.
        -14    1    4    4    0    0 -0.30712606046E+01  0.10572579178E+02 -0.33044351955E+03  0.33062687684E+03  0.00000000000E+00 0.  1.
<mgrwt>
<rscale>  0 0.79069342E+02</rscale>
<asrwt>0</asrwt>
<pdfrwt beam="1">  1        2 0.15667497E+00 0.79069342E+02</pdfrwt>
<pdfrwt beam="2">  1       -1 0.23611845E-03 0.79069342E+02</pdfrwt>
<totfact> 0.36340620E+05</totfact>
</mgrwt>
</event>
<event>
 8    1  0.1226832E-024  0.8054588E+02  0.7818608E-02  0.1327509E+00
          2   -1    0    0  501    0  0.00000000000E+00  0.00000000000E+00  0.73300145406E+02  0.73300145451E+02  0.25500000000E-02 0. -1.
         -1   -1    0    0    0  501 -0.00000000000E+00 -0.00000000000E+00 -0.22126965383E+02  0.22126965957E+02  0.50400000000E-02 0.  1.
         24    2    1    2    0    0  0.35527136788E-14  0.00000000000E+00  0.51173180023E+02  0.95427111408E+02  0.80545882812E+02 0.  0.
         66    2    3    3    0    0 -0.29530488797E+02 -0.27290625910E+02  0.27680476753E+02  0.48857311085E+02  0.20000054963E+01 0.  0.
        -13    1    3    3    0    0  0.29530488797E+02  0.27290625910E+02  0.23492703270E+02  0.46569800323E+02  0.10566000000E+00 0.  1.
         13    1    4    4    0    0 -0.33277279860E+01 -0.28995306796E+01  0.26433060575E+01  0.51458024311E+01  0.10566000000E+00 0. -1.
        -13    1    4    4    0    0 -0.53423294267E+01 -0.56009418187E+01  0.49081099371E+01  0.91657918452E+01  0.10566000000E+00 0.  1.
        -14    1    4    4    0    0 -0.20860431384E+02 -0.18790153412E+02  0.20129060759E+02  0.34545716808E+02  0.00000000000E+00 0.  1.
<mgrwt>
<rscale>  0 0.80545883E+02</rscale>
<asrwt>0</asrwt>
<pdfrwt beam="1">  1        2 0.11276946E-01 0.80545883E+02</pdfrwt>
<pdfrwt beam="2">  1       -1 0.34041485E-02 0.80545883E+02</pdfrwt>
<totfact> 0.16033207E+05</totfact>
</mgrwt>
</event>
<event>
 8    1  0.1226832E-024  0.8195185E+02  0.7818608E-02  0.1323602E+00
          2   -1    0    0  501    0  0.00000000000E+00  0.00000000000E+00  0.50630817803E+02  0.50630817867E+02  0.25500000000E-02 0. -1.
         -1   -1    0    0    0  501 -0.00000000000E+00 -0.00000000000E+00 -0.33162146465E+02  0.33162146848E+02  0.50400000000E-02 0.  1.
         24    2    1    2    0    0  0.00000000000E+00  0.00000000000E+00  0.17468671338E+02  0.83792964716E+02  0.81951854509E+02 0.  0.
         66    2    3    3    0    0  0.21051188966E+02 -0.16980100353E+02  0.40180058542E+02  0.48475905981E+02  0.19999978500E+01 0.  0.
        -13    1    3    3    0    0 -0.21051188966E+02  0.16980100353E+02 -0.22711387204E+02  0.35317058734E+02  0.10566000000E+00 0.  1.
         13    1    4    4    0    0  0.77781803332E+01 -0.73318485796E+01  0.15876116296E+02  0.19139444234E+02  0.10566000000E+00 0. -1.
        -13    1    4    4    0    0  0.73943655656E+01 -0.58163872004E+01  0.13584313291E+02  0.16524277104E+02  0.10566000000E+00 0.  1.
        -14    1    4    4    0    0  0.58786430675E+01 -0.38318645727E+01  0.10719628955E+02  0.12812184644E+02  0.00000000000E+00 0.  1.
<mgrwt>
<rscale>  0 0.81951855E+02</rscale>
<asrwt>0</asrwt>
<pdfrwt beam="1">  1        2 0.77893566E-02 0.81951855E+02</pdfrwt>
<pdfrwt beam="2">  1       -1 0.51018687E-02 0.81951855E+02</pdfrwt>
<totfact> 0.14025314E+05</totfact>
</mgrwt>
</event>
<event>
 8    1  0.1226832E-024  0.8225454E+02  0.7818608E-02  0.1322772E+00
          2   -1    0    0  501    0  0.00000000000E+00  0.00000000000E+00  0.34091296408E+02  0.34091296503E+02  0.25500000000E-02 0. -1.
         -1   -1    0    0    0  501 -0.00000000000E+00 -0.00000000000E+00 -0.49615374097E+02  0.49615374353E+02  0.50400000000E-02 0.  1.
         24    2    1    2    0    0 -0.35527136788E-14  0.00000000000E+00 -0.15524077689E+02  0.83706670856E+02  0.82254542474E+02 0.  0.
         66    2    3    3    0    0 -0.31434237460E+02  0.23746019573E+02  0.41648187489E+01  0.39665229721E+02  0.20000008387E+01 0.  0.
        -13    1    3    3    0    0  0.31434237460E+02 -0.23746019573E+02 -0.19688896438E+02  0.44041441135E+02  0.10566000000E+00 0.  1.
         13    1    4    4    0    0 -0.16673964448E+02  0.12545762945E+02  0.12874167840E+01  0.20906598582E+02  0.10566000000E+00 0. -1.
        -13    1    4    4    0    0 -0.11122860952E+02  0.84496346691E+01  0.19378192206E+01  0.14102505776E+02  0.10566000000E+00 0.  1.
         14    1    4    4    0    0 -0.36374120601E+01  0.27506219588E+01  0.93958274430E+00  0.46561253623E+01  0.00000000000E+00 0. -1.
<mgrwt>
<rscale>  0 0.82254542E+02</rscale>
<asrwt>0</asrwt>
<pdfrwt beam="1">  1        2 0.52448148E-02 0.82254542E+02</pdfrwt>
<pdfrwt beam="2">  1       -1 0.76331346E-02 0.82254542E+02</pdfrwt>
<totfact> 0.12770920E+05</totfact>
</mgrwt>
</event>
<event>
 8    1  0.1226832E-024  0.7981867E+02  0.7818608E-02  0.1329567E+00
         -1   -1    0    0    0  501 -0.00000000000E+00  0.00000000000E+00  0.11710204628E+01  0.11710313087E+01  0.50400000000E-02 0.  1.
          2   -1    0    0  501    0  0.00000000000E+00 -0.00000000000E+00 -0.13601364866E+04  0.13601364866E+04  0.25500000000E-02 0. -1.
         24    2    1    2    0    0  0.00000000000E+00  0.00000000000E+00 -0.13589654661E+04  0.13613075179E+04  0.79818670545E+02 0.  0.
         66    2    3    3    0    0 -0.18229599524E+02  0.19029359522E+01 -0.12840526784E+04  0.12841850413E+04  0.19999985000E+01 0.  0.
        -13    1    3    3    0    0  0.18229599524E+02 -0.19029359522E+01 -0.74912787726E+02  0.77122476575E+02  0.10566000000E+00 0.  1.
         13    1    4    4    0    0 -0.31608782327E+01  0.68079757836E+00 -0.25233234368E+03  0.25235308096E+03  0.10566000000E+00 0. -1.
        -13    1    4    4    0    0 -0.16324751447E+01  0.51988275769E+00 -0.10782843955E+03  0.10784210121E+03  0.10566000000E+00 0.  1.
        -14    1    4    4    0    0 -0.13436246146E+02  0.70225561616E+00 -0.92389189516E+03  0.92398985916E+03  0.00000000000E+00 0.  1.
<mgrwt>
<rscale>  0 0.79818671E+02</rscale>
<asrwt>0</asrwt>
<pdfrwt beam="1">  1        2 0.20925050E+00 0.79818671E+02</pdfrwt>
<pdfrwt beam="2">  1       -1 0.18015892E-03 0.79818671E+02</pdfrwt>
<totfact> 0.34477158E+05</totfact>
</mgrwt>
</event>
<event>
 8    1  0.1226832E-024  0.8026377E+02  0.7818608E-02  0.1328305E+00
          2   -1    0    0  501    0  0.00000000000E+00  0.00000000000E+00  0.32357100254E+03  0.32357100255E+03  0.25500000000E-02 0. -1.
         -1   -1    0    0    0  501 -0.00000000000E+00 -0.00000000000E+00 -0.49774792865E+01  0.49774818381E+01  0.50400000000E-02 0.  1.
         24    2    1    2    0    0  0.00000000000E+00  0.00000000000E+00  0.31859352325E+03  0.32854848439E+03  0.80263774735E+02 0.  0.
         66    2    3    3    0    0  0.67172823258E+01 -0.31987997342E+02  0.25453492844E+03  0.25663277964E+03  0.19999835474E+01 0.  0.
        -13    1    3    3    0    0 -0.67172823258E+01  0.31987997342E+02  0.64058594810E+02  0.71915704744E+02  0.10566000000E+00 0.  1.
         13    1    4    4    0    0  0.36773755156E+00 -0.11221398884E+01  0.85586411097E+01  0.86403663415E+01  0.10566000000E+00 0. -1.
        -13    1    4    4    0    0 -0.41106268690E-01 -0.65886343965E+00  0.42554682077E+01  0.43076634571E+01  0.10566000000E+00 0.  1.
         14    1    4    4    0    0  0.63906510430E+01 -0.30206994014E+02  0.24172081913E+03  0.24368474985E+03  0.00000000000E+00 0. -1.
<mgrwt>
<rscale>  0 0.80263775E+02</rscale>
<asrwt>0</asrwt>
<pdfrwt beam="1">  1        2 0.49780163E-01 0.80263775E+02</pdfrwt>
<pdfrwt beam="2">  1       -1 0.76576610E-03 0.80263775E+02</pdfrwt>
<totfact> 0.25975913E+05</totfact>
</mgrwt>
</event>
<event>
 8    1  0.1226832E-024  0.8075834E+02  0.7818608E-02  0.1326913E+00
         -1   -1    0    0    0  501 -0.00000000000E+00  0.00000000000E+00  0.41010253330E+02  0.41010253640E+02  0.50400000000E-02 0.  1.
          2   -1    0    0  501    0  0.00000000000E+00 -0.00000000000E+00 -0.39757800309E+02  0.39757800391E+02  0.25500000000E-02 0. -1.
         24    2    1    2    0    0 -0.35527136788E-14 -0.35527136788E-14  0.12524530204E+01  0.80768054031E+02  0.80758342686E+02 0.  0.
         66    2    3    3    0    0 -0.26377558484E+02 -0.29414653147E+02 -0.75887008497E+01  0.40281333034E+02  0.19999997770E+01 0.  0.
        -13    1    3    3    0    0  0.26377558484E+02  0.29414653147E+02  0.88411538700E+01  0.40486720997E+02  0.10566000000E+00 0.  1.
         13    1    4    4    0    0 -0.14158105287E+02 -0.17220615485E+02 -0.42932751455E+01  0.22703412045E+02  0.10566000000E+00 0. -1.
        -13    1    4    4    0    0 -0.43567884067E+01 -0.42696597890E+01 -0.12924559859E+01  0.62364418097E+01  0.10566000000E+00 0.  1.
         14    1    4    4    0    0 -0.78626647902E+01 -0.79243778726E+01 -0.20029697182E+01  0.11341479179E+02  0.00000000000E+00 0. -1.
<mgrwt>
<rscale>  0 0.80758343E+02</rscale>
<asrwt>0</asrwt>
<pdfrwt beam="1">  1        2 0.61165847E-02 0.80758343E+02</pdfrwt>
<pdfrwt beam="2">  1       -1 0.63092698E-02 0.80758343E+02</pdfrwt>
<totfact> 0.13870548E+05</totfact>
</mgrwt>
</event>
<event>
 8    1  0.1226832E-024  0.8376635E+02  0.7818608E-02  0.1318691E+00
         -1   -1    0    0    0  501 -0.00000000000E+00  0.00000000000E+00  0.15850219683E+01  0.15850299813E+01  0.50400000000E-02 0.  1.
          2   -1    0    0  501    0  0.00000000000E+00 -0.00000000000E+00 -0.11067329460E+04  0.11067329460E+04  0.25500000000E-02 0. -1.
         24    2    1    2    0    0  0.44408920985E-15 -0.35527136788E-14 -0.11051479240E+04  0.11083179760E+04  0.83766353018E+02 0.  0.
         66    2    3    3    0    0 -0.33146547486E+01  0.19561382968E+02 -0.10405673722E+04  0.10407584210E+04  0.20000034803E+01 0.  0.
        -13    1    3    3    0    0  0.33146547486E+01 -0.19561382968E+02 -0.64580551798E+02  0.67559555019E+02  0.10566000000E+00 0.  1.
         13    1    4    4    0    0 -0.14648612080E+01  0.10110719439E+02 -0.55397399251E+03  0.55406819797E+03  0.10566000000E+00 0. -1.
        -13    1    4    4    0    0  0.12142346398E+00  0.43730865372E+00 -0.30177903117E+02  0.30181500676E+02  0.10566000000E+00 0.  1.
        -14    1    4    4    0    0 -0.19712170046E+01  0.90133548759E+01 -0.45641547660E+03  0.45650872230E+03  0.00000000000E+00 0.  1.
<mgrwt>
<rscale>  0 0.83766353E+02</rscale>
<asrwt>0</asrwt>
<pdfrwt beam="1">  1        2 0.17026599E+00 0.83766353E+02</pdfrwt>
<pdfrwt beam="2">  1       -1 0.24385104E-03 0.83766353E+02</pdfrwt>
<totfact> 0.31267883E+05</totfact>
</mgrwt>
</event>
<event>
 8    1  0.1226832E-024  0.7887805E+02  0.7818608E-02  0.1332266E+00
          2   -1    0    0  501    0  0.00000000000E+00  0.00000000000E+00  0.12173017184E+03  0.12173017186E+03  0.25500000000E-02 0. -1.
         -1   -1    0    0    0  501 -0.00000000000E+00 -0.00000000000E+00 -0.12777740501E+02  0.12777741495E+02  0.50400000000E-02 0.  1.
         24    2    1    2    0    0  0.00000000000E+00  0.00000000000E+00  0.10895243134E+03  0.13450791336E+03  0.78878048038E+02 0.  0.
         66    2    3    3    0    0 -0.32402182647E+02  0.59589195351E+01  0.91402494264E+02  0.97179350333E+02  0.20000027610E+01 0.  0.
        -13    1    3    3    0    0  0.32402182647E+02 -0.59589195351E+01  0.17549937071E+02  0.37328563026E+02  0.10566000000E+00 0.  1.
         13    1    4    4    0    0 -0.25250272541E+02  0.41172553710E+01  0.70998172707E+02  0.75467077239E+02  0.10566000000E+00 0. -1.
        -13    1    4    4    0    0 -0.69310588208E+01  0.18464437549E+01  0.19396598694E+02  0.20680622230E+02  0.10566000000E+00 0.  1.
        -14    1    4    4    0    0 -0.22085128554E+00 -0.47795908219E-02  0.10077228635E+01  0.10316508636E+01  0.00000000000E+00 0.  1.
<mgrwt>
<rscale>  0 0.78878048E+02</rscale>
<asrwt>0</asrwt>
<pdfrwt beam="1">  1        2 0.18727719E-01 0.78878048E+02</pdfrwt>
<pdfrwt beam="2">  1       -1 0.19658063E-02 0.78878048E+02</pdfrwt>
<totfact> 0.19486378E+05</totfact>
</mgrwt>
</event>
<event>
 8    1  0.1226832E-024  0.7867557E+02  0.7818608E-02  0.1332853E+00
          2   -1    0    0  501    0  0.00000000000E+00  0.00000000000E+00  0.47827251892E+02  0.47827251960E+02  0.25500000000E-02 0. -1.
         -1   -1    0    0    0  501 -0.00000000000E+00 -0.00000000000E+00 -0.32355222835E+02  0.32355223228E+02  0.50400000000E-02 0.  1.
         24    2    1    2    0    0  0.00000000000E+00  0.35527136788E-14  0.15472029057E+02  0.80182475188E+02  0.78675572093E+02 0.  0.
         66    2    3    3    0    0 -0.59317216661E+01  0.18392135440E+02  0.42631198868E+02  0.46849493971E+02  0.20000001040E+01 0.  0.
        -13    1    3    3    0    0  0.59317216661E+01 -0.18392135440E+02 -0.27159169811E+02  0.33332981217E+02  0.10566000000E+00 0.  1.
         13    1    4    4    0    0 -0.74145197181E+00  0.39417979516E+01  0.86324708446E+01  0.95193612725E+01  0.10566000000E+00 0. -1.
        -13    1    4    4    0    0 -0.68914974310E+00  0.15513829958E+01  0.28830721228E+01  0.33473848701E+01  0.10566000000E+00 0.  1.
         14    1    4    4    0    0 -0.45011199512E+01  0.12898954492E+02  0.31115655901E+02  0.33982747828E+02  0.00000000000E+00 0. -1.
<mgrwt>
<rscale>  0 0.78675572E+02</rscale>
<asrwt>0</asrwt>
<pdfrwt beam="1">  1        2 0.73580387E-02 0.78675572E+02</pdfrwt>
<pdfrwt beam="2">  1       -1 0.49777267E-02 0.78675572E+02</pdfrwt>
<totfact> 0.15492994E+05</totfact>
</mgrwt>
</event>
<event>
 8    1  0.1226832E-024  0.7962356E+02  0.7818608E-02  0.1330123E+00
          2   -1    0    0  501    0  0.00000000000E+00  0.00000000000E+00  0.39579115912E+02  0.39579115995E+02  0.25500000000E-02 0. -1.
         -1   -1    0    0    0  501 -0.00000000000E+00 -0.00000000000E+00 -0.40045809559E+02  0.40045809876E+02  0.50400000000E-02 0.  1.
         24    2    1    2    0    0  0.00000000000E+00  0.00000000000E+00 -0.46669364659E+00  0.79624925871E+02  0.79623558178E+02 0.  0.
         66    2    3    3    0    0  0.31805970708E+02 -0.75285993022E+01  0.22453306527E+02  0.39704540701E+02  0.19999995339E+01 0.  0.
        -13    1    3    3    0    0 -0.31805970708E+02  0.75285993022E+01 -0.22920000174E+02  0.39920385170E+02  0.10566000000E+00 0.  1.
         13    1    4    4    0    0  0.11101564259E+02 -0.27543230638E+01  0.81139442606E+01  0.14024203365E+02  0.10566000000E+00 0. -1.
        -13    1    4    4    0    0  0.64501998949E+01 -0.13887345610E+01  0.53162230173E+01  0.84739042696E+01  0.10566000000E+00 0.  1.
        -14    1    4    4    0    0  0.14254206554E+02 -0.33855416774E+01  0.90231392491E+01  0.17206433066E+02  0.00000000000E+00 0.  1.
<mgrwt>
<rscale>  0 0.79623558E+02</rscale>
<asrwt>0</asrwt>
<pdfrwt beam="1">  1        2 0.60890947E-02 0.79623558E+02</pdfrwt>
<pdfrwt beam="2">  1       -1 0.61608939E-02 0.79623558E+02</pdfrwt>
<totfact> 0.14411032E+05</totfact>
</mgrwt>
</event>
<event>
 8    1  0.1226832E-024  0.8229583E+02  0.7818608E-02  0.1322660E+00
         -1   -1    0    0    0  501 -0.00000000000E+00  0.00000000000E+00  0.90140208293E+02  0.90140208434E+02  0.50400000000E-02 0.  1.
          2   -1    0    0  501    0  0.00000000000E+00 -0.00000000000E+00 -0.18783525118E+02  0.18783525291E+02  0.25500000000E-02 0. -1.
         24    2    1    2    0    0  0.00000000000E+00  0.00000000000E+00  0.71356683175E+02  0.10892373373E+03  0.82295829390E+02 0.  0.
         66    2    3    3    0    0  0.23581203535E+02  0.13521487683E+02 -0.51437152622E+01  0.27737368402E+02  0.20000024652E+01 0.  0.
        -13    1    3    3    0    0 -0.23581203535E+02 -0.13521487683E+02  0.76500398437E+02  0.81186365323E+02  0.10566000000E+00 0.  1.
         13    1    4    4    0    0  0.64228525710E+01  0.36007449212E+01 -0.74758293479E+00  0.74019216029E+01  0.10566000000E+00 0. -1.
        -13    1    4    4    0    0  0.14530067220E+02  0.78997081510E+01 -0.36422164178E+01  0.16935322458E+02  0.10566000000E+00 0.  1.
        -14    1    4    4    0    0  0.26282837442E+01  0.20210346107E+01 -0.75391590958E+00  0.34001243413E+01  0.00000000000E+00 0.  1.
<mgrwt>
<rscale>  0 0.82295829E+02</rscale>
<asrwt>0</asrwt>
<pdfrwt beam="1">  1        2 0.28897731E-02 0.82295829E+02</pdfrwt>
<pdfrwt beam="2">  1       -1 0.13867725E-01 0.82295829E+02</pdfrwt>
<totfact> 0.11294309E+05</totfact>
</mgrwt>
</event>
<event>
 8    1  0.1226832E-024  0.7626311E+02  0.7818608E-02  0.1340004E+00
         -1   -1    0    0    0  501 -0.00000000000E+00  0.00000000000E+00  0.23022538636E+02  0.23022539187E+02  0.50400000000E-02 0.  1.
          2   -1    0    0  501    0  0.00000000000E+00 -0.00000000000E+00 -0.63156182069E+02  0.63156182120E+02  0.25500000000E-02 0. -1.
         24    2    1    2    0    0  0.00000000000E+00 -0.35527136788E-14 -0.40133643433E+02  0.86178721308E+02  0.76263114748E+02 0.  0.
         66    2    3    3    0    0 -0.21752640169E+02  0.27779298662E+02 -0.36344370733E+02  0.50692998262E+02  0.20000000735E+01 0.  0.
        -13    1    3    3    0    0  0.21752640169E+02 -0.27779298662E+02 -0.37892727000E+01  0.35485723046E+02  0.10566000000E+00 0.  1.
         13    1    4    4    0    0 -0.13469632323E+02  0.16467327030E+02 -0.21145301414E+02  0.29995646190E+02  0.10566000000E+00 0. -1.
        -13    1    4    4    0    0 -0.68962293512E+01  0.98702421068E+01 -0.12797348776E+02  0.17571652120E+02  0.10566000000E+00 0.  1.
        -14    1    4    4    0    0 -0.13867784953E+01  0.14417295244E+01 -0.24017205431E+01  0.31256999510E+01  0.00000000000E+00 0.  1.
<mgrwt>
<rscale>  0 0.76263115E+02</rscale>
<asrwt>0</asrwt>
<pdfrwt beam="1">  1        2 0.97163356E-02 0.76263115E+02</pdfrwt>
<pdfrwt beam="2">  1       -1 0.35419291E-02 0.76263115E+02</pdfrwt>
<totfact> 0.17931530E+05</totfact>
</mgrwt>
</event>
<event>
 8    1  0.1226832E-024  0.8275873E+02  0.7818608E-02  0.1321400E+00
         -1   -1    0    0    0  501 -0.00000000000E+00  0.00000000000E+00  0.39654284670E+01  0.39654316699E+01  0.50400000000E-02 0.  1.
          2   -1    0    0  501    0  0.00000000000E+00 -0.00000000000E+00 -0.43179473581E+03  0.43179473582E+03  0.25500000000E-02 0. -1.
         24    2    1    2    0    0  0.00000000000E+00  0.00000000000E+00 -0.42782930735E+03  0.43576016749E+03  0.82758729734E+02 0.  0.
         66    2    3    3    0    0 -0.13652605699E+02 -0.39030432807E+02 -0.21768156578E+03  0.22158301470E+03  0.19999990822E+01 0.  0.
        -13    1    3    3    0    0  0.13652605699E+02  0.39030432807E+02 -0.21014774157E+03  0.21417715279E+03  0.10566000000E+00 0.  1.
         13    1    4    4    0    0 -0.62445056437E+01 -0.17057660492E+02 -0.94608426963E+02  0.96336510466E+02  0.10566000000E+00 0. -1.
        -13    1    4    4    0    0 -0.27400522278E+01 -0.67267947528E+01 -0.41115257146E+02  0.41752044118E+02  0.10566000000E+00 0.  1.
        -14    1    4    4    0    0 -0.46680478279E+01 -0.15245977562E+02 -0.81957881670E+02  0.83494460117E+02  0.00000000000E+00 0.  1.
<mgrwt>
<rscale>  0 0.82758730E+02</rscale>
<asrwt>0</asrwt>
<pdfrwt beam="1">  1        2 0.66429922E-01 0.82758730E+02</pdfrwt>
<pdfrwt beam="2">  1       -1 0.61006651E-03 0.82758730E+02</pdfrwt>
<totfact> 0.26549555E+05</totfact>
</mgrwt>
</event>
<event>
 8    1  0.1226832E-024  0.7913866E+02  0.7818608E-02  0.1331514E+00
         -1   -1    0    0    0  501 -0.00000000000E+00  0.00000000000E+00  0.10245642620E+01  0.10245766582E+01  0.50400000000E-02 0.  1.
          2   -1    0    0  501    0  0.00000000000E+00 -0.00000000000E+00 -0.15281835634E+04  0.15281835634E+04  0.25500000000E-02 0. -1.
         24    2    1    2    0    0  0.17763568394E-14 -0.17763568394E-14 -0.15271589991E+04  0.15292081400E+04  0.79138656663E+02 0.  0.
         66    2    3    3    0    0 -0.89338077937E+01  0.12616931461E+02 -0.14673666140E+04  0.14674494130E+04  0.20000003161E+01 0.  0.
        -13    1    3    3    0    0  0.89338077937E+01 -0.12616931461E+02 -0.59792385062E+02  0.61758726968E+02  0.10566000000E+00 0.  1.
         13    1    4    4    0    0 -0.36313881177E+01  0.60583147506E+01 -0.66134248174E+03  0.66138020795E+03  0.10566000000E+00 0. -1.
        -13    1    4    4    0    0 -0.29628818372E+00  0.60116090650E+00 -0.96994771169E+02  0.96997144181E+02  0.10566000000E+00 0.  1.
        -14    1    4    4    0    0 -0.50061314923E+01  0.59574558036E+01 -0.70902936113E+03  0.70907206091E+03  0.00000000000E+00 0.  1.
<mgrwt>
<rscale>  0 0.79138657E+02</rscale>
<asrwt>0</asrwt>
<pdfrwt beam="1">  1        2 0.23510334E+00 0.79138657E+02</pdfrwt>
<pdfrwt beam="2">  1       -1 0.15762745E-03 0.79138657E+02</pdfrwt>
<totfact> 0.33952864E+05</totfact>
</mgrwt>
</event>
<event>
 8    1  0.1226832E-024  0.7507168E+02  0.7818608E-02  0.1343649E+00
          2   -1    0    0  501    0  0.00000000000E+00  0.00000000000E+00  0.24004813790E+03  0.24004813792E+03  0.25500000000E-02 0. -1.
         -1   -1    0    0    0  501 -0.00000000000E+00 -0.00000000000E+00 -0.58694018435E+01  0.58694040074E+01  0.50400000000E-02 0.  1.
         24    2    1    2    0    0  0.35527136788E-14  0.00000000000E+00  0.23417873606E+03  0.24591754192E+03  0.75071679104E+02 0.  0.
         66    2    3    3    0    0  0.17928261227E+02 -0.92098404878E+01  0.22079694473E+03  0.22172400528E+03  0.19999996986E+01 0.  0.
        -13    1    3    3    0    0 -0.17928261227E+02  0.92098404878E+01  0.13381791324E+02  0.24193536648E+02  0.10566000000E+00 0.  1.
         13    1    4    4    0    0  0.10125273588E+02 -0.57693016403E+01  0.13285977450E+03  0.13336992483E+03  0.10566000000E+00 0. -1.
        -13    1    4    4    0    0  0.39950904286E+01 -0.13264083390E+01  0.41467521895E+02  0.41680770659E+02  0.10566000000E+00 0.  1.
        -14    1    4    4    0    0  0.38078972109E+01 -0.21141305085E+01  0.46469648344E+02  0.46673309784E+02  0.00000000000E+00 0.  1.
<mgrwt>
<rscale>  0 0.75071679E+02</rscale>
<asrwt>0</asrwt>
<pdfrwt beam="1">  1        2 0.36930489E-01 0.75071679E+02</pdfrwt>
<pdfrwt beam="2">  1       -1 0.90298492E-03 0.75071679E+02</pdfrwt>
<totfact> 0.27791575E+05</totfact>
</mgrwt>
</event>
<event>
 8    1  0.1226832E-024  0.7931160E+02  0.7818608E-02  0.1331016E+00
          2   -1    0    0  501    0  0.00000000000E+00  0.00000000000E+00  0.46532969615E+02  0.46532969685E+02  0.25500000000E-02 0. -1.
         -1   -1    0    0    0  501 -0.00000000000E+00 -0.00000000000E+00 -0.33795018735E+02  0.33795019110E+02  0.50400000000E-02 0.  1.
         24    2    1    2    0    0  0.00000000000E+00  0.00000000000E+00  0.12737950881E+02  0.80327988795E+02  0.79311603131E+02 0.  0.
         66    2    3    3    0    0  0.18393544428E+02 -0.95149349656E+01  0.40595392243E+02  0.45616252058E+02  0.20000291046E+01 0.  0.
        -13    1    3    3    0    0 -0.18393544428E+02  0.95149349656E+01 -0.27857441363E+02  0.34711736737E+02  0.10566000000E+00 0.  1.
         13    1    4    4    0    0  0.45147510904E+01 -0.26003112757E+01  0.95914288116E+01  0.10915643216E+02  0.10566000000E+00 0. -1.
        -13    1    4    4    0    0  0.10466794971E+02 -0.49686699284E+01  0.21653578696E+02  0.24558707462E+02  0.10566000000E+00 0.  1.
        -14    1    4    4    0    0  0.34119983660E+01 -0.19459537616E+01  0.93503847358E+01  0.10141901380E+02  0.00000000000E+00 0.  1.
<mgrwt>
<rscale>  0 0.79311603E+02</rscale>
<asrwt>0</asrwt>
<pdfrwt beam="1">  1        2 0.71589184E-02 0.79311603E+02</pdfrwt>
<pdfrwt beam="2">  1       -1 0.51992337E-02 0.79311603E+02</pdfrwt>
<totfact> 0.15066720E+05</totfact>
</mgrwt>
</event>
<event>
 8    1  0.1226832E-024  0.7696606E+02  0.7818608E-02  0.1337889E+00
         -1   -1    0    0    0  501 -0.00000000000E+00  0.00000000000E+00  0.14674444348E+01  0.14674530898E+01  0.50400000000E-02 0.  1.
          2   -1    0    0  501    0  0.00000000000E+00 -0.00000000000E+00 -0.10091960118E+04  0.10091960118E+04  0.25500000000E-02 0. -1.
         24    2    1    2    0    0  0.00000000000E+00 -0.17763568394E-14 -0.10077285674E+04  0.10106634649E+04  0.76966056061E+02 0.  0.
         66    2    3    3    0    0  0.11863724967E+02 -0.12767649939E+02 -0.95435548000E+03  0.95451670653E+03  0.19999989728E+01 0.  0.
        -13    1    3    3    0    0 -0.11863724967E+02  0.12767649939E+02 -0.53373087373E+02  0.56146758364E+02  0.10566000000E+00 0.  1.
         13    1    4    4    0    0  0.80624036802E+01 -0.76160853622E+01 -0.58828448183E+03  0.58838902933E+03  0.10566000000E+00 0. -1.
        -13    1    4    4    0    0  0.16475300582E+01 -0.24291481149E+01 -0.14930960517E+03  0.14933848960E+03  0.10566000000E+00 0.  1.
         14    1    4    4    0    0  0.21537912285E+01 -0.27224164623E+01 -0.21676139300E+03  0.21678918761E+03  0.00000000000E+00 0. -1.
<mgrwt>
<rscale>  0 0.76966056E+02</rscale>
<asrwt>0</asrwt>
<pdfrwt beam="1">  1        2 0.15526037E+00 0.76966056E+02</pdfrwt>
<pdfrwt beam="2">  1       -1 0.22576216E-03 0.76966056E+02</pdfrwt>
<totfact> 0.38956966E+05</totfact>
</mgrwt>
</event>
<event>
 8    1  0.1226832E-024  0.7898773E+02  0.7818608E-02  0.1331949E+00
          2   -1    0    0  501    0  0.00000000000E+00  0.00000000000E+00  0.91315971734E+02  0.91315971770E+02  0.25500000000E-02 0. -1.
         -1   -1    0    0    0  501 -0.00000000000E+00 -0.00000000000E+00 -0.17080968762E+02  0.17080969505E+02  0.50400000000E-02 0.  1.
         24    2    1    2    0    0  0.00000000000E+00  0.71054273576E-14  0.74235002973E+02  0.10839694128E+03  0.78987728233E+02 0.  0.
         66    2    3    3    0    0 -0.51747594690E+01 -0.37293739129E+02  0.53388048412E+02  0.65359657529E+02  0.20000013277E+01 0.  0.
        -13    1    3    3    0    0  0.51747594690E+01  0.37293739129E+02  0.20846954561E+02  0.43037283746E+02  0.10566000000E+00 0.  1.
         13    1    4    4    0    0 -0.12822535544E+00 -0.49464937171E+01  0.71962224380E+01  0.87339008036E+01  0.10566000000E+00 0. -1.
        -13    1    4    4    0    0 -0.45950018466E+01 -0.29020203320E+02  0.40935822150E+02  0.50388877164E+02  0.10566000000E+00 0.  1.
        -14    1    4    4    0    0 -0.45153226695E+00 -0.33270420918E+01  0.52560038235E+01  0.62368795613E+01  0.00000000000E+00 0.  1.
<mgrwt>
<rscale>  0 0.78987728E+02</rscale>
<asrwt>0</asrwt>
<pdfrwt beam="1">  1        2 0.14048611E-01 0.78987728E+02</pdfrwt>
<pdfrwt beam="2">  1       -1 0.26278414E-02 0.78987728E+02</pdfrwt>
<totfact> 0.17889190E+05</totfact>
</mgrwt>
</event>
<event>
 8    1  0.1226832E-024  0.7915972E+02  0.7818608E-02  0.1331453E+00
          2   -1    0    0  501    0  0.00000000000E+00  0.00000000000E+00  0.56125761272E+02  0.56125761329E+02  0.25500000000E-02 0. -1.
         -1   -1    0    0    0  501 -0.00000000000E+00 -0.00000000000E+00 -0.27911696617E+02  0.27911697072E+02  0.50400000000E-02 0.  1.
         24    2    1    2    0    0  0.00000000000E+00  0.00000000000E+00  0.28214064655E+02  0.84037458401E+02  0.79159718103E+02 0.  0.
         66    2    3    3    0    0 -0.10817149530E+02 -0.35498615164E+02  0.28648870095E+02  0.46924622046E+02  0.19999984631E+01 0.  0.
        -13    1    3    3    0    0  0.10817149530E+02  0.35498615164E+02 -0.43480544025E+00  0.37112836356E+02  0.10566000000E+00 0.  1.
         13    1    4    4    0    0 -0.55815979440E+01 -0.19417832425E+02  0.16424008348E+02  0.26037773829E+02  0.10566000000E+00 0. -1.
        -13    1    4    4    0    0 -0.10178237907E+01 -0.26603855737E+01  0.17115120396E+01  0.33247637761E+01  0.10566000000E+00 0.  1.
        -14    1    4    4    0    0 -0.42177277953E+01 -0.13420397166E+02  0.10513349708E+02  0.17562084441E+02  0.00000000000E+00 0.  1.
<mgrwt>
<rscale>  0 0.79159718E+02</rscale>
<asrwt>0</asrwt>
<pdfrwt beam="1">  1        2 0.86347324E-02 0.79159718E+02</pdfrwt>
<pdfrwt beam="2">  1       -1 0.42941073E-02 0.79159718E+02</pdfrwt>
<totfact> 0.15778337E+05</totfact>
</mgrwt>
</event>
<event>
 8    1  0.1226832E-024  0.8095894E+02  0.7818608E-02  0.1326352E+00
          2   -1    0    0  501    0  0.00000000000E+00  0.00000000000E+00  0.11195945868E+03  0.11195945871E+03  0.25500000000E-02 0. -1.
         -1   -1    0    0    0  501 -0.00000000000E+00 -0.00000000000E+00 -0.14635541290E+02  0.14635542157E+02  0.50400000000E-02 0.  1.
         24    2    1    2    0    0  0.00000000000E+00  0.88817841970E-15  0.97323917393E+02  0.12659500087E+03  0.80958936185E+02 0.  0.
         66    2    3    3    0    0 -0.31976980640E+02 -0.59165800407E+01  0.86319429705E+02  0.92263628575E+02  0.20000007828E+01 0.  0.
        -13    1    3    3    0    0  0.31976980640E+02  0.59165800407E+01  0.11004487688E+02  0.34331372294E+02  0.10566000000E+00 0.  1.
         13    1    4    4    0    0 -0.13699118235E+02 -0.21192064518E+01  0.35221955579E+02  0.37851739660E+02  0.10566000000E+00 0.  1.
        -13    1    4    4    0    0 -0.29138733644E+01 -0.77706244606E+00  0.93322525890E+01  0.98079858508E+01  0.10566000000E+00 0. -1.
         14    1    4    4    0    0 -0.15363989041E+02 -0.30203111428E+01  0.41765221536E+02  0.44603903065E+02  0.00000000000E+00 0. -1.
<mgrwt>
<rscale>  0 0.80958936E+02</rscale>
<asrwt>0</asrwt>
<pdfrwt beam="1">  1        2 0.17224532E-01 0.80958936E+02</pdfrwt>
<pdfrwt beam="2">  1       -1 0.22516218E-02 0.80958936E+02</pdfrwt>
<totfact> 0.17733620E+05</totfact>
</mgrwt>
</event>
<event>
 8    1  0.1226832E-024  0.8298267E+02  0.7818608E-02  0.1320794E+00
          2   -1    0    0  501    0  0.00000000000E+00  0.00000000000E+00  0.65450584959E+02  0.65450585009E+02  0.25500000000E-02 0. -1.
         -1   -1    0    0    0  501 -0.00000000000E+00 -0.00000000000E+00 -0.26302756282E+02  0.26302756765E+02  0.50400000000E-02 0.  1.
         24    2    1    2    0    0  0.00000000000E+00  0.00000000000E+00  0.39147828677E+02  0.91753341774E+02  0.82982668291E+02 0.  0.
         66    2    3    3    0    0  0.28492154046E+02  0.29273945283E+02  0.27462807098E+02  0.49264312509E+02  0.19999996648E+01 0.  0.
        -13    1    3    3    0    0 -0.28492154046E+02 -0.29273945283E+02  0.11685021579E+02  0.42489029266E+02  0.10566000000E+00 0.  1.
         13    1    4    4    0    0  0.23778214685E+02  0.24639712758E+02  0.22682441637E+02  0.41073388722E+02  0.10566000000E+00 0. -1.
        -13    1    4    4    0    0  0.32963102226E+00  0.60270853554E+00  0.48523739492E+00  0.84766358579E+00  0.10566000000E+00 0. -1.
         14    1    4    4    0    0  0.43843083387E+01  0.40315239892E+01  0.42951280658E+01  0.73432602014E+01  0.00000000000E+00 0. -1.
<mgrwt>
<rscale>  0 0.82982668E+02</rscale>
<asrwt>0</asrwt>
<pdfrwt beam="1">  1        2 0.10069321E-01 0.82982668E+02</pdfrwt>
<pdfrwt beam="2">  1       -1 0.40465779E-02 0.82982668E+02</pdfrwt>
<totfact> 0.14381663E+05</totfact>
</mgrwt>
</event>
<event>
 8    1  0.1226832E-024  0.7565092E+02  0.7818608E-02  0.1341867E+00
         -1   -1    0    0    0  501 -0.00000000000E+00  0.00000000000E+00  0.23306292530E+01  0.23306347025E+01  0.50400000000E-02 0.  1.
          2   -1    0    0  501    0  0.00000000000E+00 -0.00000000000E+00 -0.61389583808E+03  0.61389583808E+03  0.25500000000E-02 0. -1.
         24    2    1    2    0    0  0.00000000000E+00  0.00000000000E+00 -0.61156520883E+03  0.61622647279E+03  0.75650916167E+02 0.  0.
         66    2    3    3    0    0  0.67530962241E+01 -0.24795605934E+02 -0.53178389988E+03  0.53240824802E+03  0.20000008538E+01 0.  0.
        -13    1    3    3    0    0 -0.67530962241E+01  0.24795605934E+02 -0.79781308946E+02  0.83818224769E+02  0.10566000000E+00 0.  1.
         13    1    4    4    0    0  0.22566912960E+01 -0.66015463043E+01 -0.13103333439E+03  0.13121897330E+03  0.10566000000E+00 0. -1.
        -13    1    4    4    0    0  0.25868894302E+01 -0.11591489846E+02 -0.24869975167E+03  0.24898319677E+03  0.10566000000E+00 0.  1.
        -14    1    4    4    0    0  0.19095154980E+01 -0.66025697845E+01 -0.15205081382E+03  0.15220607794E+03  0.00000000000E+00 0.  1.
<mgrwt>
<rscale>  0 0.75650916E+02</rscale>
<asrwt>0</asrwt>
<pdfrwt beam="1">  1        2 0.94445385E-01 0.75650916E+02</pdfrwt>
<pdfrwt beam="2">  1       -1 0.35855926E-03 0.75650916E+02</pdfrwt>
<totfact> 0.37418090E+05</totfact>
</mgrwt>
</event>
<event>
 8    1  0.1226832E-024  0.7894442E+02  0.7818608E-02  0.1332074E+00
         -1   -1    0    0    0  501 -0.00000000000E+00  0.00000000000E+00  0.60011294628E+01  0.60011315792E+01  0.50400000000E-02 0.  1.
          2   -1    0    0  501    0  0.00000000000E+00 -0.00000000000E+00 -0.25962695302E+03  0.25962695303E+03  0.25500000000E-02 0. -1.
         24    2    1    2    0    0 -0.17763568394E-14  0.00000000000E+00 -0.25362582355E+03  0.26562808461E+03  0.78944416898E+02 0.  0.
         66    2    3    3    0    0 -0.13635758616E+02  0.22151903209E+02 -0.22667514771E+03  0.22817156553E+03  0.19999997831E+01 0.  0.
        -13    1    3    3    0    0  0.13635758616E+02 -0.22151903209E+02 -0.26950675843E+02  0.37456519075E+02  0.10566000000E+00 0.  1.
         13    1    4    4    0    0 -0.10841323445E+01  0.11355042509E+01 -0.12788335700E+02  0.12884774226E+02  0.10566000000E+00 0. -1.
        -13    1    4    4    0    0 -0.10781788661E+00  0.23343342867E+00 -0.18457134792E+01  0.18665310459E+01  0.10566000000E+00 0. -1.
         14    1    4    4    0    0 -0.12443808385E+02  0.20782965530E+02 -0.21204109853E+03  0.21342026026E+03  0.00000000000E+00 0. -1.
<mgrwt>
<rscale>  0 0.78944417E+02</rscale>
<asrwt>0</asrwt>
<pdfrwt beam="1">  1        2 0.39942600E-01 0.78944417E+02</pdfrwt>
<pdfrwt beam="2">  1       -1 0.92325105E-03 0.78944417E+02</pdfrwt>
<totfact> 0.25053340E+05</totfact>
</mgrwt>
</event>
<event>
 8    1  0.1226832E-024  0.7785764E+02  0.7818608E-02  0.1335243E+00
         -1   -1    0    0    0  501 -0.00000000000E+00  0.00000000000E+00  0.64742079200E+01  0.64742098818E+01  0.50400000000E-02 0.  1.
          2   -1    0    0  501    0  0.00000000000E+00 -0.00000000000E+00 -0.23407537571E+03  0.23407537573E+03  0.25500000000E-02 0. -1.
         24    2    1    2    0    0  0.00000000000E+00  0.00000000000E+00 -0.22760116779E+03  0.24054958561E+03  0.77857636464E+02 0.  0.
         66    2    3    3    0    0 -0.13061868836E+02 -0.33630701032E+02 -0.15884083647E+03  0.16289888827E+03  0.19999999287E+01 0.  0.
        -13    1    3    3    0    0  0.13061868836E+02  0.33630701032E+02 -0.68760331320E+02  0.77650697336E+02  0.10566000000E+00 0.  1.
         13    1    4    4    0    0 -0.51102018188E+01 -0.12720163522E+02 -0.56526504323E+02  0.58165054609E+02  0.10566000000E+00 0. -1.
        -13    1    4    4    0    0 -0.35023185647E+01 -0.93202958030E+01 -0.47089011705E+02  0.48130243471E+02  0.10566000000E+00 0.  1.
        -14    1    4    4    0    0 -0.44493484530E+01 -0.11590241708E+02 -0.55225320445E+02  0.56603590193E+02  0.00000000000E+00 0.  1.
<mgrwt>
<rscale>  0 0.77857636E+02</rscale>
<asrwt>0</asrwt>
<pdfrwt beam="1">  1        2 0.36011590E-01 0.77857636E+02</pdfrwt>
<pdfrwt beam="2">  1       -1 0.99603232E-03 0.77857636E+02</pdfrwt>
<totfact> 0.25037950E+05</totfact>
</mgrwt>
</event>
<event>
 8    1  0.1226832E-024  0.8013257E+02  0.7818608E-02  0.1328676E+00
         -1   -1    0    0    0  501 -0.00000000000E+00  0.00000000000E+00  0.72273350722E+01  0.72273368295E+01  0.50400000000E-02 0.  1.
          2   -1    0    0  501    0  0.00000000000E+00 -0.00000000000E+00 -0.22211602568E+03  0.22211602569E+03  0.25500000000E-02 0. -1.
         24    2    1    2    0    0  0.00000000000E+00  0.00000000000E+00 -0.21488869060E+03  0.22934336252E+03  0.80132568801E+02 0.  0.
         66    2    3    3    0    0 -0.32586287201E+02 -0.12421585258E+02 -0.51197747612E+02  0.61978796750E+02  0.19999980408E+01 0.  0.
        -13    1    3    3    0    0  0.32586287201E+02  0.12421585258E+02 -0.16369094299E+03  0.16736456577E+03  0.10566000000E+00 0.  1.
         13    1    4    4    0    0 -0.10555643590E+02 -0.36530102255E+01 -0.16795249208E+02  0.20170712811E+02  0.10566000000E+00 0. -1.
        -13    1    4    4    0    0 -0.19741688251E+02 -0.75448339115E+01 -0.31228524349E+02  0.37707965615E+02  0.10566000000E+00 0.  1.
        -14    1    4    4    0    0 -0.22889553598E+01 -0.12237411207E+01 -0.31739740545E+01  0.41001183237E+01  0.00000000000E+00 0.  1.
<mgrwt>
<rscale>  0 0.80132569E+02</rscale>
<asrwt>0</asrwt>
<pdfrwt beam="1">  1        2 0.34171691E-01 0.80132569E+02</pdfrwt>
<pdfrwt beam="2">  1       -1 0.11118980E-02 0.80132569E+02</pdfrwt>
<totfact> 0.22784849E+05</totfact>
</mgrwt>
</event>
<event>
 8    1  0.1226832E-024  0.7942518E+02  0.7818608E-02  0.1330691E+00
          2   -1    0    0  501    0  0.00000000000E+00  0.00000000000E+00  0.12542060837E+03  0.12542060840E+03  0.25500000000E-02 0. -1.
         -1   -1    0    0    0  501 -0.00000000000E+00 -0.00000000000E+00 -0.12574406058E+02  0.12574407068E+02  0.50400000000E-02 0.  1.
         24    2    1    2    0    0  0.00000000000E+00  0.00000000000E+00  0.11284620232E+03  0.13799501547E+03  0.79425178103E+02 0.  0.
         66    2    3    3    0    0  0.70633533779E+01 -0.34332876327E+02  0.88797575655E+02  0.95486369686E+02  0.19999989488E+01 0.  0.
        -13    1    3    3    0    0 -0.70633533779E+01  0.34332876327E+02  0.24048626661E+02  0.42508645781E+02  0.10566000000E+00 0.  1.
         13    1    4    4    0    0  0.26408102653E+01 -0.15807875511E+02  0.39593307887E+02  0.42714213097E+02  0.10566000000E+00 0. -1.
        -13    1    4    4    0    0  0.20812909376E+01 -0.66962287976E+01  0.17619798923E+02  0.18964169642E+02  0.10566000000E+00 0.  1.
         14    1    4    4    0    0  0.23412521749E+01 -0.11828772018E+02  0.31584468845E+02  0.33807986947E+02  0.00000000000E+00 0. -1.
<mgrwt>
<rscale>  0 0.79425178E+02</rscale>
<asrwt>0</asrwt>
<pdfrwt beam="1">  1        2 0.19295478E-01 0.79425178E+02</pdfrwt>
<pdfrwt beam="2">  1       -1 0.19345241E-02 0.79425178E+02</pdfrwt>
<totfact> 0.19304567E+05</totfact>
</mgrwt>
</event>
<event>
 8    1  0.1226832E-024  0.8070504E+02  0.7818608E-02  0.1327062E+00
          2   -1    0    0  501    0  0.00000000000E+00  0.00000000000E+00  0.18210282497E+03  0.18210282499E+03  0.25500000000E-02 0. -1.
         -1   -1    0    0    0  501 -0.00000000000E+00 -0.00000000000E+00 -0.89417922091E+01  0.89417936295E+01  0.50400000000E-02 0.  1.
         24    2    1    2    0    0  0.71054273576E-14  0.17763568394E-14  0.17316103276E+03  0.19104461861E+03  0.80705037239E+02 0.  0.
         66    2    3    3    0    0 -0.31399749792E+02 -0.15526563407E+02  0.13393614779E+03  0.13845544460E+03  0.19999994674E+01 0.  0.
        -13    1    3    3    0    0  0.31399749792E+02  0.15526563407E+02  0.39224884972E+02  0.52589174013E+02  0.10566000000E+00 0.  1.
         13    1    4    4    0    0 -0.37751737680E+01 -0.24627873519E+01  0.15908870791E+02  0.16535434449E+02  0.10566000000E+00 0. -1.
        -13    1    4    4    0    0 -0.41771079154E+01 -0.20057105052E+01  0.17282804375E+02  0.17893507098E+02  0.10566000000E+00 0.  1.
         14    1    4    4    0    0 -0.23447468109E+02 -0.11058065550E+02  0.10074447262E+03  0.10402650306E+03  0.00000000000E+00 0. -1.
<mgrwt>
<rscale>  0 0.80705037E+02</rscale>
<asrwt>0</asrwt>
<pdfrwt beam="1">  1        2 0.28015820E-01 0.80705037E+02</pdfrwt>
<pdfrwt beam="2">  1       -1 0.13756604E-02 0.80705037E+02</pdfrwt>
<totfact> 0.20868744E+05</totfact>
</mgrwt>
</event>
<event>
 8    1  0.1226832E-024  0.7957469E+02  0.7818608E-02  0.1330263E+00
          2   -1    0    0  501    0  0.00000000000E+00  0.00000000000E+00  0.43301704842E+03  0.43301704843E+03  0.25500000000E-02 0. -1.
         -1   -1    0    0    0  501 -0.00000000000E+00 -0.00000000000E+00 -0.36558188262E+01  0.36558223003E+01  0.50400000000E-02 0.  1.
         24    2    1    2    0    0  0.71054273576E-14  0.00000000000E+00  0.42936122959E+03  0.43667287073E+03  0.79574685367E+02 0.  0.
         66    2    3    3    0    0 -0.19063264371E+02  0.29518331381E+02  0.31693327195E+03  0.31888154354E+03  0.20000018267E+01 0.  0.
        -13    1    3    3    0    0  0.19063264371E+02 -0.29518331381E+02  0.11242795764E+03  0.11779132718E+03  0.10566000000E+00 0.  1.
         13    1    4    4    0    0 -0.64394047002E+01  0.10759787273E+02  0.11856545866E+03  0.11922675080E+03  0.10566000000E+00 0. -1.
        -13    1    4    4    0    0 -0.23993921886E+01  0.38736899102E+01  0.43156652155E+02  0.43396662840E+02  0.10566000000E+00 0.  1.
        -14    1    4    4    0    0 -0.10224467482E+02  0.14884854198E+02  0.15521116114E+03  0.15625812991E+03  0.00000000000E+00 0.  1.
<mgrwt>
<rscale>  0 0.79574685E+02</rscale>
<asrwt>0</asrwt>
<pdfrwt beam="1">  1        2 0.66617985E-01 0.79574685E+02</pdfrwt>
<pdfrwt beam="2">  1       -1 0.56243412E-03 0.79574685E+02</pdfrwt>
<totfact> 0.29444884E+05</totfact>
</mgrwt>
</event>
<event>
 8    1  0.1226832E-024  0.7621418E+02  0.7818608E-02  0.1340152E+00
          2   -1    0    0  501    0  0.00000000000E+00  0.00000000000E+00  0.28197873918E+03  0.28197873919E+03  0.25500000000E-02 0. -1.
         -1   -1    0    0    0  501 -0.00000000000E+00 -0.00000000000E+00 -0.51498557487E+01  0.51498582150E+01  0.50400000000E-02 0.  1.
         24    2    1    2    0    0  0.00000000000E+00 -0.35527136788E-14  0.27682888343E+03  0.28712859741E+03  0.76214176810E+02 0.  0.
         66    2    3    3    0    0  0.97849495169E+01  0.30786572706E+02  0.21447517212E+03  0.21690356786E+03  0.20000000052E+01 0.  0.
        -13    1    3    3    0    0 -0.97849495169E+01 -0.30786572706E+02  0.62353711313E+02  0.70225029545E+02  0.10566000000E+00 0.  1.
         13    1    4    4    0    0  0.56747631771E+01  0.15258429048E+02  0.10435973361E+03  0.10562190946E+03  0.10566000000E+00 0. -1.
        -13    1    4    4    0    0  0.98008502631E+00  0.34440304937E+01  0.23630486754E+02  0.23900480768E+02  0.10566000000E+00 0. -1.
         14    1    4    4    0    0  0.31301013135E+01  0.12084113164E+02  0.86484951752E+02  0.87381177634E+02  0.00000000000E+00 0. -1.
<mgrwt>
<rscale>  0 0.76214177E+02</rscale>
<asrwt>0</asrwt>
<pdfrwt beam="1">  1        2 0.43381350E-01 0.76214177E+02</pdfrwt>
<pdfrwt beam="2">  1       -1 0.79228559E-03 0.76214177E+02</pdfrwt>
<totfact> 0.28301764E+05</totfact>
</mgrwt>
</event>
<event>
 8    1  0.1226832E-024  0.8224081E+02  0.7818608E-02  0.1322810E+00
         -1   -1    0    0    0  501 -0.00000000000E+00  0.00000000000E+00  0.24500470998E+01  0.24500522837E+01  0.50400000000E-02 0.  1.
          2   -1    0    0  501    0  0.00000000000E+00 -0.00000000000E+00 -0.69014418600E+03  0.69014418600E+03  0.25500000000E-02 0. -1.
         24    2    1    2    0    0  0.00000000000E+00  0.17763568394E-14 -0.68769413890E+03  0.69259423829E+03  0.82240806372E+02 0.  0.
         66    2    3    3    0    0  0.20814349439E+02  0.11428076591E+02 -0.62652247760E+03  0.62697548040E+03  0.20000004089E+01 0.  0.
        -13    1    3    3    0    0 -0.20814349439E+02 -0.11428076591E+02 -0.61171661296E+02  0.65618757889E+02  0.10566000000E+00 0.  1.
         13    1    4    4    0    0  0.77655145601E+01  0.50435702134E+01 -0.24260583385E+03  0.24278250060E+03  0.10566000000E+00 0. -1.
        -13    1    4    4    0    0  0.70297039840E+01  0.38911785451E+01 -0.22156906475E+03  0.22171472578E+03  0.10566000000E+00 0.  1.
        -14    1    4    4    0    0  0.60191308951E+01  0.24933278326E+01 -0.16234757900E+03  0.16247825402E+03  0.00000000000E+00 0.  1.
<mgrwt>
<rscale>  0 0.82240806E+02</rscale>
<asrwt>0</asrwt>
<pdfrwt beam="1">  1        2 0.10617587E+00 0.82240806E+02</pdfrwt>
<pdfrwt beam="2">  1       -1 0.37693127E-03 0.82240806E+02</pdfrwt>
<totfact> 0.31028456E+05</totfact>
</mgrwt>
</event>
<event>
 8    1  0.1226832E-024  0.7745360E+02  0.7818608E-02  0.1336437E+00
          2   -1    0    0  501    0  0.00000000000E+00  0.00000000000E+00  0.53793928825E+02  0.53793928885E+02  0.25500000000E-02 0. -1.
         -1   -1    0    0    0  501 -0.00000000000E+00 -0.00000000000E+00 -0.27879822140E+02  0.27879822596E+02  0.50400000000E-02 0.  1.
         24    2    1    2    0    0  0.00000000000E+00  0.00000000000E+00  0.25914106684E+02  0.81673751481E+02  0.77453603891E+02 0.  0.
         66    2    3    3    0    0  0.10907101954E+02 -0.99407240179E+01  0.50691778500E+02  0.52834073055E+02  0.20000002792E+01 0.  0.
        -13    1    3    3    0    0 -0.10907101954E+02  0.99407240179E+01 -0.24777671815E+02  0.28839678425E+02  0.10566000000E+00 0.  1.
         13    1    4    4    0    0  0.75921153620E+01 -0.72263381944E+01  0.32882506812E+02  0.34512759925E+02  0.10566000000E+00 0. -1.
        -13    1    4    4    0    0  0.34901099294E+00 -0.31327398631E+00  0.22681689940E+01  0.23185564226E+01  0.10566000000E+00 0. -1.
         14    1    4    4    0    0  0.29659755995E+01 -0.24011118373E+01  0.15541102694E+02  0.16002756708E+02  0.00000000000E+00 0. -1.
<mgrwt>
<rscale>  0 0.77453604E+02</rscale>
<asrwt>0</asrwt>
<pdfrwt beam="1">  1        2 0.82759891E-02 0.77453604E+02</pdfrwt>
<pdfrwt beam="2">  1       -1 0.42892035E-02 0.77453604E+02</pdfrwt>
<totfact> 0.16585191E+05</totfact>
</mgrwt>
</event>
<event>
 8    1  0.1226832E-024  0.8074035E+02  0.7818608E-02  0.1326963E+00
         -1   -1    0    0    0  501 -0.00000000000E+00  0.00000000000E+00  0.17048853802E+02  0.17048854547E+02  0.50400000000E-02 0.  1.
          2   -1    0    0  501    0  0.00000000000E+00 -0.00000000000E+00 -0.95593004669E+02  0.95593004703E+02  0.25500000000E-02 0. -1.
         24    2    1    2    0    0  0.00000000000E+00 -0.71054273576E-14 -0.78544150867E+02  0.11264185925E+03  0.80740354345E+02 0.  0.
         66    2    3    3    0    0  0.43327222064E+01  0.34873437387E+02 -0.66946692469E+02  0.75635895916E+02  0.20000003865E+01 0.  0.
        -13    1    3    3    0    0 -0.43327222064E+01 -0.34873437387E+02 -0.11597458399E+02  0.37005963334E+02  0.10566000000E+00 0.  1.
         13    1    4    4    0    0  0.45937251872E+00  0.27968117733E+01 -0.53535333900E+01  0.60584373397E+01  0.10566000000E+00 0.  1.
        -13    1    4    4    0    0  0.72837295179E+00  0.94438276258E+01 -0.19643568872E+02  0.21808195006E+02  0.10566000000E+00 0.  1.
         14    1    4    4    0    0  0.31449767359E+01  0.22632797988E+02 -0.41949590207E+02  0.47769263569E+02  0.00000000000E+00 0. -1.
<mgrwt>
<rscale>  0 0.80740354E+02</rscale>
<asrwt>0</asrwt>
<pdfrwt beam="1">  1        2 0.14706616E-01 0.80740354E+02</pdfrwt>
<pdfrwt beam="2">  1       -1 0.26229007E-02 0.80740354E+02</pdfrwt>
<totfact> 0.17078070E+05</totfact>
</mgrwt>
</event>
<event>
 8    1  0.1226832E-024  0.7803784E+02  0.7818608E-02  0.1334714E+00
          2   -1    0    0  501    0  0.00000000000E+00  0.00000000000E+00  0.36582770295E+03  0.36582770296E+03  0.25500000000E-02 0. -1.
         -1   -1    0    0    0  501 -0.00000000000E+00 -0.00000000000E+00 -0.41617289268E+01  0.41617319786E+01  0.50400000000E-02 0.  1.
         24    2    1    2    0    0 -0.35527136788E-14 -0.11102230246E-15  0.36166597402E+03  0.36998943494E+03  0.78037844661E+02 0.  0.
         66    2    3    3    0    0  0.28423633773E+02 -0.43980859110E+00  0.30749450705E+03  0.30881218928E+03  0.19999980911E+01 0.  0.
        -13    1    3    3    0    0 -0.28423633773E+02  0.43980859110E+00  0.54171466975E+02  0.61177245661E+02  0.10566000000E+00 0.  1.
         13    1    4    4    0    0  0.12852522632E+02  0.56420385392E+00  0.13784098887E+03  0.13844007744E+03  0.10566000000E+00 0. -1.
        -13    1    4    4    0    0  0.15302229763E+02 -0.10652126485E+01  0.16751907187E+03  0.16821992604E+03  0.10566000000E+00 0.  1.
        -14    1    4    4    0    0  0.26888137750E+00  0.61200203516E-01  0.21344463092E+01  0.21521857975E+01  0.00000000000E+00 0.  1.
<mgrwt>
<rscale>  0 0.78037845E+02</rscale>
<asrwt>0</asrwt>
<pdfrwt beam="1">  1        2 0.56281212E-01 0.78037845E+02</pdfrwt>
<pdfrwt beam="2">  1       -1 0.64026592E-03 0.78037845E+02</pdfrwt>
<totfact> 0.29211512E+05</totfact>
</mgrwt>
</event>
<event>
 8    1  0.1226832E-024  0.8114356E+02  0.7818608E-02  0.1325837E+00
          2   -1    0    0  501    0  0.00000000000E+00  0.00000000000E+00  0.73264772301E+02  0.73264772346E+02  0.25500000000E-02 0. -1.
         -1   -1    0    0    0  501 -0.00000000000E+00 -0.00000000000E+00 -0.22467407407E+02  0.22467407972E+02  0.50400000000E-02 0.  1.
         24    2    1    2    0    0  0.00000000000E+00  0.44408920985E-15  0.50797364894E+02  0.95732180318E+02  0.81143564552E+02 0.  0.
         66    2    3    3    0    0  0.20358297195E+02 -0.24284118094E+01  0.66684842609E+02  0.69794166501E+02  0.19999988004E+01 0.  0.
        -13    1    3    3    0    0 -0.20358297195E+02  0.24284118094E+01 -0.15887477714E+02  0.25938013817E+02  0.10566000000E+00 0.  1.
         13    1    4    4    0    0  0.20481546241E+01 -0.69099211210E+00  0.63908148234E+01  0.67473020983E+01  0.10566000000E+00 0.  1.
        -13    1    4    4    0    0  0.75190709121E+01 -0.11198762112E+01  0.23650996694E+02  0.24842933779E+02  0.10566000000E+00 0. -1.
         14    1    4    4    0    0  0.10791071659E+02 -0.61754348607E+00  0.36643031091E+02  0.38203930623E+02  0.00000000000E+00 0. -1.
<mgrwt>
<rscale>  0 0.81143565E+02</rscale>
<asrwt>0</asrwt>
<pdfrwt beam="1">  1        2 0.11271503E-01 0.81143565E+02</pdfrwt>
<pdfrwt beam="2">  1       -1 0.34565243E-02 0.81143565E+02</pdfrwt>
<totfact> 0.15713676E+05</totfact>
</mgrwt>
</event>
<event>
 8    1  0.1226832E-024  0.8222325E+02  0.7818608E-02  0.1322858E+00
         -1   -1    0    0    0  501 -0.00000000000E+00  0.00000000000E+00  0.27273225832E+01  0.27273272401E+01  0.50400000000E-02 0.  1.
          2   -1    0    0  501    0  0.00000000000E+00 -0.00000000000E+00 -0.61971552153E+03  0.61971552154E+03  0.25500000000E-02 0. -1.
         24    2    1    2    0    0  0.17763568394E-14  0.00000000000E+00 -0.61698819895E+03  0.62244284878E+03  0.82223247029E+02 0.  0.
         66    2    3    3    0    0  0.12544414386E+02  0.17734373236E+02 -0.57268799587E+03  0.57310331612E+03  0.20000007348E+01 0.  0.
        -13    1    3    3    0    0 -0.12544414386E+02 -0.17734373236E+02 -0.44300203075E+02  0.49339532658E+02  0.10566000000E+00 0.  1.
         13    1    4    4    0    0  0.82703541121E+01  0.10201424412E+02 -0.33964050454E+03  0.33989432373E+03  0.10566000000E+00 0. -1.
        -13    1    4    4    0    0  0.15187039808E+00  0.33678240485E+00 -0.10605868347E+02  0.10612826882E+02  0.10566000000E+00 0. -1.
         14    1    4    4    0    0  0.41221898759E+01  0.71961664192E+01 -0.22244162299E+03  0.22259616551E+03  0.00000000000E+00 0. -1.
<mgrwt>
<rscale>  0 0.82223247E+02</rscale>
<asrwt>0</asrwt>
<pdfrwt beam="1">  1        2 0.95340738E-01 0.82223247E+02</pdfrwt>
<pdfrwt beam="2">  1       -1 0.41958894E-03 0.82223247E+02</pdfrwt>
<totfact> 0.30213053E+05</totfact>
</mgrwt>
</event>
<event>
 8    1  0.1380898E-024  0.8029295E+02  0.7818608E-02  0.1328222E+00
          2   -1    0    0  501    0  0.00000000000E+00  0.00000000000E+00  0.12889507609E+03  0.12889507612E+03  0.25500000000E-02 0. -1.
         -1   -1    0    0    0  501 -0.00000000000E+00 -0.00000000000E+00 -0.12504275443E+02  0.12504276458E+02  0.50400000000E-02 0.  1.
         24    2    1    2    0    0 -0.55511151231E-16  0.00000000000E+00  0.11639080065E+03  0.14139935258E+03  0.80292953820E+02 0.  0.
         66    2    3    3    0    0 -0.37464134657E+00 -0.23474648342E+02  0.11552718627E+03  0.11790559884E+03  0.19999997782E+01 0.  0.
        -13    1    3    3    0    0  0.37464134657E+00  0.23474648342E+02  0.86361438151E+00  0.23493753739E+02  0.10566000000E+00 0.  1.
         13    1    4    4    0    0 -0.27556870868E+00 -0.99526910048E+01  0.49703673296E+02  0.50691205347E+02  0.10566000000E+00 0. -1.
        -13    1    4    4    0    0 -0.62010723412E+00 -0.10382893632E+02  0.51860241015E+02  0.52893144880E+02  0.10566000000E+00 0.  1.
        -14    1    4    4    0    0  0.52103459623E+00 -0.31390637057E+01  0.13963271960E+02  0.14321248613E+02  0.00000000000E+00 0.  1.
<mgrwt>
<rscale>  0 0.80292954E+02</rscale>
<asrwt>0</asrwt>
<pdfrwt beam="1">  1        2 0.19830013E-01 0.80292954E+02</pdfrwt>
<pdfrwt beam="2">  1       -1 0.19237347E-02 0.80292954E+02</pdfrwt>
<totfact> 0.18911370E+05</totfact>
</mgrwt>
</event>
<event>
 8    1  0.1226832E-024  0.7975047E+02  0.7818608E-02  0.1329761E+00
          2   -1    0    0  501    0  0.00000000000E+00  0.00000000000E+00  0.83251184464E+01  0.83251188369E+01  0.25500000000E-02 0. -1.
         -1   -1    0    0    0  501 -0.00000000000E+00 -0.00000000000E+00 -0.19099237962E+03  0.19099237969E+03  0.50400000000E-02 0.  1.
         24    2    1    2    0    0  0.00000000000E+00  0.00000000000E+00 -0.18266726117E+03  0.19931749852E+03  0.79750466538E+02 0.  0.
         66    2    3    3    0    0 -0.71431435993E+01 -0.37906595158E+02 -0.66386422309E+02  0.76805543564E+02  0.19999995494E+01 0.  0.
        -13    1    3    3    0    0  0.71431435993E+01  0.37906595158E+02 -0.11628083887E+03  0.12251195496E+03  0.10566000000E+00 0.  1.
         13    1    4    4    0    0 -0.34105807808E+01 -0.18091707139E+02 -0.30269848169E+02  0.35429038947E+02  0.10566000000E+00 0. -1.
        -13    1    4    4    0    0 -0.13782799706E+01 -0.78453777141E+01 -0.13286079524E+02  0.15491309832E+02  0.10566000000E+00 0.  1.
        -14    1    4    4    0    0 -0.23542828479E+01 -0.11969510305E+02 -0.22830494616E+02  0.25885194786E+02  0.00000000000E+00 0.  1.
<mgrwt>
<rscale>  0 0.79750467E+02</rscale>
<asrwt>0</asrwt>
<pdfrwt beam="1">  1        2 0.12807876E-02 0.79750467E+02</pdfrwt>
<pdfrwt beam="2">  1       -1 0.29383440E-01 0.79750467E+02</pdfrwt>
<totfact> 0.10178732E+05</totfact>
</mgrwt>
</event>
<event>
 8    1  0.1226832E-024  0.8071191E+02  0.7818608E-02  0.1327043E+00
         -1   -1    0    0    0  501 -0.00000000000E+00  0.00000000000E+00  0.17847038112E+02  0.17847038824E+02  0.50400000000E-02 0.  1.
          2   -1    0    0  501    0  0.00000000000E+00 -0.00000000000E+00 -0.91253415640E+02  0.91253415675E+02  0.25500000000E-02 0. -1.
         24    2    1    2    0    0  0.35527136788E-14  0.00000000000E+00 -0.73406377527E+02  0.10910045450E+03  0.80711913062E+02 0.  0.
         66    2    3    3    0    0 -0.24245235060E+02  0.18834884868E+02 -0.72078265536E+02  0.78370024033E+02  0.19999983152E+01 0.  0.
        -13    1    3    3    0    0  0.24245235060E+02 -0.18834884868E+02 -0.13281119916E+01  0.30730430466E+02  0.10566000000E+00 0.  1.
         13    1    4    4    0    0 -0.71958617742E+01  0.62191591252E+01 -0.22548421607E+02  0.24472450795E+02  0.10566000000E+00 0. -1.
        -13    1    4    4    0    0 -0.57062805011E+00  0.54285212771E+00 -0.24852108466E+01  0.26091649606E+01  0.10566000000E+00 0.  1.
        -14    1    4    4    0    0 -0.16478745236E+02  0.12072873615E+02 -0.47044633082E+02  0.51288408278E+02  0.00000000000E+00 0.  1.
<mgrwt>
<rscale>  0 0.80711913E+02</rscale>
<asrwt>0</asrwt>
<pdfrwt beam="1">  1        2 0.14038987E-01 0.80711913E+02</pdfrwt>
<pdfrwt beam="2">  1       -1 0.27456983E-02 0.80711913E+02</pdfrwt>
<totfact> 0.16878463E+05</totfact>
</mgrwt>
</event>
<event>
 8    1  0.1226832E-024  0.8042776E+02  0.7818608E-02  0.1327842E+00
         -1   -1    0    0    0  501 -0.00000000000E+00  0.00000000000E+00  0.78053363607E+02  0.78053363770E+02  0.50400000000E-02 0.  1.
          2   -1    0    0  501    0  0.00000000000E+00 -0.00000000000E+00 -0.20718596487E+02  0.20718596644E+02  0.25500000000E-02 0. -1.
         24    2    1    2    0    0  0.35527136788E-14  0.00000000000E+00  0.57334767121E+02  0.98771960414E+02  0.80427760402E+02 0.  0.
         66    2    3    3    0    0  0.24846892144E+02 -0.17619115786E+02 -0.35120300473E+01  0.30726790270E+02  0.19999987347E+01 0.  0.
        -13    1    3    3    0    0 -0.24846892144E+02  0.17619115786E+02  0.60846797168E+02  0.68045170144E+02  0.10566000000E+00 0.  1.
         13    1    4    4    0    0  0.50382516956E+01 -0.38091513012E+01 -0.14872799482E-01  0.63170403686E+01  0.10566000000E+00 0. -1.
        -13    1    4    4    0    0  0.36573032266E+01 -0.24949760586E+01 -0.89982247773E+00  0.45190283193E+01  0.10566000000E+00 0.  1.
         14    1    4    4    0    0  0.16151337222E+02 -0.11314988427E+02 -0.25973347701E+01  0.19890721582E+02  0.00000000000E+00 0. -1.
<mgrwt>
<rscale>  0 0.80427760E+02</rscale>
<asrwt>0</asrwt>
<pdfrwt beam="1">  1        2 0.31874763E-02 0.80427760E+02</pdfrwt>
<pdfrwt beam="2">  1       -1 0.12008210E-01 0.80427760E+02</pdfrwt>
<totfact> 0.12314724E+05</totfact>
</mgrwt>
</event>
<event>
 8    1  0.1226832E-024  0.7783498E+02  0.7818608E-02  0.1335310E+00
          2   -1    0    0  501    0  0.00000000000E+00  0.00000000000E+00  0.11832867602E+03  0.11832867605E+03  0.25500000000E-02 0. -1.
         -1   -1    0    0    0  501 -0.00000000000E+00 -0.00000000000E+00 -0.12799694913E+02  0.12799695905E+02  0.50400000000E-02 0.  1.
         24    2    1    2    0    0  0.00000000000E+00  0.00000000000E+00  0.10552898111E+03  0.13112837195E+03  0.77834979782E+02 0.  0.
         66    2    3    3    0    0  0.34694961307E+02  0.16466848837E+02  0.63139023981E+02  0.73928572304E+02  0.20000007303E+01 0.  0.
        -13    1    3    3    0    0 -0.34694961307E+02 -0.16466848837E+02  0.42389957127E+02  0.57199799650E+02  0.10566000000E+00 0.  1.
         13    1    4    4    0    0  0.14219616890E+02  0.65787180102E+01  0.25207414624E+02  0.29679992439E+02  0.10566000000E+00 0. -1.
        -13    1    4    4    0    0  0.12795725875E+02  0.67588934960E+01  0.23207318260E+02  0.27349662279E+02  0.10566000000E+00 0.  1.
        -14    1    4    4    0    0  0.76796185427E+01  0.31292373308E+01  0.14724291098E+02  0.16898917585E+02  0.00000000000E+00 0.  1.
<mgrwt>
<rscale>  0 0.77834980E+02</rscale>
<asrwt>0</asrwt>
<pdfrwt beam="1">  1        2 0.18204411E-01 0.77834980E+02</pdfrwt>
<pdfrwt beam="2">  1       -1 0.19691840E-02 0.77834980E+02</pdfrwt>
<totfact> 0.20019225E+05</totfact>
</mgrwt>
</event>
<event>
 8    1  0.1226832E-024  0.7292810E+02  0.7818608E-02  0.1350410E+00
         -1   -1    0    0    0  501 -0.00000000000E+00  0.00000000000E+00  0.22892140775E+03  0.22892140780E+03  0.50400000000E-02 0.  1.
          2   -1    0    0  501    0  0.00000000000E+00 -0.00000000000E+00 -0.58082239474E+01  0.58082245072E+01  0.25500000000E-02 0. -1.
         24    2    1    2    0    0  0.00000000000E+00  0.00000000000E+00  0.22311318380E+03  0.23472963231E+03  0.72928098145E+02 0.  0.
         66    2    3    3    0    0 -0.22690839373E+02  0.27717642586E+02  0.90174012132E+02  0.97048927672E+02  0.19999990551E+01 0.  0.
        -13    1    3    3    0    0  0.22690839373E+02 -0.27717642586E+02  0.13293917167E+03  0.13768070464E+03  0.10566000000E+00 0.  1.
         13    1    4    4    0    0 -0.53879127547E+01  0.79018125204E+01  0.24201595600E+02  0.26023002105E+02  0.10566000000E+00 0. -1.
        -13    1    4    4    0    0 -0.48029545757E+01  0.52260721720E+01  0.17514030290E+02  0.18897952906E+02  0.10566000000E+00 0.  1.
         14    1    4    4    0    0 -0.12499972043E+02  0.14589757893E+02  0.48458386242E+02  0.52127972660E+02  0.00000000000E+00 0. -1.
<mgrwt>
<rscale>  0 0.72928098E+02</rscale>
<asrwt>0</asrwt>
<pdfrwt beam="1">  1        2 0.89357313E-03 0.72928098E+02</pdfrwt>
<pdfrwt beam="2">  1       -1 0.35218672E-01 0.72928098E+02</pdfrwt>
<totfact> 0.12078793E+05</totfact>
</mgrwt>
</event>
<event>
 8    1  0.1226832E-024  0.7930124E+02  0.7818608E-02  0.1331046E+00
          2   -1    0    0  501    0  0.00000000000E+00  0.00000000000E+00  0.23654230368E+02  0.23654230506E+02  0.25500000000E-02 0. -1.
         -1   -1    0    0    0  501 -0.00000000000E+00 -0.00000000000E+00 -0.66464708115E+02  0.66464708306E+02  0.50400000000E-02 0.  1.
         24    2    1    2    0    0  0.00000000000E+00  0.00000000000E+00 -0.42810477747E+02  0.90118938812E+02  0.79301236609E+02 0.  0.
         66    2    3    3    0    0  0.13839896060E+02  0.20867071301E+02  0.13481994828E+02  0.28508622953E+02  0.20000026173E+01 0.  0.
        -13    1    3    3    0    0 -0.13839896060E+02 -0.20867071301E+02 -0.56292472575E+02  0.61610315859E+02  0.10566000000E+00 0.  1.
         13    1    4    4    0    0  0.18704178643E+01  0.29466749089E+01  0.24997433852E+01  0.42943261442E+01  0.10566000000E+00 0. -1.
        -13    1    4    4    0    0  0.49629027526E+01  0.71521581919E+01  0.38390443056E+01  0.95148933651E+01  0.10566000000E+00 0.  1.
        -14    1    4    4    0    0  0.70065754428E+01  0.10768238201E+02  0.71432071376E+01  0.14699403443E+02  0.00000000000E+00 0.  1.
<mgrwt>
<rscale>  0 0.79301237E+02</rscale>
<asrwt>0</asrwt>
<pdfrwt beam="1">  1        2 0.36391124E-02 0.79301237E+02</pdfrwt>
<pdfrwt beam="2">  1       -1 0.10225340E-01 0.79301237E+02</pdfrwt>
<totfact> 0.13162960E+05</totfact>
</mgrwt>
</event>
<event>
 8    1  0.1226832E-024  0.7953862E+02  0.7818608E-02  0.1330366E+00
          2   -1    0    0  501    0  0.00000000000E+00  0.00000000000E+00  0.73703481498E+02  0.73703481542E+02  0.25500000000E-02 0. -1.
         -1   -1    0    0    0  501 -0.00000000000E+00 -0.00000000000E+00 -0.21458930035E+02  0.21458930627E+02  0.50400000000E-02 0.  1.
         24    2    1    2    0    0  0.35527136788E-14  0.35527136788E-14  0.52244551463E+02  0.95162412169E+02  0.79538616610E+02 0.  0.
         66    2    3    3    0    0 -0.18296198048E+02 -0.18037836280E+02  0.62417988036E+02  0.67528657874E+02  0.20000007712E+01 0.  0.
        -13    1    3    3    0    0  0.18296198048E+02  0.18037836280E+02 -0.10173436573E+02  0.27633754295E+02  0.10566000000E+00 0.  1.
         13    1    4    4    0    0 -0.63494108927E+01 -0.64755553515E+01  0.19660938082E+02  0.21652055008E+02  0.10566000000E+00 0. -1.
        -13    1    4    4    0    0 -0.78424379084E+01 -0.77613288658E+01  0.28405039957E+02  0.30472930891E+02  0.10566000000E+00 0.  1.
         14    1    4    4    0    0 -0.41043492473E+01 -0.38009520628E+01  0.14352009997E+02  0.15403671974E+02  0.00000000000E+00 0. -1.
<mgrwt>
<rscale>  0 0.79538617E+02</rscale>
<asrwt>0</asrwt>
<pdfrwt beam="1">  1        2 0.11338997E-01 0.79538617E+02</pdfrwt>
<pdfrwt beam="2">  1       -1 0.33013740E-02 0.79538617E+02</pdfrwt>
<totfact> 0.16610614E+05</totfact>
</mgrwt>
</event>
<event>
 8    1  0.1226832E-024  0.7924169E+02  0.7818608E-02  0.1331217E+00
          2   -1    0    0  501    0  0.00000000000E+00  0.00000000000E+00  0.30920511777E+02  0.30920511882E+02  0.25500000000E-02 0. -1.
         -1   -1    0    0    0  501 -0.00000000000E+00 -0.00000000000E+00 -0.50769249644E+02  0.50769249894E+02  0.50400000000E-02 0.  1.
         24    2    1    2    0    0  0.00000000000E+00  0.00000000000E+00 -0.19848737866E+02  0.81689761776E+02  0.79241685900E+02 0.  0.
         66    2    3    3    0    0 -0.10577190326E+01 -0.36522684012E+02  0.57978414304E+01  0.37049159063E+02  0.20000012485E+01 0.  0.
        -13    1    3    3    0    0  0.10577190326E+01  0.36522684012E+02 -0.25646579297E+02  0.44640602714E+02  0.10566000000E+00 0.  1.
         13    1    4    4    0    0 -0.63617303240E+00 -0.77598483541E+01  0.15112006578E+01  0.79318884302E+01  0.10566000000E+00 0. -1.
        -13    1    4    4    0    0 -0.77920656820E-01 -0.11325135802E+02  0.10076758882E+01  0.11370635308E+02  0.10566000000E+00 0.  1.
         14    1    4    4    0    0 -0.34362534337E+00 -0.17437699855E+02  0.32789648845E+01  0.17746635324E+02  0.00000000000E+00 0. -1.
<mgrwt>
<rscale>  0 0.79241686E+02</rscale>
<asrwt>0</asrwt>
<pdfrwt beam="1">  1        2 0.47570018E-02 0.79241686E+02</pdfrwt>
<pdfrwt beam="2">  1       -1 0.78106538E-02 0.79241686E+02</pdfrwt>
<totfact> 0.13901145E+05</totfact>
</mgrwt>
</event>
<event>
 8    1  0.1226832E-024  0.8084740E+02  0.7818608E-02  0.1326664E+00
         -1   -1    0    0    0  501 -0.00000000000E+00  0.00000000000E+00  0.13703219686E+03  0.13703219695E+03  0.50400000000E-02 0.  1.
          2   -1    0    0  501    0  0.00000000000E+00 -0.00000000000E+00 -0.11924755857E+02  0.11924756130E+02  0.25500000000E-02 0. -1.
         24    2    1    2    0    0 -0.17763568394E-14  0.00000000000E+00  0.12510744100E+03  0.14895695308E+03  0.80847399942E+02 0.  0.
         66    2    3    3    0    0  0.15492080629E+02  0.35310346959E+02  0.84796644481E+02  0.93173473047E+02  0.19999999459E+01 0.  0.
        -13    1    3    3    0    0 -0.15492080629E+02 -0.35310346959E+02  0.40310796520E+02  0.55783480034E+02  0.10566000000E+00 0.  1.
         13    1    4    4    0    0  0.24381538400E+01  0.62649542327E+01  0.16004491767E+02  0.17359411466E+02  0.10566000000E+00 0.  1.
        -13    1    4    4    0    0  0.51711193283E+01  0.12022657169E+02  0.29538257712E+02  0.32307964858E+02  0.10566000000E+00 0. -1.
        -14    1    4    4    0    0  0.78828074610E+01  0.17022735557E+02  0.39253895002E+02  0.43506096724E+02  0.00000000000E+00 0.  1.
<mgrwt>
<rscale>  0 0.80847400E+02</rscale>
<asrwt>0</asrwt>
<pdfrwt beam="1">  1        2 0.18345779E-02 0.80847400E+02</pdfrwt>
<pdfrwt beam="2">  1       -1 0.21081875E-01 0.80847400E+02</pdfrwt>
<totfact> 0.10743825E+05</totfact>
</mgrwt>
</event>
<event>
 8    1  0.1226832E-024  0.7871057E+02  0.7818608E-02  0.1332751E+00
          2   -1    0    0  501    0  0.00000000000E+00  0.00000000000E+00  0.35360669785E+02  0.35360669877E+02  0.25500000000E-02 0. -1.
         -1   -1    0    0    0  501 -0.00000000000E+00 -0.00000000000E+00 -0.43801165164E+02  0.43801165454E+02  0.50400000000E-02 0.  1.
         24    2    1    2    0    0  0.17763568394E-14 -0.35527136788E-14 -0.84404953789E+01  0.79161835331E+02  0.78710572420E+02 0.  0.
         66    2    3    3    0    0  0.14125854658E+02 -0.30696909106E+02  0.16016865682E+02  0.37448364215E+02  0.19999994072E+01 0.  0.
        -13    1    3    3    0    0 -0.14125854658E+02  0.30696909106E+02 -0.24457361061E+02  0.41713471116E+02  0.10566000000E+00 0.  1.
         13    1    4    4    0    0  0.76579961487E+01 -0.16541029620E+02  0.92681857062E+01  0.20448985212E+02  0.10566000000E+00 0. -1.
        -13    1    4    4    0    0  0.26755541800E+01 -0.46814929071E+01  0.25180881463E+01  0.59520498955E+01  0.10566000000E+00 0.  1.
        -14    1    4    4    0    0  0.37923043289E+01 -0.94743865789E+01  0.42305918294E+01  0.11047329107E+02  0.00000000000E+00 0.  1.
<mgrwt>
<rscale>  0 0.78710572E+02</rscale>
<asrwt>0</asrwt>
<pdfrwt beam="1">  1        2 0.54401031E-02 0.78710572E+02</pdfrwt>
<pdfrwt beam="2">  1       -1 0.67386408E-02 0.78710572E+02</pdfrwt>
<totfact> 0.14544209E+05</totfact>
</mgrwt>
</event>
<event>
 8    1  0.1226832E-024  0.8167082E+02  0.7818608E-02  0.1324376E+00
         -1   -1    0    0    0  501 -0.00000000000E+00  0.00000000000E+00  0.65208469590E+01  0.65208489067E+01  0.50400000000E-02 0.  1.
          2   -1    0    0  501    0  0.00000000000E+00 -0.00000000000E+00 -0.25572296753E+03  0.25572296755E+03  0.25500000000E-02 0. -1.
         24    2    1    2    0    0  0.00000000000E+00  0.00000000000E+00 -0.24920212057E+03  0.26224381645E+03  0.81670817119E+02 0.  0.
         66    2    3    3    0    0  0.93329709122E+01 -0.13801254380E+02 -0.24430134212E+03  0.24487695830E+03  0.19999943022E+01 0.  0.
        -13    1    3    3    0    0 -0.93329709122E+01  0.13801254380E+02 -0.49007784535E+01  0.17366858150E+02  0.10566000000E+00 0.  1.
         13    1    4    4    0    0  0.59500441552E+01 -0.74501819935E+01 -0.13604295769E+03  0.13637670526E+03  0.10566000000E+00 0. -1.
        -13    1    4    4    0    0  0.52943373561E+00 -0.71114279858E+00 -0.10600137854E+02  0.10637674122E+02  0.10566000000E+00 0.  1.
         14    1    4    4    0    0  0.28534930214E+01 -0.56399295879E+01 -0.97658246574E+02  0.97862578916E+02  0.00000000000E+00 0. -1.
<mgrwt>
<rscale>  0 0.81670817E+02</rscale>
<asrwt>0</asrwt>
<pdfrwt beam="1">  1        2 0.39341987E-01 0.81670817E+02</pdfrwt>
<pdfrwt beam="2">  1       -1 0.10032076E-02 0.81670817E+02</pdfrwt>
<totfact> 0.22789272E+05</totfact>
</mgrwt>
</event>
<event>
 8    1  0.1226832E-024  0.8006218E+02  0.7818608E-02  0.1328875E+00
          2   -1    0    0  501    0  0.00000000000E+00  0.00000000000E+00  0.27195002078E+03  0.27195002079E+03  0.25500000000E-02 0. -1.
         -1   -1    0    0    0  501 -0.00000000000E+00 -0.00000000000E+00 -0.58925822427E+01  0.58925843981E+01  0.50400000000E-02 0.  1.
         24    2    1    2    0    0  0.00000000000E+00  0.00000000000E+00  0.26605743854E+03  0.27784260519E+03  0.80062179946E+02 0.  0.
         66    2    3    3    0    0 -0.28123375441E+02 -0.28387765551E+02  0.12644184253E+03  0.13262099767E+03  0.20000001483E+01 0.  0.
        -13    1    3    3    0    0  0.28123375441E+02  0.28387765551E+02  0.13961559601E+03  0.14522160752E+03  0.10566000000E+00 0.  1.
         13    1    4    4    0    0 -0.16928540301E+02 -0.17139369442E+02  0.75656045008E+02  0.79398877649E+02  0.10566000000E+00 0. -1.
        -13    1    4    4    0    0 -0.67008808490E+01 -0.75720727551E+01  0.32462156352E+02  0.34000600716E+02  0.10566000000E+00 0.  1.
        -14    1    4    4    0    0 -0.44939542900E+01 -0.36763233538E+01  0.18323641170E+02  0.19221519303E+02  0.00000000000E+00 0.  1.
<mgrwt>
<rscale>  0 0.80062180E+02</rscale>
<asrwt>0</asrwt>
<pdfrwt beam="1">  1        2 0.41838469E-01 0.80062180E+02</pdfrwt>
<pdfrwt beam="2">  1       -1 0.90655119E-03 0.80062180E+02</pdfrwt>
<totfact> 0.24553728E+05</totfact>
</mgrwt>
</event>
<event>
 8    1  0.1226832E-024  0.7944348E+02  0.7818608E-02  0.1330638E+00
          2   -1    0    0  501    0  0.00000000000E+00  0.00000000000E+00  0.16221027732E+03  0.16221027734E+03  0.25500000000E-02 0. -1.
         -1   -1    0    0    0  501 -0.00000000000E+00 -0.00000000000E+00 -0.97269818777E+01  0.97269831834E+01  0.50400000000E-02 0.  1.
         24    2    1    2    0    0  0.35527136788E-14  0.00000000000E+00  0.15248329544E+03  0.17193726053E+03  0.79443477816E+02 0.  0.
         66    2    3    3    0    0  0.23648473406E+02  0.30046813240E+02  0.99372610821E+02  0.10649402355E+03  0.19999976888E+01 0.  0.
        -13    1    3    3    0    0 -0.23648473406E+02 -0.30046813240E+02  0.53110684623E+02  0.65443236972E+02  0.10566000000E+00 0.  1.
         13    1    4    4    0    0  0.10444755606E+02  0.12522861657E+02  0.41955604959E+02  0.45013319532E+02  0.10566000000E+00 0. -1.
        -13    1    4    4    0    0  0.12713305379E+02  0.17199447020E+02  0.55665271896E+02  0.59632900070E+02  0.10566000000E+00 0.  1.
         14    1    4    4    0    0  0.49041242059E+00  0.32450456222E+00  0.17517339661E+01  0.18478039509E+01  0.00000000000E+00 0. -1.
<mgrwt>
<rscale>  0 0.79443478E+02</rscale>
<asrwt>0</asrwt>
<pdfrwt beam="1">  1        2 0.24955426E-01 0.79443478E+02</pdfrwt>
<pdfrwt beam="2">  1       -1 0.14964589E-02 0.79443478E+02</pdfrwt>
<totfact> 0.20930751E+05</totfact>
</mgrwt>
</event>
<event>
 8    1  0.1226832E-024  0.8001034E+02  0.7818608E-02  0.1329022E+00
         -1   -1    0    0    0  501 -0.00000000000E+00  0.00000000000E+00  0.40163830977E+01  0.40163862600E+01  0.50400000000E-02 0.  1.
          2   -1    0    0  501    0  0.00000000000E+00 -0.00000000000E+00 -0.39847115705E+03  0.39847115706E+03  0.25500000000E-02 0. -1.
         24    2    1    2    0    0  0.00000000000E+00  0.00000000000E+00 -0.39445477395E+03  0.40248754332E+03  0.80010335786E+02 0.  0.
         66    2    3    3    0    0 -0.40878316168E+01  0.22349905467E+02 -0.36283430251E+03  0.36355049130E+03  0.20000009206E+01 0.  0.
        -13    1    3    3    0    0  0.40878316168E+01 -0.22349905467E+02 -0.31620471441E+02  0.38937052019E+02  0.10566000000E+00 0.  1.
         13    1    4    4    0    0 -0.24390623771E+01  0.11443442335E+02 -0.18890443064E+03  0.18926646950E+03  0.10566000000E+00 0. -1.
        -13    1    4    4    0    0 -0.16444279443E+00  0.48440168982E+01 -0.71503889118E+02  0.71668046325E+02  0.10566000000E+00 0.  1.
        -14    1    4    4    0    0 -0.14843264452E+01  0.60624462337E+01 -0.10242598275E+03  0.10261597547E+03  0.00000000000E+00 0.  1.
<mgrwt>
<rscale>  0 0.80010336E+02</rscale>
<asrwt>0</asrwt>
<pdfrwt beam="1">  1        2 0.61303224E-01 0.80010336E+02</pdfrwt>
<pdfrwt beam="2">  1       -1 0.61790565E-03 0.80010336E+02</pdfrwt>
<totfact> 0.28206277E+05</totfact>
</mgrwt>
</event>
<event>
 8    1  0.1226832E-024  0.7315247E+02  0.7818608E-02  0.1349690E+00
         -1   -1    0    0    0  501 -0.00000000000E+00  0.00000000000E+00  0.55090210715E+02  0.55090210945E+02  0.50400000000E-02 0.  1.
          2   -1    0    0  501    0  0.00000000000E+00 -0.00000000000E+00 -0.24284187823E+02  0.24284187957E+02  0.25500000000E-02 0. -1.
         24    2    1    2    0    0  0.00000000000E+00  0.00000000000E+00  0.30806022892E+02  0.79374398902E+02  0.73152471966E+02 0.  0.
         66    2    3    3    0    0  0.70871523041E+01  0.25639664614E+02 -0.11781132993E+02  0.29161879151E+02  0.19999929281E+01 0.  0.
        -13    1    3    3    0    0 -0.70871523041E+01 -0.25639664614E+02  0.42587155885E+02  0.50212519751E+02  0.10566000000E+00 0.  1.
         13    1    4    4    0    0  0.34937540324E+01  0.11342935255E+02 -0.61519313818E+01  0.13368841431E+02  0.10566000000E+00 0. -1.
        -13    1    4    4    0    0  0.52711840964E+00  0.14085740931E+01 -0.59872455091E+00  0.16222114280E+01  0.10566000000E+00 0.  1.
         14    1    4    4    0    0  0.30662798622E+01  0.12888155266E+02 -0.50304770606E+01  0.14170826292E+02  0.00000000000E+00 0. -1.
<mgrwt>
<rscale>  0 0.73152472E+02</rscale>
<asrwt>0</asrwt>
<pdfrwt beam="1">  1        2 0.37360289E-02 0.73152472E+02</pdfrwt>
<pdfrwt beam="2">  1       -1 0.84754170E-02 0.73152472E+02</pdfrwt>
<totfact> 0.16597602E+05</totfact>
</mgrwt>
</event>
<event>
 8    1  0.1226832E-024  0.7799618E+02  0.7818608E-02  0.1334836E+00
          2   -1    0    0  501    0  0.00000000000E+00  0.00000000000E+00  0.35594076511E+02  0.35594076602E+02  0.25500000000E-02 0. -1.
         -1   -1    0    0    0  501 -0.00000000000E+00 -0.00000000000E+00 -0.42727639050E+02  0.42727639347E+02  0.50400000000E-02 0.  1.
         24    2    1    2    0    0  0.00000000000E+00  0.00000000000E+00 -0.71335625391E+01  0.78321715949E+02  0.77996176026E+02 0.  0.
         66    2    3    3    0    0  0.27075424746E+02  0.13475966450E+02  0.21113252197E+02  0.36938458421E+02  0.19999988162E+01 0.  0.
        -13    1    3    3    0    0 -0.27075424746E+02 -0.13475966450E+02 -0.28246814736E+02  0.41383257528E+02  0.10566000000E+00 0.  1.
         13    1    4    4    0    0  0.54285352548E+01  0.21270217999E+01  0.40347000747E+01  0.70910637763E+01  0.10566000000E+00 0. -1.
        -13    1    4    4    0    0  0.20974345916E+02  0.10743947332E+02  0.16302524651E+02  0.28655524160E+02  0.10566000000E+00 0.  1.
        -14    1    4    4    0    0  0.67254357438E+00  0.60499731836E+00  0.77602747111E+00  0.11918704840E+01  0.00000000000E+00 0.  1.
<mgrwt>
<rscale>  0 0.77996176E+02</rscale>
<asrwt>0</asrwt>
<pdfrwt beam="1">  1        2 0.54760118E-02 0.77996176E+02</pdfrwt>
<pdfrwt beam="2">  1       -1 0.65734830E-02 0.77996176E+02</pdfrwt>
<totfact> 0.14935775E+05</totfact>
</mgrwt>
</event>
<event>
 8    1  0.1226832E-024  0.7922934E+02  0.7818608E-02  0.1331253E+00
          2   -1    0    0  501    0  0.00000000000E+00  0.00000000000E+00  0.74816300619E+02  0.74816300663E+02  0.25500000000E-02 0. -1.
         -1   -1    0    0    0  501 -0.00000000000E+00 -0.00000000000E+00 -0.20975668124E+02  0.20975668729E+02  0.50400000000E-02 0.  1.
         24    2    1    2    0    0  0.00000000000E+00  0.00000000000E+00  0.53840632496E+02  0.95791969392E+02  0.79229336060E+02 0.  0.
         66    2    3    3    0    0 -0.36496883136E+02  0.15320849751E+02  0.27847070725E+02  0.48437694682E+02  0.20000006044E+01 0.  0.
        -13    1    3    3    0    0  0.36496883136E+02 -0.15320849751E+02  0.25993561770E+02  0.47354274710E+02  0.10566000000E+00 0.  1.
         13    1    4    4    0    0 -0.24486259372E+02  0.10126976633E+02  0.18699602936E+02  0.32431757087E+02  0.10566000000E+00 0. -1.
        -13    1    4    4    0    0 -0.80952875136E+01  0.40625138322E+01  0.63931464005E+01  0.11086982615E+02  0.10566000000E+00 0.  1.
         14    1    4    4    0    0 -0.39153362503E+01  0.11313592861E+01  0.27543213888E+01  0.49189549805E+01  0.00000000000E+00 0. -1.
<mgrwt>
<rscale>  0 0.79229336E+02</rscale>
<asrwt>0</asrwt>
<pdfrwt beam="1">  1        2 0.11510200E-01 0.79229336E+02</pdfrwt>
<pdfrwt beam="2">  1       -1 0.32270259E-02 0.79229336E+02</pdfrwt>
<totfact> 0.16848987E+05</totfact>
</mgrwt>
</event>
<event>
 8    1  0.1226832E-024  0.7971083E+02  0.7818608E-02  0.1329874E+00
         -1   -1    0    0    0  501 -0.00000000000E+00  0.00000000000E+00  0.59873771906E+00  0.59875893131E+00  0.50400000000E-02 0.  1.
          2   -1    0    0  501    0  0.00000000000E+00 -0.00000000000E+00 -0.26529577609E+04  0.26529577609E+04  0.25500000000E-02 0. -1.
         24    2    1    2    0    0  0.22204460493E-15  0.00000000000E+00 -0.26523590232E+04  0.26535565199E+04  0.79710827976E+02 0.  0.
         66    2    3    3    0    0  0.15620617497E+01  0.11086563229E+02 -0.25994909060E+04  0.25995157861E+04  0.20000075670E+01 0.  0.
        -13    1    3    3    0    0 -0.15620617497E+01 -0.11086563229E+02 -0.52868117218E+02  0.54040733742E+02  0.10566000000E+00 0.  1.
         13    1    4    4    0    0  0.60971270424E+00  0.54384735756E+01 -0.13508381142E+04  0.13508492035E+04  0.10566000000E+00 0. -1.
        -13    1    4    4    0    0 -0.11762661894E+00  0.11692711252E+01 -0.35053597474E+03  0.35053796055E+03  0.10566000000E+00 0.  1.
         14    1    4    4    0    0  0.10699756644E+01  0.44788185278E+01 -0.89811681705E+03  0.89812862204E+03  0.00000000000E+00 0. -1.
<mgrwt>
<rscale>  0 0.79710828E+02</rscale>
<asrwt>0</asrwt>
<pdfrwt beam="1">  1        2 0.40813793E+00 0.79710828E+02</pdfrwt>
<pdfrwt beam="2">  1       -1 0.92117252E-04 0.79710828E+02</pdfrwt>
<totfact> 0.19087994E+05</totfact>
</mgrwt>
</event>
<event>
 8    1  0.1226832E-024  0.7936960E+02  0.7818608E-02  0.1330850E+00
         -1   -1    0    0    0  501 -0.00000000000E+00  0.00000000000E+00  0.39872376420E+02  0.39872376739E+02  0.50400000000E-02 0.  1.
          2   -1    0    0  501    0  0.00000000000E+00 -0.00000000000E+00 -0.39498104722E+02  0.39498104804E+02  0.25500000000E-02 0. -1.
         24    2    1    2    0    0  0.71054273576E-14  0.00000000000E+00  0.37427169873E+00  0.79370481543E+02  0.79369599099E+02 0.  0.
         66    2    3    3    0    0 -0.35861426619E+02 -0.37712775857E+01 -0.16323953061E+02  0.39632510684E+02  0.20000014478E+01 0.  0.
        -13    1    3    3    0    0  0.35861426619E+02  0.37712775857E+01  0.16698224760E+02  0.39737970859E+02  0.10566000000E+00 0.  1.
         13    1    4    4    0    0 -0.45128165550E+01 -0.37374992381E+00 -0.18202167816E+01  0.48815525637E+01  0.10566000000E+00 0. -1.
        -13    1    4    4    0    0 -0.73775307667E+01 -0.75571667911E+00 -0.26227934140E+01  0.78669738299E+01  0.10566000000E+00 0.  1.
         14    1    4    4    0    0 -0.23971079298E+02 -0.26418109828E+01 -0.11880942866E+02  0.26883984291E+02  0.00000000000E+00 0. -1.
<mgrwt>
<rscale>  0 0.79369599E+02</rscale>
<asrwt>0</asrwt>
<pdfrwt beam="1">  1        2 0.60766315E-02 0.79369599E+02</pdfrwt>
<pdfrwt beam="2">  1       -1 0.61342118E-02 0.79369599E+02</pdfrwt>
<totfact> 0.14532728E+05</totfact>
</mgrwt>
</event>
<event>
 8    1  0.1226832E-024  0.8151088E+02  0.7818608E-02  0.1324818E+00
         -1   -1    0    0    0  501 -0.00000000000E+00  0.00000000000E+00  0.13167407120E+01  0.13167503576E+01  0.50400000000E-02 0.  1.
          2   -1    0    0  501    0  0.00000000000E+00 -0.00000000000E+00 -0.12614478962E+04  0.12614478962E+04  0.25500000000E-02 0. -1.
         24    2    1    2    0    0 -0.35527136788E-14  0.00000000000E+00 -0.12601311555E+04  0.12627646465E+04  0.81510880075E+02 0.  0.
         66    2    3    3    0    0 -0.24830000151E+02  0.11674309628E+02 -0.10967967310E+04  0.10971416898E+04  0.19999985309E+01 0.  0.
        -13    1    3    3    0    0  0.24830000151E+02 -0.11674309628E+02 -0.16333442449E+03  0.16562295675E+03  0.10566000000E+00 0.  1.
         13    1    4    4    0    0 -0.10964763258E+02  0.55327537242E+01 -0.47756137988E+03  0.47771929008E+03  0.10566000000E+00 0. -1.
        -13    1    4    4    0    0 -0.31425933569E+01  0.93775769011E+00 -0.12063754033E+03  0.12068215520E+03  0.10566000000E+00 0.  1.
        -14    1    4    4    0    0 -0.10722643536E+02  0.52037982140E+01 -0.49859781077E+03  0.49874024452E+03  0.00000000000E+00 0.  1.
<mgrwt>
<rscale>  0 0.81510880E+02</rscale>
<asrwt>0</asrwt>
<pdfrwt beam="1">  1        2 0.19406794E+00 0.81510880E+02</pdfrwt>
<pdfrwt beam="2">  1       -1 0.20257725E-03 0.81510880E+02</pdfrwt>
<totfact> 0.33150220E+05</totfact>
</mgrwt>
</event>
<event>
 8    1  0.1226832E-024  0.8036698E+02  0.7818608E-02  0.1328013E+00
          2   -1    0    0  501    0  0.00000000000E+00  0.00000000000E+00  0.18038405619E+02  0.18038405799E+02  0.25500000000E-02 0. -1.
         -1   -1    0    0    0  501 -0.00000000000E+00 -0.00000000000E+00 -0.89515265903E+02  0.89515266045E+02  0.50400000000E-02 0.  1.
         24    2    1    2    0    0  0.00000000000E+00 -0.17763568394E-14 -0.71476860284E+02  0.10755367184E+03  0.80366975624E+02 0.  0.
         66    2    3    3    0    0  0.13394160597E+02 -0.11263871559E+02  0.12611113571E+02  0.21663760611E+02  0.19999994295E+01 0.  0.
        -13    1    3    3    0    0 -0.13394160597E+02  0.11263871559E+02 -0.84087973855E+02  0.85889911233E+02  0.10566000000E+00 0.  1.
         13    1    4    4    0    0  0.57028928665E+01 -0.42550456086E+01  0.46683610593E+01  0.85107672506E+01  0.10566000000E+00 0. -1.
        -13    1    4    4    0    0  0.52305002448E+01 -0.43974891793E+01  0.45168337170E+01  0.81920079807E+01  0.10566000000E+00 0.  1.
        -14    1    4    4    0    0  0.24607674853E+01 -0.26113367711E+01  0.34259187943E+01  0.49609853794E+01  0.00000000000E+00 0.  1.
<mgrwt>
<rscale>  0 0.80366976E+02</rscale>
<asrwt>0</asrwt>
<pdfrwt beam="1">  1        2 0.27751394E-02 0.80366976E+02</pdfrwt>
<pdfrwt beam="2">  1       -1 0.13771579E-01 0.80366976E+02</pdfrwt>
<totfact> 0.11996131E+05</totfact>
</mgrwt>
</event>
<event>
 8    1  0.1226832E-024  0.8047972E+02  0.7818608E-02  0.1327696E+00
          2   -1    0    0  501    0  0.00000000000E+00  0.00000000000E+00  0.33304698407E+03  0.33304698408E+03  0.25500000000E-02 0. -1.
         -1   -1    0    0    0  501 -0.00000000000E+00 -0.00000000000E+00 -0.48619139885E+01  0.48619166008E+01  0.50400000000E-02 0.  1.
         24    2    1    2    0    0 -0.35527136788E-14  0.00000000000E+00  0.32818507008E+03  0.33790890068E+03  0.80479717537E+02 0.  0.
         66    2    3    3    0    0  0.26577714940E+02  0.22337646517E+02  0.24940679841E+03  0.25181957129E+03  0.20000020537E+01 0.  0.
        -13    1    3    3    0    0 -0.26577714940E+02 -0.22337646517E+02  0.78778271673E+02  0.86089329393E+02  0.10566000000E+00 0.  1.
         13    1    4    4    0    0  0.15519265672E+02  0.11848882043E+02  0.13979657026E+03  0.14115358952E+03  0.10566000000E+00 0.  1.
        -13    1    4    4    0    0  0.88226495016E+01  0.80914190314E+01  0.85968520535E+02  0.86798086921E+02  0.10566000000E+00 0. -1.
        -14    1    4    4    0    0  0.22357997663E+01  0.23973454432E+01  0.23641707610E+02  0.23867894848E+02  0.00000000000E+00 0.  1.
<mgrwt>
<rscale>  0 0.80479718E+02</rscale>
<asrwt>0</asrwt>
<pdfrwt beam="1">  1        2 0.51237999E-01 0.80479718E+02</pdfrwt>
<pdfrwt beam="2">  1       -1 0.74798696E-03 0.80479718E+02</pdfrwt>
<totfact> 0.26063171E+05</totfact>
</mgrwt>
</event>
<event>
 8    1  0.1226832E-024  0.8052753E+02  0.7818608E-02  0.1327561E+00
          2   -1    0    0  501    0  0.00000000000E+00  0.00000000000E+00  0.82526003089E+03  0.82526003090E+03  0.25500000000E-02 0. -1.
         -1   -1    0    0    0  501 -0.00000000000E+00 -0.00000000000E+00 -0.19644333088E+01  0.19644397742E+01  0.50400000000E-02 0.  1.
         24    2    1    2    0    0  0.00000000000E+00  0.00000000000E+00  0.82329559759E+03  0.82722447067E+03  0.80527534891E+02 0.  0.
         66    2    3    3    0    0  0.18371292134E+01 -0.29093845940E+02  0.69683080599E+03  0.69744318699E+03  0.19999988759E+01 0.  0.
        -13    1    3    3    0    0 -0.18371292134E+01  0.29093845940E+02  0.12646479160E+03  0.12978128368E+03  0.10566000000E+00 0.  1.
         13    1    4    4    0    0  0.10556597119E+00 -0.12220611876E+02  0.29728982701E+03  0.29754093316E+03  0.10566000000E+00 0. -1.
        -13    1    4    4    0    0  0.26733199791E+00 -0.10488730040E+01  0.21755225746E+02  0.21782392253E+02  0.10566000000E+00 0.  1.
         14    1    4    4    0    0  0.14642312443E+01 -0.15824361060E+02  0.37778575323E+03  0.37811986158E+03  0.00000000000E+00 0. -1.
<mgrwt>
<rscale>  0 0.80527535E+02</rscale>
<asrwt>0</asrwt>
<pdfrwt beam="1">  1        2 0.12696283E+00 0.80527535E+02</pdfrwt>
<pdfrwt beam="2">  1       -1 0.30222162E-03 0.80527535E+02</pdfrwt>
<totfact> 0.33957395E+05</totfact>
</mgrwt>
</event>
<event>
 8    1  0.1226832E-024  0.8129330E+02  0.7818608E-02  0.1325421E+00
          2   -1    0    0  501    0  0.00000000000E+00  0.00000000000E+00  0.12064706236E+03  0.12064706239E+03  0.25500000000E-02 0. -1.
         -1   -1    0    0    0  501 -0.00000000000E+00 -0.00000000000E+00 -0.13694077973E+02  0.13694078901E+02  0.50400000000E-02 0.  1.
         24    2    1    2    0    0  0.35527136788E-14 -0.17763568394E-14  0.10695298439E+03  0.13434114129E+03  0.81293304602E+02 0.  0.
         66    2    3    3    0    0  0.30331834059E+02  0.96617104764E+01  0.95209896301E+02  0.10041062274E+03  0.19999999106E+01 0.  0.
        -13    1    3    3    0    0 -0.30331834059E+02 -0.96617104764E+01  0.11743088085E+02  0.33930518541E+02  0.10566000000E+00 0.  1.
         13    1    4    4    0    0  0.26069843275E+01  0.11617366323E+01  0.93337554860E+01  0.97609505068E+01  0.10566000000E+00 0. -1.
        -13    1    4    4    0    0  0.66770669363E+01  0.15927771503E+01  0.21398543324E+02  0.22472849894E+02  0.10566000000E+00 0.  1.
        -14    1    4    4    0    0  0.21047782795E+02  0.69071966938E+01  0.64477597490E+02  0.68176822344E+02  0.00000000000E+00 0.  1.
<mgrwt>
<rscale>  0 0.81293305E+02</rscale>
<asrwt>0</asrwt>
<pdfrwt beam="1">  1        2 0.18561087E-01 0.81293305E+02</pdfrwt>
<pdfrwt beam="2">  1       -1 0.21067813E-02 0.81293305E+02</pdfrwt>
<totfact> 0.17932448E+05</totfact>
</mgrwt>
</event>
<event>
 8    1  0.1226832E-024  0.7968269E+02  0.7818608E-02  0.1329954E+00
         -1   -1    0    0    0  501 -0.00000000000E+00  0.00000000000E+00  0.64297930700E+02  0.64297930898E+02  0.50400000000E-02 0.  1.
          2   -1    0    0  501    0  0.00000000000E+00 -0.00000000000E+00 -0.24687153685E+02  0.24687153817E+02  0.25500000000E-02 0. -1.
         24    2    1    2    0    0  0.17763568394E-14  0.00000000000E+00  0.39610777015E+02  0.88985084714E+02  0.79682693515E+02 0.  0.
         66    2    3    3    0    0  0.10454876214E+02 -0.13384866810E+01 -0.23060327829E+02  0.25433731231E+02  0.19999953727E+01 0.  0.
        -13    1    3    3    0    0 -0.10454876214E+02  0.13384866810E+01  0.62671104844E+02  0.63551353484E+02  0.10566000000E+00 0.  1.
         13    1    4    4    0    0  0.62172538481E+01 -0.10233908798E+01 -0.13641968514E+02  0.15027176823E+02  0.10566000000E+00 0. -1.
        -13    1    4    4    0    0  0.12505981809E+01 -0.63204670858E+00 -0.25883092705E+01  0.29451634534E+01  0.10566000000E+00 0.  1.
         14    1    4    4    0    0  0.29870241854E+01  0.31695090734E+00 -0.68300500439E+01  0.74613909537E+01  0.00000000000E+00 0. -1.
<mgrwt>
<rscale>  0 0.79682694E+02</rscale>
<asrwt>0</asrwt>
<pdfrwt beam="1">  1        2 0.37980237E-02 0.79682694E+02</pdfrwt>
<pdfrwt beam="2">  1       -1 0.98919893E-02 0.79682694E+02</pdfrwt>
<totfact> 0.13094748E+05</totfact>
</mgrwt>
</event>
<event>
 8    1  0.1226832E-024  0.7701946E+02  0.7818608E-02  0.1337729E+00
         -1   -1    0    0    0  501 -0.00000000000E+00  0.00000000000E+00  0.17192405121E+03  0.17192405128E+03  0.50400000000E-02 0.  1.
          2   -1    0    0  501    0  0.00000000000E+00 -0.00000000000E+00 -0.86258977513E+01  0.86258981282E+01  0.25500000000E-02 0. -1.
         24    2    1    2    0    0  0.00000000000E+00 -0.35527136788E-14  0.16329815345E+03  0.18054994941E+03  0.77019460590E+02 0.  0.
         66    2    3    3    0    0  0.24081148885E+02  0.28673181813E+02  0.10253205350E+03  0.10917360070E+03  0.20000020707E+01 0.  0.
        -13    1    3    3    0    0 -0.24081148885E+02 -0.28673181813E+02  0.60766099951E+02  0.71376348703E+02  0.10566000000E+00 0.  1.
         13    1    4    4    0    0  0.10385592305E+02  0.12131244833E+02  0.42134771411E+02  0.45059713211E+02  0.10566000000E+00 0. -1.
        -13    1    4    4    0    0  0.13374116352E+02  0.16383477015E+02  0.59219780268E+02  0.62883056910E+02  0.10566000000E+00 0.  1.
        -14    1    4    4    0    0  0.32144022751E+00  0.15845996504E+00  0.11775018245E+01  0.12308305843E+01  0.00000000000E+00 0.  1.
<mgrwt>
<rscale>  0 0.77019461E+02</rscale>
<asrwt>0</asrwt>
<pdfrwt beam="1">  1        2 0.13270613E-02 0.77019461E+02</pdfrwt>
<pdfrwt beam="2">  1       -1 0.26449853E-01 0.77019461E+02</pdfrwt>
<totfact> 0.11456056E+05</totfact>
</mgrwt>
</event>
<event>
 8    1  0.1226832E-024  0.8012341E+02  0.7818608E-02  0.1328702E+00
          2   -1    0    0  501    0  0.00000000000E+00  0.00000000000E+00  0.14353193993E+02  0.14353194220E+02  0.25500000000E-02 0. -1.
         -1   -1    0    0    0  501 -0.00000000000E+00 -0.00000000000E+00 -0.11181762936E+03  0.11181762947E+03  0.50400000000E-02 0.  1.
         24    2    1    2    0    0  0.00000000000E+00 -0.71054273576E-14 -0.97464435364E+02  0.12617082369E+03  0.80123408502E+02 0.  0.
         66    2    3    3    0    0  0.25186189809E+02  0.28084665409E+02 -0.27644836260E+02  0.46811639148E+02  0.19999999074E+01 0.  0.
        -13    1    3    3    0    0 -0.25186189809E+02 -0.28084665409E+02 -0.69819599104E+02  0.79359184543E+02  0.10566000000E+00 0.  1.
         13    1    4    4    0    0  0.65064198920E+01  0.67756977611E+01 -0.64488117935E+01  0.11394819768E+02  0.10566000000E+00 0. -1.
        -13    1    4    4    0    0  0.11283182354E+02  0.12042194480E+02 -0.12892209878E+02  0.20941463452E+02  0.10566000000E+00 0.  1.
        -14    1    4    4    0    0  0.73965875623E+01  0.92667731683E+01 -0.83038145883E+01  0.14475355928E+02  0.00000000000E+00 0.  1.
<mgrwt>
<rscale>  0 0.80123409E+02</rscale>
<asrwt>0</asrwt>
<pdfrwt beam="1">  1        2 0.22081838E-02 0.80123409E+02</pdfrwt>
<pdfrwt beam="2">  1       -1 0.17202712E-01 0.80123409E+02</pdfrwt>
<totfact> 0.11522885E+05</totfact>
</mgrwt>
</event>
<event>
 8    1  0.1226832E-024  0.7937657E+02  0.7818608E-02  0.1330830E+00
         -1   -1    0    0    0  501 -0.00000000000E+00  0.00000000000E+00  0.36840964799E+02  0.36840965143E+02  0.50400000000E-02 0.  1.
          2   -1    0    0  501    0  0.00000000000E+00 -0.00000000000E+00 -0.42755665800E+02  0.42755665876E+02  0.25500000000E-02 0. -1.
         24    2    1    2    0    0  0.00000000000E+00  0.35527136788E-14 -0.59147010018E+01  0.79596631020E+02  0.79376570736E+02 0.  0.
         66    2    3    3    0    0 -0.70858171819E+00 -0.21828579865E+02 -0.36159409675E+02  0.42290565109E+02  0.20000005512E+01 0.  0.
        -13    1    3    3    0    0  0.70858171819E+00  0.21828579865E+02  0.30244708673E+02  0.37306065911E+02  0.10566000000E+00 0.  1.
         13    1    4    4    0    0  0.50079602290E+00 -0.63024184574E+01 -0.96491222786E+01  0.11536377241E+02  0.10566000000E+00 0. -1.
        -13    1    4    4    0    0 -0.10535733715E+01 -0.95541462028E+01 -0.16077416296E+02  0.18731956793E+02  0.10566000000E+00 0.  1.
         14    1    4    4    0    0 -0.15580436962E+00 -0.59720152052E+01 -0.10432871100E+02  0.12022231074E+02  0.00000000000E+00 0. -1.
<mgrwt>
<rscale>  0 0.79376571E+02</rscale>
<asrwt>0</asrwt>
<pdfrwt beam="1">  1        2 0.65777947E-02 0.79376571E+02</pdfrwt>
<pdfrwt beam="2">  1       -1 0.56678408E-02 0.79376571E+02</pdfrwt>
<totfact> 0.14768059E+05</totfact>
</mgrwt>
</event>
<event>
 8    1  0.1226832E-024  0.8122496E+02  0.7818608E-02  0.1325611E+00
         -1   -1    0    0    0  501 -0.00000000000E+00  0.00000000000E+00  0.80408110716E+01  0.80408126511E+01  0.50400000000E-02 0.  1.
          2   -1    0    0  501    0  0.00000000000E+00 -0.00000000000E+00 -0.20512526903E+03  0.20512526904E+03  0.25500000000E-02 0. -1.
         24    2    1    2    0    0 -0.71054273576E-14  0.00000000000E+00 -0.19708445795E+03  0.21316608169E+03  0.81224964248E+02 0.  0.
         66    2    3    3    0    0 -0.37792592285E+02 -0.27552839888E+01 -0.13676817121E+03  0.14193450701E+03  0.20000004770E+01 0.  0.
        -13    1    3    3    0    0  0.37792592285E+02  0.27552839888E+01 -0.60316286744E+02  0.71231574685E+02  0.10566000000E+00 0.  1.
         13    1    4    4    0    0 -0.30855764520E+02 -0.23997319022E+01 -0.11215308480E+03  0.11634501499E+03  0.10566000000E+00 0. -1.
        -13    1    4    4    0    0 -0.64737639009E+01 -0.53587991196E+00 -0.22947222315E+02  0.23849171104E+02  0.10566000000E+00 0.  1.
        -14    1    4    4    0    0 -0.46306386372E+00  0.18032782539E+00 -0.16678640927E+01  0.17403209182E+01  0.00000000000E+00 0.  1.
<mgrwt>
<rscale>  0 0.81224964E+02</rscale>
<asrwt>0</asrwt>
<pdfrwt beam="1">  1        2 0.31557730E-01 0.81224964E+02</pdfrwt>
<pdfrwt beam="2">  1       -1 0.12370481E-02 0.81224964E+02</pdfrwt>
<totfact> 0.21378751E+05</totfact>
</mgrwt>
</event>
<event>
 8    1  0.1226832E-024  0.7536400E+02  0.7818608E-02  0.1342748E+00
          2   -1    0    0  501    0  0.00000000000E+00  0.00000000000E+00  0.15485673698E+02  0.15485673908E+02  0.25500000000E-02 0. -1.
         -1   -1    0    0    0  501 -0.00000000000E+00 -0.00000000000E+00 -0.91693346576E+02  0.91693346714E+02  0.50400000000E-02 0.  1.
         24    2    1    2    0    0  0.44408920985E-15  0.00000000000E+00 -0.76207672878E+02  0.10717902062E+03  0.75364003715E+02 0.  0.
         66    2    3    3    0    0 -0.36570390558E+01  0.34428464954E+02 -0.17073377028E+02  0.38654796851E+02  0.19999956766E+01 0.  0.
        -13    1    3    3    0    0  0.36570390558E+01 -0.34428464954E+02 -0.59134295850E+02  0.68524223771E+02  0.10566000000E+00 0.  1.
         13    1    4    4    0    0 -0.16915213817E+00  0.56714815907E+01 -0.24120079893E+01  0.61663005485E+01  0.10566000000E+00 0. -1.
        -13    1    4    4    0    0 -0.40075376282E+00  0.17964997199E+01 -0.11648604469E+01  0.21808435795E+01  0.10566000000E+00 0.  1.
         14    1    4    4    0    0 -0.30871331548E+01  0.26960483643E+02 -0.13496508592E+02  0.30307652723E+02  0.00000000000E+00 0. -1.
<mgrwt>
<rscale>  0 0.75364004E+02</rscale>
<asrwt>0</asrwt>
<pdfrwt beam="1">  1        2 0.23824114E-02 0.75364004E+02</pdfrwt>
<pdfrwt beam="2">  1       -1 0.14106668E-01 0.75364004E+02</pdfrwt>
<totfact> 0.14002041E+05</totfact>
</mgrwt>
</event>
<event>
 8    1  0.1226832E-024  0.8130964E+02  0.7818608E-02  0.1325375E+00
         -1   -1    0    0    0  501 -0.00000000000E+00  0.00000000000E+00  0.18114307832E+01  0.18114377947E+01  0.50400000000E-02 0.  1.
          2   -1    0    0  501    0  0.00000000000E+00 -0.00000000000E+00 -0.91243398756E+03  0.91243398756E+03  0.25500000000E-02 0. -1.
         24    2    1    2    0    0  0.00000000000E+00  0.00000000000E+00 -0.91062255677E+03  0.91424542536E+03  0.81309635824E+02 0.  0.
         66    2    3    3    0    0 -0.17850549207E+02  0.25238623011E+02 -0.75204804118E+03  0.75268578201E+03  0.19999991743E+01 0.  0.
        -13    1    3    3    0    0  0.17850549207E+02 -0.25238623011E+02 -0.15857451559E+03  0.16155964335E+03  0.10566000000E+00 0.  1.
         13    1    4    4    0    0 -0.77748630685E+01  0.96083848850E+01 -0.29710286178E+03  0.29735986817E+03  0.10566000000E+00 0. -1.
        -13    1    4    4    0    0 -0.16053063976E+01  0.27005659204E+01 -0.70100094249E+02  0.70170538281E+02  0.10566000000E+00 0.  1.
         14    1    4    4    0    0 -0.84703797411E+01  0.12929672205E+02 -0.38484508516E+03  0.38515537556E+03  0.00000000000E+00 0. -1.
<mgrwt>
<rscale>  0 0.81309636E+02</rscale>
<asrwt>0</asrwt>
<pdfrwt beam="1">  1        2 0.14037409E+00 0.81309636E+02</pdfrwt>
<pdfrwt beam="2">  1       -1 0.27868293E-03 0.81309636E+02</pdfrwt>
<totfact> 0.33551322E+05</totfact>
</mgrwt>
</event>
<event>
 8    1  0.1226832E-024  0.7918688E+02  0.7818608E-02  0.1331375E+00
         -1   -1    0    0    0  501 -0.00000000000E+00  0.00000000000E+00  0.78915335820E+02  0.78915335981E+02  0.50400000000E-02 0.  1.
          2   -1    0    0  501    0  0.00000000000E+00 -0.00000000000E+00 -0.19864838326E+02  0.19864838490E+02  0.25500000000E-02 0. -1.
         24    2    1    2    0    0  0.35527136788E-14  0.00000000000E+00  0.59050497494E+02  0.98780174471E+02  0.79186877790E+02 0.  0.
         66    2    3    3    0    0 -0.26791317758E+02 -0.42331742435E+01 -0.63928334722E+01  0.27938553912E+02  0.20000008741E+01 0.  0.
        -13    1    3    3    0    0  0.26791317758E+02  0.42331742435E+01  0.65443330966E+02  0.70841620558E+02  0.10566000000E+00 0.  1.
         13    1    4    4    0    0 -0.30563414603E+01 -0.14379752565E+00 -0.11106806455E+01  0.32567892750E+01  0.10566000000E+00 0. -1.
        -13    1    4    4    0    0 -0.76483902218E+01 -0.17491829586E+01 -0.14329256369E+01  0.79763371246E+01  0.10566000000E+00 0.  1.
        -14    1    4    4    0    0 -0.16086586076E+02 -0.23401937592E+01 -0.38492271898E+01  0.16705427513E+02  0.00000000000E+00 0.  1.
<mgrwt>
<rscale>  0 0.79186878E+02</rscale>
<asrwt>0</asrwt>
<pdfrwt beam="1">  1        2 0.30561290E-02 0.79186878E+02</pdfrwt>
<pdfrwt beam="2">  1       -1 0.12140821E-01 0.79186878E+02</pdfrwt>
<totfact> 0.12767679E+05</totfact>
</mgrwt>
</event>
<event>
 8    1  0.1226832E-024  0.8044732E+02  0.7818608E-02  0.1327787E+00
          2   -1    0    0  501    0  0.00000000000E+00  0.00000000000E+00  0.67964367516E+03  0.67964367516E+03  0.25500000000E-02 0. -1.
         -1   -1    0    0    0  501 -0.00000000000E+00 -0.00000000000E+00 -0.23805726481E+01  0.23805779833E+01  0.50400000000E-02 0.  1.
         24    2    1    2    0    0  0.00000000000E+00  0.35527136788E-14  0.67726310251E+03  0.68202425314E+03  0.80447323498E+02 0.  0.
         66    2    3    3    0    0  0.16083215613E+02  0.27295208838E+02  0.54861297012E+03  0.54953060810E+03  0.20000009053E+01 0.  0.
        -13    1    3    3    0    0 -0.16083215613E+02 -0.27295208838E+02  0.12865013239E+03  0.13249364505E+03  0.10566000000E+00 0.  1.
         13    1    4    4    0    0  0.34286166671E+01  0.53471187885E+01  0.10239580395E+03  0.10259268455E+03  0.10566000000E+00 0. -1.
        -13    1    4    4    0    0  0.11352660948E+02  0.18829509854E+02  0.38357183471E+03  0.38420150559E+03  0.10566000000E+00 0.  1.
        -14    1    4    4    0    0  0.13019379973E+01  0.31185801946E+01  0.62645331456E+02  0.62736417958E+02  0.00000000000E+00 0.  1.
<mgrwt>
<rscale>  0 0.80447323E+02</rscale>
<asrwt>0</asrwt>
<pdfrwt beam="1">  1        2 0.10456048E+00 0.80447323E+02</pdfrwt>
<pdfrwt beam="2">  1       -1 0.36624265E-03 0.80447323E+02</pdfrwt>
<totfact> 0.32743023E+05</totfact>
</mgrwt>
</event>
<event>
 8    1  0.1226832E-024  0.8164444E+02  0.7818608E-02  0.1324448E+00
         -1   -1    0    0    0  501 -0.00000000000E+00  0.00000000000E+00  0.27926111408E+01  0.27926156888E+01  0.50400000000E-02 0.  1.
          2   -1    0    0  501    0  0.00000000000E+00 -0.00000000000E+00 -0.59673619945E+03  0.59673619945E+03  0.25500000000E-02 0. -1.
         24    2    1    2    0    0  0.35527136788E-14 -0.17763568394E-14 -0.59394358830E+03  0.59952881514E+03  0.81644437010E+02 0.  0.
         66    2    3    3    0    0 -0.25333507780E+02  0.15358394568E+02 -0.50312263365E+03  0.50399806685E+03  0.19999997418E+01 0.  0.
        -13    1    3    3    0    0  0.25333507780E+02 -0.15358394568E+02 -0.90820954656E+02  0.95530748290E+02  0.10566000000E+00 0.  1.
         13    1    4    4    0    0 -0.79145821922E+01  0.47208888337E+01 -0.14594028518E+03  0.14623100015E+03  0.10566000000E+00 0.  1.
        -13    1    4    4    0    0 -0.16300556913E+01  0.70704334579E+00 -0.35063117532E+02  0.35108266362E+02  0.10566000000E+00 0. -1.
         14    1    4    4    0    0 -0.15788869896E+02  0.99304623884E+01 -0.32211923093E+03  0.32265880034E+03  0.00000000000E+00 0. -1.
<mgrwt>
<rscale>  0 0.81644437E+02</rscale>
<asrwt>0</asrwt>
<pdfrwt beam="1">  1        2 0.91805468E-01 0.81644437E+02</pdfrwt>
<pdfrwt beam="2">  1       -1 0.42963331E-03 0.81644437E+02</pdfrwt>
<totfact> 0.30456795E+05</totfact>
</mgrwt>
</event>
<event>
 8    1  0.1226832E-024  0.8395873E+02  0.7818608E-02  0.1318178E+00
         -1   -1    0    0    0  501 -0.00000000000E+00  0.00000000000E+00  0.62074272656E+02  0.62074272861E+02  0.50400000000E-02 0.  1.
          2   -1    0    0  501    0  0.00000000000E+00 -0.00000000000E+00 -0.28389654291E+02  0.28389654405E+02  0.25500000000E-02 0. -1.
         24    2    1    2    0    0 -0.35527136788E-14  0.00000000000E+00  0.33684618365E+02  0.90463927266E+02  0.83958731660E+02 0.  0.
         66    2    3    3    0    0 -0.26511725498E+02 -0.75093824082E+01 -0.17238124724E+02  0.32564019314E+02  0.19999992247E+01 0.  0.
        -13    1    3    3    0    0  0.26511725498E+02  0.75093824082E+01  0.50922743089E+02  0.57899907951E+02  0.10566000000E+00 0.  1.
         13    1    4    4    0    0 -0.66380776591E+00 -0.22583325088E+00 -0.80900480186E+00  0.10757760977E+01  0.10566000000E+00 0.  1.
        -13    1    4    4    0    0 -0.83787871810E+01 -0.26538092079E+01 -0.54768533833E+01  0.10356344189E+02  0.10566000000E+00 0. -1.
         14    1    4    4    0    0 -0.17469130551E+02 -0.46297399494E+01 -0.10952266539E+02  0.21131899028E+02  0.00000000000E+00 0. -1.
<mgrwt>
<rscale>  0 0.83958732E+02</rscale>
<asrwt>0</asrwt>
<pdfrwt beam="1">  1        2 0.43676392E-02 0.83958732E+02</pdfrwt>
<pdfrwt beam="2">  1       -1 0.95498881E-02 0.83958732E+02</pdfrwt>
<totfact> 0.11613033E+05</totfact>
</mgrwt>
</event>
<event>
 8    1  0.1226832E-024  0.8086294E+02  0.7818608E-02  0.1326620E+00
          2   -1    0    0  501    0  0.00000000000E+00  0.00000000000E+00  0.17404893189E+04  0.17404893189E+04  0.25500000000E-02 0. -1.
         -1   -1    0    0    0  501 -0.00000000000E+00 -0.00000000000E+00 -0.93921399346E+00  0.93922751616E+00  0.50400000000E-02 0.  1.
         24    2    1    2    0    0  0.00000000000E+00  0.00000000000E+00  0.17395501049E+04  0.17414285464E+04  0.80862938354E+02 0.  0.
         66    2    3    3    0    0  0.97420367099E+01  0.14796699327E+02  0.16523901752E+04  0.16524863511E+04  0.20000045394E+01 0.  0.
        -13    1    3    3    0    0 -0.97420367099E+01 -0.14796699327E+02  0.87159929694E+02  0.88942195265E+02  0.10566000000E+00 0.  1.
         13    1    4    4    0    0  0.26058290024E+01  0.29513185103E+01  0.33579978805E+03  0.33582288404E+03  0.10566000000E+00 0. -1.
        -13    1    4    4    0    0  0.10884744213E+01  0.20585382701E+01  0.18828966210E+03  0.18830409017E+03  0.10566000000E+00 0.  1.
         14    1    4    4    0    0  0.60477332862E+01  0.97868425471E+01  0.11283007250E+04  0.11283593769E+04  0.00000000000E+00 0. -1.
<mgrwt>
<rscale>  0 0.80862938E+02</rscale>
<asrwt>0</asrwt>
<pdfrwt beam="1">  1        2 0.26776373E+00 0.80862938E+02</pdfrwt>
<pdfrwt beam="2">  1       -1 0.14449758E-03 0.80862938E+02</pdfrwt>
<totfact> 0.30042656E+05</totfact>
</mgrwt>
</event>
<event>
 8    1  0.1226832E-024  0.7905189E+02  0.7818608E-02  0.1331764E+00
          2   -1    0    0  501    0  0.00000000000E+00  0.00000000000E+00  0.11059208622E+04  0.11059208622E+04  0.25500000000E-02 0. -1.
         -1   -1    0    0    0  501 -0.00000000000E+00 -0.00000000000E+00 -0.14126646681E+01  0.14126736587E+01  0.50400000000E-02 0.  1.
         24    2    1    2    0    0  0.00000000000E+00  0.00000000000E+00  0.11045081975E+04  0.11073335359E+04  0.79051889469E+02 0.  0.
         66    2    3    3    0    0 -0.13874700921E+02  0.13142347616E+02  0.10368484019E+04  0.10370264400E+04  0.20000014087E+01 0.  0.
        -13    1    3    3    0    0  0.13874700921E+02 -0.13142347616E+02  0.67659795617E+02  0.70307095897E+02  0.10566000000E+00 0.  1.
         13    1    4    4    0    0 -0.30963991959E+00  0.21495042516E+00  0.20382817829E+02  0.20386576644E+02  0.10566000000E+00 0. -1.
        -13    1    4    4    0    0 -0.58100868916E+01  0.67269507110E+01  0.49217937750E+03  0.49225964671E+03  0.10566000000E+00 0. -1.
         14    1    4    4    0    0 -0.77549741094E+01  0.62004464800E+01  0.52428620659E+03  0.52438021662E+03  0.00000000000E+00 0. -1.
<mgrwt>
<rscale>  0 0.79051889E+02</rscale>
<asrwt>0</asrwt>
<pdfrwt beam="1">  1        2 0.17014216E+00 0.79051889E+02</pdfrwt>
<pdfrwt beam="2">  1       -1 0.21733309E-03 0.79051889E+02</pdfrwt>
<totfact> 0.36352777E+05</totfact>
</mgrwt>
</event>
<event>
 8    1  0.1226832E-024  0.7802706E+02  0.7818608E-02  0.1334745E+00
          2   -1    0    0  501    0  0.00000000000E+00  0.00000000000E+00  0.10173688558E+03  0.10173688561E+03  0.25500000000E-02 0. -1.
         -1   -1    0    0    0  501 -0.00000000000E+00 -0.00000000000E+00 -0.14960703229E+02  0.14960704078E+02  0.50400000000E-02 0.  1.
         24    2    1    2    0    0  0.00000000000E+00  0.00000000000E+00  0.86776182353E+02  0.11669758969E+03  0.78027056948E+02 0.  0.
         66    2    3    3    0    0  0.32524075343E+02  0.18753095822E+02  0.27690868877E+02  0.46693450439E+02  0.20000037240E+01 0.  0.
        -13    1    3    3    0    0 -0.32524075343E+02 -0.18753095822E+02  0.59085313476E+02  0.70004139252E+02  0.10566000000E+00 0.  1.
         13    1    4    4    0    0  0.19660220283E+02  0.11493194151E+02  0.15886532185E+02  0.27767081991E+02  0.10566000000E+00 0. -1.
        -13    1    4    4    0    0  0.71098252205E+01  0.35598231003E+01  0.64630688191E+01  0.10247164377E+02  0.10566000000E+00 0.  1.
         14    1    4    4    0    0  0.57540298394E+01  0.37000785701E+01  0.53412678726E+01  0.86792040709E+01  0.00000000000E+00 0. -1.
<mgrwt>
<rscale>  0 0.78027057E+02</rscale>
<asrwt>0</asrwt>
<pdfrwt beam="1">  1        2 0.15651828E-01 0.78027057E+02</pdfrwt>
<pdfrwt beam="2">  1       -1 0.23016468E-02 0.78027057E+02</pdfrwt>
<totfact> 0.19041592E+05</totfact>
</mgrwt>
</event>
<event>
 8    1  0.1226832E-024  0.7963850E+02  0.7818608E-02  0.1330080E+00
         -1   -1    0    0    0  501 -0.00000000000E+00  0.00000000000E+00  0.42655289537E+01  0.42655319313E+01  0.50400000000E-02 0.  1.
          2   -1    0    0  501    0  0.00000000000E+00 -0.00000000000E+00 -0.37171755198E+03  0.37171755199E+03  0.25500000000E-02 0. -1.
         24    2    1    2    0    0  0.88817841970E-15  0.00000000000E+00 -0.36745202302E+03  0.37598308392E+03  0.79638496770E+02 0.  0.
         66    2    3    3    0    0  0.64648578785E+01  0.21875360542E+02 -0.33778503228E+03  0.33856026614E+03  0.19999983781E+01 0.  0.
        -13    1    3    3    0    0 -0.64648578785E+01 -0.21875360542E+02 -0.29666990745E+02  0.37422817773E+02  0.10566000000E+00 0.  1.
         13    1    4    4    0    0  0.14009898570E+01  0.55700729133E+01 -0.87427156294E+02  0.87615679570E+02  0.10566000000E+00 0. -1.
        -13    1    4    4    0    0  0.11319925045E+01  0.20575677262E+01 -0.38605082673E+02  0.38676589356E+02  0.10566000000E+00 0.  1.
         14    1    4    4    0    0  0.39318755171E+01  0.14247719902E+02 -0.21175279331E+03  0.21226799722E+03  0.00000000000E+00 0. -1.
<mgrwt>
<rscale>  0 0.79638497E+02</rscale>
<asrwt>0</asrwt>
<pdfrwt beam="1">  1        2 0.57187290E-01 0.79638497E+02</pdfrwt>
<pdfrwt beam="2">  1       -1 0.65623575E-03 0.79638497E+02</pdfrwt>
<totfact> 0.27860124E+05</totfact>
</mgrwt>
</event>
<event>
 8    1  0.1226832E-024  0.8138448E+02  0.7818608E-02  0.1325168E+00
         -1   -1    0    0    0  501 -0.00000000000E+00  0.00000000000E+00  0.63040073983E+02  0.63040074185E+02  0.50400000000E-02 0.  1.
          2   -1    0    0  501    0  0.00000000000E+00 -0.00000000000E+00 -0.26266760543E+02  0.26266760667E+02  0.25500000000E-02 0. -1.
         24    2    1    2    0    0 -0.17763568394E-14 -0.35527136788E-14  0.36773313440E+02  0.89306834852E+02  0.81384483594E+02 0.  0.
         66    2    3    3    0    0 -0.14065455109E+02 -0.31992987752E+02 -0.44224308670E+01  0.35283795269E+02  0.20000052674E+01 0.  0.
        -13    1    3    3    0    0  0.14065455109E+02  0.31992987752E+02  0.41195744307E+02  0.54023039583E+02  0.10566000000E+00 0.  1.
         13    1    4    4    0    0 -0.80308020249E+01 -0.18505424633E+02 -0.23414653296E+01  0.20308573212E+02  0.10566000000E+00 0. -1.
        -13    1    4    4    0    0 -0.26980118202E+01 -0.64221396385E+01 -0.15921828378E+01  0.71462826381E+01  0.10566000000E+00 0.  1.
         14    1    4    4    0    0 -0.33366412640E+01 -0.70654234809E+01 -0.48878269961E+00  0.78289394184E+01  0.00000000000E+00 0. -1.
<mgrwt>
<rscale>  0 0.81384484E+02</rscale>
<asrwt>0</asrwt>
<pdfrwt beam="1">  1        2 0.40410401E-02 0.81384484E+02</pdfrwt>
<pdfrwt beam="2">  1       -1 0.96984729E-02 0.81384484E+02</pdfrwt>
<totfact> 0.12486686E+05</totfact>
</mgrwt>
</event>
<event>
 8    1  0.1226832E-024  0.7045732E+02  0.7818608E-02  0.1358545E+00
         -1   -1    0    0    0  501 -0.00000000000E+00  0.00000000000E+00  0.49226005674E+03  0.49226005676E+03  0.50400000000E-02 0.  1.
          2   -1    0    0  501    0  0.00000000000E+00 -0.00000000000E+00 -0.25211430342E+01  0.25211443238E+01  0.25500000000E-02 0. -1.
         24    2    1    2    0    0  0.00000000000E+00  0.35527136788E-14  0.48973891370E+03  0.49478120109E+03  0.70457315829E+02 0.  0.
         66    2    3    3    0    0  0.28057290057E+02 -0.19913419403E+02  0.29728669426E+03  0.29927768774E+03  0.19999996004E+01 0.  0.
        -13    1    3    3    0    0 -0.28057290057E+02  0.19913419403E+02  0.19245221944E+03  0.19550351335E+03  0.10566000000E+00 0.  1.
         13    1    4    4    0    0  0.19065977844E+02 -0.12682504181E+02  0.19418313183E+03  0.19552866101E+03  0.10566000000E+00 0. -1.
        -13    1    4    4    0    0  0.20164825058E+01 -0.17786039188E+01  0.22169891192E+02  0.22332596649E+02  0.10566000000E+00 0. -1.
         14    1    4    4    0    0  0.69748297067E+01 -0.54523113027E+01  0.80933671234E+02  0.81416430083E+02  0.00000000000E+00 0. -1.
<mgrwt>
<rscale>  0 0.70457316E+02</rscale>
<asrwt>0</asrwt>
<pdfrwt beam="1">  1        2 0.38786855E-03 0.70457316E+02</pdfrwt>
<pdfrwt beam="2">  1       -1 0.75732259E-01 0.70457316E+02</pdfrwt>
<totfact> 0.93421649E+04</totfact>
</mgrwt>
</event>
<event>
 8    1  0.1226832E-024  0.7982423E+02  0.7818608E-02  0.1329551E+00
          2   -1    0    0  501    0  0.00000000000E+00  0.00000000000E+00  0.41843679749E+03  0.41843679750E+03  0.25500000000E-02 0. -1.
         -1   -1    0    0    0  501 -0.00000000000E+00 -0.00000000000E+00 -0.38069693993E+01  0.38069727355E+01  0.50400000000E-02 0.  1.
         24    2    1    2    0    0  0.00000000000E+00  0.00000000000E+00  0.41462982809E+03  0.42224377024E+03  0.79824226638E+02 0.  0.
         66    2    3    3    0    0 -0.22249114783E+02  0.73299136225E+01  0.37821346752E+03  0.37894350206E+03  0.20000002129E+01 0.  0.
        -13    1    3    3    0    0  0.22249114783E+02 -0.73299136225E+01  0.36416360575E+02  0.43300268174E+02  0.10566000000E+00 0.  1.
         13    1    4    4    0    0 -0.77931463262E+01  0.20388702872E+01  0.13812824394E+03  0.13836297575E+03  0.10566000000E+00 0. -1.
        -13    1    4    4    0    0 -0.81548730031E+01  0.35303232995E+01  0.13748295067E+03  0.13776987343E+03  0.10566000000E+00 0.  1.
        -14    1    4    4    0    0 -0.63010954535E+01  0.17607200359E+01  0.10260227291E+03  0.10281065288E+03  0.00000000000E+00 0.  1.
<mgrwt>
<rscale>  0 0.79824227E+02</rscale>
<asrwt>0</asrwt>
<pdfrwt beam="1">  1        2 0.64374856E-01 0.79824227E+02</pdfrwt>
<pdfrwt beam="2">  1       -1 0.58568819E-03 0.79824227E+02</pdfrwt>
<totfact> 0.28864456E+05</totfact>
</mgrwt>
</event>
<event>
 8    1  0.1226832E-024  0.8206226E+02  0.7818608E-02  0.1323299E+00
          2   -1    0    0  501    0  0.00000000000E+00  0.00000000000E+00  0.54972536851E+03  0.54972536852E+03  0.25500000000E-02 0. -1.
         -1   -1    0    0    0  501 -0.00000000000E+00 -0.00000000000E+00 -0.30625338778E+01  0.30625380250E+01  0.50400000000E-02 0.  1.
         24    2    1    2    0    0  0.00000000000E+00  0.00000000000E+00  0.54666283463E+03  0.55278790654E+03  0.82062262032E+02 0.  0.
         66    2    3    3    0    0 -0.18623773482E+02 -0.31713720209E+02  0.39566649222E+03  0.39737712322E+03  0.20000000913E+01 0.  0.
        -13    1    3    3    0    0  0.18623773482E+02  0.31713720209E+02  0.15099634241E+03  0.15541078332E+03  0.10566000000E+00 0.  1.
         13    1    4    4    0    0 -0.56038394182E+01 -0.94442021473E+01  0.12519271406E+03  0.12567347687E+03  0.10566000000E+00 0. -1.
        -13    1    4    4    0    0 -0.33302225874E+01 -0.62156221552E+01  0.78629256326E+02  0.78944888724E+02  0.10566000000E+00 0.  1.
        -14    1    4    4    0    0 -0.96897114769E+01 -0.16053895906E+02  0.19184452183E+03  0.19275875762E+03  0.00000000000E+00 0.  1.
<mgrwt>
<rscale>  0 0.82062262E+02</rscale>
<asrwt>0</asrwt>
<pdfrwt beam="1">  1        2 0.84573137E-01 0.82062262E+02</pdfrwt>
<pdfrwt beam="2">  1       -1 0.47115936E-03 0.82062262E+02</pdfrwt>
<totfact> 0.29344992E+05</totfact>
</mgrwt>
</event>
<event>
 8    1  0.1226832E-024  0.7558262E+02  0.7818608E-02  0.1342076E+00
          2   -1    0    0  501    0  0.00000000000E+00  0.00000000000E+00  0.75286268289E+02  0.75286268333E+02  0.25500000000E-02 0. -1.
         -1   -1    0    0    0  501 -0.00000000000E+00 -0.00000000000E+00 -0.18970034876E+02  0.18970035546E+02  0.50400000000E-02 0.  1.
         24    2    1    2    0    0 -0.35527136788E-14 -0.88817841970E-15  0.56316233413E+02  0.94256303879E+02  0.75582621515E+02 0.  0.
         66    2    3    3    0    0  0.20652531949E+02  0.76934851142E+01  0.66421395032E+02  0.70010845655E+02  0.20000005567E+01 0.  0.
        -13    1    3    3    0    0 -0.20652531949E+02 -0.76934851142E+01 -0.10105161619E+02  0.24245458224E+02  0.10566000000E+00 0.  1.
         13    1    4    4    0    0  0.80079247725E+01  0.22831338194E+01  0.26615108855E+02  0.27887537406E+02  0.10566000000E+00 0. -1.
        -13    1    4    4    0    0  0.21567216556E+01  0.89788212699E+00  0.59144758850E+01  0.63600180537E+01  0.10566000000E+00 0.  1.
        -14    1    4    4    0    0  0.10487885520E+02  0.45124691678E+01  0.33891810292E+02  0.35763290195E+02  0.00000000000E+00 0.  1.
<mgrwt>
<rscale>  0 0.75582622E+02</rscale>
<asrwt>0</asrwt>
<pdfrwt beam="1">  1        2 0.11582503E-01 0.75582622E+02</pdfrwt>
<pdfrwt beam="2">  1       -1 0.29184670E-02 0.75582622E+02</pdfrwt>
<totfact> 0.19155359E+05</totfact>
</mgrwt>
</event>
<event>
 8    1  0.1226832E-024  0.8084019E+02  0.7818608E-02  0.1326684E+00
         -1   -1    0    0    0  501 -0.00000000000E+00  0.00000000000E+00  0.42306681898E+01  0.42306711918E+01  0.50400000000E-02 0.  1.
          2   -1    0    0  501    0  0.00000000000E+00 -0.00000000000E+00 -0.38617618244E+03  0.38617618245E+03  0.25500000000E-02 0. -1.
         24    2    1    2    0    0 -0.44408920985E-15  0.00000000000E+00 -0.38194551426E+03  0.39040685365E+03  0.80840185016E+02 0.  0.
         66    2    3    3    0    0 -0.27850873767E+01  0.37800761872E+02 -0.25854929040E+03  0.26132047352E+03  0.20000002532E+01 0.  0.
        -13    1    3    3    0    0  0.27850873767E+01 -0.37800761872E+02 -0.12339622385E+03  0.12908638013E+03  0.10566000000E+00 0.  1.
         13    1    4    4    0    0 -0.47133013391E+00  0.84561264749E+01 -0.58767978626E+02  0.59375202761E+02  0.10566000000E+00 0.  1.
        -13    1    4    4    0    0 -0.14216105334E+01  0.24023359773E+02 -0.16000336359E+03  0.16180306028E+03  0.10566000000E+00 0. -1.
        -14    1    4    4    0    0 -0.89214670936E+00  0.53212756238E+01 -0.39777948185E+02  0.40142210475E+02  0.00000000000E+00 0.  1.
<mgrwt>
<rscale>  0 0.80840185E+02</rscale>
<asrwt>0</asrwt>
<pdfrwt beam="1">  1        2 0.59411693E-01 0.80840185E+02</pdfrwt>
<pdfrwt beam="2">  1       -1 0.65087257E-03 0.80840185E+02</pdfrwt>
<totfact> 0.27154839E+05</totfact>
</mgrwt>
</event>
<event>
 8    1  0.1226832E-024  0.7965010E+02  0.7818608E-02  0.1330047E+00
         -1   -1    0    0    0  501 -0.00000000000E+00  0.00000000000E+00  0.79901280456E+02  0.79901280615E+02  0.50400000000E-02 0.  1.
          2   -1    0    0  501    0  0.00000000000E+00 -0.00000000000E+00 -0.19849928609E+02  0.19849928773E+02  0.25500000000E-02 0. -1.
         24    2    1    2    0    0  0.35527136788E-14  0.00000000000E+00  0.60051351848E+02  0.99751209388E+02  0.79650103048E+02 0.  0.
         66    2    3    3    0    0 -0.26356322092E+02  0.14749068486E+01 -0.72583183645E+01  0.27450214011E+02  0.19999998361E+01 0.  0.
        -13    1    3    3    0    0  0.26356322092E+02 -0.14749068486E+01  0.67309670212E+02  0.72300995377E+02  0.10566000000E+00 0.  1.
         13    1    4    4    0    0 -0.18620472964E+02  0.14451281329E+01 -0.55005855882E+01  0.19469925901E+02  0.10566000000E+00 0. -1.
        -13    1    4    4    0    0 -0.75633819833E+01 -0.96325495372E-01 -0.16570194211E+01  0.77440882630E+01  0.10566000000E+00 0.  1.
        -14    1    4    4    0    0 -0.17246714429E+00  0.12610421108E+00 -0.10071335528E+00  0.23619984726E+00  0.00000000000E+00 0.  1.
<mgrwt>
<rscale>  0 0.79650103E+02</rscale>
<asrwt>0</asrwt>
<pdfrwt beam="1">  1        2 0.30538352E-02 0.79650103E+02</pdfrwt>
<pdfrwt beam="2">  1       -1 0.12292505E-01 0.79650103E+02</pdfrwt>
<totfact> 0.12553879E+05</totfact>
</mgrwt>
</event>
<event>
 8    1  0.1240352E-024  0.7921495E+02  0.7818608E-02  0.1331294E+00
         -1   -1    0    0    0  501 -0.00000000000E+00  0.00000000000E+00  0.91416816782E+01  0.91416830675E+01  0.50400000000E-02 0.  1.
          2   -1    0    0  501    0  0.00000000000E+00 -0.00000000000E+00 -0.17160430499E+03  0.17160430501E+03  0.25500000000E-02 0. -1.
         24    2    1    2    0    0  0.00000000000E+00 -0.35527136788E-14 -0.16246262331E+03  0.18074598808E+03  0.79214949551E+02 0.  0.
         66    2    3    3    0    0 -0.39278478825E+00 -0.17177400649E+02 -0.16264554023E+03  0.16356279874E+03  0.20000007823E+01 0.  0.
        -13    1    3    3    0    0  0.39278478825E+00  0.17177400649E+02  0.18291692034E+00  0.17183189331E+02  0.10566000000E+00 0.  1.
         13    1    4    4    0    0 -0.36031289039E+00 -0.90405362978E+01 -0.88223207323E+02  0.88686000002E+02  0.10566000000E+00 0. -1.
        -13    1    4    4    0    0 -0.58909269737E+00 -0.54410831622E+01 -0.47692368657E+02  0.48005474774E+02  0.10566000000E+00 0.  1.
        -14    1    4    4    0    0  0.55662079950E+00 -0.26957811889E+01 -0.26729964252E+02  0.26871323969E+02  0.00000000000E+00 0.  1.
<mgrwt>
<rscale>  0 0.79214950E+02</rscale>
<asrwt>0</asrwt>
<pdfrwt beam="1">  1        2 0.26400660E-01 0.79214950E+02</pdfrwt>
<pdfrwt beam="2">  1       -1 0.14064128E-02 0.79214950E+02</pdfrwt>
<totfact> 0.21488136E+05</totfact>
</mgrwt>
</event>
<event>
 8    1  0.1226832E-024  0.7964066E+02  0.7818608E-02  0.1330074E+00
          2   -1    0    0  501    0  0.00000000000E+00  0.00000000000E+00  0.77188781734E+01  0.77188785946E+01  0.25500000000E-02 0. -1.
         -1   -1    0    0    0  501 -0.00000000000E+00 -0.00000000000E+00 -0.20542605792E+03  0.20542605798E+03  0.50400000000E-02 0.  1.
         24    2    1    2    0    0  0.00000000000E+00  0.00000000000E+00 -0.19770717975E+03  0.21314493658E+03  0.79640662132E+02 0.  0.
         66    2    3    3    0    0  0.19349010675E+02  0.28982240883E+02 -0.47484232793E+02  0.58933071092E+02  0.20000009262E+01 0.  0.
        -13    1    3    3    0    0 -0.19349010675E+02 -0.28982240883E+02 -0.15022294695E+03  0.15421186549E+03  0.10566000000E+00 0.  1.
         13    1    4    4    0    0  0.93349594086E+01  0.15210589061E+02 -0.23753757039E+02  0.29711203682E+02  0.10566000000E+00 0. -1.
        -13    1    4    4    0    0  0.72415180440E+01  0.10619526154E+02 -0.17803422845E+02  0.21958755619E+02  0.10566000000E+00 0.  1.
         14    1    4    4    0    0  0.27725332221E+01  0.31521256684E+01 -0.59270529100E+01  0.72631117914E+01  0.00000000000E+00 0. -1.
<mgrwt>
<rscale>  0 0.79640662E+02</rscale>
<asrwt>0</asrwt>
<pdfrwt beam="1">  1        2 0.11875199E-02 0.79640662E+02</pdfrwt>
<pdfrwt beam="2">  1       -1 0.31604005E-01 0.79640662E+02</pdfrwt>
<totfact> 0.99932509E+04</totfact>
</mgrwt>
</event>
<event>
 8    1  0.1226832E-024  0.8143534E+02  0.7818608E-02  0.1325027E+00
          2   -1    0    0  501    0  0.00000000000E+00  0.00000000000E+00  0.25867919369E+03  0.25867919370E+03  0.25500000000E-02 0. -1.
         -1   -1    0    0    0  501 -0.00000000000E+00 -0.00000000000E+00 -0.64092068533E+01  0.64092088350E+01  0.50400000000E-02 0.  1.
         24    2    1    2    0    0  0.00000000000E+00  0.00000000000E+00  0.25226998683E+03  0.26508840253E+03  0.81435341844E+02 0.  0.
         66    2    3    3    0    0  0.34616010029E+02  0.21386407402E+02  0.12449709120E+03  0.13099302382E+03  0.19999996192E+01 0.  0.
        -13    1    3    3    0    0 -0.34616010029E+02 -0.21386407402E+02  0.12777289563E+03  0.13409537872E+03  0.10566000000E+00 0.  1.
         13    1    4    4    0    0  0.10458108085E+02  0.70500090627E+01  0.39502682794E+02  0.41467430165E+02  0.10566000000E+00 0.  1.
        -13    1    4    4    0    0  0.87440887172E+01  0.53724046612E+01  0.29188848021E+02  0.30940617838E+02  0.10566000000E+00 0. -1.
         14    1    4    4    0    0  0.15413813227E+02  0.89639936777E+01  0.55805560390E+02  0.58584975815E+02  0.00000000000E+00 0. -1.
<mgrwt>
<rscale>  0 0.81435342E+02</rscale>
<asrwt>0</asrwt>
<pdfrwt beam="1">  1        2 0.39796797E-01 0.81435342E+02</pdfrwt>
<pdfrwt beam="2">  1       -1 0.98603204E-03 0.81435342E+02</pdfrwt>
<totfact> 0.23058757E+05</totfact>
</mgrwt>
</event>
<event>
 8    1  0.1226832E-024  0.7618842E+02  0.7818608E-02  0.1340230E+00
          2   -1    0    0  501    0  0.00000000000E+00  0.00000000000E+00  0.25563442804E+03  0.25563442805E+03  0.25500000000E-02 0. -1.
         -1   -1    0    0    0  501 -0.00000000000E+00 -0.00000000000E+00 -0.56767330660E+01  0.56767353033E+01  0.50400000000E-02 0.  1.
         24    2    1    2    0    0  0.00000000000E+00  0.35527136788E-14  0.24995769498E+03  0.26131116336E+03  0.76188416559E+02 0.  0.
         66    2    3    3    0    0 -0.12341896169E+02  0.31955425879E+02  0.18201309064E+03  0.18521942881E+03  0.20000000733E+01 0.  0.
        -13    1    3    3    0    0  0.12341896169E+02 -0.31955425879E+02  0.67944604338E+02  0.76091734550E+02  0.10566000000E+00 0.  1.
         13    1    4    4    0    0 -0.77382226236E+01  0.21381814275E+02  0.11880351306E+03  0.12096010892E+03  0.10566000000E+00 0. -1.
        -13    1    4    4    0    0 -0.18639609102E+00  0.37016029600E+00  0.17044591378E+01  0.17573010942E+01  0.10566000000E+00 0.  1.
         14    1    4    4    0    0 -0.44172774545E+01  0.10203451308E+02  0.61505118438E+02  0.62502018790E+02  0.00000000000E+00 0. -1.
<mgrwt>
<rscale>  0 0.76188417E+02</rscale>
<asrwt>0</asrwt>
<pdfrwt beam="1">  1        2 0.39328360E-01 0.76188417E+02</pdfrwt>
<pdfrwt beam="2">  1       -1 0.87334402E-03 0.76188417E+02</pdfrwt>
<totfact> 0.27344487E+05</totfact>
</mgrwt>
</event>
<event>
 8    1  0.1226832E-024  0.7923669E+02  0.7818608E-02  0.1331232E+00
         -1   -1    0    0    0  501 -0.00000000000E+00  0.00000000000E+00  0.40954851068E+02  0.40954851378E+02  0.50400000000E-02 0.  1.
          2   -1    0    0  501    0  0.00000000000E+00 -0.00000000000E+00 -0.38325456339E+02  0.38325456424E+02  0.25500000000E-02 0. -1.
         24    2    1    2    0    0  0.00000000000E+00  0.00000000000E+00  0.26293947290E+01  0.79280307802E+02  0.79236692817E+02 0.  0.
         66    2    3    3    0    0 -0.10732159150E+01 -0.12292397721E+02 -0.36326360812E+02  0.38416914797E+02  0.20000046292E+01 0.  0.
        -13    1    3    3    0    0  0.10732159150E+01  0.12292397721E+02  0.38955755541E+02  0.40863393006E+02  0.10566000000E+00 0.  1.
         13    1    4    4    0    0 -0.97546045030E-01 -0.39603452267E+00 -0.22358052639E+01  0.22751588489E+01  0.10566000000E+00 0. -1.
        -13    1    4    4    0    0 -0.57454149716E+00 -0.19391635058E+01 -0.63864543589E+01  0.66998818160E+01  0.10566000000E+00 0.  1.
        -14    1    4    4    0    0 -0.40112837284E+00 -0.99571996927E+01 -0.27704101189E+02  0.29441874132E+02  0.00000000000E+00 0.  1.
<mgrwt>
<rscale>  0 0.79236693E+02</rscale>
<asrwt>0</asrwt>
<pdfrwt beam="1">  1        2 0.58962241E-02 0.79236693E+02</pdfrwt>
<pdfrwt beam="2">  1       -1 0.63007464E-02 0.79236693E+02</pdfrwt>
<totfact> 0.14510989E+05</totfact>
</mgrwt>
</event>
<event>
 8    1  0.1226832E-024  0.6949133E+02  0.7818608E-02  0.1361831E+00
         -1   -1    0    0    0  501 -0.00000000000E+00  0.00000000000E+00  0.18191213335E+03  0.18191213342E+03  0.50400000000E-02 0.  1.
          2   -1    0    0  501    0  0.00000000000E+00 -0.00000000000E+00 -0.66365080644E+01  0.66365085543E+01  0.25500000000E-02 0. -1.
         24    2    1    2    0    0  0.00000000000E+00  0.00000000000E+00  0.17527562528E+03  0.18854864197E+03  0.69491334502E+02 0.  0.
         66    2    3    3    0    0 -0.17570665067E+02 -0.27991719799E+02  0.58868786176E+02  0.67541088476E+02  0.19999996035E+01 0.  0.
        -13    1    3    3    0    0  0.17570665067E+02  0.27991719799E+02  0.11640683911E+03  0.12100755350E+03  0.10566000000E+00 0.  1.
         13    1    4    4    0    0 -0.63911698997E+01 -0.92424073454E+01  0.20020423889E+02  0.22958608036E+02  0.10566000000E+00 0. -1.
        -13    1    4    4    0    0 -0.11014889360E+02 -0.18492348849E+02  0.37893969430E+02  0.43580486881E+02  0.10566000000E+00 0.  1.
        -14    1    4    4    0    0 -0.16460580762E+00 -0.25696360400E+00  0.95439285691E+00  0.10019935584E+01  0.00000000000E+00 0.  1.
<mgrwt>
<rscale>  0 0.69491335E+02</rscale>
<asrwt>0</asrwt>
<pdfrwt beam="1">  1        2 0.10210013E-02 0.69491335E+02</pdfrwt>
<pdfrwt beam="2">  1       -1 0.27986481E-01 0.69491335E+02</pdfrwt>
<totfact> 0.14626017E+05</totfact>
</mgrwt>
</event>
<event>
 8    1  0.1226832E-024  0.8410464E+02  0.7818608E-02  0.1317791E+00
         -1   -1    0    0    0  501 -0.00000000000E+00  0.00000000000E+00  0.25778214536E+02  0.25778215029E+02  0.50400000000E-02 0.  1.
          2   -1    0    0  501    0  0.00000000000E+00 -0.00000000000E+00 -0.68600463362E+02  0.68600463410E+02  0.25500000000E-02 0. -1.
         24    2    1    2    0    0  0.17763568394E-14  0.35527136788E-14 -0.42822248826E+02  0.94378678439E+02  0.84104636907E+02 0.  0.
         66    2    3    3    0    0 -0.12550366143E+02 -0.24184903162E+02 -0.57331745109E+02  0.63508662603E+02  0.19999992987E+01 0.  0.
        -13    1    3    3    0    0  0.12550366143E+02  0.24184903162E+02  0.14509496282E+02  0.30870015835E+02  0.10566000000E+00 0.  1.
         13    1    4    4    0    0 -0.90100883438E+01 -0.17963698380E+02 -0.42669817060E+02  0.47165671875E+02  0.10566000000E+00 0. -1.
        -13    1    4    4    0    0 -0.12569382570E+01 -0.14390793158E+01 -0.42043837229E+01  0.46193992666E+01  0.10566000000E+00 0.  1.
        -14    1    4    4    0    0 -0.22833395420E+01 -0.47821254663E+01 -0.10457544326E+02  0.11723591462E+02  0.00000000000E+00 0.  1.
<mgrwt>
<rscale>  0 0.84104637E+02</rscale>
<asrwt>0</asrwt>
<pdfrwt beam="1">  1        2 0.10553917E-01 0.84104637E+02</pdfrwt>
<pdfrwt beam="2">  1       -1 0.39658792E-02 0.84104637E+02</pdfrwt>
<totfact> 0.14024688E+05</totfact>
</mgrwt>
</event>
<event>
 8    1  0.1226832E-024  0.8036741E+02  0.7818608E-02  0.1328012E+00
          2   -1    0    0  501    0  0.00000000000E+00  0.00000000000E+00  0.16478451580E+03  0.16478451582E+03  0.25500000000E-02 0. -1.
         -1   -1    0    0    0  501 -0.00000000000E+00 -0.00000000000E+00 -0.97990409669E+01  0.97990422630E+01  0.50400000000E-02 0.  1.
         24    2    1    2    0    0  0.00000000000E+00 -0.71054273576E-14  0.15498547483E+03  0.17458355808E+03  0.80367414687E+02 0.  0.
         66    2    3    3    0    0  0.10554713424E+02  0.38384955571E+02  0.89018694782E+02  0.97535300322E+02  0.19999996165E+01 0.  0.
        -13    1    3    3    0    0 -0.10554713424E+02 -0.38384955571E+02  0.65966780050E+02  0.77048257760E+02  0.10566000000E+00 0.  1.
         13    1    4    4    0    0  0.34897627322E+01  0.12876388832E+02  0.28462206462E+02  0.31433870172E+02  0.10566000000E+00 0. -1.
        -13    1    4    4    0    0  0.13853303515E+01  0.55333094343E+01  0.14361613294E+02  0.15453276479E+02  0.10566000000E+00 0.  1.
        -14    1    4    4    0    0  0.56796203399E+01  0.19975257305E+02  0.46194875026E+02  0.50648153671E+02  0.00000000000E+00 0.  1.
<mgrwt>
<rscale>  0 0.80367415E+02</rscale>
<asrwt>0</asrwt>
<pdfrwt beam="1">  1        2 0.25351461E-01 0.80367415E+02</pdfrwt>
<pdfrwt beam="2">  1       -1 0.15075450E-02 0.80367415E+02</pdfrwt>
<totfact> 0.20405228E+05</totfact>
</mgrwt>
</event>
<event>
 8    1  0.1226832E-024  0.6991668E+02  0.7818608E-02  0.1360377E+00
          2   -1    0    0  501    0  0.00000000000E+00  0.00000000000E+00  0.12776006984E+02  0.12776007239E+02  0.25500000000E-02 0. -1.
         -1   -1    0    0    0  501 -0.00000000000E+00 -0.00000000000E+00 -0.95654741340E+02  0.95654741472E+02  0.50400000000E-02 0.  1.
         24    2    1    2    0    0  0.00000000000E+00 -0.35527136788E-14 -0.82878734355E+02  0.10843074871E+03  0.69916683687E+02 0.  0.
         66    2    3    3    0    0 -0.15825204889E+02 -0.28266098604E+02 -0.21212592329E+02  0.38773490106E+02  0.20000053950E+01 0.  0.
        -13    1    3    3    0    0  0.15825204889E+02  0.28266098604E+02 -0.61666142026E+02  0.69657258606E+02  0.10566000000E+00 0.  1.
         13    1    4    4    0    0 -0.42190526833E+01 -0.61839237260E+01 -0.52635365401E+01  0.91519013946E+01  0.10566000000E+00 0. -1.
        -13    1    4    4    0    0 -0.41872694758E+01 -0.79983669721E+01 -0.62549768845E+01  0.10983760729E+02  0.10566000000E+00 0.  1.
         14    1    4    4    0    0 -0.74188827299E+01 -0.14083807906E+02 -0.96940789048E+01  0.18637827982E+02  0.00000000000E+00 0. -1.
<mgrwt>
<rscale>  0 0.69916684E+02</rscale>
<asrwt>0</asrwt>
<pdfrwt beam="1">  1        2 0.19655396E-02 0.69916684E+02</pdfrwt>
<pdfrwt beam="2">  1       -1 0.14716114E-01 0.69916684E+02</pdfrwt>
<totfact> 0.16723097E+05</totfact>
</mgrwt>
</event>
<event>
 8    1  0.1226832E-024  0.8025425E+02  0.7818608E-02  0.1328331E+00
          2   -1    0    0  501    0  0.00000000000E+00  0.00000000000E+00  0.55013843869E+03  0.55013843869E+03  0.25500000000E-02 0. -1.
         -1   -1    0    0    0  501 -0.00000000000E+00 -0.00000000000E+00 -0.29268721006E+01  0.29268764399E+01  0.50400000000E-02 0.  1.
         24    2    1    2    0    0  0.35527136788E-14  0.00000000000E+00  0.54721156658E+03  0.55306531513E+03  0.80254247221E+02 0.  0.
         66    2    3    3    0    0  0.26406033339E+02  0.23675303673E+02  0.40277222458E+03  0.40433558279E+03  0.20000032170E+01 0.  0.
        -13    1    3    3    0    0 -0.26406033339E+02 -0.23675303673E+02  0.14443934200E+03  0.14872973235E+03  0.10566000000E+00 0.  1.
         13    1    4    4    0    0  0.13117443022E+02  0.12874337237E+02  0.20677446726E+03  0.20758975732E+03  0.10566000000E+00 0. -1.
        -13    1    4    4    0    0  0.49110820314E+01  0.43771254264E+01  0.73143973404E+02  0.73439294407E+02  0.10566000000E+00 0.  1.
        -14    1    4    4    0    0  0.83775082862E+01  0.64238410096E+01  0.12285378392E+03  0.12330653105E+03  0.00000000000E+00 0.  1.
<mgrwt>
<rscale>  0 0.80254247E+02</rscale>
<asrwt>0</asrwt>
<pdfrwt beam="1">  1        2 0.84636657E-01 0.80254247E+02</pdfrwt>
<pdfrwt beam="2">  1       -1 0.45028849E-03 0.80254247E+02</pdfrwt>
<totfact> 0.31107318E+05</totfact>
</mgrwt>
</event>
<event>
 8    1  0.1226832E-024  0.7924782E+02  0.7818608E-02  0.1331200E+00
          2   -1    0    0  501    0  0.00000000000E+00  0.00000000000E+00  0.83090772999E+02  0.83090773038E+02  0.25500000000E-02 0. -1.
         -1   -1    0    0    0  501 -0.00000000000E+00 -0.00000000000E+00 -0.18895648375E+02  0.18895649047E+02  0.50400000000E-02 0.  1.
         24    2    1    2    0    0  0.00000000000E+00  0.35527136788E-14  0.64195124623E+02  0.10198642209E+03  0.79247815518E+02 0.  0.
         66    2    3    3    0    0 -0.59305483281E+01 -0.28686475183E+02  0.66408398196E+02  0.72609645443E+02  0.19999996270E+01 0.  0.
        -13    1    3    3    0    0  0.59305483281E+01  0.28686475183E+02 -0.22132735727E+01  0.29376776642E+02  0.10566000000E+00 0.  1.
         13    1    4    4    0    0 -0.14260955198E+01 -0.56568961882E+01  0.14080976643E+02  0.15242023822E+02  0.10566000000E+00 0. -1.
        -13    1    4    4    0    0 -0.41632807035E+01 -0.22144857967E+02  0.50743856907E+02  0.55521867930E+02  0.10566000000E+00 0.  1.
        -14    1    4    4    0    0 -0.34117210479E+00 -0.88472102843E+00  0.15835646456E+01  0.18457536916E+01  0.00000000000E+00 0.  1.
<mgrwt>
<rscale>  0 0.79247816E+02</rscale>
<asrwt>0</asrwt>
<pdfrwt beam="1">  1        2 0.12783196E-01 0.79247816E+02</pdfrwt>
<pdfrwt beam="2">  1       -1 0.29070228E-02 0.79247816E+02</pdfrwt>
<totfact> 0.17294359E+05</totfact>
</mgrwt>
</event>
<event>
 8    1  0.1226832E-024  0.7989687E+02  0.7818608E-02  0.1329344E+00
         -1   -1    0    0    0  501 -0.00000000000E+00  0.00000000000E+00  0.58286474330E+01  0.58286496120E+01  0.50400000000E-02 0.  1.
          2   -1    0    0  501    0  0.00000000000E+00 -0.00000000000E+00 -0.27379889184E+03  0.27379889185E+03  0.25500000000E-02 0. -1.
         24    2    1    2    0    0  0.00000000000E+00  0.71054273576E-14 -0.26797024440E+03  0.27962754146E+03  0.79896871387E+02 0.  0.
         66    2    3    3    0    0  0.53622094468E+01 -0.36416962608E+02 -0.18816671293E+03  0.19174373604E+03  0.19999998379E+01 0.  0.
        -13    1    3    3    0    0 -0.53622094468E+01  0.36416962608E+02 -0.79803531475E+02  0.87883805423E+02  0.10566000000E+00 0.  1.
         13    1    4    4    0    0  0.30043125328E+01 -0.17381727725E+02 -0.91603828912E+02  0.93286778205E+02  0.10566000000E+00 0. -1.
        -13    1    4    4    0    0  0.16085856974E+01 -0.81901313671E+01 -0.41424300198E+02  0.42256947484E+02  0.10566000000E+00 0.  1.
        -14    1    4    4    0    0  0.74931121658E+00 -0.10845103516E+02 -0.55138583819E+02  0.56200010348E+02  0.00000000000E+00 0.  1.
<mgrwt>
<rscale>  0 0.79896871E+02</rscale>
<asrwt>0</asrwt>
<pdfrwt beam="1">  1        2 0.42122897E-01 0.79896871E+02</pdfrwt>
<pdfrwt beam="2">  1       -1 0.89671537E-03 0.79896871E+02</pdfrwt>
<totfact> 0.24747952E+05</totfact>
</mgrwt>
</event>
<event>
 8    1  0.1226832E-024  0.8065363E+02  0.7818608E-02  0.1327207E+00
          2   -1    0    0  501    0  0.00000000000E+00  0.00000000000E+00  0.69991461183E+02  0.69991461230E+02  0.25500000000E-02 0. -1.
         -1   -1    0    0    0  501 -0.00000000000E+00 -0.00000000000E+00 -0.23235003904E+02  0.23235004451E+02  0.50400000000E-02 0.  1.
         24    2    1    2    0    0 -0.35527136788E-14  0.00000000000E+00  0.46756457279E+02  0.93226465681E+02  0.80653627358E+02 0.  0.
         66    2    3    3    0    0 -0.22801317597E+02  0.25084176611E+02  0.48588005243E+02  0.59278244337E+02  0.19999994266E+01 0.  0.
        -13    1    3    3    0    0  0.22801317597E+02 -0.25084176611E+02 -0.18315479636E+01  0.33948221344E+02  0.10566000000E+00 0.  1.
         13    1    4    4    0    0 -0.90659483413E+01  0.87266564674E+01  0.18119477330E+02  0.22060656726E+02  0.10566000000E+00 0. -1.
        -13    1    4    4    0    0 -0.43132307688E+01  0.50574196449E+01  0.88961274583E+01  0.11105570716E+02  0.10566000000E+00 0.  1.
         14    1    4    4    0    0 -0.94221384873E+01  0.11300100499E+02  0.21572400455E+02  0.26112016895E+02  0.00000000000E+00 0. -1.
<mgrwt>
<rscale>  0 0.80653627E+02</rscale>
<asrwt>0</asrwt>
<pdfrwt beam="1">  1        2 0.10767917E-01 0.80653627E+02</pdfrwt>
<pdfrwt beam="2">  1       -1 0.35746161E-02 0.80653627E+02</pdfrwt>
<totfact> 0.15794091E+05</totfact>
</mgrwt>
</event>
<event>
 8    1  0.1226832E-024  0.8076346E+02  0.7818608E-02  0.1326899E+00
          2   -1    0    0  501    0  0.00000000000E+00  0.00000000000E+00  0.15310980129E+02  0.15310980341E+02  0.25500000000E-02 0. -1.
         -1   -1    0    0    0  501 -0.00000000000E+00 -0.00000000000E+00 -0.10650423474E+03  0.10650423486E+03  0.50400000000E-02 0.  1.
         24    2    1    2    0    0  0.35527136788E-14  0.00000000000E+00 -0.91193254610E+02  0.12181521520E+03  0.80763463075E+02 0.  0.
         66    2    3    3    0    0 -0.30130108488E+02 -0.21134082789E+02 -0.20648367579E+02  0.42247224506E+02  0.20000004928E+01 0.  0.
        -13    1    3    3    0    0  0.30130108488E+02  0.21134082789E+02 -0.70544887032E+02  0.79567990695E+02  0.10566000000E+00 0.  1.
         13    1    4    4    0    0 -0.12309748542E+02 -0.78924238852E+01 -0.85908966730E+01  0.16959803467E+02  0.10566000000E+00 0.  1.
        -13    1    4    4    0    0 -0.82265496523E+01 -0.64257988723E+01 -0.51336998804E+01  0.11633273350E+02  0.10566000000E+00 0. -1.
         14    1    4    4    0    0 -0.95938102935E+01 -0.68158600313E+01 -0.69237710253E+01  0.13654147689E+02  0.00000000000E+00 0. -1.
<mgrwt>
<rscale>  0 0.80763463E+02</rscale>
<asrwt>0</asrwt>
<pdfrwt beam="1">  1        2 0.23555355E-02 0.80763463E+02</pdfrwt>
<pdfrwt beam="2">  1       -1 0.16385266E-01 0.80763463E+02</pdfrwt>
<totfact> 0.11418153E+05</totfact>
</mgrwt>
</event>
<event>
 8    1  0.1226832E-024  0.7867911E+02  0.7818608E-02  0.1332842E+00
         -1   -1    0    0    0  501 -0.00000000000E+00  0.00000000000E+00  0.49028166850E+01  0.49028192755E+01  0.50400000000E-02 0.  1.
          2   -1    0    0  501    0  0.00000000000E+00 -0.00000000000E+00 -0.31565532836E+03  0.31565532837E+03  0.25500000000E-02 0. -1.
         24    2    1    2    0    0 -0.88817841970E-15  0.71054273576E-14 -0.31075251168E+03  0.32055814765E+03  0.78679111013E+02 0.  0.
         66    2    3    3    0    0 -0.63037202839E+01  0.33712994344E+02 -0.23377115293E+03  0.23628215086E+03  0.19999981926E+01 0.  0.
        -13    1    3    3    0    0  0.63037202839E+01 -0.33712994344E+02 -0.76981358746E+02  0.84275996793E+02  0.10566000000E+00 0.  1.
         13    1    4    4    0    0 -0.32366412083E+00  0.33906696911E+01 -0.23087481178E+02  0.23337616643E+02  0.10566000000E+00 0.  1.
        -13    1    4    4    0    0 -0.19553873642E+01  0.12569197102E+02 -0.90762389691E+02  0.91649499737E+02  0.10566000000E+00 0.  1.
         14    1    4    4    0    0 -0.40246687989E+01  0.17753127550E+02 -0.11992128206E+03  0.12129503448E+03  0.00000000000E+00 0. -1.
<mgrwt>
<rscale>  0 0.78679111E+02</rscale>
<asrwt>0</asrwt>
<pdfrwt beam="1">  1        2 0.48562342E-01 0.78679111E+02</pdfrwt>
<pdfrwt beam="2">  1       -1 0.75427994E-03 0.78679111E+02</pdfrwt>
<totfact> 0.27124613E+05</totfact>
</mgrwt>
</event>
<event>
 8    1  0.1226832E-024  0.8125658E+02  0.7818608E-02  0.1325523E+00
          2   -1    0    0  501    0  0.00000000000E+00  0.00000000000E+00  0.90252038586E+02  0.90252038622E+02  0.25500000000E-02 0. -1.
         -1   -1    0    0    0  501 -0.00000000000E+00 -0.00000000000E+00 -0.18289426077E+02  0.18289426772E+02  0.50400000000E-02 0.  1.
         24    2    1    2    0    0  0.00000000000E+00  0.00000000000E+00  0.71962612509E+02  0.10854146539E+03  0.81256581954E+02 0.  0.
         66    2    3    3    0    0  0.17306971030E+02 -0.33386139427E+02  0.56457925405E+02  0.67865034402E+02  0.20000002964E+01 0.  0.
        -13    1    3    3    0    0 -0.17306971030E+02  0.33386139427E+02  0.15504687103E+02  0.40676430992E+02  0.10566000000E+00 0.  1.
         13    1    4    4    0    0  0.68135459057E+01 -0.13304629512E+02  0.23139596448E+02  0.27547952048E+02  0.10566000000E+00 0. -1.
        -13    1    4    4    0    0  0.83749863138E+01 -0.14754595055E+02  0.25168230266E+02  0.30352750284E+02  0.10566000000E+00 0.  1.
        -14    1    4    4    0    0  0.21184388100E+01 -0.53269148599E+01  0.81500986911E+01  0.99643320694E+01  0.00000000000E+00 0.  1.
<mgrwt>
<rscale>  0 0.81256582E+02</rscale>
<asrwt>0</asrwt>
<pdfrwt beam="1">  1        2 0.13884929E-01 0.81256582E+02</pdfrwt>
<pdfrwt beam="2">  1       -1 0.28137579E-02 0.81256582E+02</pdfrwt>
<totfact> 0.16526431E+05</totfact>
</mgrwt>
</event>
<event>
 8    1  0.1226832E-024  0.7894198E+02  0.7818608E-02  0.1332081E+00
          2   -1    0    0  501    0  0.00000000000E+00  0.00000000000E+00  0.29127969963E+03  0.29127969964E+03  0.25500000000E-02 0. -1.
         -1   -1    0    0    0  501 -0.00000000000E+00 -0.00000000000E+00 -0.53486695978E+01  0.53486719724E+01  0.50400000000E-02 0.  1.
         24    2    1    2    0    0  0.00000000000E+00  0.00000000000E+00  0.28593103003E+03  0.29662837161E+03  0.78941984462E+02 0.  0.
         66    2    3    3    0    0 -0.10611050768E+02 -0.15062977843E+02  0.27411236902E+03  0.27473820003E+03  0.20000010127E+01 0.  0.
        -13    1    3    3    0    0  0.10611050768E+02  0.15062977843E+02  0.11818661009E+02  0.21890171584E+02  0.10566000000E+00 0.  1.
         13    1    4    4    0    0 -0.63800842647E+01 -0.10066244026E+02  0.17498476456E+03  0.17539017571E+03  0.10566000000E+00 0. -1.
        -13    1    4    4    0    0 -0.18310242830E+01 -0.27151838595E+01  0.44882038328E+02  0.45001482218E+02  0.10566000000E+00 0.  1.
        -14    1    4    4    0    0 -0.23999422205E+01 -0.22815499570E+01  0.54245566132E+02  0.54346542096E+02  0.00000000000E+00 0.  1.
<mgrwt>
<rscale>  0 0.78941984E+02</rscale>
<asrwt>0</asrwt>
<pdfrwt beam="1">  1        2 0.44812261E-01 0.78941984E+02</pdfrwt>
<pdfrwt beam="2">  1       -1 0.82287244E-03 0.78941984E+02</pdfrwt>
<totfact> 0.26119296E+05</totfact>
</mgrwt>
</event>
<event>
 8    1  0.1226832E-024  0.7991158E+02  0.7818608E-02  0.1329303E+00
          2   -1    0    0  501    0  0.00000000000E+00  0.00000000000E+00  0.79715175324E+03  0.79715175324E+03  0.25500000000E-02 0. -1.
         -1   -1    0    0    0  501 -0.00000000000E+00 -0.00000000000E+00 -0.20027083263E+01  0.20027146681E+01  0.50400000000E-02 0.  1.
         24    2    1    2    0    0  0.00000000000E+00 -0.35527136788E-14  0.79514904491E+03  0.79915446791E+03  0.79911575863E+02 0.  0.
         66    2    3    3    0    0  0.75000356003E+01  0.29559757677E+02  0.65560078818E+03  0.65631274806E+03  0.20000000649E+01 0.  0.
        -13    1    3    3    0    0 -0.75000356003E+01 -0.29559757677E+02  0.13954825673E+03  0.14284171985E+03  0.10566000000E+00 0.  1.
         13    1    4    4    0    0  0.73828755547E-01  0.11610632362E+01  0.21371273918E+02  0.21403178069E+02  0.10566000000E+00 0. -1.
        -13    1    4    4    0    0  0.26117947646E+00  0.49724370258E+00  0.12172951952E+02  0.12186360789E+02  0.10566000000E+00 0.  1.
         14    1    4    4    0    0  0.71650273683E+01  0.27901450738E+02  0.62205656231E+03  0.62272320920E+03  0.00000000000E+00 0. -1.
<mgrwt>
<rscale>  0 0.79911576E+02</rscale>
<asrwt>0</asrwt>
<pdfrwt beam="1">  1        2 0.12263888E+00 0.79911576E+02</pdfrwt>
<pdfrwt beam="2">  1       -1 0.30810908E-03 0.79911576E+02</pdfrwt>
<totfact> 0.34443228E+05</totfact>
</mgrwt>
</event>
<event>
 8    1  0.1226832E-024  0.8163383E+02  0.7818608E-02  0.1324478E+00
          2   -1    0    0  501    0  0.00000000000E+00  0.00000000000E+00  0.10152957647E+03  0.10152957650E+03  0.25500000000E-02 0. -1.
         -1   -1    0    0    0  501 -0.00000000000E+00 -0.00000000000E+00 -0.16409212302E+02  0.16409213076E+02  0.50400000000E-02 0.  1.
         24    2    1    2    0    0  0.00000000000E+00 -0.35527136788E-14  0.85120364164E+02  0.11793878957E+03  0.81633826877E+02 0.  0.
         66    2    3    3    0    0  0.34906371150E+02 -0.20838525851E+02  0.47445734239E+02  0.62512371589E+02  0.19999994425E+01 0.  0.
        -13    1    3    3    0    0 -0.34906371150E+02  0.20838525851E+02  0.37674629925E+02  0.55426417984E+02  0.10566000000E+00 0.  1.
         13    1    4    4    0    0  0.19828413539E+02 -0.11420982069E+02  0.26088004772E+02  0.34701584573E+02  0.10566000000E+00 0. -1.
        -13    1    4    4    0    0  0.66017174444E+01 -0.45230179442E+01  0.89316388343E+01  0.11992735336E+02  0.10566000000E+00 0.  1.
        -14    1    4    4    0    0  0.84762401670E+01 -0.48945258379E+01  0.12426090632E+02  0.15818051680E+02  0.00000000000E+00 0.  1.
<mgrwt>
<rscale>  0 0.81633827E+02</rscale>
<asrwt>0</asrwt>
<pdfrwt beam="1">  1        2 0.15619935E-01 0.81633827E+02</pdfrwt>
<pdfrwt beam="2">  1       -1 0.25244943E-02 0.81633827E+02</pdfrwt>
<totfact> 0.16862338E+05</totfact>
</mgrwt>
</event>
<event>
 8    1  0.1226832E-024  0.8138828E+02  0.7818608E-02  0.1325157E+00
         -1   -1    0    0    0  501 -0.00000000000E+00  0.00000000000E+00  0.19104639534E+01  0.19104706014E+01  0.50400000000E-02 0.  1.
          2   -1    0    0  501    0  0.00000000000E+00 -0.00000000000E+00 -0.86681053695E+03  0.86681053696E+03  0.25500000000E-02 0. -1.
         24    2    1    2    0    0  0.17763568394E-14  0.35527136788E-14 -0.86490007300E+03  0.86872100756E+03  0.81388283543E+02 0.  0.
         66    2    3    3    0    0  0.11840122332E+02  0.21201190730E+02 -0.78093262258E+03  0.78131263908E+03  0.19999996089E+01 0.  0.
        -13    1    3    3    0    0 -0.11840122332E+02 -0.21201190730E+02 -0.83967450419E+02  0.87408368473E+02  0.10566000000E+00 0.  1.
         13    1    4    4    0    0  0.37789468309E+01  0.65804766152E+01 -0.25759395377E+03  0.25770572228E+03  0.10566000000E+00 0. -1.
        -13    1    4    4    0    0  0.60955966170E+01  0.98560316028E+01 -0.35184807981E+03  0.35203889002E+03  0.10566000000E+00 0.  1.
        -14    1    4    4    0    0  0.19655788841E+01  0.47646825119E+01 -0.17149058900E+03  0.17156802679E+03  0.00000000000E+00 0.  1.
<mgrwt>
<rscale>  0 0.81388284E+02</rscale>
<asrwt>0</asrwt>
<pdfrwt beam="1">  1        2 0.13335515E+00 0.81388284E+02</pdfrwt>
<pdfrwt beam="2">  1       -1 0.29391874E-03 0.81388284E+02</pdfrwt>
<totfact> 0.33266905E+05</totfact>
</mgrwt>
</event>
<event>
 8    1  0.1226832E-024  0.8269810E+02  0.7818608E-02  0.1321564E+00
         -1   -1    0    0    0  501 -0.00000000000E+00  0.00000000000E+00  0.12771809697E+03  0.12771809707E+03  0.50400000000E-02 0.  1.
          2   -1    0    0  501    0  0.00000000000E+00 -0.00000000000E+00 -0.13386857568E+02  0.13386857811E+02  0.25500000000E-02 0. -1.
         24    2    1    2    0    0  0.00000000000E+00  0.00000000000E+00  0.11433123940E+03  0.14110495488E+03  0.82698101481E+02 0.  0.
         66    2    3    3    0    0 -0.26575555553E+02  0.26759173015E+02  0.86025540518E+02  0.93950556923E+02  0.20000078283E+01 0.  0.
        -13    1    3    3    0    0  0.26575555553E+02 -0.26759173015E+02  0.28305698886E+02  0.47154397958E+02  0.10566000000E+00 0.  1.
         13    1    4    4    0    0 -0.47531453829E+00  0.49032552378E+00  0.12363595037E+01  0.14163657323E+01  0.10566000000E+00 0. -1.
        -13    1    4    4    0    0 -0.71880402147E+01  0.63579138061E+01  0.22234107704E+02  0.24216888726E+02  0.10566000000E+00 0.  1.
         14    1    4    4    0    0 -0.18912200800E+02  0.19910933685E+02  0.62555073310E+02  0.68317302465E+02  0.00000000000E+00 0. -1.
<mgrwt>
<rscale>  0 0.82698101E+02</rscale>
<asrwt>0</asrwt>
<pdfrwt beam="1">  1        2 0.20595166E-02 0.82698101E+02</pdfrwt>
<pdfrwt beam="2">  1       -1 0.19648937E-01 0.82698101E+02</pdfrwt>
<totfact> 0.10322441E+05</totfact>
</mgrwt>
</event>
<event>
 8    1  0.1584676E-024  0.7751922E+02  0.7818608E-02  0.1336243E+00
          2   -1    0    0  501    0  0.00000000000E+00  0.00000000000E+00  0.82412768062E+03  0.82412768062E+03  0.25500000000E-02 0. -1.
         -1   -1    0    0    0  501 -0.00000000000E+00 -0.00000000000E+00 -0.18229026103E+01  0.18229095776E+01  0.50400000000E-02 0.  1.
         24    2    1    2    0    0 -0.17763568394E-14  0.35527136788E-14  0.82230477801E+03  0.82595059020E+03  0.77519220305E+02 0.  0.
         66    2    3    3    0    0  0.93692637223E+01 -0.26858628100E+02  0.69153338108E+03  0.69212107767E+03  0.19999993751E+01 0.  0.
        -13    1    3    3    0    0 -0.93692637223E+01  0.26858628100E+02  0.13077139693E+03  0.13382951253E+03  0.10566000000E+00 0.  1.
         13    1    4    4    0    0  0.50020371068E+01 -0.13336323315E+02  0.34649959952E+03  0.34679224549E+03  0.10566000000E+00 0.  1.
        -13    1    4    4    0    0  0.34777387224E+01 -0.11429209589E+02  0.29971931707E+03  0.29995733311E+03  0.10566000000E+00 0. -1.
        -14    1    4    4    0    0  0.88948789309E+00 -0.20930951966E+01  0.45314464491E+02  0.45371499075E+02  0.00000000000E+00 0.  1.
<mgrwt>
<rscale>  0 0.77519220E+02</rscale>
<asrwt>0</asrwt>
<pdfrwt beam="1">  1        2 0.12678936E+00 0.77519220E+02</pdfrwt>
<pdfrwt beam="2">  1       -1 0.28044602E-03 0.77519220E+02</pdfrwt>
<totfact> 0.37474300E+05</totfact>
</mgrwt>
</event>
<event>
 8    1  0.1226832E-024  0.8121480E+02  0.7818608E-02  0.1325639E+00
         -1   -1    0    0    0  501 -0.00000000000E+00  0.00000000000E+00  0.70116452036E+01  0.70116470150E+01  0.50400000000E-02 0.  1.
          2   -1    0    0  501    0  0.00000000000E+00 -0.00000000000E+00 -0.23517457661E+03  0.23517457662E+03  0.25500000000E-02 0. -1.
         24    2    1    2    0    0  0.00000000000E+00  0.17763568394E-14 -0.22816293140E+03  0.24218622364E+03  0.81214799467E+02 0.  0.
         66    2    3    3    0    0  0.36839132332E+02  0.83403822398E+01 -0.15840870168E+03  0.16286190596E+03  0.19999992457E+01 0.  0.
        -13    1    3    3    0    0 -0.36839132332E+02 -0.83403822398E+01 -0.69754229720E+02  0.79324317676E+02  0.10566000000E+00 0.  1.
         13    1    4    4    0    0  0.16400697264E+02  0.38429306955E+01 -0.67838521611E+02  0.69898692159E+02  0.10566000000E+00 0. -1.
        -13    1    4    4    0    0  0.72381025048E+01  0.19692877187E+01 -0.30780426339E+02  0.31681446174E+02  0.10566000000E+00 0.  1.
         14    1    4    4    0    0  0.13200332564E+02  0.25281638255E+01 -0.59789753732E+02  0.61281767627E+02  0.00000000000E+00 0. -1.
<mgrwt>
<rscale>  0 0.81214799E+02</rscale>
<asrwt>0</asrwt>
<pdfrwt beam="1">  1        2 0.36180698E-01 0.81214799E+02</pdfrwt>
<pdfrwt beam="2">  1       -1 0.10787150E-02 0.81214799E+02</pdfrwt>
<totfact> 0.22444188E+05</totfact>
</mgrwt>
</event>
<event>
 8    1  0.1226832E-024  0.7832123E+02  0.7818608E-02  0.1333884E+00
         -1   -1    0    0    0  501 -0.00000000000E+00  0.00000000000E+00  0.50493166706E+02  0.50493166957E+02  0.50400000000E-02 0.  1.
          2   -1    0    0  501    0  0.00000000000E+00 -0.00000000000E+00 -0.30371509458E+02  0.30371509565E+02  0.25500000000E-02 0. -1.
         24    2    1    2    0    0  0.00000000000E+00  0.00000000000E+00  0.20121657248E+02  0.80864676522E+02  0.78321228403E+02 0.  0.
         66    2    3    3    0    0 -0.16069311362E+02  0.29940977221E+02 -0.99760398264E+01  0.35471203227E+02  0.20000007772E+01 0.  0.
        -13    1    3    3    0    0  0.16069311362E+02 -0.29940977221E+02  0.30097697074E+02  0.45393473295E+02  0.10566000000E+00 0.  1.
         13    1    4    4    0    0 -0.58035161830E+01  0.98057448446E+01 -0.32250572133E+01  0.11842533095E+02  0.10566000000E+00 0. -1.
        -13    1    4    4    0    0 -0.91064828084E+00  0.25729886552E+01 -0.54930131547E+00  0.27861168106E+01  0.10566000000E+00 0.  1.
         14    1    4    4    0    0 -0.93551468983E+01  0.17562243721E+02 -0.62016812976E+01  0.20842553321E+02  0.00000000000E+00 0. -1.
<mgrwt>
<rscale>  0 0.78321228E+02</rscale>
<asrwt>0</asrwt>
<pdfrwt beam="1">  1        2 0.46725399E-02 0.78321228E+02</pdfrwt>
<pdfrwt beam="2">  1       -1 0.77681796E-02 0.78321228E+02</pdfrwt>
<totfact> 0.14311968E+05</totfact>
</mgrwt>
</event>
<event>
 8    1  0.1226832E-024  0.7536856E+02  0.7818608E-02  0.1342734E+00
         -1   -1    0    0    0  501 -0.00000000000E+00  0.00000000000E+00  0.20505535219E+01  0.20505597157E+01  0.50400000000E-02 0.  1.
          2   -1    0    0  501    0  0.00000000000E+00 -0.00000000000E+00 -0.69254600378E+03  0.69254600378E+03  0.25500000000E-02 0. -1.
         24    2    1    2    0    0 -0.71054273576E-14 -0.88817841970E-15 -0.69049545026E+03  0.69459656350E+03  0.75368555774E+02 0.  0.
         66    2    3    3    0    0  0.34287773517E+02  0.46818645686E+01 -0.48234966000E+03  0.48359359567E+03  0.19999996999E+01 0.  0.
        -13    1    3    3    0    0 -0.34287773517E+02 -0.46818645686E+01 -0.20814579026E+03  0.21100296783E+03  0.10566000000E+00 0.  1.
         13    1    4    4    0    0  0.11529143157E+02  0.10952947537E+01 -0.16739371448E+03  0.16779388435E+03  0.10566000000E+00 0. -1.
        -13    1    4    4    0    0  0.42680420582E+01  0.39782104696E+00 -0.63639548520E+02  0.63783836076E+02  0.10566000000E+00 0.  1.
        -14    1    4    4    0    0  0.18490588302E+02  0.31887487679E+01 -0.25131639700E+03  0.25201587524E+03  0.00000000000E+00 0.  1.
<mgrwt>
<rscale>  0 0.75368556E+02</rscale>
<asrwt>0</asrwt>
<pdfrwt beam="1">  1        2 0.10654535E+00 0.75368556E+02</pdfrwt>
<pdfrwt beam="2">  1       -1 0.31547080E-03 0.75368556E+02</pdfrwt>
<totfact> 0.38946964E+05</totfact>
</mgrwt>
</event>
<event>
 8    1  0.1226832E-024  0.7903593E+02  0.7818608E-02  0.1331810E+00
          2   -1    0    0  501    0  0.00000000000E+00  0.00000000000E+00  0.58103317053E+03  0.58103317054E+03  0.25500000000E-02 0. -1.
         -1   -1    0    0    0  501 -0.00000000000E+00 -0.00000000000E+00 -0.26877432719E+01  0.26877479974E+01  0.50400000000E-02 0.  1.
         24    2    1    2    0    0  0.17763568394E-14  0.71054273576E-14  0.57834542726E+03  0.58372091853E+03  0.79035925393E+02 0.  0.
         66    2    3    3    0    0 -0.12661503772E+02 -0.35883103929E+02  0.36743227424E+03  0.36940274360E+03  0.20000006934E+01 0.  0.
        -13    1    3    3    0    0  0.12661503772E+02  0.35883103929E+02  0.21091315302E+03  0.21431817493E+03  0.10566000000E+00 0.  1.
         13    1    4    4    0    0 -0.77891779676E+01 -0.21072946703E+02  0.21015225898E+03  0.21134976577E+03  0.10566000000E+00 0. -1.
        -13    1    4    4    0    0 -0.10342992403E+01 -0.34990740051E+01  0.33745345033E+02  0.33942197472E+02  0.10566000000E+00 0.  1.
         14    1    4    4    0    0 -0.38380265643E+01 -0.11311083221E+02  0.12353467023E+03  0.12411078035E+03  0.00000000000E+00 0. -1.
<mgrwt>
<rscale>  0 0.79035925E+02</rscale>
<asrwt>0</asrwt>
<pdfrwt beam="1">  1        2 0.89389857E-01 0.79035925E+02</pdfrwt>
<pdfrwt beam="2">  1       -1 0.41349869E-03 0.79035925E+02</pdfrwt>
<totfact> 0.32894059E+05</totfact>
</mgrwt>
</event>
<event>
 8    1  0.1226832E-024  0.7968894E+02  0.7818608E-02  0.1329937E+00
          2   -1    0    0  501    0  0.00000000000E+00  0.00000000000E+00  0.12333004927E+03  0.12333004929E+03  0.25500000000E-02 0. -1.
         -1   -1    0    0    0  501 -0.00000000000E+00 -0.00000000000E+00 -0.12872625634E+02  0.12872626620E+02  0.50400000000E-02 0.  1.
         24    2    1    2    0    0  0.00000000000E+00  0.00000000000E+00  0.11045742363E+03  0.13620267591E+03  0.79688935809E+02 0.  0.
         66    2    3    3    0    0 -0.12327782188E+02 -0.20317056711E+02  0.10987213890E+03  0.11243061817E+03  0.19999973647E+01 0.  0.
        -13    1    3    3    0    0  0.12327782188E+02  0.20317056711E+02  0.58528473586E+00  0.23772057742E+02  0.10566000000E+00 0.  1.
         13    1    4    4    0    0 -0.15579590871E+01 -0.22986088405E+01  0.13828964659E+02  0.14105398495E+02  0.10566000000E+00 0. -1.
        -13    1    4    4    0    0 -0.81740312472E+00 -0.88627725096E+00  0.43077288239E+01  0.44745197385E+01  0.10566000000E+00 0.  1.
        -14    1    4    4    0    0 -0.99524199757E+01 -0.17132170619E+02  0.91735445412E+02  0.93850699936E+02  0.00000000000E+00 0.  1.
<mgrwt>
<rscale>  0 0.79688936E+02</rscale>
<asrwt>0</asrwt>
<pdfrwt beam="1">  1        2 0.18973854E-01 0.79688936E+02</pdfrwt>
<pdfrwt beam="2">  1       -1 0.19804040E-02 0.79688936E+02</pdfrwt>
<totfact> 0.19037653E+05</totfact>
</mgrwt>
</event>
<event>
 8    1  0.1226832E-024  0.7582083E+02  0.7818608E-02  0.1341348E+00
         -1   -1    0    0    0  501 -0.00000000000E+00  0.00000000000E+00  0.25629122041E+02  0.25629122536E+02  0.50400000000E-02 0.  1.
          2   -1    0    0  501    0  0.00000000000E+00 -0.00000000000E+00 -0.56076815508E+02  0.56076815566E+02  0.25500000000E-02 0. -1.
         24    2    1    2    0    0  0.00000000000E+00  0.00000000000E+00 -0.30447693467E+02  0.81705938103E+02  0.75820830144E+02 0.  0.
         66    2    3    3    0    0 -0.15192676144E+02  0.29818968096E+02 -0.34366508429E+02  0.48010885922E+02  0.19999996712E+01 0.  0.
        -13    1    3    3    0    0  0.15192676144E+02 -0.29818968096E+02  0.39188149618E+01  0.33695052181E+02  0.10566000000E+00 0.  1.
         13    1    4    4    0    0 -0.75314564498E+01  0.13972492131E+02 -0.15721601366E+02  0.22341291059E+02  0.10566000000E+00 0. -1.
        -13    1    4    4    0    0 -0.78556076689E+00  0.11974649121E+01 -0.19184244203E+01  0.23963606210E+01  0.10566000000E+00 0.  1.
         14    1    4    4    0    0 -0.68756589269E+01  0.14649011053E+02 -0.16726482643E+02  0.23273234242E+02  0.00000000000E+00 0. -1.
<mgrwt>
<rscale>  0 0.75820830E+02</rscale>
<asrwt>0</asrwt>
<pdfrwt beam="1">  1        2 0.86272024E-02 0.75820830E+02</pdfrwt>
<pdfrwt beam="2">  1       -1 0.39429419E-02 0.75820830E+02</pdfrwt>
<totfact> 0.17733484E+05</totfact>
</mgrwt>
</event>
<event>
 8    1  0.1226832E-024  0.7954884E+02  0.7818608E-02  0.1330337E+00
          2   -1    0    0  501    0  0.00000000000E+00  0.00000000000E+00  0.38830868390E+03  0.38830868391E+03  0.25500000000E-02 0. -1.
         -1   -1    0    0    0  501 -0.00000000000E+00 -0.00000000000E+00 -0.40740882305E+01  0.40740913479E+01  0.50400000000E-02 0.  1.
         24    2    1    2    0    0  0.17763568394E-14 -0.35527136788E-14  0.38423459567E+03  0.39238277526E+03  0.79548839140E+02 0.  0.
         66    2    3    3    0    0  0.12677390551E+02 -0.24367138047E+02  0.33396175365E+03  0.33509539919E+03  0.20000023900E+01 0.  0.
        -13    1    3    3    0    0 -0.12677390551E+02  0.24367138047E+02  0.50272842019E+02  0.57287376066E+02  0.10566000000E+00 0.  1.
         13    1    4    4    0    0  0.51415968955E+01 -0.91884451091E+01  0.12890071810E+03  0.12933008093E+03  0.10566000000E+00 0. -1.
        -13    1    4    4    0    0  0.16698788830E+01 -0.32259263306E+01  0.37212463278E+02  0.37389486269E+02  0.10566000000E+00 0.  1.
         14    1    4    4    0    0  0.58659147728E+01 -0.11952766607E+02  0.16784857227E+03  0.16837583199E+03  0.00000000000E+00 0. -1.
<mgrwt>
<rscale>  0 0.79548839E+02</rscale>
<asrwt>0</asrwt>
<pdfrwt beam="1">  1        2 0.59739803E-01 0.79548839E+02</pdfrwt>
<pdfrwt beam="2">  1       -1 0.62678299E-03 0.79548839E+02</pdfrwt>
<totfact> 0.28377215E+05</totfact>
</mgrwt>
</event>
<event>
 8    1  0.1226832E-024  0.8227561E+02  0.7818608E-02  0.1322715E+00
         -1   -1    0    0    0  501 -0.00000000000E+00  0.00000000000E+00  0.39275285630E+02  0.39275285953E+02  0.50400000000E-02 0.  1.
          2   -1    0    0  501    0  0.00000000000E+00 -0.00000000000E+00 -0.43088644857E+02  0.43088644933E+02  0.25500000000E-02 0. -1.
         24    2    1    2    0    0  0.35527136788E-14  0.00000000000E+00 -0.38133592272E+01  0.82363930886E+02  0.82275606363E+02 0.  0.
         66    2    3    3    0    0  0.29244910326E+02 -0.10409794519E+02 -0.28893842882E+02  0.42455655726E+02  0.19999861869E+01 0.  0.
        -13    1    3    3    0    0 -0.29244910326E+02  0.10409794519E+02  0.25080483655E+02  0.39908275160E+02  0.10566000000E+00 0.  1.
         13    1    4    4    0    0  0.10751440384E+02 -0.40040348811E+01 -0.10267322637E+02  0.15396585460E+02  0.10566000000E+00 0.  1.
        -13    1    4    4    0    0  0.10235442480E+02 -0.33982425265E+01 -0.92630764198E+01  0.14217175663E+02  0.10566000000E+00 0. -1.
         14    1    4    4    0    0  0.82580274616E+01 -0.30075171114E+01 -0.93634438249E+01  0.12841894603E+02  0.00000000000E+00 0. -1.
<mgrwt>
<rscale>  0 0.82275606E+02</rscale>
<asrwt>0</asrwt>
<pdfrwt beam="1">  1        2 0.66290223E-02 0.82275606E+02</pdfrwt>
<pdfrwt beam="2">  1       -1 0.60423517E-02 0.82275606E+02</pdfrwt>
<totfact> 0.13397696E+05</totfact>
</mgrwt>
</event>
<event>
 8    1  0.1226832E-024  0.8269354E+02  0.7818608E-02  0.1321577E+00
          2   -1    0    0  501    0  0.00000000000E+00  0.00000000000E+00  0.61580584524E+03  0.61580584524E+03  0.25500000000E-02 0. -1.
         -1   -1    0    0    0  501 -0.00000000000E+00 -0.00000000000E+00 -0.27761248839E+01  0.27761294589E+01  0.50400000000E-02 0.  1.
         24    2    1    2    0    0  0.71054273576E-14 -0.88817841970E-15  0.61302972035E+03  0.61858197470E+03  0.82693538980E+02 0.  0.
         66    2    3    3    0    0  0.36602263262E+02 -0.62779965314E+01  0.44225467062E+03  0.44381565160E+03  0.19999999997E+01 0.  0.
        -13    1    3    3    0    0 -0.36602263262E+02  0.62779965314E+01  0.17077504973E+03  0.17476632311E+03  0.10566000000E+00 0.  1.
         13    1    4    4    0    0  0.20839888291E+02 -0.28734728727E+01  0.24464771498E+03  0.24555055161E+03  0.10566000000E+00 0. -1.
        -13    1    4    4    0    0  0.15132159442E+02 -0.31248952289E+01  0.18913062455E+03  0.18976077447E+03  0.10566000000E+00 0.  1.
         14    1    4    4    0    0  0.63021552954E+00 -0.27962842978E+00  0.84763310915E+01  0.85043255139E+01  0.00000000000E+00 0. -1.
<mgrwt>
<rscale>  0 0.82693539E+02</rscale>
<asrwt>0</asrwt>
<pdfrwt beam="1">  1        2 0.94739418E-01 0.82693539E+02</pdfrwt>
<pdfrwt beam="2">  1       -1 0.42709623E-03 0.82693539E+02</pdfrwt>
<totfact> 0.29715832E+05</totfact>
</mgrwt>
</event>
<event>
 8    1  0.1226832E-024  0.8143739E+02  0.7818608E-02  0.1325021E+00
          2   -1    0    0  501    0  0.00000000000E+00  0.00000000000E+00  0.82566643861E+01  0.82566647798E+01  0.25500000000E-02 0. -1.
         -1   -1    0    0    0  501 -0.00000000000E+00 -0.00000000000E+00 -0.20080894563E+03  0.20080894569E+03  0.50400000000E-02 0.  1.
         24    2    1    2    0    0  0.00000000000E+00  0.00000000000E+00 -0.19255228124E+03  0.20906561047E+03  0.81437389878E+02 0.  0.
         66    2    3    3    0    0 -0.20148487249E+02 -0.35334019679E+02 -0.93135181044E+02  0.10164947825E+03  0.19999989423E+01 0.  0.
        -13    1    3    3    0    0  0.20148487249E+02  0.35334019679E+02 -0.99417100196E+02  0.10741613222E+03  0.10566000000E+00 0.  1.
         13    1    4    4    0    0 -0.11797902487E+01 -0.26128514016E+01 -0.71135527610E+01  0.76702473491E+01  0.10566000000E+00 0.  1.
        -13    1    4    4    0    0 -0.11747407992E+02 -0.19580349689E+02 -0.50490086957E+02  0.55413461663E+02  0.10566000000E+00 0. -1.
         14    1    4    4    0    0 -0.72212890081E+01 -0.13140818588E+02 -0.35531541326E+02  0.38565769241E+02  0.00000000000E+00 0. -1.
<mgrwt>
<rscale>  0 0.81437390E+02</rscale>
<asrwt>0</asrwt>
<pdfrwt beam="1">  1        2 0.12702562E-02 0.81437390E+02</pdfrwt>
<pdfrwt beam="2">  1       -1 0.30893680E-01 0.81437390E+02</pdfrwt>
<totfact> 0.95071748E+04</totfact>
</mgrwt>
</event>
<event>
 8    1  0.1226832E-024  0.7980167E+02  0.7818608E-02  0.1329615E+00
          2   -1    0    0  501    0  0.00000000000E+00  0.00000000000E+00  0.27071700205E+02  0.27071700325E+02  0.25500000000E-02 0. -1.
         -1   -1    0    0    0  501 -0.00000000000E+00 -0.00000000000E+00 -0.58809629964E+02  0.58809630180E+02  0.50400000000E-02 0.  1.
         24    2    1    2    0    0  0.00000000000E+00  0.00000000000E+00 -0.31737929759E+02  0.85881330505E+02  0.79801671310E+02 0.  0.
         66    2    3    3    0    0 -0.75006638328E+01 -0.18416349213E+02  0.21318025038E+02  0.29221226554E+02  0.20000033722E+01 0.  0.
        -13    1    3    3    0    0  0.75006638328E+01  0.18416349213E+02 -0.53055954798E+02  0.56660103951E+02  0.10566000000E+00 0.  1.
         13    1    4    4    0    0 -0.29618741054E+01 -0.80782951710E+01  0.84349662178E+01  0.12049538174E+02  0.10566000000E+00 0. -1.
        -13    1    4    4    0    0 -0.75272303325E+00 -0.26993524719E+01  0.36771194969E+01  0.46244424056E+01  0.10566000000E+00 0.  1.
         14    1    4    4    0    0 -0.37860666941E+01 -0.76387015702E+01  0.92059393236E+01  0.12547245974E+02  0.00000000000E+00 0. -1.
<mgrwt>
<rscale>  0 0.79801671E+02</rscale>
<asrwt>0</asrwt>
<pdfrwt beam="1">  1        2 0.41648770E-02 0.79801671E+02</pdfrwt>
<pdfrwt beam="2">  1       -1 0.90476353E-02 0.79801671E+02</pdfrwt>
<totfact> 0.13278262E+05</totfact>
</mgrwt>
</event>
<event>
 8    1  0.1226832E-024  0.8046356E+02  0.7818608E-02  0.1327741E+00
          2   -1    0    0  501    0  0.00000000000E+00  0.00000000000E+00  0.18897469276E+02  0.18897469448E+02  0.25500000000E-02 0. -1.
         -1   -1    0    0    0  501 -0.00000000000E+00 -0.00000000000E+00 -0.85651484397E+02  0.85651484545E+02  0.50400000000E-02 0.  1.
         24    2    1    2    0    0  0.00000000000E+00  0.00000000000E+00 -0.66754015121E+02  0.10454895399E+03  0.80463564714E+02 0.  0.
         66    2    3    3    0    0 -0.56796345405E+01  0.38274269918E+02 -0.19198926455E+02  0.43240915302E+02  0.19999982121E+01 0.  0.
        -13    1    3    3    0    0  0.56796345405E+01 -0.38274269918E+02 -0.47555088666E+02  0.61308038692E+02  0.10566000000E+00 0.  1.
         13    1    4    4    0    0 -0.27518798542E+01  0.19446532938E+02 -0.97344502491E+01  0.21920565042E+02  0.10566000000E+00 0. -1.
        -13    1    4    4    0    0 -0.16647006106E+01  0.66230186194E+01 -0.36124881499E+01  0.77263729152E+01  0.10566000000E+00 0.  1.
         14    1    4    4    0    0 -0.12630540757E+01  0.12204718360E+02 -0.58519880558E+01  0.13593977345E+02  0.00000000000E+00 0. -1.
<mgrwt>
<rscale>  0 0.80463565E+02</rscale>
<asrwt>0</asrwt>
<pdfrwt beam="1">  1        2 0.29073030E-02 0.80463565E+02</pdfrwt>
<pdfrwt beam="2">  1       -1 0.13177151E-01 0.80463565E+02</pdfrwt>
<totfact> 0.12070342E+05</totfact>
</mgrwt>
</event>
<event>
 8    1  0.1226832E-024  0.7971215E+02  0.7818608E-02  0.1329870E+00
          2   -1    0    0  501    0  0.00000000000E+00  0.00000000000E+00  0.41142684358E+02  0.41142684437E+02  0.25500000000E-02 0. -1.
         -1   -1    0    0    0  501 -0.00000000000E+00 -0.00000000000E+00 -0.38609699718E+02  0.38609700047E+02  0.50400000000E-02 0.  1.
         24    2    1    2    0    0  0.00000000000E+00  0.00000000000E+00  0.25329846400E+01  0.79752384484E+02  0.79712149762E+02 0.  0.
         66    2    3    3    0    0 -0.21771031780E+02 -0.19513833236E+02  0.28331527786E+02  0.40760801997E+02  0.20000001041E+01 0.  0.
        -13    1    3    3    0    0  0.21771031780E+02  0.19513833236E+02 -0.25798543146E+02  0.38991582487E+02  0.10566000000E+00 0.  1.
         13    1    4    4    0    0 -0.95910510856E+01 -0.88312604038E+01  0.13341445675E+02  0.18654349572E+02  0.10566000000E+00 0. -1.
        -13    1    4    4    0    0 -0.45796561879E+01 -0.41901390732E+01  0.65414848672E+01  0.90184646451E+01  0.10566000000E+00 0.  1.
         14    1    4    4    0    0 -0.76003245065E+01 -0.64924337586E+01  0.84485972446E+01  0.13087987780E+02  0.00000000000E+00 0. -1.
<mgrwt>
<rscale>  0 0.79712150E+02</rscale>
<asrwt>0</asrwt>
<pdfrwt beam="1">  1        2 0.63296437E-02 0.79712150E+02</pdfrwt>
<pdfrwt beam="2">  1       -1 0.59399539E-02 0.79712150E+02</pdfrwt>
<totfact> 0.14481609E+05</totfact>
</mgrwt>
</event>
<event>
 8    1  0.1226832E-024  0.7769575E+02  0.7818608E-02  0.1335721E+00
         -1   -1    0    0    0  501 -0.00000000000E+00  0.00000000000E+00  0.28833470081E+02  0.28833470522E+02  0.50400000000E-02 0.  1.
          2   -1    0    0  501    0  0.00000000000E+00 -0.00000000000E+00 -0.52340475032E+02  0.52340475094E+02  0.25500000000E-02 0. -1.
         24    2    1    2    0    0  0.35527136788E-14  0.00000000000E+00 -0.23507004951E+02  0.81173945616E+02  0.77695753843E+02 0.  0.
         66    2    3    3    0    0  0.24970519098E+02 -0.19670865415E+01 -0.42749770623E+02  0.49587691514E+02  0.20000019586E+01 0.  0.
        -13    1    3    3    0    0 -0.24970519098E+02  0.19670865415E+01  0.19242765672E+02  0.31586254103E+02  0.10566000000E+00 0.  1.
         13    1    4    4    0    0  0.12557427264E+02 -0.10535276660E+01 -0.23111333725E+02  0.26323825911E+02  0.10566000000E+00 0.  1.
        -13    1    4    4    0    0  0.83179744454E+01 -0.95988134749E+00 -0.13397687713E+02  0.15799344011E+02  0.10566000000E+00 0.  1.
         14    1    4    4    0    0  0.40951173892E+01  0.46322471938E-01 -0.62407491847E+01  0.74645215915E+01  0.00000000000E+00 0. -1.
<mgrwt>
<rscale>  0 0.77695754E+02</rscale>
<asrwt>0</asrwt>
<pdfrwt beam="1">  1        2 0.80523808E-02 0.77695754E+02</pdfrwt>
<pdfrwt beam="2">  1       -1 0.44359185E-02 0.77695754E+02</pdfrwt>
<totfact> 0.16346703E+05</totfact>
</mgrwt>
</event>
<event>
 8    1  0.1226832E-024  0.8048119E+02  0.7818608E-02  0.1327691E+00
         -1   -1    0    0    0  501 -0.00000000000E+00  0.00000000000E+00  0.14116592465E+02  0.14116593365E+02  0.50400000000E-02 0.  1.
          2   -1    0    0  501    0  0.00000000000E+00 -0.00000000000E+00 -0.11470937654E+03  0.11470937656E+03  0.25500000000E-02 0. -1.
         24    2    1    2    0    0 -0.17763568394E-14 -0.17763568394E-14 -0.10059278407E+03  0.12882596993E+03  0.80481192344E+02 0.  0.
         66    2    3    3    0    0  0.88376495198E+01 -0.12437043718E+02 -0.10988783199E+03  0.11095999150E+03  0.19999968529E+01 0.  0.
        -13    1    3    3    0    0 -0.88376495198E+01  0.12437043718E+02  0.92950479216E+01  0.17865978433E+02  0.10566000000E+00 0.  1.
         13    1    4    4    0    0  0.13406026080E+01 -0.14303595222E+01 -0.15416505590E+02  0.15541008731E+02  0.10566000000E+00 0. -1.
        -13    1    4    4    0    0  0.29517860306E+01 -0.56344424966E+01 -0.42547814775E+02  0.43020782061E+02  0.10566000000E+00 0.  1.
        -14    1    4    4    0    0  0.45452608812E+01 -0.53722416990E+01 -0.51923511627E+02  0.52398200704E+02  0.00000000000E+00 0.  1.
<mgrwt>
<rscale>  0 0.80481192E+02</rscale>
<asrwt>0</asrwt>
<pdfrwt beam="1">  1        2 0.17647596E-01 0.80481192E+02</pdfrwt>
<pdfrwt beam="2">  1       -1 0.21717836E-02 0.80481192E+02</pdfrwt>
<totfact> 0.18145261E+05</totfact>
</mgrwt>
</event>
<event>
 8    1  0.1226832E-024  0.8001684E+02  0.7818608E-02  0.1329004E+00
          2   -1    0    0  501    0  0.00000000000E+00  0.00000000000E+00  0.90446282733E+02  0.90446282769E+02  0.25500000000E-02 0. -1.
         -1   -1    0    0    0  501 -0.00000000000E+00 -0.00000000000E+00 -0.17697507533E+02  0.17697508251E+02  0.50400000000E-02 0.  1.
         24    2    1    2    0    0 -0.17763568394E-14  0.00000000000E+00  0.72748775200E+02  0.10814379102E+03  0.80016843496E+02 0.  0.
         66    2    3    3    0    0  0.13925230795E+02 -0.10775615119E+02  0.84913214199E+02  0.86742607079E+02  0.20000008265E+01 0.  0.
        -13    1    3    3    0    0 -0.13925230795E+02  0.10775615119E+02 -0.12164438999E+02  0.21401183941E+02  0.10566000000E+00 0.  1.
         13    1    4    4    0    0  0.83274281593E+01 -0.59214274498E+01  0.50271918534E+02  0.51299964132E+02  0.10566000000E+00 0. -1.
        -13    1    4    4    0    0  0.95509657321E+00 -0.69237666429E+00  0.76078249699E+01  0.76994648982E+01  0.10566000000E+00 0.  1.
         14    1    4    4    0    0  0.46427060630E+01 -0.41618110045E+01  0.27033470695E+02  0.27743178049E+02  0.00000000000E+00 0. -1.
<mgrwt>
<rscale>  0 0.80016843E+02</rscale>
<asrwt>0</asrwt>
<pdfrwt beam="1">  1        2 0.13914813E-01 0.80016843E+02</pdfrwt>
<pdfrwt beam="2">  1       -1 0.27226935E-02 0.80016843E+02</pdfrwt>
<totfact> 0.17233909E+05</totfact>
</mgrwt>
</event>
<event>
 8    1  0.1226832E-024  0.8247043E+02  0.7818608E-02  0.1322183E+00
          2   -1    0    0  501    0  0.00000000000E+00  0.00000000000E+00  0.11805312585E+03  0.11805312588E+03  0.25500000000E-02 0. -1.
         -1   -1    0    0    0  501 -0.00000000000E+00 -0.00000000000E+00 -0.14403201972E+02  0.14403202854E+02  0.50400000000E-02 0.  1.
         24    2    1    2    0    0  0.00000000000E+00  0.00000000000E+00  0.10364992388E+03  0.13245632873E+03  0.82470432889E+02 0.  0.
         66    2    3    3    0    0 -0.17509395867E+02  0.36685967190E+02  0.40974180809E+02  0.57752252098E+02  0.19999992694E+01 0.  0.
        -13    1    3    3    0    0  0.17509395867E+02 -0.36685967190E+02  0.62675743068E+02  0.74704076632E+02  0.10566000000E+00 0.  1.
         13    1    4    4    0    0 -0.99362558074E+01  0.20988752918E+02  0.24287608341E+02  0.33602916711E+02  0.10566000000E+00 0. -1.
        -13    1    4    4    0    0 -0.30474622572E+01  0.55810293581E+01  0.56069988877E+01  0.84784736520E+01  0.10566000000E+00 0.  1.
         14    1    4    4    0    0 -0.45256778021E+01  0.10116184915E+02  0.11079573580E+02  0.15670861735E+02  0.00000000000E+00 0. -1.
<mgrwt>
<rscale>  0 0.82470433E+02</rscale>
<asrwt>0</asrwt>
<pdfrwt beam="1">  1        2 0.18162019E-01 0.82470433E+02</pdfrwt>
<pdfrwt beam="2">  1       -1 0.22158773E-02 0.82470433E+02</pdfrwt>
<totfact> 0.17143950E+05</totfact>
</mgrwt>
</event>
<event>
 8    1  0.1226832E-024  0.8030332E+02  0.7818608E-02  0.1328193E+00
         -1   -1    0    0    0  501 -0.00000000000E+00  0.00000000000E+00  0.63288668527E+02  0.63288668728E+02  0.50400000000E-02 0.  1.
          2   -1    0    0  501    0  0.00000000000E+00 -0.00000000000E+00 -0.25473056167E+02  0.25473056295E+02  0.25500000000E-02 0. -1.
         24    2    1    2    0    0  0.00000000000E+00 -0.35527136788E-14  0.37815612360E+02  0.88761725023E+02  0.80303320547E+02 0.  0.
         66    2    3    3    0    0 -0.28693919414E+02 -0.24090882538E+02  0.30381180775E+01  0.37642287375E+02  0.20000011313E+01 0.  0.
        -13    1    3    3    0    0  0.28693919414E+02  0.24090882538E+02  0.34777494283E+02  0.51119437648E+02  0.10566000000E+00 0.  1.
         13    1    4    4    0    0 -0.62394027900E+01 -0.54818916725E+01  0.15674428690E+00  0.83076480602E+01  0.10566000000E+00 0. -1.
        -13    1    4    4    0    0 -0.73692137225E+01 -0.65083423832E+01  0.15048494242E+01  0.99468370496E+01  0.10566000000E+00 0.  1.
        -14    1    4    4    0    0 -0.15085302902E+02 -0.12100648483E+02  0.13765243665E+01  0.19387802265E+02  0.00000000000E+00 0.  1.
<mgrwt>
<rscale>  0 0.80303321E+02</rscale>
<asrwt>0</asrwt>
<pdfrwt beam="1">  1        2 0.39189317E-02 0.80303321E+02</pdfrwt>
<pdfrwt beam="2">  1       -1 0.97367184E-02 0.80303321E+02</pdfrwt>
<totfact> 0.12889707E+05</totfact>
</mgrwt>
</event>
<event>
 8    1  0.1226832E-024  0.7999170E+02  0.7818608E-02  0.1329075E+00
          2   -1    0    0  501    0  0.00000000000E+00  0.00000000000E+00  0.13809762233E+03  0.13809762235E+03  0.25500000000E-02 0. -1.
         -1   -1    0    0    0  501 -0.00000000000E+00 -0.00000000000E+00 -0.11583603661E+02  0.11583604757E+02  0.50400000000E-02 0.  1.
         24    2    1    2    0    0 -0.35527136788E-14  0.00000000000E+00  0.12651401866E+03  0.14968122711E+03  0.79991704753E+02 0.  0.
         66    2    3    3    0    0 -0.19181491533E+02 -0.10311865213E+01  0.12888680964E+03  0.13032575594E+03  0.19999999966E+01 0.  0.
        -13    1    3    3    0    0  0.19181491533E+02  0.10311865213E+01 -0.23727909711E+01  0.19355471167E+02  0.10566000000E+00 0.  1.
         13    1    4    4    0    0 -0.58132880847E+01 -0.74685229649E+00  0.42639059492E+02  0.43040128544E+02  0.10566000000E+00 0. -1.
        -13    1    4    4    0    0 -0.39862300546E+01  0.33585534447E+00  0.23829832438E+02  0.24163503614E+02  0.10566000000E+00 0.  1.
         14    1    4    4    0    0 -0.93819733935E+01 -0.62018956927E+00  0.62417917705E+02  0.63122123780E+02  0.00000000000E+00 0. -1.
<mgrwt>
<rscale>  0 0.79991705E+02</rscale>
<asrwt>0</asrwt>
<pdfrwt beam="1">  1        2 0.21245789E-01 0.79991705E+02</pdfrwt>
<pdfrwt beam="2">  1       -1 0.17820929E-02 0.79991705E+02</pdfrwt>
<totfact> 0.19515290E+05</totfact>
</mgrwt>
</event>
<event>
 8    1  0.1226832E-024  0.8509279E+02  0.7818608E-02  0.1315190E+00
          2   -1    0    0  501    0  0.00000000000E+00  0.00000000000E+00  0.29477824816E+03  0.29477824817E+03  0.25500000000E-02 0. -1.
         -1   -1    0    0    0  501 -0.00000000000E+00 -0.00000000000E+00 -0.61408722555E+01  0.61408743237E+01  0.50400000000E-02 0.  1.
         24    2    1    2    0    0  0.00000000000E+00 -0.53290705182E-14  0.28863737591E+03  0.30091912250E+03  0.85092793550E+02 0.  0.
         66    2    3    3    0    0  0.37801541619E+02 -0.15530499148E+02  0.18594676916E+03  0.19039525706E+03  0.19999995721E+01 0.  0.
        -13    1    3    3    0    0 -0.37801541619E+02  0.15530499148E+02  0.10269060675E+03  0.11052386544E+03  0.10566000000E+00 0.  1.
         13    1    4    4    0    0  0.13149058376E+02 -0.62182764752E+01  0.63684444130E+02  0.65324453972E+02  0.10566000000E+00 0. -1.
        -13    1    4    4    0    0  0.20562195267E+01 -0.74293182824E+00  0.10338988379E+02  0.10568151739E+02  0.10566000000E+00 0.  1.
         14    1    4    4    0    0  0.22596263716E+02 -0.85692908446E+01  0.11192333665E+03  0.11450265135E+03  0.00000000000E+00 0. -1.
<mgrwt>
<rscale>  0 0.85092794E+02</rscale>
<asrwt>0</asrwt>
<pdfrwt beam="1">  1        2 0.45350503E-01 0.85092794E+02</pdfrwt>
<pdfrwt beam="2">  1       -1 0.94474967E-03 0.85092794E+02</pdfrwt>
<totfact> 0.21536770E+05</totfact>
</mgrwt>
</event>
<event>
 8    1  0.1226832E-024  0.7986800E+02  0.7818608E-02  0.1329426E+00
          2   -1    0    0  501    0  0.00000000000E+00  0.00000000000E+00  0.53646452165E+03  0.53646452165E+03  0.25500000000E-02 0. -1.
         -1   -1    0    0    0  501 -0.00000000000E+00 -0.00000000000E+00 -0.29726539129E+01  0.29726581854E+01  0.50400000000E-02 0.  1.
         24    2    1    2    0    0 -0.35527136788E-14  0.88817841970E-15  0.53349186773E+03  0.53943717984E+03  0.79868003942E+02 0.  0.
         66    2    3    3    0    0  0.25265913081E+02 -0.68662377151E+01  0.47034576787E+03  0.47107818134E+03  0.19999983232E+01 0.  0.
        -13    1    3    3    0    0 -0.25265913081E+02  0.68662377151E+01  0.63146099861E+02  0.68358998500E+02  0.10566000000E+00 0.  1.
         13    1    4    4    0    0  0.12370146927E+01 -0.19573103438E+00  0.26031231396E+02  0.26061555748E+02  0.10566000000E+00 0. -1.
        -13    1    4    4    0    0  0.59347716711E+01 -0.22484706321E+01  0.10659723685E+03  0.10678604405E+03  0.10566000000E+00 0.  1.
         14    1    4    4    0    0  0.18094126717E+02 -0.44220360486E+01  0.33771729962E+03  0.33823058154E+03  0.00000000000E+00 0. -1.
<mgrwt>
<rscale>  0 0.79868004E+02</rscale>
<asrwt>0</asrwt>
<pdfrwt beam="1">  1        2 0.82532992E-01 0.79868004E+02</pdfrwt>
<pdfrwt beam="2">  1       -1 0.45733177E-03 0.79868004E+02</pdfrwt>
<totfact> 0.31261434E+05</totfact>
</mgrwt>
</event>
<event>
 8    1  0.1226832E-024  0.7992809E+02  0.7818608E-02  0.1329256E+00
         -1   -1    0    0    0  501 -0.00000000000E+00  0.00000000000E+00  0.11715579984E+02  0.11715581068E+02  0.50400000000E-02 0.  1.
          2   -1    0    0  501    0  0.00000000000E+00 -0.00000000000E+00 -0.13632487031E+03  0.13632487034E+03  0.25500000000E-02 0. -1.
         24    2    1    2    0    0  0.00000000000E+00  0.35527136788E-14 -0.12460929033E+03  0.14804045140E+03  0.79928092782E+02 0.  0.
         66    2    3    3    0    0  0.95094668325E+01 -0.23048674785E+02 -0.12013152231E+03  0.12270800306E+03  0.19999982281E+01 0.  0.
        -13    1    3    3    0    0 -0.95094668325E+01  0.23048674785E+02 -0.44777680183E+01  0.25332448347E+02  0.10566000000E+00 0.  1.
         13    1    4    4    0    0  0.50900150874E+01 -0.11618559900E+02 -0.57072097384E+02  0.58464815501E+02  0.10566000000E+00 0. -1.
        -13    1    4    4    0    0  0.51255042069E+00 -0.86791165058E+00 -0.50159980490E+01  0.51173605531E+01  0.10566000000E+00 0.  1.
        -14    1    4    4    0    0  0.39069013244E+01 -0.10562203234E+02 -0.58043426878E+02  0.59125827004E+02  0.00000000000E+00 0.  1.
<mgrwt>
<rscale>  0 0.79928093E+02</rscale>
<asrwt>0</asrwt>
<pdfrwt beam="1">  1        2 0.20973056E-01 0.79928093E+02</pdfrwt>
<pdfrwt beam="2">  1       -1 0.18023971E-02 0.79928093E+02</pdfrwt>
<totfact> 0.19477551E+05</totfact>
</mgrwt>
</event>
<event>
 8    1  0.1226832E-024  0.7906418E+02  0.7818608E-02  0.1331728E+00
         -1   -1    0    0    0  501 -0.00000000000E+00  0.00000000000E+00  0.62791017470E+01  0.62791037697E+01  0.50400000000E-02 0.  1.
          2   -1    0    0  501    0  0.00000000000E+00 -0.00000000000E+00 -0.24888686150E+03  0.24888686151E+03  0.25500000000E-02 0. -1.
         24    2    1    2    0    0  0.00000000000E+00  0.00000000000E+00 -0.24260775975E+03  0.25516596528E+03  0.79064181184E+02 0.  0.
         66    2    3    3    0    0 -0.17888271095E+02  0.31787935601E+02 -0.72402606122E+02  0.81096241956E+02  0.19999983893E+01 0.  0.
        -13    1    3    3    0    0  0.17888271095E+02 -0.31787935601E+02 -0.17020515363E+03  0.17406972332E+03  0.10566000000E+00 0.  1.
         13    1    4    4    0    0 -0.10927314433E+01  0.12720415554E+01 -0.33756215258E+01  0.37706944250E+01  0.10566000000E+00 0.  1.
        -13    1    4    4    0    0 -0.99997451314E+01  0.17731295246E+02 -0.41428198663E+02  0.46159511937E+02  0.10566000000E+00 0. -1.
         14    1    4    4    0    0 -0.67957945206E+01  0.12784598799E+02 -0.27598785933E+02  0.31166035594E+02  0.00000000000E+00 0. -1.
<mgrwt>
<rscale>  0 0.79064181E+02</rscale>
<asrwt>0</asrwt>
<pdfrwt beam="1">  1        2 0.38290279E-01 0.79064181E+02</pdfrwt>
<pdfrwt beam="2">  1       -1 0.96601600E-03 0.79064181E+02</pdfrwt>
<totfact> 0.24578549E+05</totfact>
</mgrwt>
</event>
<event>
 8    1  0.1226832E-024  0.7822321E+02  0.7818608E-02  0.1334171E+00
         -1   -1    0    0    0  501 -0.00000000000E+00  0.00000000000E+00  0.11517129354E+02  0.11517130457E+02  0.50400000000E-02 0.  1.
          2   -1    0    0  501    0  0.00000000000E+00 -0.00000000000E+00 -0.13282108069E+03  0.13282108072E+03  0.25500000000E-02 0. -1.
         24    2    1    2    0    0 -0.17763568394E-14  0.00000000000E+00 -0.12130395134E+03  0.14433821117E+03  0.78223210076E+02 0.  0.
         66    2    3    3    0    0  0.15782598176E+02  0.15169314428E+01 -0.12661280166E+03  0.12761736963E+03  0.20000001160E+01 0.  0.
        -13    1    3    3    0    0 -0.15782598176E+02 -0.15169314428E+01  0.53088503218E+01  0.16720841545E+02  0.10566000000E+00 0.  1.
         13    1    4    4    0    0  0.23588994690E+01  0.23181408944E-01 -0.15038265581E+02  0.15222533949E+02  0.10566000000E+00 0. -1.
        -13    1    4    4    0    0  0.40463771220E+01 -0.30274245203E-01 -0.34909653332E+02  0.35143550534E+02  0.10566000000E+00 0.  1.
        -14    1    4    4    0    0  0.93773215855E+01  0.15240242791E+01 -0.76664882748E+02  0.77251285147E+02  0.00000000000E+00 0.  1.
<mgrwt>
<rscale>  0 0.78223210E+02</rscale>
<asrwt>0</asrwt>
<pdfrwt beam="1">  1        2 0.20434011E-01 0.78223210E+02</pdfrwt>
<pdfrwt beam="2">  1       -1 0.17718662E-02 0.78223210E+02</pdfrwt>
<totfact> 0.20459285E+05</totfact>
</mgrwt>
</event>
<event>
 8    1  0.1226832E-024  0.7897472E+02  0.7818608E-02  0.1331986E+00
          2   -1    0    0  501    0  0.00000000000E+00  0.00000000000E+00  0.13362483671E+03  0.13362483673E+03  0.25500000000E-02 0. -1.
         -1   -1    0    0    0  501 -0.00000000000E+00 -0.00000000000E+00 -0.11668874373E+02  0.11668875462E+02  0.50400000000E-02 0.  1.
         24    2    1    2    0    0 -0.35527136788E-14  0.00000000000E+00  0.12195596233E+03  0.14529371219E+03  0.78974717815E+02 0.  0.
         66    2    3    3    0    0  0.17917363721E+02 -0.31819700404E+02  0.88534697666E+02  0.95791011735E+02  0.19999954622E+01 0.  0.
        -13    1    3    3    0    0 -0.17917363721E+02  0.31819700404E+02  0.33421264667E+02  0.49502700457E+02  0.10566000000E+00 0.  1.
         13    1    4    4    0    0  0.78624210730E+01 -0.14780317233E+02  0.39541871246E+02  0.42940030139E+02  0.10566000000E+00 0.  1.
        -13    1    4    4    0    0  0.54281819006E+01 -0.10193634927E+02  0.29403848016E+02  0.31590707398E+02  0.10566000000E+00 0. -1.
        -14    1    4    4    0    0  0.46267607477E+01 -0.68457482443E+01  0.19588978404E+02  0.21260274198E+02  0.00000000000E+00 0.  1.
<mgrwt>
<rscale>  0 0.78974718E+02</rscale>
<asrwt>0</asrwt>
<pdfrwt beam="1">  1        2 0.20557667E-01 0.78974718E+02</pdfrwt>
<pdfrwt beam="2">  1       -1 0.17952116E-02 0.78974718E+02</pdfrwt>
<totfact> 0.19983745E+05</totfact>
</mgrwt>
</event>
<event>
 8    1  0.1226832E-024  0.7930727E+02  0.7818608E-02  0.1331029E+00
         -1   -1    0    0    0  501 -0.00000000000E+00  0.00000000000E+00  0.85479708151E+01  0.85479723009E+01  0.50400000000E-02 0.  1.
          2   -1    0    0  501    0  0.00000000000E+00 -0.00000000000E+00 -0.18395135011E+03  0.18395135013E+03  0.25500000000E-02 0. -1.
         24    2    1    2    0    0  0.00000000000E+00  0.00000000000E+00 -0.17540337930E+03  0.19249932243E+03  0.79307273736E+02 0.  0.
         66    2    3    3    0    0 -0.52827889890E+01  0.31102973362E+02 -0.14596616490E+03  0.14935000532E+03  0.19999957069E+01 0.  0.
        -13    1    3    3    0    0  0.52827889890E+01 -0.31102973362E+02 -0.29437214400E+02  0.43149317111E+02  0.10566000000E+00 0.  1.
         13    1    4    4    0    0 -0.92130375196E+00  0.66103716863E+01 -0.32512566748E+02  0.33190721219E+02  0.10566000000E+00 0. -1.
        -13    1    4    4    0    0 -0.20043250853E+01  0.97648530763E+01 -0.48748581003E+02  0.49757461636E+02  0.10566000000E+00 0.  1.
        -14    1    4    4    0    0 -0.23571601518E+01  0.14727748599E+02 -0.64705017147E+02  0.66401822466E+02  0.00000000000E+00 0.  1.
<mgrwt>
<rscale>  0 0.79307274E+02</rscale>
<asrwt>0</asrwt>
<pdfrwt beam="1">  1        2 0.28300205E-01 0.79307274E+02</pdfrwt>
<pdfrwt beam="2">  1       -1 0.13150727E-02 0.79307274E+02</pdfrwt>
<totfact> 0.21930306E+05</totfact>
</mgrwt>
</event>
<event>
 8    1  0.1226832E-024  0.8024632E+02  0.7818608E-02  0.1328354E+00
         -1   -1    0    0    0  501 -0.00000000000E+00  0.00000000000E+00  0.51812965957E+02  0.51812966202E+02  0.50400000000E-02 0.  1.
          2   -1    0    0  501    0  0.00000000000E+00 -0.00000000000E+00 -0.31070756697E+02  0.31070756802E+02  0.25500000000E-02 0. -1.
         24    2    1    2    0    0 -0.17763568394E-14  0.00000000000E+00  0.20742209260E+02  0.82883723004E+02  0.80246322620E+02 0.  0.
         66    2    3    3    0    0 -0.15434432231E+02 -0.13810418555E+01 -0.27820851944E+02  0.31908130291E+02  0.20000002271E+01 0.  0.
        -13    1    3    3    0    0  0.15434432231E+02  0.13810418555E+01  0.48563061204E+02  0.50975592713E+02  0.10566000000E+00 0.  1.
         13    1    4    4    0    0 -0.21556169841E+01 -0.26629295332E-01 -0.45404369836E+01  0.50273378382E+01  0.10566000000E+00 0. -1.
        -13    1    4    4    0    0 -0.81242835529E+01 -0.45475247956E+00 -0.12819741311E+02  0.15184456341E+02  0.10566000000E+00 0.  1.
        -14    1    4    4    0    0 -0.51545316944E+01 -0.89966008061E+00 -0.10460673649E+02  0.11696336112E+02  0.00000000000E+00 0.  1.
<mgrwt>
<rscale>  0 0.80246323E+02</rscale>
<asrwt>0</asrwt>
<pdfrwt beam="1">  1        2 0.47801165E-02 0.80246323E+02</pdfrwt>
<pdfrwt beam="2">  1       -1 0.79712255E-02 0.80246323E+02</pdfrwt>
<totfact> 0.13432742E+05</totfact>
</mgrwt>
</event>
<event>
 8    1  0.1226832E-024  0.7729735E+02  0.7818608E-02  0.1336901E+00
          2   -1    0    0  501    0  0.00000000000E+00  0.00000000000E+00  0.54919161126E+02  0.54919161185E+02  0.25500000000E-02 0. -1.
         -1   -1    0    0    0  501 -0.00000000000E+00 -0.00000000000E+00 -0.27198525287E+02  0.27198525754E+02  0.50400000000E-02 0.  1.
         24    2    1    2    0    0  0.00000000000E+00  0.00000000000E+00  0.27720635839E+02  0.82117686939E+02  0.77297353493E+02 0.  0.
         66    2    3    3    0    0  0.26848399083E+01 -0.38340261248E+02  0.98198574128E+01  0.39719184252E+02  0.20000000363E+01 0.  0.
        -13    1    3    3    0    0 -0.26848399083E+01  0.38340261248E+02  0.17900778426E+02  0.42398502688E+02  0.10566000000E+00 0.  1.
         13    1    4    4    0    0  0.49809381135E+00 -0.17695880649E+02  0.44516317585E+01  0.18254327671E+02  0.10566000000E+00 0. -1.
        -13    1    4    4    0    0  0.10985978744E+00 -0.35439812556E+00  0.12762772654E+00  0.40634969728E+00  0.10566000000E+00 0.  1.
         14    1    4    4    0    0  0.20768863095E+01 -0.20289982473E+02  0.52405979277E+01  0.21058506883E+02  0.00000000000E+00 0. -1.
<mgrwt>
<rscale>  0 0.77297353E+02</rscale>
<asrwt>0</asrwt>
<pdfrwt beam="1">  1        2 0.84491017E-02 0.77297353E+02</pdfrwt>
<pdfrwt beam="2">  1       -1 0.41843886E-02 0.77297353E+02</pdfrwt>
<totfact> 0.16752617E+05</totfact>
</mgrwt>
</event>
<event>
 8    1  0.1226832E-024  0.8097243E+02  0.7818608E-02  0.1326314E+00
          2   -1    0    0  501    0  0.00000000000E+00  0.00000000000E+00  0.28616897920E+02  0.28616898034E+02  0.25500000000E-02 0. -1.
         -1   -1    0    0    0  501 -0.00000000000E+00 -0.00000000000E+00 -0.57278518470E+02  0.57278518692E+02  0.50400000000E-02 0.  1.
         24    2    1    2    0    0  0.35527136788E-14  0.00000000000E+00 -0.28661620550E+02  0.85895416726E+02  0.80972428159E+02 0.  0.
         66    2    3    3    0    0  0.21783356469E+02  0.13630501225E+02  0.18814846531E+02  0.31910870111E+02  0.19999996340E+01 0.  0.
        -13    1    3    3    0    0 -0.21783356469E+02 -0.13630501225E+02 -0.47476467081E+02  0.53984546615E+02  0.10566000000E+00 0.  1.
         13    1    4    4    0    0  0.12882921970E+02  0.86289996729E+01  0.11798736652E+02  0.19484626362E+02  0.10566000000E+00 0. -1.
        -13    1    4    4    0    0  0.35433087625E+01  0.19952357320E+01  0.22308091014E+01  0.46393615827E+01  0.10566000000E+00 0.  1.
         14    1    4    4    0    0  0.53571257364E+01  0.30062658200E+01  0.47853007778E+01  0.77868821662E+01  0.00000000000E+00 0. -1.
<mgrwt>
<rscale>  0 0.80972428E+02</rscale>
<asrwt>0</asrwt>
<pdfrwt beam="1">  1        2 0.44025997E-02 0.80972428E+02</pdfrwt>
<pdfrwt beam="2">  1       -1 0.88120798E-02 0.80972428E+02</pdfrwt>
<totfact> 0.12885179E+05</totfact>
</mgrwt>
</event>
<event>
 8    1  0.1226832E-024  0.7923124E+02  0.7818608E-02  0.1331247E+00
          2   -1    0    0  501    0  0.00000000000E+00  0.00000000000E+00  0.92054373686E+02  0.92054373722E+02  0.25500000000E-02 0. -1.
         -1   -1    0    0    0  501 -0.00000000000E+00 -0.00000000000E+00 -0.17048591024E+02  0.17048591769E+02  0.50400000000E-02 0.  1.
         24    2    1    2    0    0 -0.17763568394E-14  0.71054273576E-14  0.75005782662E+02  0.10910296549E+03  0.79231241604E+02 0.  0.
         66    2    3    3    0    0  0.12096216242E+02 -0.37292120044E+02  0.45115559583E+02  0.59803297495E+02  0.20000025090E+01 0.  0.
        -13    1    3    3    0    0 -0.12096216242E+02  0.37292120044E+02  0.29890223079E+02  0.49299667996E+02  0.10566000000E+00 0.  1.
         13    1    4    4    0    0  0.27609426085E+01 -0.92009908989E+01  0.10287357251E+02  0.14075578882E+02  0.10566000000E+00 0. -1.
        -13    1    4    4    0    0  0.63788270621E+01 -0.17739964352E+02  0.22842611374E+02  0.29617424404E+02  0.10566000000E+00 0.  1.
        -14    1    4    4    0    0  0.29564465717E+01 -0.10351164793E+02  0.11985590958E+02  0.16110294210E+02  0.00000000000E+00 0.  1.
<mgrwt>
<rscale>  0 0.79231242E+02</rscale>
<asrwt>0</asrwt>
<pdfrwt beam="1">  1        2 0.14162211E-01 0.79231242E+02</pdfrwt>
<pdfrwt beam="2">  1       -1 0.26228602E-02 0.79231242E+02</pdfrwt>
<totfact> 0.17780772E+05</totfact>
</mgrwt>
</event>
<event>
 8    1  0.1226832E-024  0.7822822E+02  0.7818608E-02  0.1334156E+00
         -1   -1    0    0    0  501 -0.00000000000E+00  0.00000000000E+00  0.56103409495E+01  0.56103432133E+01  0.50400000000E-02 0.  1.
          2   -1    0    0  501    0  0.00000000000E+00 -0.00000000000E+00 -0.27269525827E+03  0.27269525829E+03  0.25500000000E-02 0. -1.
         24    2    1    2    0    0  0.35527136788E-14  0.00000000000E+00 -0.26708491732E+03  0.27830560150E+03  0.78228222296E+02 0.  0.
         66    2    3    3    0    0  0.24350927514E+02 -0.19271929143E+02 -0.21808316432E+03  0.22029217301E+03  0.20000013735E+01 0.  0.
        -13    1    3    3    0    0 -0.24350927514E+02  0.19271929143E+02 -0.49001753008E+02  0.58013428494E+02  0.10566000000E+00 0.  1.
         13    1    4    4    0    0  0.11526944665E+02 -0.97941019673E+01 -0.10245419998E+03  0.10356480649E+03  0.10566000000E+00 0. -1.
        -13    1    4    4    0    0  0.87725972852E+01 -0.65650430125E+01 -0.76157172043E+02  0.76941434030E+02  0.10566000000E+00 0.  1.
        -14    1    4    4    0    0  0.40513855647E+01 -0.29127841633E+01 -0.39471792297E+02  0.39785932486E+02  0.00000000000E+00 0.  1.
<mgrwt>
<rscale>  0 0.78228222E+02</rscale>
<asrwt>0</asrwt>
<pdfrwt beam="1">  1        2 0.41953106E-01 0.78228222E+02</pdfrwt>
<pdfrwt beam="2">  1       -1 0.86312976E-03 0.78228222E+02</pdfrwt>
<totfact> 0.26118025E+05</totfact>
</mgrwt>
</event>
<event>
 8    1  0.1226832E-024  0.8330301E+02  0.7818608E-02  0.1319931E+00
         -1   -1    0    0    0  501 -0.00000000000E+00  0.00000000000E+00  0.22885954467E+02  0.22885955022E+02  0.50400000000E-02 0.  1.
          2   -1    0    0  501    0  0.00000000000E+00 -0.00000000000E+00 -0.75804038638E+02  0.75804038681E+02  0.25500000000E-02 0. -1.
         24    2    1    2    0    0 -0.17763568394E-14  0.35527136788E-14 -0.52918084171E+02  0.98689993702E+02  0.83303008497E+02 0.  0.
         66    2    3    3    0    0  0.14828160763E+02 -0.26477122125E+02 -0.60231873299E+02  0.67474372244E+02  0.20000002419E+01 0.  0.
        -13    1    3    3    0    0 -0.14828160763E+02  0.26477122125E+02  0.73137891272E+01  0.31215621459E+02  0.10566000000E+00 0.  1.
         13    1    4    4    0    0  0.10483691942E+02 -0.19604160388E+02 -0.43287907839E+02  0.48662973916E+02  0.10566000000E+00 0. -1.
        -13    1    4    4    0    0  0.36756010505E+01 -0.56123754709E+01 -0.13266158816E+02  0.14866436536E+02  0.10566000000E+00 0.  1.
         14    1    4    4    0    0  0.66886777116E+00 -0.12605862658E+01 -0.36778066435E+01  0.39449617914E+01  0.00000000000E+00 0. -1.
<mgrwt>
<rscale>  0 0.83303008E+02</rscale>
<asrwt>0</asrwt>
<pdfrwt beam="1">  1        2 0.11662160E-01 0.83303008E+02</pdfrwt>
<pdfrwt beam="2">  1       -1 0.35209162E-02 0.83303008E+02</pdfrwt>
<totfact> 0.14760026E+05</totfact>
</mgrwt>
</event>
<event>
 8    1  0.1226832E-024  0.8175688E+02  0.7818608E-02  0.1324138E+00
         -1   -1    0    0    0  501 -0.00000000000E+00  0.00000000000E+00  0.83513727695E+01  0.83513742903E+01  0.50400000000E-02 0.  1.
          2   -1    0    0  501    0  0.00000000000E+00 -0.00000000000E+00 -0.20009246611E+03  0.20009246612E+03  0.25500000000E-02 0. -1.
         24    2    1    2    0    0  0.00000000000E+00  0.00000000000E+00 -0.19174109334E+03  0.20844384041E+03  0.81756881864E+02 0.  0.
         66    2    3    3    0    0 -0.24869400839E+02 -0.83226526054E+01 -0.17579396470E+03  0.17775058838E+03  0.20000002140E+01 0.  0.
        -13    1    3    3    0    0  0.24869400839E+02  0.83226526054E+01 -0.15947128640E+02  0.30693252033E+02  0.10566000000E+00 0.  1.
         13    1    4    4    0    0 -0.25776827635E+01 -0.12296417355E+01 -0.18035190900E+02  0.18260222947E+02  0.10566000000E+00 0.  1.
        -13    1    4    4    0    0 -0.15038894624E+02 -0.54221747233E+01 -0.10562544032E+03  0.10682842850E+03  0.10566000000E+00 0. -1.
        -14    1    4    4    0    0 -0.72528234516E+01 -0.16708361466E+01 -0.52133333479E+02  0.52661936929E+02  0.00000000000E+00 0.  1.
<mgrwt>
<rscale>  0 0.81756882E+02</rscale>
<asrwt>0</asrwt>
<pdfrwt beam="1">  1        2 0.30783453E-01 0.81756882E+02</pdfrwt>
<pdfrwt beam="2">  1       -1 0.12848269E-02 0.81756882E+02</pdfrwt>
<totfact> 0.20831711E+05</totfact>
</mgrwt>
</event>
<event>
 8    1  0.1226832E-024  0.8070861E+02  0.7818608E-02  0.1327052E+00
          2   -1    0    0  501    0  0.00000000000E+00  0.00000000000E+00  0.37269572843E+03  0.37269572844E+03  0.25500000000E-02 0. -1.
         -1   -1    0    0    0  501 -0.00000000000E+00 -0.00000000000E+00 -0.43694337620E+01  0.43694366687E+01  0.50400000000E-02 0.  1.
         24    2    1    2    0    0  0.35527136788E-14  0.00000000000E+00  0.36832629466E+03  0.37706516510E+03  0.80708607927E+02 0.  0.
         66    2    3    3    0    0  0.98431612001E+01  0.24388644025E+02  0.32711570832E+03  0.32817736120E+03  0.19999983534E+01 0.  0.
        -13    1    3    3    0    0 -0.98431612001E+01 -0.24388644025E+02  0.41210586341E+02  0.48887803902E+02  0.10566000000E+00 0.  1.
         13    1    4    4    0    0  0.47287946643E+01  0.10413908216E+02  0.14982694033E+03  0.15026288363E+03  0.10566000000E+00 0. -1.
        -13    1    4    4    0    0  0.25348769606E+01  0.56970193836E+01  0.75403966080E+02  0.75661422771E+02  0.10566000000E+00 0. -1.
        -14    1    4    4    0    0  0.25794895753E+01  0.82777164257E+01  0.10188480191E+03  0.10225305480E+03  0.00000000000E+00 0.  1.
<mgrwt>
<rscale>  0 0.80708608E+02</rscale>
<asrwt>0</asrwt>
<pdfrwt beam="1">  1        2 0.57337804E-01 0.80708608E+02</pdfrwt>
<pdfrwt beam="2">  1       -1 0.67222081E-03 0.80708608E+02</pdfrwt>
<totfact> 0.26929568E+05</totfact>
</mgrwt>
</event>
<event>
 8    1  0.1226832E-024  0.8595480E+02  0.7818608E-02  0.1312954E+00
         -1   -1    0    0    0  501 -0.00000000000E+00  0.00000000000E+00  0.94634671215E+01  0.94634684636E+01  0.50400000000E-02 0.  1.
          2   -1    0    0  501    0  0.00000000000E+00 -0.00000000000E+00 -0.19517759637E+03  0.19517759639E+03  0.25500000000E-02 0. -1.
         24    2    1    2    0    0  0.00000000000E+00  0.00000000000E+00 -0.18571412925E+03  0.20464106485E+03  0.85954799870E+02 0.  0.
         66    2    3    3    0    0 -0.24956839246E+02 -0.35589530172E+01 -0.17570772616E+03  0.17751821031E+03  0.19999969703E+01 0.  0.
        -13    1    3    3    0    0  0.24956839246E+02  0.35589530172E+01 -0.10006403094E+02  0.27122854545E+02  0.10566000000E+00 0.  1.
         13    1    4    4    0    0 -0.75666100308E+01 -0.19320097709E+01 -0.54284812934E+02  0.54843762895E+02  0.10566000000E+00 0. -1.
        -13    1    4    4    0    0 -0.26741054590E+01 -0.57272367643E-01 -0.17932017217E+02  0.18130706706E+02  0.10566000000E+00 0.  1.
         14    1    4    4    0    0 -0.14716123757E+02 -0.15696708787E+01 -0.10349089601E+03  0.10454374071E+03  0.00000000000E+00 0. -1.
<mgrwt>
<rscale>  0 0.85954800E+02</rscale>
<asrwt>0</asrwt>
<pdfrwt beam="1">  1        2 0.30027320E-01 0.85954800E+02</pdfrwt>
<pdfrwt beam="2">  1       -1 0.14559183E-02 0.85954800E+02</pdfrwt>
<totfact> 0.18083552E+05</totfact>
</mgrwt>
</event>
<event>
 8    1  0.1226832E-024  0.8246046E+02  0.7818608E-02  0.1322211E+00
         -1   -1    0    0    0  501 -0.00000000000E+00  0.00000000000E+00  0.69690357839E+01  0.69690376063E+01  0.50400000000E-02 0.  1.
          2   -1    0    0  501    0  0.00000000000E+00 -0.00000000000E+00 -0.24392634648E+03  0.24392634650E+03  0.25500000000E-02 0. -1.
         24    2    1    2    0    0  0.00000000000E+00  0.88817841970E-15 -0.23695731070E+03  0.25089538410E+03  0.82460455191E+02 0.  0.
         66    2    3    3    0    0 -0.20775184622E+02 -0.69191964946E+01 -0.22475428326E+03  0.22582730442E+03  0.20000006284E+01 0.  0.
        -13    1    3    3    0    0  0.20775184622E+02  0.69191964946E+01 -0.12203027441E+02  0.25068079683E+02  0.10566000000E+00 0.  1.
         13    1    4    4    0    0 -0.10536191185E+02 -0.37745494490E+01 -0.12365418374E+03  0.12415968294E+03  0.10566000000E+00 0. -1.
        -13    1    4    4    0    0 -0.98521609750E+00 -0.15981761618E+00 -0.92113302408E+01  0.92658491931E+01  0.10566000000E+00 0.  1.
         14    1    4    4    0    0 -0.92537773401E+01 -0.29848294294E+01 -0.91888769280E+02  0.92401772286E+02  0.00000000000E+00 0. -1.
<mgrwt>
<rscale>  0 0.82460455E+02</rscale>
<asrwt>0</asrwt>
<pdfrwt beam="1">  1        2 0.37527124E-01 0.82460455E+02</pdfrwt>
<pdfrwt beam="2">  1       -1 0.10721597E-02 0.82460455E+02</pdfrwt>
<totfact> 0.21844814E+05</totfact>
</mgrwt>
</event>
<event>
 8    1  0.1226832E-024  0.7922877E+02  0.7818608E-02  0.1331254E+00
         -1   -1    0    0    0  501 -0.00000000000E+00  0.00000000000E+00  0.66562263875E+01  0.66562282956E+01  0.50400000000E-02 0.  1.
          2   -1    0    0  501    0  0.00000000000E+00 -0.00000000000E+00 -0.23576412354E+03  0.23576412356E+03  0.25500000000E-02 0. -1.
         24    2    1    2    0    0  0.00000000000E+00  0.17763568394E-14 -0.22910789715E+03  0.24242035185E+03  0.79228772887E+02 0.  0.
         66    2    3    3    0    0 -0.18400029677E+02 -0.10188832153E+02 -0.21725033415E+03  0.21827524143E+03  0.19999851146E+01 0.  0.
        -13    1    3    3    0    0  0.18400029677E+02  0.10188832153E+02 -0.11857563003E+02  0.24145110420E+02  0.10566000000E+00 0.  1.
         13    1    4    4    0    0 -0.51502524966E+01 -0.29139062114E+01 -0.54192513531E+02  0.54514728625E+02  0.10566000000E+00 0. -1.
        -13    1    4    4    0    0 -0.51515732122E+00 -0.21405696377E+00 -0.81906438422E+01  0.82102995094E+01  0.10566000000E+00 0.  1.
         14    1    4    4    0    0 -0.12734619859E+02 -0.70608689782E+01 -0.15486717678E+03  0.15555021330E+03  0.00000000000E+00 0. -1.
<mgrwt>
<rscale>  0 0.79228773E+02</rscale>
<asrwt>0</asrwt>
<pdfrwt beam="1">  1        2 0.36271397E-01 0.79228773E+02</pdfrwt>
<pdfrwt beam="2">  1       -1 0.10240352E-02 0.79228773E+02</pdfrwt>
<totfact> 0.23976905E+05</totfact>
</mgrwt>
</event>
<event>
 8    1  0.1226832E-024  0.8013145E+02  0.7818608E-02  0.1328679E+00
         -1   -1    0    0    0  501 -0.00000000000E+00  0.00000000000E+00  0.44701659853E+01  0.44701688266E+01  0.50400000000E-02 0.  1.
          2   -1    0    0  501    0  0.00000000000E+00 -0.00000000000E+00 -0.35910564908E+03  0.35910564909E+03  0.25500000000E-02 0. -1.
         24    2    1    2    0    0 -0.88817841970E-15 -0.71054273576E-14 -0.35463548310E+03  0.36357581792E+03  0.80131451399E+02 0.  0.
         66    2    3    3    0    0 -0.68659277411E+01 -0.38526780993E+02 -0.21587512382E+03  0.21940265020E+03  0.20000038988E+01 0.  0.
        -13    1    3    3    0    0  0.68659277411E+01  0.38526780993E+02 -0.13876035928E+03  0.14417316771E+03  0.10566000000E+00 0.  1.
         13    1    4    4    0    0 -0.40916535310E+01 -0.20971959453E+02 -0.12064509786E+03  0.12252271427E+03  0.10566000000E+00 0. -1.
        -13    1    4    4    0    0 -0.86014516877E+00 -0.58827705920E+01 -0.29289958776E+02  0.29887450354E+02  0.10566000000E+00 0.  1.
        -14    1    4    4    0    0 -0.19141290414E+01 -0.11672050948E+02 -0.65940067183E+02  0.66992485574E+02  0.00000000000E+00 0.  1.
<mgrwt>
<rscale>  0 0.80131451E+02</rscale>
<asrwt>0</asrwt>
<pdfrwt beam="1">  1        2 0.55247000E-01 0.80131451E+02</pdfrwt>
<pdfrwt beam="2">  1       -1 0.68771835E-03 0.80131451E+02</pdfrwt>
<totfact> 0.27080813E+05</totfact>
</mgrwt>
</event>
<event>
 8    1  0.1226832E-024  0.8009618E+02  0.7818608E-02  0.1328779E+00
         -1   -1    0    0    0  501 -0.00000000000E+00  0.00000000000E+00  0.34173472166E+02  0.34173472538E+02  0.50400000000E-02 0.  1.
          2   -1    0    0  501    0  0.00000000000E+00 -0.00000000000E+00 -0.46932589179E+02  0.46932589248E+02  0.25500000000E-02 0. -1.
         24    2    1    2    0    0  0.17763568394E-14  0.17763568394E-14 -0.12759117012E+02  0.81106061786E+02  0.80096180879E+02 0.  0.
         66    2    3    3    0    0 -0.11022079046E+02 -0.11328314194E+02 -0.43617061998E+02  0.46435600847E+02  0.19999999375E+01 0.  0.
        -13    1    3    3    0    0  0.11022079046E+02  0.11328314194E+02  0.30857944985E+02  0.34670460939E+02  0.10566000000E+00 0.  1.
         13    1    4    4    0    0 -0.15635899639E+01 -0.10914996916E+01 -0.67529756935E+01  0.70178365544E+01  0.10566000000E+00 0.  1.
        -13    1    4    4    0    0 -0.36972511432E+01 -0.38979543432E+01 -0.15187882026E+02  0.16110451222E+02  0.10566000000E+00 0. -1.
        -14    1    4    4    0    0 -0.57612379384E+01 -0.63388601592E+01 -0.21676204278E+02  0.23307313071E+02  0.00000000000E+00 0.  1.
<mgrwt>
<rscale>  0 0.80096181E+02</rscale>
<asrwt>0</asrwt>
<pdfrwt beam="1">  1        2 0.72203984E-02 0.80096181E+02</pdfrwt>
<pdfrwt beam="2">  1       -1 0.52574573E-02 0.80096181E+02</pdfrwt>
<totfact> 0.14691796E+05</totfact>
</mgrwt>
</event>
<event>
 8    1  0.1226832E-024  0.7831000E+02  0.7818608E-02  0.1333917E+00
         -1   -1    0    0    0  501 -0.00000000000E+00  0.00000000000E+00  0.44981802714E+01  0.44981830950E+01  0.50400000000E-02 0.  1.
          2   -1    0    0  501    0  0.00000000000E+00 -0.00000000000E+00 -0.34082975335E+03  0.34082975335E+03  0.25500000000E-02 0. -1.
         24    2    1    2    0    0  0.00000000000E+00  0.00000000000E+00 -0.33633157307E+03  0.34532793645E+03  0.78310003488E+02 0.  0.
         66    2    3    3    0    0  0.32207477269E+02 -0.63293080799E+01 -0.26220683393E+03  0.26426086638E+03  0.20000016923E+01 0.  0.
        -13    1    3    3    0    0 -0.32207477269E+02  0.63293080799E+01 -0.74124739147E+02  0.81067070074E+02  0.10566000000E+00 0.  1.
         13    1    4    4    0    0  0.13010606573E+02 -0.27810213425E+01 -0.10974393935E+03  0.11054751626E+03  0.10566000000E+00 0. -1.
        -13    1    4    4    0    0  0.11490247591E+02 -0.25518809471E+01 -0.87966599284E+02  0.88750614869E+02  0.10566000000E+00 0.  1.
        -14    1    4    4    0    0  0.77066231044E+01 -0.99640579033E+00 -0.64496295296E+02  0.64962735249E+02  0.00000000000E+00 0.  1.
<mgrwt>
<rscale>  0 0.78310003E+02</rscale>
<asrwt>0</asrwt>
<pdfrwt beam="1">  1        2 0.52435326E-01 0.78310003E+02</pdfrwt>
<pdfrwt beam="2">  1       -1 0.69202822E-03 0.78310003E+02</pdfrwt>
<totfact> 0.28227464E+05</totfact>
</mgrwt>
</event>
<event>
 8    1  0.1226832E-024  0.7874500E+02  0.7818608E-02  0.1332651E+00
          2   -1    0    0  501    0  0.00000000000E+00  0.00000000000E+00  0.64682304472E+03  0.64682304473E+03  0.25500000000E-02 0. -1.
         -1   -1    0    0    0  501 -0.00000000000E+00 -0.00000000000E+00 -0.23966245610E+01  0.23966298605E+01  0.50400000000E-02 0.  1.
         24    2    1    2    0    0  0.00000000000E+00  0.71054273576E-14  0.64442642016E+03  0.64921967459E+03  0.78744999016E+02 0.  0.
         66    2    3    3    0    0 -0.17535368758E+01  0.22120243690E+02  0.59031344899E+03  0.59073373709E+03  0.20000000847E+01 0.  0.
        -13    1    3    3    0    0  0.17535368758E+01 -0.22120243690E+02  0.54112971171E+02  0.58485937502E+02  0.10566000000E+00 0.  1.
         13    1    4    4    0    0  0.14590678359E+00  0.22212570650E+01  0.54238817671E+02  0.54284581403E+02  0.10566000000E+00 0. -1.
        -13    1    4    4    0    0  0.86382787295E-01  0.20955526663E+00  0.57781806777E+01  0.57835898346E+01  0.10566000000E+00 0.  1.
         14    1    4    4    0    0 -0.19858264467E+01  0.19689431358E+02  0.53029645064E+03  0.53066556585E+03  0.00000000000E+00 0. -1.
<mgrwt>
<rscale>  0 0.78744999E+02</rscale>
<asrwt>0</asrwt>
<pdfrwt beam="1">  1        2 0.99511346E-01 0.78744999E+02</pdfrwt>
<pdfrwt beam="2">  1       -1 0.36871148E-03 0.78744999E+02</pdfrwt>
<totfact> 0.34192832E+05</totfact>
</mgrwt>
</event>
<event>
 8    1  0.1226832E-024  0.8020056E+02  0.7818608E-02  0.1328483E+00
         -1   -1    0    0    0  501 -0.00000000000E+00  0.00000000000E+00  0.32829482393E+02  0.32829482779E+02  0.50400000000E-02 0.  1.
          2   -1    0    0  501    0  0.00000000000E+00 -0.00000000000E+00 -0.48981355084E+02  0.48981355150E+02  0.25500000000E-02 0. -1.
         24    2    1    2    0    0 -0.35527136788E-14  0.00000000000E+00 -0.16151872691E+02  0.81810837929E+02  0.80200562413E+02 0.  0.
         66    2    3    3    0    0  0.21879140919E+02 -0.50821262397E+01 -0.41936210120E+02  0.47614814255E+02  0.20000007028E+01 0.  0.
        -13    1    3    3    0    0 -0.21879140919E+02  0.50821262397E+01  0.25784337429E+02  0.34196023675E+02  0.10566000000E+00 0.  1.
         13    1    4    4    0    0  0.13700628301E+02 -0.35683381525E+01 -0.26392156905E+02  0.29949914243E+02  0.10566000000E+00 0.  1.
        -13    1    4    4    0    0  0.36580945652E+01 -0.12342376433E+01 -0.72986812899E+01  0.82575366191E+01  0.10566000000E+00 0. -1.
        -14    1    4    4    0    0  0.45204180530E+01 -0.27955044382E+00 -0.82453719246E+01  0.94073633925E+01  0.00000000000E+00 0.  1.
<mgrwt>
<rscale>  0 0.80200562E+02</rscale>
<asrwt>0</asrwt>
<pdfrwt beam="1">  1        2 0.75355931E-02 0.80200562E+02</pdfrwt>
<pdfrwt beam="2">  1       -1 0.50506896E-02 0.80200562E+02</pdfrwt>
<totfact> 0.14774616E+05</totfact>
</mgrwt>
</event>
<event>
 8    1  0.1226832E-024  0.7689314E+02  0.7818608E-02  0.1338107E+00
         -1   -1    0    0    0  501 -0.00000000000E+00  0.00000000000E+00  0.13576587786E+01  0.13576681335E+01  0.50400000000E-02 0.  1.
          2   -1    0    0  501    0  0.00000000000E+00 -0.00000000000E+00 -0.10887372382E+04  0.10887372382E+04  0.25500000000E-02 0. -1.
         24    2    1    2    0    0 -0.17763568394E-14 -0.35527136788E-14 -0.10873795795E+04  0.10900949064E+04  0.76893140644E+02 0.  0.
         66    2    3    3    0    0  0.12856630755E+02  0.12591469594E+02 -0.10252932394E+04  0.10254531022E+04  0.19999973359E+01 0.  0.
        -13    1    3    3    0    0 -0.12856630755E+02 -0.12591469594E+02 -0.62086340030E+02  0.64641804146E+02  0.10566000000E+00 0.  1.
         13    1    4    4    0    0  0.27351970406E+00  0.22606139536E+00 -0.34845723804E+02  0.34847690716E+02  0.10566000000E+00 0.  1.
        -13    1    4    4    0    0  0.92869937276E+01  0.95525288523E+01 -0.77121944041E+03  0.77133451594E+03  0.10566000000E+00 0. -1.
         14    1    4    4    0    0  0.32961173230E+01  0.28128793462E+01 -0.21922807521E+03  0.21927089556E+03  0.00000000000E+00 0. -1.
<mgrwt>
<rscale>  0 0.76893141E+02</rscale>
<asrwt>0</asrwt>
<pdfrwt beam="1">  1        2 0.16749734E+00 0.76893141E+02</pdfrwt>
<pdfrwt beam="2">  1       -1 0.20887217E-03 0.76893141E+02</pdfrwt>
<totfact> 0.39072475E+05</totfact>
</mgrwt>
</event>
<event>
 8    1  0.1226832E-024  0.8137617E+02  0.7818608E-02  0.1325191E+00
         -1   -1    0    0    0  501 -0.00000000000E+00  0.00000000000E+00  0.15586220569E+02  0.15586221384E+02  0.50400000000E-02 0.  1.
          2   -1    0    0  501    0  0.00000000000E+00 -0.00000000000E+00 -0.10621691378E+03  0.10621691381E+03  0.25500000000E-02 0. -1.
         24    2    1    2    0    0  0.35527136788E-14  0.00000000000E+00 -0.90630693213E+02  0.12180313520E+03  0.81376170905E+02 0.  0.
         66    2    3    3    0    0 -0.31134345138E+02  0.12021093698E+02 -0.80114012613E+02  0.86810766374E+02  0.20000001535E+01 0.  0.
        -13    1    3    3    0    0  0.31134345138E+02 -0.12021093698E+02 -0.10516680600E+02  0.34992368821E+02  0.10566000000E+00 0.  1.
         13    1    4    4    0    0 -0.17409969082E+02  0.73377299326E+01 -0.44210164740E+02  0.48078052523E+02  0.10566000000E+00 0. -1.
        -13    1    4    4    0    0 -0.11049268482E+02  0.34253719084E+01 -0.29031979574E+02  0.31251984077E+02  0.10566000000E+00 0.  1.
         14    1    4    4    0    0 -0.26751075742E+01  0.12579918567E+01 -0.68718682987E+01  0.74807297745E+01  0.00000000000E+00 0. -1.
<mgrwt>
<rscale>  0 0.81376171E+02</rscale>
<asrwt>0</asrwt>
<pdfrwt beam="1">  1        2 0.16341063E-01 0.81376171E+02</pdfrwt>
<pdfrwt beam="2">  1       -1 0.23978802E-02 0.81376171E+02</pdfrwt>
<totfact> 0.17226184E+05</totfact>
</mgrwt>
</event>
<event>
 8    1  0.1226832E-024  0.7867617E+02  0.7818608E-02  0.1332851E+00
         -1   -1    0    0    0  501 -0.00000000000E+00  0.00000000000E+00  0.47241080198E+02  0.47241080467E+02  0.50400000000E-02 0.  1.
          2   -1    0    0  501    0  0.00000000000E+00 -0.00000000000E+00 -0.32757185450E+02  0.32757185549E+02  0.25500000000E-02 0. -1.
         24    2    1    2    0    0  0.00000000000E+00  0.00000000000E+00  0.14483894748E+02  0.79998266017E+02  0.78676167666E+02 0.  0.
         66    2    3    3    0    0  0.30404449731E+02 -0.24206574995E+02  0.13269930184E+02  0.41115445769E+02  0.19999993028E+01 0.  0.
        -13    1    3    3    0    0 -0.30404449731E+02  0.24206574995E+02  0.12139645637E+01  0.38882820248E+02  0.10566000000E+00 0.  1.
         13    1    4    4    0    0  0.17419231424E+02 -0.14808544858E+02  0.72240827792E+01  0.23977513638E+02  0.10566000000E+00 0. -1.
        -13    1    4    4    0    0  0.49497563765E+01 -0.37091864906E+01  0.21358338406E+01  0.65445475656E+01  0.10566000000E+00 0.  1.
        -14    1    4    4    0    0  0.80354619299E+01 -0.56888436472E+01  0.39100135645E+01  0.10593384565E+02  0.00000000000E+00 0.  1.
<mgrwt>
<rscale>  0 0.78676168E+02</rscale>
<asrwt>0</asrwt>
<pdfrwt beam="1">  1        2 0.50395670E-02 0.78676168E+02</pdfrwt>
<pdfrwt beam="2">  1       -1 0.72678585E-02 0.78676168E+02</pdfrwt>
<totfact> 0.14343307E+05</totfact>
</mgrwt>
</event>
<event>
 8    1  0.1226832E-024  0.7936819E+02  0.7818608E-02  0.1330854E+00
          2   -1    0    0  501    0  0.00000000000E+00  0.00000000000E+00  0.39691560729E+02  0.39691560811E+02  0.25500000000E-02 0. -1.
         -1   -1    0    0    0  501 -0.00000000000E+00 -0.00000000000E+00 -0.39676630130E+02  0.39676630450E+02  0.50400000000E-02 0.  1.
         24    2    1    2    0    0 -0.35527136788E-14  0.17763568394E-14  0.14930599161E-01  0.79368191260E+02  0.79368189856E+02 0.  0.
         66    2    3    3    0    0  0.26906376503E+02 -0.84976727625E+01  0.27876071211E+02  0.39714466856E+02  0.19999981472E+01 0.  0.
        -13    1    3    3    0    0 -0.26906376503E+02  0.84976727625E+01 -0.27861140612E+02  0.39653724404E+02  0.10566000000E+00 0.  1.
         13    1    4    4    0    0  0.25120982392E+01 -0.88401669252E+00  0.25717623471E+01  0.37036804238E+01  0.10566000000E+00 0. -1.
        -13    1    4    4    0    0  0.12545531102E+02 -0.40161244239E+01  0.14329221832E+02  0.19464258742E+02  0.10566000000E+00 0.  1.
        -14    1    4    4    0    0  0.11848747162E+02 -0.35975316461E+01  0.10975087032E+02  0.16546527691E+02  0.00000000000E+00 0.  1.
<mgrwt>
<rscale>  0 0.79368190E+02</rscale>
<asrwt>0</asrwt>
<pdfrwt beam="1">  1        2 0.61063939E-02 0.79368190E+02</pdfrwt>
<pdfrwt beam="2">  1       -1 0.61040970E-02 0.79368190E+02</pdfrwt>
<totfact> 0.14547937E+05</totfact>
</mgrwt>
</event>
<event>
 8    1  0.1226832E-024  0.8043866E+02  0.7818608E-02  0.1327811E+00
          2   -1    0    0  501    0  0.00000000000E+00  0.00000000000E+00  0.13126985244E+04  0.13126985244E+04  0.25500000000E-02 0. -1.
         -1   -1    0    0    0  501 -0.00000000000E+00 -0.00000000000E+00 -0.12322613980E+01  0.12322717049E+01  0.50400000000E-02 0.  1.
         24    2    1    2    0    0  0.00000000000E+00  0.00000000000E+00  0.13114662630E+04  0.13139307961E+04  0.80438659652E+02 0.  0.
         66    2    3    3    0    0 -0.25335551360E+02  0.44792643424E+00  0.11657912848E+04  0.11660683559E+04  0.19999988000E+01 0.  0.
        -13    1    3    3    0    0  0.25335551360E+02 -0.44792643424E+00  0.14567497815E+03  0.14786244021E+03  0.10566000000E+00 0.  1.
         13    1    4    4    0    0 -0.23806428725E+01  0.34833010581E+00  0.91770174324E+02  0.91801769339E+02  0.10566000000E+00 0. -1.
        -13    1    4    4    0    0 -0.15419599632E+02 -0.22830705291E+00  0.72258815974E+03  0.72275270732E+03  0.10566000000E+00 0.  1.
         14    1    4    4    0    0 -0.75353088558E+01  0.32790338134E+00  0.35143295075E+03  0.35151387921E+03  0.00000000000E+00 0. -1.
<mgrwt>
<rscale>  0 0.80438660E+02</rscale>
<asrwt>0</asrwt>
<pdfrwt beam="1">  1        2 0.20195383E+00 0.80438660E+02</pdfrwt>
<pdfrwt beam="2">  1       -1 0.18957927E-03 0.80438660E+02</pdfrwt>
<totfact> 0.34062627E+05</totfact>
</mgrwt>
</event>
<event>
 8    1  0.1226832E-024  0.7961529E+02  0.7818608E-02  0.1330147E+00
          2   -1    0    0  501    0  0.00000000000E+00  0.00000000000E+00  0.15538235208E+04  0.15538235208E+04  0.25500000000E-02 0. -1.
         -1   -1    0    0    0  501 -0.00000000000E+00 -0.00000000000E+00 -0.10198318914E+01  0.10198443452E+01  0.50400000000E-02 0.  1.
         24    2    1    2    0    0 -0.88817841970E-15  0.00000000000E+00  0.15528036889E+04  0.15548433651E+04  0.79615286562E+02 0.  0.
         66    2    3    3    0    0  0.43246788404E+01  0.14049553081E+02  0.14988336784E+04  0.14989070980E+04  0.20000019982E+01 0.  0.
        -13    1    3    3    0    0 -0.43246788404E+01 -0.14049553081E+02  0.53970010481E+02  0.55936267164E+02  0.10566000000E+00 0.  1.
         13    1    4    4    0    0  0.36820280966E+01  0.10458613379E+02  0.11535579999E+04  0.11536112908E+04  0.10566000000E+00 0. -1.
        -13    1    4    4    0    0  0.57403588673E+00  0.33571185716E+01  0.33459003597E+03  0.33460738649E+03  0.10566000000E+00 0.  1.
        -14    1    4    4    0    0  0.68614857121E-01  0.23382113019E+00  0.10685642513E+02  0.10688420661E+02  0.00000000000E+00 0.  1.
<mgrwt>
<rscale>  0 0.79615287E+02</rscale>
<asrwt>0</asrwt>
<pdfrwt beam="1">  1        2 0.23904923E+00 0.79615287E+02</pdfrwt>
<pdfrwt beam="2">  1       -1 0.15689853E-03 0.79615287E+02</pdfrwt>
<totfact> 0.33196582E+05</totfact>
</mgrwt>
</event>
<event>
 8    1  0.1226832E-024  0.8229785E+02  0.7818608E-02  0.1322654E+00
         -1   -1    0    0    0  501 -0.00000000000E+00  0.00000000000E+00  0.35612513810E+01  0.35612549474E+01  0.50400000000E-02 0.  1.
          2   -1    0    0  501    0  0.00000000000E+00 -0.00000000000E+00 -0.47546016521E+03  0.47546016522E+03  0.25500000000E-02 0. -1.
         24    2    1    2    0    0  0.00000000000E+00  0.71054273576E-14 -0.47189891383E+03  0.47902142017E+03  0.82297849930E+02 0.  0.
         66    2    3    3    0    0 -0.27222018184E+02  0.30020638057E+02 -0.27681255270E+03  0.27977038141E+03  0.19999991965E+01 0.  0.
        -13    1    3    3    0    0  0.27222018184E+02 -0.30020638057E+02 -0.19508636113E+03  0.19925103876E+03  0.10566000000E+00 0.  1.
         13    1    4    4    0    0 -0.66709084059E+01  0.69544767837E+01 -0.63867069211E+02  0.64590087939E+02  0.10566000000E+00 0. -1.
        -13    1    4    4    0    0 -0.19846582350E+01  0.25878505642E+01 -0.25395142921E+02  0.25603911554E+02  0.10566000000E+00 0.  1.
        -14    1    4    4    0    0 -0.18566451543E+02  0.20478310709E+02 -0.18755034057E+03  0.18957638192E+03  0.00000000000E+00 0.  1.
<mgrwt>
<rscale>  0 0.82297850E+02</rscale>
<asrwt>0</asrwt>
<pdfrwt beam="1">  1        2 0.73147667E-01 0.82297850E+02</pdfrwt>
<pdfrwt beam="2">  1       -1 0.54788548E-03 0.82297850E+02</pdfrwt>
<totfact> 0.27824858E+05</totfact>
</mgrwt>
</event>
<event>
 8    1  0.1226832E-024  0.7996649E+02  0.7818608E-02  0.1329147E+00
          2   -1    0    0  501    0  0.00000000000E+00  0.00000000000E+00  0.44094201179E+02  0.44094201252E+02  0.25500000000E-02 0. -1.
         -1   -1    0    0    0  501 -0.00000000000E+00 -0.00000000000E+00 -0.36255559789E+02  0.36255560139E+02  0.50400000000E-02 0.  1.
         24    2    1    2    0    0  0.00000000000E+00 -0.35527136788E-14  0.78386413898E+01  0.80349761392E+02  0.79966492088E+02 0.  0.
         66    2    3    3    0    0 -0.14127853313E+02 -0.97519837351E+01  0.40177354310E+02  0.43736909230E+02  0.20000009143E+01 0.  0.
        -13    1    3    3    0    0  0.14127853313E+02  0.97519837351E+01 -0.32338712920E+02  0.36612852161E+02  0.10566000000E+00 0.  1.
         13    1    4    4    0    0 -0.29579013748E-02 -0.13023698825E+00  0.40900038498E+00  0.44205856264E+00  0.10566000000E+00 0.  1.
        -13    1    4    4    0    0 -0.49335496349E+01 -0.37943698313E+01  0.15077787800E+02  0.16312204124E+02  0.10566000000E+00 0.  1.
         14    1    4    4    0    0 -0.91913457767E+01 -0.58273769155E+01  0.24690566126E+02  0.26982646544E+02  0.00000000000E+00 0. -1.
<mgrwt>
<rscale>  0 0.79966492E+02</rscale>
<asrwt>0</asrwt>
<pdfrwt beam="1">  1        2 0.67837233E-02 0.79966492E+02</pdfrwt>
<pdfrwt beam="2">  1       -1 0.55777784E-02 0.79966492E+02</pdfrwt>
<totfact> 0.14563552E+05</totfact>
</mgrwt>
</event>
<event>
 8    1  0.1226832E-024  0.7669079E+02  0.7818608E-02  0.1338714E+00
          2   -1    0    0  501    0  0.00000000000E+00  0.00000000000E+00  0.13320653389E+03  0.13320653392E+03  0.25500000000E-02 0. -1.
         -1   -1    0    0    0  501 -0.00000000000E+00 -0.00000000000E+00 -0.11038267207E+02  0.11038268358E+02  0.50400000000E-02 0.  1.
         24    2    1    2    0    0  0.17763568394E-14  0.00000000000E+00  0.12216826669E+03  0.14424480228E+03  0.76690792136E+02 0.  0.
         66    2    3    3    0    0  0.11749294096E+02  0.26381309635E+02  0.10849734463E+03  0.11229289023E+03  0.19999983144E+01 0.  0.
        -13    1    3    3    0    0 -0.11749294096E+02 -0.26381309635E+02  0.13670922054E+02  0.31951912050E+02  0.10566000000E+00 0.  1.
         13    1    4    4    0    0  0.35448329175E+01  0.69930808201E+01  0.27972476182E+02  0.29050638677E+02  0.10566000000E+00 0. -1.
        -13    1    4    4    0    0  0.66698217903E+01  0.14407455922E+02  0.61524214631E+02  0.63539762817E+02  0.10566000000E+00 0.  1.
         14    1    4    4    0    0  0.15346393884E+01  0.49807728924E+01  0.19000653819E+02  0.19702488731E+02  0.00000000000E+00 0. -1.
<mgrwt>
<rscale>  0 0.76690792E+02</rscale>
<asrwt>0</asrwt>
<pdfrwt beam="1">  1        2 0.20493312E-01 0.76690792E+02</pdfrwt>
<pdfrwt beam="2">  1       -1 0.16981951E-02 0.76690792E+02</pdfrwt>
<totfact> 0.21580183E+05</totfact>
</mgrwt>
</event>
<event>
 8    1  0.1226832E-024  0.7681646E+02  0.7818608E-02  0.1338337E+00
         -1   -1    0    0    0  501 -0.00000000000E+00  0.00000000000E+00  0.82048815251E+02  0.82048815405E+02  0.50400000000E-02 0.  1.
          2   -1    0    0  501    0  0.00000000000E+00 -0.00000000000E+00 -0.17979446556E+02  0.17979446736E+02  0.25500000000E-02 0. -1.
         24    2    1    2    0    0  0.00000000000E+00 -0.88817841970E-15  0.64069368695E+02  0.10002826214E+03  0.76816464525E+02 0.  0.
         66    2    3    3    0    0  0.35280804583E+02 -0.52834628573E+01  0.50496552202E+02  0.61859129805E+02  0.20000010385E+01 0.  0.
        -13    1    3    3    0    0 -0.35280804583E+02  0.52834628573E+01  0.13572816493E+02  0.38169132337E+02  0.10566000000E+00 0.  1.
         13    1    4    4    0    0  0.50582199383E+01 -0.89488138063E+00  0.64872425134E+01  0.82753780030E+01  0.10566000000E+00 0. -1.
        -13    1    4    4    0    0  0.11206541139E+01 -0.27251936233E+00  0.13380458750E+01  0.17696505997E+01  0.10566000000E+00 0.  1.
         14    1    4    4    0    0  0.29101930530E+02 -0.41160621143E+01  0.42671263814E+02  0.51814101202E+02  0.00000000000E+00 0. -1.
<mgrwt>
<rscale>  0 0.76816465E+02</rscale>
<asrwt>0</asrwt>
<pdfrwt beam="1">  1        2 0.27660688E-02 0.76816465E+02</pdfrwt>
<pdfrwt beam="2">  1       -1 0.12622894E-01 0.76816465E+02</pdfrwt>
<totfact> 0.13656180E+05</totfact>
</mgrwt>
</event>
<event>
 8    1  0.1226832E-024  0.7941101E+02  0.7818608E-02  0.1330731E+00
         -1   -1    0    0    0  501 -0.00000000000E+00  0.00000000000E+00  0.66256252869E+02  0.66256253061E+02  0.50400000000E-02 0.  1.
          2   -1    0    0  501    0  0.00000000000E+00 -0.00000000000E+00 -0.23794388287E+02  0.23794388424E+02  0.25500000000E-02 0. -1.
         24    2    1    2    0    0  0.71054273576E-14  0.00000000000E+00  0.42461864582E+02  0.90050641484E+02  0.79411007348E+02 0.  0.
         66    2    3    3    0    0  0.25190492379E+02  0.30572452661E+02  0.23851608127E+02  0.46283204076E+02  0.20000003219E+01 0.  0.
        -13    1    3    3    0    0 -0.25190492379E+02 -0.30572452661E+02  0.18610256455E+02  0.43767437409E+02  0.10566000000E+00 0.  1.
         13    1    4    4    0    0  0.16915892573E+02  0.21082802768E+02  0.16373302823E+02  0.31602661336E+02  0.10566000000E+00 0. -1.
        -13    1    4    4    0    0  0.71563695409E+00  0.69232958840E+00  0.32218722149E+00  0.10518674585E+01  0.10566000000E+00 0.  1.
         14    1    4    4    0    0  0.75589628515E+01  0.87973203036E+01  0.71561180827E+01  0.13628675282E+02  0.00000000000E+00 0. -1.
<mgrwt>
<rscale>  0 0.79411007E+02</rscale>
<asrwt>0</asrwt>
<pdfrwt beam="1">  1        2 0.36606751E-02 0.79411007E+02</pdfrwt>
<pdfrwt beam="2">  1       -1 0.10193270E-01 0.79411007E+02</pdfrwt>
<totfact> 0.13126653E+05</totfact>
</mgrwt>
</event>
<event>
 8    1  0.1226832E-024  0.7948823E+02  0.7818608E-02  0.1330510E+00
          2   -1    0    0  501    0  0.00000000000E+00  0.00000000000E+00  0.16674941192E+02  0.16674941387E+02  0.25500000000E-02 0. -1.
         -1   -1    0    0    0  501 -0.00000000000E+00 -0.00000000000E+00 -0.94728657970E+02  0.94728658105E+02  0.50400000000E-02 0.  1.
         24    2    1    2    0    0  0.00000000000E+00  0.00000000000E+00 -0.78053716779E+02  0.11140359949E+03  0.79488233573E+02 0.  0.
         66    2    3    3    0    0  0.33602360165E+02  0.25519969230E+01 -0.95878049499E+01  0.35093550719E+02  0.20000003497E+01 0.  0.
        -13    1    3    3    0    0 -0.33602360165E+02 -0.25519969230E+01 -0.68465911829E+02  0.76310048772E+02  0.10566000000E+00 0.  1.
         13    1    4    4    0    0  0.65386970457E+01  0.75093066325E+00 -0.14020665053E+01  0.67301865084E+01  0.10566000000E+00 0. -1.
        -13    1    4    4    0    0  0.20801693317E+02  0.15628597814E+01 -0.57337842935E+01  0.21634241884E+02  0.10566000000E+00 0.  1.
        -14    1    4    4    0    0  0.62619698023E+01  0.23820647840E+00 -0.24519541510E+01  0.67291223269E+01  0.00000000000E+00 0.  1.
<mgrwt>
<rscale>  0 0.79488234E+02</rscale>
<asrwt>0</asrwt>
<pdfrwt beam="1">  1        2 0.25653756E-02 0.79488234E+02</pdfrwt>
<pdfrwt beam="2">  1       -1 0.14573639E-01 0.79488234E+02</pdfrwt>
<totfact> 0.12183114E+05</totfact>
</mgrwt>
</event>
<event>
 8    1  0.1226832E-024  0.8256231E+02  0.7818608E-02  0.1321933E+00
          2   -1    0    0  501    0  0.00000000000E+00  0.00000000000E+00  0.10881806587E+02  0.10881806886E+02  0.25500000000E-02 0. -1.
         -1   -1    0    0    0  501 -0.00000000000E+00 -0.00000000000E+00 -0.15660393819E+03  0.15660393827E+03  0.50400000000E-02 0.  1.
         24    2    1    2    0    0  0.00000000000E+00  0.00000000000E+00 -0.14572213160E+03  0.16748574516E+03  0.82562310964E+02 0.  0.
         66    2    3    3    0    0  0.36764370418E+02 -0.18701153791E+02 -0.74691530273E+02  0.85347388862E+02  0.20000014558E+01 0.  0.
        -13    1    3    3    0    0 -0.36764370418E+02  0.18701153791E+02 -0.71030601331E+02  0.82138356295E+02  0.10566000000E+00 0.  1.
         13    1    4    4    0    0  0.34037115575E+02 -0.17185448563E+02 -0.69166663423E+02  0.78980398658E+02  0.10566000000E+00 0. -1.
        -13    1    4    4    0    0  0.11691711067E+01 -0.85491455429E+00 -0.21986769766E+01  0.26349923064E+01  0.10566000000E+00 0.  1.
         14    1    4    4    0    0  0.15580837364E+01 -0.66079067355E+00 -0.33261898727E+01  0.37319978983E+01  0.00000000000E+00 0. -1.
<mgrwt>
<rscale>  0 0.82562311E+02</rscale>
<asrwt>0</asrwt>
<pdfrwt beam="1">  1        2 0.16741242E-02 0.82562311E+02</pdfrwt>
<pdfrwt beam="2">  1       -1 0.24092912E-01 0.82562311E+02</pdfrwt>
<totfact> 0.98497867E+04</totfact>
</mgrwt>
</event>
<event>
 8    1  0.1226832E-024  0.8030501E+02  0.7818608E-02  0.1328188E+00
         -1   -1    0    0    0  501 -0.00000000000E+00  0.00000000000E+00  0.24637817739E+02  0.24637818254E+02  0.50400000000E-02 0.  1.
          2   -1    0    0  501    0  0.00000000000E+00 -0.00000000000E+00 -0.65436944724E+02  0.65436944774E+02  0.25500000000E-02 0. -1.
         24    2    1    2    0    0  0.35527136788E-14  0.00000000000E+00 -0.40799126985E+02  0.90074763028E+02  0.80305007140E+02 0.  0.
         66    2    3    3    0    0  0.17053689989E+02  0.17889894149E+02 -0.55870452407E+02  0.61125969117E+02  0.19999983582E+01 0.  0.
        -13    1    3    3    0    0 -0.17053689989E+02 -0.17889894149E+02  0.15071325421E+02  0.28948793911E+02  0.10566000000E+00 0.  1.
         13    1    4    4    0    0  0.82407472214E+01  0.75462320880E+01 -0.24752406359E+02  0.27157840821E+02  0.10566000000E+00 0. -1.
        -13    1    4    4    0    0  0.65031501146E+00  0.11177358675E+01 -0.32105924640E+01  0.34628472518E+01  0.10566000000E+00 0.  1.
         14    1    4    4    0    0  0.81626277565E+01  0.92259261932E+01 -0.27907453584E+02  0.30505281044E+02  0.00000000000E+00 0. -1.
<mgrwt>
<rscale>  0 0.80305007E+02</rscale>
<asrwt>0</asrwt>
<pdfrwt beam="1">  1        2 0.10067222E-01 0.80305007E+02</pdfrwt>
<pdfrwt beam="2">  1       -1 0.37904336E-02 0.80305007E+02</pdfrwt>
<totfact> 0.15722930E+05</totfact>
</mgrwt>
</event>
<event>
 8    1  0.1226832E-024  0.7986011E+02  0.7818608E-02  0.1329449E+00
          2   -1    0    0  501    0  0.00000000000E+00  0.00000000000E+00  0.21396234002E+03  0.21396234003E+03  0.25500000000E-02 0. -1.
         -1   -1    0    0    0  501 -0.00000000000E+00 -0.00000000000E+00 -0.74518217634E+01  0.74518234678E+01  0.50400000000E-02 0.  1.
         24    2    1    2    0    0  0.00000000000E+00  0.00000000000E+00  0.20651051825E+03  0.22141416350E+03  0.79860113004E+02 0.  0.
         66    2    3    3    0    0  0.10007541199E+02  0.10442168621E+02  0.20643446591E+03  0.20695018361E+03  0.20000033956E+01 0.  0.
        -13    1    3    3    0    0 -0.10007541199E+02 -0.10442168621E+02  0.76052345467E-01  0.14463979894E+02  0.10566000000E+00 0.  1.
         13    1    4    4    0    0  0.25840121699E+01  0.37245700465E+01  0.68503761995E+02  0.68653667873E+02  0.10566000000E+00 0.  1.
        -13    1    4    4    0    0  0.99592696454E+00  0.10759953174E+01  0.16734520586E+02  0.16798957697E+02  0.10566000000E+00 0. -1.
         14    1    4    4    0    0  0.64276020646E+01  0.56416032574E+01  0.12119618333E+03  0.12149755804E+03  0.00000000000E+00 0. -1.
<mgrwt>
<rscale>  0 0.79860113E+02</rscale>
<asrwt>0</asrwt>
<pdfrwt beam="1">  1        2 0.32917279E-01 0.79860113E+02</pdfrwt>
<pdfrwt beam="2">  1       -1 0.11464344E-02 0.79860113E+02</pdfrwt>
<totfact> 0.22689225E+05</totfact>
</mgrwt>
</event>
<event>
 8    1  0.1226832E-024  0.7992464E+02  0.7818608E-02  0.1329265E+00
          2   -1    0    0  501    0  0.00000000000E+00  0.00000000000E+00  0.25322385730E+02  0.25322385859E+02  0.25500000000E-02 0. -1.
         -1   -1    0    0    0  501 -0.00000000000E+00 -0.00000000000E+00 -0.63066207916E+02  0.63066208118E+02  0.50400000000E-02 0.  1.
         24    2    1    2    0    0  0.00000000000E+00  0.17763568394E-14 -0.37743822186E+02  0.88388593977E+02  0.79924635951E+02 0.  0.
         66    2    3    3    0    0 -0.35191862392E+02 -0.97029347779E+01 -0.97059293666E+00  0.36572615019E+02  0.19999991912E+01 0.  0.
        -13    1    3    3    0    0  0.35191862392E+02  0.97029347779E+01 -0.36773229249E+02  0.51815978958E+02  0.10566000000E+00 0.  1.
         13    1    4    4    0    0 -0.16941618369E+02 -0.43108865678E+01 -0.59361388881E+00  0.17491875756E+02  0.10566000000E+00 0. -1.
        -13    1    4    4    0    0 -0.16596851517E+02 -0.50668169771E+01  0.29402541976E-02  0.17353365300E+02  0.10566000000E+00 0.  1.
        -14    1    4    4    0    0 -0.16533925055E+01 -0.32523123306E+00 -0.37991930205E+00  0.17273739630E+01  0.00000000000E+00 0.  1.
<mgrwt>
<rscale>  0 0.79924636E+02</rscale>
<asrwt>0</asrwt>
<pdfrwt beam="1">  1        2 0.38957517E-02 0.79924636E+02</pdfrwt>
<pdfrwt beam="2">  1       -1 0.97024935E-02 0.79924636E+02</pdfrwt>
<totfact> 0.13047984E+05</totfact>
</mgrwt>
</event>
<event>
 8    1  0.1226832E-024  0.8090695E+02  0.7818608E-02  0.1326497E+00
          2   -1    0    0  501    0  0.00000000000E+00  0.00000000000E+00  0.12969364637E+02  0.12969364888E+02  0.25500000000E-02 0. -1.
         -1   -1    0    0    0  501 -0.00000000000E+00 -0.00000000000E+00 -0.12618070858E+03  0.12618070868E+03  0.50400000000E-02 0.  1.
         24    2    1    2    0    0 -0.27755575616E-16 -0.71054273576E-14 -0.11321134394E+03  0.13915007357E+03  0.80906950113E+02 0.  0.
         66    2    3    3    0    0 -0.11714564181E+00 -0.37394860187E+02 -0.30213897503E+02  0.48117241188E+02  0.20000014368E+01 0.  0.
        -13    1    3    3    0    0  0.11714564181E+00  0.37394860187E+02 -0.82997446437E+02  0.91032832377E+02  0.10566000000E+00 0.  1.
         13    1    4    4    0    0  0.20564521411E+00 -0.38502966300E+01 -0.31673705859E+01  0.49910394265E+01  0.10566000000E+00 0. -1.
        -13    1    4    4    0    0  0.36607523736E+00 -0.44580436054E+01 -0.30868995727E+01  0.54358326753E+01  0.10566000000E+00 0.  1.
         14    1    4    4    0    0 -0.68886609328E+00 -0.29086519952E+02 -0.23959627344E+02  0.37690369086E+02  0.00000000000E+00 0. -1.
<mgrwt>
<rscale>  0 0.80906950E+02</rscale>
<asrwt>0</asrwt>
<pdfrwt beam="1">  1        2 0.19952870E-02 0.80906950E+02</pdfrwt>
<pdfrwt beam="2">  1       -1 0.19412416E-01 0.80906950E+02</pdfrwt>
<totfact> 0.10938252E+05</totfact>
</mgrwt>
</event>
<event>
 8    1  0.1226832E-024  0.8331745E+02  0.7818608E-02  0.1319892E+00
          2   -1    0    0  501    0  0.00000000000E+00  0.00000000000E+00  0.78129319602E+03  0.78129319602E+03  0.25500000000E-02 0. -1.
         -1   -1    0    0    0  501 -0.00000000000E+00 -0.00000000000E+00 -0.22212496328E+01  0.22212553507E+01  0.50400000000E-02 0.  1.
         24    2    1    2    0    0  0.35527136788E-14  0.35527136788E-14  0.77907194638E+03  0.78351445137E+03  0.83317452348E+02 0.  0.
         66    2    3    3    0    0  0.16791044151E+02  0.30315253387E+02  0.60676345838E+03  0.60775558259E+03  0.19999995280E+01 0.  0.
        -13    1    3    3    0    0 -0.16791044151E+02 -0.30315253387E+02  0.17230848801E+03  0.17575886878E+03  0.10566000000E+00 0.  1.
         13    1    4    4    0    0  0.51845909296E+01  0.92816982288E+01  0.19810181441E+03  0.19838691978E+03  0.10566000000E+00 0.  1.
        -13    1    4    4    0    0  0.64524420333E+01  0.11648962967E+02  0.21713772434E+03  0.21754570748E+03  0.10566000000E+00 0. -1.
         14    1    4    4    0    0  0.51540111877E+01  0.93845921909E+01  0.19152391963E+03  0.19182295533E+03  0.00000000000E+00 0. -1.
<mgrwt>
<rscale>  0 0.83317452E+02</rscale>
<asrwt>0</asrwt>
<pdfrwt beam="1">  1        2 0.12019902E+00 0.83317452E+02</pdfrwt>
<pdfrwt beam="2">  1       -1 0.34173095E-03 0.83317452E+02</pdfrwt>
<totfact> 0.30786287E+05</totfact>
</mgrwt>
</event>
<event>
 8    1  0.1226832E-024  0.7988900E+02  0.7818608E-02  0.1329367E+00
         -1   -1    0    0    0  501 -0.00000000000E+00  0.00000000000E+00  0.95485202337E+02  0.95485202470E+02  0.50400000000E-02 0.  1.
          2   -1    0    0  501    0  0.00000000000E+00 -0.00000000000E+00 -0.16710054183E+02  0.16710054378E+02  0.25500000000E-02 0. -1.
         24    2    1    2    0    0 -0.35527136788E-14 -0.35527136788E-14  0.78775148153E+02  0.11219525685E+03  0.79888996067E+02 0.  0.
         66    2    3    3    0    0 -0.17627048786E+02 -0.28593178271E+02  0.91191745742E+01  0.34863190331E+02  0.20000006510E+01 0.  0.
        -13    1    3    3    0    0  0.17627048786E+02  0.28593178271E+02  0.69655973579E+02  0.77332066517E+02  0.10566000000E+00 0.  1.
         13    1    4    4    0    0 -0.41214114291E+01 -0.63146106927E+01  0.24349592876E+01  0.79246786141E+01  0.10566000000E+00 0. -1.
        -13    1    4    4    0    0 -0.82752626029E+01 -0.14580130537E+02  0.37458365191E+01  0.17178551537E+02  0.10566000000E+00 0.  1.
        -14    1    4    4    0    0 -0.52303747541E+01 -0.76984370404E+01  0.29383787675E+01  0.97599601800E+01  0.00000000000E+00 0.  1.
<mgrwt>
<rscale>  0 0.79888996E+02</rscale>
<asrwt>0</asrwt>
<pdfrwt beam="1">  1        2 0.25707776E-02 0.79888996E+02</pdfrwt>
<pdfrwt beam="2">  1       -1 0.14690031E-01 0.79888996E+02</pdfrwt>
<totfact> 0.12011515E+05</totfact>
</mgrwt>
</event>
<event>
 8    1  0.1226832E-024  0.8017232E+02  0.7818608E-02  0.1328563E+00
         -1   -1    0    0    0  501 -0.00000000000E+00  0.00000000000E+00  0.12699928213E+01  0.12700028219E+01  0.50400000000E-02 0.  1.
          2   -1    0    0  501    0  0.00000000000E+00 -0.00000000000E+00 -0.12652779456E+04  0.12652779456E+04  0.25500000000E-02 0. -1.
         24    2    1    2    0    0  0.35527136788E-14  0.17763568394E-14 -0.12640079528E+04  0.12665479484E+04  0.80172320476E+02 0.  0.
         66    2    3    3    0    0 -0.22221620536E+02 -0.14937961240E+02 -0.11031479631E+04  0.11034746810E+04  0.20000023964E+01 0.  0.
        -13    1    3    3    0    0  0.22221620536E+02  0.14937961240E+02 -0.16085998967E+03  0.16307326742E+03  0.10566000000E+00 0.  1.
         13    1    4    4    0    0 -0.84283708962E+01 -0.63047406768E+01 -0.42199716906E+03  0.42212842719E+03  0.10566000000E+00 0.  1.
        -13    1    4    4    0    0 -0.17267337621E+01 -0.72339523948E+00 -0.69213044083E+02  0.69238439796E+02  0.10566000000E+00 0. -1.
         14    1    4    4    0    0 -0.12066515878E+02 -0.79098253234E+01 -0.61193774996E+03  0.61210781401E+03  0.00000000000E+00 0. -1.
<mgrwt>
<rscale>  0 0.80172320E+02</rscale>
<asrwt>0</asrwt>
<pdfrwt beam="1">  1        2 0.19465714E+00 0.80172320E+02</pdfrwt>
<pdfrwt beam="2">  1       -1 0.19538529E-03 0.80172320E+02</pdfrwt>
<totfact> 0.34591207E+05</totfact>
</mgrwt>
</event>
<event>
 8    1  0.1226832E-024  0.7951427E+02  0.7818608E-02  0.1330436E+00
         -1   -1    0    0    0  501 -0.00000000000E+00  0.00000000000E+00  0.10621531337E+03  0.10621531349E+03  0.50400000000E-02 0.  1.
          2   -1    0    0  501    0  0.00000000000E+00 -0.00000000000E+00 -0.14881375154E+02  0.14881375373E+02  0.25500000000E-02 0. -1.
         24    2    1    2    0    0  0.00000000000E+00  0.00000000000E+00  0.91333938219E+02  0.12109668887E+03  0.79514274087E+02 0.  0.
         66    2    3    3    0    0  0.38090254272E+02  0.40817737111E+00  0.28493063122E+02  0.47611854878E+02  0.19999998970E+01 0.  0.
        -13    1    3    3    0    0 -0.38090254272E+02 -0.40817737111E+00  0.62840875097E+02  0.73484833988E+02  0.10566000000E+00 0.  1.
         13    1    4    4    0    0  0.26053377211E+02  0.56778871206E+00  0.19768410124E+02  0.32709357239E+02  0.10566000000E+00 0. -1.
        -13    1    4    4    0    0  0.19047496954E+01  0.32839217574E+00  0.13000356280E+01  0.23317738940E+01  0.10566000000E+00 0.  1.
         14    1    4    4    0    0  0.10132127365E+02 -0.48800351670E+00  0.74246173704E+01  0.12570723745E+02  0.00000000000E+00 0. -1.
<mgrwt>
<rscale>  0 0.79514274E+02</rscale>
<asrwt>0</asrwt>
<pdfrwt beam="1">  1        2 0.22894424E-02 0.79514274E+02</pdfrwt>
<pdfrwt beam="2">  1       -1 0.16340817E-01 0.79514274E+02</pdfrwt>
<totfact> 0.11878739E+05</totfact>
</mgrwt>
</event>
<event>
 8    1  0.1226832E-024  0.8056236E+02  0.7818608E-02  0.1327463E+00
          2   -1    0    0  501    0  0.00000000000E+00  0.00000000000E+00  0.35697734261E+03  0.35697734262E+03  0.25500000000E-02 0. -1.
         -1   -1    0    0    0  501 -0.00000000000E+00 -0.00000000000E+00 -0.45453111815E+01  0.45453139757E+01  0.50400000000E-02 0.  1.
         24    2    1    2    0    0  0.00000000000E+00  0.00000000000E+00  0.35243203143E+03  0.36152265659E+03  0.80562363759E+02 0.  0.
         66    2    3    3    0    0 -0.16618136038E+02  0.92201717336E+01  0.33557607451E+03  0.33611973432E+03  0.20000015748E+01 0.  0.
        -13    1    3    3    0    0  0.16618136038E+02 -0.92201717336E+01  0.16855956916E+02  0.25402922268E+02  0.10566000000E+00 0.  1.
         13    1    4    4    0    0 -0.37173554941E+01  0.27896254976E+01  0.79242524226E+02  0.79378772679E+02  0.10566000000E+00 0. -1.
        -13    1    4    4    0    0 -0.22642515836E+00  0.24431328365E+00  0.73217611242E+01  0.73300959972E+01  0.10566000000E+00 0. -1.
        -14    1    4    4    0    0 -0.12674355385E+02  0.61862329523E+01  0.24901178916E+03  0.24941086565E+03  0.00000000000E+00 0.  1.
<mgrwt>
<rscale>  0 0.80562364E+02</rscale>
<asrwt>0</asrwt>
<pdfrwt beam="1">  1        2 0.54919626E-01 0.80562364E+02</pdfrwt>
<pdfrwt beam="2">  1       -1 0.69927842E-03 0.80562364E+02</pdfrwt>
<totfact> 0.26646968E+05</totfact>
</mgrwt>
</event>
<event>
 8    1  0.1226832E-024  0.8173948E+02  0.7818608E-02  0.1324186E+00
         -1   -1    0    0    0  501 -0.00000000000E+00  0.00000000000E+00  0.25476098534E+03  0.25476098539E+03  0.50400000000E-02 0.  1.
          2   -1    0    0  501    0  0.00000000000E+00 -0.00000000000E+00 -0.65564803944E+01  0.65564808903E+01  0.25500000000E-02 0. -1.
         24    2    1    2    0    0 -0.55511151231E-16  0.00000000000E+00  0.24820450494E+03  0.26131746628E+03  0.81739475822E+02 0.  0.
         66    2    3    3    0    0  0.29779207492E+00  0.38237535526E+02  0.78276624661E+02  0.87140276426E+02  0.20000010460E+01 0.  0.
        -13    1    3    3    0    0 -0.29779207492E+00 -0.38237535526E+02  0.16992788028E+03  0.17417718985E+03  0.10566000000E+00 0.  1.
         13    1    4    4    0    0 -0.28380488918E-02  0.26726077783E+02  0.54489742950E+02  0.60691239009E+02  0.10566000000E+00 0. -1.
        -13    1    4    4    0    0  0.23156402403E+00  0.11092217670E+02  0.23271489556E+02  0.25781084247E+02  0.10566000000E+00 0.  1.
         14    1    4    4    0    0  0.69066099788E-01  0.41924007225E+00  0.51539215486E+00  0.66795317022E+00  0.00000000000E+00 0. -1.
<mgrwt>
<rscale>  0 0.81739476E+02</rscale>
<asrwt>0</asrwt>
<pdfrwt beam="1">  1        2 0.10086895E-02 0.81739476E+02</pdfrwt>
<pdfrwt beam="2">  1       -1 0.39193992E-01 0.81739476E+02</pdfrwt>
<totfact> 0.87063544E+04</totfact>
</mgrwt>
</event>
<event>
 8    1  0.1226832E-024  0.7968296E+02  0.7818608E-02  0.1329954E+00
          2   -1    0    0  501    0  0.00000000000E+00  0.00000000000E+00  0.17180018076E+03  0.17180018078E+03  0.25500000000E-02 0. -1.
         -1   -1    0    0    0  501 -0.00000000000E+00 -0.00000000000E+00 -0.92394742849E+01  0.92394756595E+01  0.50400000000E-02 0.  1.
         24    2    1    2    0    0  0.00000000000E+00  0.00000000000E+00  0.16256070647E+03  0.18103965644E+03  0.79682958740E+02 0.  0.
         66    2    3    3    0    0  0.12596489048E+02 -0.36488786921E+02  0.59159280535E+02  0.70667698234E+02  0.19999982671E+01 0.  0.
        -13    1    3    3    0    0 -0.12596489048E+02  0.36488786921E+02  0.10340142594E+03  0.11037195820E+03  0.10566000000E+00 0.  1.
         13    1    4    4    0    0  0.29786919231E+01 -0.10382320935E+02  0.15888968708E+02  0.19212904106E+02  0.10566000000E+00 0.  1.
        -13    1    4    4    0    0  0.71662873604E+00 -0.13647390237E+01  0.26204001654E+01  0.30419944791E+01  0.10566000000E+00 0. -1.
         14    1    4    4    0    0  0.89011683884E+01 -0.24741726962E+02  0.40649911661E+02  0.48412799649E+02  0.00000000000E+00 0. -1.
<mgrwt>
<rscale>  0 0.79682959E+02</rscale>
<asrwt>0</asrwt>
<pdfrwt beam="1">  1        2 0.26430797E-01 0.79682959E+02</pdfrwt>
<pdfrwt beam="2">  1       -1 0.14214577E-02 0.79682959E+02</pdfrwt>
<totfact> 0.21164064E+05</totfact>
</mgrwt>
</event>
<event>
 8    1  0.1226832E-024  0.8060580E+02  0.7818608E-02  0.1327341E+00
         -1   -1    0    0    0  501 -0.00000000000E+00  0.00000000000E+00  0.20823603911E+02  0.20823604521E+02  0.50400000000E-02 0.  1.
          2   -1    0    0  501    0  0.00000000000E+00 -0.00000000000E+00 -0.78003958236E+02  0.78003958278E+02  0.25500000000E-02 0. -1.
         24    2    1    2    0    0 -0.17763568394E-14 -0.35527136788E-14 -0.57180354325E+02  0.98827562799E+02  0.80605795375E+02 0.  0.
         66    2    3    3    0    0  0.12986335072E+02  0.18958620336E+02 -0.69165024701E+02  0.72910046102E+02  0.19999992759E+01 0.  0.
        -13    1    3    3    0    0 -0.12986335072E+02 -0.18958620336E+02  0.11984670377E+02  0.25917516696E+02  0.10566000000E+00 0.  1.
         13    1    4    4    0    0  0.67058307603E+01  0.95053069697E+01 -0.33952078501E+02  0.35889745406E+02  0.10566000000E+00 0. -1.
        -13    1    4    4    0    0  0.87242866550E+00  0.18056000748E+01 -0.76559333630E+01  0.79149101765E+01  0.10566000000E+00 0.  1.
        -14    1    4    4    0    0  0.54080756457E+01  0.76477132915E+01 -0.27557012837E+02  0.29105390520E+02  0.00000000000E+00 0.  1.
<mgrwt>
<rscale>  0 0.80605795E+02</rscale>
<asrwt>0</asrwt>
<pdfrwt beam="1">  1        2 0.12000609E-01 0.80605795E+02</pdfrwt>
<pdfrwt beam="2">  1       -1 0.32036315E-02 0.80605795E+02</pdfrwt>
<totfact> 0.16253798E+05</totfact>
</mgrwt>
</event>
<event>
 8    1  0.1226832E-024  0.7782020E+02  0.7818608E-02  0.1335354E+00
          2   -1    0    0  501    0  0.00000000000E+00  0.00000000000E+00  0.11367991239E+03  0.11367991242E+03  0.25500000000E-02 0. -1.
         -1   -1    0    0    0  501 -0.00000000000E+00 -0.00000000000E+00 -0.13318060998E+02  0.13318061951E+02  0.50400000000E-02 0.  1.
         24    2    1    2    0    0  0.35527136788E-14  0.35527136788E-14  0.10036185139E+03  0.12699797437E+03  0.77820204827E+02 0.  0.
         66    2    3    3    0    0 -0.25657909596E+02 -0.20305450069E+02  0.84498392356E+02  0.90634529485E+02  0.19999992185E+01 0.  0.
        -13    1    3    3    0    0  0.25657909596E+02  0.20305450069E+02  0.15863459037E+02  0.36363444886E+02  0.10566000000E+00 0.  1.
         13    1    4    4    0    0 -0.12249055633E+01 -0.10220865605E+01  0.40950376730E+01  0.43960837293E+01  0.10566000000E+00 0. -1.
        -13    1    4    4    0    0 -0.19536031754E+02 -0.16247671151E+02  0.66434008281E+02  0.71127575348E+02  0.10566000000E+00 0.  1.
        -14    1    4    4    0    0 -0.48969722787E+01 -0.30356923569E+01  0.13969346402E+02  0.15110870408E+02  0.00000000000E+00 0.  1.
<mgrwt>
<rscale>  0 0.77820205E+02</rscale>
<asrwt>0</asrwt>
<pdfrwt beam="1">  1        2 0.17489217E-01 0.77820205E+02</pdfrwt>
<pdfrwt beam="2">  1       -1 0.20489325E-02 0.77820205E+02</pdfrwt>
<totfact> 0.19794963E+05</totfact>
</mgrwt>
</event>
<event>
 8    1  0.1226832E-024  0.7454449E+02  0.7818608E-02  0.1345287E+00
         -1   -1    0    0    0  501 -0.00000000000E+00  0.00000000000E+00  0.31393656033E+02  0.31393656437E+02  0.50400000000E-02 0.  1.
          2   -1    0    0  501    0  0.00000000000E+00 -0.00000000000E+00 -0.44251619702E+02  0.44251619776E+02  0.25500000000E-02 0. -1.
         24    2    1    2    0    0 -0.17763568394E-14  0.00000000000E+00 -0.12857963669E+02  0.75645276213E+02  0.74544487279E+02 0.  0.
         66    2    3    3    0    0  0.12223407878E+02  0.26887569769E+02 -0.29459239991E+02  0.41763619704E+02  0.20000004371E+01 0.  0.
        -13    1    3    3    0    0 -0.12223407878E+02 -0.26887569769E+02  0.16601276321E+02  0.33881656509E+02  0.10566000000E+00 0.  1.
         13    1    4    4    0    0  0.61084392055E+01  0.13488085472E+02 -0.15377023945E+02  0.21347259980E+02  0.10566000000E+00 0. -1.
        -13    1    4    4    0    0  0.38787750007E+01  0.83616234013E+01 -0.96319507372E+01  0.13332189634E+02  0.10566000000E+00 0.  1.
         14    1    4    4    0    0  0.22361936723E+01  0.50378608957E+01 -0.44502653092E+01  0.70841700901E+01  0.00000000000E+00 0. -1.
<mgrwt>
<rscale>  0 0.74544487E+02</rscale>
<asrwt>0</asrwt>
<pdfrwt beam="1">  1        2 0.68079415E-02 0.74544487E+02</pdfrwt>
<pdfrwt beam="2">  1       -1 0.48297933E-02 0.74544487E+02</pdfrwt>
<totfact> 0.17662660E+05</totfact>
</mgrwt>
</event>
<event>
 8    1  0.1226832E-024  0.7835185E+02  0.7818608E-02  0.1333795E+00
          2   -1    0    0  501    0  0.00000000000E+00  0.00000000000E+00  0.75790776425E+03  0.75790776425E+03  0.25500000000E-02 0. -1.
         -1   -1    0    0    0  501 -0.00000000000E+00 -0.00000000000E+00 -0.20249835837E+01  0.20249898558E+01  0.50400000000E-02 0.  1.
         24    2    1    2    0    0  0.00000000000E+00  0.00000000000E+00  0.75588278067E+03  0.75993275411E+03  0.78351851679E+02 0.  0.
         66    2    3    3    0    0 -0.28690167758E+02  0.17558375945E+02  0.57248772530E+03  0.57347852437E+03  0.20000001580E+01 0.  0.
        -13    1    3    3    0    0  0.28690167758E+02 -0.17558375945E+02  0.18339505537E+03  0.18645422974E+03  0.10566000000E+00 0.  1.
         13    1    4    4    0    0 -0.32544921493E+01  0.21992321089E+01  0.63032551095E+02  0.63154904819E+02  0.10566000000E+00 0. -1.
        -13    1    4    4    0    0 -0.24846718439E+01  0.15254658746E+01  0.42334727968E+02  0.42435138700E+02  0.10566000000E+00 0.  1.
         14    1    4    4    0    0 -0.22951003765E+02  0.13833677961E+02  0.46712044623E+03  0.46788848085E+03  0.00000000000E+00 0. -1.
<mgrwt>
<rscale>  0 0.78351852E+02</rscale>
<asrwt>0</asrwt>
<pdfrwt beam="1">  1        2 0.11660136E+00 0.78351852E+02</pdfrwt>
<pdfrwt beam="2">  1       -1 0.31153599E-03 0.78351852E+02</pdfrwt>
<totfact> 0.35912857E+05</totfact>
</mgrwt>
</event>
<event>
 8    1  0.1226832E-024  0.8254505E+02  0.7818608E-02  0.1321980E+00
         -1   -1    0    0    0  501 -0.00000000000E+00  0.00000000000E+00  0.49307746182E+01  0.49307771941E+01  0.50400000000E-02 0.  1.
          2   -1    0    0  501    0  0.00000000000E+00 -0.00000000000E+00 -0.34546718521E+03  0.34546718522E+03  0.25500000000E-02 0. -1.
         24    2    1    2    0    0  0.00000000000E+00 -0.35527136788E-14 -0.34053641059E+03  0.35039796241E+03  0.82545049063E+02 0.  0.
         66    2    3    3    0    0 -0.31461296756E+02  0.15171446545E+02 -0.26350810130E+03  0.26582043833E+03  0.19999997104E+01 0.  0.
        -13    1    3    3    0    0  0.31461296756E+02 -0.15171446545E+02 -0.77028309292E+02  0.84577524085E+02  0.10566000000E+00 0.  1.
         13    1    4    4    0    0 -0.10155596304E+02  0.51418891382E+01 -0.89265643267E+02  0.89988562563E+02  0.10566000000E+00 0. -1.
        -13    1    4    4    0    0 -0.18481317937E+02  0.89063550567E+01 -0.15470936877E+03  0.15606371206E+03  0.10566000000E+00 0.  1.
        -14    1    4    4    0    0 -0.28243825162E+01  0.11232023505E+01 -0.19533089260E+02  0.19768163703E+02  0.00000000000E+00 0.  1.
<mgrwt>
<rscale>  0 0.82545049E+02</rscale>
<asrwt>0</asrwt>
<pdfrwt beam="1">  1        2 0.53148779E-01 0.82545049E+02</pdfrwt>
<pdfrwt beam="2">  1       -1 0.75858118E-03 0.82545049E+02</pdfrwt>
<totfact> 0.24710462E+05</totfact>
</mgrwt>
</event>
<event>
 8    1  0.1226832E-024  0.8011169E+02  0.7818608E-02  0.1328735E+00
         -1   -1    0    0    0  501 -0.00000000000E+00  0.00000000000E+00  0.29716271801E+01  0.29716314542E+01  0.50400000000E-02 0.  1.
          2   -1    0    0  501    0  0.00000000000E+00 -0.00000000000E+00 -0.53992966156E+03  0.53992966157E+03  0.25500000000E-02 0. -1.
         24    2    1    2    0    0  0.00000000000E+00  0.00000000000E+00 -0.53695803438E+03  0.54290129302E+03  0.80111692517E+02 0.  0.
         66    2    3    3    0    0 -0.24430746691E+02 -0.31297263493E+02 -0.30325788854E+03  0.30585245962E+03  0.20000022054E+01 0.  0.
        -13    1    3    3    0    0  0.24430746691E+02  0.31297263493E+02 -0.23370014584E+03  0.23704883340E+03  0.10566000000E+00 0.  1.
         13    1    4    4    0    0 -0.59346193197E+01 -0.65748882626E+01 -0.68775776652E+02  0.69343835200E+02  0.10566000000E+00 0. -1.
        -13    1    4    4    0    0 -0.10938823159E+02 -0.13852323090E+02 -0.13197512750E+03  0.13315025403E+03  0.10566000000E+00 0.  1.
         14    1    4    4    0    0 -0.75573042122E+01 -0.10870052140E+02 -0.10250698439E+03  0.10335837039E+03  0.00000000000E+00 0. -1.
<mgrwt>
<rscale>  0 0.80111693E+02</rscale>
<asrwt>0</asrwt>
<pdfrwt beam="1">  1        2 0.83066024E-01 0.80111693E+02</pdfrwt>
<pdfrwt beam="2">  1       -1 0.45717417E-03 0.80111693E+02</pdfrwt>
<totfact> 0.31075166E+05</totfact>
</mgrwt>
</event>
<event>
 8    1  0.1226832E-024  0.7648211E+02  0.7818608E-02  0.1339342E+00
          2   -1    0    0  501    0  0.00000000000E+00  0.00000000000E+00  0.21017508710E+04  0.21017508710E+04  0.25500000000E-02 0. -1.
         -1   -1    0    0    0  501 -0.00000000000E+00 -0.00000000000E+00 -0.69578129913E+00  0.69579955290E+00  0.50400000000E-02 0.  1.
         24    2    1    2    0    0  0.00000000000E+00  0.00000000000E+00  0.21010550897E+04  0.21024466705E+04  0.76482106192E+02 0.  0.
         66    2    3    3    0    0  0.14243457367E+02 -0.31110444445E+01  0.20222922948E+04  0.20223458360E+04  0.20000024595E+01 0.  0.
        -13    1    3    3    0    0 -0.14243457367E+02  0.31110444445E+01  0.78762794860E+02  0.80100834537E+02  0.10566000000E+00 0.  1.
         13    1    4    4    0    0  0.78213631169E+01 -0.18939992846E+01  0.10461665632E+04  0.10461975196E+04  0.10566000000E+00 0. -1.
        -13    1    4    4    0    0  0.15633566514E+01 -0.81049696006E+00  0.25522859855E+03  0.25523469527E+03  0.10566000000E+00 0.  1.
        -14    1    4    4    0    0  0.48587375986E+01 -0.40654819988E+00  0.72089713305E+03  0.72091362108E+03  0.00000000000E+00 0.  1.
<mgrwt>
<rscale>  0 0.76482106E+02</rscale>
<asrwt>0</asrwt>
<pdfrwt beam="1">  1        2 0.32334109E+00 0.76482106E+02</pdfrwt>
<pdfrwt beam="2">  1       -1 0.10704640E-03 0.76482106E+02</pdfrwt>
<totfact> 0.29712497E+05</totfact>
</mgrwt>
</event>
<event>
 8    1  0.1226832E-024  0.8115200E+02  0.7818608E-02  0.1325814E+00
          2   -1    0    0  501    0  0.00000000000E+00  0.00000000000E+00  0.14799279379E+02  0.14799279599E+02  0.25500000000E-02 0. -1.
         -1   -1    0    0    0  501 -0.00000000000E+00 -0.00000000000E+00 -0.11124945555E+03  0.11124945566E+03  0.50400000000E-02 0.  1.
         24    2    1    2    0    0  0.00000000000E+00  0.00000000000E+00 -0.96450176170E+02  0.12604873526E+03  0.81152000456E+02 0.  0.
         66    2    3    3    0    0 -0.24672136788E+02  0.20510956021E+02 -0.97353503853E+01  0.33588550180E+02  0.20000013717E+01 0.  0.
        -13    1    3    3    0    0  0.24672136788E+02 -0.20510956021E+02 -0.86714825785E+02  0.92460185083E+02  0.10566000000E+00 0.  1.
         13    1    4    4    0    0 -0.10575250133E+02  0.87032022281E+01 -0.37823164820E+01  0.14209107164E+02  0.10566000000E+00 0. -1.
        -13    1    4    4    0    0 -0.15574189280E+01  0.19139291621E+01 -0.79198302826E+00  0.25936614481E+01  0.10566000000E+00 0.  1.
        -14    1    4    4    0    0 -0.12539467727E+02  0.98938246310E+01 -0.51610508750E+01  0.16785781568E+02  0.00000000000E+00 0.  1.
<mgrwt>
<rscale>  0 0.81152000E+02</rscale>
<asrwt>0</asrwt>
<pdfrwt beam="1">  1        2 0.22768123E-02 0.81152000E+02</pdfrwt>
<pdfrwt beam="2">  1       -1 0.17115300E-01 0.81152000E+02</pdfrwt>
<totfact> 0.11173439E+05</totfact>
</mgrwt>
</event>
<event>
 8    1  0.1226832E-024  0.8032778E+02  0.7818608E-02  0.1328124E+00
         -1   -1    0    0    0  501 -0.00000000000E+00  0.00000000000E+00  0.21831965090E+01  0.21832023265E+01  0.50400000000E-02 0.  1.
          2   -1    0    0  501    0  0.00000000000E+00 -0.00000000000E+00 -0.73888717036E+03  0.73888717037E+03  0.25500000000E-02 0. -1.
         24    2    1    2    0    0  0.17763568394E-14  0.00000000000E+00 -0.73670397385E+03  0.74107037269E+03  0.80327779705E+02 0.  0.
         66    2    3    3    0    0  0.11517648537E+02  0.22033480343E+02 -0.65929565835E+03  0.65976730413E+03  0.20000007603E+01 0.  0.
        -13    1    3    3    0    0 -0.11517648537E+02 -0.22033480343E+02 -0.77408315505E+02  0.81303068559E+02  0.10566000000E+00 0.  1.
         13    1    4    4    0    0  0.72011136442E+01  0.14138669646E+02 -0.40860539144E+03  0.40891335891E+03  0.10566000000E+00 0. -1.
        -13    1    4    4    0    0  0.14627682546E+01  0.29762766345E+01 -0.79342614599E+02  0.79411961120E+02  0.10566000000E+00 0.  1.
         14    1    4    4    0    0  0.28537666381E+01  0.49185340627E+01 -0.17134765231E+03  0.17144198411E+03  0.00000000000E+00 0. -1.
<mgrwt>
<rscale>  0 0.80327780E+02</rscale>
<asrwt>0</asrwt>
<pdfrwt beam="1">  1        2 0.11367475E+00 0.80327780E+02</pdfrwt>
<pdfrwt beam="2">  1       -1 0.33587743E-03 0.80327780E+02</pdfrwt>
<totfact> 0.33491323E+05</totfact>
</mgrwt>
</event>
<event>
 8    1  0.1226832E-024  0.7902561E+02  0.7818608E-02  0.1331840E+00
         -1   -1    0    0    0  501 -0.00000000000E+00  0.00000000000E+00  0.20124820003E+01  0.20124883113E+01  0.50400000000E-02 0.  1.
          2   -1    0    0  501    0  0.00000000000E+00 -0.00000000000E+00 -0.77578799400E+03  0.77578799400E+03  0.25500000000E-02 0. -1.
         24    2    1    2    0    0  0.00000000000E+00 -0.35527136788E-14 -0.77377551200E+03  0.77780048231E+03  0.79025611796E+02 0.  0.
         66    2    3    3    0    0  0.94403933180E+01 -0.27906988150E+02 -0.64592331529E+03  0.64659790467E+03  0.20000182768E+01 0.  0.
        -13    1    3    3    0    0 -0.94403933180E+01  0.27906988150E+02 -0.12785219670E+03  0.13120257764E+03  0.10566000000E+00 0.  1.
         13    1    4    4    0    0  0.56257515307E+01 -0.16107572874E+02 -0.37985966384E+03  0.38024265721E+03  0.10566000000E+00 0. -1.
        -13    1    4    4    0    0  0.36830254596E+01 -0.10084231260E+02 -0.22709267663E+03  0.22734632466E+03  0.10566000000E+00 0.  1.
        -14    1    4    4    0    0  0.13161632772E+00 -0.17151840161E+01 -0.38970974826E+02  0.39008922799E+02  0.00000000000E+00 0.  1.
<mgrwt>
<rscale>  0 0.79025612E+02</rscale>
<asrwt>0</asrwt>
<pdfrwt beam="1">  1        2 0.11935176E+00 0.79025612E+02</pdfrwt>
<pdfrwt beam="2">  1       -1 0.30961372E-03 0.79025612E+02</pdfrwt>
<totfact> 0.35281376E+05</totfact>
</mgrwt>
</event>
<event>
 8    1  0.1226832E-024  0.7933270E+02  0.7818608E-02  0.1330956E+00
         -1   -1    0    0    0  501 -0.00000000000E+00  0.00000000000E+00  0.13870482161E+01  0.13870573727E+01  0.50400000000E-02 0.  1.
          2   -1    0    0  501    0  0.00000000000E+00 -0.00000000000E+00 -0.11343614227E+04  0.11343614227E+04  0.25500000000E-02 0. -1.
         24    2    1    2    0    0  0.00000000000E+00  0.00000000000E+00 -0.11329743744E+04  0.11357484800E+04  0.79332696642E+02 0.  0.
         66    2    3    3    0    0 -0.24299312811E+02  0.86441185345E+01 -0.99781995606E+03  0.99815521944E+03  0.19999993200E+01 0.  0.
        -13    1    3    3    0    0  0.24299312811E+02 -0.86441185345E+01 -0.13515441838E+03  0.13759326059E+03  0.10566000000E+00 0.  1.
         13    1    4    4    0    0 -0.99165045048E+01  0.38468501628E+01 -0.38012870624E+03  0.38027750366E+03  0.10566000000E+00 0. -1.
        -13    1    4    4    0    0 -0.11137811951E+02  0.38577552095E+01 -0.46919356175E+03  0.46934160554E+03  0.10566000000E+00 0.  1.
         14    1    4    4    0    0 -0.32449963549E+01  0.93951316227E+00 -0.14849768807E+03  0.14853611025E+03  0.00000000000E+00 0. -1.
<mgrwt>
<rscale>  0 0.79332697E+02</rscale>
<asrwt>0</asrwt>
<pdfrwt beam="1">  1        2 0.17451640E+00 0.79332697E+02</pdfrwt>
<pdfrwt beam="2">  1       -1 0.21339365E-03 0.79332697E+02</pdfrwt>
<totfact> 0.35977047E+05</totfact>
</mgrwt>
</event>
<event>
 8    1  0.1226832E-024  0.7794485E+02  0.7818608E-02  0.1334987E+00
          2   -1    0    0  501    0  0.00000000000E+00  0.00000000000E+00  0.50271883158E+03  0.50271883159E+03  0.25500000000E-02 0. -1.
         -1   -1    0    0    0  501 -0.00000000000E+00 -0.00000000000E+00 -0.30212686675E+01  0.30212728713E+01  0.50400000000E-02 0.  1.
         24    2    1    2    0    0  0.17763568394E-14  0.35527136788E-14  0.49969756292E+03  0.50574010446E+03  0.77944845091E+02 0.  0.
         66    2    3    3    0    0  0.12290279196E+02  0.15868391177E+02  0.46657382186E+03  0.46700962310E+03  0.20000040871E+01 0.  0.
        -13    1    3    3    0    0 -0.12290279196E+02 -0.15868391177E+02  0.33123741051E+02  0.38730481362E+02  0.10566000000E+00 0.  1.
         13    1    4    4    0    0  0.28505803180E+01  0.40394281425E+01  0.11583050582E+03  0.11593601697E+03  0.10566000000E+00 0.  1.
        -13    1    4    4    0    0  0.56862902347E+01  0.61544340746E+01  0.20638664017E+03  0.20655669285E+03  0.10566000000E+00 0.  1.
         14    1    4    4    0    0  0.37534086437E+01  0.56745289602E+01  0.14435667587E+03  0.14451691328E+03  0.00000000000E+00 0. -1.
<mgrwt>
<rscale>  0 0.77944845E+02</rscale>
<asrwt>0</asrwt>
<pdfrwt beam="1">  1        2 0.77341411E-01 0.77944845E+02</pdfrwt>
<pdfrwt beam="2">  1       -1 0.46481058E-03 0.77944845E+02</pdfrwt>
<totfact> 0.32641756E+05</totfact>
</mgrwt>
</event>
<event>
 8    1  0.1226832E-024  0.8143433E+02  0.7818608E-02  0.1325030E+00
          2   -1    0    0  501    0  0.00000000000E+00  0.00000000000E+00  0.35881679971E+03  0.35881679972E+03  0.25500000000E-02 0. -1.
         -1   -1    0    0    0  501 -0.00000000000E+00 -0.00000000000E+00 -0.46204270422E+01  0.46204297910E+01  0.50400000000E-02 0.  1.
         24    2    1    2    0    0  0.00000000000E+00 -0.35527136788E-14  0.35419637267E+03  0.36343722951E+03  0.81434325581E+02 0.  0.
         66    2    3    3    0    0  0.48196769459E+01  0.23587707441E+02  0.32361889643E+03  0.32451933587E+03  0.19999997966E+01 0.  0.
        -13    1    3    3    0    0 -0.48196769459E+01 -0.23587707441E+02  0.30577476237E+02  0.38917893638E+02  0.10566000000E+00 0.  1.
         13    1    4    4    0    0 -0.51318986635E-01  0.10318978545E+01  0.11332662917E+02  0.11380152005E+02  0.10566000000E+00 0. -1.
        -13    1    4    4    0    0  0.26222811296E+01  0.11014356609E+02  0.14746450375E+03  0.14789855794E+03  0.10566000000E+00 0.  1.
         14    1    4    4    0    0  0.22487148029E+01  0.11541452978E+02  0.16482172976E+03  0.16524062592E+03  0.00000000000E+00 0. -1.
<mgrwt>
<rscale>  0 0.81434326E+02</rscale>
<asrwt>0</asrwt>
<pdfrwt beam="1">  1        2 0.55202591E-01 0.81434326E+02</pdfrwt>
<pdfrwt beam="2">  1       -1 0.71083506E-03 0.81434326E+02</pdfrwt>
<totfact> 0.25953645E+05</totfact>
</mgrwt>
</event>
<event>
 8    1  0.1226832E-024  0.7779505E+02  0.7818608E-02  0.1335428E+00
          2   -1    0    0  501    0  0.00000000000E+00  0.00000000000E+00  0.11257792127E+03  0.11257792130E+03  0.25500000000E-02 0. -1.
         -1   -1    0    0    0  501 -0.00000000000E+00 -0.00000000000E+00 -0.13439736217E+02  0.13439737162E+02  0.50400000000E-02 0.  1.
         24    2    1    2    0    0  0.00000000000E+00  0.00000000000E+00  0.99138185051E+02  0.12601765846E+03  0.77795054522E+02 0.  0.
         66    2    3    3    0    0 -0.15307667217E+02  0.22971553677E+02  0.93933943311E+02  0.97926516614E+02  0.19999990630E+01 0.  0.
        -13    1    3    3    0    0  0.15307667217E+02 -0.22971553677E+02  0.52042417397E+01  0.28091141844E+02  0.10566000000E+00 0.  1.
         13    1    4    4    0    0 -0.91271026955E+01  0.13367772427E+02  0.55618485098E+02  0.57926059696E+02  0.10566000000E+00 0. -1.
        -13    1    4    4    0    0 -0.36707402089E+01  0.66996156020E+01  0.26240584748E+02  0.27330178098E+02  0.10566000000E+00 0.  1.
        -14    1    4    4    0    0 -0.25098243131E+01  0.29041656478E+01  0.12074873465E+02  0.12670278821E+02  0.00000000000E+00 0.  1.
<mgrwt>
<rscale>  0 0.77795055E+02</rscale>
<asrwt>0</asrwt>
<pdfrwt beam="1">  1        2 0.17319681E-01 0.77795055E+02</pdfrwt>
<pdfrwt beam="2">  1       -1 0.20676517E-02 0.77795055E+02</pdfrwt>
<totfact> 0.19755903E+05</totfact>
</mgrwt>
</event>
<event>
 8    1  0.1226832E-024  0.7826813E+02  0.7818608E-02  0.1334039E+00
          2   -1    0    0  501    0  0.00000000000E+00  0.00000000000E+00  0.21317113329E+02  0.21317113482E+02  0.25500000000E-02 0. -1.
         -1   -1    0    0    0  501 -0.00000000000E+00 -0.00000000000E+00 -0.71842514343E+02  0.71842514520E+02  0.50400000000E-02 0.  1.
         24    2    1    2    0    0 -0.44408920985E-15  0.00000000000E+00 -0.50525401014E+02  0.93159628002E+02  0.78268129797E+02 0.  0.
         66    2    3    3    0    0  0.39249367571E+01  0.20412238852E+02  0.14150811258E+02  0.25225187389E+02  0.19999990096E+01 0.  0.
        -13    1    3    3    0    0 -0.39249367571E+01 -0.20412238852E+02 -0.64676212272E+02  0.67934440613E+02  0.10566000000E+00 0.  1.
         13    1    4    4    0    0  0.11873229243E+01  0.57577921078E+01  0.34773659852E+01  0.68311890556E+01  0.10566000000E+00 0. -1.
        -13    1    4    4    0    0  0.52469444519E-01  0.32935450687E+01  0.20623343121E+01  0.38877472927E+01  0.10566000000E+00 0.  1.
        -14    1    4    4    0    0  0.26851443883E+01  0.11360901676E+02  0.86111109610E+01  0.14506251041E+02  0.00000000000E+00 0.  1.
<mgrwt>
<rscale>  0 0.78268130E+02</rscale>
<asrwt>0</asrwt>
<pdfrwt beam="1">  1        2 0.32795560E-02 0.78268130E+02</pdfrwt>
<pdfrwt beam="2">  1       -1 0.11052694E-01 0.78268130E+02</pdfrwt>
<totfact> 0.13386631E+05</totfact>
</mgrwt>
</event>
<event>
 8    1  0.1226832E-024  0.8441269E+02  0.7818608E-02  0.1316976E+00
          2   -1    0    0  501    0  0.00000000000E+00  0.00000000000E+00  0.44419469148E+02  0.44419469221E+02  0.25500000000E-02 0. -1.
         -1   -1    0    0    0  501 -0.00000000000E+00 -0.00000000000E+00 -0.40103488598E+02  0.40103488914E+02  0.50400000000E-02 0.  1.
         24    2    1    2    0    0  0.00000000000E+00  0.00000000000E+00  0.43159805500E+01  0.84522958135E+02  0.84412693144E+02 0.  0.
         66    2    3    3    0    0  0.28031806843E+02  0.27043548049E+01  0.33605236018E+02  0.43890860236E+02  0.19999986732E+01 0.  0.
        -13    1    3    3    0    0 -0.28031806843E+02 -0.27043548049E+01 -0.29289255468E+02  0.40632097899E+02  0.10566000000E+00 0.  1.
         13    1    4    4    0    0  0.15084333998E+02  0.14004445342E+01  0.16997939196E+02  0.22769266084E+02  0.10566000000E+00 0. -1.
        -13    1    4    4    0    0  0.39898374262E+01  0.69058232789E+00  0.46121645024E+01  0.61383167132E+01  0.10566000000E+00 0.  1.
         14    1    4    4    0    0  0.89576354183E+01  0.61332794288E+00  0.11995132320E+02  0.14983277439E+02  0.00000000000E+00 0. -1.
<mgrwt>
<rscale>  0 0.84412693E+02</rscale>
<asrwt>0</asrwt>
<pdfrwt beam="1">  1        2 0.68337645E-02 0.84412693E+02</pdfrwt>
<pdfrwt beam="2">  1       -1 0.61697675E-02 0.84412693E+02</pdfrwt>
<totfact> 0.12560477E+05</totfact>
</mgrwt>
</event>
<event>
 8    1  0.1226832E-024  0.7572808E+02  0.7818608E-02  0.1341631E+00
          2   -1    0    0  501    0  0.00000000000E+00  0.00000000000E+00  0.10849712111E+04  0.10849712111E+04  0.25500000000E-02 0. -1.
         -1   -1    0    0    0  501 -0.00000000000E+00 -0.00000000000E+00 -0.13213993078E+01  0.13214089194E+01  0.50400000000E-02 0.  1.
         24    2    1    2    0    0  0.00000000000E+00  0.00000000000E+00  0.10836498118E+04  0.10862926200E+04  0.75728077473E+02 0.  0.
         66    2    3    3    0    0  0.19164906587E+02 -0.11566179168E+01  0.10099009102E+04  0.10100853824E+04  0.19999980202E+01 0.  0.
        -13    1    3    3    0    0 -0.19164906587E+02  0.11566179168E+01  0.73748901602E+02  0.76207237589E+02  0.10566000000E+00 0.  1.
         13    1    4    4    0    0  0.31015724776E+01 -0.47264889849E+00  0.14114693856E+03  0.14118184223E+03  0.10566000000E+00 0. -1.
        -13    1    4    4    0    0  0.34828961581E+01 -0.14334307825E+00  0.16386980096E+03  0.16390690633E+03  0.10566000000E+00 0.  1.
        -14    1    4    4    0    0  0.12580437951E+02 -0.54062594005E+00  0.70488417065E+03  0.70499663384E+03  0.00000000000E+00 0.  1.
<mgrwt>
<rscale>  0 0.75728077E+02</rscale>
<asrwt>0</asrwt>
<pdfrwt beam="1">  1        2 0.16691907E+00 0.75728077E+02</pdfrwt>
<pdfrwt beam="2">  1       -1 0.20329243E-03 0.75728077E+02</pdfrwt>
<totfact> 0.40647236E+05</totfact>
</mgrwt>
</event>
<event>
 8    1  0.1226832E-024  0.8128235E+02  0.7818608E-02  0.1325451E+00
          2   -1    0    0  501    0  0.00000000000E+00  0.00000000000E+00  0.31029397937E+03  0.31029397938E+03  0.25500000000E-02 0. -1.
         -1   -1    0    0    0  501 -0.00000000000E+00 -0.00000000000E+00 -0.53230314929E+01  0.53230338789E+01  0.50400000000E-02 0.  1.
         24    2    1    2    0    0  0.17763568394E-14  0.00000000000E+00  0.30497094788E+03  0.31561701326E+03  0.81282347467E+02 0.  0.
         66    2    3    3    0    0  0.13697240544E+02  0.10891348044E+02  0.29490123148E+03  0.29542676281E+03  0.19999994022E+01 0.  0.
        -13    1    3    3    0    0 -0.13697240544E+02 -0.10891348044E+02  0.10069716399E+02  0.20190250448E+02  0.10566000000E+00 0.  1.
         13    1    4    4    0    0  0.34827540669E+01  0.32128185171E+01  0.70542771364E+02  0.70701807151E+02  0.10566000000E+00 0. -1.
        -13    1    4    4    0    0  0.62794831309E+01  0.51758662925E+01  0.14956145605E+03  0.14978271529E+03  0.10566000000E+00 0.  1.
         14    1    4    4    0    0  0.39350033466E+01  0.25026632340E+01  0.74797004067E+02  0.74942240372E+02  0.00000000000E+00 0. -1.
<mgrwt>
<rscale>  0 0.81282347E+02</rscale>
<asrwt>0</asrwt>
<pdfrwt beam="1">  1        2 0.47737547E-01 0.81282347E+02</pdfrwt>
<pdfrwt beam="2">  1       -1 0.81892792E-03 0.81282347E+02</pdfrwt>
<totfact> 0.24753389E+05</totfact>
</mgrwt>
</event>
<event>
 8    1  0.1226832E-024  0.7678865E+02  0.7818608E-02  0.1338420E+00
         -1   -1    0    0    0  501 -0.00000000000E+00  0.00000000000E+00  0.61762715316E+01  0.61762735880E+01  0.50400000000E-02 0.  1.
          2   -1    0    0  501    0  0.00000000000E+00 -0.00000000000E+00 -0.23867536178E+03  0.23867536179E+03  0.25500000000E-02 0. -1.
         24    2    1    2    0    0  0.35527136788E-14  0.00000000000E+00 -0.23249909025E+03  0.24485163538E+03  0.76788647486E+02 0.  0.
         66    2    3    3    0    0  0.25688699880E+02 -0.22952522681E+02 -0.17019565565E+03  0.17365854073E+03  0.19999920436E+01 0.  0.
        -13    1    3    3    0    0 -0.25688699880E+02  0.22952522681E+02 -0.62303434598E+02  0.71193094649E+02  0.10566000000E+00 0.  1.
         13    1    4    4    0    0  0.18377573317E+02 -0.16020654076E+02 -0.12072225423E+03  0.12315953226E+03  0.10566000000E+00 0. -1.
        -13    1    4    4    0    0  0.32097258330E+01 -0.36284607785E+01 -0.25035610211E+02  0.25500215885E+02  0.10566000000E+00 0.  1.
        -14    1    4    4    0    0  0.41014007295E+01 -0.33034078266E+01 -0.24437791214E+02  0.24998792583E+02  0.00000000000E+00 0.  1.
<mgrwt>
<rscale>  0 0.76788647E+02</rscale>
<asrwt>0</asrwt>
<pdfrwt beam="1">  1        2 0.36719279E-01 0.76788647E+02</pdfrwt>
<pdfrwt beam="2">  1       -1 0.95019597E-03 0.76788647E+02</pdfrwt>
<totfact> 0.26142139E+05</totfact>
</mgrwt>
</event>
<event>
 8    1  0.1226832E-024  0.8039629E+02  0.7818608E-02  0.1327931E+00
          2   -1    0    0  501    0  0.00000000000E+00  0.00000000000E+00  0.21099464778E+02  0.21099464932E+02  0.25500000000E-02 0. -1.
         -1   -1    0    0    0  501 -0.00000000000E+00 -0.00000000000E+00 -0.76584439065E+02  0.76584439231E+02  0.50400000000E-02 0.  1.
         24    2    1    2    0    0  0.17763568394E-14  0.00000000000E+00 -0.55484974287E+02  0.97683904163E+02  0.80396285740E+02 0.  0.
         66    2    3    3    0    0 -0.13492803065E+02  0.12858995944E+02  0.15480378007E+02  0.24311553093E+02  0.19999998220E+01 0.  0.
        -13    1    3    3    0    0  0.13492803065E+02 -0.12858995944E+02 -0.70965352295E+02  0.73372351070E+02  0.10566000000E+00 0.  1.
         13    1    4    4    0    0 -0.18602910608E+01  0.16271425590E+01  0.20031593167E+01  0.31830939386E+01  0.10566000000E+00 0. -1.
        -13    1    4    4    0    0 -0.10960657028E+02  0.10146542963E+02  0.11886680550E+02  0.19089072139E+02  0.10566000000E+00 0.  1.
        -14    1    4    4    0    0 -0.67185497572E+00  0.10853104219E+01  0.15905381403E+01  0.20393870148E+01  0.00000000000E+00 0.  1.
<mgrwt>
<rscale>  0 0.80396286E+02</rscale>
<asrwt>0</asrwt>
<pdfrwt beam="1">  1        2 0.32460716E-02 0.80396286E+02</pdfrwt>
<pdfrwt beam="2">  1       -1 0.11782221E-01 0.80396286E+02</pdfrwt>
<totfact> 0.12373955E+05</totfact>
</mgrwt>
</event>
<event>
 8    1  0.1226832E-024  0.7913076E+02  0.7818608E-02  0.1331536E+00
         -1   -1    0    0    0  501 -0.00000000000E+00  0.00000000000E+00  0.10136803336E+02  0.10136804589E+02  0.50400000000E-02 0.  1.
          2   -1    0    0  501    0  0.00000000000E+00 -0.00000000000E+00 -0.15442926974E+03  0.15442926976E+03  0.25500000000E-02 0. -1.
         24    2    1    2    0    0  0.88817841970E-15  0.71054273576E-14 -0.14429246641E+03  0.16456607435E+03  0.79130758660E+02 0.  0.
         66    2    3    3    0    0 -0.57796971061E+01 -0.39078413910E+02 -0.68658607803E+02  0.79237186726E+02  0.20000005981E+01 0.  0.
        -13    1    3    3    0    0  0.57796971061E+01  0.39078413910E+02 -0.75633858602E+02  0.85328887625E+02  0.10566000000E+00 0.  1.
         13    1    4    4    0    0 -0.13436105540E+01 -0.89627414859E+01 -0.16949782001E+02  0.19220881826E+02  0.10566000000E+00 0.  1.
        -13    1    4    4    0    0 -0.28393749123E+01 -0.15352588329E+02 -0.26933628097E+02  0.31131904934E+02  0.10566000000E+00 0. -1.
        -14    1    4    4    0    0 -0.15967116398E+01 -0.14763084095E+02 -0.24775197705E+02  0.28884399966E+02  0.00000000000E+00 0.  1.
<mgrwt>
<rscale>  0 0.79130759E+02</rscale>
<asrwt>0</asrwt>
<pdfrwt beam="1">  1        2 0.23758347E-01 0.79130759E+02</pdfrwt>
<pdfrwt beam="2">  1       -1 0.15595084E-02 0.79130759E+02</pdfrwt>
<totfact> 0.20813525E+05</totfact>
</mgrwt>
</event>
<event>
 8    1  0.1226832E-024  0.7733227E+02  0.7818608E-02  0.1336797E+00
          2   -1    0    0  501    0  0.00000000000E+00  0.00000000000E+00  0.91351498424E+01  0.91351501983E+01  0.25500000000E-02 0. -1.
         -1   -1    0    0    0  501 -0.00000000000E+00 -0.00000000000E+00 -0.16366122031E+03  0.16366122038E+03  0.50400000000E-02 0.  1.
         24    2    1    2    0    0  0.00000000000E+00  0.00000000000E+00 -0.15452607046E+03  0.17279637058E+03  0.77332265150E+02 0.  0.
         66    2    3    3    0    0  0.23052827471E+01 -0.30417465886E+02 -0.24318204820E+02  0.39062919274E+02  0.20000042543E+01 0.  0.
        -13    1    3    3    0    0 -0.23052827471E+01  0.30417465886E+02 -0.13020786564E+03  0.13373345131E+03  0.10566000000E+00 0.  1.
         13    1    4    4    0    0  0.36538219513E+00 -0.11361497121E+02 -0.99331549552E+01  0.15096219805E+02  0.10566000000E+00 0. -1.
        -13    1    4    4    0    0  0.36247007027E+00 -0.44476705152E+01 -0.37257421798E+01  0.58142477062E+01  0.10566000000E+00 0.  1.
         14    1    4    4    0    0  0.15774304817E+01 -0.14608298249E+02 -0.10659307686E+02  0.18152451763E+02  0.00000000000E+00 0. -1.
<mgrwt>
<rscale>  0 0.77332265E+02</rscale>
<asrwt>0</asrwt>
<pdfrwt beam="1">  1        2 0.14054078E-02 0.77332265E+02</pdfrwt>
<pdfrwt beam="2">  1       -1 0.25178647E-01 0.77332265E+02</pdfrwt>
<totfact> 0.11490287E+05</totfact>
</mgrwt>
</event>
<event>
 8    1  0.1226832E-024  0.8024968E+02  0.7818608E-02  0.1328344E+00
          2   -1    0    0  501    0  0.00000000000E+00  0.00000000000E+00  0.30141194702E+04  0.30141194702E+04  0.25500000000E-02 0. -1.
         -1   -1    0    0    0  501 -0.00000000000E+00 -0.00000000000E+00 -0.53414174328E+00  0.53416552071E+00  0.50400000000E-02 0.  1.
         24    2    1    2    0    0  0.00000000000E+00  0.44408920985E-15  0.30135853285E+04  0.30146536357E+04  0.80249682124E+02 0.  0.
         66    2    3    3    0    0  0.11777823581E+02  0.37769231044E+01  0.29406656961E+04  0.29406923876E+04  0.20000001816E+01 0.  0.
        -13    1    3    3    0    0 -0.11777823581E+02 -0.37769231044E+01  0.72919632347E+02  0.73961248111E+02  0.10566000000E+00 0.  1.
         13    1    4    4    0    0  0.57541530198E+01  0.24350580984E+01  0.15122501749E+04  0.15122630864E+04  0.10566000000E+00 0. -1.
        -13    1    4    4    0    0  0.22822498761E+01  0.24873263029E+00  0.42562317190E+03  0.42562937651E+03  0.10566000000E+00 0.  1.
        -14    1    4    4    0    0  0.37414206849E+01  0.10931323757E+01  0.10027923493E+04  0.10027999248E+04  0.00000000000E+00 0.  1.
<mgrwt>
<rscale>  0 0.80249682E+02</rscale>
<asrwt>0</asrwt>
<pdfrwt beam="1">  1        2 0.46372205E+00 0.80249682E+02</pdfrwt>
<pdfrwt beam="2">  1       -1 0.82175469E-04 0.80249682E+02</pdfrwt>
<totfact> 0.14137644E+05</totfact>
</mgrwt>
</event>
<event>
 8    1  0.1226832E-024  0.7914636E+02  0.7818608E-02  0.1331492E+00
         -1   -1    0    0    0  501 -0.00000000000E+00  0.00000000000E+00  0.17523885582E+02  0.17523886306E+02  0.50400000000E-02 0.  1.
          2   -1    0    0  501    0  0.00000000000E+00 -0.00000000000E+00 -0.89365821311E+02  0.89365821347E+02  0.25500000000E-02 0. -1.
         24    2    1    2    0    0  0.00000000000E+00  0.00000000000E+00 -0.71841935729E+02  0.10688970765E+03  0.79146357294E+02 0.  0.
         66    2    3    3    0    0  0.15321006701E+02 -0.35914911368E+02 -0.44422927329E+02  0.59177787858E+02  0.19999996009E+01 0.  0.
        -13    1    3    3    0    0 -0.15321006701E+02  0.35914911368E+02 -0.27419008401E+02  0.47711919796E+02  0.10566000000E+00 0.  1.
         13    1    4    4    0    0  0.58528683016E+01 -0.15350770744E+02 -0.18924427445E+02  0.25060872849E+02  0.10566000000E+00 0. -1.
        -13    1    4    4    0    0  0.85770210555E+01 -0.18551016628E+02 -0.23491237854E+02  0.31137676986E+02  0.10566000000E+00 0.  1.
        -14    1    4    4    0    0  0.89111734371E+00 -0.20131239959E+01 -0.20072620297E+01  0.29792380232E+01  0.00000000000E+00 0.  1.
<mgrwt>
<rscale>  0 0.79146357E+02</rscale>
<asrwt>0</asrwt>
<pdfrwt beam="1">  1        2 0.13748588E-01 0.79146357E+02</pdfrwt>
<pdfrwt beam="2">  1       -1 0.26959825E-02 0.79146357E+02</pdfrwt>
<totfact> 0.17690355E+05</totfact>
</mgrwt>
</event>
<event>
 8    1  0.1226832E-024  0.7855040E+02  0.7818608E-02  0.1333216E+00
          2   -1    0    0  501    0  0.00000000000E+00  0.00000000000E+00  0.41937580137E+03  0.41937580138E+03  0.25500000000E-02 0. -1.
         -1   -1    0    0    0  501 -0.00000000000E+00 -0.00000000000E+00 -0.36781820168E+01  0.36781854698E+01  0.50400000000E-02 0.  1.
         24    2    1    2    0    0  0.35527136788E-14  0.00000000000E+00  0.41569761935E+03  0.42305398685E+03  0.78550398164E+02 0.  0.
         66    2    3    3    0    0  0.25884410273E+02 -0.21907946145E+02  0.31442196460E+03  0.31625169189E+03  0.19999994446E+01 0.  0.
        -13    1    3    3    0    0 -0.25884410273E+02  0.21907946145E+02  0.10127565475E+03  0.10680229496E+03  0.10566000000E+00 0.  1.
         13    1    4    4    0    0  0.16333214989E+02 -0.13815116102E+02  0.19732739890E+03  0.19848361360E+03  0.10566000000E+00 0. -1.
        -13    1    4    4    0    0  0.59056831594E+01 -0.55595126231E+01  0.71967664995E+02  0.72423347361E+02  0.10566000000E+00 0.  1.
         14    1    4    4    0    0  0.36455121251E+01 -0.25333174196E+01  0.45126900709E+02  0.45344730933E+02  0.00000000000E+00 0. -1.
<mgrwt>
<rscale>  0 0.78550398E+02</rscale>
<asrwt>0</asrwt>
<pdfrwt beam="1">  1        2 0.64519359E-01 0.78550398E+02</pdfrwt>
<pdfrwt beam="2">  1       -1 0.56587438E-03 0.78550398E+02</pdfrwt>
<totfact> 0.30124567E+05</totfact>
</mgrwt>
</event>
<event>
 8    1  0.1226832E-024  0.8195239E+02  0.7818608E-02  0.1323600E+00
         -1   -1    0    0    0  501 -0.00000000000E+00  0.00000000000E+00  0.21076337261E+01  0.21076397522E+01  0.50400000000E-02 0.  1.
          2   -1    0    0  501    0  0.00000000000E+00 -0.00000000000E+00 -0.79664993375E+03  0.79664993375E+03  0.25500000000E-02 0. -1.
         24    2    1    2    0    0 -0.17763568394E-14 -0.88817841970E-15 -0.79454230002E+03  0.79875757351E+03  0.81952392927E+02 0.  0.
         66    2    3    3    0    0  0.11140428124E+02 -0.73488618676E+01 -0.77485665527E+03  0.77497416158E+03  0.19999969779E+01 0.  0.
        -13    1    3    3    0    0 -0.11140428124E+02  0.73488618676E+01 -0.19685644755E+02  0.23783411929E+02  0.10566000000E+00 0.  1.
         13    1    4    4    0    0  0.74097214497E+01 -0.46709502748E+01 -0.55042573252E+03  0.55049543135E+03  0.10566000000E+00 0. -1.
        -13    1    4    4    0    0  0.74652970671E+00 -0.33056832526E+00 -0.46733995801E+02  0.46741246342E+02  0.10566000000E+00 0. -1.
        -14    1    4    4    0    0  0.29841769679E+01 -0.23473432675E+01 -0.17769692694E+03  0.17773748388E+03  0.00000000000E+00 0.  1.
<mgrwt>
<rscale>  0 0.81952393E+02</rscale>
<asrwt>0</asrwt>
<pdfrwt beam="1">  1        2 0.12256129E+00 0.81952393E+02</pdfrwt>
<pdfrwt beam="2">  1       -1 0.32425244E-03 0.81952393E+02</pdfrwt>
<totfact> 0.32253162E+05</totfact>
</mgrwt>
</event>
<event>
 8    1  0.1226832E-024  0.8065558E+02  0.7818608E-02  0.1327201E+00
         -1   -1    0    0    0  501 -0.00000000000E+00  0.00000000000E+00  0.41868942859E+01  0.41868973194E+01  0.50400000000E-02 0.  1.
          2   -1    0    0  501    0  0.00000000000E+00 -0.00000000000E+00 -0.38843346885E+03  0.38843346885E+03  0.25500000000E-02 0. -1.
         24    2    1    2    0    0  0.00000000000E+00 -0.16653345369E-15 -0.38424657456E+03  0.39262036617E+03  0.80655575587E+02 0.  0.
         66    2    3    3    0    0 -0.23031792873E+02  0.34420157361E+00 -0.35323008188E+03  0.35398597812E+03  0.20000017348E+01 0.  0.
        -13    1    3    3    0    0  0.23031792873E+02 -0.34420157361E+00 -0.31016492681E+02  0.38634388049E+02  0.10566000000E+00 0.  1.
         13    1    4    4    0    0 -0.91222146496E+00 -0.76853438377E-01 -0.13060919775E+02  0.13093389319E+02  0.10566000000E+00 0. -1.
        -13    1    4    4    0    0 -0.82937037447E+01 -0.70411272273E+00 -0.12916322880E+03  0.12943118687E+03  0.10566000000E+00 0.  1.
        -14    1    4    4    0    0 -0.13825867663E+02  0.11251677347E+01 -0.21100593330E+03  0.21146140193E+03  0.00000000000E+00 0.  1.
<mgrwt>
<rscale>  0 0.80655576E+02</rscale>
<asrwt>0</asrwt>
<pdfrwt beam="1">  1        2 0.59758967E-01 0.80655576E+02</pdfrwt>
<pdfrwt beam="2">  1       -1 0.64413812E-03 0.80655576E+02</pdfrwt>
<totfact> 0.27373919E+05</totfact>
</mgrwt>
</event>
<event>
 8    1  0.1226832E-024  0.7981489E+02  0.7818608E-02  0.1329578E+00
         -1   -1    0    0    0  501 -0.00000000000E+00  0.00000000000E+00  0.99278256988E+02  0.99278257115E+02  0.50400000000E-02 0.  1.
          2   -1    0    0  501    0  0.00000000000E+00 -0.00000000000E+00 -0.16041823246E+02  0.16041823449E+02  0.25500000000E-02 0. -1.
         24    2    1    2    0    0  0.00000000000E+00  0.00000000000E+00  0.83236433741E+02  0.11532008056E+03  0.79814892592E+02 0.  0.
         66    2    3    3    0    0  0.29435297393E+01 -0.31217442206E+02  0.60352062022E+01  0.31994011638E+02  0.20000003896E+01 0.  0.
        -13    1    3    3    0    0 -0.29435297393E+01  0.31217442206E+02  0.77201227539E+02  0.83326068927E+02  0.10566000000E+00 0.  1.
         13    1    4    4    0    0  0.17595569907E+01 -0.19363717362E+02  0.37966916303E+01  0.19810997507E+02  0.10566000000E+00 0. -1.
        -13    1    4    4    0    0 -0.15867680053E+00 -0.39888306510E+01  0.88647739745E+00  0.40905934167E+01  0.10566000000E+00 0.  1.
         14    1    4    4    0    0  0.13426495492E+01 -0.78648941935E+01  0.13520371745E+01  0.80924207138E+01  0.00000000000E+00 0. -1.
<mgrwt>
<rscale>  0 0.79814893E+02</rscale>
<asrwt>0</asrwt>
<pdfrwt beam="1">  1        2 0.24679727E-02 0.79814893E+02</pdfrwt>
<pdfrwt beam="2">  1       -1 0.15273579E-01 0.79814893E+02</pdfrwt>
<totfact> 0.11940116E+05</totfact>
</mgrwt>
</event>
<event>
 8    1  0.1226832E-024  0.8194307E+02  0.7818608E-02  0.1323626E+00
          2   -1    0    0  501    0  0.00000000000E+00  0.00000000000E+00  0.32824671242E+03  0.32824671243E+03  0.25500000000E-02 0. -1.
         -1   -1    0    0    0  501 -0.00000000000E+00 -0.00000000000E+00 -0.51140377733E+01  0.51140402568E+01  0.50400000000E-02 0.  1.
         24    2    1    2    0    0  0.00000000000E+00 -0.17763568394E-14  0.32313267465E+03  0.33336075269E+03  0.81943065647E+02 0.  0.
         66    2    3    3    0    0  0.94933161666E+01 -0.78738954034E+01  0.32050664107E+03  0.32075010255E+03  0.20000077827E+01 0.  0.
        -13    1    3    3    0    0 -0.94933161666E+01  0.78738954034E+01  0.26260335774E+01  0.12610650144E+02  0.10566000000E+00 0.  1.
         13    1    4    4    0    0  0.42108537824E+01 -0.45560078574E+01  0.14746357494E+03  0.14759405678E+03  0.10566000000E+00 0. -1.
        -13    1    4    4    0    0  0.51269442896E+01 -0.32942827778E+01  0.16799503168E+03  0.16810556115E+03  0.10566000000E+00 0.  1.
        -14    1    4    4    0    0  0.15551809450E+00 -0.23604768243E-01  0.50480344463E+01  0.50504846138E+01  0.00000000000E+00 0.  1.
<mgrwt>
<rscale>  0 0.81943066E+02</rscale>
<asrwt>0</asrwt>
<pdfrwt beam="1">  1        2 0.50499505E-01 0.81943066E+02</pdfrwt>
<pdfrwt beam="2">  1       -1 0.78677506E-03 0.81943066E+02</pdfrwt>
<totfact> 0.24730636E+05</totfact>
</mgrwt>
</event>
<event>
 8    1  0.1226832E-024  0.8331365E+02  0.7818608E-02  0.1319902E+00
         -1   -1    0    0    0  501 -0.00000000000E+00  0.00000000000E+00  0.28348772733E+01  0.28348817535E+01  0.50400000000E-02 0.  1.
          2   -1    0    0  501    0  0.00000000000E+00 -0.00000000000E+00 -0.61212169701E+03  0.61212169702E+03  0.25500000000E-02 0. -1.
         24    2    1    2    0    0 -0.44408920985E-15  0.00000000000E+00 -0.60928681974E+03  0.61495657877E+03  0.83313654741E+02 0.  0.
         66    2    3    3    0    0 -0.36908961480E+01 -0.21388388323E+02 -0.56705454298E+03  0.56747329505E+03  0.20000003852E+01 0.  0.
        -13    1    3    3    0    0  0.36908961480E+01  0.21388388323E+02 -0.42232276757E+02  0.47483283728E+02  0.10566000000E+00 0.  1.
         13    1    4    4    0    0 -0.40123407974E-01 -0.16240011309E+00 -0.70019186785E+01  0.70047136202E+01  0.10566000000E+00 0. -1.
        -13    1    4    4    0    0 -0.15110477430E+00 -0.12243763200E+01 -0.41752810887E+02  0.41771166024E+02  0.10566000000E+00 0.  1.
         14    1    4    4    0    0 -0.34996679658E+01 -0.20001611890E+02 -0.51829981342E+03  0.51869741540E+03  0.00000000000E+00 0. -1.
<mgrwt>
<rscale>  0 0.83313655E+02</rscale>
<asrwt>0</asrwt>
<pdfrwt beam="1">  1        2 0.94172464E-01 0.83313655E+02</pdfrwt>
<pdfrwt beam="2">  1       -1 0.43613580E-03 0.83313655E+02</pdfrwt>
<totfact> 0.29094133E+05</totfact>
</mgrwt>
</event>
<event>
 8    1  0.1226832E-024  0.7779501E+02  0.7818608E-02  0.1335428E+00
          2   -1    0    0  501    0  0.00000000000E+00  0.00000000000E+00  0.15677310545E+03  0.15677310547E+03  0.25500000000E-02 0. -1.
         -1   -1    0    0    0  501 -0.00000000000E+00 -0.00000000000E+00 -0.96509908239E+01  0.96509921399E+01  0.50400000000E-02 0.  1.
         24    2    1    2    0    0  0.00000000000E+00  0.00000000000E+00  0.14712211463E+03  0.16642409761E+03  0.77795010466E+02 0.  0.
         66    2    3    3    0    0 -0.20904273084E+02 -0.32230001238E+02  0.86310607593E+02  0.94494881262E+02  0.19999971530E+01 0.  0.
        -13    1    3    3    0    0  0.20904273084E+02  0.32230001238E+02  0.60811507033E+02  0.71929216349E+02  0.10566000000E+00 0.  1.
         13    1    4    4    0    0 -0.15719339936E+02 -0.25382279297E+02  0.65715522863E+02  0.72179629118E+02  0.10566000000E+00 0. -1.
        -13    1    4    4    0    0 -0.28872652091E+01 -0.39123156676E+01  0.11738611155E+02  0.12706245321E+02  0.10566000000E+00 0.  1.
         14    1    4    4    0    0 -0.22976679381E+01 -0.29354062734E+01  0.88564735747E+01  0.96090068230E+01  0.00000000000E+00 0. -1.
<mgrwt>
<rscale>  0 0.77795010E+02</rscale>
<asrwt>0</asrwt>
<pdfrwt beam="1">  1        2 0.24118938E-01 0.77795010E+02</pdfrwt>
<pdfrwt beam="2">  1       -1 0.14847680E-02 0.77795010E+02</pdfrwt>
<totfact> 0.21879239E+05</totfact>
</mgrwt>
</event>
<event>
 8    1  0.1226832E-024  0.8688145E+02  0.7818608E-02  0.1310584E+00
          2   -1    0    0  501    0  0.00000000000E+00  0.00000000000E+00  0.14373364977E+02  0.14373365203E+02  0.25500000000E-02 0. -1.
         -1   -1    0    0    0  501 -0.00000000000E+00 -0.00000000000E+00 -0.13129121102E+03  0.13129121111E+03  0.50400000000E-02 0.  1.
         24    2    1    2    0    0  0.00000000000E+00 -0.17763568394E-14 -0.11691784604E+03  0.14566457632E+03  0.86881448369E+02 0.  0.
         66    2    3    3    0    0 -0.19311170391E+02  0.15843024008E+02  0.10508251145E+01  0.25080409654E+02  0.20000008510E+01 0.  0.
        -13    1    3    3    0    0  0.19311170391E+02 -0.15843024008E+02 -0.11796867115E+03  0.12058416666E+03  0.10566000000E+00 0.  1.
         13    1    4    4    0    0 -0.93124916809E+01  0.84327609206E+01  0.94020526109E+00  0.12598774068E+02  0.10566000000E+00 0. -1.
        -13    1    4    4    0    0 -0.70353435462E+00  0.39514394602E+00 -0.17709575262E+00  0.83284228243E+00  0.10566000000E+00 0.  1.
        -14    1    4    4    0    0 -0.92951443558E+01  0.70151191414E+01  0.28771560602E+00  0.11648793304E+02  0.00000000000E+00 0.  1.
<mgrwt>
<rscale>  0 0.86881448E+02</rscale>
<asrwt>0</asrwt>
<pdfrwt beam="1">  1        2 0.22112870E-02 0.86881448E+02</pdfrwt>
<pdfrwt beam="2">  1       -1 0.20198647E-01 0.86881448E+02</pdfrwt>
<totfact> 0.90557386E+04</totfact>
</mgrwt>
</event>
<event>
 8    1  0.1226832E-024  0.8000623E+02  0.7818608E-02  0.1329034E+00
          2   -1    0    0  501    0  0.00000000000E+00  0.00000000000E+00  0.46699868518E+02  0.46699868587E+02  0.25500000000E-02 0. -1.
         -1   -1    0    0    0  501 -0.00000000000E+00 -0.00000000000E+00 -0.34266673641E+02  0.34266674012E+02  0.50400000000E-02 0.  1.
         24    2    1    2    0    0 -0.22204460493E-15  0.00000000000E+00  0.12433194877E+02  0.80966542599E+02  0.80006229042E+02 0.  0.
         66    2    3    3    0    0 -0.19800000900E+01 -0.35920486611E+02  0.23866578323E+02  0.43218228996E+02  0.19999994908E+01 0.  0.
        -13    1    3    3    0    0  0.19800000900E+01  0.35920486611E+02 -0.11433383447E+02  0.37748313603E+02  0.10566000000E+00 0.  1.
         13    1    4    4    0    0 -0.30404011703E+00 -0.61346719776E+01  0.37616265988E+01  0.72033075299E+01  0.10566000000E+00 0. -1.
        -13    1    4    4    0    0  0.14578009053E+00 -0.81399202861E+01  0.60196460232E+01  0.10125554621E+02  0.10566000000E+00 0.  1.
         14    1    4    4    0    0 -0.18217400635E+01 -0.21645894348E+02  0.14085305701E+02  0.25889366846E+02  0.00000000000E+00 0. -1.
<mgrwt>
<rscale>  0 0.80006229E+02</rscale>
<asrwt>0</asrwt>
<pdfrwt beam="1">  1        2 0.71845952E-02 0.80006229E+02</pdfrwt>
<pdfrwt beam="2">  1       -1 0.52717960E-02 0.80006229E+02</pdfrwt>
<totfact> 0.14721566E+05</totfact>
</mgrwt>
</event>
<event>
 8    1  0.1226832E-024  0.7668887E+02  0.7818608E-02  0.1338719E+00
          2   -1    0    0  501    0  0.00000000000E+00  0.00000000000E+00  0.32866373694E+02  0.32866373793E+02  0.25500000000E-02 0. -1.
         -1   -1    0    0    0  501 -0.00000000000E+00 -0.00000000000E+00 -0.44735563709E+02  0.44735563993E+02  0.50400000000E-02 0.  1.
         24    2    1    2    0    0  0.00000000000E+00  0.00000000000E+00 -0.11869190015E+02  0.77601937786E+02  0.76688871921E+02 0.  0.
         66    2    3    3    0    0  0.16187885757E+02 -0.34597041491E+02 -0.28547231163E+01  0.38355604165E+02  0.20000003824E+01 0.  0.
        -13    1    3    3    0    0 -0.16187885757E+02  0.34597041491E+02 -0.90144668983E+01  0.39246333621E+02  0.10566000000E+00 0.  1.
         13    1    4    4    0    0  0.13775369163E+02 -0.28324945424E+02 -0.23967278155E+01  0.31588269929E+02  0.10566000000E+00 0. -1.
        -13    1    4    4    0    0  0.10841771505E+01 -0.22468734441E+01  0.55374158181E-01  0.24976210082E+01  0.10566000000E+00 0.  1.
        -14    1    4    4    0    0  0.13283394436E+01 -0.40252226228E+01 -0.51336945905E+00  0.42697132271E+01  0.00000000000E+00 0.  1.
<mgrwt>
<rscale>  0 0.76688872E+02</rscale>
<asrwt>0</asrwt>
<pdfrwt beam="1">  1        2 0.50563652E-02 0.76688872E+02</pdfrwt>
<pdfrwt beam="2">  1       -1 0.68823945E-02 0.76688872E+02</pdfrwt>
<totfact> 0.15409320E+05</totfact>
</mgrwt>
</event>
<event>
 8    1  0.1226832E-024  0.8126186E+02  0.7818608E-02  0.1325508E+00
          2   -1    0    0  501    0  0.00000000000E+00  0.00000000000E+00  0.25877831308E+03  0.25877831309E+03  0.25500000000E-02 0. -1.
         -1   -1    0    0    0  501 -0.00000000000E+00 -0.00000000000E+00 -0.63794851312E+01  0.63794871221E+01  0.50400000000E-02 0.  1.
         24    2    1    2    0    0  0.00000000000E+00 -0.71054273576E-14  0.25239882795E+03  0.26515780021E+03  0.81261864762E+02 0.  0.
         66    2    3    3    0    0  0.13103842246E+01  0.39258477606E+02  0.15985804779E+03  0.16462545553E+03  0.19999988236E+01 0.  0.
        -13    1    3    3    0    0 -0.13103842246E+01 -0.39258477606E+02  0.92540780156E+02  0.10053234468E+03  0.10566000000E+00 0.  1.
         13    1    4    4    0    0  0.69059407503E+00  0.32933359136E+02  0.13182602353E+03  0.13587933879E+03  0.10566000000E+00 0. -1.
        -13    1    4    4    0    0  0.10351376934E+00  0.67961293180E+00  0.28026115262E+01  0.28876260561E+01  0.10566000000E+00 0.  1.
         14    1    4    4    0    0  0.51627638022E+00  0.56455055383E+01  0.25229412732E+02  0.25858490692E+02  0.00000000000E+00 0. -1.
<mgrwt>
<rscale>  0 0.81261865E+02</rscale>
<asrwt>0</asrwt>
<pdfrwt beam="1">  1        2 0.39812041E-01 0.81261865E+02</pdfrwt>
<pdfrwt beam="2">  1       -1 0.98145958E-03 0.81261865E+02</pdfrwt>
<totfact> 0.23191760E+05</totfact>
</mgrwt>
</event>
<event>
 8    1  0.1226832E-024  0.7516081E+02  0.7818608E-02  0.1343374E+00
          2   -1    0    0  501    0  0.00000000000E+00  0.00000000000E+00  0.47011197878E+02  0.47011197947E+02  0.25500000000E-02 0. -1.
         -1   -1    0    0    0  501 -0.00000000000E+00 -0.00000000000E+00 -0.30041496878E+02  0.30041497300E+02  0.50400000000E-02 0.  1.
         24    2    1    2    0    0  0.00000000000E+00  0.00000000000E+00  0.16969701000E+02  0.77052695247E+02  0.75160808224E+02 0.  0.
         66    2    3    3    0    0  0.33707864765E+02 -0.49796379135E+01 -0.76946915543E+01  0.34988929785E+02  0.19999971609E+01 0.  0.
        -13    1    3    3    0    0 -0.33707864765E+02  0.49796379135E+01  0.24664392554E+02  0.42063765462E+02  0.10566000000E+00 0.  1.
         13    1    4    4    0    0  0.33327211600E+01 -0.20207909601E+00 -0.57399778420E+00  0.33894695431E+01  0.10566000000E+00 0. -1.
        -13    1    4    4    0    0  0.15521572968E+01 -0.17042061417E+00 -0.47351329816E-01  0.15657719003E+01  0.10566000000E+00 0.  1.
         14    1    4    4    0    0  0.28822986308E+02 -0.46071382034E+01 -0.70733424403E+01  0.30033688342E+02  0.00000000000E+00 0. -1.
<mgrwt>
<rscale>  0 0.75160808E+02</rscale>
<asrwt>0</asrwt>
<pdfrwt beam="1">  1        2 0.72324920E-02 0.75160808E+02</pdfrwt>
<pdfrwt beam="2">  1       -1 0.46217688E-02 0.75160808E+02</pdfrwt>
<totfact> 0.17487504E+05</totfact>
</mgrwt>
</event>
<event>
 8    1  0.1226832E-024  0.7975359E+02  0.7818608E-02  0.1329752E+00
         -1   -1    0    0    0  501 -0.00000000000E+00  0.00000000000E+00  0.64694478733E+00  0.64696441900E+00  0.50400000000E-02 0.  1.
          2   -1    0    0  501    0  0.00000000000E+00 -0.00000000000E+00 -0.24579140519E+04  0.24579140519E+04  0.25500000000E-02 0. -1.
         24    2    1    2    0    0  0.00000000000E+00  0.00000000000E+00 -0.24572671071E+04  0.24585610163E+04  0.79753590967E+02 0.  0.
         66    2    3    3    0    0 -0.81912818937E+01  0.12444686127E+02 -0.23688290533E+04  0.23688767488E+04  0.20000007187E+01 0.  0.
        -13    1    3    3    0    0  0.81912818937E+01 -0.12444686127E+02 -0.88438053805E+02  0.89684267498E+02  0.10566000000E+00 0.  1.
         13    1    4    4    0    0 -0.31952140847E+01  0.53975101500E+01 -0.94331127505E+03  0.94333213414E+03  0.10566000000E+00 0. -1.
        -13    1    4    4    0    0 -0.31171239344E+00  0.12360251185E+01 -0.19386882715E+03  0.19387304668E+03  0.10566000000E+00 0.  1.
        -14    1    4    4    0    0 -0.46843554155E+01  0.58111508587E+01 -0.12316489511E+04  0.12316715680E+04  0.00000000000E+00 0.  1.
<mgrwt>
<rscale>  0 0.79753591E+02</rscale>
<asrwt>0</asrwt>
<pdfrwt beam="1">  1        2 0.37813315E+00 0.79753591E+02</pdfrwt>
<pdfrwt beam="2">  1       -1 0.99533445E-04 0.79753591E+02</pdfrwt>
<totfact> 0.21741549E+05</totfact>
</mgrwt>
</event>
<event>
 8    1  0.1226832E-024  0.8089946E+02  0.7818608E-02  0.1326518E+00
          2   -1    0    0  501    0  0.00000000000E+00  0.00000000000E+00  0.51291043272E+03  0.51291043273E+03  0.25500000000E-02 0. -1.
         -1   -1    0    0    0  501 -0.00000000000E+00 -0.00000000000E+00 -0.31899910970E+01  0.31899950785E+01  0.50400000000E-02 0.  1.
         24    2    1    2    0    0  0.00000000000E+00 -0.35527136788E-14  0.50972044162E+03  0.51610042780E+03  0.80899462124E+02 0.  0.
         66    2    3    3    0    0 -0.31287311095E+02 -0.19157662478E+02  0.36332933223E+03  0.36518230450E+03  0.19999993364E+01 0.  0.
        -13    1    3    3    0    0  0.31287311095E+02  0.19157662478E+02  0.14639110939E+03  0.15091812330E+03  0.10566000000E+00 0.  1.
         13    1    4    4    0    0 -0.58005091895E+01 -0.39401764601E+01  0.66335675729E+02  0.66705351628E+02  0.10566000000E+00 0. -1.
        -13    1    4    4    0    0 -0.49463065205E+01 -0.34638695170E+01  0.64237131198E+02  0.64520419472E+02  0.10566000000E+00 0.  1.
         14    1    4    4    0    0 -0.20540495385E+02 -0.11753616500E+02  0.23275652530E+03  0.23395653340E+03  0.00000000000E+00 0. -1.
<mgrwt>
<rscale>  0 0.80899462E+02</rscale>
<asrwt>0</asrwt>
<pdfrwt beam="1">  1        2 0.78909286E-01 0.80899462E+02</pdfrwt>
<pdfrwt beam="2">  1       -1 0.49076824E-03 0.80899462E+02</pdfrwt>
<totfact> 0.29815986E+05</totfact>
</mgrwt>
</event>
<event>
 8    1  0.1226832E-024  0.8119144E+02  0.7818608E-02  0.1325704E+00
         -1   -1    0    0    0  501 -0.00000000000E+00  0.00000000000E+00  0.78883584023E+01  0.78883600124E+01  0.50400000000E-02 0.  1.
          2   -1    0    0  501    0  0.00000000000E+00 -0.00000000000E+00 -0.20891702401E+03  0.20891702403E+03  0.25500000000E-02 0. -1.
         24    2    1    2    0    0 -0.35527136788E-14  0.35527136788E-14 -0.20102866561E+03  0.21680538404E+03  0.81191441371E+02 0.  0.
         66    2    3    3    0    0  0.29579083650E+02  0.25617519346E+02 -0.12918950141E+03  0.13500039542E+03  0.20000001414E+01 0.  0.
        -13    1    3    3    0    0 -0.29579083650E+02 -0.25617519346E+02 -0.71839164195E+02  0.81804988620E+02  0.10566000000E+00 0.  1.
         13    1    4    4    0    0  0.66426463323E+01  0.66390891148E+01 -0.29971940535E+02  0.31409085278E+02  0.10566000000E+00 0. -1.
        -13    1    4    4    0    0  0.35336659033E+01  0.28653511444E+01 -0.16228708377E+02  0.16854648365E+02  0.10566000000E+00 0.  1.
        -14    1    4    4    0    0  0.19402771414E+02  0.16113079086E+02 -0.82988852503E+02  0.86736661775E+02  0.00000000000E+00 0.  1.
<mgrwt>
<rscale>  0 0.81191441E+02</rscale>
<asrwt>0</asrwt>
<pdfrwt beam="1">  1        2 0.32141076E-01 0.81191441E+02</pdfrwt>
<pdfrwt beam="2">  1       -1 0.12135939E-02 0.81191441E+02</pdfrwt>
<totfact> 0.21539769E+05</totfact>
</mgrwt>
</event>
<event>
 8    1  0.1363364E-024  0.8013870E+02  0.7818608E-02  0.1328658E+00
         -1   -1    0    0    0  501 -0.00000000000E+00  0.00000000000E+00  0.19154572271E+01  0.19154638578E+01  0.50400000000E-02 0.  1.
          2   -1    0    0  501    0  0.00000000000E+00 -0.00000000000E+00 -0.83820726368E+03  0.83820726369E+03  0.25500000000E-02 0. -1.
         24    2    1    2    0    0  0.00000000000E+00  0.35527136788E-14 -0.83629180645E+03  0.84012272754E+03  0.80138703457E+02 0.  0.
         66    2    3    3    0    0  0.30451380860E+01  0.31032794575E+02 -0.68179480318E+03  0.68251041080E+03  0.19999997262E+01 0.  0.
        -13    1    3    3    0    0 -0.30451380860E+01 -0.31032794575E+02 -0.15449700328E+03  0.15761231675E+03  0.10566000000E+00 0.  1.
         13    1    4    4    0    0  0.20667138279E+01  0.18312725451E+02 -0.40420074419E+03  0.40462066184E+03  0.10566000000E+00 0. -1.
        -13    1    4    4    0    0  0.80235405702E+00  0.10572209678E+02 -0.23979186974E+03  0.24002618054E+03  0.10566000000E+00 0.  1.
        -14    1    4    4    0    0  0.17607020102E+00  0.21478594456E+01 -0.37802189249E+02  0.37863568412E+02  0.00000000000E+00 0.  1.
<mgrwt>
<rscale>  0 0.80138703E+02</rscale>
<asrwt>0</asrwt>
<pdfrwt beam="1">  1        2 0.12895467E+00 0.80138703E+02</pdfrwt>
<pdfrwt beam="2">  1       -1 0.29468691E-03 0.80138703E+02</pdfrwt>
<totfact> 0.34469323E+05</totfact>
</mgrwt>
</event>
<event>
 8    1  0.1226832E-024  0.8146636E+02  0.7818608E-02  0.1324941E+00
         -1   -1    0    0    0  501 -0.00000000000E+00  0.00000000000E+00  0.30319446696E+03  0.30319446700E+03  0.50400000000E-02 0.  1.
          2   -1    0    0  501    0  0.00000000000E+00 -0.00000000000E+00 -0.54723678648E+01  0.54723684589E+01  0.25500000000E-02 0. -1.
         24    2    1    2    0    0  0.00000000000E+00 -0.17763568394E-14  0.29772209910E+03  0.30866683546E+03  0.81466355164E+02 0.  0.
         66    2    3    3    0    0 -0.37555522924E+02 -0.14411999194E+02  0.17263145575E+03  0.17726743196E+03  0.19999744208E+01 0.  0.
        -13    1    3    3    0    0  0.37555522924E+02  0.14411999194E+02  0.12509064335E+03  0.13139940350E+03  0.10566000000E+00 0.  1.
         13    1    4    4    0    0 -0.14599870763E+02 -0.54108248614E+01  0.66834614718E+02  0.68624413589E+02  0.10566000000E+00 0. -1.
        -13    1    4    4    0    0 -0.13949097821E+01 -0.53057638233E+00  0.50301813864E+01  0.52479685035E+01  0.10566000000E+00 0.  1.
         14    1    4    4    0    0 -0.21560742379E+02 -0.84705979507E+01  0.10076665965E+03  0.10339504987E+03  0.00000000000E+00 0. -1.
<mgrwt>
<rscale>  0 0.81466355E+02</rscale>
<asrwt>0</asrwt>
<pdfrwt beam="1">  1        2 0.84190297E-03 0.81466355E+02</pdfrwt>
<pdfrwt beam="2">  1       -1 0.46645293E-01 0.81466355E+02</pdfrwt>
<totfact> 0.82142388E+04</totfact>
</mgrwt>
</event>
<event>
 8    1  0.1226832E-024  0.8088173E+02  0.7818608E-02  0.1326568E+00
         -1   -1    0    0    0  501 -0.00000000000E+00  0.00000000000E+00  0.11778527298E+02  0.11778528376E+02  0.50400000000E-02 0.  1.
          2   -1    0    0  501    0  0.00000000000E+00 -0.00000000000E+00 -0.13885127658E+03  0.13885127660E+03  0.25500000000E-02 0. -1.
         24    2    1    2    0    0 -0.35527136788E-14 -0.17763568394E-14 -0.12707274928E+03  0.15062980498E+03  0.80881731795E+02 0.  0.
         66    2    3    3    0    0  0.23986602072E+02  0.13006372825E+02 -0.11910102479E+03  0.12220301535E+03  0.20000108160E+01 0.  0.
        -13    1    3    3    0    0 -0.23986602072E+02 -0.13006372825E+02 -0.79717244965E+01  0.28426789627E+02  0.10566000000E+00 0.  1.
         13    1    4    4    0    0  0.40682070874E+01  0.26409239983E+01 -0.21078595454E+02  0.21629681894E+02  0.10566000000E+00 0. -1.
        -13    1    4    4    0    0  0.10371788009E+02  0.54343681470E+01 -0.54556534565E+02  0.55799040954E+02  0.10566000000E+00 0.  1.
         14    1    4    4    0    0  0.95466069759E+01  0.49310806801E+01 -0.43465894766E+02  0.44774292504E+02  0.00000000000E+00 0. -1.
<mgrwt>
<rscale>  0 0.80881732E+02</rscale>
<asrwt>0</asrwt>
<pdfrwt beam="1">  1        2 0.21361734E-01 0.80881732E+02</pdfrwt>
<pdfrwt beam="2">  1       -1 0.18120813E-02 0.80881732E+02</pdfrwt>
<totfact> 0.18981854E+05</totfact>
</mgrwt>
</event>
<event>
 8    1  0.1226832E-024  0.8002605E+02  0.7818608E-02  0.1328978E+00
          2   -1    0    0  501    0  0.00000000000E+00  0.00000000000E+00  0.14250701952E+02  0.14250702180E+02  0.25500000000E-02 0. -1.
         -1   -1    0    0    0  501 -0.00000000000E+00 -0.00000000000E+00 -0.11234831036E+03  0.11234831048E+03  0.50400000000E-02 0.  1.
         24    2    1    2    0    0  0.35527136788E-14  0.00000000000E+00 -0.98097608411E+02  0.12659901266E+03  0.80026053441E+02 0.  0.
         66    2    3    3    0    0  0.17566738303E+02  0.26962226354E+02 -0.11526733487E+02  0.34240583188E+02  0.20000018949E+01 0.  0.
        -13    1    3    3    0    0 -0.17566738303E+02 -0.26962226354E+02 -0.86570874924E+02  0.92358429467E+02  0.10566000000E+00 0.  1.
         13    1    4    4    0    0  0.65700671876E+01  0.11096022213E+02 -0.47897588733E+01  0.13756469238E+02  0.10566000000E+00 0. -1.
        -13    1    4    4    0    0  0.10740820357E+02  0.15231856654E+02 -0.66741885942E+01  0.19797238102E+02  0.10566000000E+00 0.  1.
         14    1    4    4    0    0  0.25585075920E+00  0.63434748720E+00 -0.62786019799E-01  0.68687584743E+00  0.00000000000E+00 0. -1.
<mgrwt>
<rscale>  0 0.80026053E+02</rscale>
<asrwt>0</asrwt>
<pdfrwt beam="1">  1        2 0.21924158E-02 0.80026053E+02</pdfrwt>
<pdfrwt beam="2">  1       -1 0.17284355E-01 0.80026053E+02</pdfrwt>
<totfact> 0.11545821E+05</totfact>
</mgrwt>
</event>
<event>
 8    1  0.1226832E-024  0.8181717E+02  0.7818608E-02  0.1323972E+00
          2   -1    0    0  501    0  0.00000000000E+00  0.00000000000E+00  0.13039570324E+04  0.13039570324E+04  0.25500000000E-02 0. -1.
         -1   -1    0    0    0  501 -0.00000000000E+00 -0.00000000000E+00 -0.12834055698E+01  0.12834154659E+01  0.50400000000E-02 0.  1.
         24    2    1    2    0    0 -0.35527136788E-14  0.00000000000E+00  0.13026736268E+04  0.13052404478E+04  0.81817166368E+02 0.  0.
         66    2    3    3    0    0  0.20862343362E+02 -0.13852159931E+02  0.11672822049E+04  0.11675525108E+04  0.20000000190E+01 0.  0.
        -13    1    3    3    0    0 -0.20862343362E+02  0.13852159931E+02  0.13539142193E+03  0.13768793702E+03  0.10566000000E+00 0.  1.
         13    1    4    4    0    0  0.10895939653E+02 -0.70016862433E+01  0.62399206677E+03  0.62412647409E+03  0.10566000000E+00 0. -1.
        -13    1    4    4    0    0  0.33589250645E+01 -0.29998261227E+01  0.20009599923E+03  0.20014669972E+03  0.10566000000E+00 0.  1.
        -14    1    4    4    0    0  0.66074786447E+01 -0.38506475645E+01  0.34319413887E+03  0.34327933701E+03  0.00000000000E+00 0.  1.
<mgrwt>
<rscale>  0 0.81817166E+02</rscale>
<asrwt>0</asrwt>
<pdfrwt beam="1">  1        2 0.20060961E+00 0.81817166E+02</pdfrwt>
<pdfrwt beam="2">  1       -1 0.19744695E-03 0.81817166E+02</pdfrwt>
<totfact> 0.32633852E+05</totfact>
</mgrwt>
</event>
<event>
 8    1  0.1226832E-024  0.7819354E+02  0.7818608E-02  0.1334257E+00
          2   -1    0    0  501    0  0.00000000000E+00  0.00000000000E+00  0.75622250677E+02  0.75622250720E+02  0.25500000000E-02 0. -1.
         -1   -1    0    0    0  501 -0.00000000000E+00 -0.00000000000E+00 -0.20213063398E+02  0.20213064027E+02  0.50400000000E-02 0.  1.
         24    2    1    2    0    0  0.00000000000E+00  0.00000000000E+00  0.55409187279E+02  0.95835314747E+02  0.78193538849E+02 0.  0.
         66    2    3    3    0    0 -0.11262601637E+02  0.15055721938E+02  0.69699488231E+02  0.72218692973E+02  0.19999990764E+01 0.  0.
        -13    1    3    3    0    0  0.11262601637E+02 -0.15055721938E+02 -0.14290300952E+02  0.23616621774E+02  0.10566000000E+00 0.  1.
         13    1    4    4    0    0 -0.94290281116E+01  0.13009525825E+02  0.58534955007E+02  0.60700135544E+02  0.10566000000E+00 0. -1.
        -13    1    4    4    0    0 -0.15634282881E+00  0.29288575737E-01  0.47676035440E+00  0.51358093025E+00  0.10566000000E+00 0. -1.
         14    1    4    4    0    0 -0.16772306962E+01  0.20169075366E+01  0.10687772870E+02  0.11004976498E+02  0.00000000000E+00 0. -1.
<mgrwt>
<rscale>  0 0.78193539E+02</rscale>
<asrwt>0</asrwt>
<pdfrwt beam="1">  1        2 0.11634192E-01 0.78193539E+02</pdfrwt>
<pdfrwt beam="2">  1       -1 0.31097021E-02 0.78193539E+02</pdfrwt>
<totfact> 0.17504076E+05</totfact>
</mgrwt>
</event>
<event>
 8    1  0.1226832E-024  0.8009714E+02  0.7818608E-02  0.1328776E+00
         -1   -1    0    0    0  501 -0.00000000000E+00  0.00000000000E+00  0.24554904562E+02  0.24554905080E+02  0.50400000000E-02 0.  1.
          2   -1    0    0  501    0  0.00000000000E+00 -0.00000000000E+00 -0.65318428257E+02  0.65318428307E+02  0.25500000000E-02 0. -1.
         24    2    1    2    0    0  0.00000000000E+00 -0.35527136788E-14 -0.40763523695E+02  0.89873333386E+02  0.80097135966E+02 0.  0.
         66    2    3    3    0    0 -0.33214698043E+02 -0.20740152091E+02 -0.29681950531E+02  0.49177111170E+02  0.20000002267E+01 0.  0.
        -13    1    3    3    0    0  0.33214698043E+02  0.20740152091E+02 -0.11081573164E+02  0.40696222216E+02  0.10566000000E+00 0.  1.
         13    1    4    4    0    0 -0.16771757726E+02 -0.10737796634E+02 -0.14906726138E+02  0.24875967960E+02  0.10566000000E+00 0. -1.
        -13    1    4    4    0    0 -0.11043152621E+02 -0.66712577313E+01 -0.10686516881E+02  0.16753199892E+02  0.10566000000E+00 0.  1.
         14    1    4    4    0    0 -0.53997876959E+01 -0.33310977258E+01 -0.40887075113E+01  0.75479433180E+01  0.00000000000E+00 0. -1.
<mgrwt>
<rscale>  0 0.80097136E+02</rscale>
<asrwt>0</asrwt>
<pdfrwt beam="1">  1        2 0.10048989E-01 0.80097136E+02</pdfrwt>
<pdfrwt beam="2">  1       -1 0.37776777E-02 0.80097136E+02</pdfrwt>
<totfact> 0.15827069E+05</totfact>
</mgrwt>
</event>
<event>
 8    1  0.1226832E-024  0.7689918E+02  0.7818608E-02  0.1338089E+00
         -1   -1    0    0    0  501 -0.00000000000E+00  0.00000000000E+00  0.17130396694E+02  0.17130397436E+02  0.50400000000E-02 0.  1.
          2   -1    0    0  501    0  0.00000000000E+00 -0.00000000000E+00 -0.86301041367E+02  0.86301041405E+02  0.25500000000E-02 0. -1.
         24    2    1    2    0    0  0.00000000000E+00  0.00000000000E+00 -0.69170644673E+02  0.10343143884E+03  0.76899183716E+02 0.  0.
         66    2    3    3    0    0  0.11965230164E+01 -0.19156754681E+02 -0.79379111777E+02  0.81691225366E+02  0.19999995210E+01 0.  0.
        -13    1    3    3    0    0 -0.11965230164E+01  0.19156754681E+02  0.10208467105E+02  0.21740213474E+02  0.10566000000E+00 0.  1.
         13    1    4    4    0    0  0.44538928786E+00 -0.68171187003E+01 -0.30242736245E+02  0.31004930876E+02  0.10566000000E+00 0. -1.
        -13    1    4    4    0    0  0.81524353244E+00 -0.64724488330E+01 -0.28048249626E+02  0.28797095114E+02  0.10566000000E+00 0.  1.
         14    1    4    4    0    0 -0.64109803878E-01 -0.58671871473E+01 -0.21088125907E+02  0.21889199377E+02  0.00000000000E+00 0. -1.
<mgrwt>
<rscale>  0 0.76899184E+02</rscale>
<asrwt>0</asrwt>
<pdfrwt beam="1">  1        2 0.13277083E-01 0.76899184E+02</pdfrwt>
<pdfrwt beam="2">  1       -1 0.26354458E-02 0.76899184E+02</pdfrwt>
<totfact> 0.18934389E+05</totfact>
</mgrwt>
</event>
<event>
 8    1  0.1226832E-024  0.8077211E+02  0.7818608E-02  0.1326874E+00
         -1   -1    0    0    0  501 -0.00000000000E+00  0.00000000000E+00  0.64259878238E+01  0.64259898002E+01  0.50400000000E-02 0.  1.
          2   -1    0    0  501    0  0.00000000000E+00 -0.00000000000E+00 -0.25381825595E+03  0.25381825596E+03  0.25500000000E-02 0. -1.
         24    2    1    2    0    0  0.00000000000E+00 -0.35527136788E-14 -0.24739226812E+03  0.26024424576E+03  0.80772106102E+02 0.  0.
         66    2    3    3    0    0 -0.21580224306E+02 -0.24007156433E+02 -0.20183218226E+03  0.20440714135E+03  0.19999994371E+01 0.  0.
        -13    1    3    3    0    0  0.21580224306E+02  0.24007156433E+02 -0.45560085865E+02  0.55837104412E+02  0.10566000000E+00 0.  1.
         13    1    4    4    0    0 -0.45281199825E+01 -0.59250185308E+01 -0.44847674509E+02  0.45463554503E+02  0.10566000000E+00 0. -1.
        -13    1    4    4    0    0 -0.10445519657E+02 -0.11423841806E+02 -0.94736406571E+02  0.95992765021E+02  0.10566000000E+00 0.  1.
        -14    1    4    4    0    0 -0.66065846672E+01 -0.66582960960E+01 -0.62248101180E+02  0.62950821825E+02  0.00000000000E+00 0.  1.
<mgrwt>
<rscale>  0 0.80772106E+02</rscale>
<asrwt>0</asrwt>
<pdfrwt beam="1">  1        2 0.39048955E-01 0.80772106E+02</pdfrwt>
<pdfrwt beam="2">  1       -1 0.98861386E-03 0.80772106E+02</pdfrwt>
<totfact> 0.23399835E+05</totfact>
</mgrwt>
</event>
<event>
 8    1  0.1226832E-024  0.8355124E+02  0.7818608E-02  0.1319265E+00
         -1   -1    0    0    0  501 -0.00000000000E+00  0.00000000000E+00  0.32665838581E+02  0.32665838970E+02  0.50400000000E-02 0.  1.
          2   -1    0    0  501    0  0.00000000000E+00 -0.00000000000E+00 -0.53425913393E+02  0.53425913454E+02  0.25500000000E-02 0. -1.
         24    2    1    2    0    0 -0.35527136788E-14 -0.35527136788E-14 -0.20760074812E+02  0.86091752424E+02  0.83551236551E+02 0.  0.
         66    2    3    3    0    0  0.23118428516E+02  0.30785599788E+02 -0.27032136118E+02  0.47084511963E+02  0.19999980763E+01 0.  0.
        -13    1    3    3    0    0 -0.23118428516E+02 -0.30785599788E+02  0.62720613068E+01  0.39007240461E+02  0.10566000000E+00 0.  1.
         13    1    4    4    0    0  0.77719437870E+01  0.10180562415E+02 -0.90598321853E+01  0.15688807621E+02  0.10566000000E+00 0. -1.
        -13    1    4    4    0    0  0.64828729710E+01  0.89587994140E+01 -0.86917695502E+01  0.14065765207E+02  0.10566000000E+00 0.  1.
        -14    1    4    4    0    0  0.88636117577E+01  0.11646237958E+02 -0.92805343830E+01  0.17329939135E+02  0.00000000000E+00 0.  1.
<mgrwt>
<rscale>  0 0.83551237E+02</rscale>
<asrwt>0</asrwt>
<pdfrwt beam="1">  1        2 0.82193713E-02 0.83551237E+02</pdfrwt>
<pdfrwt beam="2">  1       -1 0.50255137E-02 0.83551237E+02</pdfrwt>
<totfact> 0.13460669E+05</totfact>
</mgrwt>
</event>
<event>
 8    1  0.1226832E-024  0.7916644E+02  0.7818608E-02  0.1331434E+00
          2   -1    0    0  501    0  0.00000000000E+00  0.00000000000E+00  0.98664364292E+02  0.98664364325E+02  0.25500000000E-02 0. -1.
         -1   -1    0    0    0  501 -0.00000000000E+00 -0.00000000000E+00 -0.15880416240E+02  0.15880417040E+02  0.50400000000E-02 0.  1.
         24    2    1    2    0    0  0.00000000000E+00 -0.35527136788E-14  0.82783948052E+02  0.11454478137E+03  0.79166437857E+02 0.  0.
         66    2    3    3    0    0 -0.26625107097E+02  0.22015532574E+02  0.69296551735E+02  0.77457033713E+02  0.19999966890E+01 0.  0.
        -13    1    3    3    0    0  0.26625107097E+02 -0.22015532574E+02  0.13487396317E+02  0.37087747652E+02  0.10566000000E+00 0.  1.
         13    1    4    4    0    0 -0.13500894735E+02  0.10393508724E+02  0.35471840731E+02  0.39351770368E+02  0.10566000000E+00 0. -1.
        -13    1    4    4    0    0 -0.10067393097E+02  0.87887456231E+01  0.25102044256E+02  0.28437971856E+02  0.10566000000E+00 0.  1.
        -14    1    4    4    0    0 -0.30568192656E+01  0.28332782276E+01  0.87226667479E+01  0.96672914890E+01  0.00000000000E+00 0.  1.
<mgrwt>
<rscale>  0 0.79166438E+02</rscale>
<asrwt>0</asrwt>
<pdfrwt beam="1">  1        2 0.15179133E-01 0.79166438E+02</pdfrwt>
<pdfrwt beam="2">  1       -1 0.24431410E-02 0.79166438E+02</pdfrwt>
<totfact> 0.18161814E+05</totfact>
</mgrwt>
</event>
<event>
 8    1  0.1226832E-024  0.7889631E+02  0.7818608E-02  0.1332213E+00
         -1   -1    0    0    0  501 -0.00000000000E+00  0.00000000000E+00  0.48098572068E+01  0.48098598473E+01  0.50400000000E-02 0.  1.
          2   -1    0    0  501    0  0.00000000000E+00 -0.00000000000E+00 -0.32353487106E+03  0.32353487107E+03  0.25500000000E-02 0. -1.
         24    2    1    2    0    0  0.35527136788E-14  0.00000000000E+00 -0.31872501386E+03  0.32834473092E+03  0.78896310849E+02 0.  0.
         66    2    3    3    0    0 -0.29419625043E+02 -0.91828678532E+01 -0.26177135530E+03  0.26358695311E+03  0.19999989619E+01 0.  0.
        -13    1    3    3    0    0  0.29419625043E+02  0.91828678532E+01 -0.56953658557E+02  0.64757777808E+02  0.10566000000E+00 0.  1.
         13    1    4    4    0    0 -0.73541044145E+01 -0.18326348157E+01 -0.68645674671E+02  0.69062878720E+02  0.10566000000E+00 0. -1.
        -13    1    4    4    0    0 -0.13732996743E+02 -0.47770269018E+01 -0.12471924155E+03  0.12556398991E+03  0.10566000000E+00 0.  1.
        -14    1    4    4    0    0 -0.83325238853E+01 -0.25732061357E+01 -0.68406439077E+02  0.68960084479E+02  0.00000000000E+00 0.  1.
<mgrwt>
<rscale>  0 0.78896311E+02</rscale>
<asrwt>0</asrwt>
<pdfrwt beam="1">  1        2 0.49774579E-01 0.78896311E+02</pdfrwt>
<pdfrwt beam="2">  1       -1 0.73997849E-03 0.78896311E+02</pdfrwt>
<totfact> 0.27169978E+05</totfact>
</mgrwt>
</event>
<event>
 8    1  0.1226832E-024  0.7834156E+02  0.7818608E-02  0.1333825E+00
          2   -1    0    0  501    0  0.00000000000E+00  0.00000000000E+00  0.11127326648E+03  0.11127326651E+03  0.25500000000E-02 0. -1.
         -1   -1    0    0    0  501 -0.00000000000E+00 -0.00000000000E+00 -0.13789025860E+02  0.13789026781E+02  0.50400000000E-02 0.  1.
         24    2    1    2    0    0 -0.35527136788E-14  0.00000000000E+00  0.97484240623E+02  0.12506229329E+03  0.78341560067E+02 0.  0.
         66    2    3    3    0    0 -0.16207516801E+02 -0.35616567747E+02  0.50464426965E+02  0.63889607072E+02  0.20000009929E+01 0.  0.
        -13    1    3    3    0    0  0.16207516801E+02  0.35616567747E+02  0.47019813658E+02  0.61172686220E+02  0.10566000000E+00 0.  1.
         13    1    4    4    0    0 -0.56197324637E+01 -0.12307914448E+02  0.18214541836E+02  0.22690236873E+02  0.10566000000E+00 0. -1.
        -13    1    4    4    0    0 -0.68134462732E+01 -0.14041041589E+02  0.20524020655E+02  0.25784113072E+02  0.10566000000E+00 0.  1.
        -14    1    4    4    0    0 -0.37743380637E+01 -0.92676117104E+01  0.11725864474E+02  0.15415257127E+02  0.00000000000E+00 0.  1.
<mgrwt>
<rscale>  0 0.78341560E+02</rscale>
<asrwt>0</asrwt>
<pdfrwt beam="1">  1        2 0.17118964E-01 0.78341560E+02</pdfrwt>
<pdfrwt beam="2">  1       -1 0.21213887E-02 0.78341560E+02</pdfrwt>
<totfact> 0.19325435E+05</totfact>
</mgrwt>
</event>
<event>
 8    1  0.1226832E-024  0.7824168E+02  0.7818608E-02  0.1334117E+00
          2   -1    0    0  501    0  0.00000000000E+00  0.00000000000E+00  0.16224336606E+03  0.16224336608E+03  0.25500000000E-02 0. -1.
         -1   -1    0    0    0  501 -0.00000000000E+00 -0.00000000000E+00 -0.94329898069E+01  0.94329911533E+01  0.50400000000E-02 0.  1.
         24    2    1    2    0    0  0.00000000000E+00  0.00000000000E+00  0.15281037626E+03  0.17167635724E+03  0.78241680340E+02 0.  0.
         66    2    3    3    0    0  0.85584248723E+01  0.27047154283E+02  0.13547964769E+03  0.13843240278E+03  0.20000027052E+01 0.  0.
        -13    1    3    3    0    0 -0.85584248723E+01 -0.27047154283E+02  0.17330728568E+02  0.33243954455E+02  0.10566000000E+00 0.  1.
         13    1    4    4    0    0  0.81101125073E+01  0.24335900162E+02  0.12175545490E+03  0.12442834052E+03  0.10566000000E+00 0.  1.
        -13    1    4    4    0    0  0.30179937765E+00  0.17857877353E+01  0.79526880546E+01  0.81569928300E+01  0.10566000000E+00 0. -1.
        -14    1    4    4    0    0  0.14651298732E+00  0.92546638599E+00  0.57715047322E+01  0.58470694336E+01  0.00000000000E+00 0.  1.
<mgrwt>
<rscale>  0 0.78241680E+02</rscale>
<asrwt>0</asrwt>
<pdfrwt beam="1">  1        2 0.24960517E-01 0.78241680E+02</pdfrwt>
<pdfrwt beam="2">  1       -1 0.14512293E-02 0.78241680E+02</pdfrwt>
<totfact> 0.21793399E+05</totfact>
</mgrwt>
</event>
<event>
 8    1  0.1226832E-024  0.8428248E+02  0.7818608E-02  0.1317320E+00
          2   -1    0    0  501    0  0.00000000000E+00  0.00000000000E+00  0.31221428086E+02  0.31221428190E+02  0.25500000000E-02 0. -1.
         -1   -1    0    0    0  501 -0.00000000000E+00 -0.00000000000E+00 -0.56880290251E+02  0.56880290474E+02  0.50400000000E-02 0.  1.
         24    2    1    2    0    0  0.00000000000E+00  0.00000000000E+00 -0.25658862164E+02  0.88101718665E+02  0.84282475190E+02 0.  0.
         66    2    3    3    0    0  0.32642339267E+02 -0.21676757133E+02  0.33057729471E+01  0.39374258605E+02  0.19999983179E+01 0.  0.
        -13    1    3    3    0    0 -0.32642339267E+02  0.21676757133E+02 -0.28964635112E+02  0.48727460059E+02  0.10566000000E+00 0.  1.
         13    1    4    4    0    0  0.11850207845E+02 -0.80576018748E+01  0.19877137679E+01  0.14467706936E+02  0.10566000000E+00 0.  1.
        -13    1    4    4    0    0  0.28323057154E+01 -0.20023690336E+01  0.45312004706E+00  0.34997027338E+01  0.10566000000E+00 0. -1.
        -14    1    4    4    0    0  0.17959825707E+02 -0.11616786225E+02  0.86493913210E+00  0.21406848935E+02  0.00000000000E+00 0.  1.
<mgrwt>
<rscale>  0 0.84282475E+02</rscale>
<asrwt>0</asrwt>
<pdfrwt beam="1">  1        2 0.48032966E-02 0.84282475E+02</pdfrwt>
<pdfrwt beam="2">  1       -1 0.87508139E-02 0.84282475E+02</pdfrwt>
<totfact> 0.11713554E+05</totfact>
</mgrwt>
</event>
<event>
 8    1  0.1226832E-024  0.8154941E+02  0.7818608E-02  0.1324711E+00
          2   -1    0    0  501    0  0.00000000000E+00  0.00000000000E+00  0.19674555091E+03  0.19674555093E+03  0.25500000000E-02 0. -1.
         -1   -1    0    0    0  501 -0.00000000000E+00 -0.00000000000E+00 -0.84503882293E+01  0.84503897323E+01  0.50400000000E-02 0.  1.
         24    2    1    2    0    0 -0.17763568394E-14  0.00000000000E+00  0.18829516268E+03  0.20519594066E+03  0.81549406950E+02 0.  0.
         66    2    3    3    0    0 -0.15113630523E+02  0.46920220906E+01  0.18869239451E+03  0.18936540510E+03  0.20000006733E+01 0.  0.
        -13    1    3    3    0    0  0.15113630523E+02 -0.46920220906E+01 -0.39723183296E+00  0.15830535558E+02  0.10566000000E+00 0.  1.
         13    1    4    4    0    0 -0.12164286423E+02  0.30620528823E+01  0.15252777732E+03  0.15304273930E+03  0.10566000000E+00 0. -1.
        -13    1    4    4    0    0 -0.19732970205E+01  0.12431030937E+01  0.24751748551E+02  0.24861605475E+02  0.10566000000E+00 0.  1.
        -14    1    4    4    0    0 -0.97604707955E+00  0.38686611462E+00  0.11412868638E+02  0.11461060328E+02  0.00000000000E+00 0.  1.
<mgrwt>
<rscale>  0 0.81549407E+02</rscale>
<asrwt>0</asrwt>
<pdfrwt beam="1">  1        2 0.30268543E-01 0.81549407E+02</pdfrwt>
<pdfrwt beam="2">  1       -1 0.13000600E-02 0.81549407E+02</pdfrwt>
<totfact> 0.20849525E+05</totfact>
</mgrwt>
</event>
<event>
 8    1  0.1226832E-024  0.7928736E+02  0.7818608E-02  0.1331086E+00
         -1   -1    0    0    0  501 -0.00000000000E+00  0.00000000000E+00  0.13336838748E+03  0.13336838758E+03  0.50400000000E-02 0.  1.
          2   -1    0    0  501    0  0.00000000000E+00 -0.00000000000E+00 -0.11784060534E+02  0.11784060810E+02  0.25500000000E-02 0. -1.
         24    2    1    2    0    0  0.00000000000E+00  0.00000000000E+00  0.12158432695E+03  0.14515244839E+03  0.79287355317E+02 0.  0.
         66    2    3    3    0    0 -0.17613696492E+02  0.29327293687E+02  0.24249257960E+02  0.41980459562E+02  0.20000035741E+01 0.  0.
        -13    1    3    3    0    0  0.17613696492E+02 -0.29327293687E+02  0.97335068987E+02  0.10317198882E+03  0.10566000000E+00 0.  1.
         13    1    4    4    0    0 -0.28677183678E+01  0.40083176362E+01  0.32247082507E+01  0.58906982818E+01  0.10566000000E+00 0. -1.
        -13    1    4    4    0    0 -0.10763192398E+01  0.13561498104E+01  0.14846475202E+01  0.22831880582E+01  0.10566000000E+00 0.  1.
        -14    1    4    4    0    0 -0.13669658885E+02  0.23962826240E+02  0.19539902189E+02  0.33806573222E+02  0.00000000000E+00 0.  1.
<mgrwt>
<rscale>  0 0.79287355E+02</rscale>
<asrwt>0</asrwt>
<pdfrwt beam="1">  1        2 0.18129324E-02 0.79287355E+02</pdfrwt>
<pdfrwt beam="2">  1       -1 0.20518214E-01 0.79287355E+02</pdfrwt>
<totfact> 0.11358725E+05</totfact>
</mgrwt>
</event>
<event>
 8    1  0.1226832E-024  0.7974293E+02  0.7818608E-02  0.1329783E+00
          2   -1    0    0  501    0  0.00000000000E+00  0.00000000000E+00  0.47595707419E+03  0.47595707420E+03  0.25500000000E-02 0. -1.
         -1   -1    0    0    0  501 -0.00000000000E+00 -0.00000000000E+00 -0.33400757865E+01  0.33400795890E+01  0.50400000000E-02 0.  1.
         24    2    1    2    0    0  0.00000000000E+00  0.00000000000E+00  0.47261699841E+03  0.47929715379E+03  0.79742927256E+02 0.  0.
         66    2    3    3    0    0  0.14337468629E+02 -0.95053588205E+01  0.45248601995E+03  0.45281730653E+03  0.19999986792E+01 0.  0.
        -13    1    3    3    0    0 -0.14337468629E+02  0.95053588205E+01  0.20130978463E+02  0.26479847260E+02  0.10566000000E+00 0.  1.
         13    1    4    4    0    0  0.84998080552E+01 -0.63455520820E+01  0.27278005732E+03  0.27298623336E+03  0.10566000000E+00 0. -1.
        -13    1    4    4    0    0  0.32026070625E+01 -0.15938924919E+01  0.84434765044E+02  0.84510578612E+02  0.10566000000E+00 0.  1.
        -14    1    4    4    0    0  0.26350535114E+01 -0.15659142466E+01  0.95271197586E+02  0.95320494564E+02  0.00000000000E+00 0.  1.
<mgrwt>
<rscale>  0 0.79742927E+02</rscale>
<asrwt>0</asrwt>
<pdfrwt beam="1">  1        2 0.73224190E-01 0.79742927E+02</pdfrwt>
<pdfrwt beam="2">  1       -1 0.51385794E-03 0.79742927E+02</pdfrwt>
<totfact> 0.30223046E+05</totfact>
</mgrwt>
</event>
<event>
 8    1  0.1226832E-024  0.7913340E+02  0.7818608E-02  0.1331529E+00
          2   -1    0    0  501    0  0.00000000000E+00  0.00000000000E+00  0.34889506659E+03  0.34889506659E+03  0.25500000000E-02 0. -1.
         -1   -1    0    0    0  501 -0.00000000000E+00 -0.00000000000E+00 -0.44870889879E+01  0.44870918184E+01  0.50400000000E-02 0.  1.
         24    2    1    2    0    0  0.71054273576E-14  0.00000000000E+00  0.34440797760E+03  0.35338215841E+03  0.79133399092E+02 0.  0.
         66    2    3    3    0    0  0.38062994902E+02 -0.21686046024E+01  0.21915500587E+03  0.22245541356E+03  0.19999995218E+01 0.  0.
        -13    1    3    3    0    0 -0.38062994902E+02  0.21686046024E+01  0.12525297173E+03  0.13092674486E+03  0.10566000000E+00 0.  1.
         13    1    4    4    0    0  0.17431857828E+02 -0.46143982922E+00  0.95992666822E+02  0.97563752704E+02  0.10566000000E+00 0. -1.
        -13    1    4    4    0    0  0.77536517274E+01 -0.66540855408E+00  0.48103318945E+02  0.48728865585E+02  0.10566000000E+00 0.  1.
         14    1    4    4    0    0  0.12877485347E+02 -0.10417562191E+01  0.75059020100E+02  0.76162795269E+02  0.00000000000E+00 0. -1.
<mgrwt>
<rscale>  0 0.79133399E+02</rscale>
<asrwt>0</asrwt>
<pdfrwt beam="1">  1        2 0.53676173E-01 0.79133399E+02</pdfrwt>
<pdfrwt beam="2">  1       -1 0.69032149E-03 0.79133399E+02</pdfrwt>
<totfact> 0.27696954E+05</totfact>
</mgrwt>
</event>
<event>
 8    1  0.1226832E-024  0.8043459E+02  0.7818608E-02  0.1327823E+00
          2   -1    0    0  501    0  0.00000000000E+00  0.00000000000E+00  0.29552075450E+02  0.29552075560E+02  0.25500000000E-02 0. -1.
         -1   -1    0    0    0  501 -0.00000000000E+00 -0.00000000000E+00 -0.54731543450E+02  0.54731543682E+02  0.50400000000E-02 0.  1.
         24    2    1    2    0    0  0.00000000000E+00  0.00000000000E+00 -0.25179468001E+02  0.84283619242E+02  0.80434587484E+02 0.  0.
         66    2    3    3    0    0  0.34130778884E+02 -0.68783143553E+01  0.84433409099E+01  0.35881907302E+02  0.19999975775E+01 0.  0.
        -13    1    3    3    0    0 -0.34130778884E+02  0.68783143553E+01 -0.33622808911E+02  0.48401711940E+02  0.10566000000E+00 0.  1.
         13    1    4    4    0    0  0.92044275003E+01 -0.17358029940E+01  0.24842506100E+01  0.96910867693E+01  0.10566000000E+00 0. -1.
        -13    1    4    4    0    0  0.80741748641E+00  0.31668834993E-01  0.59172324750E-02  0.81493862450E+00  0.10566000000E+00 0. -1.
        -14    1    4    4    0    0  0.24118933897E+02 -0.51741801962E+01  0.59531730674E+01  0.25375881908E+02  0.00000000000E+00 0.  1.
<mgrwt>
<rscale>  0 0.80434587E+02</rscale>
<asrwt>0</asrwt>
<pdfrwt beam="1">  1        2 0.45464732E-02 0.80434587E+02</pdfrwt>
<pdfrwt beam="2">  1       -1 0.84202375E-02 0.80434587E+02</pdfrwt>
<totfact> 0.13212923E+05</totfact>
</mgrwt>
</event>
<event>
 8    1  0.1226832E-024  0.8008149E+02  0.7818608E-02  0.1328820E+00
         -1   -1    0    0    0  501 -0.00000000000E+00  0.00000000000E+00  0.38532110132E+01  0.38532143093E+01  0.50400000000E-02 0.  1.
          2   -1    0    0  501    0  0.00000000000E+00 -0.00000000000E+00 -0.41608431439E+03  0.41608431440E+03  0.25500000000E-02 0. -1.
         24    2    1    2    0    0  0.00000000000E+00  0.00000000000E+00 -0.41223110338E+03  0.41993752871E+03  0.80081492402E+02 0.  0.
         66    2    3    3    0    0 -0.61065924833E+01 -0.24983906117E+02 -0.36699835023E+03  0.36790389383E+03  0.19999980056E+01 0.  0.
        -13    1    3    3    0    0  0.61065924833E+01  0.24983906117E+02 -0.45232753151E+02  0.52033634875E+02  0.10566000000E+00 0.  1.
         13    1    4    4    0    0 -0.46635456537E+01 -0.18615356445E+02 -0.26523851047E+03  0.26593186864E+03  0.10566000000E+00 0. -1.
        -13    1    4    4    0    0 -0.13983227323E+01 -0.54451913186E+01 -0.90349121217E+02  0.90523921057E+02  0.10566000000E+00 0.  1.
         14    1    4    4    0    0 -0.44724097330E-01 -0.92335835355E+00 -0.11410718538E+02  0.11448104142E+02  0.00000000000E+00 0. -1.
<mgrwt>
<rscale>  0 0.80081492E+02</rscale>
<asrwt>0</asrwt>
<pdfrwt beam="1">  1        2 0.64012936E-01 0.80081492E+02</pdfrwt>
<pdfrwt beam="2">  1       -1 0.59280228E-03 0.80081492E+02</pdfrwt>
<totfact> 0.28567341E+05</totfact>
</mgrwt>
</event>
<event>
 8    1  0.1226832E-024  0.8012200E+02  0.7818608E-02  0.1328706E+00
         -1   -1    0    0    0  501 -0.00000000000E+00  0.00000000000E+00  0.29830439051E+03  0.29830439055E+03  0.50400000000E-02 0.  1.
          2   -1    0    0  501    0  0.00000000000E+00 -0.00000000000E+00 -0.53800203697E+01  0.53800209740E+01  0.25500000000E-02 0. -1.
         24    2    1    2    0    0  0.71054273576E-14  0.00000000000E+00  0.29292437014E+03  0.30368441153E+03  0.80122001861E+02 0.  0.
         66    2    3    3    0    0 -0.34487564217E+02  0.10063971183E+02  0.79581787370E+02  0.87338058683E+02  0.20000029753E+01 0.  0.
        -13    1    3    3    0    0  0.34487564217E+02 -0.10063971183E+02  0.21334258277E+03  0.21634635285E+03  0.10566000000E+00 0.  1.
         13    1    4    4    0    0 -0.16696825725E+02  0.51894937299E+01  0.39238592052E+02  0.42958038884E+02  0.10566000000E+00 0. -1.
        -13    1    4    4    0    0 -0.11396967384E+02  0.27793115863E+01  0.26910623240E+02  0.29356570740E+02  0.10566000000E+00 0.  1.
         14    1    4    4    0    0 -0.63937711076E+01  0.20951658668E+01  0.13432572078E+02  0.15023449059E+02  0.00000000000E+00 0. -1.
<mgrwt>
<rscale>  0 0.80122002E+02</rscale>
<asrwt>0</asrwt>
<pdfrwt beam="1">  1        2 0.82769538E-03 0.80122002E+02</pdfrwt>
<pdfrwt beam="2">  1       -1 0.45892989E-01 0.80122002E+02</pdfrwt>
<totfact> 0.86293125E+04</totfact>
</mgrwt>
</event>
<event>
 8    1  0.1226832E-024  0.8074853E+02  0.7818608E-02  0.1326941E+00
          2   -1    0    0  501    0  0.00000000000E+00  0.00000000000E+00  0.22991292680E+03  0.22991292682E+03  0.25500000000E-02 0. -1.
         -1   -1    0    0    0  501 -0.00000000000E+00 -0.00000000000E+00 -0.70899936281E+01  0.70899954195E+01  0.50400000000E-02 0.  1.
         24    2    1    2    0    0  0.00000000000E+00 -0.17763568394E-14  0.22282293317E+03  0.23700292224E+03  0.80748533114E+02 0.  0.
         66    2    3    3    0    0  0.25268501447E+02  0.14509760642E+02  0.19340164082E+03  0.19559454232E+03  0.19999986915E+01 0.  0.
        -13    1    3    3    0    0 -0.25268501447E+02 -0.14509760642E+02  0.29421292353E+02  0.41408379913E+02  0.10566000000E+00 0.  1.
         13    1    4    4    0    0  0.11925599871E+02  0.59317544832E+01  0.85388321643E+02  0.86420959730E+02  0.10566000000E+00 0. -1.
        -13    1    4    4    0    0  0.12052757363E+02  0.75320102697E+01  0.96933173069E+02  0.97969645013E+02  0.10566000000E+00 0.  1.
        -14    1    4    4    0    0  0.12901442129E+01  0.10459958893E+01  0.11080146110E+02  0.11203937581E+02  0.00000000000E+00 0.  1.
<mgrwt>
<rscale>  0 0.80748533E+02</rscale>
<asrwt>0</asrwt>
<pdfrwt beam="1">  1        2 0.35371220E-01 0.80748533E+02</pdfrwt>
<pdfrwt beam="2">  1       -1 0.10907684E-02 0.80748533E+02</pdfrwt>
<totfact> 0.22604503E+05</totfact>
</mgrwt>
</event>
<event>
 8    1  0.1226832E-024  0.7986552E+02  0.7818608E-02  0.1329433E+00
         -1   -1    0    0    0  501 -0.00000000000E+00  0.00000000000E+00  0.13379729173E+01  0.13379824098E+01  0.50400000000E-02 0.  1.
          2   -1    0    0  501    0  0.00000000000E+00 -0.00000000000E+00 -0.11918176464E+04  0.11918176464E+04  0.25500000000E-02 0. -1.
         24    2    1    2    0    0  0.00000000000E+00  0.00000000000E+00 -0.11904796735E+04  0.11931556288E+04  0.79865521919E+02 0.  0.
         66    2    3    3    0    0  0.26236268552E+02 -0.68023728651E+01 -0.10332178216E+04  0.10335751937E+04  0.19999993489E+01 0.  0.
        -13    1    3    3    0    0 -0.26236268552E+02  0.68023728651E+01 -0.15726185184E+03  0.15958043512E+03  0.10566000000E+00 0.  1.
         13    1    4    4    0    0  0.11429533360E+02 -0.37176003796E+01 -0.43946417464E+03  0.43962850993E+03  0.10566000000E+00 0. -1.
        -13    1    4    4    0    0  0.11580322977E+02 -0.21162625922E+01 -0.46352423652E+03  0.46367371227E+03  0.10566000000E+00 0.  1.
        -14    1    4    4    0    0  0.32264122143E+01 -0.96850989326E+00 -0.13022941047E+03  0.13027297149E+03  0.00000000000E+00 0.  1.
<mgrwt>
<rscale>  0 0.79865522E+02</rscale>
<asrwt>0</asrwt>
<pdfrwt beam="1">  1        2 0.18335571E+00 0.79865522E+02</pdfrwt>
<pdfrwt beam="2">  1       -1 0.20584367E-03 0.79865522E+02</pdfrwt>
<totfact> 0.35217212E+05</totfact>
</mgrwt>
</event>
<event>
 8    1  0.1226832E-024  0.7757106E+02  0.7818608E-02  0.1336089E+00
          2   -1    0    0  501    0  0.00000000000E+00  0.00000000000E+00  0.12502724607E+04  0.12502724607E+04  0.25500000000E-02 0. -1.
         -1   -1    0    0    0  501 -0.00000000000E+00 -0.00000000000E+00 -0.12031864054E+01  0.12031969613E+01  0.50400000000E-02 0.  1.
         24    2    1    2    0    0 -0.35527136788E-14 -0.17763568394E-14  0.12490692743E+04  0.12514756576E+04  0.77571062505E+02 0.  0.
         66    2    3    3    0    0 -0.13825653922E+02 -0.15146826517E+02  0.11555686211E+04  0.11557523148E+04  0.19999996750E+01 0.  0.
        -13    1    3    3    0    0  0.13825653922E+02  0.15146826517E+02  0.93500653134E+02  0.95723342819E+02  0.10566000000E+00 0.  1.
         13    1    4    4    0    0 -0.12538449166E+00 -0.53526572152E+00  0.35987406481E+02  0.35991760445E+02  0.10566000000E+00 0.  1.
        -13    1    4    4    0    0 -0.10533656591E+01 -0.98858934816E+00  0.86222562853E+02  0.86234728486E+02  0.10566000000E+00 0. -1.
        -14    1    4    4    0    0 -0.12646903771E+02 -0.13622971447E+02  0.10333586518E+04  0.10335258259E+04  0.00000000000E+00 0.  1.
<mgrwt>
<rscale>  0 0.77571063E+02</rscale>
<asrwt>0</asrwt>
<pdfrwt beam="1">  1        2 0.19234915E+00 0.77571063E+02</pdfrwt>
<pdfrwt beam="2">  1       -1 0.18510686E-03 0.77571063E+02</pdfrwt>
<totfact> 0.37750541E+05</totfact>
</mgrwt>
</event>
<event>
 8    1  0.1615246E-024  0.7876620E+02  0.7818608E-02  0.1332590E+00
         -1   -1    0    0    0  501 -0.00000000000E+00  0.00000000000E+00  0.53890759653E+02  0.53890759889E+02  0.50400000000E-02 0.  1.
          2   -1    0    0  501    0  0.00000000000E+00 -0.00000000000E+00 -0.28780972360E+02  0.28780972473E+02  0.25500000000E-02 0. -1.
         24    2    1    2    0    0  0.00000000000E+00  0.00000000000E+00  0.25109787293E+02  0.82671732362E+02  0.78766197787E+02 0.  0.
         66    2    3    3    0    0 -0.23825978725E+02  0.11189450202E+02 -0.18147766932E+02  0.32034708164E+02  0.20000061360E+01 0.  0.
        -13    1    3    3    0    0  0.23825978725E+02 -0.11189450202E+02  0.43257554225E+02  0.50637024198E+02  0.10566000000E+00 0.  1.
         13    1    4    4    0    0 -0.14588199937E+02  0.71700227849E+01 -0.10824480660E+02  0.19529601884E+02  0.10566000000E+00 0. -1.
        -13    1    4    4    0    0 -0.62388148174E+01  0.32208597382E+01 -0.48069976215E+01  0.85097084526E+01  0.10566000000E+00 0.  1.
        -14    1    4    4    0    0 -0.29989639701E+01  0.79856767882E+00 -0.25162886500E+01  0.39953978277E+01  0.00000000000E+00 0.  1.
<mgrwt>
<rscale>  0 0.78766198E+02</rscale>
<asrwt>0</asrwt>
<pdfrwt beam="1">  1        2 0.44278420E-02 0.78766198E+02</pdfrwt>
<pdfrwt beam="2">  1       -1 0.82908861E-02 0.78766198E+02</pdfrwt>
<totfact> 0.13940372E+05</totfact>
</mgrwt>
</event>
<event>
 8    1  0.1226832E-024  0.7968021E+02  0.7818608E-02  0.1329961E+00
         -1   -1    0    0    0  501 -0.00000000000E+00  0.00000000000E+00  0.42860584101E+02  0.42860584397E+02  0.50400000000E-02 0.  1.
          2   -1    0    0  501    0  0.00000000000E+00 -0.00000000000E+00 -0.37032483570E+02  0.37032483657E+02  0.25500000000E-02 0. -1.
         24    2    1    2    0    0  0.00000000000E+00  0.00000000000E+00  0.58281005314E+01  0.79893068055E+02  0.79680208128E+02 0.  0.
         66    2    3    3    0    0  0.15515795070E+02  0.28476394447E+02 -0.20245264195E+02  0.38282054494E+02  0.20000091404E+01 0.  0.
        -13    1    3    3    0    0 -0.15515795070E+02 -0.28476394447E+02  0.26073364727E+02  0.41611013561E+02  0.10566000000E+00 0.  1.
         13    1    4    4    0    0  0.73372541808E+01  0.13866917576E+02 -0.10301704801E+02  0.18768670379E+02  0.10566000000E+00 0. -1.
        -13    1    4    4    0    0  0.34838030596E+01  0.71928536640E+01 -0.42717987353E+01  0.90627510205E+01  0.10566000000E+00 0.  1.
         14    1    4    4    0    0  0.46947378297E+01  0.74166232069E+01 -0.56717606596E+01  0.10450633094E+02  0.00000000000E+00 0. -1.
<mgrwt>
<rscale>  0 0.79680208E+02</rscale>
<asrwt>0</asrwt>
<pdfrwt beam="1">  1        2 0.56973052E-02 0.79680208E+02</pdfrwt>
<pdfrwt beam="2">  1       -1 0.65939360E-02 0.79680208E+02</pdfrwt>
<totfact> 0.14189545E+05</totfact>
</mgrwt>
</event>
<event>
 8    1  0.1226832E-024  0.7984819E+02  0.7818608E-02  0.1329483E+00
          2   -1    0    0  501    0  0.00000000000E+00  0.00000000000E+00  0.20841182252E+03  0.20841182253E+03  0.25500000000E-02 0. -1.
         -1   -1    0    0    0  501 -0.00000000000E+00 -0.00000000000E+00 -0.76479981323E+01  0.76479997930E+01  0.50400000000E-02 0.  1.
         24    2    1    2    0    0  0.00000000000E+00  0.00000000000E+00  0.20076382438E+03  0.21605982232E+03  0.79848191224E+02 0.  0.
         66    2    3    3    0    0 -0.27083402128E+02  0.10274067317E+02  0.17468957942E+03  0.17708618323E+03  0.20000004083E+01 0.  0.
        -13    1    3    3    0    0  0.27083402128E+02 -0.10274067317E+02  0.26074244961E+02  0.38973639095E+02  0.10566000000E+00 0.  1.
         13    1    4    4    0    0 -0.13575918870E+02  0.56083518957E+01  0.86198851657E+02  0.87441479717E+02  0.10566000000E+00 0. -1.
        -13    1    4    4    0    0 -0.34543159350E+01  0.17212512347E+01  0.23329713684E+02  0.23647023259E+02  0.10566000000E+00 0.  1.
         14    1    4    4    0    0 -0.10053167323E+02  0.29444641865E+01  0.65161014082E+02  0.65997680253E+02  0.00000000000E+00 0. -1.
<mgrwt>
<rscale>  0 0.79848191E+02</rscale>
<asrwt>0</asrwt>
<pdfrwt beam="1">  1        2 0.32063353E-01 0.79848191E+02</pdfrwt>
<pdfrwt beam="2">  1       -1 0.11766154E-02 0.79848191E+02</pdfrwt>
<totfact> 0.22489979E+05</totfact>
</mgrwt>
</event>
<event>
 8    1  0.1226832E-024  0.7967346E+02  0.7818608E-02  0.1329981E+00
         -1   -1    0    0    0  501 -0.00000000000E+00  0.00000000000E+00  0.25105493624E+02  0.25105494130E+02  0.50400000000E-02 0.  1.
          2   -1    0    0  501    0  0.00000000000E+00 -0.00000000000E+00 -0.63211870661E+02  0.63211870713E+02  0.25500000000E-02 0. -1.
         24    2    1    2    0    0  0.00000000000E+00  0.35527136788E-14 -0.38106377037E+02  0.88317364843E+02  0.79673464604E+02 0.  0.
         66    2    3    3    0    0  0.74977917063E+01  0.30855849720E+02 -0.45684195228E+02  0.55671770424E+02  0.19999965167E+01 0.  0.
        -13    1    3    3    0    0 -0.74977917063E+01 -0.30855849720E+02  0.75778181915E+01  0.32645594419E+02  0.10566000000E+00 0.  1.
         13    1    4    4    0    0  0.36517434499E+01  0.12836401792E+02 -0.18849580637E+02  0.23096023368E+02  0.10566000000E+00 0. -1.
        -13    1    4    4    0    0  0.13740787133E+01  0.49437497800E+01 -0.66710512341E+01  0.84168190429E+01  0.10566000000E+00 0.  1.
        -14    1    4    4    0    0  0.24719695431E+01  0.13075698148E+02 -0.20163563357E+02  0.24158928013E+02  0.00000000000E+00 0.  1.
<mgrwt>
<rscale>  0 0.79673465E+02</rscale>
<asrwt>0</asrwt>
<pdfrwt beam="1">  1        2 0.97249031E-02 0.79673465E+02</pdfrwt>
<pdfrwt beam="2">  1       -1 0.38623837E-02 0.79673465E+02</pdfrwt>
<totfact> 0.15932502E+05</totfact>
</mgrwt>
</event>
<event>
 8    1  0.1226832E-024  0.7985585E+02  0.7818608E-02  0.1329461E+00
         -1   -1    0    0    0  501 -0.00000000000E+00  0.00000000000E+00  0.12314761913E+03  0.12314761923E+03  0.50400000000E-02 0.  1.
          2   -1    0    0  501    0  0.00000000000E+00 -0.00000000000E+00 -0.12945758054E+02  0.12945758305E+02  0.25500000000E-02 0. -1.
         24    2    1    2    0    0 -0.35527136788E-14 -0.71054273576E-14  0.11020186107E+03  0.13609337753E+03  0.79855852790E+02 0.  0.
         66    2    3    3    0    0  0.24025623073E+02  0.20614351771E+02  0.13737765728E+02  0.34567445292E+02  0.20000009614E+01 0.  0.
        -13    1    3    3    0    0 -0.24025623073E+02 -0.20614351771E+02  0.96464095345E+02  0.10152593224E+03  0.10566000000E+00 0.  1.
         13    1    4    4    0    0  0.16089953865E+01  0.12562980751E+01  0.74745215168E+00  0.21764649692E+01  0.10566000000E+00 0. -1.
        -13    1    4    4    0    0  0.39510740827E+01  0.25616490100E+01  0.20317268626E+01  0.51295331305E+01  0.10566000000E+00 0.  1.
        -14    1    4    4    0    0  0.18465553604E+02  0.16796404686E+02  0.10958586714E+02  0.27261447193E+02  0.00000000000E+00 0.  1.
<mgrwt>
<rscale>  0 0.79855853E+02</rscale>
<asrwt>0</asrwt>
<pdfrwt beam="1">  1        2 0.19916551E-02 0.79855853E+02</pdfrwt>
<pdfrwt beam="2">  1       -1 0.18945788E-01 0.79855853E+02</pdfrwt>
<totfact> 0.11368123E+05</totfact>
</mgrwt>
</event>
<event>
 8    1  0.1226832E-024  0.7999744E+02  0.7818608E-02  0.1329059E+00
         -1   -1    0    0    0  501 -0.00000000000E+00  0.00000000000E+00  0.17640043772E+01  0.17640115772E+01  0.50400000000E-02 0.  1.
          2   -1    0    0  501    0  0.00000000000E+00 -0.00000000000E+00 -0.90696731165E+03  0.90696731165E+03  0.25500000000E-02 0. -1.
         24    2    1    2    0    0  0.88817841970E-15  0.00000000000E+00 -0.90520330727E+03  0.90873132323E+03  0.79997439478E+02 0.  0.
         66    2    3    3    0    0  0.63487281728E+01 -0.25371074464E+02 -0.79628947950E+03  0.79672136468E+03  0.20000043057E+01 0.  0.
        -13    1    3    3    0    0 -0.63487281728E+01  0.25371074464E+02 -0.10891382778E+03  0.11200995855E+03  0.10566000000E+00 0.  1.
         13    1    4    4    0    0  0.12297739016E+01 -0.56340745017E+01 -0.19827230388E+03  0.19835617659E+03  0.10566000000E+00 0. -1.
        -13    1    4    4    0    0  0.23543647174E+00 -0.59812073366E+00 -0.17945750516E+02  0.17957569556E+02  0.10566000000E+00 0.  1.
         14    1    4    4    0    0  0.48835177995E+01 -0.19138879229E+02 -0.58007142510E+03  0.58040761854E+03  0.00000000000E+00 0. -1.
<mgrwt>
<rscale>  0 0.79997439E+02</rscale>
<asrwt>0</asrwt>
<pdfrwt beam="1">  1        2 0.13953306E+00 0.79997439E+02</pdfrwt>
<pdfrwt beam="2">  1       -1 0.27138657E-03 0.79997439E+02</pdfrwt>
<totfact> 0.34978507E+05</totfact>
</mgrwt>
</event>
<event>
 8    1  0.1226832E-024  0.8771487E+02  0.7818608E-02  0.1308482E+00
         -1   -1    0    0    0  501 -0.00000000000E+00  0.00000000000E+00  0.21636899883E+03  0.21636899889E+03  0.50400000000E-02 0.  1.
          2   -1    0    0  501    0  0.00000000000E+00 -0.00000000000E+00 -0.88897890777E+01  0.88897894434E+01  0.25500000000E-02 0. -1.
         24    2    1    2    0    0  0.00000000000E+00  0.00000000000E+00  0.20747920975E+03  0.22525878833E+03  0.87714874687E+02 0.  0.
         66    2    3    3    0    0 -0.30275566998E+02 -0.20047972199E+02  0.40734684564E+02  0.54606278856E+02  0.20000043975E+01 0.  0.
        -13    1    3    3    0    0  0.30275566998E+02  0.20047972199E+02  0.16674452518E+03  0.17065250947E+03  0.10566000000E+00 0.  1.
         13    1    4    4    0    0 -0.22419125530E+02 -0.14646109709E+02  0.30459129400E+02  0.40557310647E+02  0.10566000000E+00 0. -1.
        -13    1    4    4    0    0 -0.25474137047E+01 -0.17796065575E+01  0.39994315229E+01  0.50658595148E+01  0.10566000000E+00 0. -1.
        -14    1    4    4    0    0 -0.53090277638E+01 -0.36222559326E+01  0.62761236415E+01  0.89831086936E+01  0.00000000000E+00 0.  1.
<mgrwt>
<rscale>  0 0.87714875E+02</rscale>
<asrwt>0</asrwt>
<pdfrwt beam="1">  1        2 0.13676599E-02 0.87714875E+02</pdfrwt>
<pdfrwt beam="2">  1       -1 0.33287538E-01 0.87714875E+02</pdfrwt>
<totfact> 0.76834514E+04</totfact>
</mgrwt>
</event>
<event>
 8    1  0.1226832E-024  0.7858694E+02  0.7818608E-02  0.1333110E+00
          2   -1    0    0  501    0  0.00000000000E+00  0.00000000000E+00  0.22864214324E+03  0.22864214325E+03  0.25500000000E-02 0. -1.
         -1   -1    0    0    0  501 -0.00000000000E+00 -0.00000000000E+00 -0.67528086100E+01  0.67528104909E+01  0.50400000000E-02 0.  1.
         24    2    1    2    0    0  0.35527136788E-14 -0.35527136788E-14  0.22188933463E+03  0.23539495374E+03  0.78586941829E+02 0.  0.
         66    2    3    3    0    0  0.22112898071E+02 -0.31991486298E+02  0.12729525840E+03  0.13311843699E+03  0.20000000529E+01 0.  0.
        -13    1    3    3    0    0 -0.22112898071E+02  0.31991486298E+02  0.94594076229E+02  0.10227651675E+03  0.10566000000E+00 0.  1.
         13    1    4    4    0    0  0.46377449824E+01 -0.66826492935E+01  0.24831691153E+02  0.26130260803E+02  0.10566000000E+00 0. -1.
        -13    1    4    4    0    0  0.14385031521E+02 -0.20214688929E+02  0.81242384375E+02  0.84946447620E+02  0.10566000000E+00 0.  1.
        -14    1    4    4    0    0  0.30901215680E+01 -0.50941480758E+01  0.21221182872E+02  0.22041728571E+02  0.00000000000E+00 0.  1.
<mgrwt>
<rscale>  0 0.78586942E+02</rscale>
<asrwt>0</asrwt>
<pdfrwt beam="1">  1        2 0.35175719E-01 0.78586942E+02</pdfrwt>
<pdfrwt beam="2">  1       -1 0.10388937E-02 0.78586942E+02</pdfrwt>
<totfact> 0.24229865E+05</totfact>
</mgrwt>
</event>
<event>
 8    1  0.1226832E-024  0.8126224E+02  0.7818608E-02  0.1325507E+00
         -1   -1    0    0    0  501 -0.00000000000E+00  0.00000000000E+00  0.23151850161E+01  0.23151905020E+01  0.50400000000E-02 0.  1.
          2   -1    0    0  501    0  0.00000000000E+00 -0.00000000000E+00 -0.71306863917E+03  0.71306863918E+03  0.25500000000E-02 0. -1.
         24    2    1    2    0    0  0.00000000000E+00  0.00000000000E+00 -0.71075345416E+03  0.71538382968E+03  0.81262237054E+02 0.  0.
         66    2    3    3    0    0 -0.26888510756E+02 -0.17821188934E+02 -0.57271539236E+03  0.57362662720E+03  0.20000007337E+01 0.  0.
        -13    1    3    3    0    0  0.26888510756E+02  0.17821188934E+02 -0.13803806180E+03  0.14175720248E+03  0.10566000000E+00 0.  1.
         13    1    4    4    0    0 -0.29239535625E+01 -0.17222277539E+01 -0.64676728971E+02  0.64765778056E+02  0.10566000000E+00 0. -1.
        -13    1    4    4    0    0 -0.15825029011E+02 -0.99335142659E+01 -0.31951003500E+03  0.32005590118E+03  0.10566000000E+00 0.  1.
         14    1    4    4    0    0 -0.81395281829E+01 -0.61654469138E+01 -0.18852862839E+03  0.18880494797E+03  0.00000000000E+00 0. -1.
<mgrwt>
<rscale>  0 0.81262237E+02</rscale>
<asrwt>0</asrwt>
<pdfrwt beam="1">  1        2 0.10970269E+00 0.81262237E+02</pdfrwt>
<pdfrwt beam="2">  1       -1 0.35618330E-03 0.81262237E+02</pdfrwt>
<totfact> 0.32250993E+05</totfact>
</mgrwt>
</event>
<event>
 8    1  0.1226832E-024  0.7945246E+02  0.7818608E-02  0.1330612E+00
         -1   -1    0    0    0  501 -0.00000000000E+00  0.00000000000E+00  0.47070919721E+02  0.47070919991E+02  0.50400000000E-02 0.  1.
          2   -1    0    0  501    0  0.00000000000E+00 -0.00000000000E+00 -0.33527567043E+02  0.33527567140E+02  0.25500000000E-02 0. -1.
         24    2    1    2    0    0 -0.35527136788E-14  0.44408920985E-15  0.13543352679E+02  0.80598487131E+02  0.79452462051E+02 0.  0.
         66    2    3    3    0    0  0.31552600497E+02 -0.34533866756E+01 -0.17414942295E+02  0.36259794441E+02  0.20000000315E+01 0.  0.
        -13    1    3    3    0    0 -0.31552600497E+02  0.34533866756E+01  0.30958294974E+02  0.44338692689E+02  0.10566000000E+00 0.  1.
         13    1    4    4    0    0  0.50963464413E+01 -0.76730419761E+00 -0.29969269650E+01  0.59627374628E+01  0.10566000000E+00 0. -1.
        -13    1    4    4    0    0  0.22343788396E+02 -0.18070015391E+01 -0.12601558313E+02  0.25716153880E+02  0.10566000000E+00 0.  1.
        -14    1    4    4    0    0  0.41124656601E+01 -0.87908093881E+00 -0.18164570177E+01  0.45809030987E+01  0.00000000000E+00 0.  1.
<mgrwt>
<rscale>  0 0.79452462E+02</rscale>
<asrwt>0</asrwt>
<pdfrwt beam="1">  1        2 0.51580873E-02 0.79452462E+02</pdfrwt>
<pdfrwt beam="2">  1       -1 0.72416800E-02 0.79452462E+02</pdfrwt>
<totfact> 0.14020888E+05</totfact>
</mgrwt>
</event>
<event>
 8    1  0.1226832E-024  0.7938906E+02  0.7818608E-02  0.1330794E+00
         -1   -1    0    0    0  501 -0.00000000000E+00  0.00000000000E+00  0.22226094447E+02  0.22226095018E+02  0.50400000000E-02 0.  1.
          2   -1    0    0  501    0  0.00000000000E+00 -0.00000000000E+00 -0.70892156622E+02  0.70892156667E+02  0.25500000000E-02 0. -1.
         24    2    1    2    0    0  0.00000000000E+00  0.71054273576E-14 -0.48666062175E+02  0.93118251686E+02  0.79389062152E+02 0.  0.
         66    2    3    3    0    0 -0.97727942245E+01 -0.35001953270E+02 -0.43005356228E+02  0.56339195206E+02  0.20000031222E+01 0.  0.
        -13    1    3    3    0    0  0.97727942245E+01  0.35001953270E+02 -0.56607059467E+01  0.36779056479E+02  0.10566000000E+00 0.  1.
         13    1    4    4    0    0 -0.25473851347E+01 -0.77531674112E+01 -0.85950195293E+01  0.11852691706E+02  0.10566000000E+00 0. -1.
        -13    1    4    4    0    0 -0.61808070120E+00 -0.19766766952E+01 -0.25483612343E+01  0.32855111515E+01  0.10566000000E+00 0. -1.
         14    1    4    4    0    0 -0.66073283885E+01 -0.25272109164E+02 -0.31861975465E+02  0.41200992349E+02  0.00000000000E+00 0. -1.
<mgrwt>
<rscale>  0 0.79389062E+02</rscale>
<asrwt>0</asrwt>
<pdfrwt beam="1">  1        2 0.10906486E-01 0.79389062E+02</pdfrwt>
<pdfrwt beam="2">  1       -1 0.34193992E-02 0.79389062E+02</pdfrwt>
<totfact> 0.16535941E+05</totfact>
</mgrwt>
</event>
<event>
 8    1  0.1226832E-024  0.7889077E+02  0.7818608E-02  0.1332229E+00
          2   -1    0    0  501    0  0.00000000000E+00  0.00000000000E+00  0.82107895085E+03  0.82107895086E+03  0.25500000000E-02 0. -1.
         -1   -1    0    0    0  501 -0.00000000000E+00 -0.00000000000E+00 -0.18949888444E+01  0.18949955467E+01  0.50400000000E-02 0.  1.
         24    2    1    2    0    0  0.00000000000E+00  0.00000000000E+00  0.81918396201E+03  0.82297394640E+03  0.78890765283E+02 0.  0.
         66    2    3    3    0    0  0.22713019392E+02 -0.23091796027E+02  0.64423884233E+03  0.64505565517E+03  0.20000001788E+01 0.  0.
        -13    1    3    3    0    0 -0.22713019392E+02  0.23091796027E+02  0.17494511968E+03  0.17791829124E+03  0.10566000000E+00 0.  1.
         13    1    4    4    0    0  0.10172700239E+02 -0.10191340434E+02  0.28038454783E+03  0.28075407936E+03  0.10566000000E+00 0. -1.
        -13    1    4    4    0    0  0.10905179368E+02 -0.11711799354E+02  0.32841414723E+03  0.32880382061E+03  0.10566000000E+00 0.  1.
        -14    1    4    4    0    0  0.16351397850E+01 -0.11886562399E+01  0.35440147271E+02  0.35497755202E+02  0.00000000000E+00 0.  1.
<mgrwt>
<rscale>  0 0.78890765E+02</rscale>
<asrwt>0</asrwt>
<pdfrwt beam="1">  1        2 0.12631985E+00 0.78890765E+02</pdfrwt>
<pdfrwt beam="2">  1       -1 0.29153723E-03 0.78890765E+02</pdfrwt>
<totfact> 0.35788221E+05</totfact>
</mgrwt>
</event>
<event>
 8    1  0.1226832E-024  0.7715314E+02  0.7818608E-02  0.1337330E+00
          2   -1    0    0  501    0  0.00000000000E+00  0.00000000000E+00  0.26255057792E+02  0.26255057916E+02  0.25500000000E-02 0. -1.
         -1   -1    0    0    0  501 -0.00000000000E+00 -0.00000000000E+00 -0.56680579432E+02  0.56680579656E+02  0.50400000000E-02 0.  1.
         24    2    1    2    0    0  0.35527136788E-14  0.35527136788E-14 -0.30425521640E+02  0.82935637572E+02  0.77153143892E+02 0.  0.
         66    2    3    3    0    0  0.23739969558E+02  0.17516924345E+02  0.11450455889E+02  0.31710278119E+02  0.20000012982E+01 0.  0.
        -13    1    3    3    0    0 -0.23739969558E+02 -0.17516924345E+02 -0.41875977529E+02  0.51225359453E+02  0.10566000000E+00 0.  1.
         13    1    4    4    0    0  0.17179453744E+02  0.12597051353E+02  0.73785276807E+01  0.22544914471E+02  0.10566000000E+00 0. -1.
        -13    1    4    4    0    0  0.33913139749E+01  0.22997403705E+01  0.19990637256E+01  0.45603986737E+01  0.10566000000E+00 0.  1.
         14    1    4    4    0    0  0.31692018383E+01  0.26201326217E+01  0.20728644823E+01  0.46049649737E+01  0.00000000000E+00 0. -1.
<mgrwt>
<rscale>  0 0.77153144E+02</rscale>
<asrwt>0</asrwt>
<pdfrwt beam="1">  1        2 0.40392397E-02 0.77153144E+02</pdfrwt>
<pdfrwt beam="2">  1       -1 0.87200892E-02 0.77153144E+02</pdfrwt>
<totfact> 0.14513453E+05</totfact>
</mgrwt>
</event>
<event>
 8    1  0.1226832E-024  0.8172047E+02  0.7818608E-02  0.1324239E+00
          2   -1    0    0  501    0  0.00000000000E+00  0.00000000000E+00  0.21816266926E+03  0.21816266927E+03  0.25500000000E-02 0. -1.
         -1   -1    0    0    0  501 -0.00000000000E+00 -0.00000000000E+00 -0.76528162450E+01  0.76528179046E+01  0.50400000000E-02 0.  1.
         24    2    1    2    0    0  0.35527136788E-14  0.17763568394E-14  0.21050985301E+03  0.22581548718E+03  0.81720474996E+02 0.  0.
         66    2    3    3    0    0  0.31139415266E+02  0.15957886009E+02  0.16349337182E+03  0.16720765513E+03  0.19999994200E+01 0.  0.
        -13    1    3    3    0    0 -0.31139415266E+02 -0.15957886009E+02  0.47016481195E+02  0.58607832044E+02  0.10566000000E+00 0.  1.
         13    1    4    4    0    0  0.20557994573E+02  0.10983803148E+02  0.11057991767E+03  0.11300975369E+03  0.10566000000E+00 0. -1.
        -13    1    4    4    0    0  0.16508829870E+01  0.10911499681E+01  0.81561358032E+01  0.83934342295E+01  0.10566000000E+00 0.  1.
         14    1    4    4    0    0  0.89305377054E+01  0.38829328927E+01  0.44757318345E+02  0.45804467217E+02  0.00000000000E+00 0. -1.
<mgrwt>
<rscale>  0 0.81720475E+02</rscale>
<asrwt>0</asrwt>
<pdfrwt beam="1">  1        2 0.33563484E-01 0.81720475E+02</pdfrwt>
<pdfrwt beam="2">  1       -1 0.11773566E-02 0.81720475E+02</pdfrwt>
<totfact> 0.21498780E+05</totfact>
</mgrwt>
</event>
<event>
 8    1  0.1226832E-024  0.8144155E+02  0.7818608E-02  0.1325010E+00
          2   -1    0    0  501    0  0.00000000000E+00  0.00000000000E+00  0.14021433114E+03  0.14021433116E+03  0.25500000000E-02 0. -1.
         -1   -1    0    0    0  501 -0.00000000000E+00 -0.00000000000E+00 -0.11826049358E+02  0.11826050432E+02  0.50400000000E-02 0.  1.
         24    2    1    2    0    0  0.00000000000E+00 -0.35527136788E-14  0.12838828178E+03  0.15204038159E+03  0.81441554115E+02 0.  0.
         66    2    3    3    0    0 -0.12544316722E+02 -0.18829035298E+02  0.12738369211E+03  0.12939280299E+03  0.19999989843E+01 0.  0.
        -13    1    3    3    0    0  0.12544316722E+02  0.18829035298E+02  0.10045896643E+01  0.22647578605E+02  0.10566000000E+00 0.  1.
         13    1    4    4    0    0 -0.78974877913E+01 -0.10794232745E+02  0.73011282272E+02  0.74226304482E+02  0.10566000000E+00 0. -1.
        -13    1    4    4    0    0 -0.39106226060E+01 -0.62616473782E+01  0.41491249524E+02  0.42143043889E+02  0.10566000000E+00 0.  1.
        -14    1    4    4    0    0 -0.73620632431E+00 -0.17731551745E+01  0.12881160317E+02  0.13023454616E+02  0.00000000000E+00 0.  1.
<mgrwt>
<rscale>  0 0.81441554E+02</rscale>
<asrwt>0</asrwt>
<pdfrwt beam="1">  1        2 0.21571436E-01 0.81441554E+02</pdfrwt>
<pdfrwt beam="2">  1       -1 0.18193923E-02 0.81441554E+02</pdfrwt>
<totfact> 0.18694158E+05</totfact>
</mgrwt>
</event>
<event>
 8    1  0.1226832E-024  0.7941886E+02  0.7818608E-02  0.1330709E+00
          2   -1    0    0  501    0  0.00000000000E+00  0.00000000000E+00  0.10410070368E+03  0.10410070371E+03  0.25500000000E-02 0. -1.
         -1   -1    0    0    0  501 -0.00000000000E+00 -0.00000000000E+00 -0.15147242400E+02  0.15147243238E+02  0.50400000000E-02 0.  1.
         24    2    1    2    0    0  0.00000000000E+00  0.35527136788E-14  0.88953461283E+02  0.11924794695E+03  0.79418855306E+02 0.  0.
         66    2    3    3    0    0 -0.29376596411E+01  0.20310399592E+02  0.95505088524E+02  0.97705496783E+02  0.19999979494E+01 0.  0.
        -13    1    3    3    0    0  0.29376596411E+01 -0.20310399592E+02 -0.65516272413E+01  0.21542450170E+02  0.10566000000E+00 0.  1.
         13    1    4    4    0    0 -0.20363452516E+00  0.66435429892E+00  0.33369220791E+01  0.34101388025E+01  0.10566000000E+00 0.  1.
        -13    1    4    4    0    0 -0.24267098363E+00  0.12175931209E+01  0.40950523693E+01  0.42804252309E+01  0.10566000000E+00 0.  1.
         14    1    4    4    0    0 -0.24913541323E+01  0.18428452173E+02  0.88073114076E+02  0.90014932750E+02  0.00000000000E+00 0. -1.
<mgrwt>
<rscale>  0 0.79418855E+02</rscale>
<asrwt>0</asrwt>
<pdfrwt beam="1">  1        2 0.16015493E-01 0.79418855E+02</pdfrwt>
<pdfrwt beam="2">  1       -1 0.23303450E-02 0.79418855E+02</pdfrwt>
<totfact> 0.18280962E+05</totfact>
</mgrwt>
</event>
<event>
 8    1  0.1226832E-024  0.7960540E+02  0.7818608E-02  0.1330175E+00
          2   -1    0    0  501    0  0.00000000000E+00  0.00000000000E+00  0.18957173015E+03  0.18957173017E+03  0.25500000000E-02 0. -1.
         -1   -1    0    0    0  501 -0.00000000000E+00 -0.00000000000E+00 -0.83570200759E+01  0.83570215956E+01  0.50400000000E-02 0.  1.
         24    2    1    2    0    0  0.00000000000E+00  0.00000000000E+00  0.18121471007E+03  0.19792875176E+03  0.79605399484E+02 0.  0.
         66    2    3    3    0    0 -0.78626901309E+01 -0.35117309858E+02  0.13280109032E+03  0.13760514867E+03  0.20000009462E+01 0.  0.
        -13    1    3    3    0    0  0.78626901309E+01  0.35117309858E+02  0.48413619752E+02  0.60323603086E+02  0.10566000000E+00 0.  1.
         13    1    4    4    0    0 -0.29730735746E+01 -0.14665588144E+02  0.53802361458E+02  0.55844640787E+02  0.10566000000E+00 0. -1.
        -13    1    4    4    0    0 -0.12575415391E+01 -0.80398166271E+01  0.30684181558E+02  0.31745081888E+02  0.10566000000E+00 0.  1.
         14    1    4    4    0    0 -0.36320750172E+01 -0.12411905087E+02  0.48314547303E+02  0.50015426000E+02  0.00000000000E+00 0. -1.
<mgrwt>
<rscale>  0 0.79605399E+02</rscale>
<asrwt>0</asrwt>
<pdfrwt beam="1">  1        2 0.29164881E-01 0.79605399E+02</pdfrwt>
<pdfrwt beam="2">  1       -1 0.12856955E-02 0.79605399E+02</pdfrwt>
<totfact> 0.21938853E+05</totfact>
</mgrwt>
</event>
<event>
 8    1  0.1226832E-024  0.7949466E+02  0.7818608E-02  0.1330492E+00
          2   -1    0    0  501    0  0.00000000000E+00  0.00000000000E+00  0.13480938570E+03  0.13480938572E+03  0.25500000000E-02 0. -1.
         -1   -1    0    0    0  501 -0.00000000000E+00 -0.00000000000E+00 -0.11719142111E+02  0.11719143195E+02  0.50400000000E-02 0.  1.
         24    2    1    2    0    0  0.00000000000E+00  0.00000000000E+00  0.12309024358E+03  0.14652852892E+03  0.79494664729E+02 0.  0.
         66    2    3    3    0    0  0.26149910458E+02  0.19832257083E+02  0.10282951070E+03  0.10795853152E+03  0.20000047797E+01 0.  0.
        -13    1    3    3    0    0 -0.26149910458E+02 -0.19832257083E+02  0.20260732883E+02  0.38569997394E+02  0.10566000000E+00 0.  1.
         13    1    4    4    0    0  0.78301244745E+01  0.57649648375E+01  0.30210542880E+02  0.31736945883E+02  0.10566000000E+00 0. -1.
        -13    1    4    4    0    0  0.10003401168E+00  0.25176403157E+00  0.93826161325E+00  0.98228856329E+00  0.10566000000E+00 0.  1.
        -14    1    4    4    0    0  0.18219751972E+02  0.13815528214E+02  0.71680706209E+02  0.75239297075E+02  0.00000000000E+00 0.  1.
<mgrwt>
<rscale>  0 0.79494665E+02</rscale>
<asrwt>0</asrwt>
<pdfrwt beam="1">  1        2 0.20739905E-01 0.79494665E+02</pdfrwt>
<pdfrwt beam="2">  1       -1 0.18029450E-02 0.79494665E+02</pdfrwt>
<totfact> 0.19692283E+05</totfact>
</mgrwt>
</event>
<event>
 8    1  0.1226832E-024  0.7908840E+02  0.7818608E-02  0.1331659E+00
         -1   -1    0    0    0  501 -0.00000000000E+00  0.00000000000E+00  0.54007866215E+01  0.54007889732E+01  0.50400000000E-02 0.  1.
          2   -1    0    0  501    0  0.00000000000E+00 -0.00000000000E+00 -0.28953991079E+03  0.28953991080E+03  0.25500000000E-02 0. -1.
         24    2    1    2    0    0  0.00000000000E+00 -0.35527136788E-14 -0.28413912417E+03  0.29494069978E+03  0.79088396749E+02 0.  0.
         66    2    3    3    0    0 -0.21459119876E+02 -0.30923098433E+02 -0.18706738116E+03  0.19082698168E+03  0.19999992981E+01 0.  0.
        -13    1    3    3    0    0  0.21459119876E+02  0.30923098433E+02 -0.97071743007E+02  0.10411371810E+03  0.10566000000E+00 0.  1.
         13    1    4    4    0    0 -0.65018667500E+01 -0.95589846782E+01 -0.54937667960E+02  0.56140956388E+02  0.10566000000E+00 0. -1.
        -13    1    4    4    0    0 -0.70684808859E+01 -0.99828314790E+01 -0.65511276316E+02  0.66643520578E+02  0.10566000000E+00 0.  1.
        -14    1    4    4    0    0 -0.78887722397E+01 -0.11381282276E+02 -0.66618436888E+02  0.68042504709E+02  0.00000000000E+00 0.  1.
<mgrwt>
<rscale>  0 0.79088397E+02</rscale>
<asrwt>0</asrwt>
<pdfrwt beam="1">  1        2 0.44544590E-01 0.79088397E+02</pdfrwt>
<pdfrwt beam="2">  1       -1 0.83089066E-03 0.79088397E+02</pdfrwt>
<totfact> 0.25936524E+05</totfact>
</mgrwt>
</event>
<event>
 8    1  0.1226832E-024  0.8045126E+02  0.7818608E-02  0.1327776E+00
         -1   -1    0    0    0  501 -0.00000000000E+00  0.00000000000E+00  0.95613615586E+01  0.95613628869E+01  0.50400000000E-02 0.  1.
          2   -1    0    0  501    0  0.00000000000E+00 -0.00000000000E+00 -0.16923333412E+03  0.16923333414E+03  0.25500000000E-02 0. -1.
         24    2    1    2    0    0  0.00000000000E+00  0.00000000000E+00 -0.15967197256E+03  0.17879469703E+03  0.80451257685E+02 0.  0.
         66    2    3    3    0    0 -0.26970194718E+02  0.11095685379E+02 -0.14137739695E+03  0.14436784271E+03  0.20000010337E+01 0.  0.
        -13    1    3    3    0    0  0.26970194718E+02 -0.11095685379E+02 -0.18294575615E+02  0.34426854316E+02  0.10566000000E+00 0.  1.
         13    1    4    4    0    0 -0.21925438006E+02  0.84947752943E+01 -0.11197450182E+03  0.11441672195E+03  0.10566000000E+00 0. -1.
        -13    1    4    4    0    0 -0.47584805274E+01  0.23615248568E+01 -0.26801390559E+02  0.27322987328E+02  0.10566000000E+00 0.  1.
         14    1    4    4    0    0 -0.28627618433E+00  0.23938522808E+00 -0.26015045682E+01  0.26281334364E+01  0.00000000000E+00 0. -1.
<mgrwt>
<rscale>  0 0.80451258E+02</rscale>
<asrwt>0</asrwt>
<pdfrwt beam="1">  1        2 0.26035895E-01 0.80451258E+02</pdfrwt>
<pdfrwt beam="2">  1       -1 0.14709789E-02 0.80451258E+02</pdfrwt>
<totfact> 0.20529848E+05</totfact>
</mgrwt>
</event>
<event>
 8    1  0.1226832E-024  0.8005964E+02  0.7818608E-02  0.1328882E+00
         -1   -1    0    0    0  501 -0.00000000000E+00  0.00000000000E+00  0.67104267317E+02  0.67104267507E+02  0.50400000000E-02 0.  1.
          2   -1    0    0  501    0  0.00000000000E+00 -0.00000000000E+00 -0.23879055696E+02  0.23879055832E+02  0.25500000000E-02 0. -1.
         24    2    1    2    0    0  0.00000000000E+00  0.00000000000E+00  0.43225211621E+02  0.90983323339E+02  0.80059641556E+02 0.  0.
         66    2    3    3    0    0 -0.36598036977E+02  0.60864956096E+01  0.46203580548E+01  0.37440745681E+02  0.19999972944E+01 0.  0.
        -13    1    3    3    0    0  0.36598036977E+02 -0.60864956096E+01  0.38604853566E+02  0.53542577658E+02  0.10566000000E+00 0.  1.
         13    1    4    4    0    0 -0.20719991346E+01  0.71182153466E+00  0.29836673713E+00  0.22136072498E+01  0.10566000000E+00 0. -1.
        -13    1    4    4    0    0 -0.98058349283E+01  0.18687824288E+01  0.16259322248E+01  0.10114423663E+02  0.10566000000E+00 0. -1.
         14    1    4    4    0    0 -0.24720202914E+02  0.35058916462E+01  0.26960590928E+01  0.25112714767E+02  0.00000000000E+00 0. -1.
<mgrwt>
<rscale>  0 0.80059642E+02</rscale>
<asrwt>0</asrwt>
<pdfrwt beam="1">  1        2 0.36737009E-02 0.80059642E+02</pdfrwt>
<pdfrwt beam="2">  1       -1 0.10323733E-01 0.80059642E+02</pdfrwt>
<totfact> 0.12836065E+05</totfact>
</mgrwt>
</event>
<event>
 8    1  0.1226832E-024  0.7980497E+02  0.7818608E-02  0.1329606E+00
          2   -1    0    0  501    0  0.00000000000E+00  0.00000000000E+00  0.29790977429E+02  0.29790977538E+02  0.25500000000E-02 0. -1.
         -1   -1    0    0    0  501 -0.00000000000E+00 -0.00000000000E+00 -0.53445994643E+02  0.53445994881E+02  0.50400000000E-02 0.  1.
         24    2    1    2    0    0  0.00000000000E+00  0.00000000000E+00 -0.23655017214E+02  0.83236972418E+02  0.79804973141E+02 0.  0.
         66    2    3    3    0    0  0.25355783484E+02 -0.27072250884E+02 -0.27106336207E+02  0.45984518931E+02  0.19999986931E+01 0.  0.
        -13    1    3    3    0    0 -0.25355783484E+02  0.27072250884E+02  0.34513189924E+01  0.37252453487E+02  0.10566000000E+00 0.  1.
         13    1    4    4    0    0  0.69060405960E+01 -0.75030011707E+01 -0.73272023238E+01  0.12557367607E+02  0.10566000000E+00 0. -1.
        -13    1    4    4    0    0  0.61683853659E+01 -0.72512450688E+01 -0.77872766603E+01  0.12299690032E+02  0.10566000000E+00 0.  1.
         14    1    4    4    0    0  0.12281357522E+02 -0.12318004644E+02 -0.11991857223E+02  0.21127461292E+02  0.00000000000E+00 0. -1.
<mgrwt>
<rscale>  0 0.79804973E+02</rscale>
<asrwt>0</asrwt>
<pdfrwt beam="1">  1        2 0.45832273E-02 0.79804973E+02</pdfrwt>
<pdfrwt beam="2">  1       -1 0.82224608E-02 0.79804973E+02</pdfrwt>
<totfact> 0.13528922E+05</totfact>
</mgrwt>
</event>
<event>
 8    1  0.1226832E-024  0.7684119E+02  0.7818608E-02  0.1338262E+00
         -1   -1    0    0    0  501 -0.00000000000E+00  0.00000000000E+00  0.51652485563E+01  0.51652510152E+01  0.50400000000E-02 0.  1.
          2   -1    0    0  501    0  0.00000000000E+00 -0.00000000000E+00 -0.28578330134E+03  0.28578330135E+03  0.25500000000E-02 0. -1.
         24    2    1    2    0    0  0.00000000000E+00  0.00000000000E+00 -0.28061805278E+03  0.29094855236E+03  0.76841190621E+02 0.  0.
         66    2    3    3    0    0 -0.16082732735E+02  0.83188089488E+01 -0.26859776569E+03  0.26921481499E+03  0.19999998594E+01 0.  0.
        -13    1    3    3    0    0  0.16082732735E+02 -0.83188089488E+01 -0.12020287087E+02  0.21733737374E+02  0.10566000000E+00 0.  1.
         13    1    4    4    0    0 -0.22319221110E+01  0.14724595954E+01 -0.32228319578E+02  0.32339223250E+02  0.10566000000E+00 0. -1.
        -13    1    4    4    0    0 -0.78949940005E+01  0.34865792848E+01 -0.12822607564E+03  0.12851624334E+03  0.10566000000E+00 0.  1.
         14    1    4    4    0    0 -0.59558166241E+01  0.33597700686E+01 -0.10814337048E+03  0.10835934840E+03  0.00000000000E+00 0. -1.
<mgrwt>
<rscale>  0 0.76841191E+02</rscale>
<asrwt>0</asrwt>
<pdfrwt beam="1">  1        2 0.43966649E-01 0.76841191E+02</pdfrwt>
<pdfrwt beam="2">  1       -1 0.79465404E-03 0.76841191E+02</pdfrwt>
<totfact> 0.27836711E+05</totfact>
</mgrwt>
</event>
<event>
 8    1  0.1226832E-024  0.7984904E+02  0.7818608E-02  0.1329480E+00
          2   -1    0    0  501    0  0.00000000000E+00  0.00000000000E+00  0.24692131510E+03  0.24692131511E+03  0.25500000000E-02 0. -1.
         -1   -1    0    0    0  501 -0.00000000000E+00 -0.00000000000E+00 -0.64553640147E+01  0.64553659822E+01  0.50400000000E-02 0.  1.
         24    2    1    2    0    0  0.00000000000E+00  0.00000000000E+00  0.24046595109E+03  0.25337668110E+03  0.79849038138E+02 0.  0.
         66    2    3    3    0    0  0.87976747041E+01 -0.20833787994E+02  0.22461500128E+03  0.22575948399E+03  0.20000017492E+01 0.  0.
        -13    1    3    3    0    0 -0.87976747041E+01  0.20833787994E+02  0.15850949803E+02  0.27617197107E+02  0.10566000000E+00 0.  1.
         13    1    4    4    0    0  0.10773137346E+01 -0.30514918372E+01  0.34615779141E+02  0.34766874132E+02  0.10566000000E+00 0. -1.
        -13    1    4    4    0    0  0.15509944207E+01 -0.24461358706E+01  0.32004907678E+02  0.32135874718E+02  0.10566000000E+00 0.  1.
        -14    1    4    4    0    0  0.61693665488E+01 -0.15336160286E+02  0.15799431446E+03  0.15885673514E+03  0.00000000000E+00 0.  1.
<mgrwt>
<rscale>  0 0.79849038E+02</rscale>
<asrwt>0</asrwt>
<pdfrwt beam="1">  1        2 0.37987900E-01 0.79849038E+02</pdfrwt>
<pdfrwt beam="2">  1       -1 0.99313293E-03 0.79849038E+02</pdfrwt>
<totfact> 0.23881027E+05</totfact>
</mgrwt>
</event>
<event>
 8    1  0.1226832E-024  0.8105593E+02  0.7818608E-02  0.1326081E+00
         -1   -1    0    0    0  501 -0.00000000000E+00  0.00000000000E+00  0.54423622437E+01  0.54423645774E+01  0.50400000000E-02 0.  1.
          2   -1    0    0  501    0  0.00000000000E+00 -0.00000000000E+00 -0.30180198292E+03  0.30180198293E+03  0.25500000000E-02 0. -1.
         24    2    1    2    0    0  0.00000000000E+00  0.00000000000E+00 -0.29635962067E+03  0.30724434751E+03  0.81055933208E+02 0.  0.
         66    2    3    3    0    0  0.17997980461E+02 -0.36187757633E+02 -0.13821952619E+03  0.14402124329E+03  0.19999986806E+01 0.  0.
        -13    1    3    3    0    0 -0.17997980461E+02  0.36187757633E+02 -0.15814009448E+03  0.16322310422E+03  0.10566000000E+00 0.  1.
         13    1    4    4    0    0  0.10131221586E+01 -0.28304633000E+01 -0.91930670632E+01  0.96727237666E+01  0.10566000000E+00 0. -1.
        -13    1    4    4    0    0  0.16385665580E+02 -0.32107295339E+02 -0.12468912672E+03  0.12979506129E+03  0.10566000000E+00 0.  1.
        -14    1    4    4    0    0  0.59919272241E+00 -0.12499989940E+01 -0.43373324111E+01  0.45534582295E+01  0.00000000000E+00 0.  1.
<mgrwt>
<rscale>  0 0.81055933E+02</rscale>
<asrwt>0</asrwt>
<pdfrwt beam="1">  1        2 0.46431061E-01 0.81055933E+02</pdfrwt>
<pdfrwt beam="2">  1       -1 0.83728692E-03 0.81055933E+02</pdfrwt>
<totfact> 0.24685882E+05</totfact>
</mgrwt>
</event>
<event>
 8    1  0.1226832E-024  0.8081427E+02  0.7818608E-02  0.1326756E+00
         -1   -1    0    0    0  501 -0.00000000000E+00  0.00000000000E+00  0.17390762681E+01  0.17390835713E+01  0.50400000000E-02 0.  1.
          2   -1    0    0  501    0  0.00000000000E+00 -0.00000000000E+00 -0.93885070547E+03  0.93885070548E+03  0.25500000000E-02 0. -1.
         24    2    1    2    0    0  0.00000000000E+00  0.00000000000E+00 -0.93711162921E+03  0.94058978905E+03  0.80814266499E+02 0.  0.
         66    2    3    3    0    0 -0.22929434100E+02  0.13780348681E+02 -0.82092125339E+03  0.82135945920E+03  0.20000009159E+01 0.  0.
        -13    1    3    3    0    0  0.22929434100E+02 -0.13780348681E+02 -0.11619037582E+03  0.11923032985E+03  0.10566000000E+00 0.  1.
         13    1    4    4    0    0 -0.59689544487E+01  0.34307731836E+01 -0.19675018878E+03  0.19687063410E+03  0.10566000000E+00 0. -1.
        -13    1    4    4    0    0 -0.49438296796E+00  0.30852728686E+00 -0.26697036139E+02  0.26703604743E+02  0.10566000000E+00 0.  1.
         14    1    4    4    0    0 -0.16466096683E+02  0.10041048210E+02 -0.59747402847E+03  0.59778522036E+03  0.00000000000E+00 0. -1.
<mgrwt>
<rscale>  0 0.80814266E+02</rscale>
<asrwt>0</asrwt>
<pdfrwt beam="1">  1        2 0.14443817E+00 0.80814266E+02</pdfrwt>
<pdfrwt beam="2">  1       -1 0.26755151E-03 0.80814266E+02</pdfrwt>
<totfact> 0.34179404E+05</totfact>
</mgrwt>
</event>
<event>
 8    1  0.1226832E-024  0.7991324E+02  0.7818608E-02  0.1329298E+00
         -1   -1    0    0    0  501 -0.00000000000E+00  0.00000000000E+00  0.31295665507E+01  0.31295706091E+01  0.50400000000E-02 0.  1.
          2   -1    0    0  501    0  0.00000000000E+00 -0.00000000000E+00 -0.51014427676E+03  0.51014427677E+03  0.25500000000E-02 0. -1.
         24    2    1    2    0    0  0.00000000000E+00  0.00000000000E+00 -0.50701471021E+03  0.51327384738E+03  0.79913240649E+02 0.  0.
         66    2    3    3    0    0  0.21841095822E+02 -0.28553313656E+02 -0.36532080779E+03  0.36709074872E+03  0.19999999097E+01 0.  0.
        -13    1    3    3    0    0 -0.21841095822E+02  0.28553313656E+02 -0.14169390242E+03  0.14618309866E+03  0.10566000000E+00 0.  1.
         13    1    4    4    0    0  0.59141851076E+01 -0.66945538138E+01 -0.90448353736E+02  0.90888450828E+02  0.10566000000E+00 0. -1.
        -13    1    4    4    0    0  0.17154265855E+01 -0.26919857138E+01 -0.29457596842E+02  0.29630232048E+02  0.10566000000E+00 0.  1.
         14    1    4    4    0    0  0.14211484129E+02 -0.19166774128E+02 -0.24541485721E+03  0.24657206584E+03  0.00000000000E+00 0. -1.
<mgrwt>
<rscale>  0 0.79913241E+02</rscale>
<asrwt>0</asrwt>
<pdfrwt beam="1">  1        2 0.78483669E-01 0.79913241E+02</pdfrwt>
<pdfrwt beam="2">  1       -1 0.48147250E-03 0.79913241E+02</pdfrwt>
<totfact> 0.30732473E+05</totfact>
</mgrwt>
</event>
<event>
 8    1  0.1226832E-024  0.7812879E+02  0.7818608E-02  0.1334447E+00
         -1   -1    0    0    0  501 -0.00000000000E+00  0.00000000000E+00  0.41042166366E+02  0.41042166676E+02  0.50400000000E-02 0.  1.
          2   -1    0    0  501    0  0.00000000000E+00 -0.00000000000E+00 -0.37181928555E+02  0.37181928643E+02  0.25500000000E-02 0. -1.
         24    2    1    2    0    0  0.00000000000E+00  0.35527136788E-14  0.38602378106E+01  0.78224095318E+02  0.78128788884E+02 0.  0.
         66    2    3    3    0    0 -0.37101085571E+00 -0.18515398553E+02 -0.32477159197E+02  0.37439598043E+02  0.19999998652E+01 0.  0.
        -13    1    3    3    0    0  0.37101085571E+00  0.18515398553E+02  0.36337397008E+02  0.40784497275E+02  0.10566000000E+00 0.  1.
         13    1    4    4    0    0 -0.93286783866E+00 -0.86169527908E+01 -0.14256214959E+02  0.16684512183E+02  0.10566000000E+00 0. -1.
        -13    1    4    4    0    0  0.26348614393E+00 -0.13393447626E+01 -0.27438228162E+01  0.30664306651E+01  0.10566000000E+00 0.  1.
         14    1    4    4    0    0  0.29837083903E+00 -0.85591009998E+01 -0.15477121422E+02  0.17688655195E+02  0.00000000000E+00 0. -1.
<mgrwt>
<rscale>  0 0.78128789E+02</rscale>
<asrwt>0</asrwt>
<pdfrwt beam="1">  1        2 0.57202967E-02 0.78128789E+02</pdfrwt>
<pdfrwt beam="2">  1       -1 0.63141795E-02 0.78128789E+02</pdfrwt>
<totfact> 0.14995340E+05</totfact>
</mgrwt>
</event>
<event>
 8    1  0.1226832E-024  0.8054340E+02  0.7818608E-02  0.1327516E+00
         -1   -1    0    0    0  501 -0.00000000000E+00  0.00000000000E+00  0.94492674811E+02  0.94492674945E+02  0.50400000000E-02 0.  1.
          2   -1    0    0  501    0  0.00000000000E+00 -0.00000000000E+00 -0.17163339284E+02  0.17163339473E+02  0.25500000000E-02 0. -1.
         24    2    1    2    0    0  0.00000000000E+00  0.00000000000E+00  0.77329335527E+02  0.11165601442E+03  0.80543400864E+02 0.  0.
         66    2    3    3    0    0 -0.15500493964E+02 -0.27365696740E+02  0.38748215350E+01  0.31751549831E+02  0.20000008871E+01 0.  0.
        -13    1    3    3    0    0  0.15500493964E+02  0.27365696740E+02  0.73454513992E+02  0.79904464587E+02  0.10566000000E+00 0.  1.
         13    1    4    4    0    0 -0.71820048858E+01 -0.11670121397E+02  0.10411372568E+01  0.13742927578E+02  0.10566000000E+00 0. -1.
        -13    1    4    4    0    0 -0.43454182751E+01 -0.73556655861E+01  0.15083867644E+01  0.86761092010E+01  0.10566000000E+00 0.  1.
        -14    1    4    4    0    0 -0.39730708027E+01 -0.83399097572E+01  0.13252975137E+01  0.93325130518E+01  0.00000000000E+00 0.  1.
<mgrwt>
<rscale>  0 0.80543401E+02</rscale>
<asrwt>0</asrwt>
<pdfrwt beam="1">  1        2 0.26405137E-02 0.80543401E+02</pdfrwt>
<pdfrwt beam="2">  1       -1 0.14537335E-01 0.80543401E+02</pdfrwt>
<totfact> 0.11796281E+05</totfact>
</mgrwt>
</event>
<event>
 8    1  0.1226832E-024  0.8092818E+02  0.7818608E-02  0.1326438E+00
          2   -1    0    0  501    0  0.00000000000E+00  0.00000000000E+00  0.77114903037E+03  0.77114903037E+03  0.25500000000E-02 0. -1.
         -1   -1    0    0    0  501 -0.00000000000E+00 -0.00000000000E+00 -0.21232473318E+01  0.21232533136E+01  0.50400000000E-02 0.  1.
         24    2    1    2    0    0  0.00000000000E+00  0.00000000000E+00  0.76902578304E+03  0.77327228369E+03  0.80928176442E+02 0.  0.
         66    2    3    3    0    0  0.25301342028E+02 -0.33193329235E+01  0.68450170119E+03  0.68498011271E+03  0.19999995685E+01 0.  0.
        -13    1    3    3    0    0 -0.25301342028E+02  0.33193329235E+01  0.84524081848E+02  0.88292170976E+02  0.10566000000E+00 0.  1.
         13    1    4    4    0    0  0.55093373291E+01 -0.40598862668E+00  0.13484042613E+03  0.13495358204E+03  0.10566000000E+00 0. -1.
        -13    1    4    4    0    0  0.19133300560E+02 -0.25947577625E+01  0.52843223917E+03  0.52878488870E+03  0.10566000000E+00 0.  1.
        -14    1    4    4    0    0  0.65870413884E+00 -0.31858653436E+00  0.21229035890E+02  0.21241641964E+02  0.00000000000E+00 0.  1.
<mgrwt>
<rscale>  0 0.80928176E+02</rscale>
<asrwt>0</asrwt>
<pdfrwt beam="1">  1        2 0.11863839E+00 0.80928176E+02</pdfrwt>
<pdfrwt beam="2">  1       -1 0.32665368E-03 0.80928176E+02</pdfrwt>
<totfact> 0.33129383E+05</totfact>
</mgrwt>
</event>
<event>
 8    1  0.1226832E-024  0.8447730E+02  0.7818608E-02  0.1316805E+00
          2   -1    0    0  501    0  0.00000000000E+00  0.00000000000E+00  0.60710701454E+03  0.60710701455E+03  0.25500000000E-02 0. -1.
         -1   -1    0    0    0  501 -0.00000000000E+00 -0.00000000000E+00 -0.29386949801E+01  0.29386993020E+01  0.50400000000E-02 0.  1.
         24    2    1    2    0    0  0.00000000000E+00  0.00000000000E+00  0.60416831956E+03  0.61004571385E+03  0.84477302417E+02 0.  0.
         66    2    3    3    0    0  0.20159627116E+02  0.15915018317E+02  0.54418662585E+03  0.54479609225E+03  0.20000026143E+01 0.  0.
        -13    1    3    3    0    0 -0.20159627116E+02 -0.15915018317E+02  0.59981693719E+02  0.65249621600E+02  0.10566000000E+00 0.  1.
         13    1    4    4    0    0  0.34042035632E+01  0.28466573178E+01  0.88835126744E+02  0.88945955318E+02  0.10566000000E+00 0. -1.
        -13    1    4    4    0    0  0.86346154969E+01  0.77935575173E+01  0.24847980732E+03  0.24875192850E+03  0.10566000000E+00 0.  1.
         14    1    4    4    0    0  0.81208080562E+01  0.52748034815E+01  0.20687169178E+03  0.20709820843E+03  0.00000000000E+00 0. -1.
<mgrwt>
<rscale>  0 0.84477302E+02</rscale>
<asrwt>0</asrwt>
<pdfrwt beam="1">  1        2 0.93401097E-01 0.84477302E+02</pdfrwt>
<pdfrwt beam="2">  1       -1 0.45210717E-03 0.84477302E+02</pdfrwt>
<totfact> 0.27994825E+05</totfact>
</mgrwt>
</event>
<event>
 8    1  0.1226832E-024  0.7777617E+02  0.7818608E-02  0.1335483E+00
         -1   -1    0    0    0  501 -0.00000000000E+00  0.00000000000E+00  0.39059877903E+01  0.39059910419E+01  0.50400000000E-02 0.  1.
          2   -1    0    0  501    0  0.00000000000E+00 -0.00000000000E+00 -0.38717027170E+03  0.38717027170E+03  0.25500000000E-02 0. -1.
         24    2    1    2    0    0  0.17763568394E-14 -0.35527136788E-14 -0.38326428390E+03  0.39107626275E+03  0.77776165796E+02 0.  0.
         66    2    3    3    0    0 -0.14798210340E+02  0.29253962867E+02 -0.29669036218E+03  0.29850285155E+03  0.20000007838E+01 0.  0.
        -13    1    3    3    0    0  0.14798210340E+02 -0.29253962867E+02 -0.86573921726E+02  0.92573411192E+02  0.10566000000E+00 0.  1.
         13    1    4    4    0    0 -0.67787842482E+01  0.15080442816E+02 -0.15416891078E+03  0.15505300992E+03  0.10566000000E+00 0. -1.
        -13    1    4    4    0    0 -0.69928832844E+01  0.11983308962E+02 -0.12165329912E+03  0.12244197181E+03  0.10566000000E+00 0.  1.
        -14    1    4    4    0    0 -0.10265428072E+01  0.21902110886E+01 -0.20868152280E+02  0.21007869819E+02  0.00000000000E+00 0.  1.
<mgrwt>
<rscale>  0 0.77776166E+02</rscale>
<asrwt>0</asrwt>
<pdfrwt beam="1">  1        2 0.59564627E-01 0.77776166E+02</pdfrwt>
<pdfrwt beam="2">  1       -1 0.60092176E-03 0.77776166E+02</pdfrwt>
<totfact> 0.30064496E+05</totfact>
</mgrwt>
</event>
<event>
 8    1  0.1226832E-024  0.7945401E+02  0.7818608E-02  0.1330608E+00
          2   -1    0    0  501    0  0.00000000000E+00  0.00000000000E+00  0.22148550849E+03  0.22148550851E+03  0.25500000000E-02 0. -1.
         -1   -1    0    0    0  501 -0.00000000000E+00 -0.00000000000E+00 -0.71256792599E+01  0.71256810423E+01  0.50400000000E-02 0.  1.
         24    2    1    2    0    0  0.00000000000E+00  0.00000000000E+00  0.21435982923E+03  0.22861118955E+03  0.79454009330E+02 0.  0.
         66    2    3    3    0    0 -0.32231047377E+02 -0.66444566226E+01  0.17114914800E+03  0.17429578331E+03  0.19999994832E+01 0.  0.
        -13    1    3    3    0    0  0.32231047377E+02  0.66444566226E+01  0.43210681228E+02  0.54315406240E+02  0.10566000000E+00 0.  1.
         13    1    4    4    0    0 -0.12342837014E+02 -0.29266042926E+01  0.63598787816E+02  0.64851581430E+02  0.10566000000E+00 0.  1.
        -13    1    4    4    0    0 -0.63471160360E+01 -0.83856204201E+00  0.31533770169E+02  0.32177304010E+02  0.10566000000E+00 0. -1.
         14    1    4    4    0    0 -0.13541094327E+02 -0.28792902880E+01  0.76016590018E+02  0.77266897867E+02  0.00000000000E+00 0. -1.
<mgrwt>
<rscale>  0 0.79454009E+02</rscale>
<asrwt>0</asrwt>
<pdfrwt beam="1">  1        2 0.34074693E-01 0.79454009E+02</pdfrwt>
<pdfrwt beam="2">  1       -1 0.10962585E-02 0.79454009E+02</pdfrwt>
<totfact> 0.23277466E+05</totfact>
</mgrwt>
</event>
<event>
 8    1  0.1226832E-024  0.8203019E+02  0.7818608E-02  0.1323387E+00
         -1   -1    0    0    0  501 -0.00000000000E+00  0.00000000000E+00  0.17226907945E+01  0.17226981671E+01  0.50400000000E-02 0.  1.
          2   -1    0    0  501    0  0.00000000000E+00 -0.00000000000E+00 -0.97651559199E+03  0.97651559199E+03  0.25500000000E-02 0. -1.
         24    2    1    2    0    0  0.00000000000E+00  0.17763568394E-14 -0.97479290119E+03  0.97823829016E+03  0.82030190265E+02 0.  0.
         66    2    3    3    0    0 -0.19346299759E+02 -0.11774285923E+02 -0.89512745869E+03  0.89541614929E+03  0.20000000168E+01 0.  0.
        -13    1    3    3    0    0  0.19346299759E+02  0.11774285923E+02 -0.79665442507E+02  0.82822140864E+02  0.10566000000E+00 0.  1.
         13    1    4    4    0    0 -0.11994013244E+02 -0.79205389881E+01 -0.59518326088E+03  0.59535679763E+03  0.10566000000E+00 0. -1.
        -13    1    4    4    0    0 -0.28451387253E+01 -0.16319358075E+01 -0.11318431171E+03  0.11323187541E+03  0.10566000000E+00 0.  1.
         14    1    4    4    0    0 -0.45071477897E+01 -0.22218111276E+01 -0.18675988610E+03  0.18682747625E+03  0.00000000000E+00 0. -1.
<mgrwt>
<rscale>  0 0.82030190E+02</rscale>
<asrwt>0</asrwt>
<pdfrwt beam="1">  1        2 0.15023273E+00 0.82030190E+02</pdfrwt>
<pdfrwt beam="2">  1       -1 0.26503070E-03 0.82030190E+02</pdfrwt>
<totfact> 0.32969815E+05</totfact>
</mgrwt>
</event>
<event>
 8    1  0.1226832E-024  0.7772375E+02  0.7818608E-02  0.1335638E+00
         -1   -1    0    0    0  501 -0.00000000000E+00  0.00000000000E+00  0.19366863747E+01  0.19366929327E+01  0.50400000000E-02 0.  1.
          2   -1    0    0  501    0  0.00000000000E+00 -0.00000000000E+00 -0.77980754813E+03  0.77980754813E+03  0.25500000000E-02 0. -1.
         24    2    1    2    0    0 -0.17763568394E-14  0.17763568394E-14 -0.77787086175E+03  0.78174424106E+03  0.77723747164E+02 0.  0.
         66    2    3    3    0    0 -0.12138646781E+02  0.13103935209E+02 -0.73603676332E+03  0.73625618968E+03  0.20000024381E+01 0.  0.
        -13    1    3    3    0    0  0.12138646781E+02 -0.13103935209E+02 -0.41834098429E+02  0.45488051388E+02  0.10566000000E+00 0.  1.
         13    1    4    4    0    0 -0.20499739381E+01  0.19358562247E+01 -0.12472941216E+03  0.12476132155E+03  0.10566000000E+00 0. -1.
        -13    1    4    4    0    0 -0.80496279370E+01  0.97954516344E+01 -0.51794955342E+03  0.51810471763E+03  0.10566000000E+00 0.  1.
        -14    1    4    4    0    0 -0.20390449055E+01  0.13726273497E+01 -0.93357797750E+02  0.93390150501E+02  0.00000000000E+00 0.  1.
<mgrwt>
<rscale>  0 0.77723747E+02</rscale>
<asrwt>0</asrwt>
<pdfrwt beam="1">  1        2 0.11997014E+00 0.77723747E+02</pdfrwt>
<pdfrwt beam="2">  1       -1 0.29795288E-03 0.77723747E+02</pdfrwt>
<totfact> 0.36869256E+05</totfact>
</mgrwt>
</event>
<event>
 8    1  0.1226832E-024  0.8090084E+02  0.7818608E-02  0.1326514E+00
          2   -1    0    0  501    0  0.00000000000E+00  0.00000000000E+00  0.82053079274E+03  0.82053079274E+03  0.25500000000E-02 0. -1.
         -1   -1    0    0    0  501 -0.00000000000E+00 -0.00000000000E+00 -0.19941161044E+01  0.19941224736E+01  0.50400000000E-02 0.  1.
         24    2    1    2    0    0  0.00000000000E+00 -0.35527136788E-14  0.81853667663E+03  0.82252491522E+03  0.80900835323E+02 0.  0.
         66    2    3    3    0    0  0.28596295966E+01  0.11877591853E+02  0.80131004242E+03  0.80140566428E+03  0.19999971719E+01 0.  0.
        -13    1    3    3    0    0 -0.28596295966E+01 -0.11877591853E+02  0.17226634212E+02  0.21119250933E+02  0.10566000000E+00 0.  1.
         13    1    4    4    0    0  0.14970211726E+01  0.52002098182E+01  0.34168091755E+03  0.34172378296E+03  0.10566000000E+00 0. -1.
        -13    1    4    4    0    0  0.78620481637E+00  0.11531805464E+01  0.10294503557E+03  0.10295455044E+03  0.10566000000E+00 0.  1.
        -14    1    4    4    0    0  0.57640360765E+00  0.55242014888E+01  0.35668408929E+03  0.35672733088E+03  0.00000000000E+00 0.  1.
<mgrwt>
<rscale>  0 0.80900835E+02</rscale>
<asrwt>0</asrwt>
<pdfrwt beam="1">  1        2 0.12623581E+00 0.80900835E+02</pdfrwt>
<pdfrwt beam="2">  1       -1 0.30678684E-03 0.80900835E+02</pdfrwt>
<totfact> 0.33520982E+05</totfact>
</mgrwt>
</event>
<event>
 8    1  0.1226832E-024  0.8026678E+02  0.7818608E-02  0.1328296E+00
          2   -1    0    0  501    0  0.00000000000E+00  0.00000000000E+00  0.10741678451E+02  0.10741678754E+02  0.25500000000E-02 0. -1.
         -1   -1    0    0    0  501 -0.00000000000E+00 -0.00000000000E+00 -0.14994759984E+03  0.14994759993E+03  0.50400000000E-02 0.  1.
         24    2    1    2    0    0 -0.71054273576E-14  0.00000000000E+00 -0.13920592139E+03  0.16068927868E+03  0.80266778512E+02 0.  0.
         66    2    3    3    0    0 -0.33758145874E+02  0.13561284544E+02 -0.10345236116E+03  0.10968095501E+03  0.20000022451E+01 0.  0.
        -13    1    3    3    0    0  0.33758145874E+02 -0.13561284544E+02 -0.35753560225E+02  0.51008323675E+02  0.10566000000E+00 0.  1.
         13    1    4    4    0    0 -0.10905792413E+02  0.39082969816E+01 -0.32050656391E+02  0.34080299773E+02  0.10566000000E+00 0. -1.
        -13    1    4    4    0    0 -0.13045614470E+02  0.61889527745E+01 -0.40797243641E+02  0.43277216247E+02  0.10566000000E+00 0.  1.
        -14    1    4    4    0    0 -0.98067389903E+01  0.34640347877E+01 -0.30604461133E+02  0.32323438986E+02  0.00000000000E+00 0.  1.
<mgrwt>
<rscale>  0 0.80266779E+02</rscale>
<asrwt>0</asrwt>
<pdfrwt beam="1">  1        2 0.16525660E-02 0.80266779E+02</pdfrwt>
<pdfrwt beam="2">  1       -1 0.23068860E-01 0.80266779E+02</pdfrwt>
<totfact> 0.10697823E+05</totfact>
</mgrwt>
</event>
<event>
 8    1  0.1226832E-024  0.7628825E+02  0.7818608E-02  0.1339928E+00
          2   -1    0    0  501    0  0.00000000000E+00  0.00000000000E+00  0.60546067443E+02  0.60546067496E+02  0.25500000000E-02 0. -1.
         -1   -1    0    0    0  501 -0.00000000000E+00 -0.00000000000E+00 -0.24030865793E+02  0.24030866321E+02  0.50400000000E-02 0.  1.
         24    2    1    2    0    0  0.00000000000E+00  0.00000000000E+00  0.36515201650E+02  0.84576933818E+02  0.76288254551E+02 0.  0.
         66    2    3    3    0    0  0.24768716970E+02  0.16961455840E+01  0.50336797628E+02  0.56161903823E+02  0.19999988397E+01 0.  0.
        -13    1    3    3    0    0 -0.24768716970E+02 -0.16961455840E+01 -0.13821595978E+02  0.28415029995E+02  0.10566000000E+00 0.  1.
         13    1    4    4    0    0  0.11735317749E+02  0.13087665627E+01  0.24737881133E+02  0.27411758053E+02  0.10566000000E+00 0. -1.
        -13    1    4    4    0    0  0.45770387731E+01 -0.22010667843E+00  0.81468184727E+01  0.93477027201E+01  0.10566000000E+00 0.  1.
         14    1    4    4    0    0  0.84563604477E+01  0.60748569970E+00  0.17452098023E+02  0.19402443050E+02  0.00000000000E+00 0. -1.
<mgrwt>
<rscale>  0 0.76288255E+02</rscale>
<asrwt>0</asrwt>
<pdfrwt beam="1">  1        2 0.93147795E-02 0.76288255E+02</pdfrwt>
<pdfrwt beam="2">  1       -1 0.36970564E-02 0.76288255E+02</pdfrwt>
<totfact> 0.17743132E+05</totfact>
</mgrwt>
</event>
<event>
 8    1  0.1226832E-024  0.7980041E+02  0.7818608E-02  0.1329619E+00
          2   -1    0    0  501    0  0.00000000000E+00  0.00000000000E+00  0.41126664536E+02  0.41126664615E+02  0.25500000000E-02 0. -1.
         -1   -1    0    0    0  501 -0.00000000000E+00 -0.00000000000E+00 -0.38710317823E+02  0.38710318151E+02  0.50400000000E-02 0.  1.
         24    2    1    2    0    0  0.00000000000E+00 -0.17763568394E-14  0.24163467128E+01  0.79836982765E+02  0.79800407804E+02 0.  0.
         66    2    3    3    0    0  0.37769513977E+02 -0.12227034029E+02  0.49502655510E+01  0.40056730681E+02  0.19999991633E+01 0.  0.
        -13    1    3    3    0    0 -0.37769513977E+02  0.12227034029E+02 -0.25339188383E+01  0.39780252084E+02  0.10566000000E+00 0.  1.
         13    1    4    4    0    0  0.28163997464E+02 -0.87553461600E+01  0.42397196440E+01  0.29796866047E+02  0.10566000000E+00 0. -1.
        -13    1    4    4    0    0  0.52875473962E+01 -0.19502269070E+01  0.70539988040E-01  0.56371697138E+01  0.10566000000E+00 0.  1.
        -14    1    4    4    0    0  0.43179691165E+01 -0.15214609619E+01  0.64000591901E+00  0.46226949203E+01  0.00000000000E+00 0.  1.
<mgrwt>
<rscale>  0 0.79800408E+02</rscale>
<asrwt>0</asrwt>
<pdfrwt beam="1">  1        2 0.63271792E-02 0.79800408E+02</pdfrwt>
<pdfrwt beam="2">  1       -1 0.59554336E-02 0.79800408E+02</pdfrwt>
<totfact> 0.14436291E+05</totfact>
</mgrwt>
</event>
<event>
 8    1  0.1226832E-024  0.8022823E+02  0.7818608E-02  0.1328405E+00
          2   -1    0    0  501    0  0.00000000000E+00  0.00000000000E+00  0.11023531592E+04  0.11023531592E+04  0.25500000000E-02 0. -1.
         -1   -1    0    0    0  501 -0.00000000000E+00 -0.00000000000E+00 -0.14597293354E+01  0.14597380362E+01  0.50400000000E-02 0.  1.
         24    2    1    2    0    0  0.17763568394E-14  0.88817841970E-15  0.11008934299E+04  0.11038128973E+04  0.80228225659E+02 0.  0.
         66    2    3    3    0    0 -0.15034303478E+02 -0.65038091568E+01  0.10542041747E+04  0.10543333305E+04  0.19999994681E+01 0.  0.
        -13    1    3    3    0    0  0.15034303478E+02  0.65038091568E+01  0.46689255185E+02  0.49479566777E+02  0.10566000000E+00 0.  1.
         13    1    4    4    0    0 -0.37766230487E+01 -0.17116683157E+01  0.30675433283E+03  0.30678237329E+03  0.10566000000E+00 0. -1.
        -13    1    4    4    0    0 -0.14430252662E+01 -0.93058386749E+00  0.88569441441E+02  0.88586146938E+02  0.10566000000E+00 0.  1.
        -14    1    4    4    0    0 -0.98146551633E+01 -0.38615569736E+01  0.65888040042E+03  0.65896481024E+03  0.00000000000E+00 0.  1.
<mgrwt>
<rscale>  0 0.80228226E+02</rscale>
<asrwt>0</asrwt>
<pdfrwt beam="1">  1        2 0.16959218E+00 0.80228226E+02</pdfrwt>
<pdfrwt beam="2">  1       -1 0.22457523E-03 0.80228226E+02</pdfrwt>
<totfact> 0.34989680E+05</totfact>
</mgrwt>
</event>
<event>
 8    1  0.1226832E-024  0.7843219E+02  0.7818608E-02  0.1333560E+00
          2   -1    0    0  501    0  0.00000000000E+00  0.00000000000E+00  0.51151565769E+03  0.51151565769E+03  0.25500000000E-02 0. -1.
         -1   -1    0    0    0  501 -0.00000000000E+00 -0.00000000000E+00 -0.30065573054E+01  0.30065615298E+01  0.50400000000E-02 0.  1.
         24    2    1    2    0    0  0.17763568394E-14  0.00000000000E+00  0.50850910038E+03  0.51452221922E+03  0.78432193029E+02 0.  0.
         66    2    3    3    0    0 -0.10967275633E+02  0.31040553476E+02  0.39390428901E+03  0.39528266602E+03  0.20000147827E+01 0.  0.
        -13    1    3    3    0    0  0.10967275633E+02 -0.31040553476E+02  0.11460481137E+03  0.11923955320E+03  0.10566000000E+00 0.  1.
         13    1    4    4    0    0 -0.20382480789E+01  0.70797858936E+01  0.94306374541E+02  0.94593769703E+02  0.10566000000E+00 0. -1.
        -13    1    4    4    0    0 -0.15346937758E+01  0.37675866411E+01  0.43790747013E+02  0.43979434763E+02  0.10566000000E+00 0.  1.
         14    1    4    4    0    0 -0.73943337780E+01  0.20193180942E+02  0.25580716746E+03  0.25670946155E+03  0.00000000000E+00 0. -1.
<mgrwt>
<rscale>  0 0.78432193E+02</rscale>
<asrwt>0</asrwt>
<pdfrwt beam="1">  1        2 0.78694634E-01 0.78432193E+02</pdfrwt>
<pdfrwt beam="2">  1       -1 0.46254809E-03 0.78432193E+02</pdfrwt>
<totfact> 0.32293267E+05</totfact>
</mgrwt>
</event>
<event>
 8    1  0.1226832E-024  0.8108244E+02  0.7818608E-02  0.1326007E+00
         -1   -1    0    0    0  501 -0.00000000000E+00  0.00000000000E+00  0.20609515117E+02  0.20609515733E+02  0.50400000000E-02 0.  1.
          2   -1    0    0  501    0  0.00000000000E+00 -0.00000000000E+00 -0.79749118948E+02  0.79749118989E+02  0.25500000000E-02 0. -1.
         24    2    1    2    0    0 -0.17763568394E-14  0.00000000000E+00 -0.59139603831E+02  0.10035863472E+03  0.81082444598E+02 0.  0.
         66    2    3    3    0    0  0.14286335519E+02  0.36788660041E+02 -0.40937234792E+02  0.56897821421E+02  0.19999999476E+01 0.  0.
        -13    1    3    3    0    0 -0.14286335519E+02 -0.36788660041E+02 -0.18202369038E+02  0.43460813302E+02  0.10566000000E+00 0.  1.
         13    1    4    4    0    0  0.55728356443E+01  0.13036920724E+02 -0.14719854328E+02  0.20437785461E+02  0.10566000000E+00 0. -1.
        -13    1    4    4    0    0  0.66169539835E+01  0.17669293363E+02 -0.20376890224E+02  0.27770790900E+02  0.10566000000E+00 0.  1.
        -14    1    4    4    0    0  0.20965458911E+01  0.60824459544E+01 -0.58404902401E+01  0.86892450596E+01  0.00000000000E+00 0.  1.
<mgrwt>
<rscale>  0 0.81082445E+02</rscale>
<asrwt>0</asrwt>
<pdfrwt beam="1">  1        2 0.12269095E-01 0.81082445E+02</pdfrwt>
<pdfrwt beam="2">  1       -1 0.31706947E-02 0.81082445E+02</pdfrwt>
<totfact> 0.16088035E+05</totfact>
</mgrwt>
</event>
<event>
 8    1  0.1226832E-024  0.8046490E+02  0.7818608E-02  0.1327737E+00
          2   -1    0    0  501    0  0.00000000000E+00  0.00000000000E+00  0.19112649123E+03  0.19112649125E+03  0.25500000000E-02 0. -1.
         -1   -1    0    0    0  501 -0.00000000000E+00 -0.00000000000E+00 -0.84689975223E+01  0.84689990220E+01  0.50400000000E-02 0.  1.
         24    2    1    2    0    0  0.00000000000E+00  0.00000000000E+00  0.18265749371E+03  0.19959549027E+03  0.80464897490E+02 0.  0.
         66    2    3    3    0    0  0.34155814952E+02  0.20513192184E+02  0.77973121769E+02  0.87585492319E+02  0.19999994112E+01 0.  0.
        -13    1    3    3    0    0 -0.34155814952E+02 -0.20513192184E+02  0.10468437194E+03  0.11200999795E+03  0.10566000000E+00 0.  1.
         13    1    4    4    0    0  0.35864442377E+01  0.22718908338E+01  0.84967340717E+01  0.94989327901E+01  0.10566000000E+00 0. -1.
        -13    1    4    4    0    0  0.19428122039E+02  0.12408275736E+02  0.43822432677E+02  0.49515997440E+02  0.10566000000E+00 0.  1.
        -14    1    4    4    0    0  0.11141248675E+02  0.58330256136E+01  0.25653955020E+02  0.28570562088E+02  0.00000000000E+00 0.  1.
<mgrwt>
<rscale>  0 0.80464897E+02</rscale>
<asrwt>0</asrwt>
<pdfrwt beam="1">  1        2 0.29404071E-01 0.80464897E+02</pdfrwt>
<pdfrwt beam="2">  1       -1 0.13029230E-02 0.80464897E+02</pdfrwt>
<totfact> 0.21385318E+05</totfact>
</mgrwt>
</event>
<event>
 8    1  0.1226832E-024  0.7771460E+02  0.7818608E-02  0.1335665E+00
         -1   -1    0    0    0  501 -0.00000000000E+00  0.00000000000E+00  0.32165179762E+01  0.32165219249E+01  0.50400000000E-02 0.  1.
          2   -1    0    0  501    0  0.00000000000E+00 -0.00000000000E+00 -0.46941719292E+03  0.46941719292E+03  0.25500000000E-02 0. -1.
         24    2    1    2    0    0  0.00000000000E+00  0.17763568394E-14 -0.46620067494E+03  0.47263371485E+03  0.77714600279E+02 0.  0.
         66    2    3    3    0    0 -0.24087796376E+02  0.15361330179E+02 -0.39320220970E+03  0.39424379527E+03  0.20000003526E+01 0.  0.
        -13    1    3    3    0    0  0.24087796376E+02 -0.15361330179E+02 -0.72998465241E+02  0.78389919573E+02  0.10566000000E+00 0.  1.
         13    1    4    4    0    0 -0.89159809764E+00  0.81698599469E+00 -0.16594658510E+02  0.16638998419E+02  0.10566000000E+00 0. -1.
        -13    1    4    4    0    0 -0.44732276118E+01  0.29706772626E+01 -0.82617661980E+02  0.82792052298E+02  0.10566000000E+00 0.  1.
         14    1    4    4    0    0 -0.18722970667E+02  0.11573666921E+02 -0.29398988921E+03  0.29481274456E+03  0.00000000000E+00 0. -1.
<mgrwt>
<rscale>  0 0.77714600E+02</rscale>
<asrwt>0</asrwt>
<pdfrwt beam="1">  1        2 0.72217976E-01 0.77714600E+02</pdfrwt>
<pdfrwt beam="2">  1       -1 0.49484960E-03 0.77714600E+02</pdfrwt>
<totfact> 0.32173624E+05</totfact>
</mgrwt>
</event>
<event>
 8    1  0.1226832E-024  0.7473062E+02  0.7818608E-02  0.1344707E+00
         -1   -1    0    0    0  501 -0.00000000000E+00  0.00000000000E+00  0.91083094998E+01  0.91083108942E+01  0.50400000000E-02 0.  1.
          2   -1    0    0  501    0  0.00000000000E+00 -0.00000000000E+00 -0.15328488845E+03  0.15328488847E+03  0.25500000000E-02 0. -1.
         24    2    1    2    0    0  0.71054273576E-14 -0.55511151231E-16 -0.14417657895E+03  0.16239319936E+03  0.74730618104E+02 0.  0.
         66    2    3    3    0    0  0.37224023311E+02 -0.30111607365E+00 -0.78453916444E+02  0.86860437511E+02  0.20000041921E+01 0.  0.
        -13    1    3    3    0    0 -0.37224023311E+02  0.30111607365E+00 -0.65722662502E+02  0.75532761850E+02  0.10566000000E+00 0.  1.
         13    1    4    4    0    0  0.19426185647E+02  0.41042851504E+00 -0.42030099822E+02  0.46304271892E+02  0.10566000000E+00 0.  1.
        -13    1    4    4    0    0  0.10129484075E+02 -0.24444368403E+00 -0.19759420052E+02  0.22206126299E+02  0.10566000000E+00 0. -1.
        -14    1    4    4    0    0  0.76683535885E+01 -0.46710090466E+00 -0.16664396570E+02  0.18350039320E+02  0.00000000000E+00 0.  1.
<mgrwt>
<rscale>  0 0.74730618E+02</rscale>
<asrwt>0</asrwt>
<pdfrwt beam="1">  1        2 0.23582289E-01 0.74730618E+02</pdfrwt>
<pdfrwt beam="2">  1       -1 0.14012786E-02 0.74730618E+02</pdfrwt>
<totfact> 0.24149039E+05</totfact>
</mgrwt>
</event>
<event>
 8    1  0.1226832E-024  0.7885695E+02  0.7818608E-02  0.1332327E+00
          2   -1    0    0  501    0  0.00000000000E+00  0.00000000000E+00  0.34484375042E+03  0.34484375042E+03  0.25500000000E-02 0. -1.
         -1   -1    0    0    0  501 -0.00000000000E+00 -0.00000000000E+00 -0.45081402473E+01  0.45081430646E+01  0.50400000000E-02 0.  1.
         24    2    1    2    0    0  0.00000000000E+00 -0.88817841970E-15  0.34033561017E+03  0.34935189349E+03  0.78856946024E+02 0.  0.
         66    2    3    3    0    0 -0.15826677582E+02  0.67661064432E+01  0.32730455710E+03  0.32776292807E+03  0.19999998082E+01 0.  0.
        -13    1    3    3    0    0  0.15826677582E+02 -0.67661064432E+01  0.13031053064E+02  0.21588965415E+02  0.10566000000E+00 0.  1.
         13    1    4    4    0    0 -0.79517145451E+00  0.32336936164E+00  0.17791263121E+02  0.17812273096E+02  0.10566000000E+00 0. -1.
        -13    1    4    4    0    0 -0.34159956610E+01  0.92986824850E+00  0.56532663901E+02  0.56643507423E+02  0.10566000000E+00 0.  1.
         14    1    4    4    0    0 -0.11615510467E+02  0.55128688331E+01  0.25298063008E+03  0.25330714756E+03  0.00000000000E+00 0. -1.
<mgrwt>
<rscale>  0 0.78856946E+02</rscale>
<asrwt>0</asrwt>
<pdfrwt beam="1">  1        2 0.53052895E-01 0.78856946E+02</pdfrwt>
<pdfrwt beam="2">  1       -1 0.69356012E-03 0.78856946E+02</pdfrwt>
<totfact> 0.27835102E+05</totfact>
</mgrwt>
</event>
<event>
 8    1  0.1226832E-024  0.7975651E+02  0.7818608E-02  0.1329744E+00
         -1   -1    0    0    0  501 -0.00000000000E+00  0.00000000000E+00  0.67480073480E+02  0.67480073668E+02  0.50400000000E-02 0.  1.
          2   -1    0    0  501    0  0.00000000000E+00 -0.00000000000E+00 -0.23566588795E+02  0.23566588933E+02  0.25500000000E-02 0. -1.
         24    2    1    2    0    0 -0.35527136788E-14 -0.71054273576E-14  0.43913484685E+02  0.91046662601E+02  0.79756508408E+02 0.  0.
         66    2    3    3    0    0 -0.17105919978E+02 -0.31554156754E+02  0.21983840710E+01  0.36015416112E+02  0.19999996150E+01 0.  0.
        -13    1    3    3    0    0  0.17105919978E+02  0.31554156754E+02  0.41715100614E+02  0.55031246488E+02  0.10566000000E+00 0.  1.
         13    1    4    4    0    0 -0.75032279467E+01 -0.12208845513E+02  0.12059353887E+01  0.14381230218E+02  0.10566000000E+00 0. -1.
        -13    1    4    4    0    0 -0.21361642049E+01 -0.37070752844E+01  0.32336158420E+00  0.42920078547E+01  0.10566000000E+00 0.  1.
        -14    1    4    4    0    0 -0.74665278267E+01 -0.15638235957E+02  0.66908709815E+00  0.17342178040E+02  0.00000000000E+00 0.  1.
<mgrwt>
<rscale>  0 0.79756508E+02</rscale>
<asrwt>0</asrwt>
<pdfrwt beam="1">  1        2 0.36256291E-02 0.79756508E+02</pdfrwt>
<pdfrwt beam="2">  1       -1 0.10381550E-01 0.79756508E+02</pdfrwt>
<totfact> 0.12941349E+05</totfact>
</mgrwt>
</event>
<event>
 8    1  0.1226832E-024  0.8124223E+02  0.7818608E-02  0.1325563E+00
          2   -1    0    0  501    0  0.00000000000E+00  0.00000000000E+00  0.19188624200E+03  0.19188624202E+03  0.25500000000E-02 0. -1.
         -1   -1    0    0    0  501 -0.00000000000E+00 -0.00000000000E+00 -0.85992349723E+01  0.85992364493E+01  0.50400000000E-02 0.  1.
         24    2    1    2    0    0  0.00000000000E+00  0.00000000000E+00  0.18328700703E+03  0.20048547847E+03  0.81242231202E+02 0.  0.
         66    2    3    3    0    0 -0.31135246287E+01 -0.40405601347E+02  0.97623230897E+02  0.10571944889E+03  0.20000019978E+01 0.  0.
        -13    1    3    3    0    0  0.31135246287E+01  0.40405601347E+02  0.85663776131E+02  0.94766029572E+02  0.10566000000E+00 0.  1.
         13    1    4    4    0    0 -0.13028887691E+01 -0.12563784788E+02  0.32647273097E+02  0.35005739702E+02  0.10566000000E+00 0. -1.
        -13    1    4    4    0    0 -0.12890266763E+01 -0.21707176289E+02  0.50726415141E+02  0.55190972535E+02  0.10566000000E+00 0.  1.
         14    1    4    4    0    0 -0.52160918331E+00 -0.61346402690E+01  0.14249542660E+02  0.15522736659E+02  0.00000000000E+00 0. -1.
<mgrwt>
<rscale>  0 0.81242231E+02</rscale>
<asrwt>0</asrwt>
<pdfrwt beam="1">  1        2 0.29520958E-01 0.81242231E+02</pdfrwt>
<pdfrwt beam="2">  1       -1 0.13229594E-02 0.81242231E+02</pdfrwt>
<totfact> 0.20877170E+05</totfact>
</mgrwt>
</event>
<event>
 8    1  0.1226832E-024  0.8127850E+02  0.7818608E-02  0.1325462E+00
          2   -1    0    0  501    0  0.00000000000E+00  0.00000000000E+00  0.54649319531E+02  0.54649319591E+02  0.25500000000E-02 0. -1.
         -1   -1    0    0    0  501 -0.00000000000E+00 -0.00000000000E+00 -0.30220845729E+02  0.30220846149E+02  0.50400000000E-02 0.  1.
         24    2    1    2    0    0 -0.88817841970E-15  0.00000000000E+00  0.24428473803E+02  0.84870165740E+02  0.81278500850E+02 0.  0.
         66    2    3    3    0    0 -0.51799368127E+01 -0.15547074765E+02  0.51025591662E+02  0.53629789277E+02  0.20000035671E+01 0.  0.
        -13    1    3    3    0    0  0.51799368127E+01  0.15547074765E+02 -0.26597117859E+02  0.31240376464E+02  0.10566000000E+00 0.  1.
         13    1    4    4    0    0 -0.18790434532E+01 -0.82368610408E+01  0.25066913086E+02  0.26452560930E+02  0.10566000000E+00 0. -1.
        -13    1    4    4    0    0 -0.14705793943E+01 -0.28748542963E+01  0.95754397083E+01  0.10105820136E+02  0.10566000000E+00 0.  1.
         14    1    4    4    0    0 -0.18303139653E+01 -0.44353594277E+01  0.16383238868E+02  0.17071408210E+02  0.00000000000E+00 0. -1.
<mgrwt>
<rscale>  0 0.81278501E+02</rscale>
<asrwt>0</asrwt>
<pdfrwt beam="1">  1        2 0.84075876E-02 0.81278501E+02</pdfrwt>
<pdfrwt beam="2">  1       -1 0.46493609E-02 0.81278501E+02</pdfrwt>
<totfact> 0.14592835E+05</totfact>
</mgrwt>
</event>
<event>
 8    1  0.1226832E-024  0.7897407E+02  0.7818608E-02  0.1331988E+00
          2   -1    0    0  501    0  0.00000000000E+00  0.00000000000E+00  0.13311681596E+03  0.13311681598E+03  0.25500000000E-02 0. -1.
         -1   -1    0    0    0  501 -0.00000000000E+00 -0.00000000000E+00 -0.11713214058E+02  0.11713215142E+02  0.50400000000E-02 0.  1.
         24    2    1    2    0    0  0.35527136788E-14 -0.35527136788E-14  0.12140360190E+03  0.14483003112E+03  0.78974067650E+02 0.  0.
         66    2    3    3    0    0  0.16426896420E+02 -0.27876671490E+02  0.10216669693E+03  0.10718668621E+03  0.19999999309E+01 0.  0.
        -13    1    3    3    0    0 -0.16426896420E+02  0.27876671490E+02  0.19236904965E+02  0.37643344910E+02  0.10566000000E+00 0.  1.
         13    1    4    4    0    0  0.67908653341E+00 -0.11410106493E+01  0.34669683942E+01  0.37140406168E+01  0.10566000000E+00 0. -1.
        -13    1    4    4    0    0  0.17319323510E+01 -0.22573737179E+01  0.98147817026E+01  0.10219414351E+02  0.10566000000E+00 0.  1.
         14    1    4    4    0    0  0.14015877536E+02 -0.24478287123E+02  0.88884946835E+02  0.93253231244E+02  0.00000000000E+00 0. -1.
<mgrwt>
<rscale>  0 0.78974068E+02</rscale>
<asrwt>0</asrwt>
<pdfrwt beam="1">  1        2 0.20479510E-01 0.78974068E+02</pdfrwt>
<pdfrwt beam="2">  1       -1 0.18020330E-02 0.78974068E+02</pdfrwt>
<totfact> 0.19960604E+05</totfact>
</mgrwt>
</event>
<event>
 8    1  0.1226832E-024  0.8063996E+02  0.7818608E-02  0.1327245E+00
          2   -1    0    0  501    0  0.00000000000E+00  0.00000000000E+00  0.47965487491E+01  0.47965494270E+01  0.25500000000E-02 0. -1.
         -1   -1    0    0    0  501 -0.00000000000E+00 -0.00000000000E+00 -0.33893132685E+03  0.33893132689E+03  0.50400000000E-02 0.  1.
         24    2    1    2    0    0  0.00000000000E+00  0.00000000000E+00 -0.33413477810E+03  0.34372787631E+03  0.80639959196E+02 0.  0.
         66    2    3    3    0    0  0.39319111561E+02  0.80475038289E+01 -0.18250358652E+03  0.18687512921E+03  0.19999926154E+01 0.  0.
        -13    1    3    3    0    0 -0.39319111561E+02 -0.80475038289E+01 -0.15163119157E+03  0.15685274710E+03  0.10566000000E+00 0.  1.
         13    1    4    4    0    0  0.26940467690E+02  0.63705986262E+01 -0.12599005198E+03  0.12899564989E+03  0.10566000000E+00 0. -1.
        -13    1    4    4    0    0  0.55232220208E+01  0.70205920399E+00 -0.24222379240E+02  0.24854248906E+02  0.10566000000E+00 0.  1.
        -14    1    4    4    0    0  0.68554218499E+01  0.97484599866E+00 -0.32291155300E+02  0.33025230417E+02  0.00000000000E+00 0.  1.
<mgrwt>
<rscale>  0 0.80639959E+02</rscale>
<asrwt>0</asrwt>
<pdfrwt beam="1">  1        2 0.73793090E-03 0.80639959E+02</pdfrwt>
<pdfrwt beam="2">  1       -1 0.52143262E-01 0.80639959E+02</pdfrwt>
<totfact> 0.80397614E+04</totfact>
</mgrwt>
</event>
<event>
 8    1  0.1226832E-024  0.8035837E+02  0.7818608E-02  0.1328037E+00
          2   -1    0    0  501    0  0.00000000000E+00  0.00000000000E+00  0.17113316545E+02  0.17113316735E+02  0.25500000000E-02 0. -1.
         -1   -1    0    0    0  501 -0.00000000000E+00 -0.00000000000E+00 -0.94333959684E+02  0.94333959818E+02  0.50400000000E-02 0.  1.
         24    2    1    2    0    0 -0.17763568394E-14  0.35527136788E-14 -0.77220643139E+02  0.11144727655E+03  0.80358370593E+02 0.  0.
         66    2    3    3    0    0 -0.11209991607E+02  0.18509733648E+02  0.82761077735E+01  0.23254421218E+02  0.19999986928E+01 0.  0.
        -13    1    3    3    0    0  0.11209991607E+02 -0.18509733648E+02 -0.85496750912E+02  0.88192855335E+02  0.10566000000E+00 0.  1.
         13    1    4    4    0    0 -0.32373792308E+01  0.53678089580E+01  0.23803661648E+01  0.67060647482E+01  0.10566000000E+00 0. -1.
        -13    1    4    4    0    0 -0.65229394164E+01  0.93975133570E+01  0.45850719990E+01  0.12324611361E+02  0.10566000000E+00 0.  1.
        -14    1    4    4    0    0 -0.14496729594E+01  0.37444113330E+01  0.13106696097E+01  0.42237451090E+01  0.00000000000E+00 0.  1.
<mgrwt>
<rscale>  0 0.80358371E+02</rscale>
<asrwt>0</asrwt>
<pdfrwt beam="1">  1        2 0.26328180E-02 0.80358371E+02</pdfrwt>
<pdfrwt beam="2">  1       -1 0.14512917E-01 0.80358371E+02</pdfrwt>
<totfact> 0.11868144E+05</totfact>
</mgrwt>
</event>
<event>
 8    1  0.1226832E-024  0.8072269E+02  0.7818608E-02  0.1327013E+00
          2   -1    0    0  501    0  0.00000000000E+00  0.00000000000E+00  0.11757450706E+03  0.11757450708E+03  0.25500000000E-02 0. -1.
         -1   -1    0    0    0  501 -0.00000000000E+00 -0.00000000000E+00 -0.13855367596E+02  0.13855368513E+02  0.50400000000E-02 0.  1.
         24    2    1    2    0    0 -0.35527136788E-14  0.35527136788E-14  0.10371913946E+03  0.13142987560E+03  0.80722687697E+02 0.  0.
         66    2    3    3    0    0 -0.28384247889E+02  0.16834920418E+02  0.89654678397E+02  0.95556482911E+02  0.19999985358E+01 0.  0.
        -13    1    3    3    0    0  0.28384247889E+02 -0.16834920418E+02  0.14064461062E+02  0.35873392684E+02  0.10566000000E+00 0.  1.
         13    1    4    4    0    0 -0.25631661217E+02  0.15415751698E+02  0.79615248575E+02  0.85048376980E+02  0.10566000000E+00 0. -1.
        -13    1    4    4    0    0 -0.24393385127E+01  0.13099813306E+01  0.88968904517E+01  0.93183822207E+01  0.10566000000E+00 0.  1.
         14    1    4    4    0    0 -0.31324815941E+00  0.10918738970E+00  0.11425393702E+01  0.11897237108E+01  0.00000000000E+00 0. -1.
<mgrwt>
<rscale>  0 0.80722688E+02</rscale>
<asrwt>0</asrwt>
<pdfrwt beam="1">  1        2 0.18088386E-01 0.80722688E+02</pdfrwt>
<pdfrwt beam="2">  1       -1 0.21315951E-02 0.80722688E+02</pdfrwt>
<totfact> 0.18132603E+05</totfact>
</mgrwt>
</event>
<event>
 8    1  0.1226832E-024  0.7930058E+02  0.7818608E-02  0.1331048E+00
         -1   -1    0    0    0  501 -0.00000000000E+00  0.00000000000E+00  0.16403583906E+01  0.16403661332E+01  0.50400000000E-02 0.  1.
          2   -1    0    0  501    0  0.00000000000E+00 -0.00000000000E+00 -0.95841352044E+03  0.95841352044E+03  0.25500000000E-02 0. -1.
         24    2    1    2    0    0 -0.35527136788E-14  0.17763568394E-14 -0.95677316205E+03  0.96005388658E+03  0.79300577002E+02 0.  0.
         66    2    3    3    0    0  0.24153547255E+02 -0.11313034196E+02 -0.83346716371E+03  0.83389621151E+03  0.20000000237E+01 0.  0.
        -13    1    3    3    0    0 -0.24153547255E+02  0.11313034196E+02 -0.12330599834E+03  0.12615767507E+03  0.10566000000E+00 0.  1.
         13    1    4    4    0    0  0.18346983337E+02 -0.81288148706E+01 -0.63844730404E+03  0.63876260115E+03  0.10566000000E+00 0. -1.
        -13    1    4    4    0    0  0.12264978705E+01 -0.37405660892E+00 -0.35926516108E+02  0.35949547133E+02  0.10566000000E+00 0.  1.
         14    1    4    4    0    0  0.45800660474E+01 -0.28101627166E+01 -0.15909334356E+03  0.15918406322E+03  0.00000000000E+00 0. -1.
<mgrwt>
<rscale>  0 0.79300577E+02</rscale>
<asrwt>0</asrwt>
<pdfrwt beam="1">  1        2 0.14744779E+00 0.79300577E+02</pdfrwt>
<pdfrwt beam="2">  1       -1 0.25236419E-03 0.79300577E+02</pdfrwt>
<totfact> 0.35956806E+05</totfact>
</mgrwt>
</event>
<event>
 8    1  0.1226832E-024  0.8366206E+02  0.7818608E-02  0.1318969E+00
          2   -1    0    0  501    0  0.00000000000E+00  0.00000000000E+00  0.13601631354E+03  0.13601631356E+03  0.25500000000E-02 0. -1.
         -1   -1    0    0    0  501 -0.00000000000E+00 -0.00000000000E+00 -0.12864891541E+02  0.12864892528E+02  0.50400000000E-02 0.  1.
         24    2    1    2    0    0  0.71054273576E-14  0.00000000000E+00  0.12315142200E+03  0.14888120609E+03  0.83662063008E+02 0.  0.
         66    2    3    3    0    0  0.39072620031E+02  0.14687768565E+02  0.57464020878E+02  0.71052894972E+02  0.20000017623E+01 0.  0.
        -13    1    3    3    0    0 -0.39072620031E+02 -0.14687768565E+02  0.65687401119E+02  0.77828311116E+02  0.10566000000E+00 0.  1.
         13    1    4    4    0    0  0.32538520884E+02  0.12627830147E+02  0.47063827352E+02  0.58593791860E+02  0.10566000000E+00 0. -1.
        -13    1    4    4    0    0  0.47608271896E+01  0.16155050570E+01  0.74431415892E+01  0.89825860904E+01  0.10566000000E+00 0.  1.
         14    1    4    4    0    0  0.17732719572E+01  0.44443336135E+00  0.29570519364E+01  0.34765170216E+01  0.00000000000E+00 0. -1.
<mgrwt>
<rscale>  0 0.83662063E+02</rscale>
<asrwt>0</asrwt>
<pdfrwt beam="1">  1        2 0.20925586E-01 0.83662063E+02</pdfrwt>
<pdfrwt beam="2">  1       -1 0.19792142E-02 0.83662063E+02</pdfrwt>
<totfact> 0.17233491E+05</totfact>
</mgrwt>
</event>
<event>
 8    1  0.1226832E-024  0.8290058E+02  0.7818608E-02  0.1321016E+00
          2   -1    0    0  501    0  0.00000000000E+00  0.00000000000E+00  0.17848678178E+03  0.17848678180E+03  0.25500000000E-02 0. -1.
         -1   -1    0    0    0  501 -0.00000000000E+00 -0.00000000000E+00 -0.96260705252E+01  0.96260718447E+01  0.50400000000E-02 0.  1.
         24    2    1    2    0    0  0.00000000000E+00 -0.35527136788E-14  0.16886071125E+03  0.18811285364E+03  0.82900578406E+02 0.  0.
         66    2    3    3    0    0  0.28863351002E+02  0.29715663544E+02  0.84279193873E+02  0.93931337741E+02  0.19999997491E+01 0.  0.
        -13    1    3    3    0    0 -0.28863351002E+02 -0.29715663544E+02  0.84581517379E+02  0.94181515899E+02  0.10566000000E+00 0.  1.
         13    1    4    4    0    0  0.16832223155E+02  0.17915391466E+02  0.49120933550E+02  0.54928701647E+02  0.10566000000E+00 0. -1.
        -13    1    4    4    0    0  0.44772276019E+01  0.43887326359E+01  0.11938770508E+02  0.13485249217E+02  0.10566000000E+00 0.  1.
         14    1    4    4    0    0  0.75539002443E+01  0.74115394424E+01  0.23219489814E+02  0.25517386877E+02  0.00000000000E+00 0. -1.
<mgrwt>
<rscale>  0 0.82900578E+02</rscale>
<asrwt>0</asrwt>
<pdfrwt beam="1">  1        2 0.27459505E-01 0.82900578E+02</pdfrwt>
<pdfrwt beam="2">  1       -1 0.14809340E-02 0.82900578E+02</pdfrwt>
<totfact> 0.19303460E+05</totfact>
</mgrwt>
</event>
<event>
 8    1  0.1226832E-024  0.8054533E+02  0.7818608E-02  0.1327511E+00
          2   -1    0    0  501    0  0.00000000000E+00  0.00000000000E+00  0.12458279226E+03  0.12458279229E+03  0.25500000000E-02 0. -1.
         -1   -1    0    0    0  501 -0.00000000000E+00 -0.00000000000E+00 -0.13018550828E+02  0.13018551804E+02  0.50400000000E-02 0.  1.
         24    2    1    2    0    0  0.71054273576E-14  0.88817841970E-15  0.11156424144E+03  0.13760134409E+03  0.80545328414E+02 0.  0.
         66    2    3    3    0    0 -0.38188188319E+02 -0.41796976259E+01  0.35310627966E+02  0.52217315548E+02  0.19999990924E+01 0.  0.
        -13    1    3    3    0    0  0.38188188319E+02  0.41796976259E+01  0.76253613471E+02  0.85384028546E+02  0.10566000000E+00 0.  1.
         13    1    4    4    0    0 -0.25066517230E+02 -0.18576448788E+01  0.23500324712E+02  0.34410137404E+02  0.10566000000E+00 0. -1.
        -13    1    4    4    0    0 -0.70072116988E+01 -0.12315644965E+01  0.62093858815E+01  0.94438024101E+01  0.10566000000E+00 0.  1.
         14    1    4    4    0    0 -0.61144593906E+01 -0.10904882507E+01  0.56009173719E+01  0.83633757342E+01  0.00000000000E+00 0. -1.
<mgrwt>
<rscale>  0 0.80545328E+02</rscale>
<asrwt>0</asrwt>
<pdfrwt beam="1">  1        2 0.19166583E-01 0.80545328E+02</pdfrwt>
<pdfrwt beam="2">  1       -1 0.20028541E-02 0.80545328E+02</pdfrwt>
<totfact> 0.18559778E+05</totfact>
</mgrwt>
</event>
<event>
 8    1  0.1226832E-024  0.7916841E+02  0.7818608E-02  0.1331428E+00
         -1   -1    0    0    0  501 -0.00000000000E+00  0.00000000000E+00  0.24326614045E+01  0.24326666254E+01  0.50400000000E-02 0.  1.
          2   -1    0    0  501    0  0.00000000000E+00 -0.00000000000E+00 -0.64411255416E+03  0.64411255417E+03  0.25500000000E-02 0. -1.
         24    2    1    2    0    0 -0.88817841970E-15  0.35527136788E-14 -0.64167989276E+03  0.64654522079E+03  0.79168413905E+02 0.  0.
         66    2    3    3    0    0  0.51657565637E+01 -0.21604060379E+02 -0.58836928035E+03  0.58879183972E+03  0.19999995946E+01 0.  0.
        -13    1    3    3    0    0 -0.51657565637E+01  0.21604060379E+02 -0.53310612407E+02  0.57753381070E+02  0.10566000000E+00 0.  1.
         13    1    4    4    0    0  0.33463685054E+01 -0.11124484197E+02 -0.31567299106E+03  0.31588668978E+03  0.10566000000E+00 0. -1.
        -13    1    4    4    0    0  0.18452567777E+01 -0.88363791162E+01 -0.22795085628E+03  0.22812954787E+03  0.10566000000E+00 0.  1.
        -14    1    4    4    0    0 -0.25868719419E-01 -0.16431970652E+01 -0.44745433011E+02  0.44775602075E+02  0.00000000000E+00 0.  1.
<mgrwt>
<rscale>  0 0.79168414E+02</rscale>
<asrwt>0</asrwt>
<pdfrwt beam="1">  1        2 0.99094103E-01 0.79168414E+02</pdfrwt>
<pdfrwt beam="2">  1       -1 0.37425652E-03 0.79168414E+02</pdfrwt>
<totfact> 0.33683560E+05</totfact>
</mgrwt>
</event>
<event>
 8    1  0.1226832E-024  0.8009874E+02  0.7818608E-02  0.1328771E+00
          2   -1    0    0  501    0  0.00000000000E+00  0.00000000000E+00  0.82583693738E+03  0.82583693738E+03  0.25500000000E-02 0. -1.
         -1   -1    0    0    0  501 -0.00000000000E+00 -0.00000000000E+00 -0.19422107869E+01  0.19422173262E+01  0.50400000000E-02 0.  1.
         24    2    1    2    0    0  0.00000000000E+00  0.00000000000E+00  0.82389472659E+03  0.82777915471E+03  0.80098741966E+02 0.  0.
         66    2    3    3    0    0  0.10484855759E+02 -0.33154075195E+02  0.61703030341E+03  0.61801255669E+03  0.19999992693E+01 0.  0.
        -13    1    3    3    0    0 -0.10484855759E+02  0.33154075195E+02  0.20686442318E+03  0.20976659802E+03  0.10566000000E+00 0.  1.
         13    1    4    4    0    0  0.59393829082E+01 -0.20796965080E+02  0.38261593284E+03  0.38322676479E+03  0.10566000000E+00 0. -1.
        -13    1    4    4    0    0  0.41232880015E+01 -0.11808793278E+02  0.22155769201E+03  0.22191050258E+03  0.10566000000E+00 0.  1.
        -14    1    4    4    0    0  0.42218484880E+00 -0.54831683700E+00  0.12856678574E+02  0.12875289331E+02  0.00000000000E+00 0.  1.
<mgrwt>
<rscale>  0 0.80098742E+02</rscale>
<asrwt>0</asrwt>
<pdfrwt beam="1">  1        2 0.12705146E+00 0.80098742E+02</pdfrwt>
<pdfrwt beam="2">  1       -1 0.29880306E-03 0.80098742E+02</pdfrwt>
<totfact> 0.34435531E+05</totfact>
</mgrwt>
</event>
<event>
 8    1  0.1226832E-024  0.8445034E+02  0.7818608E-02  0.1316876E+00
         -1   -1    0    0    0  501 -0.00000000000E+00  0.00000000000E+00  0.65522189597E+01  0.65522208980E+01  0.50400000000E-02 0.  1.
          2   -1    0    0  501    0  0.00000000000E+00 -0.00000000000E+00 -0.27211617711E+03  0.27211617712E+03  0.25500000000E-02 0. -1.
         24    2    1    2    0    0 -0.17763568394E-14 -0.35527136788E-14 -0.26556395815E+03  0.27866839802E+03  0.84450341542E+02 0.  0.
         66    2    3    3    0    0 -0.11505928458E+02 -0.16625248686E+02 -0.25508996139E+03  0.25589777976E+03  0.20000010651E+01 0.  0.
        -13    1    3    3    0    0  0.11505928458E+02  0.16625248686E+02 -0.10473996765E+02  0.22770618258E+02  0.10566000000E+00 0.  1.
         13    1    4    4    0    0 -0.41154301198E+01 -0.58968140746E+01 -0.99029608008E+02  0.99290400380E+02  0.10566000000E+00 0. -1.
        -13    1    4    4    0    0 -0.53343773807E+01 -0.69849969781E+01 -0.10114439108E+03  0.10152558680E+03  0.10566000000E+00 0.  1.
         14    1    4    4    0    0 -0.20561209571E+01 -0.37434376338E+01 -0.54915962303E+02  0.55081792585E+02  0.00000000000E+00 0. -1.
<mgrwt>
<rscale>  0 0.84450342E+02</rscale>
<asrwt>0</asrwt>
<pdfrwt beam="1">  1        2 0.41864019E-01 0.84450342E+02</pdfrwt>
<pdfrwt beam="2">  1       -1 0.10080340E-02 0.84450342E+02</pdfrwt>
<totfact> 0.21340370E+05</totfact>
</mgrwt>
</event>
<event>
 8    1  0.1226832E-024  0.7949709E+02  0.7818608E-02  0.1330485E+00
          2   -1    0    0  501    0  0.00000000000E+00  0.00000000000E+00  0.10288246703E+04  0.10288246703E+04  0.25500000000E-02 0. -1.
         -1   -1    0    0    0  501 -0.00000000000E+00 -0.00000000000E+00 -0.15356773213E+01  0.15356855917E+01  0.50400000000E-02 0.  1.
         24    2    1    2    0    0 -0.17763568394E-14  0.35527136788E-14  0.10272889930E+04  0.10303603559E+04  0.79497093688E+02 0.  0.
         66    2    3    3    0    0 -0.91603580313E+01  0.22035917312E+02  0.92555857244E+03  0.92586833018E+03  0.20000009151E+01 0.  0.
        -13    1    3    3    0    0  0.91603580313E+01 -0.22035917312E+02  0.10173042059E+03  0.10449202576E+03  0.10566000000E+00 0.  1.
         13    1    4    4    0    0 -0.37259228744E+01  0.97275544169E+01  0.36974633086E+03  0.36989304963E+03  0.10566000000E+00 0. -1.
        -13    1    4    4    0    0 -0.10697027067E+01  0.28639588707E+01  0.12759533864E+03  0.12763200277E+03  0.10566000000E+00 0.  1.
         14    1    4    4    0    0 -0.43647324502E+01  0.94444040249E+01  0.42821690294E+03  0.42834327778E+03  0.00000000000E+00 0. -1.
<mgrwt>
<rscale>  0 0.79497094E+02</rscale>
<asrwt>0</asrwt>
<pdfrwt beam="1">  1        2 0.15828107E+00 0.79497094E+02</pdfrwt>
<pdfrwt beam="2">  1       -1 0.23625817E-03 0.79497094E+02</pdfrwt>
<totfact> 0.35844764E+05</totfact>
</mgrwt>
</event>
<event>
 8    1  0.1226832E-024  0.7784885E+02  0.7818608E-02  0.1335269E+00
          2   -1    0    0  501    0  0.00000000000E+00  0.00000000000E+00  0.96200622377E+03  0.96200622378E+03  0.25500000000E-02 0. -1.
         -1   -1    0    0    0  501 -0.00000000000E+00 -0.00000000000E+00 -0.15749452288E+01  0.15749532930E+01  0.50400000000E-02 0.  1.
         24    2    1    2    0    0  0.00000000000E+00 -0.35527136788E-14  0.96043127855E+03  0.96358117707E+03  0.77848853533E+02 0.  0.
         66    2    3    3    0    0  0.13919327824E+02 -0.21372495115E+02  0.84405686980E+03  0.84444451013E+03  0.20000000179E+01 0.  0.
        -13    1    3    3    0    0 -0.13919327824E+02  0.21372495115E+02  0.11637440875E+03  0.11913666694E+03  0.10566000000E+00 0.  1.
         13    1    4    4    0    0  0.47063612954E+01 -0.70495340640E+01  0.25868281531E+03  0.25882166808E+03  0.10566000000E+00 0. -1.
        -13    1    4    4    0    0  0.34854718209E+01 -0.52839514236E+01  0.19936606837E+03  0.19946656121E+03  0.10566000000E+00 0.  1.
         14    1    4    4    0    0  0.57274947073E+01 -0.90390096276E+01  0.38600798611E+03  0.38615628084E+03  0.00000000000E+00 0. -1.
<mgrwt>
<rscale>  0 0.77848854E+02</rscale>
<asrwt>0</asrwt>
<pdfrwt beam="1">  1        2 0.14800122E+00 0.77848854E+02</pdfrwt>
<pdfrwt beam="2">  1       -1 0.24229945E-03 0.77848854E+02</pdfrwt>
<totfact> 0.37730175E+05</totfact>
</mgrwt>
</event>
<event>
 8    1  0.1226832E-024  0.7937812E+02  0.7818608E-02  0.1330826E+00
         -1   -1    0    0    0  501 -0.00000000000E+00  0.00000000000E+00  0.60270977851E+01  0.60270998924E+01  0.50400000000E-02 0.  1.
          2   -1    0    0  501    0  0.00000000000E+00 -0.00000000000E+00 -0.26135648548E+03  0.26135648550E+03  0.25500000000E-02 0. -1.
         24    2    1    2    0    0  0.00000000000E+00  0.00000000000E+00 -0.25532938770E+03  0.26738358539E+03  0.79378117342E+02 0.  0.
         66    2    3    3    0    0  0.12562045050E+02  0.11353408472E+02 -0.24856605974E+03  0.24915013731E+03  0.20000015614E+01 0.  0.
        -13    1    3    3    0    0 -0.12562045050E+02 -0.11353408472E+02 -0.67633279582E+01  0.18233448080E+02  0.10566000000E+00 0.  1.
         13    1    4    4    0    0  0.24995727366E+01  0.21366095957E+01 -0.46794618455E+02  0.46910131580E+02  0.10566000000E+00 0. -1.
        -13    1    4    4    0    0  0.38936780583E+01  0.45848033753E+01 -0.94925164829E+02  0.95115609827E+02  0.10566000000E+00 0.  1.
        -14    1    4    4    0    0  0.61687942552E+01  0.46319955015E+01 -0.10684627646E+03  0.10712439590E+03  0.00000000000E+00 0.  1.
<mgrwt>
<rscale>  0 0.79378117E+02</rscale>
<asrwt>0</asrwt>
<pdfrwt beam="1">  1        2 0.40208681E-01 0.79378117E+02</pdfrwt>
<pdfrwt beam="2">  1       -1 0.92724618E-03 0.79378117E+02</pdfrwt>
<totfact> 0.24754935E+05</totfact>
</mgrwt>
</event>
<event>
 8    1  0.1226832E-024  0.8416423E+02  0.7818608E-02  0.1317633E+00
          2   -1    0    0  501    0  0.00000000000E+00  0.00000000000E+00  0.63548375635E+03  0.63548375636E+03  0.25500000000E-02 0. -1.
         -1   -1    0    0    0  501 -0.00000000000E+00 -0.00000000000E+00 -0.27867002879E+01  0.27867048455E+01  0.50400000000E-02 0.  1.
         24    2    1    2    0    0  0.00000000000E+00  0.00000000000E+00  0.63269705607E+03  0.63827046120E+03  0.84164225723E+02 0.  0.
         66    2    3    3    0    0  0.34987050829E+02 -0.21068301655E+02  0.39271561069E+03  0.39483859733E+03  0.20000004818E+01 0.  0.
        -13    1    3    3    0    0 -0.34987050829E+02  0.21068301655E+02  0.23998144537E+03  0.24343186387E+03  0.10566000000E+00 0.  1.
         13    1    4    4    0    0  0.13157157419E+02 -0.73712633288E+01  0.14940085001E+03  0.15016015271E+03  0.10566000000E+00 0. -1.
        -13    1    4    4    0    0  0.14307554365E+02 -0.90179279607E+01  0.16472578918E+03  0.16559174473E+03  0.10566000000E+00 0.  1.
        -14    1    4    4    0    0  0.75223390455E+01 -0.46791103658E+01  0.78588971492E+02  0.79086699885E+02  0.00000000000E+00 0.  1.
<mgrwt>
<rscale>  0 0.84164226E+02</rscale>
<asrwt>0</asrwt>
<pdfrwt beam="1">  1        2 0.97766706E-01 0.84164226E+02</pdfrwt>
<pdfrwt beam="2">  1       -1 0.42872359E-03 0.84164226E+02</pdfrwt>
<totfact> 0.28617846E+05</totfact>
</mgrwt>
</event>
<event>
 8    1  0.1226832E-024  0.7942644E+02  0.7818608E-02  0.1330687E+00
          2   -1    0    0  501    0  0.00000000000E+00  0.00000000000E+00  0.66649463843E+03  0.66649463843E+03  0.25500000000E-02 0. -1.
         -1   -1    0    0    0  501 -0.00000000000E+00 -0.00000000000E+00 -0.23663177843E+01  0.23663231516E+01  0.50400000000E-02 0.  1.
         24    2    1    2    0    0  0.35527136788E-14  0.00000000000E+00  0.66412832064E+03  0.66886096158E+03  0.79426441761E+02 0.  0.
         66    2    3    3    0    0  0.24610043637E+02 -0.28082076491E+02  0.44553064989E+03  0.44709710048E+03  0.20000001429E+01 0.  0.
        -13    1    3    3    0    0 -0.24610043637E+02  0.28082076491E+02  0.21859767075E+03  0.22176386110E+03  0.10566000000E+00 0.  1.
         13    1    4    4    0    0  0.55399434393E+01 -0.72682957626E+01  0.11464960475E+03  0.11501331284E+03  0.10566000000E+00 0. -1.
        -13    1    4    4    0    0  0.78023752249E+01 -0.87801582933E+01  0.13432307356E+03  0.13483570556E+03  0.10566000000E+00 0.  1.
         14    1    4    4    0    0  0.11267724973E+02 -0.12033622435E+02  0.19655797158E+03  0.19724808208E+03  0.00000000000E+00 0. -1.
<mgrwt>
<rscale>  0 0.79426442E+02</rscale>
<asrwt>0</asrwt>
<pdfrwt beam="1">  1        2 0.10253751E+00 0.79426442E+02</pdfrwt>
<pdfrwt beam="2">  1       -1 0.36404975E-03 0.79426442E+02</pdfrwt>
<totfact> 0.33688293E+05</totfact>
</mgrwt>
</event>
<event>
 8    1  0.1241075E-024  0.8050180E+02  0.7818608E-02  0.1327633E+00
         -1   -1    0    0    0  501 -0.00000000000E+00  0.00000000000E+00  0.38928672286E+01  0.38928704912E+01  0.50400000000E-02 0.  1.
          2   -1    0    0  501    0  0.00000000000E+00 -0.00000000000E+00 -0.41618024095E+03  0.41618024096E+03  0.25500000000E-02 0. -1.
         24    2    1    2    0    0  0.00000000000E+00 -0.35527136788E-14 -0.41228737373E+03  0.42007311145E+03  0.80501803908E+02 0.  0.
         66    2    3    3    0    0 -0.25646956403E+02 -0.30822076296E+02 -0.22306905225E+03  0.22665297003E+03  0.19999985899E+01 0.  0.
        -13    1    3    3    0    0  0.25646956403E+02  0.30822076296E+02 -0.18921832148E+03  0.19342014142E+03  0.10566000000E+00 0.  1.
         13    1    4    4    0    0 -0.10196637311E+02 -0.12334908541E+02 -0.92037065770E+02  0.93418167509E+02  0.10566000000E+00 0. -1.
        -13    1    4    4    0    0 -0.13947028367E+02 -0.16048384124E+02 -0.11568882086E+03  0.11762646245E+03  0.10566000000E+00 0.  1.
        -14    1    4    4    0    0 -0.15032907249E+01 -0.24387836303E+01 -0.15343165619E+02  0.15608340072E+02  0.00000000000E+00 0.  1.
<mgrwt>
<rscale>  0 0.80501804E+02</rscale>
<asrwt>0</asrwt>
<pdfrwt beam="1">  1        2 0.64027694E-01 0.80501804E+02</pdfrwt>
<pdfrwt beam="2">  1       -1 0.59890323E-03 0.80501804E+02</pdfrwt>
<totfact> 0.28181634E+05</totfact>
</mgrwt>
</event>
<event>
 8    1  0.1429722E-024  0.7939512E+02  0.7818608E-02  0.1330777E+00
          2   -1    0    0  501    0  0.00000000000E+00  0.00000000000E+00  0.31322507383E+03  0.31322507384E+03  0.25500000000E-02 0. -1.
         -1   -1    0    0    0  501 -0.00000000000E+00 -0.00000000000E+00 -0.50311931353E+01  0.50311956597E+01  0.50400000000E-02 0.  1.
         24    2    1    2    0    0  0.00000000000E+00  0.17763568394E-14  0.30819388070E+03  0.31825626950E+03  0.79395119362E+02 0.  0.
         66    2    3    3    0    0 -0.33022387543E+01  0.15585324810E+02  0.29983555849E+03  0.30026516491E+03  0.19999989371E+01 0.  0.
        -13    1    3    3    0    0  0.33022387543E+01 -0.15585324810E+02  0.83583222105E+01  0.17991104592E+02  0.10566000000E+00 0.  1.
         13    1    4    4    0    0 -0.10197868579E+01  0.57738076092E+01  0.11848052054E+03  0.11862555260E+03  0.10566000000E+00 0. -1.
        -13    1    4    4    0    0 -0.17938454733E+01  0.64623241236E+01  0.13027452097E+03  0.13044708311E+03  0.10566000000E+00 0.  1.
        -14    1    4    4    0    0 -0.48860642309E+00  0.33491930771E+01  0.51080516978E+02  0.51192529194E+02  0.00000000000E+00 0.  1.
<mgrwt>
<rscale>  0 0.79395119E+02</rscale>
<asrwt>0</asrwt>
<pdfrwt beam="1">  1        2 0.48188481E-01 0.79395119E+02</pdfrwt>
<pdfrwt beam="2">  1       -1 0.77402979E-03 0.79395119E+02</pdfrwt>
<totfact> 0.26415362E+05</totfact>
</mgrwt>
</event>
<event>
 8    1  0.1226832E-024  0.8099889E+02  0.7818608E-02  0.1326240E+00
         -1   -1    0    0    0  501 -0.00000000000E+00  0.00000000000E+00  0.65281357962E+01  0.65281377418E+01  0.50400000000E-02 0.  1.
          2   -1    0    0  501    0  0.00000000000E+00 -0.00000000000E+00 -0.25125165900E+03  0.25125165902E+03  0.25500000000E-02 0. -1.
         24    2    1    2    0    0  0.00000000000E+00  0.00000000000E+00 -0.24472352321E+03  0.25777979676E+03  0.80998893855E+02 0.  0.
         66    2    3    3    0    0 -0.98297095208E+01  0.23786977708E+01 -0.24716127238E+03  0.24737618309E+03  0.20000000165E+01 0.  0.
        -13    1    3    3    0    0  0.98297095208E+01 -0.23786977708E+01  0.24377491759E+01  0.10403613672E+02  0.10566000000E+00 0.  1.
         13    1    4    4    0    0 -0.45739768163E+01  0.11050171181E+01 -0.10949166975E+03  0.10959278824E+03  0.10566000000E+00 0. -1.
        -13    1    4    4    0    0 -0.31608611819E+01  0.92149152164E+00 -0.99710427864E+02  0.99764827363E+02  0.10566000000E+00 0.  1.
        -14    1    4    4    0    0 -0.20948715226E+01  0.35218913103E+00 -0.37959174773E+02  0.38018567481E+02  0.00000000000E+00 0.  1.
<mgrwt>
<rscale>  0 0.80998894E+02</rscale>
<asrwt>0</asrwt>
<pdfrwt beam="1">  1        2 0.38654094E-01 0.80998894E+02</pdfrwt>
<pdfrwt beam="2">  1       -1 0.10043289E-02 0.80998894E+02</pdfrwt>
<totfact> 0.23143237E+05</totfact>
</mgrwt>
</event>
<event>
 8    1  0.1226832E-024  0.7845680E+02  0.7818608E-02  0.1333489E+00
          2   -1    0    0  501    0  0.00000000000E+00  0.00000000000E+00  0.63188835718E+03  0.63188835719E+03  0.25500000000E-02 0. -1.
         -1   -1    0    0    0  501 -0.00000000000E+00 -0.00000000000E+00 -0.24353445258E+01  0.24353497409E+01  0.50400000000E-02 0.  1.
         24    2    1    2    0    0  0.00000000000E+00  0.35527136788E-14  0.62945301266E+03  0.63432370693E+03  0.78456803586E+02 0.  0.
         66    2    3    3    0    0 -0.94431170816E+01 -0.27948300218E+02  0.52367124579E+03  0.52450534184E+03  0.20000015327E+01 0.  0.
        -13    1    3    3    0    0  0.94431170816E+01  0.27948300218E+02  0.10578176687E+03  0.10981836509E+03  0.10566000000E+00 0.  1.
         13    1    4    4    0    0 -0.21904888442E+01 -0.68971686559E+01  0.12275740503E+03  0.12297056896E+03  0.10566000000E+00 0. -1.
        -13    1    4    4    0    0 -0.33297282289E+01 -0.10809443268E+02  0.21605557562E+03  0.21635145961E+03  0.10566000000E+00 0.  1.
        -14    1    4    4    0    0 -0.39229000085E+01 -0.10241688293E+02  0.18485826514E+03  0.18518331327E+03  0.00000000000E+00 0.  1.
<mgrwt>
<rscale>  0 0.78456804E+02</rscale>
<asrwt>0</asrwt>
<pdfrwt beam="1">  1        2 0.97213424E-01 0.78456804E+02</pdfrwt>
<pdfrwt beam="2">  1       -1 0.37466944E-03 0.78456804E+02</pdfrwt>
<totfact> 0.34311423E+05</totfact>
</mgrwt>
</event>
<event>
 8    1  0.1226832E-024  0.8138038E+02  0.7818608E-02  0.1325179E+00
         -1   -1    0    0    0  501 -0.00000000000E+00  0.00000000000E+00  0.44464764254E+01  0.44464792817E+01  0.50400000000E-02 0.  1.
          2   -1    0    0  501    0  0.00000000000E+00 -0.00000000000E+00 -0.37236025447E+03  0.37236025448E+03  0.25500000000E-02 0. -1.
         24    2    1    2    0    0  0.22204460493E-15  0.00000000000E+00 -0.36791377805E+03  0.37680673376E+03  0.81380381740E+02 0.  0.
         66    2    3    3    0    0  0.19301598846E+01 -0.21563091374E+02 -0.34345620890E+03  0.34414366166E+03  0.19999998048E+01 0.  0.
        -13    1    3    3    0    0 -0.19301598846E+01  0.21563091374E+02 -0.24457569144E+02  0.32663072103E+02  0.10566000000E+00 0.  1.
         13    1    4    4    0    0  0.61744901687E+00 -0.15089095249E+02 -0.23529574039E+03  0.23577989449E+03  0.10566000000E+00 0. -1.
        -13    1    4    4    0    0  0.12809372957E+01 -0.55319485448E+01 -0.90259109654E+02  0.90437609956E+02  0.10566000000E+00 0.  1.
        -14    1    4    4    0    0  0.31773571956E-01 -0.94204758041E+00 -0.17901358859E+02  0.17926157207E+02  0.00000000000E+00 0.  1.
<mgrwt>
<rscale>  0 0.81380382E+02</rscale>
<asrwt>0</asrwt>
<pdfrwt beam="1">  1        2 0.57286169E-01 0.81380382E+02</pdfrwt>
<pdfrwt beam="2">  1       -1 0.68407381E-03 0.81380382E+02</pdfrwt>
<totfact> 0.26343063E+05</totfact>
</mgrwt>
</event>
<event>
 8    1  0.1226832E-024  0.7985269E+02  0.7818608E-02  0.1329470E+00
          2   -1    0    0  501    0  0.00000000000E+00  0.00000000000E+00  0.56682947809E+02  0.56682947866E+02  0.25500000000E-02 0. -1.
         -1   -1    0    0    0  501 -0.00000000000E+00 -0.00000000000E+00 -0.28123323464E+02  0.28123323916E+02  0.50400000000E-02 0.  1.
         24    2    1    2    0    0 -0.35527136788E-14 -0.71054273576E-14  0.28559624345E+02  0.84806271782E+02  0.79852686810E+02 0.  0.
         66    2    3    3    0    0 -0.20047735752E+02 -0.31475186685E+02  0.29289721458E+02  0.47481437001E+02  0.19999977389E+01 0.  0.
        -13    1    3    3    0    0  0.20047735752E+02  0.31475186685E+02 -0.73009711370E+00  0.37324834781E+02  0.10566000000E+00 0.  1.
         13    1    4    4    0    0 -0.16504039575E+02 -0.26274570421E+02  0.23545731566E+02  0.38950597070E+02  0.10566000000E+00 0. -1.
        -13    1    4    4    0    0 -0.31574711694E+01 -0.44040593979E+01  0.48612357634E+01  0.72806689630E+01  0.10566000000E+00 0.  1.
         14    1    4    4    0    0 -0.38622500757E+00 -0.79655686548E+00  0.88275412877E+00  0.12501709676E+01  0.00000000000E+00 0. -1.
<mgrwt>
<rscale>  0 0.79852687E+02</rscale>
<asrwt>0</asrwt>
<pdfrwt beam="1">  1        2 0.87204534E-02 0.79852687E+02</pdfrwt>
<pdfrwt beam="2">  1       -1 0.43266653E-02 0.79852687E+02</pdfrwt>
<totfact> 0.15442409E+05</totfact>
</mgrwt>
</event>
<event>
 8    1  0.1226832E-024  0.7868573E+02  0.7818608E-02  0.1332823E+00
          2   -1    0    0  501    0  0.00000000000E+00  0.00000000000E+00  0.25796478857E+03  0.25796478859E+03  0.25500000000E-02 0. -1.
         -1   -1    0    0    0  501 -0.00000000000E+00 -0.00000000000E+00 -0.60002785509E+01  0.60002806676E+01  0.50400000000E-02 0.  1.
         24    2    1    2    0    0  0.00000000000E+00  0.00000000000E+00  0.25196451002E+03  0.26396506925E+03  0.78685725994E+02 0.  0.
         66    2    3    3    0    0 -0.98348035903E+01 -0.19629050334E+02  0.23548102860E+03  0.23651075625E+03  0.20000030558E+01 0.  0.
        -13    1    3    3    0    0  0.98348035903E+01  0.19629050334E+02  0.16483481420E+02  0.27454313002E+02  0.10566000000E+00 0.  1.
         13    1    4    4    0    0 -0.31190514322E+00 -0.45532566189E+00  0.90026978381E+01  0.90202183275E+01  0.10566000000E+00 0. -1.
        -13    1    4    4    0    0 -0.48228237544E+00 -0.88575076997E+00  0.87534012348E+01  0.88119434819E+01  0.10566000000E+00 0.  1.
         14    1    4    4    0    0 -0.90406160716E+01 -0.18287973902E+02  0.21772492953E+03  0.21867859444E+03  0.00000000000E+00 0. -1.
<mgrwt>
<rscale>  0 0.78685726E+02</rscale>
<asrwt>0</asrwt>
<pdfrwt beam="1">  1        2 0.39686886E-01 0.78685726E+02</pdfrwt>
<pdfrwt beam="2">  1       -1 0.92312005E-03 0.78685726E+02</pdfrwt>
<totfact> 0.25211561E+05</totfact>
</mgrwt>
</event>
<event>
 8    1  0.1226832E-024  0.7844086E+02  0.7818608E-02  0.1333535E+00
         -1   -1    0    0    0  501 -0.00000000000E+00  0.00000000000E+00  0.51222380752E+01  0.51222405547E+01  0.50400000000E-02 0.  1.
          2   -1    0    0  501    0  0.00000000000E+00 -0.00000000000E+00 -0.30030658980E+03  0.30030658981E+03  0.25500000000E-02 0. -1.
         24    2    1    2    0    0  0.00000000000E+00  0.00000000000E+00 -0.29518435173E+03  0.30542883037E+03  0.78440862535E+02 0.  0.
         66    2    3    3    0    0 -0.84454056622E+01  0.20418244948E+02 -0.27373990399E+03  0.27463751493E+03  0.19999919927E+01 0.  0.
        -13    1    3    3    0    0  0.84454056622E+01 -0.20418244948E+02 -0.21444447740E+02  0.30791315438E+02  0.10566000000E+00 0.  1.
         13    1    4    4    0    0 -0.53670611372E+01  0.14828463321E+02 -0.20051390359E+03  0.20113310360E+03  0.10566000000E+00 0. -1.
        -13    1    4    4    0    0 -0.23905301491E+01  0.44280239207E+01 -0.59204942173E+02  0.59418501934E+02  0.10566000000E+00 0.  1.
         14    1    4    4    0    0 -0.68781437592E+00  0.11617577061E+01 -0.14021058228E+02  0.14085909393E+02  0.00000000000E+00 0. -1.
<mgrwt>
<rscale>  0 0.78440863E+02</rscale>
<asrwt>0</asrwt>
<pdfrwt beam="1">  1        2 0.46201000E-01 0.78440863E+02</pdfrwt>
<pdfrwt beam="2">  1       -1 0.78803706E-03 0.78440863E+02</pdfrwt>
<totfact> 0.26853118E+05</totfact>
</mgrwt>
</event>
<event>
 8    1  0.1226832E-024  0.8110241E+02  0.7818608E-02  0.1325952E+00
         -1   -1    0    0    0  501 -0.00000000000E+00  0.00000000000E+00  0.31943536129E+01  0.31943575889E+01  0.50400000000E-02 0.  1.
          2   -1    0    0  501    0  0.00000000000E+00 -0.00000000000E+00 -0.51478303339E+03  0.51478303339E+03  0.25500000000E-02 0. -1.
         24    2    1    2    0    0  0.35527136788E-14  0.35527136788E-14 -0.51158867977E+03  0.51797739098E+03  0.81102406227E+02 0.  0.
         66    2    3    3    0    0 -0.25716306201E+02 -0.29658385081E+02 -0.32027692366E+03  0.32267980421E+03  0.20000003071E+01 0.  0.
        -13    1    3    3    0    0  0.25716306201E+02  0.29658385081E+02 -0.19131175611E+03  0.19529758678E+03  0.10566000000E+00 0.  1.
         13    1    4    4    0    0 -0.56767285254E+01 -0.58329846284E+01 -0.70312505566E+02  0.70782120337E+02  0.10566000000E+00 0. -1.
        -13    1    4    4    0    0 -0.98484322097E+01 -0.12439994425E+02 -0.12611909077E+03  0.12711326169E+03  0.10566000000E+00 0.  1.
        -14    1    4    4    0    0 -0.10191145466E+02 -0.11385406027E+02 -0.12384532733E+03  0.12478442217E+03  0.00000000000E+00 0.  1.
<mgrwt>
<rscale>  0 0.81102406E+02</rscale>
<asrwt>0</asrwt>
<pdfrwt beam="1">  1        2 0.79197324E-01 0.81102406E+02</pdfrwt>
<pdfrwt beam="2">  1       -1 0.49143973E-03 0.81102406E+02</pdfrwt>
<totfact> 0.29655629E+05</totfact>
</mgrwt>
</event>
<event>
 8    1  0.1226832E-024  0.7840789E+02  0.7818608E-02  0.1333631E+00
          2   -1    0    0  501    0  0.00000000000E+00  0.00000000000E+00  0.18327534278E+03  0.18327534280E+03  0.25500000000E-02 0. -1.
         -1   -1    0    0    0  501 -0.00000000000E+00 -0.00000000000E+00 -0.83860125555E+01  0.83860140700E+01  0.50400000000E-02 0.  1.
         24    2    1    2    0    0 -0.88817841970E-15  0.00000000000E+00  0.17488933023E+03  0.19166135687E+03  0.78407894310E+02 0.  0.
         66    2    3    3    0    0  0.61998257339E+01  0.21194897268E+02  0.16660692316E+03  0.16807596011E+03  0.20000032872E+01 0.  0.
        -13    1    3    3    0    0 -0.61998257339E+01 -0.21194897268E+02  0.82824070649E+01  0.23585396757E+02  0.10566000000E+00 0.  1.
         13    1    4    4    0    0  0.85393674627E+00  0.43230927526E+01  0.30739500254E+02  0.31053926946E+02  0.10566000000E+00 0.  1.
        -13    1    4    4    0    0  0.24816067891E+01  0.78015878841E+01  0.57687467663E+02  0.58265583625E+02  0.10566000000E+00 0. -1.
         14    1    4    4    0    0  0.28642821986E+01  0.90702166317E+01  0.78179955247E+02  0.78756449543E+02  0.00000000000E+00 0. -1.
<mgrwt>
<rscale>  0 0.78407894E+02</rscale>
<asrwt>0</asrwt>
<pdfrwt beam="1">  1        2 0.28196207E-01 0.78407894E+02</pdfrwt>
<pdfrwt beam="2">  1       -1 0.12901559E-02 0.78407894E+02</pdfrwt>
<totfact> 0.22572032E+05</totfact>
</mgrwt>
</event>
<event>
 8    1  0.1226832E-024  0.8086863E+02  0.7818608E-02  0.1326604E+00
          2   -1    0    0  501    0  0.00000000000E+00  0.00000000000E+00  0.23621071440E+02  0.23621071578E+02  0.25500000000E-02 0. -1.
         -1   -1    0    0    0  501 -0.00000000000E+00 -0.00000000000E+00 -0.69215065441E+02  0.69215065625E+02  0.50400000000E-02 0.  1.
         24    2    1    2    0    0  0.00000000000E+00 -0.35527136788E-14 -0.45593994001E+02  0.92836137203E+02  0.80868634722E+02 0.  0.
         66    2    3    3    0    0 -0.20002234823E+02 -0.31327087279E+02 -0.46069541680E+01  0.37505997192E+02  0.20000008391E+01 0.  0.
        -13    1    3    3    0    0  0.20002234823E+02  0.31327087279E+02 -0.40987039833E+02  0.55330140011E+02  0.10566000000E+00 0.  1.
         13    1    4    4    0    0 -0.63216070356E+01 -0.96763062181E+01 -0.22839545013E+01  0.11782242135E+02  0.10566000000E+00 0. -1.
        -13    1    4    4    0    0 -0.78869183897E+00 -0.13641028744E+01 -0.49371684176E-01  0.15800041353E+01  0.10566000000E+00 0. -1.
         14    1    4    4    0    0 -0.12891935949E+02 -0.20286678187E+02 -0.22736279825E+01  0.24143750921E+02  0.00000000000E+00 0. -1.
<mgrwt>
<rscale>  0 0.80868635E+02</rscale>
<asrwt>0</asrwt>
<pdfrwt beam="1">  1        2 0.36340110E-02 0.80868635E+02</pdfrwt>
<pdfrwt beam="2">  1       -1 0.10648472E-01 0.80868635E+02</pdfrwt>
<totfact> 0.12447360E+05</totfact>
</mgrwt>
</event>
<event>
 8    1  0.1226832E-024  0.7950159E+02  0.7818608E-02  0.1330472E+00
         -1   -1    0    0    0  501 -0.00000000000E+00  0.00000000000E+00  0.43054474614E+01  0.43054504113E+01  0.50400000000E-02 0.  1.
          2   -1    0    0  501    0  0.00000000000E+00 -0.00000000000E+00 -0.36700605496E+03  0.36700605497E+03  0.25500000000E-02 0. -1.
         24    2    1    2    0    0  0.00000000000E+00  0.00000000000E+00 -0.36270060749E+03  0.37131150538E+03  0.79501593366E+02 0.  0.
         66    2    3    3    0    0  0.91885096152E+01  0.74854923023E+01 -0.35855335310E+03  0.35875474676E+03  0.19999999215E+01 0.  0.
        -13    1    3    3    0    0 -0.91885096152E+01 -0.74854923023E+01 -0.41472543984E+01  0.12556758620E+02  0.10566000000E+00 0.  1.
         13    1    4    4    0    0  0.54051643753E+01  0.48384546551E+01 -0.20779934122E+03  0.20792595755E+03  0.10566000000E+00 0. -1.
        -13    1    4    4    0    0 -0.25062685347E-01  0.16486549244E+00 -0.49720403062E+01  0.49759579591E+01  0.10566000000E+00 0.  1.
         14    1    4    4    0    0  0.38084079253E+01  0.24821721547E+01 -0.14578197157E+03  0.14585283125E+03  0.00000000000E+00 0. -1.
<mgrwt>
<rscale>  0 0.79501593E+02</rscale>
<asrwt>0</asrwt>
<pdfrwt beam="1">  1        2 0.56462445E-01 0.79501593E+02</pdfrwt>
<pdfrwt beam="2">  1       -1 0.66237705E-03 0.79501593E+02</pdfrwt>
<totfact> 0.27859716E+05</totfact>
</mgrwt>
</event>
<event>
 8    1  0.1226832E-024  0.7995391E+02  0.7818608E-02  0.1329182E+00
         -1   -1    0    0    0  501 -0.00000000000E+00  0.00000000000E+00  0.14273872180E+02  0.14273873070E+02  0.50400000000E-02 0.  1.
          2   -1    0    0  501    0  0.00000000000E+00 -0.00000000000E+00 -0.11196380617E+03  0.11196380620E+03  0.25500000000E-02 0. -1.
         24    2    1    2    0    0 -0.17763568394E-14  0.71054273576E-14 -0.97689933987E+02  0.12623767927E+03  0.79953914625E+02 0.  0.
         66    2    3    3    0    0 -0.10574160064E+02  0.38410557329E+02 -0.44147130842E+02  0.59499184317E+02  0.19999993367E+01 0.  0.
        -13    1    3    3    0    0  0.10574160064E+02 -0.38410557329E+02 -0.53542803144E+02  0.66738494948E+02  0.10566000000E+00 0.  1.
         13    1    4    4    0    0 -0.21587746652E+01  0.68585008433E+01 -0.77896655284E+01  0.10601386464E+02  0.10566000000E+00 0. -1.
        -13    1    4    4    0    0 -0.71730260395E+00  0.17782234333E+01 -0.26049500359E+01  0.32362834131E+01  0.10566000000E+00 0.  1.
        -14    1    4    4    0    0 -0.76980827953E+01  0.29773833052E+02 -0.33752515278E+02  0.45661514440E+02  0.00000000000E+00 0.  1.
<mgrwt>
<rscale>  0 0.79953915E+02</rscale>
<asrwt>0</asrwt>
<pdfrwt beam="1">  1        2 0.17225200E-01 0.79953915E+02</pdfrwt>
<pdfrwt beam="2">  1       -1 0.21959805E-02 0.79953915E+02</pdfrwt>
<totfact> 0.18335964E+05</totfact>
</mgrwt>
</event>
<event>
 8    1  0.1226832E-024  0.8082199E+02  0.7818608E-02  0.1326735E+00
         -1   -1    0    0    0  501 -0.00000000000E+00  0.00000000000E+00  0.27124321553E+01  0.27124368377E+01  0.50400000000E-02 0.  1.
          2   -1    0    0  501    0  0.00000000000E+00 -0.00000000000E+00 -0.60206014328E+03  0.60206014328E+03  0.25500000000E-02 0. -1.
         24    2    1    2    0    0 -0.44408920985E-15 -0.17763568394E-14 -0.59934771112E+03  0.60477258012E+03  0.80821994768E+02 0.  0.
         66    2    3    3    0    0  0.29159894972E+01  0.11582393908E+02 -0.58853953522E+03  0.58866411422E+03  0.20000016897E+01 0.  0.
        -13    1    3    3    0    0 -0.29159894972E+01 -0.11582393908E+02 -0.10808175902E+02  0.16108465903E+02  0.10566000000E+00 0.  1.
         13    1    4    4    0    0  0.14021050703E+01  0.50037222886E+01 -0.21999869757E+03  0.22006008550E+03  0.10566000000E+00 0. -1.
        -13    1    4    4    0    0  0.10213207132E+01  0.23274962355E+01 -0.14114897997E+03  0.14117190246E+03  0.10566000000E+00 0.  1.
         14    1    4    4    0    0  0.49256371364E+00  0.42511753838E+01 -0.22739185768E+03  0.22743212625E+03  0.00000000000E+00 0. -1.
<mgrwt>
<rscale>  0 0.80821995E+02</rscale>
<asrwt>0</asrwt>
<pdfrwt beam="1">  1        2 0.92624531E-01 0.80821995E+02</pdfrwt>
<pdfrwt beam="2">  1       -1 0.41729810E-03 0.80821995E+02</pdfrwt>
<totfact> 0.31348666E+05</totfact>
</mgrwt>
</event>
<event>
 8    1  0.1226832E-024  0.7907071E+02  0.7818608E-02  0.1331710E+00
         -1   -1    0    0    0  501 -0.00000000000E+00  0.00000000000E+00  0.45182895505E+01  0.45182923614E+01  0.50400000000E-02 0.  1.
          2   -1    0    0  501    0  0.00000000000E+00 -0.00000000000E+00 -0.34593702839E+03  0.34593702840E+03  0.25500000000E-02 0. -1.
         24    2    1    2    0    0  0.00000000000E+00  0.00000000000E+00 -0.34141873884E+03  0.35045532076E+03  0.79070706452E+02 0.  0.
         66    2    3    3    0    0 -0.16105335928E+02 -0.21376862211E+02 -0.29963284686E+03  0.30083250327E+03  0.20000054425E+01 0.  0.
        -13    1    3    3    0    0  0.16105335928E+02  0.21376862211E+02 -0.41785891978E+02  0.49622817491E+02  0.10566000000E+00 0.  1.
         13    1    4    4    0    0 -0.67126446999E+01 -0.83723742850E+01 -0.12895159802E+03  0.12939738037E+03  0.10566000000E+00 0. -1.
        -13    1    4    4    0    0 -0.19675181730E+01 -0.26321865554E+01 -0.32024498717E+02  0.32192844172E+02  0.10566000000E+00 0.  1.
         14    1    4    4    0    0 -0.74251730549E+01 -0.10372301370E+02 -0.13865675012E+03  0.13924227873E+03  0.00000000000E+00 0. -1.
<mgrwt>
<rscale>  0 0.79070706E+02</rscale>
<asrwt>0</asrwt>
<pdfrwt beam="1">  1        2 0.53221061E-01 0.79070706E+02</pdfrwt>
<pdfrwt beam="2">  1       -1 0.69512196E-03 0.79070706E+02</pdfrwt>
<totfact> 0.27670132E+05</totfact>
</mgrwt>
</event>
<event>
 8    1  0.1226832E-024  0.7899558E+02  0.7818608E-02  0.1331926E+00
         -1   -1    0    0    0  501 -0.00000000000E+00  0.00000000000E+00  0.38231448461E+01  0.38231481682E+01  0.50400000000E-02 0.  1.
          2   -1    0    0  501    0  0.00000000000E+00 -0.00000000000E+00 -0.40806059802E+03  0.40806059802E+03  0.25500000000E-02 0. -1.
         24    2    1    2    0    0  0.00000000000E+00  0.71054273576E-14 -0.40423745317E+03  0.41188374619E+03  0.78995581091E+02 0.  0.
         66    2    3    3    0    0 -0.88327113745E+01 -0.31730886233E+02 -0.31566966742E+03  0.31738967353E+03  0.20000009911E+01 0.  0.
        -13    1    3    3    0    0  0.88327113745E+01  0.31730886233E+02 -0.88567785751E+02  0.94494072662E+02  0.10566000000E+00 0.  1.
         13    1    4    4    0    0 -0.33971682407E+01 -0.13666889738E+02 -0.12696756989E+03  0.12774623123E+03  0.10566000000E+00 0. -1.
        -13    1    4    4    0    0 -0.32090027085E+01 -0.10729344177E+02 -0.11462665106E+03  0.11517246556E+03  0.10566000000E+00 0.  1.
         14    1    4    4    0    0 -0.22265404253E+01 -0.73346523185E+01 -0.74075446470E+02  0.74470976740E+02  0.00000000000E+00 0. -1.
<mgrwt>
<rscale>  0 0.78995581E+02</rscale>
<asrwt>0</asrwt>
<pdfrwt beam="1">  1        2 0.62778519E-01 0.78995581E+02</pdfrwt>
<pdfrwt beam="2">  1       -1 0.58817671E-03 0.78995581E+02</pdfrwt>
<totfact> 0.29404621E+05</totfact>
</mgrwt>
</event>
<event>
 8    1  0.1226832E-024  0.7766736E+02  0.7818608E-02  0.1335805E+00
          2   -1    0    0  501    0  0.00000000000E+00  0.00000000000E+00  0.28392519186E+03  0.28392519187E+03  0.25500000000E-02 0. -1.
         -1   -1    0    0    0  501 -0.00000000000E+00 -0.00000000000E+00 -0.53114500344E+01  0.53114524256E+01  0.50400000000E-02 0.  1.
         24    2    1    2    0    0  0.00000000000E+00  0.00000000000E+00  0.27861374183E+03  0.28923664430E+03  0.77667362967E+02 0.  0.
         66    2    3    3    0    0 -0.92709680234E+01  0.37384311365E+02  0.15706850929E+03  0.16173451764E+03  0.20000008265E+01 0.  0.
        -13    1    3    3    0    0  0.92709680234E+01 -0.37384311365E+02  0.12154523254E+03  0.12750212665E+03  0.10566000000E+00 0.  1.
         13    1    4    4    0    0 -0.18680478529E+01  0.55578535435E+01  0.22671583558E+02  0.23417754031E+02  0.10566000000E+00 0. -1.
        -13    1    4    4    0    0 -0.39186309453E+00  0.95348945396E+00  0.43329900634E+01  0.44551841431E+01  0.10566000000E+00 0.  1.
         14    1    4    4    0    0 -0.70110570760E+01  0.30872968368E+02  0.13006393567E+03  0.13386157947E+03  0.00000000000E+00 0. -1.
<mgrwt>
<rscale>  0 0.77667363E+02</rscale>
<asrwt>0</asrwt>
<pdfrwt beam="1">  1        2 0.43680807E-01 0.77667363E+02</pdfrwt>
<pdfrwt beam="2">  1       -1 0.81714620E-03 0.77667363E+02</pdfrwt>
<totfact> 0.27005489E+05</totfact>
</mgrwt>
</event>
<event>
 8    1  0.1226832E-024  0.8031764E+02  0.7818608E-02  0.1328152E+00
         -1   -1    0    0    0  501 -0.00000000000E+00  0.00000000000E+00  0.14131644924E+01  0.14131734799E+01  0.50400000000E-02 0.  1.
          2   -1    0    0  501    0  0.00000000000E+00 -0.00000000000E+00 -0.11412158849E+04  0.11412158849E+04  0.25500000000E-02 0. -1.
         24    2    1    2    0    0  0.00000000000E+00  0.00000000000E+00 -0.11398027204E+04  0.11426290584E+04  0.80317641973E+02 0.  0.
         66    2    3    3    0    0 -0.23650971476E+02 -0.86295404103E+01 -0.10149022361E+04  0.10152164233E+04  0.19999997276E+01 0.  0.
        -13    1    3    3    0    0  0.23650971476E+02  0.86295404103E+01 -0.12490048436E+03  0.12741263507E+03  0.10566000000E+00 0.  1.
         13    1    4    4    0    0 -0.95253046481E+01 -0.34989752996E+01 -0.41967671037E+03  0.41979938858E+03  0.10566000000E+00 0. -1.
        -13    1    4    4    0    0 -0.13084237427E+02 -0.50065508627E+01 -0.54100843143E+03  0.54118979745E+03  0.10566000000E+00 0.  1.
        -14    1    4    4    0    0 -0.10414294005E+01 -0.12401424804E+00 -0.54217094255E+02  0.54227237291E+02  0.00000000000E+00 0.  1.
<mgrwt>
<rscale>  0 0.80317642E+02</rscale>
<asrwt>0</asrwt>
<pdfrwt beam="1">  1        2 0.17557094E+00 0.80317642E+02</pdfrwt>
<pdfrwt beam="2">  1       -1 0.21741153E-03 0.80317642E+02</pdfrwt>
<totfact> 0.34830368E+05</totfact>
</mgrwt>
</event>
<event>
 8    1  0.1226832E-024  0.7617133E+02  0.7818608E-02  0.1340282E+00
         -1   -1    0    0    0  501 -0.00000000000E+00  0.00000000000E+00  0.13297133055E+02  0.13297134010E+02  0.50400000000E-02 0.  1.
          2   -1    0    0  501    0  0.00000000000E+00 -0.00000000000E+00 -0.10908500835E+03  0.10908500838E+03  0.25500000000E-02 0. -1.
         24    2    1    2    0    0  0.00000000000E+00  0.00000000000E+00 -0.95787875295E+02  0.12238214239E+03  0.76171331369E+02 0.  0.
         66    2    3    3    0    0  0.15457730938E+02  0.16882829057E+02 -0.96779696624E+02  0.99470000712E+02  0.20000000638E+01 0.  0.
        -13    1    3    3    0    0 -0.15457730938E+02 -0.16882829057E+02  0.99182132877E+00  0.22912141679E+02  0.10566000000E+00 0.  1.
         13    1    4    4    0    0  0.77115527025E+01  0.72910372495E+01 -0.42553503132E+02  0.43857029791E+02  0.10566000000E+00 0. -1.
        -13    1    4    4    0    0  0.66959655002E+00  0.98692851040E+00 -0.56725441707E+01  0.57975260955E+01  0.10566000000E+00 0.  1.
         14    1    4    4    0    0  0.70765816857E+01  0.86048632971E+01 -0.48553649321E+02  0.49815444825E+02  0.00000000000E+00 0. -1.
<mgrwt>
<rscale>  0 0.76171331E+02</rscale>
<asrwt>0</asrwt>
<pdfrwt beam="1">  1        2 0.16782308E-01 0.76171331E+02</pdfrwt>
<pdfrwt beam="2">  1       -1 0.20457129E-02 0.76171331E+02</pdfrwt>
<totfact> 0.20707106E+05</totfact>
</mgrwt>
</event>
<event>
 8    1  0.1226832E-024  0.7999470E+02  0.7818608E-02  0.1329066E+00
          2   -1    0    0  501    0  0.00000000000E+00  0.00000000000E+00  0.14033730442E+03  0.14033730444E+03  0.25500000000E-02 0. -1.
         -1   -1    0    0    0  501 -0.00000000000E+00 -0.00000000000E+00 -0.11399592267E+02  0.11399593381E+02  0.50400000000E-02 0.  1.
         24    2    1    2    0    0  0.35527136788E-14  0.00000000000E+00  0.12893771215E+03  0.15173689783E+03  0.79994703239E+02 0.  0.
         66    2    3    3    0    0  0.23447506975E+02 -0.22386609139E+02  0.10886572323E+03  0.11360762094E+03  0.19999976438E+01 0.  0.
        -13    1    3    3    0    0 -0.23447506975E+02  0.22386609139E+02  0.20071988929E+02  0.38129276884E+02  0.10566000000E+00 0.  1.
         13    1    4    4    0    0  0.21566681422E+02 -0.20249369038E+02  0.99283885464E+02  0.10359758574E+03  0.10566000000E+00 0. -1.
        -13    1    4    4    0    0  0.16730749087E+00 -0.68911465044E-01  0.76305591128E+00  0.79130205728E+00  0.10566000000E+00 0. -1.
         14    1    4    4    0    0  0.17135180620E+01 -0.20683286364E+01  0.88187818502E+01  0.92187331461E+01  0.00000000000E+00 0. -1.
<mgrwt>
<rscale>  0 0.79994703E+02</rscale>
<asrwt>0</asrwt>
<pdfrwt beam="1">  1        2 0.21590354E-01 0.79994703E+02</pdfrwt>
<pdfrwt beam="2">  1       -1 0.17537836E-02 0.79994703E+02</pdfrwt>
<totfact> 0.19612474E+05</totfact>
</mgrwt>
</event>
<event>
 8    1  0.1226832E-024  0.7865026E+02  0.7818608E-02  0.1332926E+00
         -1   -1    0    0    0  501 -0.00000000000E+00  0.00000000000E+00  0.50227833736E+01  0.50227859022E+01  0.50400000000E-02 0.  1.
          2   -1    0    0  501    0  0.00000000000E+00 -0.00000000000E+00 -0.30789017069E+03  0.30789017070E+03  0.25500000000E-02 0. -1.
         24    2    1    2    0    0  0.00000000000E+00 -0.35527136788E-14 -0.30286738732E+03  0.31291295661E+03  0.78650264526E+02 0.  0.
         66    2    3    3    0    0  0.98644729696E+01 -0.30520486151E+02 -0.24187594519E+03  0.24400159993E+03  0.20000011688E+01 0.  0.
        -13    1    3    3    0    0 -0.98644729696E+01  0.30520486151E+02 -0.60991442128E+02  0.68911356674E+02  0.10566000000E+00 0.  1.
         13    1    4    4    0    0  0.39252846235E+01 -0.11955831244E+02 -0.10199770516E+03  0.10277106978E+03  0.10566000000E+00 0. -1.
        -13    1    4    4    0    0  0.75534789944E+00 -0.28002629286E+01 -0.20980155264E+02  0.21179945747E+02  0.10566000000E+00 0.  1.
         14    1    4    4    0    0  0.51838404466E+01 -0.15764391979E+02 -0.11889808476E+03  0.12005058441E+03  0.00000000000E+00 0. -1.
<mgrwt>
<rscale>  0 0.78650265E+02</rscale>
<asrwt>0</asrwt>
<pdfrwt beam="1">  1        2 0.47367704E-01 0.78650265E+02</pdfrwt>
<pdfrwt beam="2">  1       -1 0.77273634E-03 0.78650265E+02</pdfrwt>
<totfact> 0.26907750E+05</totfact>
</mgrwt>
</event>
<event>
 8    1  0.1226832E-024  0.7827688E+02  0.7818608E-02  0.1334014E+00
          2   -1    0    0  501    0  0.00000000000E+00  0.00000000000E+00  0.54572572430E+03  0.54572572430E+03  0.25500000000E-02 0. -1.
         -1   -1    0    0    0  501 -0.00000000000E+00 -0.00000000000E+00 -0.28069341057E+01  0.28069386305E+01  0.50400000000E-02 0.  1.
         24    2    1    2    0    0  0.35527136788E-14  0.00000000000E+00  0.54291879019E+03  0.54853266293E+03  0.78276877570E+02 0.  0.
         66    2    3    3    0    0  0.29848858261E+02  0.20471545619E+02  0.37552213100E+03  0.37726768931E+03  0.20000007984E+01 0.  0.
        -13    1    3    3    0    0 -0.29848858261E+02 -0.20471545619E+02  0.16739665919E+03  0.17126497363E+03  0.10566000000E+00 0.  1.
         13    1    4    4    0    0  0.23724427875E+02  0.17106755739E+02  0.30381091099E+03  0.30521561292E+03  0.10566000000E+00 0. -1.
        -13    1    4    4    0    0  0.11870397029E+01  0.79897265759E+00  0.14184995677E+02  0.14257373074E+02  0.10566000000E+00 0.  1.
         14    1    4    4    0    0  0.49373906841E+01  0.25658172219E+01  0.57526224339E+02  0.57794703317E+02  0.00000000000E+00 0. -1.
<mgrwt>
<rscale>  0 0.78276878E+02</rscale>
<asrwt>0</asrwt>
<pdfrwt beam="1">  1        2 0.83957845E-01 0.78276878E+02</pdfrwt>
<pdfrwt beam="2">  1       -1 0.43183615E-03 0.78276878E+02</pdfrwt>
<totfact> 0.33112912E+05</totfact>
</mgrwt>
</event>
<event>
 8    1  0.1226832E-024  0.8006128E+02  0.7818608E-02  0.1328878E+00
         -1   -1    0    0    0  501 -0.00000000000E+00  0.00000000000E+00  0.80856726147E+02  0.80856726304E+02  0.50400000000E-02 0.  1.
          2   -1    0    0  501    0  0.00000000000E+00 -0.00000000000E+00 -0.19818414544E+02  0.19818414709E+02  0.25500000000E-02 0. -1.
         24    2    1    2    0    0  0.00000000000E+00  0.00000000000E+00  0.61038311602E+02  0.10067514101E+03  0.80061279871E+02 0.  0.
         66    2    3    3    0    0  0.84733223635E+01 -0.34556892883E+02  0.75407320373E+01  0.36425796884E+02  0.20000003273E+01 0.  0.
        -13    1    3    3    0    0 -0.84733223635E+01  0.34556892883E+02  0.53497579565E+02  0.64249344129E+02  0.10566000000E+00 0.  1.
         13    1    4    4    0    0  0.69986499094E+01 -0.29122271243E+02  0.60127084586E+01  0.30549167090E+02  0.10566000000E+00 0. -1.
        -13    1    4    4    0    0  0.95064541576E-01 -0.21405734879E+00 -0.24451265559E-01  0.25810795343E+00  0.10566000000E+00 0. -1.
         14    1    4    4    0    0  0.13796079126E+01 -0.52205642921E+01  0.15524748442E+01  0.56185218396E+01  0.00000000000E+00 0. -1.
<mgrwt>
<rscale>  0 0.80061280E+02</rscale>
<asrwt>0</asrwt>
<pdfrwt beam="1">  1        2 0.30489869E-02 0.80061280E+02</pdfrwt>
<pdfrwt beam="2">  1       -1 0.12439496E-01 0.80061280E+02</pdfrwt>
<totfact> 0.12365573E+05</totfact>
</mgrwt>
</event>
<event>
 8    1  0.1226832E-024  0.7959141E+02  0.7818608E-02  0.1330215E+00
          2   -1    0    0  501    0  0.00000000000E+00  0.00000000000E+00  0.65243769058E+02  0.65243769108E+02  0.25500000000E-02 0. -1.
         -1   -1    0    0    0  501 -0.00000000000E+00 -0.00000000000E+00 -0.24273554666E+02  0.24273555189E+02  0.50400000000E-02 0.  1.
         24    2    1    2    0    0  0.00000000000E+00  0.00000000000E+00  0.40970214393E+02  0.89517324297E+02  0.79591412112E+02 0.  0.
         66    2    3    3    0    0 -0.75619864166E+00 -0.13993964310E+02  0.62359169396E+02  0.63945827789E+02  0.20000025998E+01 0.  0.
        -13    1    3    3    0    0  0.75619864166E+00  0.13993964310E+02 -0.21388955003E+02  0.25571496508E+02  0.10566000000E+00 0.  1.
         13    1    4    4    0    0 -0.11790663398E+01 -0.65568210708E+01  0.28630245161E+02  0.29395309184E+02  0.10566000000E+00 0.  1.
        -13    1    4    4    0    0  0.92939207445E-01 -0.63850659791E+01  0.28922080249E+02  0.29618838519E+02  0.10566000000E+00 0. -1.
         14    1    4    4    0    0  0.32992849065E+00 -0.10520772604E+01  0.48068439859E+01  0.49316800865E+01  0.00000000000E+00 0. -1.
<mgrwt>
<rscale>  0 0.79591412E+02</rscale>
<asrwt>0</asrwt>
<pdfrwt beam="1">  1        2 0.10037503E-01 0.79591412E+02</pdfrwt>
<pdfrwt beam="2">  1       -1 0.37343931E-02 0.79591412E+02</pdfrwt>
<totfact> 0.16096935E+05</totfact>
</mgrwt>
</event>
<event>
 8    1  0.1226832E-024  0.7868819E+02  0.7818608E-02  0.1332816E+00
          2   -1    0    0  501    0  0.00000000000E+00  0.00000000000E+00  0.27474378407E+03  0.27474378408E+03  0.25500000000E-02 0. -1.
         -1   -1    0    0    0  501 -0.00000000000E+00 -0.00000000000E+00 -0.56341853432E+01  0.56341875975E+01  0.50400000000E-02 0.  1.
         24    2    1    2    0    0  0.00000000000E+00  0.00000000000E+00  0.26910959873E+03  0.28037797168E+03  0.78688187653E+02 0.  0.
         66    2    3    3    0    0 -0.13900268962E+02  0.19888009516E+02  0.24488072616E+03  0.24608803395E+03  0.20000019939E+01 0.  0.
        -13    1    3    3    0    0  0.13900268962E+02 -0.19888009516E+02  0.24228872567E+02  0.34289937732E+02  0.10566000000E+00 0.  1.
         13    1    4    4    0    0 -0.44904933276E+01  0.70251623282E+01  0.89792839298E+02  0.90179169376E+02  0.10566000000E+00 0. -1.
        -13    1    4    4    0    0 -0.49036093360E+01  0.71787289436E+01  0.79697079257E+02  0.80169914181E+02  0.10566000000E+00 0.  1.
        -14    1    4    4    0    0 -0.45061662983E+01  0.56841182446E+01  0.75390807603E+02  0.75738950388E+02  0.00000000000E+00 0.  1.
<mgrwt>
<rscale>  0 0.78688188E+02</rscale>
<asrwt>0</asrwt>
<pdfrwt beam="1">  1        2 0.42268274E-01 0.78688188E+02</pdfrwt>
<pdfrwt beam="2">  1       -1 0.86679792E-03 0.78688188E+02</pdfrwt>
<totfact> 0.25789562E+05</totfact>
</mgrwt>
</event>
<event>
 8    1  0.1290864E-024  0.7985346E+02  0.7818608E-02  0.1329468E+00
         -1   -1    0    0    0  501 -0.00000000000E+00  0.00000000000E+00  0.21686859512E+02  0.21686860098E+02  0.50400000000E-02 0.  1.
          2   -1    0    0  501    0  0.00000000000E+00 -0.00000000000E+00 -0.73507351786E+02  0.73507351830E+02  0.25500000000E-02 0. -1.
         24    2    1    2    0    0  0.17763568394E-14  0.17763568394E-14 -0.51820492274E+02  0.95194211928E+02  0.79853456813E+02 0.  0.
         66    2    3    3    0    0 -0.94032406256E+01 -0.14712328875E+02 -0.68697593926E+02  0.70910034375E+02  0.20000021672E+01 0.  0.
        -13    1    3    3    0    0  0.94032406256E+01  0.14712328875E+02  0.16877101652E+02  0.24284177552E+02  0.10566000000E+00 0.  1.
         13    1    4    4    0    0 -0.50165826266E+01 -0.76784452019E+01 -0.37367836966E+02  0.38477149395E+02  0.10566000000E+00 0. -1.
        -13    1    4    4    0    0 -0.18034478271E+01 -0.40838625862E+01 -0.16725239509E+02  0.17311128165E+02  0.10566000000E+00 0.  1.
        -14    1    4    4    0    0 -0.25832101720E+01 -0.29500210868E+01 -0.14604517451E+02  0.15121756815E+02  0.00000000000E+00 0.  1.
<mgrwt>
<rscale>  0 0.79853457E+02</rscale>
<asrwt>0</asrwt>
<pdfrwt beam="1">  1        2 0.11308823E-01 0.79853457E+02</pdfrwt>
<pdfrwt beam="2">  1       -1 0.33364400E-02 0.79853457E+02</pdfrwt>
<totfact> 0.16423414E+05</totfact>
</mgrwt>
</event>
<event>
 8    1  0.1226832E-024  0.7172230E+02  0.7818608E-02  0.1354332E+00
          2   -1    0    0  501    0  0.00000000000E+00  0.00000000000E+00  0.32573933589E+01  0.32573943570E+01  0.25500000000E-02 0. -1.
         -1   -1    0    0    0  501 -0.00000000000E+00 -0.00000000000E+00 -0.39480093381E+03  0.39480093384E+03  0.50400000000E-02 0.  1.
         24    2    1    2    0    0  0.17763568394E-14  0.00000000000E+00 -0.39154354045E+03  0.39805832820E+03  0.71722301829E+02 0.  0.
         66    2    3    3    0    0 -0.13135332550E+02 -0.33322470357E+02 -0.20172680509E+03  0.20489174678E+03  0.20000032095E+01 0.  0.
        -13    1    3    3    0    0  0.13135332550E+02  0.33322470357E+02 -0.18981673536E+03  0.19316658142E+03  0.10566000000E+00 0.  1.
         13    1    4    4    0    0 -0.44688434343E+01 -0.11076803627E+02 -0.67607113760E+02  0.68654199691E+02  0.10566000000E+00 0. -1.
        -13    1    4    4    0    0 -0.16013386502E+01 -0.30743981280E+01 -0.17217920533E+02  0.17563717171E+02  0.10566000000E+00 0.  1.
        -14    1    4    4    0    0 -0.70651504650E+01 -0.19171268602E+02 -0.11690177080E+03  0.11867382992E+03  0.00000000000E+00 0.  1.
<mgrwt>
<rscale>  0 0.71722302E+02</rscale>
<asrwt>0</asrwt>
<pdfrwt beam="1">  1        2 0.50113783E-03 0.71722302E+02</pdfrwt>
<pdfrwt beam="2">  1       -1 0.60738568E-01 0.71722302E+02</pdfrwt>
<totfact> 0.10095146E+05</totfact>
</mgrwt>
</event>
<event>
 8    1  0.1226832E-024  0.8136039E+02  0.7818608E-02  0.1325235E+00
          2   -1    0    0  501    0  0.00000000000E+00  0.00000000000E+00  0.27176039244E+03  0.27176039245E+03  0.25500000000E-02 0. -1.
         -1   -1    0    0    0  501 -0.00000000000E+00 -0.00000000000E+00 -0.60894746436E+01  0.60894767293E+01  0.50400000000E-02 0.  1.
         24    2    1    2    0    0  0.00000000000E+00  0.00000000000E+00  0.26567091780E+03  0.27784986918E+03  0.81360391109E+02 0.  0.
         66    2    3    3    0    0 -0.22792655358E+02 -0.23555705736E+01  0.24760323593E+03  0.24866929100E+03  0.19999978729E+01 0.  0.
        -13    1    3    3    0    0  0.22792655358E+02  0.23555705736E+01  0.18067681863E+02  0.29180578180E+02  0.10566000000E+00 0.  1.
         13    1    4    4    0    0 -0.13927003596E+02 -0.70572784508E+00  0.15685462593E+03  0.15747331304E+03  0.10566000000E+00 0. -1.
        -13    1    4    4    0    0 -0.14920865084E+01 -0.30994362273E+00  0.15499883548E+02  0.15574978050E+02  0.10566000000E+00 0.  1.
         14    1    4    4    0    0 -0.73735652531E+01 -0.13398991058E+01  0.75248726455E+02  0.75620999910E+02  0.00000000000E+00 0. -1.
<mgrwt>
<rscale>  0 0.81360391E+02</rscale>
<asrwt>0</asrwt>
<pdfrwt beam="1">  1        2 0.41809297E-01 0.81360391E+02</pdfrwt>
<pdfrwt beam="2">  1       -1 0.93684229E-03 0.81360391E+02</pdfrwt>
<totfact> 0.23531577E+05</totfact>
</mgrwt>
</event>
<event>
 8    1  0.1226832E-024  0.8061092E+02  0.7818608E-02  0.1327327E+00
          2   -1    0    0  501    0  0.00000000000E+00  0.00000000000E+00  0.30379822859E+03  0.30379822860E+03  0.25500000000E-02 0. -1.
         -1   -1    0    0    0  501 -0.00000000000E+00 -0.00000000000E+00 -0.53473970753E+01  0.53473994505E+01  0.50400000000E-02 0.  1.
         24    2    1    2    0    0  0.00000000000E+00  0.17763568394E-14  0.29845083152E+03  0.30914562805E+03  0.80610920547E+02 0.  0.
         66    2    3    3    0    0 -0.13281448128E+01  0.14588117830E+02  0.29321759457E+03  0.29359007974E+03  0.20000004896E+01 0.  0.
        -13    1    3    3    0    0  0.13281448128E+01 -0.14588117830E+02  0.52332369425E+01  0.15555548316E+02  0.10566000000E+00 0.  1.
         13    1    4    4    0    0 -0.13555797730E+01  0.13138810865E+02  0.26024256219E+03  0.26057756673E+03  0.10566000000E+00 0. -1.
        -13    1    4    4    0    0  0.29558401968E+00  0.69073722833E+00  0.14211137290E+02  0.14231376425E+02  0.10566000000E+00 0.  1.
         14    1    4    4    0    0 -0.26814905954E+00  0.75856973636E+00  0.18763895096E+02  0.18781136577E+02  0.00000000000E+00 0. -1.
<mgrwt>
<rscale>  0 0.80610921E+02</rscale>
<asrwt>0</asrwt>
<pdfrwt beam="1">  1        2 0.46738196E-01 0.80610921E+02</pdfrwt>
<pdfrwt beam="2">  1       -1 0.82267654E-03 0.80610921E+02</pdfrwt>
<totfact> 0.25104999E+05</totfact>
</mgrwt>
</event>
<event>
 8    1  0.1226832E-024  0.7973453E+02  0.7818608E-02  0.1329806E+00
          2   -1    0    0  501    0  0.00000000000E+00  0.00000000000E+00  0.12068239636E+03  0.12068239639E+03  0.25500000000E-02 0. -1.
         -1   -1    0    0    0  501 -0.00000000000E+00 -0.00000000000E+00 -0.13170096048E+02  0.13170097012E+02  0.50400000000E-02 0.  1.
         24    2    1    2    0    0  0.00000000000E+00  0.00000000000E+00  0.10751230031E+03  0.13385249340E+03  0.79734529978E+02 0.  0.
         66    2    3    3    0    0 -0.18560520367E+02 -0.65864072478E+01  0.11193105279E+03  0.11366808818E+03  0.20000032982E+01 0.  0.
        -13    1    3    3    0    0  0.18560520367E+02  0.65864072478E+01 -0.44187524817E+01  0.20184405224E+02  0.10566000000E+00 0.  1.
         13    1    4    4    0    0 -0.48861730667E+01 -0.11357032850E+01  0.31441984293E+02  0.31839818617E+02  0.10566000000E+00 0. -1.
        -13    1    4    4    0    0 -0.93275292382E+01 -0.37834349742E+01  0.57063393314E+02  0.57944449281E+02  0.10566000000E+00 0.  1.
         14    1    4    4    0    0 -0.43468180620E+01 -0.16672689886E+01  0.23425675187E+02  0.23883820279E+02  0.00000000000E+00 0. -1.
<mgrwt>
<rscale>  0 0.79734530E+02</rscale>
<asrwt>0</asrwt>
<pdfrwt beam="1">  1        2 0.18566522E-01 0.79734530E+02</pdfrwt>
<pdfrwt beam="2">  1       -1 0.20261688E-02 0.79734530E+02</pdfrwt>
<totfact> 0.18884912E+05</totfact>
</mgrwt>
</event>
<event>
 8    1  0.1226832E-024  0.7354646E+02  0.7818608E-02  0.1348432E+00
         -1   -1    0    0    0  501 -0.00000000000E+00  0.00000000000E+00  0.15870312509E+01  0.15870392538E+01  0.50400000000E-02 0.  1.
          2   -1    0    0  501    0  0.00000000000E+00 -0.00000000000E+00 -0.85207325546E+03  0.85207325546E+03  0.25500000000E-02 0. -1.
         24    2    1    2    0    0  0.35527136788E-14 -0.88817841970E-15 -0.85048622420E+03  0.85366029471E+03  0.73546456120E+02 0.  0.
         66    2    3    3    0    0 -0.24491160748E+02  0.74423310123E+01 -0.73156594366E+03  0.73201634898E+03  0.19999997522E+01 0.  0.
        -13    1    3    3    0    0  0.24491160748E+02 -0.74423310123E+01 -0.11892028054E+03  0.12164394573E+03  0.10566000000E+00 0.  1.
         13    1    4    4    0    0 -0.12413948791E+02  0.31599634164E+01 -0.36589434026E+03  0.36611852028E+03  0.10566000000E+00 0. -1.
        -13    1    4    4    0    0 -0.76428953230E+00  0.18882105773E+00 -0.30613544172E+02  0.30623847614E+02  0.10566000000E+00 0.  1.
         14    1    4    4    0    0 -0.11312922425E+02  0.40935465382E+01 -0.33505805923E+03  0.33527398108E+03  0.00000000000E+00 0. -1.
<mgrwt>
<rscale>  0 0.73546456E+02</rscale>
<asrwt>0</asrwt>
<pdfrwt beam="1">  1        2 0.13108783E+00 0.73546456E+02</pdfrwt>
<pdfrwt beam="2">  1       -1 0.24415995E-03 0.73546456E+02</pdfrwt>
<totfact> 0.43139606E+05</totfact>
</mgrwt>
</event>
<event>
 8    1  0.1226832E-024  0.8103329E+02  0.7818608E-02  0.1326144E+00
          2   -1    0    0  501    0  0.00000000000E+00  0.00000000000E+00  0.10078137582E+03  0.10078137585E+03  0.25500000000E-02 0. -1.
         -1   -1    0    0    0  501 -0.00000000000E+00 -0.00000000000E+00 -0.16288709802E+02  0.16288710582E+02  0.50400000000E-02 0.  1.
         24    2    1    2    0    0  0.00000000000E+00 -0.35527136788E-14  0.84492666015E+02  0.11707008643E+03  0.81033292706E+02 0.  0.
         66    2    3    3    0    0 -0.11453171722E+02  0.18903121476E+02  0.91287919587E+02  0.93946726400E+02  0.19999986696E+01 0.  0.
        -13    1    3    3    0    0  0.11453171722E+02 -0.18903121476E+02 -0.67952535724E+01  0.23123360032E+02  0.10566000000E+00 0.  1.
         13    1    4    4    0    0 -0.33723067671E+01  0.65283179835E+01  0.30102249868E+02  0.30986255013E+02  0.10566000000E+00 0. -1.
        -13    1    4    4    0    0 -0.59461978113E+01  0.98248299441E+01  0.49138009131E+02  0.50462259732E+02  0.10566000000E+00 0.  1.
        -14    1    4    4    0    0 -0.21346671434E+01  0.25499735481E+01  0.12047660589E+02  0.12498211655E+02  0.00000000000E+00 0.  1.
<mgrwt>
<rscale>  0 0.81033293E+02</rscale>
<asrwt>0</asrwt>
<pdfrwt beam="1">  1        2 0.15504827E-01 0.81033293E+02</pdfrwt>
<pdfrwt beam="2">  1       -1 0.25059555E-02 0.81033293E+02</pdfrwt>
<totfact> 0.17163886E+05</totfact>
</mgrwt>
</event>
<event>
 8    1  0.1226832E-024  0.8244959E+02  0.7818608E-02  0.1322240E+00
         -1   -1    0    0    0  501 -0.00000000000E+00  0.00000000000E+00  0.30302553205E+01  0.30302595118E+01  0.50400000000E-02 0.  1.
          2   -1    0    0  501    0  0.00000000000E+00 -0.00000000000E+00 -0.56083805525E+03  0.56083805525E+03  0.25500000000E-02 0. -1.
         24    2    1    2    0    0  0.00000000000E+00  0.00000000000E+00 -0.55780779993E+03  0.56386831477E+03  0.82449589063E+02 0.  0.
         66    2    3    3    0    0  0.47172870112E+01  0.38568584720E+02 -0.37276115935E+03  0.37478616628E+03  0.19999970968E+01 0.  0.
        -13    1    3    3    0    0 -0.47172870112E+01 -0.38568584720E+02 -0.18504664057E+03  0.18908214849E+03  0.10566000000E+00 0.  1.
         13    1    4    4    0    0  0.29490973405E+01  0.21258899154E+02 -0.20067751589E+03  0.20182198719E+03  0.10566000000E+00 0. -1.
        -13    1    4    4    0    0  0.31944290095E+00  0.98764261950E+00 -0.10758038540E+02  0.10808516964E+02  0.10566000000E+00 0. -1.
         14    1    4    4    0    0  0.14487467698E+01  0.16322042947E+02 -0.16132560493E+03  0.16215566212E+03  0.00000000000E+00 0. -1.
<mgrwt>
<rscale>  0 0.82449589E+02</rscale>
<asrwt>0</asrwt>
<pdfrwt beam="1">  1        2 0.86282695E-01 0.82449589E+02</pdfrwt>
<pdfrwt beam="2">  1       -1 0.46619390E-03 0.82449589E+02</pdfrwt>
<totfact> 0.29160221E+05</totfact>
</mgrwt>
</event>
<event>
 8    1  0.1226832E-024  0.8135020E+02  0.7818608E-02  0.1325263E+00
         -1   -1    0    0    0  501 -0.00000000000E+00  0.00000000000E+00  0.54140744987E+01  0.54140768446E+01  0.50400000000E-02 0.  1.
          2   -1    0    0  501    0  0.00000000000E+00 -0.00000000000E+00 -0.30558560529E+03  0.30558560530E+03  0.25500000000E-02 0. -1.
         24    2    1    2    0    0  0.00000000000E+00  0.00000000000E+00 -0.30017153079E+03  0.31099968214E+03  0.81350196047E+02 0.  0.
         66    2    3    3    0    0 -0.33001405460E+02 -0.19422942906E+02 -0.20233077683E+03  0.20593223822E+03  0.20000029670E+01 0.  0.
        -13    1    3    3    0    0  0.33001405460E+02  0.19422942906E+02 -0.97840753963E+02  0.10506744393E+03  0.10566000000E+00 0.  1.
         13    1    4    4    0    0 -0.21808394772E+02 -0.13592806878E+02 -0.13633783592E+03  0.13873855682E+03  0.10566000000E+00 0. -1.
        -13    1    4    4    0    0 -0.51276756046E+01 -0.30137388791E+01 -0.29734797180E+02  0.30324000503E+02  0.10566000000E+00 0.  1.
         14    1    4    4    0    0 -0.60653350836E+01 -0.28163971490E+01 -0.36258143723E+02  0.36869680889E+02  0.00000000000E+00 0. -1.
<mgrwt>
<rscale>  0 0.81350196E+02</rscale>
<asrwt>0</asrwt>
<pdfrwt beam="1">  1        2 0.47013157E-01 0.81350196E+02</pdfrwt>
<pdfrwt beam="2">  1       -1 0.83293496E-03 0.81350196E+02</pdfrwt>
<totfact> 0.24562809E+05</totfact>
</mgrwt>
</event>
<event>
 8    1  0.1226832E-024  0.8025987E+02  0.7818608E-02  0.1328316E+00
         -1   -1    0    0    0  501 -0.00000000000E+00  0.00000000000E+00  0.99758720172E+01  0.99758732904E+01  0.50400000000E-02 0.  1.
          2   -1    0    0  501    0  0.00000000000E+00 -0.00000000000E+00 -0.16143065241E+03  0.16143065243E+03  0.25500000000E-02 0. -1.
         24    2    1    2    0    0 -0.35527136788E-14 -0.35527136788E-14 -0.15145478040E+03  0.17140652572E+03  0.80259868900E+02 0.  0.
         66    2    3    3    0    0  0.17220525042E+02  0.24824812674E+02 -0.13209980370E+03  0.13552555453E+03  0.19999962882E+01 0.  0.
        -13    1    3    3    0    0 -0.17220525042E+02 -0.24824812674E+02 -0.19354976693E+02  0.35880971194E+02  0.10566000000E+00 0.  1.
         13    1    4    4    0    0  0.10112435610E+02  0.14944241278E+02 -0.81383264894E+02  0.83359694519E+02  0.10566000000E+00 0. -1.
        -13    1    4    4    0    0  0.98220492290E+00  0.15842134060E+01 -0.65188059649E+01  0.67808888701E+01  0.10566000000E+00 0.  1.
         14    1    4    4    0    0  0.61258845092E+01  0.82963579898E+01 -0.44197732844E+02  0.45384971141E+02  0.00000000000E+00 0. -1.
<mgrwt>
<rscale>  0 0.80259869E+02</rscale>
<asrwt>0</asrwt>
<pdfrwt beam="1">  1        2 0.24835483E-01 0.80259869E+02</pdfrwt>
<pdfrwt beam="2">  1       -1 0.15347498E-02 0.80259869E+02</pdfrwt>
<totfact> 0.20339235E+05</totfact>
</mgrwt>
</event>
<event>
 8    1  0.1226832E-024  0.8104140E+02  0.7818608E-02  0.1326122E+00
         -1   -1    0    0    0  501 -0.00000000000E+00  0.00000000000E+00  0.34412116164E+01  0.34412153072E+01  0.50400000000E-02 0.  1.
          2   -1    0    0  501    0  0.00000000000E+00 -0.00000000000E+00 -0.47713603299E+03  0.47713603300E+03  0.25500000000E-02 0. -1.
         24    2    1    2    0    0  0.88817841970E-15  0.00000000000E+00 -0.47369482137E+03  0.48057724830E+03  0.81041395541E+02 0.  0.
         66    2    3    3    0    0 -0.73297999328E+01 -0.38517548991E+02 -0.29705580428E+03  0.29963891330E+03  0.19999911490E+01 0.  0.
        -13    1    3    3    0    0  0.73297999328E+01  0.38517548991E+02 -0.17663901710E+03  0.18093833500E+03  0.10566000000E+00 0.  1.
         13    1    4    4    0    0 -0.50294652187E+01 -0.26206041897E+02 -0.20887312051E+03  0.21057075720E+03  0.10566000000E+00 0. -1.
        -13    1    4    4    0    0 -0.50551938830E+00 -0.24364695532E+01 -0.17875321789E+02  0.18047997862E+02  0.10566000000E+00 0.  1.
         14    1    4    4    0    0 -0.17948153258E+01 -0.98750375409E+01 -0.70307361976E+02  0.71020158241E+02  0.00000000000E+00 0. -1.
<mgrwt>
<rscale>  0 0.81041396E+02</rscale>
<asrwt>0</asrwt>
<pdfrwt beam="1">  1        2 0.73405491E-01 0.81041396E+02</pdfrwt>
<pdfrwt beam="2">  1       -1 0.52941784E-03 0.81041396E+02</pdfrwt>
<totfact> 0.28999495E+05</totfact>
</mgrwt>
</event>
<event>
 8    1  0.1226832E-024  0.8314031E+02  0.7818608E-02  0.1320369E+00
          2   -1    0    0  501    0  0.00000000000E+00  0.00000000000E+00  0.36694754168E+03  0.36694754169E+03  0.25500000000E-02 0. -1.
         -1   -1    0    0    0  501 -0.00000000000E+00 -0.00000000000E+00 -0.47093306018E+01  0.47093332987E+01  0.50400000000E-02 0.  1.
         24    2    1    2    0    0 -0.71054273576E-14  0.17763568394E-14  0.36223821108E+03  0.37165687499E+03  0.83140310082E+02 0.  0.
         66    2    3    3    0    0  0.24803213097E+02 -0.15237646051E+02  0.31373335172E+03  0.31508729144E+03  0.20000025394E+01 0.  0.
        -13    1    3    3    0    0 -0.24803213097E+02  0.15237646051E+02  0.48504859361E+02  0.56569583547E+02  0.10566000000E+00 0.  1.
         13    1    4    4    0    0  0.12349194277E+01 -0.97199755178E+00  0.19533710786E+02  0.19597112704E+02  0.10566000000E+00 0. -1.
        -13    1    4    4    0    0  0.82920936411E+01 -0.42795890142E+01  0.10193936175E+03  0.10236561111E+03  0.10566000000E+00 0.  1.
         14    1    4    4    0    0  0.15276200028E+02 -0.99860594846E+01  0.19226027918E+03  0.19312456763E+03  0.00000000000E+00 0. -1.
<mgrwt>
<rscale>  0 0.83140310E+02</rscale>
<asrwt>0</asrwt>
<pdfrwt beam="1">  1        2 0.56453474E-01 0.83140310E+02</pdfrwt>
<pdfrwt beam="2">  1       -1 0.72451253E-03 0.83140310E+02</pdfrwt>
<totfact> 0.24776929E+05</totfact>
</mgrwt>
</event>
<event>
 8    1  0.1226832E-024  0.8005448E+02  0.7818608E-02  0.1328897E+00
          2   -1    0    0  501    0  0.00000000000E+00  0.00000000000E+00  0.61379765292E+03  0.61379765292E+03  0.25500000000E-02 0. -1.
         -1   -1    0    0    0  501 -0.00000000000E+00 -0.00000000000E+00 -0.26102715835E+01  0.26102764492E+01  0.50400000000E-02 0.  1.
         24    2    1    2    0    0  0.00000000000E+00  0.00000000000E+00  0.61118738133E+03  0.61640792937E+03  0.80054483264E+02 0.  0.
         66    2    3    3    0    0 -0.21993779582E+02  0.27106714347E+02  0.45621211080E+03  0.45754998672E+03  0.20000006437E+01 0.  0.
        -13    1    3    3    0    0  0.21993779582E+02 -0.27106714347E+02  0.15497527053E+03  0.15885794265E+03  0.10566000000E+00 0.  1.
         13    1    4    4    0    0 -0.91915959595E+01  0.10498197880E+02  0.19103912801E+03  0.19154805452E+03  0.10566000000E+00 0. -1.
        -13    1    4    4    0    0 -0.41997356337E+01  0.57677572206E+01  0.93931118060E+02  0.94201756389E+02  0.10566000000E+00 0.  1.
        -14    1    4    4    0    0 -0.86024479887E+01  0.10840759246E+02  0.17124186473E+03  0.17180017581E+03  0.00000000000E+00 0.  1.
<mgrwt>
<rscale>  0 0.80054483E+02</rscale>
<asrwt>0</asrwt>
<pdfrwt beam="1">  1        2 0.94430554E-01 0.80054483E+02</pdfrwt>
<pdfrwt beam="2">  1       -1 0.40158000E-03 0.80054483E+02</pdfrwt>
<totfact> 0.32308068E+05</totfact>
</mgrwt>
</event>
<event>
 8    1  0.1226832E-024  0.8062223E+02  0.7818608E-02  0.1327295E+00
         -1   -1    0    0    0  501 -0.00000000000E+00  0.00000000000E+00  0.72983749227E+01  0.72983766630E+01  0.50400000000E-02 0.  1.
          2   -1    0    0  501    0  0.00000000000E+00 -0.00000000000E+00 -0.22265037296E+03  0.22265037297E+03  0.25500000000E-02 0. -1.
         24    2    1    2    0    0  0.00000000000E+00  0.00000000000E+00 -0.21535199803E+03  0.22994874963E+03  0.80622232673E+02 0.  0.
         66    2    3    3    0    0  0.10477931746E+02  0.21684225055E+02 -0.19985402825E+03  0.20130977442E+03  0.19999997509E+01 0.  0.
        -13    1    3    3    0    0 -0.10477931746E+02 -0.21684225055E+02 -0.15497969784E+02  0.28638975215E+02  0.10566000000E+00 0.  1.
         13    1    4    4    0    0  0.25359415623E+01  0.50734168577E+01 -0.47657132989E+02  0.47993583394E+02  0.10566000000E+00 0. -1.
        -13    1    4    4    0    0  0.22265857283E+00  0.15326461877E+01 -0.13104130493E+02  0.13195756181E+02  0.10566000000E+00 0.  1.
        -14    1    4    4    0    0  0.77193316104E+01  0.15078162010E+02 -0.13909276477E+03  0.14012043484E+03  0.00000000000E+00 0.  1.
<mgrwt>
<rscale>  0 0.80622233E+02</rscale>
<asrwt>0</asrwt>
<pdfrwt beam="1">  1        2 0.34253898E-01 0.80622233E+02</pdfrwt>
<pdfrwt beam="2">  1       -1 0.11228272E-02 0.80622233E+02</pdfrwt>
<totfact> 0.22441047E+05</totfact>
</mgrwt>
</event>
<event>
 8    1  0.1226832E-024  0.7808616E+02  0.7818608E-02  0.1334572E+00
          2   -1    0    0  501    0  0.00000000000E+00  0.00000000000E+00  0.39618180247E+03  0.39618180248E+03  0.25500000000E-02 0. -1.
         -1   -1    0    0    0  501 -0.00000000000E+00 -0.00000000000E+00 -0.38476311163E+01  0.38476344172E+01  0.50400000000E-02 0.  1.
         24    2    1    2    0    0  0.00000000000E+00 -0.22204460493E-15  0.39233417136E+03  0.40002943690E+03  0.78086159920E+02 0.  0.
         66    2    3    3    0    0 -0.12733436274E+02 -0.16497545583E+01  0.38504543877E+03  0.38526465190E+03  0.19999977295E+01 0.  0.
        -13    1    3    3    0    0  0.12733436274E+02  0.16497545583E+01  0.72887325827E+01  0.14764785002E+02  0.10566000000E+00 0.  1.
         13    1    4    4    0    0 -0.79473523444E+01 -0.34827904810E+00  0.23760263420E+03  0.23773578748E+03  0.10566000000E+00 0. -1.
        -13    1    4    4    0    0 -0.41760315589E+01 -0.14289970740E+01  0.12952571078E+03  0.12960093437E+03  0.10566000000E+00 0.  1.
        -14    1    4    4    0    0 -0.61005237093E+00  0.12752156381E+00  0.17917093792E+02  0.17927930042E+02  0.00000000000E+00 0.  1.
<mgrwt>
<rscale>  0 0.78086160E+02</rscale>
<asrwt>0</asrwt>
<pdfrwt beam="1">  1        2 0.60950978E-01 0.78086160E+02</pdfrwt>
<pdfrwt beam="2">  1       -1 0.59194417E-03 0.78086160E+02</pdfrwt>
<totfact> 0.29995489E+05</totfact>
</mgrwt>
</event>
<event>
 8    1  0.1226832E-024  0.8248835E+02  0.7818608E-02  0.1322135E+00
         -1   -1    0    0    0  501 -0.00000000000E+00  0.00000000000E+00  0.16180421580E+01  0.16180500075E+01  0.50400000000E-02 0.  1.
          2   -1    0    0  501    0  0.00000000000E+00 -0.00000000000E+00 -0.10513185128E+04  0.10513185128E+04  0.25500000000E-02 0. -1.
         24    2    1    2    0    0  0.35527136788E-14  0.00000000000E+00 -0.10497004707E+04  0.10529365628E+04  0.82488346070E+02 0.  0.
         66    2    3    3    0    0 -0.29644393646E+02 -0.51365130201E+01 -0.88481889415E+03  0.88533250775E+03  0.20000005253E+01 0.  0.
        -13    1    3    3    0    0  0.29644393646E+02  0.51365130201E+01 -0.16488157651E+03  0.16760405507E+03  0.10566000000E+00 0.  1.
         13    1    4    4    0    0 -0.69807829961E+01 -0.36189597119E+00 -0.20486289128E+03  0.20498213993E+03  0.10566000000E+00 0. -1.
        -13    1    4    4    0    0 -0.12219566698E+02 -0.25680622893E+01 -0.36672296426E+03  0.36693549356E+03  0.10566000000E+00 0.  1.
         14    1    4    4    0    0 -0.10444043953E+02 -0.22065547597E+01 -0.31323303860E+03  0.31341487427E+03  0.00000000000E+00 0. -1.
<mgrwt>
<rscale>  0 0.82488346E+02</rscale>
<asrwt>0</asrwt>
<pdfrwt beam="1">  1        2 0.16174076E+00 0.82488346E+02</pdfrwt>
<pdfrwt beam="2">  1       -1 0.24893101E-03 0.82488346E+02</pdfrwt>
<totfact> 0.32572524E+05</totfact>
</mgrwt>
</event>
<event>
 8    1  0.1226832E-024  0.8089052E+02  0.7818608E-02  0.1326543E+00
         -1   -1    0    0    0  501 -0.00000000000E+00  0.00000000000E+00  0.52329463952E+01  0.52329488222E+01  0.50400000000E-02 0.  1.
          2   -1    0    0  501    0  0.00000000000E+00 -0.00000000000E+00 -0.31259994230E+03  0.31259994231E+03  0.25500000000E-02 0. -1.
         24    2    1    2    0    0  0.00000000000E+00 -0.35527136788E-14 -0.30736699590E+03  0.31783289113E+03  0.80890521782E+02 0.  0.
         66    2    3    3    0    0  0.13261872684E+02 -0.18534105848E+02 -0.28494473039E+03  0.28586166186E+03  0.19999985290E+01 0.  0.
        -13    1    3    3    0    0 -0.13261872684E+02  0.18534105848E+02 -0.22422265510E+02  0.31971229274E+02  0.10566000000E+00 0.  1.
         13    1    4    4    0    0  0.37828477395E+01 -0.53262942044E+01 -0.88315126514E+02  0.88556490910E+02  0.10566000000E+00 0. -1.
        -13    1    4    4    0    0  0.48113009458E+00 -0.12862170553E+01 -0.16438417082E+02  0.16496016509E+02  0.10566000000E+00 0.  1.
        -14    1    4    4    0    0  0.89978948498E+01 -0.11921594588E+02 -0.18019118680E+03  0.18080915444E+03  0.00000000000E+00 0.  1.
<mgrwt>
<rscale>  0 0.80890522E+02</rscale>
<asrwt>0</asrwt>
<pdfrwt beam="1">  1        2 0.48092284E-01 0.80890522E+02</pdfrwt>
<pdfrwt beam="2">  1       -1 0.80506911E-03 0.80890522E+02</pdfrwt>
<totfact> 0.25136504E+05</totfact>
</mgrwt>
</event>
<event>
 8    1  0.1226832E-024  0.7983113E+02  0.7818608E-02  0.1329531E+00
          2   -1    0    0  501    0  0.00000000000E+00  0.00000000000E+00  0.54942470997E+02  0.54942471056E+02  0.25500000000E-02 0. -1.
         -1   -1    0    0    0  501 -0.00000000000E+00 -0.00000000000E+00 -0.28998558320E+02  0.28998558758E+02  0.50400000000E-02 0.  1.
         24    2    1    2    0    0  0.00000000000E+00  0.00000000000E+00  0.25943912677E+02  0.83941029814E+02  0.79831133534E+02 0.  0.
         66    2    3    3    0    0 -0.18903730210E+02 -0.19892872586E+02  0.43421718083E+02  0.51405476316E+02  0.19999996040E+01 0.  0.
        -13    1    3    3    0    0  0.18903730210E+02  0.19892872586E+02 -0.17477805406E+02  0.32535553498E+02  0.10566000000E+00 0.  1.
         13    1    4    4    0    0 -0.12608749665E+02 -0.13531178319E+02  0.30503258079E+02  0.35672584323E+02  0.10566000000E+00 0. -1.
        -13    1    4    4    0    0 -0.27716350604E+01 -0.23589582164E+01  0.49570798878E+01  0.61506462932E+01  0.10566000000E+00 0.  1.
         14    1    4    4    0    0 -0.35233454841E+01 -0.40027360509E+01  0.79613801163E+01  0.95822456997E+01  0.00000000000E+00 0. -1.
<mgrwt>
<rscale>  0 0.79831134E+02</rscale>
<asrwt>0</asrwt>
<pdfrwt beam="1">  1        2 0.84526878E-02 0.79831134E+02</pdfrwt>
<pdfrwt beam="2">  1       -1 0.44613167E-02 0.79831134E+02</pdfrwt>
<totfact> 0.15345636E+05</totfact>
</mgrwt>
</event>
<event>
 8    1  0.1226832E-024  0.7973703E+02  0.7818608E-02  0.1329799E+00
          2   -1    0    0  501    0  0.00000000000E+00  0.00000000000E+00  0.30211948032E+03  0.30211948033E+03  0.25500000000E-02 0. -1.
         -1   -1    0    0    0  501 -0.00000000000E+00 -0.00000000000E+00 -0.52611570355E+01  0.52611594496E+01  0.50400000000E-02 0.  1.
         24    2    1    2    0    0 -0.35527136788E-14  0.00000000000E+00  0.29685832328E+03  0.30738063978E+03  0.79737027838E+02 0.  0.
         66    2    3    3    0    0  0.18978537514E+02  0.24889486518E+02  0.24356190014E+03  0.24557294358E+03  0.19999985753E+01 0.  0.
        -13    1    3    3    0    0 -0.18978537514E+02 -0.24889486518E+02  0.53296423142E+02  0.61807696196E+02  0.10566000000E+00 0.  1.
         13    1    4    4    0    0  0.25423062798E+01  0.32345052863E+01  0.32932683106E+02  0.33188825322E+02  0.10566000000E+00 0. -1.
        -13    1    4    4    0    0  0.67771132518E+00  0.72399110918E+00  0.56593443670E+01  0.57465466557E+01  0.10566000000E+00 0.  1.
        -14    1    4    4    0    0  0.15758519909E+02  0.20930990122E+02  0.20496987267E+03  0.20663757161E+03  0.00000000000E+00 0.  1.
<mgrwt>
<rscale>  0 0.79737028E+02</rscale>
<asrwt>0</asrwt>
<pdfrwt beam="1">  1        2 0.46479922E-01 0.79737028E+02</pdfrwt>
<pdfrwt beam="2">  1       -1 0.80940893E-03 0.79737028E+02</pdfrwt>
<totfact> 0.25781084E+05</totfact>
</mgrwt>
</event>
<event>
 8    1  0.1226832E-024  0.8106636E+02  0.7818608E-02  0.1326052E+00
          2   -1    0    0  501    0  0.00000000000E+00  0.00000000000E+00  0.19692160010E+03  0.19692160012E+03  0.25500000000E-02 0. -1.
         -1   -1    0    0    0  501 -0.00000000000E+00 -0.00000000000E+00 -0.83431091383E+01  0.83431106606E+01  0.50400000000E-02 0.  1.
         24    2    1    2    0    0  0.00000000000E+00 -0.35527136788E-14  0.18857849096E+03  0.20526471078E+03  0.81066356999E+02 0.  0.
         66    2    3    3    0    0  0.30467486371E+02 -0.15644150658E+02  0.14911895662E+03  0.15301460848E+03  0.20000024323E+01 0.  0.
        -13    1    3    3    0    0 -0.30467486371E+02  0.15644150658E+02  0.39459534349E+02  0.52250102303E+02  0.10566000000E+00 0.  1.
         13    1    4    4    0    0  0.21463236007E+02 -0.10999365241E+02  0.10147067804E+03  0.10429748895E+03  0.10566000000E+00 0. -1.
        -13    1    4    4    0    0  0.66336197937E+01 -0.31318575452E+01  0.34366769263E+02  0.35141135964E+02  0.10566000000E+00 0.  1.
        -14    1    4    4    0    0  0.23706305704E+01 -0.15129278710E+01  0.13281509313E+02  0.13575983562E+02  0.00000000000E+00 0.  1.
<mgrwt>
<rscale>  0 0.81066357E+02</rscale>
<asrwt>0</asrwt>
<pdfrwt beam="1">  1        2 0.30295631E-01 0.81066357E+02</pdfrwt>
<pdfrwt beam="2">  1       -1 0.12835554E-02 0.81066357E+02</pdfrwt>
<totfact> 0.21186173E+05</totfact>
</mgrwt>
</event>
<event>
 8    1  0.1226832E-024  0.8034266E+02  0.7818608E-02  0.1328082E+00
          2   -1    0    0  501    0  0.00000000000E+00  0.00000000000E+00  0.25097496296E+03  0.25097496298E+03  0.25500000000E-02 0. -1.
         -1   -1    0    0    0  501 -0.00000000000E+00 -0.00000000000E+00 -0.64298667699E+01  0.64298687452E+01  0.50400000000E-02 0.  1.
         24    2    1    2    0    0 -0.17763568394E-14  0.00000000000E+00  0.24454509619E+03  0.25740483172E+03  0.80342661901E+02 0.  0.
         66    2    3    3    0    0  0.14565135385E+02 -0.34912404447E+02  0.79279219853E+02  0.87864747377E+02  0.19999945134E+01 0.  0.
        -13    1    3    3    0    0 -0.14565135385E+02  0.34912404447E+02  0.16526587634E+03  0.16954008434E+03  0.10566000000E+00 0.  1.
         13    1    4    4    0    0  0.17484369748E+01 -0.52021116103E+01  0.10722915771E+02  0.12046206197E+02  0.10566000000E+00 0. -1.
        -13    1    4    4    0    0  0.13815539002E+01 -0.27637627982E+01  0.72819907212E+01  0.79111079429E+01  0.10566000000E+00 0.  1.
        -14    1    4    4    0    0  0.11435144510E+02 -0.26946530038E+02  0.61274313361E+02  0.67907433238E+02  0.00000000000E+00 0.  1.
<mgrwt>
<rscale>  0 0.80342662E+02</rscale>
<asrwt>0</asrwt>
<pdfrwt beam="1">  1        2 0.38611536E-01 0.80342662E+02</pdfrwt>
<pdfrwt beam="2">  1       -1 0.98921035E-03 0.80342662E+02</pdfrwt>
<totfact> 0.23634563E+05</totfact>
</mgrwt>
</event>
<event>
 8    1  0.1226832E-024  0.7866365E+02  0.7818608E-02  0.1332887E+00
         -1   -1    0    0    0  501 -0.00000000000E+00  0.00000000000E+00  0.25816816414E+01  0.25816865609E+01  0.50400000000E-02 0.  1.
          2   -1    0    0  501    0  0.00000000000E+00 -0.00000000000E+00 -0.59921838383E+03  0.59921838384E+03  0.25500000000E-02 0. -1.
         24    2    1    2    0    0  0.00000000000E+00 -0.35527136788E-14 -0.59663670219E+03  0.60180007040E+03  0.78663653173E+02 0.  0.
         66    2    3    3    0    0 -0.71626694089E+01 -0.31027399687E+02 -0.47479710868E+03  0.47586794155E+03  0.20000058952E+01 0.  0.
        -13    1    3    3    0    0  0.71626694089E+01  0.31027399687E+02 -0.12183959351E+03  0.12593212885E+03  0.10566000000E+00 0.  1.
         13    1    4    4    0    0 -0.48538222181E+01 -0.17774525550E+02 -0.28398240319E+03  0.28457953165E+03  0.10566000000E+00 0. -1.
        -13    1    4    4    0    0 -0.17672743310E+01 -0.10415438742E+02 -0.15034464298E+03  0.15071538561E+03  0.10566000000E+00 0.  1.
         14    1    4    4    0    0 -0.54157285979E+00 -0.28374353952E+01 -0.40470062502E+02  0.40573024286E+02  0.00000000000E+00 0. -1.
<mgrwt>
<rscale>  0 0.78663653E+02</rscale>
<asrwt>0</asrwt>
<pdfrwt beam="1">  1        2 0.92187333E-01 0.78663653E+02</pdfrwt>
<pdfrwt beam="2">  1       -1 0.39718265E-03 0.78663653E+02</pdfrwt>
<totfact> 0.33591331E+05</totfact>
</mgrwt>
</event>
<event>
 8    1  0.1226832E-024  0.8730166E+02  0.7818608E-02  0.1309521E+00
         -1   -1    0    0    0  501 -0.00000000000E+00  0.00000000000E+00  0.48446253225E+01  0.48446279441E+01  0.50400000000E-02 0.  1.
          2   -1    0    0  501    0  0.00000000000E+00 -0.00000000000E+00 -0.39330065884E+03  0.39330065885E+03  0.25500000000E-02 0. -1.
         24    2    1    2    0    0 -0.71054273576E-14  0.00000000000E+00 -0.38845603352E+03  0.39814528680E+03  0.87301657595E+02 0.  0.
         66    2    3    3    0    0 -0.35795848947E+02 -0.57124874538E+01 -0.30505053825E+03  0.30720320017E+03  0.19999981127E+01 0.  0.
        -13    1    3    3    0    0  0.35795848947E+02  0.57124874538E+01 -0.83405495275E+02  0.90942086631E+02  0.10566000000E+00 0.  1.
         13    1    4    4    0    0 -0.19040573431E+02 -0.23607260238E+01 -0.15987448218E+03  0.16102166835E+03  0.10566000000E+00 0. -1.
        -13    1    4    4    0    0 -0.37471695789E+01 -0.91947981494E+00 -0.29748777394E+02  0.29998127333E+02  0.10566000000E+00 0.  1.
         14    1    4    4    0    0 -0.13008105936E+02 -0.24322816150E+01 -0.11542727868E+03  0.11618340448E+03  0.00000000000E+00 0. -1.
<mgrwt>
<rscale>  0 0.87301658E+02</rscale>
<asrwt>0</asrwt>
<pdfrwt beam="1">  1        2 0.60507769E-01 0.87301658E+02</pdfrwt>
<pdfrwt beam="2">  1       -1 0.74532748E-03 0.87301658E+02</pdfrwt>
<totfact> 0.22334176E+05</totfact>
</mgrwt>
</event>
<event>
 8    1  0.1226832E-024  0.7723330E+02  0.7818608E-02  0.1337091E+00
         -1   -1    0    0    0  501 -0.00000000000E+00  0.00000000000E+00  0.53521319941E+02  0.53521320179E+02  0.50400000000E-02 0.  1.
          2   -1    0    0  501    0  0.00000000000E+00 -0.00000000000E+00 -0.27862645612E+02  0.27862645728E+02  0.25500000000E-02 0. -1.
         24    2    1    2    0    0  0.00000000000E+00  0.00000000000E+00  0.25658674330E+02  0.81383965907E+02  0.77233298119E+02 0.  0.
         66    2    3    3    0    0  0.25860396753E+01 -0.38351938296E+02  0.16439478815E+02  0.41854691916E+02  0.19999998618E+01 0.  0.
        -13    1    3    3    0    0 -0.25860396753E+01  0.38351938296E+02  0.92191955146E+01  0.39529273991E+02  0.10566000000E+00 0.  1.
         13    1    4    4    0    0  0.12898355270E+01 -0.16217505758E+02  0.76747852138E+01  0.17988459101E+02  0.10566000000E+00 0.  1.
        -13    1    4    4    0    0  0.11136346917E+01 -0.14630594673E+02  0.53260433754E+01  0.15610009122E+02  0.10566000000E+00 0. -1.
        -14    1    4    4    0    0  0.18256945661E+00 -0.75038378643E+01  0.34386502257E+01  0.82562236933E+01  0.00000000000E+00 0.  1.
<mgrwt>
<rscale>  0 0.77233298E+02</rscale>
<asrwt>0</asrwt>
<pdfrwt beam="1">  1        2 0.42865609E-02 0.77233298E+02</pdfrwt>
<pdfrwt beam="2">  1       -1 0.82340493E-02 0.77233298E+02</pdfrwt>
<totfact> 0.14636815E+05</totfact>
</mgrwt>
</event>
<event>
 8    1  0.1226832E-024  0.7949598E+02  0.7818608E-02  0.1330488E+00
         -1   -1    0    0    0  501 -0.00000000000E+00  0.00000000000E+00  0.31677379522E+01  0.31677419616E+01  0.50400000000E-02 0.  1.
          2   -1    0    0  501    0  0.00000000000E+00 -0.00000000000E+00 -0.49874754943E+03  0.49874754944E+03  0.25500000000E-02 0. -1.
         24    2    1    2    0    0  0.00000000000E+00 -0.35527136788E-14 -0.49557981148E+03  0.50191529140E+03  0.79495975967E+02 0.  0.
         66    2    3    3    0    0  0.81533295775E+01  0.24546725409E+02 -0.43828993190E+03  0.43905703834E+03  0.19999998623E+01 0.  0.
        -13    1    3    3    0    0 -0.81533295775E+01 -0.24546725409E+02 -0.57289879584E+02  0.62858253065E+02  0.10566000000E+00 0.  1.
         13    1    4    4    0    0  0.54618742104E+01  0.17456827122E+02 -0.31210093741E+03  0.31263649687E+03  0.10566000000E+00 0. -1.
        -13    1    4    4    0    0  0.25683324316E+01  0.66681855862E+01 -0.12184208058E+03  0.12205148419E+03  0.10566000000E+00 0.  1.
        -14    1    4    4    0    0  0.12312293551E+00  0.42171270083E+00 -0.43469139157E+01  0.43690572724E+01  0.00000000000E+00 0.  1.
<mgrwt>
<rscale>  0 0.79495976E+02</rscale>
<asrwt>0</asrwt>
<pdfrwt beam="1">  1        2 0.76730330E-01 0.79495976E+02</pdfrwt>
<pdfrwt beam="2">  1       -1 0.48734501E-03 0.79495976E+02</pdfrwt>
<totfact> 0.30932184E+05</totfact>
</mgrwt>
</event>
<event>
 8    1  0.1226832E-024  0.8027831E+02  0.7818608E-02  0.1328263E+00
         -1   -1    0    0    0  501 -0.00000000000E+00  0.00000000000E+00  0.26817384348E+01  0.26817431708E+01  0.50400000000E-02 0.  1.
          2   -1    0    0  501    0  0.00000000000E+00 -0.00000000000E+00 -0.60078585093E+03  0.60078585094E+03  0.25500000000E-02 0. -1.
         24    2    1    2    0    0  0.00000000000E+00  0.00000000000E+00 -0.59810411250E+03  0.60346759411E+03  0.80278314336E+02 0.  0.
         66    2    3    3    0    0 -0.27583429135E+02  0.14214137995E+02 -0.49033651675E+03  0.49132147006E+03  0.20000005195E+01 0.  0.
        -13    1    3    3    0    0  0.27583429135E+02 -0.14214137995E+02 -0.10776759575E+03  0.11214612405E+03  0.10566000000E+00 0.  1.
         13    1    4    4    0    0 -0.18521147350E+01  0.91412663793E+00 -0.26523992857E+02  0.26604498071E+02  0.10566000000E+00 0. -1.
        -13    1    4    4    0    0 -0.74021227106E+01  0.42391513607E+01 -0.13918754884E+03  0.13944872441E+03  0.10566000000E+00 0.  1.
         14    1    4    4    0    0 -0.18329191689E+02  0.90608599960E+01 -0.32462497505E+03  0.32526824758E+03  0.00000000000E+00 0. -1.
<mgrwt>
<rscale>  0 0.80278314E+02</rscale>
<asrwt>0</asrwt>
<pdfrwt beam="1">  1        2 0.92428486E-01 0.80278314E+02</pdfrwt>
<pdfrwt beam="2">  1       -1 0.41257599E-03 0.80278314E+02</pdfrwt>
<totfact> 0.31885722E+05</totfact>
</mgrwt>
</event>
<event>
 8    1  0.1226832E-024  0.8165662E+02  0.7818608E-02  0.1324415E+00
         -1   -1    0    0    0  501 -0.00000000000E+00  0.00000000000E+00  0.97929719082E+02  0.97929719212E+02  0.50400000000E-02 0.  1.
          2   -1    0    0  501    0  0.00000000000E+00 -0.00000000000E+00 -0.17021909278E+02  0.17021909469E+02  0.25500000000E-02 0. -1.
         24    2    1    2    0    0 -0.17763568394E-14 -0.17763568394E-14  0.80907809805E+02  0.11495162868E+03  0.81656617913E+02 0.  0.
         66    2    3    3    0    0 -0.11811992596E+02 -0.11070164971E+02 -0.12248898105E+02  0.20398706388E+02  0.19999989851E+01 0.  0.
        -13    1    3    3    0    0  0.11811992596E+02  0.11070164971E+02  0.93156707910E+02  0.94552922293E+02  0.10566000000E+00 0.  1.
         13    1    4    4    0    0 -0.46283589449E+01 -0.37418833126E+01 -0.36554941977E+01  0.69854992028E+01  0.10566000000E+00 0. -1.
        -13    1    4    4    0    0 -0.38953965101E+01 -0.39744882017E+01 -0.41004304783E+01  0.69134191671E+01  0.10566000000E+00 0.  1.
        -14    1    4    4    0    0 -0.32882371410E+01 -0.33537934568E+01 -0.44929734289E+01  0.64997880180E+01  0.00000000000E+00 0.  1.
<mgrwt>
<rscale>  0 0.81656618E+02</rscale>
<asrwt>0</asrwt>
<pdfrwt beam="1">  1        2 0.26187553E-02 0.81656618E+02</pdfrwt>
<pdfrwt beam="2">  1       -1 0.15066110E-01 0.81656618E+02</pdfrwt>
<totfact> 0.11313654E+05</totfact>
</mgrwt>
</event>
<event>
 8    1  0.1226832E-024  0.8020885E+02  0.7818608E-02  0.1328460E+00
          2   -1    0    0  501    0  0.00000000000E+00  0.00000000000E+00  0.90839454084E+03  0.90839454084E+03  0.25500000000E-02 0. -1.
         -1   -1    0    0    0  501 -0.00000000000E+00 -0.00000000000E+00 -0.17705541675E+01  0.17705613408E+01  0.50400000000E-02 0.  1.
         24    2    1    2    0    0  0.00000000000E+00  0.00000000000E+00  0.90662398667E+03  0.91016510218E+03  0.80208852531E+02 0.  0.
         66    2    3    3    0    0  0.13639034468E+02  0.11699739233E+02  0.86011859861E+03  0.86030861372E+03  0.20000005150E+01 0.  0.
        -13    1    3    3    0    0 -0.13639034468E+02 -0.11699739233E+02  0.46505388057E+02  0.49856488461E+02  0.10566000000E+00 0.  1.
         13    1    4    4    0    0  0.62338554134E+01  0.48405074366E+01  0.39074172062E+03  0.39082143603E+03  0.10566000000E+00 0. -1.
        -13    1    4    4    0    0  0.10993992310E+01  0.50036712880E+00  0.50076892171E+02  0.50091569545E+02  0.10566000000E+00 0.  1.
         14    1    4    4    0    0  0.63057798239E+01  0.63588646675E+01  0.41929998583E+03  0.41939560815E+03  0.00000000000E+00 0. -1.
<mgrwt>
<rscale>  0 0.80208853E+02</rscale>
<asrwt>0</asrwt>
<pdfrwt beam="1">  1        2 0.13975269E+00 0.80208853E+02</pdfrwt>
<pdfrwt beam="2">  1       -1 0.27239411E-03 0.80208853E+02</pdfrwt>
<totfact> 0.34745322E+05</totfact>
</mgrwt>
</event>
<event>
 8    1  0.1226832E-024  0.8319549E+02  0.7818608E-02  0.1320220E+00
          2   -1    0    0  501    0  0.00000000000E+00  0.00000000000E+00  0.11553034704E+03  0.11553034707E+03  0.25500000000E-02 0. -1.
         -1   -1    0    0    0  501 -0.00000000000E+00 -0.00000000000E+00 -0.14977642393E+02  0.14977643241E+02  0.50400000000E-02 0.  1.
         24    2    1    2    0    0  0.88817841970E-15  0.00000000000E+00  0.10055270465E+03  0.13050799031E+03  0.83195487395E+02 0.  0.
         66    2    3    3    0    0 -0.70192197128E+01  0.29863598108E+02  0.94319985782E+02  0.99203647390E+02  0.20000000634E+01 0.  0.
        -13    1    3    3    0    0  0.70192197128E+01 -0.29863598108E+02  0.62327188707E+01  0.31304342924E+02  0.10566000000E+00 0.  1.
         13    1    4    4    0    0 -0.43388070035E+01  0.16179427190E+02  0.49095852403E+02  0.51874974676E+02  0.10566000000E+00 0. -1.
        -13    1    4    4    0    0 -0.14908844131E+01  0.70014950357E+01  0.22344160737E+02  0.23463084881E+02  0.10566000000E+00 0.  1.
        -14    1    4    4    0    0 -0.11895282961E+01  0.66826758821E+01  0.22879972641E+02  0.23865587832E+02  0.00000000000E+00 0.  1.
<mgrwt>
<rscale>  0 0.83195487E+02</rscale>
<asrwt>0</asrwt>
<pdfrwt beam="1">  1        2 0.17773900E-01 0.83195487E+02</pdfrwt>
<pdfrwt beam="2">  1       -1 0.23042527E-02 0.83195487E+02</pdfrwt>
<totfact> 0.16638932E+05</totfact>
</mgrwt>
</event>
<event>
 8    1  0.1226832E-024  0.7859620E+02  0.7818608E-02  0.1333083E+00
         -1   -1    0    0    0  501 -0.00000000000E+00  0.00000000000E+00  0.74858385244E+01  0.74858402210E+01  0.50400000000E-02 0.  1.
          2   -1    0    0  501    0  0.00000000000E+00 -0.00000000000E+00 -0.20630159104E+03  0.20630159106E+03  0.25500000000E-02 0. -1.
         24    2    1    2    0    0  0.35527136788E-14  0.00000000000E+00 -0.19881575252E+03  0.21378743128E+03  0.78596197895E+02 0.  0.
         66    2    3    3    0    0  0.29016360505E+02  0.26463950445E+02 -0.10005414083E+03  0.10750405084E+03  0.19999999774E+01 0.  0.
        -13    1    3    3    0    0 -0.29016360505E+02 -0.26463950445E+02 -0.98761611690E+02  0.10628338044E+03  0.10566000000E+00 0.  1.
         13    1    4    4    0    0  0.17528137956E+02  0.16447409627E+02 -0.60497703469E+02  0.65097896991E+02  0.10566000000E+00 0. -1.
        -13    1    4    4    0    0  0.82315097322E+01  0.77691714226E+01 -0.28751052960E+02  0.30899061271E+02  0.10566000000E+00 0.  1.
        -14    1    4    4    0    0  0.32567128169E+01  0.22473693954E+01 -0.10805384396E+02  0.11507092574E+02  0.00000000000E+00 0.  1.
<mgrwt>
<rscale>  0 0.78596198E+02</rscale>
<asrwt>0</asrwt>
<pdfrwt beam="1">  1        2 0.31738702E-01 0.78596198E+02</pdfrwt>
<pdfrwt beam="2">  1       -1 0.11516678E-02 0.78596198E+02</pdfrwt>
<totfact> 0.23362918E+05</totfact>
</mgrwt>
</event>
<event>
 8    1  0.1226832E-024  0.7535595E+02  0.7818608E-02  0.1342772E+00
          2   -1    0    0  501    0  0.00000000000E+00  0.00000000000E+00  0.56774269784E+01  0.56774275511E+01  0.25500000000E-02 0. -1.
         -1   -1    0    0    0  501 -0.00000000000E+00 -0.00000000000E+00 -0.25004807182E+03  0.25004807187E+03  0.50400000000E-02 0.  1.
         24    2    1    2    0    0 -0.88817841970E-15  0.00000000000E+00 -0.24437064484E+03  0.25572549942E+03  0.75355948632E+02 0.  0.
         66    2    3    3    0    0 -0.56505085228E+01 -0.37120609452E+02 -0.11281960614E+03  0.11892069380E+03  0.19999981373E+01 0.  0.
        -13    1    3    3    0    0  0.56505085228E+01  0.37120609452E+02 -0.13155103871E+03  0.13680480562E+03  0.10566000000E+00 0.  1.
         13    1    4    4    0    0 -0.16306530497E+01 -0.10239616002E+02 -0.30469522233E+02  0.32185582399E+02  0.10566000000E+00 0. -1.
        -13    1    4    4    0    0 -0.40685924206E+01 -0.25362473717E+02 -0.78513586457E+02  0.82608734040E+02  0.10566000000E+00 0.  1.
        -14    1    4    4    0    0  0.48736947499E-01 -0.15185197332E+01 -0.38364974457E+01  0.41263773605E+01  0.00000000000E+00 0.  1.
<mgrwt>
<rscale>  0 0.75355949E+02</rscale>
<asrwt>0</asrwt>
<pdfrwt beam="1">  1        2 0.87345054E-03 0.75355949E+02</pdfrwt>
<pdfrwt beam="2">  1       -1 0.38468926E-01 0.75355949E+02</pdfrwt>
<totfact> 0.10787322E+05</totfact>
</mgrwt>
</event>
<event>
 8    1  0.1226832E-024  0.7930163E+02  0.7818608E-02  0.1331045E+00
          2   -1    0    0  501    0  0.00000000000E+00  0.00000000000E+00  0.19604727590E+02  0.19604727756E+02  0.25500000000E-02 0. -1.
         -1   -1    0    0    0  501 -0.00000000000E+00 -0.00000000000E+00 -0.80194282798E+02  0.80194282956E+02  0.50400000000E-02 0.  1.
         24    2    1    2    0    0 -0.88817841970E-15  0.00000000000E+00 -0.60589555207E+02  0.99799010712E+02  0.79301628854E+02 0.  0.
         66    2    3    3    0    0  0.71195617210E+01  0.29378697884E+02  0.19281434787E+01  0.30356445512E+02  0.19999995986E+01 0.  0.
        -13    1    3    3    0    0 -0.71195617210E+01 -0.29378697884E+02 -0.62517698686E+02  0.69442565200E+02  0.10566000000E+00 0.  1.
         13    1    4    4    0    0  0.21162271191E+01  0.80106281729E+01  0.40457449045E+00  0.82959885184E+01  0.10566000000E+00 0. -1.
        -13    1    4    4    0    0  0.34293159107E+01  0.15874161811E+02  0.17916650101E+01  0.16339230348E+02  0.10566000000E+00 0.  1.
        -14    1    4    4    0    0  0.15740186912E+01  0.54939079000E+01 -0.26809602189E+00  0.57212266457E+01  0.00000000000E+00 0.  1.
<mgrwt>
<rscale>  0 0.79301629E+02</rscale>
<asrwt>0</asrwt>
<pdfrwt beam="1">  1        2 0.30161120E-02 0.79301629E+02</pdfrwt>
<pdfrwt beam="2">  1       -1 0.12337582E-01 0.79301629E+02</pdfrwt>
<totfact> 0.12681110E+05</totfact>
</mgrwt>
</event>
<event>
 8    1  0.1226832E-024  0.8193189E+02  0.7818608E-02  0.1323657E+00
         -1   -1    0    0    0  501 -0.00000000000E+00  0.00000000000E+00  0.60826476803E+02  0.60826477012E+02  0.50400000000E-02 0.  1.
          2   -1    0    0  501    0  0.00000000000E+00 -0.00000000000E+00 -0.27590103573E+02  0.27590103691E+02  0.25500000000E-02 0. -1.
         24    2    1    2    0    0  0.00000000000E+00  0.00000000000E+00  0.33236373230E+02  0.88416580703E+02  0.81931893898E+02 0.  0.
         66    2    3    3    0    0  0.11684764639E+02  0.39207412997E+02  0.18316800810E+02  0.44869367659E+02  0.20000009043E+01 0.  0.
        -13    1    3    3    0    0 -0.11684764639E+02 -0.39207412997E+02  0.14919572421E+02  0.43547213044E+02  0.10566000000E+00 0.  1.
         13    1    4    4    0    0  0.85005550846E+01  0.29467988031E+02  0.14361418205E+02  0.33865664799E+02  0.10566000000E+00 0. -1.
        -13    1    4    4    0    0  0.13522226099E+01  0.50964593818E+01  0.18981863614E+01  0.56050584042E+01  0.10566000000E+00 0.  1.
        -14    1    4    4    0    0  0.18319869450E+01  0.46429655845E+01  0.20571962435E+01  0.53986444567E+01  0.00000000000E+00 0.  1.
<mgrwt>
<rscale>  0 0.81931894E+02</rscale>
<asrwt>0</asrwt>
<pdfrwt beam="1">  1        2 0.42446314E-02 0.81931894E+02</pdfrwt>
<pdfrwt beam="2">  1       -1 0.93579195E-02 0.81931894E+02</pdfrwt>
<totfact> 0.12373255E+05</totfact>
</mgrwt>
</event>
<event>
 8    1  0.1226832E-024  0.8209515E+02  0.7818608E-02  0.1323209E+00
         -1   -1    0    0    0  501 -0.00000000000E+00  0.00000000000E+00  0.29128068298E+02  0.29128068734E+02  0.50400000000E-02 0.  1.
          2   -1    0    0  501    0  0.00000000000E+00 -0.00000000000E+00 -0.57844670653E+02  0.57844670709E+02  0.25500000000E-02 0. -1.
         24    2    1    2    0    0  0.00000000000E+00 -0.88817841970E-15 -0.28716602355E+02  0.86972739443E+02  0.82095153057E+02 0.  0.
         66    2    3    3    0    0  0.39967132350E+02  0.73926127643E+01 -0.20253571877E+02  0.45455797833E+02  0.19999977562E+01 0.  0.
        -13    1    3    3    0    0 -0.39967132350E+02 -0.73926127643E+01 -0.84630304779E+01  0.41516941610E+02  0.10566000000E+00 0.  1.
         13    1    4    4    0    0  0.30893598121E+02  0.58931062730E+01 -0.16476029751E+02  0.35505123951E+02  0.10566000000E+00 0. -1.
        -13    1    4    4    0    0  0.18261981146E+01  0.43947562548E+00 -0.76555240431E+00  0.20311014004E+01  0.10566000000E+00 0.  1.
        -14    1    4    4    0    0  0.72473361150E+01  0.10600308659E+01 -0.30119897219E+01  0.79195724812E+01  0.00000000000E+00 0.  1.
<mgrwt>
<rscale>  0 0.82095153E+02</rscale>
<asrwt>0</asrwt>
<pdfrwt beam="1">  1        2 0.88991800E-02 0.82095153E+02</pdfrwt>
<pdfrwt beam="2">  1       -1 0.44812414E-02 0.82095153E+02</pdfrwt>
<totfact> 0.14384359E+05</totfact>
</mgrwt>
</event>
<event>
 8    1  0.1226832E-024  0.8936649E+02  0.7818608E-02  0.1304393E+00
          2   -1    0    0  501    0  0.00000000000E+00  0.00000000000E+00  0.23515585111E+02  0.23515585249E+02  0.25500000000E-02 0. -1.
         -1   -1    0    0    0  501 -0.00000000000E+00 -0.00000000000E+00 -0.84905076689E+02  0.84905076839E+02  0.50400000000E-02 0.  1.
         24    2    1    2    0    0 -0.17763568394E-14  0.71054273576E-14 -0.61389491579E+02  0.10842066209E+03  0.89366494232E+02 0.  0.
         66    2    3    3    0    0  0.10049224501E+02 -0.37092972235E+02 -0.31054773418E+01  0.38607246601E+02  0.19999995846E+01 0.  0.
        -13    1    3    3    0    0 -0.10049224501E+02  0.37092972235E+02 -0.58284014237E+02  0.69813415487E+02  0.10566000000E+00 0.  1.
         13    1    4    4    0    0  0.28107599980E+01 -0.10949732373E+02 -0.13289579933E+01  0.11383070947E+02  0.10566000000E+00 0. -1.
        -13    1    4    4    0    0  0.14216035191E+01 -0.75221687992E+01 -0.36641774506E+00  0.76648161106E+01  0.10566000000E+00 0.  1.
         14    1    4    4    0    0  0.58168609834E+01 -0.18621071063E+02 -0.14101016034E+01  0.19559359543E+02  0.00000000000E+00 0. -1.
<mgrwt>
<rscale>  0 0.89366494E+02</rscale>
<asrwt>0</asrwt>
<pdfrwt beam="1">  1        2 0.36177824E-02 0.89366494E+02</pdfrwt>
<pdfrwt beam="2">  1       -1 0.13062319E-01 0.89366494E+02</pdfrwt>
<totfact> 0.93300214E+04</totfact>
</mgrwt>
</event>
<event>
 8    1  0.1226832E-024  0.7914402E+02  0.7818608E-02  0.1331498E+00
          2   -1    0    0  501    0  0.00000000000E+00  0.00000000000E+00  0.65962195662E+03  0.65962195663E+03  0.25500000000E-02 0. -1.
         -1   -1    0    0    0  501 -0.00000000000E+00 -0.00000000000E+00 -0.23739994063E+01  0.23740047563E+01  0.50400000000E-02 0.  1.
         24    2    1    2    0    0 -0.35527136788E-14 -0.88817841970E-15  0.65724795721E+03  0.66199596138E+03  0.79144018242E+02 0.  0.
         66    2    3    3    0    0  0.18038221438E+02  0.78831509862E+01  0.61572494312E+03  0.61604279647E+03  0.19999993268E+01 0.  0.
        -13    1    3    3    0    0 -0.18038221438E+02 -0.78831509862E+01  0.41523014093E+02  0.45953164913E+02  0.10566000000E+00 0.  1.
         13    1    4    4    0    0  0.20252360402E+01  0.46284961260E+00  0.75194626413E+02  0.75223392746E+02  0.10566000000E+00 0. -1.
        -13    1    4    4    0    0  0.76186381575E+01  0.30751075448E+01  0.24152905367E+03  0.24166877098E+03  0.10566000000E+00 0.  1.
         14    1    4    4    0    0  0.83943472401E+01  0.43451938288E+01  0.29900126304E+03  0.29915063275E+03  0.00000000000E+00 0. -1.
<mgrwt>
<rscale>  0 0.79144018E+02</rscale>
<asrwt>0</asrwt>
<pdfrwt beam="1">  1        2 0.10148039E+00 0.79144018E+02</pdfrwt>
<pdfrwt beam="2">  1       -1 0.36523076E-03 0.79144018E+02</pdfrwt>
<totfact> 0.33914328E+05</totfact>
</mgrwt>
</event>
<event>
 8    1  0.1226832E-024  0.8111840E+02  0.7818608E-02  0.1325907E+00
          2   -1    0    0  501    0  0.00000000000E+00  0.00000000000E+00  0.29929338045E+03  0.29929338046E+03  0.25500000000E-02 0. -1.
         -1   -1    0    0    0  501 -0.00000000000E+00 -0.00000000000E+00 -0.54964414621E+01  0.54964437729E+01  0.50400000000E-02 0.  1.
         24    2    1    2    0    0 -0.17763568394E-14  0.88817841970E-15  0.29379693899E+03  0.30478982424E+03  0.81118404803E+02 0.  0.
         66    2    3    3    0    0  0.15604911704E+02 -0.43208591315E+01  0.28661021272E+03  0.28707420143E+03  0.19999992777E+01 0.  0.
        -13    1    3    3    0    0 -0.15604911704E+02  0.43208591315E+01  0.71867262675E+01  0.17715622806E+02  0.10566000000E+00 0.  1.
         13    1    4    4    0    0  0.20552013698E+01 -0.93843594582E+00  0.38089871115E+02  0.38156964768E+02  0.10566000000E+00 0.  1.
        -13    1    4    4    0    0  0.99155640701E+00  0.10280751793E+00  0.21030935676E+02  0.21054813534E+02  0.10566000000E+00 0. -1.
         14    1    4    4    0    0  0.12558153927E+02 -0.34852307036E+01  0.22748940593E+03  0.22786242313E+03  0.00000000000E+00 0. -1.
<mgrwt>
<rscale>  0 0.81118405E+02</rscale>
<asrwt>0</asrwt>
<pdfrwt beam="1">  1        2 0.46045142E-01 0.81118405E+02</pdfrwt>
<pdfrwt beam="2">  1       -1 0.84560644E-03 0.81118405E+02</pdfrwt>
<totfact> 0.24561577E+05</totfact>
</mgrwt>
</event>
<event>
 8    1  0.1226832E-024  0.8115260E+02  0.7818608E-02  0.1325812E+00
         -1   -1    0    0    0  501 -0.00000000000E+00  0.00000000000E+00  0.96042618249E+01  0.96042631473E+01  0.50400000000E-02 0.  1.
          2   -1    0    0  501    0  0.00000000000E+00 -0.00000000000E+00 -0.17142764984E+03  0.17142764986E+03  0.25500000000E-02 0. -1.
         24    2    1    2    0    0  0.35527136788E-14  0.00000000000E+00 -0.16182338802E+03  0.18103191301E+03  0.81152600809E+02 0.  0.
         66    2    3    3    0    0  0.24862944106E+02  0.10508621745E+02 -0.14846960986E+03  0.15091660667E+03  0.19999990253E+01 0.  0.
        -13    1    3    3    0    0 -0.24862944106E+02 -0.10508621745E+02 -0.13353778152E+02  0.30115306334E+02  0.10566000000E+00 0.  1.
         13    1    4    4    0    0  0.10477105378E+02  0.37774019897E+01 -0.64578978320E+02  0.65532389761E+02  0.10566000000E+00 0. -1.
        -13    1    4    4    0    0  0.45281028715E+01  0.23658217441E+01 -0.28368752387E+02  0.28825303193E+02  0.10566000000E+00 0.  1.
        -14    1    4    4    0    0  0.98577358564E+01  0.43653980117E+01 -0.55521879156E+02  0.56558913718E+02  0.00000000000E+00 0.  1.
<mgrwt>
<rscale>  0 0.81152601E+02</rscale>
<asrwt>0</asrwt>
<pdfrwt beam="1">  1        2 0.26373482E-01 0.81152601E+02</pdfrwt>
<pdfrwt beam="2">  1       -1 0.14775790E-02 0.81152601E+02</pdfrwt>
<totfact> 0.20149664E+05</totfact>
</mgrwt>
</event>
<event>
 8    1  0.1226832E-024  0.8006623E+02  0.7818608E-02  0.1328864E+00
          2   -1    0    0  501    0  0.00000000000E+00  0.00000000000E+00  0.28763690570E+03  0.28763690571E+03  0.25500000000E-02 0. -1.
         -1   -1    0    0    0  501 -0.00000000000E+00 -0.00000000000E+00 -0.55717811851E+01  0.55717834646E+01  0.50400000000E-02 0.  1.
         24    2    1    2    0    0  0.00000000000E+00  0.00000000000E+00  0.28206512451E+03  0.29320868918E+03  0.80066228465E+02 0.  0.
         66    2    3    3    0    0 -0.13856463973E+02 -0.43500155092E+01  0.27763874527E+03  0.27802553318E+03  0.19999989799E+01 0.  0.
        -13    1    3    3    0    0  0.13856463973E+02  0.43500155092E+01  0.44263792458E+01  0.15183155997E+02  0.10566000000E+00 0.  1.
         13    1    4    4    0    0 -0.67488566733E+01 -0.15842345067E+01  0.14179430416E+03  0.14196370213E+03  0.10566000000E+00 0. -1.
        -13    1    4    4    0    0 -0.23235102154E+01 -0.54878794932E+00  0.37386217019E+02  0.37462518000E+02  0.10566000000E+00 0.  1.
         14    1    4    4    0    0 -0.47840970846E+01 -0.22169930532E+01  0.98458224087E+02  0.98599313048E+02  0.00000000000E+00 0. -1.
<mgrwt>
<rscale>  0 0.80066228E+02</rscale>
<asrwt>0</asrwt>
<pdfrwt beam="1">  1        2 0.44251842E-01 0.80066228E+02</pdfrwt>
<pdfrwt beam="2">  1       -1 0.85719709E-03 0.80066228E+02</pdfrwt>
<totfact> 0.25054352E+05</totfact>
</mgrwt>
</event>
<event>
 8    1  0.1226832E-024  0.8048191E+02  0.7818608E-02  0.1327689E+00
         -1   -1    0    0    0  501 -0.00000000000E+00  0.00000000000E+00  0.13673391439E+02  0.13673392368E+02  0.50400000000E-02 0.  1.
          2   -1    0    0  501    0  0.00000000000E+00 -0.00000000000E+00 -0.11842961994E+03  0.11842961997E+03  0.25500000000E-02 0. -1.
         24    2    1    2    0    0  0.00000000000E+00  0.35527136788E-14 -0.10475622850E+03  0.13210301233E+03  0.80481913858E+02 0.  0.
         66    2    3    3    0    0 -0.28841024145E+02 -0.26476987412E+02 -0.67498229392E+02  0.78056687781E+02  0.20000000650E+01 0.  0.
        -13    1    3    3    0    0  0.28841024145E+02  0.26476987412E+02 -0.37257999108E+02  0.54046324553E+02  0.10566000000E+00 0.  1.
         13    1    4    4    0    0 -0.12118423411E+02 -0.11822895258E+02 -0.29230123931E+02  0.33779407148E+02  0.10566000000E+00 0. -1.
        -13    1    4    4    0    0 -0.66332210544E+01 -0.50119002307E+01 -0.14525377919E+02  0.16736682264E+02  0.10566000000E+00 0.  1.
        -14    1    4    4    0    0 -0.10089379680E+02 -0.96421919225E+01 -0.23742727542E+02  0.27540598369E+02  0.00000000000E+00 0.  1.
<mgrwt>
<rscale>  0 0.80481914E+02</rscale>
<asrwt>0</asrwt>
<pdfrwt beam="1">  1        2 0.18219941E-01 0.80481914E+02</pdfrwt>
<pdfrwt beam="2">  1       -1 0.21035988E-02 0.80481914E+02</pdfrwt>
<totfact> 0.18317301E+05</totfact>
</mgrwt>
</event>
<event>
 8    1  0.1226832E-024  0.7913667E+02  0.7818608E-02  0.1331519E+00
          2   -1    0    0  501    0  0.00000000000E+00  0.00000000000E+00  0.31863494348E+02  0.31863494450E+02  0.25500000000E-02 0. -1.
         -1   -1    0    0    0  501 -0.00000000000E+00 -0.00000000000E+00 -0.49136261154E+02  0.49136261413E+02  0.50400000000E-02 0.  1.
         24    2    1    2    0    0  0.00000000000E+00  0.00000000000E+00 -0.17272766806E+02  0.80999755863E+02  0.79136666449E+02 0.  0.
         66    2    3    3    0    0  0.47591194284E+01  0.21386551363E+02  0.25051397497E+02  0.33340760438E+02  0.19999982654E+01 0.  0.
        -13    1    3    3    0    0 -0.47591194284E+01 -0.21386551363E+02 -0.42324164303E+02  0.47658995425E+02  0.10566000000E+00 0.  1.
         13    1    4    4    0    0  0.35011023741E+01  0.14137232672E+02  0.16490905757E+02  0.22001822701E+02  0.10566000000E+00 0. -1.
        -13    1    4    4    0    0  0.61299449610E+00  0.56662028422E+01  0.61699864903E+01  0.84000901321E+01  0.10566000000E+00 0.  1.
         14    1    4    4    0    0  0.64502255814E+00  0.15831158488E+01  0.23905052502E+01  0.29388476045E+01  0.00000000000E+00 0. -1.
<mgrwt>
<rscale>  0 0.79136666E+02</rscale>
<asrwt>0</asrwt>
<pdfrwt beam="1">  1        2 0.49020761E-02 0.79136666E+02</pdfrwt>
<pdfrwt beam="2">  1       -1 0.75594248E-02 0.79136666E+02</pdfrwt>
<totfact> 0.14035383E+05</totfact>
</mgrwt>
</event>
<event>
 8    1  0.1226832E-024  0.7901028E+02  0.7818608E-02  0.1331884E+00
         -1   -1    0    0    0  501 -0.00000000000E+00  0.00000000000E+00  0.86586791120E+01  0.86586805788E+01  0.50400000000E-02 0.  1.
          2   -1    0    0  501    0  0.00000000000E+00 -0.00000000000E+00 -0.18024178700E+03  0.18024178702E+03  0.25500000000E-02 0. -1.
         24    2    1    2    0    0  0.00000000000E+00  0.00000000000E+00 -0.17158310789E+03  0.18890046760E+03  0.79010276203E+02 0.  0.
         66    2    3    3    0    0 -0.70740670834E+01 -0.27207044974E+02 -0.15211972880E+03  0.15470836308E+03  0.19999992800E+01 0.  0.
        -13    1    3    3    0    0  0.70740670834E+01  0.27207044974E+02 -0.19463379088E+02  0.34192104511E+02  0.10566000000E+00 0.  1.
         13    1    4    4    0    0 -0.53775196940E+01 -0.21911362340E+02 -0.12484285136E+03  0.12686518127E+03  0.10566000000E+00 0. -1.
        -13    1    4    4    0    0 -0.15482325037E+01 -0.43443407177E+01 -0.21870891616E+02  0.22352122590E+02  0.10566000000E+00 0.  1.
         14    1    4    4    0    0 -0.14831488573E+00 -0.95134191624E+00 -0.54059858214E+01  0.54910592282E+01  0.00000000000E+00 0. -1.
<mgrwt>
<rscale>  0 0.79010276E+02</rscale>
<asrwt>0</asrwt>
<pdfrwt beam="1">  1        2 0.27729503E-01 0.79010276E+02</pdfrwt>
<pdfrwt beam="2">  1       -1 0.13321047E-02 0.79010276E+02</pdfrwt>
<totfact> 0.21995769E+05</totfact>
</mgrwt>
</event>
<event>
 8    1  0.1226832E-024  0.8030021E+02  0.7818608E-02  0.1328202E+00
         -1   -1    0    0    0  501 -0.00000000000E+00  0.00000000000E+00  0.28166807605E+02  0.28166808056E+02  0.50400000000E-02 0.  1.
          2   -1    0    0  501    0  0.00000000000E+00 -0.00000000000E+00 -0.57231578781E+02  0.57231578838E+02  0.25500000000E-02 0. -1.
         24    2    1    2    0    0  0.00000000000E+00  0.00000000000E+00 -0.29064771176E+02  0.85398386894E+02  0.80300208970E+02 0.  0.
         66    2    3    3    0    0  0.25104155014E+02  0.39811105982E+01 -0.47560234783E+02  0.53963355819E+02  0.19999995146E+01 0.  0.
        -13    1    3    3    0    0 -0.25104155014E+02 -0.39811105982E+01  0.18495463607E+02  0.31435031075E+02  0.10566000000E+00 0.  1.
         13    1    4    4    0    0  0.53034476892E+01  0.28891023385E+00 -0.10920073164E+02  0.12143689244E+02  0.10566000000E+00 0. -1.
        -13    1    4    4    0    0  0.51315551167E+01  0.89917731935E+00 -0.10208872952E+02  0.11461833568E+02  0.10566000000E+00 0.  1.
         14    1    4    4    0    0  0.14669152209E+02  0.27930230450E+01 -0.26431288668E+02  0.30357833007E+02  0.00000000000E+00 0. -1.
<mgrwt>
<rscale>  0 0.80300209E+02</rscale>
<asrwt>0</asrwt>
<pdfrwt beam="1">  1        2 0.88048583E-02 0.80300209E+02</pdfrwt>
<pdfrwt beam="2">  1       -1 0.43333551E-02 0.80300209E+02</pdfrwt>
<totfact> 0.15242183E+05</totfact>
</mgrwt>
</event>
<event>
 8    1  0.1226832E-024  0.7942645E+02  0.7818608E-02  0.1330687E+00
         -1   -1    0    0    0  501 -0.00000000000E+00  0.00000000000E+00  0.78599488413E+01  0.78599504571E+01  0.50400000000E-02 0.  1.
          2   -1    0    0  501    0  0.00000000000E+00 -0.00000000000E+00 -0.20065527666E+03  0.20065527667E+03  0.25500000000E-02 0. -1.
         24    2    1    2    0    0  0.00000000000E+00  0.00000000000E+00 -0.19279532782E+03  0.20851522713E+03  0.79426453513E+02 0.  0.
         66    2    3    3    0    0 -0.20379486194E+02 -0.23324637396E+02 -0.16160390447E+03  0.16455754041E+03  0.19999999540E+01 0.  0.
        -13    1    3    3    0    0  0.20379486194E+02  0.23324637396E+02 -0.31191423349E+02  0.43957686720E+02  0.10566000000E+00 0.  1.
         13    1    4    4    0    0 -0.13332527036E+02 -0.15334618355E+02 -0.10544911361E+03  0.10738916856E+03  0.10566000000E+00 0. -1.
        -13    1    4    4    0    0 -0.11502716344E+01 -0.15652548973E+01 -0.82448963772E+01  0.84712825495E+01  0.10566000000E+00 0.  1.
        -14    1    4    4    0    0 -0.58966875236E+01 -0.64247641439E+01 -0.47909894475E+02  0.48697089304E+02  0.00000000000E+00 0.  1.
<mgrwt>
<rscale>  0 0.79426454E+02</rscale>
<asrwt>0</asrwt>
<pdfrwt beam="1">  1        2 0.30870039E-01 0.79426454E+02</pdfrwt>
<pdfrwt beam="2">  1       -1 0.12092232E-02 0.79426454E+02</pdfrwt>
<totfact> 0.22506732E+05</totfact>
</mgrwt>
</event>
<event>
 8    1  0.1226832E-024  0.7812539E+02  0.7818608E-02  0.1334457E+00
          2   -1    0    0  501    0  0.00000000000E+00  0.00000000000E+00  0.10346840916E+04  0.10346840916E+04  0.25500000000E-02 0. -1.
         -1   -1    0    0    0  501 -0.00000000000E+00 -0.00000000000E+00 -0.14747397115E+01  0.14747483237E+01  0.50400000000E-02 0.  1.
         24    2    1    2    0    0  0.00000000000E+00  0.00000000000E+00  0.10332093519E+04  0.10361588400E+04  0.78125391064E+02 0.  0.
         66    2    3    3    0    0 -0.84226541006E+01 -0.17926126792E+02  0.96309240470E+03  0.96329811957E+03  0.20000139777E+01 0.  0.
        -13    1    3    3    0    0  0.84226541006E+01  0.17926126792E+02  0.70116947237E+02  0.72860720404E+02  0.10566000000E+00 0.  1.
         13    1    4    4    0    0 -0.91383571234E+00 -0.11515246574E+01  0.59730437716E+02  0.59748618884E+02  0.10566000000E+00 0. -1.
        -13    1    4    4    0    0 -0.37537159279E+01 -0.91838746000E+01  0.46775522455E+03  0.46786044415E+03  0.10566000000E+00 0.  1.
         14    1    4    4    0    0 -0.37551024604E+01 -0.75907275343E+01  0.43560674243E+03  0.43568905654E+03  0.00000000000E+00 0. -1.
<mgrwt>
<rscale>  0 0.78125391E+02</rscale>
<asrwt>0</asrwt>
<pdfrwt beam="1">  1        2 0.15918205E+00 0.78125391E+02</pdfrwt>
<pdfrwt beam="2">  1       -1 0.22688386E-03 0.78125391E+02</pdfrwt>
<totfact> 0.37503067E+05</totfact>
</mgrwt>
</event>
<event>
 8    1  0.1226832E-024  0.7973557E+02  0.7818608E-02  0.1329804E+00
          2   -1    0    0  501    0  0.00000000000E+00  0.00000000000E+00  0.42180164468E+02  0.42180164546E+02  0.25500000000E-02 0. -1.
         -1   -1    0    0    0  501 -0.00000000000E+00 -0.00000000000E+00 -0.37682177606E+02  0.37682177943E+02  0.50400000000E-02 0.  1.
         24    2    1    2    0    0  0.35527136788E-14  0.00000000000E+00  0.44979868621E+01  0.79862342489E+02  0.79735574633E+02 0.  0.
         66    2    3    3    0    0 -0.17044484365E+02 -0.13906145565E+02  0.35522793978E+02  0.41830183040E+02  0.19999973492E+01 0.  0.
        -13    1    3    3    0    0  0.17044484365E+02  0.13906145565E+02 -0.31024807116E+02  0.38032159449E+02  0.10566000000E+00 0.  1.
         13    1    4    4    0    0 -0.24735570064E+01 -0.22084119761E+01  0.62710439245E+01  0.70945559170E+01  0.10566000000E+00 0. -1.
        -13    1    4    4    0    0 -0.58476116849E+01 -0.40983378779E+01  0.11980952940E+02  0.13947950859E+02  0.10566000000E+00 0.  1.
         14    1    4    4    0    0 -0.87233156739E+01 -0.75993957114E+01  0.17270797114E+02  0.20787676264E+02  0.00000000000E+00 0. -1.
<mgrwt>
<rscale>  0 0.79735575E+02</rscale>
<asrwt>0</asrwt>
<pdfrwt beam="1">  1        2 0.64892561E-02 0.79735575E+02</pdfrwt>
<pdfrwt beam="2">  1       -1 0.57972581E-02 0.79735575E+02</pdfrwt>
<totfact> 0.14544625E+05</totfact>
</mgrwt>
</event>
<event>
 8    1  0.1226832E-024  0.8090213E+02  0.7818608E-02  0.1326511E+00
         -1   -1    0    0    0  501 -0.00000000000E+00  0.00000000000E+00  0.74893218894E+01  0.74893235852E+01  0.50400000000E-02 0.  1.
          2   -1    0    0  501    0  0.00000000000E+00 -0.00000000000E+00 -0.21848284569E+03  0.21848284571E+03  0.25500000000E-02 0. -1.
         24    2    1    2    0    0  0.44408920985E-15 -0.17763568394E-14 -0.21099352381E+03  0.22597216929E+03  0.80902127339E+02 0.  0.
         66    2    3    3    0    0  0.39604895758E+01 -0.13726651286E+02 -0.21119169975E+03  0.21168382191E+03  0.19999951780E+01 0.  0.
        -13    1    3    3    0    0 -0.39604895758E+01  0.13726651286E+02  0.19817594911E+00  0.14288347383E+02  0.10566000000E+00 0.  1.
         13    1    4    4    0    0  0.17109330228E+01 -0.44265519795E+01 -0.60845973981E+02  0.61030855868E+02  0.10566000000E+00 0. -1.
        -13    1    4    4    0    0  0.21446913552E+01 -0.71883099681E+01 -0.11714037934E+03  0.11738036947E+03  0.10566000000E+00 0.  1.
        -14    1    4    4    0    0  0.10486519780E+00 -0.21117893382E+01 -0.33205346430E+02  0.33272596569E+02  0.00000000000E+00 0.  1.
<mgrwt>
<rscale>  0 0.80902127E+02</rscale>
<asrwt>0</asrwt>
<pdfrwt beam="1">  1        2 0.33612741E-01 0.80902127E+02</pdfrwt>
<pdfrwt beam="2">  1       -1 0.11522037E-02 0.80902127E+02</pdfrwt>
<totfact> 0.22088903E+05</totfact>
</mgrwt>
</event>
<event>
 8    1  0.1226832E-024  0.7518524E+02  0.7818608E-02  0.1343298E+00
         -1   -1    0    0    0  501 -0.00000000000E+00  0.00000000000E+00  0.76395949725E+01  0.76395966350E+01  0.50400000000E-02 0.  1.
          2   -1    0    0  501    0  0.00000000000E+00 -0.00000000000E+00 -0.18498429664E+03  0.18498429666E+03  0.25500000000E-02 0. -1.
         24    2    1    2    0    0  0.00000000000E+00 -0.44408920985E-15 -0.17734470167E+03  0.19262389329E+03  0.75185244947E+02 0.  0.
         66    2    3    3    0    0  0.11214444515E+02  0.31332652749E+01 -0.18023849858E+03  0.18062529581E+03  0.19999992057E+01 0.  0.
        -13    1    3    3    0    0 -0.11214444515E+02 -0.31332652749E+01  0.28937969137E+01  0.11998597487E+02  0.10566000000E+00 0.  1.
         13    1    4    4    0    0  0.37933262848E+01  0.92027118461E+00 -0.57471957303E+02  0.57604455242E+02  0.10566000000E+00 0. -1.
        -13    1    4    4    0    0  0.54498921535E+00  0.64813076882E+00 -0.13728882380E+02  0.13755379390E+02  0.10566000000E+00 0.  1.
        -14    1    4    4    0    0  0.68761290144E+01  0.15648633215E+01 -0.10903765890E+03  0.10926546118E+03  0.00000000000E+00 0.  1.
<mgrwt>
<rscale>  0 0.75185245E+02</rscale>
<asrwt>0</asrwt>
<pdfrwt beam="1">  1        2 0.28459119E-01 0.75185245E+02</pdfrwt>
<pdfrwt beam="2">  1       -1 0.11753226E-02 0.75185245E+02</pdfrwt>
<totfact> 0.25286701E+05</totfact>
</mgrwt>
</event>
<event>
 8    1  0.1226832E-024  0.7945705E+02  0.7818608E-02  0.1330599E+00
         -1   -1    0    0    0  501 -0.00000000000E+00  0.00000000000E+00  0.14552967088E+01  0.14553054361E+01  0.50400000000E-02 0.  1.
          2   -1    0    0  501    0  0.00000000000E+00 -0.00000000000E+00 -0.10845562467E+04  0.10845562467E+04  0.25500000000E-02 0. -1.
         24    2    1    2    0    0  0.35527136788E-14  0.00000000000E+00 -0.10831009500E+04  0.10860115521E+04  0.79457054486E+02 0.  0.
         66    2    3    3    0    0 -0.18761723156E+02  0.22382005575E+01 -0.10191627397E+04  0.10193398363E+04  0.20000043042E+01 0.  0.
        -13    1    3    3    0    0  0.18761723156E+02 -0.22382005575E+01 -0.63938210270E+02  0.66671715847E+02  0.10566000000E+00 0.  1.
         13    1    4    4    0    0 -0.67738269176E+01  0.73986981172E+00 -0.34413002432E+03  0.34419749700E+03  0.10566000000E+00 0. -1.
        -13    1    4    4    0    0 -0.60459566707E+01  0.79868356346E+00 -0.38022992819E+03  0.38027884630E+03  0.10566000000E+00 0.  1.
        -14    1    4    4    0    0 -0.59419395673E+01  0.69964718235E+00 -0.29480278718E+03  0.29486349297E+03  0.00000000000E+00 0.  1.
<mgrwt>
<rscale>  0 0.79457054E+02</rscale>
<asrwt>0</asrwt>
<pdfrwt beam="1">  1        2 0.16685416E+00 0.79457054E+02</pdfrwt>
<pdfrwt beam="2">  1       -1 0.22389334E-03 0.79457054E+02</pdfrwt>
<totfact> 0.35893525E+05</totfact>
</mgrwt>
</event>
<event>
 8    1  0.1226832E-024  0.7999401E+02  0.7818608E-02  0.1329068E+00
         -1   -1    0    0    0  501 -0.00000000000E+00  0.00000000000E+00  0.78074347269E+01  0.78074363536E+01  0.50400000000E-02 0.  1.
          2   -1    0    0  501    0  0.00000000000E+00 -0.00000000000E+00 -0.20490213448E+03  0.20490213450E+03  0.25500000000E-02 0. -1.
         24    2    1    2    0    0  0.00000000000E+00  0.00000000000E+00 -0.19709469975E+03  0.21270957085E+03  0.79994005151E+02 0.  0.
         66    2    3    3    0    0  0.20652180895E+02 -0.34188053289E+02 -0.10274505820E+03  0.11025371895E+03  0.19999985133E+01 0.  0.
        -13    1    3    3    0    0 -0.20652180895E+02  0.34188053289E+02 -0.94349641549E+02  0.10245585190E+03  0.10566000000E+00 0.  1.
         13    1    4    4    0    0  0.12155400222E+02 -0.20575649607E+02 -0.61630257972E+02  0.66101520202E+02  0.10566000000E+00 0. -1.
        -13    1    4    4    0    0  0.14835218582E+01 -0.33044665934E+01 -0.95441847245E+01  0.10208964818E+02  0.10566000000E+00 0.  1.
        -14    1    4    4    0    0  0.70132588149E+01 -0.10307937089E+02 -0.31570615508E+02  0.33943233932E+02  0.00000000000E+00 0.  1.
<mgrwt>
<rscale>  0 0.79994005E+02</rscale>
<asrwt>0</asrwt>
<pdfrwt beam="1">  1        2 0.31523401E-01 0.79994005E+02</pdfrwt>
<pdfrwt beam="2">  1       -1 0.12011441E-02 0.79994005E+02</pdfrwt>
<totfact> 0.22249655E+05</totfact>
</mgrwt>
</event>
<event>
 8    1  0.1226832E-024  0.8112467E+02  0.7818608E-02  0.1325890E+00
          2   -1    0    0  501    0  0.00000000000E+00  0.00000000000E+00  0.58250194922E+01  0.58250200503E+01  0.25500000000E-02 0. -1.
         -1   -1    0    0    0  501 -0.00000000000E+00 -0.00000000000E+00 -0.28245450048E+03  0.28245450053E+03  0.50400000000E-02 0.  1.
         24    2    1    2    0    0  0.00000000000E+00  0.00000000000E+00 -0.27662948099E+03  0.28827952058E+03  0.81124670918E+02 0.  0.
         66    2    3    3    0    0 -0.14403211404E+02  0.34442013587E+02 -0.82257941168E+02  0.90355263712E+02  0.19999991717E+01 0.  0.
        -13    1    3    3    0    0  0.14403211404E+02 -0.34442013587E+02 -0.19437153982E+03  0.19792425687E+03  0.10566000000E+00 0.  1.
         13    1    4    4    0    0 -0.45574386394E+01  0.93488507367E+01 -0.23855959482E+02  0.26024780957E+02  0.10566000000E+00 0. -1.
        -13    1    4    4    0    0 -0.77300737753E+01  0.20570100930E+02 -0.48113403836E+02  0.52894176292E+02  0.10566000000E+00 0.  1.
        -14    1    4    4    0    0 -0.21156989892E+01  0.45230619202E+01 -0.10288577850E+02  0.11436306463E+02  0.00000000000E+00 0.  1.
<mgrwt>
<rscale>  0 0.81124671E+02</rscale>
<asrwt>0</asrwt>
<pdfrwt beam="1">  1        2 0.89615711E-03 0.81124671E+02</pdfrwt>
<pdfrwt beam="2">  1       -1 0.43454528E-01 0.81124671E+02</pdfrwt>
<totfact> 0.85410427E+04</totfact>
</mgrwt>
</event>
<event>
 8    1  0.1226832E-024  0.7147929E+02  0.7818608E-02  0.1355134E+00
          2   -1    0    0  501    0  0.00000000000E+00  0.00000000000E+00  0.21817985525E+03  0.21817985526E+03  0.25500000000E-02 0. -1.
         -1   -1    0    0    0  501 -0.00000000000E+00 -0.00000000000E+00 -0.58544446473E+01  0.58544468167E+01  0.50400000000E-02 0.  1.
         24    2    1    2    0    0  0.44408920985E-15  0.17763568394E-14  0.21232541060E+03  0.22403430208E+03  0.71479287360E+02 0.  0.
         66    2    3    3    0    0  0.29480744161E+01 -0.15253519253E+02  0.20702815098E+03  0.20761988415E+03  0.20000010814E+01 0.  0.
        -13    1    3    3    0    0 -0.29480744161E+01  0.15253519253E+02  0.52972596186E+01  0.16414417926E+02  0.10566000000E+00 0.  1.
         13    1    4    4    0    0  0.10539886274E+01 -0.97127672060E+01  0.13171583273E+03  0.13207770628E+03  0.10566000000E+00 0. -1.
        -13    1    4    4    0    0  0.32039413778E+00 -0.72686372267E+00  0.82153510956E+01  0.82543407328E+01  0.10566000000E+00 0.  1.
         14    1    4    4    0    0  0.15736916509E+01 -0.48138883242E+01  0.67096967154E+02  0.67287837144E+02  0.00000000000E+00 0. -1.
<mgrwt>
<rscale>  0 0.71479287E+02</rscale>
<asrwt>0</asrwt>
<pdfrwt beam="1">  1        2 0.33566132E-01 0.71479287E+02</pdfrwt>
<pdfrwt beam="2">  1       -1 0.90068396E-03 0.71479287E+02</pdfrwt>
<totfact> 0.30536806E+05</totfact>
</mgrwt>
</event>
<event>
 8    1  0.1226832E-024  0.7960794E+02  0.7818608E-02  0.1330168E+00
          2   -1    0    0  501    0  0.00000000000E+00  0.00000000000E+00  0.40924121707E+03  0.40924121708E+03  0.25500000000E-02 0. -1.
         -1   -1    0    0    0  501 -0.00000000000E+00 -0.00000000000E+00 -0.38714463938E+01  0.38714496745E+01  0.50400000000E-02 0.  1.
         24    2    1    2    0    0 -0.35527136788E-14 -0.35527136788E-14  0.40536977068E+03  0.41311266675E+03  0.79607942149E+02 0.  0.
         66    2    3    3    0    0 -0.27246335857E+02 -0.21282249243E+02  0.30490593792E+03  0.30686630302E+03  0.19999998093E+01 0.  0.
        -13    1    3    3    0    0  0.27246335857E+02  0.21282249243E+02  0.10046383275E+03  0.10624636373E+03  0.10566000000E+00 0.  1.
         13    1    4    4    0    0 -0.75317717859E+01 -0.63119384905E+01  0.87258109109E+02  0.87809776922E+02  0.10566000000E+00 0. -1.
        -13    1    4    4    0    0 -0.18376232880E+02 -0.14398465907E+02  0.20551637076E+03  0.20683808056E+03  0.10566000000E+00 0.  1.
        -14    1    4    4    0    0 -0.13383311906E+01 -0.57184484462E+00  0.12131458057E+02  0.12218445543E+02  0.00000000000E+00 0.  1.
<mgrwt>
<rscale>  0 0.79607942E+02</rscale>
<asrwt>0</asrwt>
<pdfrwt beam="1">  1        2 0.62960124E-01 0.79607942E+02</pdfrwt>
<pdfrwt beam="2">  1       -1 0.59560800E-03 0.79607942E+02</pdfrwt>
<totfact> 0.28846986E+05</totfact>
</mgrwt>
</event>
<event>
 8    1  0.1226832E-024  0.7817929E+02  0.7818608E-02  0.1334299E+00
         -1   -1    0    0    0  501 -0.00000000000E+00  0.00000000000E+00  0.99260070066E+01  0.99260082861E+01  0.50400000000E-02 0.  1.
          2   -1    0    0  501    0  0.00000000000E+00 -0.00000000000E+00 -0.15393904616E+03  0.15393904618E+03  0.25500000000E-02 0. -1.
         24    2    1    2    0    0 -0.44408920985E-15  0.00000000000E+00 -0.14401303915E+03  0.16386505447E+03  0.78179285168E+02 0.  0.
         66    2    3    3    0    0  0.30955377925E+01  0.38777306316E+02 -0.79532910806E+02  0.88559278095E+02  0.19999989998E+01 0.  0.
        -13    1    3    3    0    0 -0.30955377925E+01 -0.38777306316E+02 -0.64480128348E+02  0.75305776373E+02  0.10566000000E+00 0.  1.
         13    1    4    4    0    0  0.17985534878E+01  0.29015155544E+02 -0.59101790691E+02  0.65864610170E+02  0.10566000000E+00 0. -1.
        -13    1    4    4    0    0  0.44445285792E+00  0.44393915008E+01 -0.10089021465E+02  0.11032010397E+02  0.10566000000E+00 0.  1.
         14    1    4    4    0    0  0.85253144677E+00  0.53227592714E+01 -0.10342098650E+02  0.11662657528E+02  0.00000000000E+00 0. -1.
<mgrwt>
<rscale>  0 0.78179285E+02</rscale>
<asrwt>0</asrwt>
<pdfrwt beam="1">  1        2 0.23682928E-01 0.78179285E+02</pdfrwt>
<pdfrwt beam="2">  1       -1 0.15270782E-02 0.78179285E+02</pdfrwt>
<totfact> 0.21468685E+05</totfact>
</mgrwt>
</event>
<event>
 8    1  0.1226832E-024  0.7565107E+02  0.7818608E-02  0.1341867E+00
          2   -1    0    0  501    0  0.00000000000E+00  0.00000000000E+00  0.24337281680E+04  0.24337281680E+04  0.25500000000E-02 0. -1.
         -1   -1    0    0    0  501 -0.00000000000E+00 -0.00000000000E+00 -0.58788184765E+00  0.58790345160E+00  0.50400000000E-02 0.  1.
         24    2    1    2    0    0  0.00000000000E+00  0.17763568394E-14  0.24331402862E+04  0.24343160715E+04  0.75651065006E+02 0.  0.
         66    2    3    3    0    0  0.67796120621E+01  0.89206005548E+01  0.23790585711E+04  0.23790857960E+04  0.19999984510E+01 0.  0.
        -13    1    3    3    0    0 -0.67796120621E+01 -0.89206005548E+01  0.54081715073E+02  0.55230275423E+02  0.10566000000E+00 0.  1.
         13    1    4    4    0    0  0.40327499318E+01  0.61881207213E+01  0.16111119180E+04  0.16111288525E+04  0.10566000000E+00 0. -1.
        -13    1    4    4    0    0  0.17436828820E+01  0.11937108325E+01  0.36971180455E+03  0.36971785859E+03  0.10566000000E+00 0.  1.
        -14    1    4    4    0    0  0.10031792483E+01  0.15387690009E+01  0.39823484855E+03  0.39823908494E+03  0.00000000000E+00 0.  1.
<mgrwt>
<rscale>  0 0.75651065E+02</rscale>
<asrwt>0</asrwt>
<pdfrwt beam="1">  1        2 0.37441997E+00 0.75651065E+02</pdfrwt>
<pdfrwt beam="2">  1       -1 0.90444962E-04 0.75651065E+02</pdfrwt>
<totfact> 0.25340053E+05</totfact>
</mgrwt>
</event>
<event>
 8    1  0.1226832E-024  0.8031908E+02  0.7818608E-02  0.1328148E+00
          2   -1    0    0  501    0  0.00000000000E+00  0.00000000000E+00  0.63950015682E+03  0.63950015683E+03  0.25500000000E-02 0. -1.
         -1   -1    0    0    0  501 -0.00000000000E+00 -0.00000000000E+00 -0.25219496762E+01  0.25219547123E+01  0.50400000000E-02 0.  1.
         24    2    1    2    0    0  0.00000000000E+00 -0.35527136788E-14  0.63697820715E+03  0.64202211154E+03  0.80319084449E+02 0.  0.
         66    2    3    3    0    0  0.92259273086E+01  0.22349884020E+02  0.57474288666E+03  0.57525474428E+03  0.20000006103E+01 0.  0.
        -13    1    3    3    0    0 -0.92259273086E+01 -0.22349884020E+02  0.62235320484E+02  0.66767367255E+02  0.10566000000E+00 0.  1.
         13    1    4    4    0    0  0.73246001210E+01  0.16894902627E+02  0.44668338439E+03  0.44706279710E+03  0.10566000000E+00 0. -1.
        -13    1    4    4    0    0  0.79018720315E+00  0.30524987599E+01  0.75362095508E+02  0.75428103171E+02  0.10566000000E+00 0.  1.
         14    1    4    4    0    0  0.11111399845E+01  0.24024826333E+01  0.52697406765E+02  0.52763844009E+02  0.00000000000E+00 0. -1.
<mgrwt>
<rscale>  0 0.80319084E+02</rscale>
<asrwt>0</asrwt>
<pdfrwt beam="1">  1        2 0.98384739E-01 0.80319084E+02</pdfrwt>
<pdfrwt beam="2">  1       -1 0.38799225E-03 0.80319084E+02</pdfrwt>
<totfact> 0.32383049E+05</totfact>
</mgrwt>
</event>
<event>
 8    1  0.1226832E-024  0.7728147E+02  0.7818608E-02  0.1336948E+00
         -1   -1    0    0    0  501 -0.00000000000E+00  0.00000000000E+00  0.22173490633E+01  0.22173547912E+01  0.50400000000E-02 0.  1.
          2   -1    0    0  501    0  0.00000000000E+00 -0.00000000000E+00 -0.67337369474E+03  0.67337369474E+03  0.25500000000E-02 0. -1.
         24    2    1    2    0    0 -0.17763568394E-14  0.35527136788E-14 -0.67115634568E+03  0.67559104953E+03  0.77281471719E+02 0.  0.
         66    2    3    3    0    0  0.11617947372E+02 -0.14750273021E+02 -0.63077741033E+03  0.63105997231E+03  0.20000027677E+01 0.  0.
        -13    1    3    3    0    0 -0.11617947372E+02  0.14750273021E+02 -0.40378935346E+02  0.44531077228E+02  0.10566000000E+00 0.  1.
         13    1    4    4    0    0  0.62241220106E+01 -0.85498428276E+01 -0.37125595351E+03  0.37140656118E+03  0.10566000000E+00 0. -1.
        -13    1    4    4    0    0  0.45294070813E+01 -0.46741083203E+01 -0.19817601085E+03  0.19828289200E+03  0.10566000000E+00 0.  1.
        -14    1    4    4    0    0  0.86441828058E+00 -0.15263218731E+01 -0.61345445963E+02  0.61370519127E+02  0.00000000000E+00 0.  1.
<mgrwt>
<rscale>  0 0.77281472E+02</rscale>
<asrwt>0</asrwt>
<pdfrwt beam="1">  1        2 0.10359579E+00 0.77281472E+02</pdfrwt>
<pdfrwt beam="2">  1       -1 0.34113160E-03 0.77281472E+02</pdfrwt>
<totfact> 0.36259218E+05</totfact>
</mgrwt>
</event>
<event>
 8    1  0.1226832E-024  0.8091625E+02  0.7818608E-02  0.1326471E+00
          2   -1    0    0  501    0  0.00000000000E+00  0.00000000000E+00  0.27929865875E+03  0.27929865876E+03  0.25500000000E-02 0. -1.
         -1   -1    0    0    0  501 -0.00000000000E+00 -0.00000000000E+00 -0.58606062745E+01  0.58606084416E+01  0.50400000000E-02 0.  1.
         24    2    1    2    0    0  0.00000000000E+00  0.00000000000E+00  0.27343805248E+03  0.28515926720E+03  0.80916247629E+02 0.  0.
         66    2    3    3    0    0 -0.32669473250E+02  0.12960994714E+02  0.20724725612E+03  0.21021585820E+03  0.20000011104E+01 0.  0.
        -13    1    3    3    0    0  0.32669473250E+02 -0.12960994714E+02  0.66190796358E+02  0.74943409003E+02  0.10566000000E+00 0.  1.
         13    1    4    4    0    0 -0.18923616339E+02  0.76132132604E+01  0.11717541819E+03  0.11893760576E+03  0.10566000000E+00 0. -1.
        -13    1    4    4    0    0 -0.11982432588E+02  0.43927855046E+01  0.75983317261E+02  0.77047718468E+02  0.10566000000E+00 0. -1.
         14    1    4    4    0    0 -0.17634243229E+01  0.95499594880E+00  0.14088520665E+02  0.14230533973E+02  0.00000000000E+00 0. -1.
<mgrwt>
<rscale>  0 0.80916248E+02</rscale>
<asrwt>0</asrwt>
<pdfrwt beam="1">  1        2 0.42969032E-01 0.80916248E+02</pdfrwt>
<pdfrwt beam="2">  1       -1 0.90163174E-03 0.80916248E+02</pdfrwt>
<totfact> 0.24110706E+05</totfact>
</mgrwt>
</event>
<event>
 8    1  0.1226832E-024  0.8152385E+02  0.7818608E-02  0.1324782E+00
          2   -1    0    0  501    0  0.00000000000E+00  0.00000000000E+00  0.60034779775E+02  0.60034779829E+02  0.25500000000E-02 0. -1.
         -1   -1    0    0    0  501 -0.00000000000E+00 -0.00000000000E+00 -0.27676201623E+02  0.27676202081E+02  0.50400000000E-02 0.  1.
         24    2    1    2    0    0  0.00000000000E+00  0.00000000000E+00  0.32358578153E+02  0.87710981911E+02  0.81523853980E+02 0.  0.
         66    2    3    3    0    0 -0.36939661101E+02 -0.13978431099E+02  0.26926104706E+02  0.47842974310E+02  0.19999944929E+01 0.  0.
        -13    1    3    3    0    0  0.36939661101E+02  0.13978431099E+02  0.54324734463E+01  0.39868007600E+02  0.10566000000E+00 0.  1.
         13    1    4    4    0    0 -0.67181829145E+01 -0.24509933204E+01  0.43769732202E+01  0.83851302039E+01  0.10566000000E+00 0. -1.
        -13    1    4    4    0    0 -0.14020333846E+01 -0.83888413897E+00  0.99197734077E+00  0.19143164029E+01  0.10566000000E+00 0. -1.
         14    1    4    4    0    0 -0.28819444802E+02 -0.10688553640E+02  0.21557154145E+02  0.37543527704E+02  0.00000000000E+00 0. -1.
<mgrwt>
<rscale>  0 0.81523854E+02</rscale>
<asrwt>0</asrwt>
<pdfrwt beam="1">  1        2 0.92361198E-02 0.81523854E+02</pdfrwt>
<pdfrwt beam="2">  1       -1 0.42578773E-02 0.81523854E+02</pdfrwt>
<totfact> 0.14788243E+05</totfact>
</mgrwt>
</event>
<event>
 8    1  0.1226832E-024  0.7955332E+02  0.7818608E-02  0.1330324E+00
          2   -1    0    0  501    0  0.00000000000E+00  0.00000000000E+00  0.72170806345E+01  0.72170810850E+01  0.25500000000E-02 0. -1.
         -1   -1    0    0    0  501 -0.00000000000E+00 -0.00000000000E+00 -0.21922750789E+03  0.21922750795E+03  0.50400000000E-02 0.  1.
         24    2    1    2    0    0 -0.22204460493E-15  0.00000000000E+00 -0.21201042726E+03  0.22644458903E+03  0.79553319461E+02 0.  0.
         66    2    3    3    0    0 -0.15160100113E+01  0.36673002942E+02 -0.62625616050E+02  0.72616631840E+02  0.20000007544E+01 0.  0.
        -13    1    3    3    0    0  0.15160100113E+01 -0.36673002942E+02 -0.14938481121E+03  0.15382795719E+03  0.10566000000E+00 0.  1.
         13    1    4    4    0    0 -0.15773712206E+01  0.17651538712E+02 -0.29954877247E+02  0.34804751885E+02  0.10566000000E+00 0. -1.
        -13    1    4    4    0    0 -0.32232230652E+00  0.10552835000E+02 -0.18038698687E+02  0.20901483980E+02  0.10566000000E+00 0.  1.
        -14    1    4    4    0    0  0.38368351580E+00  0.84686292297E+01 -0.14632040116E+02  0.16910395975E+02  0.00000000000E+00 0.  1.
<mgrwt>
<rscale>  0 0.79553319E+02</rscale>
<asrwt>0</asrwt>
<pdfrwt beam="1">  1        2 0.11103203E-02 0.79553319E+02</pdfrwt>
<pdfrwt beam="2">  1       -1 0.33727304E-01 0.79553319E+02</pdfrwt>
<totfact> 0.98184889E+04</totfact>
</mgrwt>
</event>
<event>
 8    1  0.1226832E-024  0.7977275E+02  0.7818608E-02  0.1329698E+00
         -1   -1    0    0    0  501 -0.00000000000E+00  0.00000000000E+00  0.26244535897E+01  0.26244584291E+01  0.50400000000E-02 0.  1.
          2   -1    0    0  501    0  0.00000000000E+00 -0.00000000000E+00 -0.60619152855E+03  0.60619152856E+03  0.25500000000E-02 0. -1.
         24    2    1    2    0    0  0.17763568394E-14 -0.71054273576E-14 -0.60356707496E+03  0.60881598698E+03  0.79772752439E+02 0.  0.
         66    2    3    3    0    0  0.10773486479E+02 -0.36989038483E+02 -0.38004987074E+03  0.38200282880E+03  0.19999958571E+01 0.  0.
        -13    1    3    3    0    0 -0.10773486479E+02  0.36989038483E+02 -0.22351720422E+03  0.22681315818E+03  0.10566000000E+00 0.  1.
         13    1    4    4    0    0  0.50159277593E+01 -0.19681142278E+02 -0.19743098355E+03  0.19847294859E+03  0.10566000000E+00 0. -1.
        -13    1    4    4    0    0  0.21893948681E+01 -0.56750461442E+01 -0.64069285634E+02  0.64357471395E+02  0.10566000000E+00 0.  1.
         14    1    4    4    0    0  0.35681638515E+01 -0.11632850060E+02 -0.11854960156E+03  0.11917240882E+03  0.00000000000E+00 0. -1.
<mgrwt>
<rscale>  0 0.79772752E+02</rscale>
<asrwt>0</asrwt>
<pdfrwt beam="1">  1        2 0.93260124E-01 0.79772752E+02</pdfrwt>
<pdfrwt beam="2">  1       -1 0.40376295E-03 0.79772752E+02</pdfrwt>
<totfact> 0.32494662E+05</totfact>
</mgrwt>
</event>
<event>
 8    1  0.1226832E-024  0.8026151E+02  0.7818608E-02  0.1328311E+00
         -1   -1    0    0    0  501 -0.00000000000E+00  0.00000000000E+00  0.10412048259E+02  0.10412049479E+02  0.50400000000E-02 0.  1.
          2   -1    0    0  501    0  0.00000000000E+00 -0.00000000000E+00 -0.15467441311E+03  0.15467441313E+03  0.25500000000E-02 0. -1.
         24    2    1    2    0    0  0.00000000000E+00  0.00000000000E+00 -0.14426236485E+03  0.16508646261E+03  0.80261511479E+02 0.  0.
         66    2    3    3    0    0  0.33585095029E+02  0.50969717686E+01 -0.11602767658E+03  0.12091467846E+03  0.20000012403E+01 0.  0.
        -13    1    3    3    0    0 -0.33585095029E+02 -0.50969717686E+01 -0.28234688270E+02  0.44171784151E+02  0.10566000000E+00 0.  1.
         13    1    4    4    0    0  0.18872331826E+02  0.33134756956E+01 -0.62990886096E+02  0.65840769474E+02  0.10566000000E+00 0. -1.
        -13    1    4    4    0    0  0.15829935840E+01  0.22223453294E+00 -0.49807309860E+01  0.52320265734E+01  0.10566000000E+00 0. -1.
         14    1    4    4    0    0  0.13129769619E+02  0.15612615400E+01 -0.48056059502E+02  0.49841882415E+02  0.00000000000E+00 0. -1.
<mgrwt>
<rscale>  0 0.80261511E+02</rscale>
<asrwt>0</asrwt>
<pdfrwt beam="1">  1        2 0.23796062E-01 0.80261511E+02</pdfrwt>
<pdfrwt beam="2">  1       -1 0.16018538E-02 0.80261511E+02</pdfrwt>
<totfact> 0.20055588E+05</totfact>
</mgrwt>
</event>
<event>
 8    1  0.1226832E-024  0.8042704E+02  0.7818608E-02  0.1327844E+00
          2   -1    0    0  501    0  0.00000000000E+00  0.00000000000E+00  0.97120649214E+03  0.97120649215E+03  0.25500000000E-02 0. -1.
         -1   -1    0    0    0  501 -0.00000000000E+00 -0.00000000000E+00 -0.16650664088E+01  0.16650740366E+01  0.50400000000E-02 0.  1.
         24    2    1    2    0    0  0.00000000000E+00  0.00000000000E+00  0.96954142573E+03  0.97287156618E+03  0.80427035706E+02 0.  0.
         66    2    3    3    0    0 -0.62160803656E+01  0.21769304345E+02  0.88672953536E+03  0.88702075012E+03  0.20000005627E+01 0.  0.
        -13    1    3    3    0    0  0.62160803656E+01 -0.21769304345E+02  0.82811890376E+02  0.85850816062E+02  0.10566000000E+00 0.  1.
         13    1    4    4    0    0 -0.21345534864E+01  0.83769682285E+01  0.30948546584E+03  0.30960619284E+03  0.10566000000E+00 0. -1.
        -13    1    4    4    0    0 -0.12652229313E+01  0.56071306957E+01  0.24193283935E+03  0.24200113765E+03  0.10566000000E+00 0.  1.
        -14    1    4    4    0    0 -0.28163039479E+01  0.77852054209E+01  0.33531123017E+03  0.33541341963E+03  0.00000000000E+00 0.  1.
<mgrwt>
<rscale>  0 0.80427036E+02</rscale>
<asrwt>0</asrwt>
<pdfrwt beam="1">  1        2 0.14941594E+00 0.80427036E+02</pdfrwt>
<pdfrwt beam="2">  1       -1 0.25616542E-03 0.80427036E+02</pdfrwt>
<totfact> 0.34694652E+05</totfact>
</mgrwt>
</event>
<event>
 8    1  0.1226832E-024  0.8077163E+02  0.7818608E-02  0.1326876E+00
          2   -1    0    0  501    0  0.00000000000E+00  0.00000000000E+00  0.11545902202E+04  0.11545902202E+04  0.25500000000E-02 0. -1.
         -1   -1    0    0    0  501 -0.00000000000E+00 -0.00000000000E+00 -0.14126301043E+01  0.14126390952E+01  0.50400000000E-02 0.  1.
         24    2    1    2    0    0 -0.22204460493E-15 -0.35527136788E-14  0.11531775901E+04  0.11560028593E+04  0.80771631198E+02 0.  0.
         66    2    3    3    0    0 -0.95881625765E+00 -0.16292892365E+02  0.11052518459E+04  0.11053741541E+04  0.19999994465E+01 0.  0.
        -13    1    3    3    0    0  0.95881625765E+00  0.16292892365E+02  0.47925744215E+02  0.50628705226E+02  0.10566000000E+00 0.  1.
         13    1    4    4    0    0 -0.72281396303E+00 -0.64368140371E+01  0.44400971603E+03  0.44405697171E+03  0.10566000000E+00 0. -1.
        -13    1    4    4    0    0 -0.32709497117E+00 -0.68610914995E+01  0.50029927307E+03  0.50034643535E+03  0.10566000000E+00 0.  1.
         14    1    4    4    0    0  0.91092676549E-01 -0.29949868289E+01  0.16094285681E+03  0.16097074704E+03  0.00000000000E+00 0. -1.
<mgrwt>
<rscale>  0 0.80771631E+02</rscale>
<asrwt>0</asrwt>
<pdfrwt beam="1">  1        2 0.17762890E+00 0.80771631E+02</pdfrwt>
<pdfrwt beam="2">  1       -1 0.21732884E-03 0.80771631E+02</pdfrwt>
<totfact> 0.34296612E+05</totfact>
</mgrwt>
</event>
<event>
 8    1  0.1226832E-024  0.8031719E+02  0.7818608E-02  0.1328154E+00
          2   -1    0    0  501    0  0.00000000000E+00  0.00000000000E+00  0.70117503531E+02  0.70117503578E+02  0.25500000000E-02 0. -1.
         -1   -1    0    0    0  501 -0.00000000000E+00 -0.00000000000E+00 -0.23000142999E+02  0.23000143551E+02  0.50400000000E-02 0.  1.
         24    2    1    2    0    0  0.00000000000E+00  0.00000000000E+00  0.47117360532E+02  0.93117647129E+02  0.80317187098E+02 0.  0.
         66    2    3    3    0    0 -0.89480612173E+01  0.32408654012E+02  0.48982295580E+02  0.59444545086E+02  0.20000014340E+01 0.  0.
        -13    1    3    3    0    0  0.89480612173E+01 -0.32408654012E+02 -0.18649350479E+01  0.33673102043E+02  0.10566000000E+00 0.  1.
         13    1    4    4    0    0 -0.37145761793E+01  0.12106013360E+02  0.18821074479E+02  0.22684744748E+02  0.10566000000E+00 0.  1.
        -13    1    4    4    0    0 -0.73448925048E+00  0.43000335279E+01  0.55334901521E+01  0.70470163970E+01  0.10566000000E+00 0. -1.
         14    1    4    4    0    0 -0.44989957875E+01  0.16002607124E+02  0.24627730949E+02  0.29712783941E+02  0.00000000000E+00 0. -1.
<mgrwt>
<rscale>  0 0.80317187E+02</rscale>
<asrwt>0</asrwt>
<pdfrwt beam="1">  1        2 0.10787308E-01 0.80317187E+02</pdfrwt>
<pdfrwt beam="2">  1       -1 0.35384837E-02 0.80317187E+02</pdfrwt>
<totfact> 0.15980992E+05</totfact>
</mgrwt>
</event>
<event>
 8    1  0.1226832E-024  0.7974974E+02  0.7818608E-02  0.1329763E+00
          2   -1    0    0  501    0  0.00000000000E+00  0.00000000000E+00  0.47788896651E+03  0.47788896652E+03  0.25500000000E-02 0. -1.
         -1   -1    0    0    0  501 -0.00000000000E+00 -0.00000000000E+00 -0.33271420610E+01  0.33271458783E+01  0.50400000000E-02 0.  1.
         24    2    1    2    0    0  0.35527136788E-14  0.17763568394E-14  0.47456182445E+03  0.48121611240E+03  0.79749743601E+02 0.  0.
         66    2    3    3    0    0 -0.25800261912E+02 -0.13852853791E+02  0.40051124236E+03  0.40158537119E+03  0.20000064145E+01 0.  0.
        -13    1    3    3    0    0  0.25800261912E+02  0.13852853791E+02  0.74050582095E+02  0.79630741210E+02  0.10566000000E+00 0.  1.
         13    1    4    4    0    0 -0.31587767857E+01 -0.18784468034E+01  0.47204103365E+02  0.47347069304E+02  0.10566000000E+00 0. -1.
        -13    1    4    4    0    0 -0.22231588822E+02 -0.11901555394E+02  0.34474539588E+03  0.34566644284E+03  0.10566000000E+00 0.  1.
        -14    1    4    4    0    0 -0.40989630425E+00 -0.72851593877E-01  0.85617431111E+01  0.85718590420E+01  0.00000000000E+00 0.  1.
<mgrwt>
<rscale>  0 0.79749744E+02</rscale>
<asrwt>0</asrwt>
<pdfrwt beam="1">  1        2 0.73521383E-01 0.79749744E+02</pdfrwt>
<pdfrwt beam="2">  1       -1 0.51186828E-03 0.79749744E+02</pdfrwt>
<totfact> 0.30256328E+05</totfact>
</mgrwt>
</event>
<event>
 8    1  0.1226832E-024  0.7922715E+02  0.7818608E-02  0.1331259E+00
          2   -1    0    0  501    0  0.00000000000E+00  0.00000000000E+00  0.54701585900E+03  0.54701585900E+03  0.25500000000E-02 0. -1.
         -1   -1    0    0    0  501 -0.00000000000E+00 -0.00000000000E+00 -0.28687180513E+01  0.28687224786E+01  0.50400000000E-02 0.  1.
         24    2    1    2    0    0 -0.35527136788E-14  0.00000000000E+00  0.54414714095E+03  0.54988458148E+03  0.79227154131E+02 0.  0.
         66    2    3    3    0    0  0.23004935350E+02 -0.28308468468E+01  0.49499453478E+03  0.49554094707E+03  0.20000037835E+01 0.  0.
        -13    1    3    3    0    0 -0.23004935350E+02  0.28308468468E+01  0.49152606167E+02  0.54343634415E+02  0.10566000000E+00 0.  1.
         13    1    4    4    0    0  0.72932443178E+01 -0.48220564802E+00  0.15090944523E+03  0.15108638509E+03  0.10566000000E+00 0.  1.
        -13    1    4    4    0    0  0.94259556315E+01 -0.18174707723E+01  0.21961019195E+03  0.21981992497E+03  0.10566000000E+00 0. -1.
         14    1    4    4    0    0  0.62857354005E+01 -0.53117042643E+00  0.12447489760E+03  0.12463463701E+03  0.00000000000E+00 0. -1.
<mgrwt>
<rscale>  0 0.79227154E+02</rscale>
<asrwt>0</asrwt>
<pdfrwt beam="1">  1        2 0.84156258E-01 0.79227154E+02</pdfrwt>
<pdfrwt beam="2">  1       -1 0.44134173E-03 0.79227154E+02</pdfrwt>
<totfact> 0.32112998E+05</totfact>
</mgrwt>
</event>
<event>
 8    1  0.1226832E-024  0.7908957E+02  0.7818608E-02  0.1331655E+00
         -1   -1    0    0    0  501 -0.00000000000E+00  0.00000000000E+00  0.33482601751E+01  0.33482639684E+01  0.50400000000E-02 0.  1.
          2   -1    0    0  501    0  0.00000000000E+00 -0.00000000000E+00 -0.46704523831E+03  0.46704523832E+03  0.25500000000E-02 0. -1.
         24    2    1    2    0    0  0.00000000000E+00  0.17763568394E-14 -0.46369697814E+03  0.47039350229E+03  0.79089566068E+02 0.  0.
         66    2    3    3    0    0 -0.26860266384E+02  0.79243134863E+01 -0.39783922800E+03  0.39882868502E+03  0.19999996190E+01 0.  0.
        -13    1    3    3    0    0  0.26860266384E+02 -0.79243134863E+01 -0.65857750134E+02  0.71564817273E+02  0.10566000000E+00 0.  1.
         13    1    4    4    0    0 -0.81962671928E+01  0.18507386152E+01 -0.11580796985E+03  0.11611245013E+03  0.10566000000E+00 0. -1.
        -13    1    4    4    0    0 -0.57653329537E+01  0.24130085384E+01 -0.85663132606E+02  0.85890890822E+02  0.10566000000E+00 0.  1.
         14    1    4    4    0    0 -0.12898666238E+02  0.36605663327E+01 -0.19636812555E+03  0.19682534407E+03  0.00000000000E+00 0. -1.
<mgrwt>
<rscale>  0 0.79089566E+02</rscale>
<asrwt>0</asrwt>
<pdfrwt beam="1">  1        2 0.71853062E-01 0.79089566E+02</pdfrwt>
<pdfrwt beam="2">  1       -1 0.51511761E-03 0.79089566E+02</pdfrwt>
<totfact> 0.30686847E+05</totfact>
</mgrwt>
</event>
<event>
 8    1  0.1226832E-024  0.7504429E+02  0.7818608E-02  0.1343734E+00
          2   -1    0    0  501    0  0.00000000000E+00  0.00000000000E+00  0.17888893973E+02  0.17888894155E+02  0.25500000000E-02 0. -1.
         -1   -1    0    0    0  501 -0.00000000000E+00 -0.00000000000E+00 -0.78703102610E+02  0.78703102771E+02  0.50400000000E-02 0.  1.
         24    2    1    2    0    0  0.00000000000E+00 -0.35527136788E-14 -0.60814208637E+02  0.96591996926E+02  0.75044292908E+02 0.  0.
         66    2    3    3    0    0 -0.10150247945E+02  0.19473941861E+02  0.86892948525E+01  0.23701599024E+02  0.20000015772E+01 0.  0.
        -13    1    3    3    0    0  0.10150247945E+02 -0.19473941861E+02 -0.69503503489E+02  0.72890397902E+02  0.10566000000E+00 0.  1.
         13    1    4    4    0    0 -0.81456838509E+00  0.11141032019E+01  0.27337982326E+00  0.14109033141E+01  0.10566000000E+00 0.  1.
        -13    1    4    4    0    0 -0.68456369441E+01  0.13337838417E+02  0.67587518758E+01  0.16445442218E+02  0.10566000000E+00 0. -1.
         14    1    4    4    0    0 -0.24900426158E+01  0.50220002428E+01  0.16571631534E+01  0.58452534918E+01  0.00000000000E+00 0. -1.
<mgrwt>
<rscale>  0 0.75044293E+02</rscale>
<asrwt>0</asrwt>
<pdfrwt beam="1">  1        2 0.27521376E-02 0.75044293E+02</pdfrwt>
<pdfrwt beam="2">  1       -1 0.12108169E-01 0.75044293E+02</pdfrwt>
<totfact> 0.14585015E+05</totfact>
</mgrwt>
</event>
<event>
 8    1  0.1226832E-024  0.7885672E+02  0.7818608E-02  0.1332328E+00
         -1   -1    0    0    0  501 -0.00000000000E+00  0.00000000000E+00  0.10697101513E+02  0.10697102701E+02  0.50400000000E-02 0.  1.
          2   -1    0    0  501    0  0.00000000000E+00 -0.00000000000E+00 -0.14532866328E+03  0.14532866330E+03  0.25500000000E-02 0. -1.
         24    2    1    2    0    0  0.00000000000E+00 -0.17763568394E-14 -0.13463156177E+03  0.15602576600E+03  0.78856719644E+02 0.  0.
         66    2    3    3    0    0  0.22368671432E+02  0.14508724491E+02 -0.99547121842E+01  0.28529928683E+02  0.19999970074E+01 0.  0.
        -13    1    3    3    0    0 -0.22368671432E+02 -0.14508724491E+02 -0.12467684958E+03  0.12749583732E+03  0.10566000000E+00 0.  1.
         13    1    4    4    0    0  0.66163029406E+01  0.38370571109E+01 -0.30710974515E+01  0.82426497843E+01  0.10566000000E+00 0. -1.
        -13    1    4    4    0    0  0.10389562612E+01  0.32079739412E+00 -0.45744415273E+00  0.11843818089E+01  0.10566000000E+00 0.  1.
        -14    1    4    4    0    0  0.14713412230E+02  0.10350869986E+02 -0.64261705799E+01  0.19102897090E+02  0.00000000000E+00 0.  1.
<mgrwt>
<rscale>  0 0.78856720E+02</rscale>
<asrwt>0</asrwt>
<pdfrwt beam="1">  1        2 0.22358255E-01 0.78856720E+02</pdfrwt>
<pdfrwt beam="2">  1       -1 0.16457081E-02 0.78856720E+02</pdfrwt>
<totfact> 0.20599669E+05</totfact>
</mgrwt>
</event>
<event>
 8    1  0.1226832E-024  0.8135071E+02  0.7818608E-02  0.1325261E+00
          2   -1    0    0  501    0  0.00000000000E+00  0.00000000000E+00  0.26057465113E+03  0.26057465114E+03  0.25500000000E-02 0. -1.
         -1   -1    0    0    0  501 -0.00000000000E+00 -0.00000000000E+00 -0.63493681537E+01  0.63493701541E+01  0.50400000000E-02 0.  1.
         24    2    1    2    0    0  0.00000000000E+00  0.35527136788E-14  0.25422528298E+03  0.26692402130E+03  0.81350713831E+02 0.  0.
         66    2    3    3    0    0  0.11650438446E+02 -0.16984812936E+02  0.24218241185E+03  0.24306488268E+03  0.19999990080E+01 0.  0.
        -13    1    3    3    0    0 -0.11650438446E+02  0.16984812936E+02  0.12042871123E+02  0.23859138614E+02  0.10566000000E+00 0.  1.
         13    1    4    4    0    0  0.48044892860E+00 -0.47536795344E+00  0.69577596983E+01  0.69913081694E+01  0.10566000000E+00 0. -1.
        -13    1    4    4    0    0  0.42888687310E+01 -0.50436099461E+01  0.81224581132E+02  0.81494025182E+02  0.10566000000E+00 0. -1.
         14    1    4    4    0    0  0.68811207868E+01 -0.11465835037E+02  0.15400007102E+03  0.15457954933E+03  0.00000000000E+00 0. -1.
<mgrwt>
<rscale>  0 0.81350714E+02</rscale>
<asrwt>0</asrwt>
<pdfrwt beam="1">  1        2 0.40088417E-01 0.81350714E+02</pdfrwt>
<pdfrwt beam="2">  1       -1 0.97682580E-03 0.81350714E+02</pdfrwt>
<totfact> 0.23183130E+05</totfact>
</mgrwt>
</event>
<event>
 8    1  0.1226832E-024  0.7846318E+02  0.7818608E-02  0.1333470E+00
          2   -1    0    0  501    0  0.00000000000E+00  0.00000000000E+00  0.11159935711E+04  0.11159935711E+04  0.25500000000E-02 0. -1.
         -1   -1    0    0    0  501 -0.00000000000E+00 -0.00000000000E+00 -0.13791410880E+01  0.13791502971E+01  0.50400000000E-02 0.  1.
         24    2    1    2    0    0 -0.71054273576E-14  0.00000000000E+00  0.11146144300E+04  0.11173727214E+04  0.78463182052E+02 0.  0.
         66    2    3    3    0    0 -0.18742135231E+02 -0.17974189254E+02  0.97596129627E+03  0.97630875799E+03  0.19999994523E+01 0.  0.
        -13    1    3    3    0    0  0.18742135231E+02  0.17974189254E+02  0.13865313371E+03  0.14106396338E+03  0.10566000000E+00 0.  1.
         13    1    4    4    0    0 -0.10293398200E+02 -0.10131607831E+02  0.56901178084E+03  0.56919506448E+03  0.10566000000E+00 0. -1.
        -13    1    4    4    0    0 -0.17643189254E+01 -0.21003884297E+01  0.92463230233E+02  0.92503970520E+02  0.10566000000E+00 0.  1.
        -14    1    4    4    0    0 -0.66844181060E+01 -0.57421929942E+01  0.31448628520E+03  0.31460972300E+03  0.00000000000E+00 0.  1.
<mgrwt>
<rscale>  0 0.78463182E+02</rscale>
<asrwt>0</asrwt>
<pdfrwt beam="1">  1        2 0.17169156E+00 0.78463182E+02</pdfrwt>
<pdfrwt beam="2">  1       -1 0.21217597E-03 0.78463182E+02</pdfrwt>
<totfact> 0.37050478E+05</totfact>
</mgrwt>
</event>
<event>
 8    1  0.1226832E-024  0.8762817E+02  0.7818608E-02  0.1308699E+00
         -1   -1    0    0    0  501 -0.00000000000E+00  0.00000000000E+00  0.17839219516E+02  0.17839220228E+02  0.50400000000E-02 0.  1.
          2   -1    0    0  501    0  0.00000000000E+00 -0.00000000000E+00 -0.10760975460E+03  0.10760975463E+03  0.25500000000E-02 0. -1.
         24    2    1    2    0    0  0.00000000000E+00  0.00000000000E+00 -0.89770535082E+02  0.12544897486E+03  0.87628170833E+02 0.  0.
         66    2    3    3    0    0 -0.38864624029E+02  0.82890590019E+01 -0.18569317258E+02  0.43908849251E+02  0.19999997626E+01 0.  0.
        -13    1    3    3    0    0  0.38864624029E+02 -0.82890590019E+01 -0.71201217823E+02  0.81540125605E+02  0.10566000000E+00 0.  1.
         13    1    4    4    0    0 -0.16692056997E+01  0.58081364145E+00 -0.11930121483E+01  0.21349553099E+01  0.10566000000E+00 0.  1.
        -13    1    4    4    0    0 -0.28212082237E+02  0.56664247344E+01 -0.13092567318E+02  0.31614180939E+02  0.10566000000E+00 0. -1.
         14    1    4    4    0    0 -0.89833360924E+01  0.20418206260E+01 -0.42837377923E+01  0.10159713002E+02  0.00000000000E+00 0. -1.
<mgrwt>
<rscale>  0 0.87628171E+02</rscale>
<asrwt>0</asrwt>
<pdfrwt beam="1">  1        2 0.16555347E-01 0.87628171E+02</pdfrwt>
<pdfrwt beam="2">  1       -1 0.27444954E-02 0.87628171E+02</pdfrwt>
<totfact> 0.14168251E+05</totfact>
</mgrwt>
</event>
<event>
 8    1  0.1226832E-024  0.7985919E+02  0.7818608E-02  0.1329452E+00
          2   -1    0    0  501    0  0.00000000000E+00  0.00000000000E+00  0.16268947105E+03  0.16268947107E+03  0.25500000000E-02 0. -1.
         -1   -1    0    0    0  501 -0.00000000000E+00 -0.00000000000E+00 -0.98000958002E+01  0.98000970962E+01  0.50400000000E-02 0.  1.
         24    2    1    2    0    0  0.00000000000E+00  0.00000000000E+00  0.15288937525E+03  0.17248956817E+03  0.79859188964E+02 0.  0.
         66    2    3    3    0    0  0.50098674349E+01  0.29385914875E+02  0.13379097603E+03  0.13708630869E+03  0.19999996964E+01 0.  0.
        -13    1    3    3    0    0 -0.50098674349E+01 -0.29385914875E+02  0.19098399224E+02  0.35403259479E+02  0.10566000000E+00 0.  1.
         13    1    4    4    0    0  0.11257814936E+01  0.49869301367E+01  0.23719462670E+02  0.24264396336E+02  0.10566000000E+00 0. -1.
        -13    1    4    4    0    0  0.19915898970E+01  0.11300719302E+02  0.47555288505E+02  0.48920234218E+02  0.10566000000E+00 0.  1.
        -14    1    4    4    0    0  0.18924960443E+01  0.13098265437E+02  0.62516224854E+02  0.63901678137E+02  0.00000000000E+00 0.  1.
<mgrwt>
<rscale>  0 0.79859189E+02</rscale>
<asrwt>0</asrwt>
<pdfrwt beam="1">  1        2 0.25029149E-01 0.79859189E+02</pdfrwt>
<pdfrwt beam="2">  1       -1 0.15077072E-02 0.79859189E+02</pdfrwt>
<totfact> 0.20663538E+05</totfact>
</mgrwt>
</event>
<event>
 8    1  0.1226832E-024  0.8456104E+02  0.7818608E-02  0.1316584E+00
         -1   -1    0    0    0  501 -0.00000000000E+00  0.00000000000E+00  0.68096516210E+01  0.68096534861E+01  0.50400000000E-02 0.  1.
          2   -1    0    0  501    0  0.00000000000E+00 -0.00000000000E+00 -0.26251595019E+03  0.26251595020E+03  0.25500000000E-02 0. -1.
         24    2    1    2    0    0  0.00000000000E+00  0.00000000000E+00 -0.25570629857E+03  0.26932560368E+03  0.84561041114E+02 0.  0.
         66    2    3    3    0    0 -0.21003913440E+01 -0.16063423474E+02 -0.25222834605E+03  0.25275597680E+03  0.20000092529E+01 0.  0.
        -13    1    3    3    0    0  0.21003913440E+01  0.16063423474E+02 -0.34779525148E+01  0.16569626889E+02  0.10566000000E+00 0.  1.
         13    1    4    4    0    0 -0.12791214493E+00 -0.58968034237E+01 -0.84809861051E+02  0.85014777232E+02  0.10566000000E+00 0.  1.
        -13    1    4    4    0    0 -0.81208761111E+00 -0.46744792311E+01 -0.69340015723E+02  0.69502224330E+02  0.10566000000E+00 0. -1.
        -14    1    4    4    0    0 -0.11603915880E+01 -0.54921408196E+01 -0.98078469276E+02  0.98238975234E+02  0.00000000000E+00 0.  1.
<mgrwt>
<rscale>  0 0.84561041E+02</rscale>
<asrwt>0</asrwt>
<pdfrwt beam="1">  1        2 0.40387061E-01 0.84561041E+02</pdfrwt>
<pdfrwt beam="2">  1       -1 0.10476391E-02 0.84561041E+02</pdfrwt>
<totfact> 0.20990423E+05</totfact>
</mgrwt>
</event>
<event>
 8    1  0.1226832E-024  0.8031033E+02  0.7818608E-02  0.1328173E+00
          2   -1    0    0  501    0  0.00000000000E+00  0.00000000000E+00  0.29720577458E+02  0.29720577568E+02  0.25500000000E-02 0. -1.
         -1   -1    0    0    0  501 -0.00000000000E+00 -0.00000000000E+00 -0.54253221675E+02  0.54253221909E+02  0.50400000000E-02 0.  1.
         24    2    1    2    0    0 -0.17763568394E-14  0.00000000000E+00 -0.24532644216E+02  0.83973799477E+02  0.80310325403E+02 0.  0.
         66    2    3    3    0    0 -0.10305622123E+02  0.31950480533E+02  0.10715226697E+02  0.35296673209E+02  0.20000007082E+01 0.  0.
        -13    1    3    3    0    0  0.10305622123E+02 -0.31950480533E+02 -0.35247870914E+02  0.48677126267E+02  0.10566000000E+00 0.  1.
         13    1    4    4    0    0 -0.38809033155E+01  0.13722177539E+02  0.48031326911E+01  0.15047950513E+02  0.10566000000E+00 0. -1.
        -13    1    4    4    0    0 -0.34346063247E+01  0.96214537432E+01  0.24890243795E+01  0.10515479025E+02  0.10566000000E+00 0.  1.
        -14    1    4    4    0    0 -0.29901124826E+01  0.86068492512E+01  0.34230696268E+01  0.97332436711E+01  0.00000000000E+00 0.  1.
<mgrwt>
<rscale>  0 0.80310325E+02</rscale>
<asrwt>0</asrwt>
<pdfrwt beam="1">  1        2 0.45723965E-02 0.80310325E+02</pdfrwt>
<pdfrwt beam="2">  1       -1 0.83466496E-02 0.80310325E+02</pdfrwt>
<totfact> 0.13285330E+05</totfact>
</mgrwt>
</event>
<event>
 8    1  0.1226832E-024  0.7847857E+02  0.7818608E-02  0.1333425E+00
         -1   -1    0    0    0  501 -0.00000000000E+00  0.00000000000E+00  0.22194341656E+03  0.22194341661E+03  0.50400000000E-02 0.  1.
          2   -1    0    0  501    0  0.00000000000E+00 -0.00000000000E+00 -0.69374510252E+01  0.69374514938E+01  0.25500000000E-02 0. -1.
         24    2    1    2    0    0 -0.44408920985E-15  0.71054273576E-14  0.21500596553E+03  0.22888086811E+03  0.78478573965E+02 0.  0.
         66    2    3    3    0    0  0.20637989232E+01 -0.35867048431E+02  0.61735452121E+02  0.71456073763E+02  0.19999999827E+01 0.  0.
        -13    1    3    3    0    0 -0.20637989232E+01  0.35867048431E+02  0.15327051341E+03  0.15742479434E+03  0.10566000000E+00 0.  1.
         13    1    4    4    0    0  0.59189917815E-02 -0.67936333404E+01  0.11919062946E+02  0.13719647027E+02  0.10566000000E+00 0. -1.
        -13    1    4    4    0    0  0.79834787402E+00 -0.13319859048E+02  0.24278957502E+02  0.27704421051E+02  0.10566000000E+00 0.  1.
        -14    1    4    4    0    0  0.12595320574E+01 -0.15753556043E+02  0.25537431673E+02  0.30032005685E+02  0.00000000000E+00 0.  1.
<mgrwt>
<rscale>  0 0.78478574E+02</rscale>
<asrwt>0</asrwt>
<pdfrwt beam="1">  1        2 0.10673000E-02 0.78478574E+02</pdfrwt>
<pdfrwt beam="2">  1       -1 0.34145146E-01 0.78478574E+02</pdfrwt>
<totfact> 0.10124665E+05</totfact>
</mgrwt>
</event>
<event>
 8    1  0.1226832E-024  0.7995226E+02  0.7818608E-02  0.1329187E+00
         -1   -1    0    0    0  501 -0.00000000000E+00  0.00000000000E+00  0.32849753914E+01  0.32849792578E+01  0.50400000000E-02 0.  1.
          2   -1    0    0  501    0  0.00000000000E+00 -0.00000000000E+00 -0.48648467770E+03  0.48648467771E+03  0.25500000000E-02 0. -1.
         24    2    1    2    0    0  0.00000000000E+00  0.00000000000E+00 -0.48319970231E+03  0.48976965696E+03  0.79952264333E+02 0.  0.
         66    2    3    3    0    0  0.11295941327E+02  0.38264947135E+02 -0.25442625143E+03  0.25754324275E+03  0.19999994428E+01 0.  0.
        -13    1    3    3    0    0 -0.11295941327E+02 -0.38264947135E+02 -0.22877345088E+03  0.23222641422E+03  0.10566000000E+00 0.  1.
         13    1    4    4    0    0  0.28270770432E+01  0.11199002593E+02 -0.77725864036E+02  0.78579457416E+02  0.10566000000E+00 0. -1.
        -13    1    4    4    0    0  0.43368391089E+01  0.12713617214E+02 -0.85179986663E+02  0.86232740465E+02  0.10566000000E+00 0.  1.
         14    1    4    4    0    0  0.41320251750E+01  0.14352327328E+02 -0.91520400733E+02  0.92731044867E+02  0.00000000000E+00 0. -1.
<mgrwt>
<rscale>  0 0.79952264E+02</rscale>
<asrwt>0</asrwt>
<pdfrwt beam="1">  1        2 0.74843740E-01 0.79952264E+02</pdfrwt>
<pdfrwt beam="2">  1       -1 0.50538151E-03 0.79952264E+02</pdfrwt>
<totfact> 0.30231574E+05</totfact>
</mgrwt>
</event>
<event>
 8    1  0.1226832E-024  0.8077919E+02  0.7818608E-02  0.1326855E+00
         -1   -1    0    0    0  501 -0.00000000000E+00  0.00000000000E+00  0.35483713412E+01  0.35483749205E+01  0.50400000000E-02 0.  1.
          2   -1    0    0  501    0  0.00000000000E+00 -0.00000000000E+00 -0.45973722467E+03  0.45973722468E+03  0.25500000000E-02 0. -1.
         24    2    1    2    0    0  0.88817841970E-15  0.00000000000E+00 -0.45618885333E+03  0.46328559960E+03  0.80779186014E+02 0.  0.
         66    2    3    3    0    0  0.59201161583E+01 -0.17406455053E+02 -0.43432524600E+03  0.43471881920E+03  0.20000000884E+01 0.  0.
        -13    1    3    3    0    0 -0.59201161583E+01  0.17406455053E+02 -0.21863607327E+02  0.28566780396E+02  0.10566000000E+00 0.  1.
         13    1    4    4    0    0  0.16001753304E+01 -0.56091622494E+01 -0.12593805699E+03  0.12607310825E+03  0.10566000000E+00 0. -1.
        -13    1    4    4    0    0  0.43035220713E+01 -0.11372290732E+02 -0.29213807438E+03  0.29239103093E+03  0.10566000000E+00 0.  1.
        -14    1    4    4    0    0  0.16418756625E-01 -0.42500207069E+00 -0.16249114628E+02  0.16254680020E+02  0.00000000000E+00 0.  1.
<mgrwt>
<rscale>  0 0.80779186E+02</rscale>
<asrwt>0</asrwt>
<pdfrwt beam="1">  1        2 0.70728757E-01 0.80779186E+02</pdfrwt>
<pdfrwt beam="2">  1       -1 0.54590392E-03 0.80779186E+02</pdfrwt>
<totfact> 0.28889604E+05</totfact>
</mgrwt>
</event>
<event>
 8    1  0.1226832E-024  0.8022316E+02  0.7818608E-02  0.1328419E+00
         -1   -1    0    0    0  501 -0.00000000000E+00  0.00000000000E+00  0.50256810893E+01  0.50256836164E+01  0.50400000000E-02 0.  1.
          2   -1    0    0  501    0  0.00000000000E+00 -0.00000000000E+00 -0.32014335345E+03  0.32014335346E+03  0.25500000000E-02 0. -1.
         24    2    1    2    0    0  0.00000000000E+00  0.71054273576E-14 -0.31511767237E+03  0.32516903708E+03  0.80223158996E+02 0.  0.
         66    2    3    3    0    0 -0.13767147352E+02 -0.35734078818E+02 -0.20569716617E+03  0.20924096854E+03  0.20000027167E+01 0.  0.
        -13    1    3    3    0    0  0.13767147352E+02  0.35734078818E+02 -0.10942050620E+03  0.11592806854E+03  0.10566000000E+00 0.  1.
         13    1    4    4    0    0 -0.38691673094E+01 -0.11051814489E+02 -0.63198090946E+02  0.64273812104E+02  0.10566000000E+00 0. -1.
        -13    1    4    4    0    0 -0.12348371495E+01 -0.46204644012E+01 -0.25741619218E+02  0.26182353562E+02  0.10566000000E+00 0.  1.
         14    1    4    4    0    0 -0.86631428929E+01 -0.20061799928E+02 -0.11675745601E+03  0.11878480288E+03  0.00000000000E+00 0. -1.
<mgrwt>
<rscale>  0 0.80223159E+02</rscale>
<asrwt>0</asrwt>
<pdfrwt beam="1">  1        2 0.49252808E-01 0.80223159E+02</pdfrwt>
<pdfrwt beam="2">  1       -1 0.77318215E-03 0.80223159E+02</pdfrwt>
<totfact> 0.25910670E+05</totfact>
</mgrwt>
</event>
<event>
 8    1  0.1226832E-024  0.7701048E+02  0.7818608E-02  0.1337756E+00
         -1   -1    0    0    0  501 -0.00000000000E+00  0.00000000000E+00  0.24011159393E+01  0.24011212288E+01  0.50400000000E-02 0.  1.
          2   -1    0    0  501    0  0.00000000000E+00 -0.00000000000E+00 -0.61748455525E+03  0.61748455525E+03  0.25500000000E-02 0. -1.
         24    2    1    2    0    0  0.00000000000E+00 -0.88817841970E-15 -0.61508343931E+03  0.61988567648E+03  0.77010483674E+02 0.  0.
         66    2    3    3    0    0 -0.24840449988E+02 -0.35831695181E+01 -0.54253106040E+03  0.54311494046E+03  0.19999992978E+01 0.  0.
        -13    1    3    3    0    0  0.24840449988E+02  0.35831695181E+01 -0.72552378912E+02  0.76770736021E+02  0.10566000000E+00 0.  1.
         13    1    4    4    0    0 -0.16130446857E+02 -0.31417152242E+01 -0.35703180794E+03  0.35740982742E+03  0.10566000000E+00 0. -1.
        -13    1    4    4    0    0 -0.36785675584E+01 -0.18908663606E+00 -0.72391100761E+02  0.72484827698E+02  0.10566000000E+00 0.  1.
         14    1    4    4    0    0 -0.50314355727E+01 -0.25236765783E+00 -0.11310815169E+03  0.11322028534E+03  0.00000000000E+00 0. -1.
<mgrwt>
<rscale>  0 0.77010484E+02</rscale>
<asrwt>0</asrwt>
<pdfrwt beam="1">  1        2 0.94997497E-01 0.77010484E+02</pdfrwt>
<pdfrwt beam="2">  1       -1 0.36940335E-03 0.77010484E+02</pdfrwt>
<totfact> 0.35787739E+05</totfact>
</mgrwt>
</event>
<event>
 8    1  0.1226832E-024  0.8328483E+02  0.7818608E-02  0.1319980E+00
         -1   -1    0    0    0  501 -0.00000000000E+00  0.00000000000E+00  0.14556586628E+02  0.14556587501E+02  0.50400000000E-02 0.  1.
          2   -1    0    0  501    0  0.00000000000E+00 -0.00000000000E+00 -0.11912757545E+03  0.11912757548E+03  0.25500000000E-02 0. -1.
         24    2    1    2    0    0 -0.71054273576E-14 -0.88817841970E-15 -0.10457098882E+03  0.13368416298E+03  0.83284834923E+02 0.  0.
         66    2    3    3    0    0 -0.39436980004E+02 -0.61985028772E+01 -0.71198299828E+02  0.81651054629E+02  0.19999984759E+01 0.  0.
        -13    1    3    3    0    0  0.39436980004E+02  0.61985028772E+01 -0.33372688995E+02  0.52033108350E+02  0.10566000000E+00 0.  1.
         13    1    4    4    0    0 -0.26361221419E+02 -0.49958326629E+01 -0.48589997378E+02  0.55505597446E+02  0.10566000000E+00 0. -1.
        -13    1    4    4    0    0 -0.77186917810E+01 -0.68990208069E+00 -0.13260251015E+02  0.15359023039E+02  0.10566000000E+00 0.  1.
         14    1    4    4    0    0 -0.53570668042E+01 -0.51276813362E+00 -0.93480514353E+01  0.10786434144E+02  0.00000000000E+00 0. -1.
<mgrwt>
<rscale>  0 0.83284835E+02</rscale>
<asrwt>0</asrwt>
<pdfrwt beam="1">  1        2 0.18327319E-01 0.83284835E+02</pdfrwt>
<pdfrwt beam="2">  1       -1 0.22394750E-02 0.83284835E+02</pdfrwt>
<totfact> 0.16744079E+05</totfact>
</mgrwt>
</event>
<event>
 8    1  0.1226832E-024  0.7980616E+02  0.7818608E-02  0.1329602E+00
          2   -1    0    0  501    0  0.00000000000E+00  0.00000000000E+00  0.26876450286E+03  0.26876450288E+03  0.25500000000E-02 0. -1.
         -1   -1    0    0    0  501 -0.00000000000E+00 -0.00000000000E+00 -0.59243514756E+01  0.59243536194E+01  0.50400000000E-02 0.  1.
         24    2    1    2    0    0  0.00000000000E+00 -0.17763568394E-14  0.26284015139E+03  0.27468885650E+03  0.79806157037E+02 0.  0.
         66    2    3    3    0    0  0.35958514881E+02 -0.11199456989E+02  0.86386812682E+02  0.94260935890E+02  0.20000000746E+01 0.  0.
        -13    1    3    3    0    0 -0.35958514881E+02  0.11199456989E+02  0.17645333871E+03  0.18042792061E+03  0.10566000000E+00 0.  1.
         13    1    4    4    0    0  0.14201217487E+02 -0.45910096916E+01  0.34373172057E+02  0.37473698368E+02  0.10566000000E+00 0. -1.
        -13    1    4    4    0    0  0.10418974835E+02 -0.31997045531E+01  0.26821273363E+02  0.28951425089E+02  0.10566000000E+00 0.  1.
         14    1    4    4    0    0  0.11338322559E+02 -0.34087427442E+01  0.25192367261E+02  0.27835812432E+02  0.00000000000E+00 0. -1.
<mgrwt>
<rscale>  0 0.79806157E+02</rscale>
<asrwt>0</asrwt>
<pdfrwt beam="1">  1        2 0.41348389E-01 0.79806157E+02</pdfrwt>
<pdfrwt beam="2">  1       -1 0.91143878E-03 0.79806157E+02</pdfrwt>
<totfact> 0.24655711E+05</totfact>
</mgrwt>
</event>
<event>
 8    1  0.1226832E-024  0.7914399E+02  0.7818608E-02  0.1331498E+00
          2   -1    0    0  501    0  0.00000000000E+00  0.00000000000E+00  0.45672639922E+03  0.45672639923E+03  0.25500000000E-02 0. -1.
         -1   -1    0    0    0  501 -0.00000000000E+00 -0.00000000000E+00 -0.34286216020E+01  0.34286253063E+01  0.50400000000E-02 0.  1.
         24    2    1    2    0    0  0.35527136788E-14  0.00000000000E+00  0.45329777762E+03  0.46015502453E+03  0.79143991622E+02 0.  0.
         66    2    3    3    0    0  0.24038172877E+02 -0.14656619478E+02  0.38826417432E+03  0.38928873514E+03  0.20000000808E+01 0.  0.
        -13    1    3    3    0    0 -0.24038172877E+02  0.14656619478E+02  0.65033603297E+02  0.70866289388E+02  0.10566000000E+00 0.  1.
         13    1    4    4    0    0  0.57412929243E+01 -0.33652319504E+01  0.92601242722E+02  0.92840123590E+02  0.10566000000E+00 0. -1.
        -13    1    4    4    0    0  0.37923829059E+01 -0.27950951515E+01  0.73164398247E+02  0.73315994571E+02  0.10566000000E+00 0.  1.
        -14    1    4    4    0    0  0.14504497046E+02 -0.84962923761E+01  0.22249853335E+03  0.22313261698E+03  0.00000000000E+00 0.  1.
<mgrwt>
<rscale>  0 0.79143992E+02</rscale>
<asrwt>0</asrwt>
<pdfrwt beam="1">  1        2 0.70265527E-01 0.79143992E+02</pdfrwt>
<pdfrwt beam="2">  1       -1 0.52748108E-03 0.79143992E+02</pdfrwt>
<totfact> 0.30405830E+05</totfact>
</mgrwt>
</event>
<event>
 8    1  0.1226832E-024  0.7960890E+02  0.7818608E-02  0.1330165E+00
         -1   -1    0    0    0  501 -0.00000000000E+00  0.00000000000E+00  0.34525777178E+02  0.34525777546E+02  0.50400000000E-02 0.  1.
          2   -1    0    0  501    0  0.00000000000E+00 -0.00000000000E+00 -0.45890177501E+02  0.45890177572E+02  0.25500000000E-02 0. -1.
         24    2    1    2    0    0  0.00000000000E+00  0.00000000000E+00 -0.11364400323E+02  0.80415955117E+02  0.79608895500E+02 0.  0.
         66    2    3    3    0    0 -0.12166288503E+02 -0.29334468124E+02 -0.29883996365E+02  0.43652981929E+02  0.19999991252E+01 0.  0.
        -13    1    3    3    0    0  0.12166288503E+02  0.29334468124E+02  0.18519596042E+02  0.36762973188E+02  0.10566000000E+00 0.  1.
         13    1    4    4    0    0 -0.21202941013E+01 -0.50166494618E+01 -0.46807466088E+01  0.71821286364E+01  0.10566000000E+00 0.  1.
        -13    1    4    4    0    0 -0.69509618864E+01 -0.18482829031E+02 -0.19302691093E+02  0.27614052358E+02  0.10566000000E+00 0. -1.
         14    1    4    4    0    0 -0.30950325156E+01 -0.58349896304E+01 -0.59005586636E+01  0.88568009350E+01  0.00000000000E+00 0. -1.
<mgrwt>
<rscale>  0 0.79608895E+02</rscale>
<asrwt>0</asrwt>
<pdfrwt beam="1">  1        2 0.70600273E-02 0.79608895E+02</pdfrwt>
<pdfrwt beam="2">  1       -1 0.53116581E-02 0.79608895E+02</pdfrwt>
<totfact> 0.14868850E+05</totfact>
</mgrwt>
</event>
<event>
 8    1  0.1226832E-024  0.7979345E+02  0.7818608E-02  0.1329639E+00
          2   -1    0    0  501    0  0.00000000000E+00  0.00000000000E+00  0.66073419467E+03  0.66073419467E+03  0.25500000000E-02 0. -1.
         -1   -1    0    0    0  501 -0.00000000000E+00 -0.00000000000E+00 -0.24090576234E+01  0.24090628955E+01  0.50400000000E-02 0.  1.
         24    2    1    2    0    0  0.00000000000E+00  0.00000000000E+00  0.65832513704E+03  0.66314325757E+03  0.79793445806E+02 0.  0.
         66    2    3    3    0    0 -0.32333523531E+02 -0.44893757299E+01  0.51963452748E+03  0.52066270597E+03  0.20000000885E+01 0.  0.
        -13    1    3    3    0    0  0.32333523531E+02  0.44893757299E+01  0.13869060957E+03  0.14248055160E+03  0.10566000000E+00 0.  1.
         13    1    4    4    0    0 -0.22272989878E+02 -0.27086575443E+01  0.35472563459E+03  0.35543453673E+03  0.10566000000E+00 0. -1.
        -13    1    4    4    0    0 -0.31470312360E+01 -0.62883392401E+00  0.44764053440E+02  0.44879069533E+02  0.10566000000E+00 0.  1.
         14    1    4    4    0    0 -0.69135024169E+01 -0.11518842616E+01  0.12014483945E+03  0.12034909970E+03  0.00000000000E+00 0. -1.
<mgrwt>
<rscale>  0 0.79793446E+02</rscale>
<asrwt>0</asrwt>
<pdfrwt beam="1">  1        2 0.10165132E+00 0.79793446E+02</pdfrwt>
<pdfrwt beam="2">  1       -1 0.37062501E-03 0.79793446E+02</pdfrwt>
<totfact> 0.33215609E+05</totfact>
</mgrwt>
</event>
<event>
 8    1  0.1226832E-024  0.6960219E+02  0.7818608E-02  0.1361451E+00
          2   -1    0    0  501    0  0.00000000000E+00  0.00000000000E+00  0.44862686455E+03  0.44862686456E+03  0.25500000000E-02 0. -1.
         -1   -1    0    0    0  501 -0.00000000000E+00 -0.00000000000E+00 -0.26996044233E+01  0.26996091280E+01  0.50400000000E-02 0.  1.
         24    2    1    2    0    0  0.00000000000E+00 -0.35527136788E-14  0.44592726013E+03  0.45132647369E+03  0.69602187645E+02 0.  0.
         66    2    3    3    0    0  0.27902731116E+02 -0.20332462766E+02  0.24999277763E+03  0.25237345400E+03  0.19999929436E+01 0.  0.
        -13    1    3    3    0    0 -0.27902731116E+02  0.20332462766E+02  0.19593448250E+03  0.19895301969E+03  0.10566000000E+00 0.  1.
         13    1    4    4    0    0  0.23132785007E+00 -0.20126385516E+00  0.28328832490E+01  0.28513876011E+01  0.10566000000E+00 0. -1.
        -13    1    4    4    0    0  0.10594115092E+02 -0.69031781879E+01  0.93580061601E+02  0.94430547161E+02  0.10566000000E+00 0. -1.
         14    1    4    4    0    0  0.17077288174E+02 -0.13228020723E+02  0.15357983278E+03  0.15509151924E+03  0.00000000000E+00 0. -1.
<mgrwt>
<rscale>  0 0.69602188E+02</rscale>
<asrwt>0</asrwt>
<pdfrwt beam="1">  1        2 0.69019456E-01 0.69602188E+02</pdfrwt>
<pdfrwt beam="2">  1       -1 0.41532450E-03 0.69602188E+02</pdfrwt>
<totfact> 0.42146328E+05</totfact>
</mgrwt>
</event>
<event>
 8    1  0.1226832E-024  0.7598312E+02  0.7818608E-02  0.1340853E+00
         -1   -1    0    0    0  501 -0.00000000000E+00  0.00000000000E+00  0.16650430116E+01  0.16650506394E+01  0.50400000000E-02 0.  1.
          2   -1    0    0  501    0  0.00000000000E+00 -0.00000000000E+00 -0.86685767855E+03  0.86685767855E+03  0.25500000000E-02 0. -1.
         24    2    1    2    0    0  0.00000000000E+00  0.00000000000E+00 -0.86519263554E+03  0.86852272919E+03  0.75983120068E+02 0.  0.
         66    2    3    3    0    0  0.12046567537E+02  0.11944356203E+01 -0.84420269840E+03  0.84429185857E+03  0.20000002988E+01 0.  0.
        -13    1    3    3    0    0 -0.12046567537E+02 -0.11944356203E+01 -0.20989937135E+02  0.24230870617E+02  0.10566000000E+00 0.  1.
         13    1    4    4    0    0  0.50844113211E+01  0.65540015282E-01 -0.33060817492E+03  0.33064729247E+03  0.10566000000E+00 0. -1.
        -13    1    4    4    0    0  0.19158812173E+01 -0.25600829111E+00 -0.13469358592E+03  0.13470749568E+03  0.10566000000E+00 0.  1.
         14    1    4    4    0    0  0.50462749984E+01  0.13849038961E+01 -0.37890093756E+03  0.37893707042E+03  0.00000000000E+00 0. -1.
<mgrwt>
<rscale>  0 0.75983120E+02</rscale>
<asrwt>0</asrwt>
<pdfrwt beam="1">  1        2 0.13336236E+00 0.75983120E+02</pdfrwt>
<pdfrwt beam="2">  1       -1 0.25616174E-03 0.75983120E+02</pdfrwt>
<totfact> 0.39754236E+05</totfact>
</mgrwt>
</event>
<event>
 8    1  0.1226832E-024  0.8016249E+02  0.7818608E-02  0.1328591E+00
          2   -1    0    0  501    0  0.00000000000E+00  0.00000000000E+00  0.25734370330E+03  0.25734370331E+03  0.25500000000E-02 0. -1.
         -1   -1    0    0    0  501 -0.00000000000E+00 -0.00000000000E+00 -0.62426467188E+01  0.62426487533E+01  0.50400000000E-02 0.  1.
         24    2    1    2    0    0  0.35527136788E-14  0.44408920985E-15  0.25110105658E+03  0.26358635206E+03  0.80162487357E+02 0.  0.
         66    2    3    3    0    0  0.26598237577E+02  0.34260640822E+01  0.22346390660E+03  0.22507625754E+03  0.19999995671E+01 0.  0.
        -13    1    3    3    0    0 -0.26598237577E+02 -0.34260640822E+01  0.27637149983E+02  0.38510094527E+02  0.10566000000E+00 0.  1.
         13    1    4    4    0    0  0.10106543870E+02  0.10482899587E+01  0.85511179398E+02  0.86112798741E+02  0.10566000000E+00 0. -1.
        -13    1    4    4    0    0  0.13032915699E+02  0.12778593136E+01  0.10665818239E+03  0.10745914968E+03  0.10566000000E+00 0.  1.
         14    1    4    4    0    0  0.34587780071E+01  0.10999148100E+01  0.31294544808E+02  0.31504309112E+02  0.00000000000E+00 0. -1.
<mgrwt>
<rscale>  0 0.80162487E+02</rscale>
<asrwt>0</asrwt>
<pdfrwt beam="1">  1        2 0.39591332E-01 0.80162487E+02</pdfrwt>
<pdfrwt beam="2">  1       -1 0.96040753E-03 0.80162487E+02</pdfrwt>
<totfact> 0.23989395E+05</totfact>
</mgrwt>
</event>
<event>
 8    1  0.1226832E-024  0.8020837E+02  0.7818608E-02  0.1328461E+00
         -1   -1    0    0    0  501 -0.00000000000E+00  0.00000000000E+00  0.34810713553E+01  0.34810750038E+01  0.50400000000E-02 0.  1.
          2   -1    0    0  501    0  0.00000000000E+00 -0.00000000000E+00 -0.46202581623E+03  0.46202581624E+03  0.25500000000E-02 0. -1.
         24    2    1    2    0    0  0.00000000000E+00  0.00000000000E+00 -0.45854474487E+03  0.46550689124E+03  0.80208370763E+02 0.  0.
         66    2    3    3    0    0  0.96715513267E+01  0.11234744098E+02 -0.44552671022E+03  0.44577775618E+03  0.20000010328E+01 0.  0.
        -13    1    3    3    0    0 -0.96715513267E+01 -0.11234744098E+02 -0.13018034656E+02  0.19729135063E+02  0.10566000000E+00 0.  1.
         13    1    4    4    0    0  0.53415080217E+00  0.83060698231E+00 -0.31547900253E+02  0.31563529579E+02  0.10566000000E+00 0. -1.
        -13    1    4    4    0    0  0.74565631649E+01  0.90626650464E+01 -0.33259875932E+03  0.33280576632E+03  0.10566000000E+00 0.  1.
        -14    1    4    4    0    0  0.16808373596E+01  0.13414720695E+01 -0.81380050644E+02  0.81408460275E+02  0.00000000000E+00 0.  1.
<mgrwt>
<rscale>  0 0.80208371E+02</rscale>
<asrwt>0</asrwt>
<pdfrwt beam="1">  1        2 0.71080846E-01 0.80208371E+02</pdfrwt>
<pdfrwt beam="2">  1       -1 0.53555009E-03 0.80208371E+02</pdfrwt>
<totfact> 0.29477866E+05</totfact>
</mgrwt>
</event>
<event>
 8    1  0.1226832E-024  0.8140247E+02  0.7818608E-02  0.1325118E+00
         -1   -1    0    0    0  501 -0.00000000000E+00  0.00000000000E+00  0.89089244345E+01  0.89089258601E+01  0.50400000000E-02 0.  1.
          2   -1    0    0  501    0  0.00000000000E+00 -0.00000000000E+00 -0.18594728637E+03  0.18594728638E+03  0.25500000000E-02 0. -1.
         24    2    1    2    0    0  0.00000000000E+00  0.17763568394E-14 -0.17703836193E+03  0.19485621224E+03  0.81402468356E+02 0.  0.
         66    2    3    3    0    0  0.22025640170E+02  0.14934571443E+02 -0.16221310461E+03  0.16439361768E+03  0.19999939491E+01 0.  0.
        -13    1    3    3    0    0 -0.22025640170E+02 -0.14934571443E+02 -0.14825257318E+02  0.30462594565E+02  0.10566000000E+00 0.  1.
         13    1    4    4    0    0  0.66262360423E+01  0.37146590530E+01 -0.43707957499E+02  0.44363300246E+02  0.10566000000E+00 0. -1.
        -13    1    4    4    0    0  0.48630961633E+01  0.39688212713E+01 -0.37674676633E+02  0.38194157538E+02  0.10566000000E+00 0.  1.
         14    1    4    4    0    0  0.10536307964E+02  0.72510911189E+01 -0.80830470482E+02  0.81836159894E+02  0.00000000000E+00 0. -1.
<mgrwt>
<rscale>  0 0.81402468E+02</rscale>
<asrwt>0</asrwt>
<pdfrwt beam="1">  1        2 0.28607272E-01 0.81402468E+02</pdfrwt>
<pdfrwt beam="2">  1       -1 0.13706040E-02 0.81402468E+02</pdfrwt>
<totfact> 0.20545170E+05</totfact>
</mgrwt>
</event>
<event>
 8    1  0.1226832E-024  0.7986155E+02  0.7818608E-02  0.1329445E+00
         -1   -1    0    0    0  501 -0.00000000000E+00  0.00000000000E+00  0.22849794138E+01  0.22849849722E+01  0.50400000000E-02 0.  1.
          2   -1    0    0  501    0  0.00000000000E+00 -0.00000000000E+00 -0.69780279497E+03  0.69780279498E+03  0.25500000000E-02 0. -1.
         24    2    1    2    0    0  0.17763568394E-14  0.00000000000E+00 -0.69551781556E+03  0.70008777995E+03  0.79861554423E+02 0.  0.
         66    2    3    3    0    0 -0.11983227574E+02  0.19069568480E+02 -0.63676018289E+03  0.63716149970E+03  0.20000004446E+01 0.  0.
        -13    1    3    3    0    0  0.11983227574E+02 -0.19069568480E+02 -0.58757632674E+02  0.62926280254E+02  0.10566000000E+00 0.  1.
         13    1    4    4    0    0 -0.28653988029E+01  0.34333915110E+01 -0.11955378083E+03  0.11963743713E+03  0.10566000000E+00 0. -1.
        -13    1    4    4    0    0 -0.19679498872E+01  0.39073622030E+01 -0.11552540437E+03  0.11560826322E+03  0.10566000000E+00 0.  1.
         14    1    4    4    0    0 -0.71498788835E+01  0.11728814766E+02 -0.40168099768E+03  0.40191579935E+03  0.00000000000E+00 0. -1.
<mgrwt>
<rscale>  0 0.79861554E+02</rscale>
<asrwt>0</asrwt>
<pdfrwt beam="1">  1        2 0.10735411E+00 0.79861554E+02</pdfrwt>
<pdfrwt beam="2">  1       -1 0.35153628E-03 0.79861554E+02</pdfrwt>
<totfact> 0.33578413E+05</totfact>
</mgrwt>
</event>
<event>
 8    1  0.1226832E-024  0.7958181E+02  0.7818608E-02  0.1330242E+00
          2   -1    0    0  501    0  0.00000000000E+00  0.00000000000E+00  0.61811807041E+03  0.61811807042E+03  0.25500000000E-02 0. -1.
         -1   -1    0    0    0  501 -0.00000000000E+00 -0.00000000000E+00 -0.25615084640E+01  0.25615134223E+01  0.50400000000E-02 0.  1.
         24    2    1    2    0    0  0.00000000000E+00  0.00000000000E+00  0.61555656195E+03  0.62067958384E+03  0.79581812231E+02 0.  0.
         66    2    3    3    0    0  0.15575821851E+01 -0.23972976753E+02  0.55512164069E+03  0.55564481969E+03  0.20000018991E+01 0.  0.
        -13    1    3    3    0    0 -0.15575821851E+01  0.23972976753E+02  0.60434921252E+02  0.65034764145E+02  0.10566000000E+00 0.  1.
         13    1    4    4    0    0  0.16482574884E+00 -0.11427181305E+02  0.26540635940E+03  0.26565231867E+03  0.10566000000E+00 0.  1.
        -13    1    4    4    0    0  0.53577001499E+00 -0.93799831787E+01  0.21661368247E+03  0.21681736492E+03  0.10566000000E+00 0. -1.
        -14    1    4    4    0    0  0.85698642124E+00 -0.31658122691E+01  0.73101598820E+02  0.73175136099E+02  0.00000000000E+00 0.  1.
<mgrwt>
<rscale>  0 0.79581812E+02</rscale>
<asrwt>0</asrwt>
<pdfrwt beam="1">  1        2 0.95095069E-01 0.79581812E+02</pdfrwt>
<pdfrwt beam="2">  1       -1 0.39407869E-03 0.79581812E+02</pdfrwt>
<totfact> 0.32871934E+05</totfact>
</mgrwt>
</event>
<event>
 8    1  0.1226832E-024  0.8052635E+02  0.7818608E-02  0.1327564E+00
          2   -1    0    0  501    0  0.00000000000E+00  0.00000000000E+00  0.53111638802E+02  0.53111638863E+02  0.25500000000E-02 0. -1.
         -1   -1    0    0    0  501 -0.00000000000E+00 -0.00000000000E+00 -0.30522936355E+02  0.30522936771E+02  0.50400000000E-02 0.  1.
         24    2    1    2    0    0  0.44408920985E-15 -0.35527136788E-14  0.22588702446E+02  0.83634575634E+02  0.80526348255E+02 0.  0.
         66    2    3    3    0    0  0.23963712767E+01 -0.31503952829E+02 -0.14577879967E+02  0.34853353309E+02  0.20000033451E+01 0.  0.
        -13    1    3    3    0    0 -0.23963712767E+01  0.31503952829E+02  0.37166582414E+02  0.48781222325E+02  0.10566000000E+00 0.  1.
         13    1    4    4    0    0  0.10398495510E+01 -0.16931807060E+02 -0.70545604887E+01  0.18372407711E+02  0.10566000000E+00 0. -1.
        -13    1    4    4    0    0  0.63302794625E-01 -0.35112256436E+01 -0.21150422209E+01  0.41008877571E+01  0.10566000000E+00 0.  1.
         14    1    4    4    0    0  0.12932189311E+01 -0.11060920126E+02 -0.54082772577E+01  0.12380057841E+02  0.00000000000E+00 0. -1.
<mgrwt>
<rscale>  0 0.80526348E+02</rscale>
<asrwt>0</asrwt>
<pdfrwt beam="1">  1        2 0.81710213E-02 0.80526348E+02</pdfrwt>
<pdfrwt beam="2">  1       -1 0.46958364E-02 0.80526348E+02</pdfrwt>
<totfact> 0.14873418E+05</totfact>
</mgrwt>
</event>
<event>
 8    1  0.1226832E-024  0.7097768E+02  0.7818608E-02  0.1356800E+00
          2   -1    0    0  501    0  0.00000000000E+00  0.00000000000E+00  0.78824648252E+02  0.78824648293E+02  0.25500000000E-02 0. -1.
         -1   -1    0    0    0  501 -0.00000000000E+00 -0.00000000000E+00 -0.15977968387E+02  0.15977969182E+02  0.50400000000E-02 0.  1.
         24    2    1    2    0    0  0.00000000000E+00 -0.35527136788E-14  0.62846679865E+02  0.94802617475E+02  0.70977680366E+02 0.  0.
         66    2    3    3    0    0 -0.20211285255E+02 -0.25949123140E+02  0.49147708427E+02  0.59172208751E+02  0.20000003731E+01 0.  0.
        -13    1    3    3    0    0  0.20211285255E+02  0.25949123140E+02  0.13698971438E+02  0.35630408724E+02  0.10566000000E+00 0.  1.
         13    1    4    4    0    0 -0.10044215506E+02 -0.13398718928E+02  0.25292455519E+02  0.30333667834E+02  0.10566000000E+00 0. -1.
        -13    1    4    4    0    0 -0.80332372520E+01 -0.90273504391E+01  0.17938064359E+02  0.21628945274E+02  0.10566000000E+00 0.  1.
        -14    1    4    4    0    0 -0.21338324967E+01 -0.35230537730E+01  0.59171885496E+01  0.72095956435E+01  0.00000000000E+00 0.  1.
<mgrwt>
<rscale>  0 0.70977680E+02</rscale>
<asrwt>0</asrwt>
<pdfrwt beam="1">  1        2 0.12126869E-01 0.70977680E+02</pdfrwt>
<pdfrwt beam="2">  1       -1 0.24581491E-02 0.70977680E+02</pdfrwt>
<totfact> 0.22904010E+05</totfact>
</mgrwt>
</event>
<event>
 8    1  0.1226832E-024  0.7910068E+02  0.7818608E-02  0.1331623E+00
         -1   -1    0    0    0  501 -0.00000000000E+00  0.00000000000E+00  0.95946190534E+01  0.95946203772E+01  0.50400000000E-02 0.  1.
          2   -1    0    0  501    0  0.00000000000E+00 -0.00000000000E+00 -0.16303195164E+03  0.16303195166E+03  0.25500000000E-02 0. -1.
         24    2    1    2    0    0  0.00000000000E+00  0.00000000000E+00 -0.15343733259E+03  0.17262657204E+03  0.79100684839E+02 0.  0.
         66    2    3    3    0    0 -0.82822963386E+01 -0.37051758342E+02 -0.10075328726E+03  0.10768776219E+03  0.20000004946E+01 0.  0.
        -13    1    3    3    0    0  0.82822963386E+01  0.37051758342E+02 -0.52684045322E+02  0.64938809847E+02  0.10566000000E+00 0.  1.
         13    1    4    4    0    0 -0.74502777494E+01 -0.34041659104E+02 -0.92773752234E+02  0.99102580495E+02  0.10566000000E+00 0. -1.
        -13    1    4    4    0    0 -0.33697388116E+00 -0.86933037694E+00 -0.29766884161E+01  0.31210774843E+01  0.10566000000E+00 0.  1.
         14    1    4    4    0    0 -0.49504470812E+00 -0.21407688610E+01 -0.50028466127E+01  0.54641042093E+01  0.00000000000E+00 0. -1.
<mgrwt>
<rscale>  0 0.79100685E+02</rscale>
<asrwt>0</asrwt>
<pdfrwt beam="1">  1        2 0.25081837E-01 0.79100685E+02</pdfrwt>
<pdfrwt beam="2">  1       -1 0.14760955E-02 0.79100685E+02</pdfrwt>
<totfact> 0.21206909E+05</totfact>
</mgrwt>
</event>
<event>
 8    1  0.1226832E-024  0.7985726E+02  0.7818608E-02  0.1329457E+00
          2   -1    0    0  501    0  0.00000000000E+00  0.00000000000E+00  0.10624940863E+02  0.10624941169E+02  0.25500000000E-02 0. -1.
         -1   -1    0    0    0  501 -0.00000000000E+00 -0.00000000000E+00 -0.15005217972E+03  0.15005217981E+03  0.50400000000E-02 0.  1.
         24    2    1    2    0    0  0.00000000000E+00  0.00000000000E+00 -0.13942723886E+03  0.16067712098E+03  0.79857261845E+02 0.  0.
         66    2    3    3    0    0  0.27632989875E+02  0.70005919511E+01 -0.13574415134E+02  0.31636294798E+02  0.19999962981E+01 0.  0.
        -13    1    3    3    0    0 -0.27632989875E+02 -0.70005919511E+01 -0.12585282373E+03  0.12904082618E+03  0.10566000000E+00 0.  1.
         13    1    4    4    0    0  0.24088305203E+02  0.61611021826E+01 -0.12123299177E+02  0.27662089122E+02  0.10566000000E+00 0. -1.
        -13    1    4    4    0    0  0.17546796829E+01  0.15886190593E+00 -0.90115632899E+00  0.19817630180E+01  0.10566000000E+00 0.  1.
         14    1    4    4    0    0  0.17900049898E+01  0.68062786248E+00 -0.54995962731E+00  0.19924426572E+01  0.00000000000E+00 0. -1.
<mgrwt>
<rscale>  0 0.79857262E+02</rscale>
<asrwt>0</asrwt>
<pdfrwt beam="1">  1        2 0.16346064E-02 0.79857262E+02</pdfrwt>
<pdfrwt beam="2">  1       -1 0.23084949E-01 0.79857262E+02</pdfrwt>
<totfact> 0.10835098E+05</totfact>
</mgrwt>
</event>
<event>
 8    1  0.1226832E-024  0.8118826E+02  0.7818608E-02  0.1325713E+00
          2   -1    0    0  501    0  0.00000000000E+00  0.00000000000E+00  0.21751259740E+02  0.21751259889E+02  0.25500000000E-02 0. -1.
         -1   -1    0    0    0  501 -0.00000000000E+00 -0.00000000000E+00 -0.75760367030E+02  0.75760367198E+02  0.50400000000E-02 0.  1.
         24    2    1    2    0    0  0.00000000000E+00  0.00000000000E+00 -0.54009107291E+02  0.97511627087E+02  0.81188261139E+02 0.  0.
         66    2    3    3    0    0  0.18424558347E+02 -0.36141636661E+02 -0.27552897092E+02  0.49079979656E+02  0.20000035113E+01 0.  0.
        -13    1    3    3    0    0 -0.18424558347E+02  0.36141636661E+02 -0.26456210199E+02  0.48431647431E+02  0.10566000000E+00 0.  1.
         13    1    4    4    0    0  0.89985669890E+01 -0.16402247615E+02 -0.13490656325E+02  0.23065491687E+02  0.10566000000E+00 0. -1.
        -13    1    4    4    0    0  0.35178146677E+01 -0.78003556178E+01 -0.51636186486E+01  0.99947330822E+01  0.10566000000E+00 0.  1.
        -14    1    4    4    0    0  0.59081766899E+01 -0.11939033428E+02 -0.88986221186E+01  0.16019754886E+02  0.00000000000E+00 0.  1.
<mgrwt>
<rscale>  0 0.81188261E+02</rscale>
<asrwt>0</asrwt>
<pdfrwt beam="1">  1        2 0.33463477E-02 0.81188261E+02</pdfrwt>
<pdfrwt beam="2">  1       -1 0.11655441E-01 0.81188261E+02</pdfrwt>
<totfact> 0.12105481E+05</totfact>
</mgrwt>
</event>
<event>
 8    1  0.1226832E-024  0.7982735E+02  0.7818608E-02  0.1329542E+00
         -1   -1    0    0    0  501 -0.00000000000E+00  0.00000000000E+00  0.10523527540E+03  0.10523527552E+03  0.50400000000E-02 0.  1.
          2   -1    0    0  501    0  0.00000000000E+00 -0.00000000000E+00 -0.15138472286E+02  0.15138472501E+02  0.25500000000E-02 0. -1.
         24    2    1    2    0    0  0.17763568394E-14  0.00000000000E+00  0.90096803113E+02  0.12037374802E+03  0.79827346700E+02 0.  0.
         66    2    3    3    0    0  0.12067911457E+02  0.33842640750E+02  0.18952565175E+02  0.40671347957E+02  0.19999995185E+01 0.  0.
        -13    1    3    3    0    0 -0.12067911457E+02 -0.33842640750E+02  0.71144237938E+02  0.79702400063E+02  0.10566000000E+00 0.  1.
         13    1    4    4    0    0  0.21261550595E+01  0.79327051702E+01  0.47391277535E+01  0.94825546428E+01  0.10566000000E+00 0.  1.
        -13    1    4    4    0    0  0.75622477046E+01  0.19166735323E+02  0.10262005660E+02  0.23018932588E+02  0.10566000000E+00 0. -1.
         14    1    4    4    0    0  0.23795086926E+01  0.67432002569E+01  0.39514317614E+01  0.81698607264E+01  0.00000000000E+00 0. -1.
<mgrwt>
<rscale>  0 0.79827347E+02</rscale>
<asrwt>0</asrwt>
<pdfrwt beam="1">  1        2 0.23289957E-02 0.79827347E+02</pdfrwt>
<pdfrwt beam="2">  1       -1 0.16190043E-01 0.79827347E+02</pdfrwt>
<totfact> 0.11786472E+05</totfact>
</mgrwt>
</event>
<event>
 8    1  0.1226832E-024  0.8011125E+02  0.7818608E-02  0.1328736E+00
          2   -1    0    0  501    0  0.00000000000E+00  0.00000000000E+00  0.35786937142E+03  0.35786937143E+03  0.25500000000E-02 0. -1.
         -1   -1    0    0    0  501 -0.00000000000E+00 -0.00000000000E+00 -0.44833475330E+01  0.44833503659E+01  0.50400000000E-02 0.  1.
         24    2    1    2    0    0  0.00000000000E+00  0.00000000000E+00  0.35338602389E+03  0.36235272179E+03  0.80111254600E+02 0.  0.
         66    2    3    3    0    0  0.19629525990E+02  0.32044301338E+02  0.23919773913E+03  0.24213986442E+03  0.19999992053E+01 0.  0.
        -13    1    3    3    0    0 -0.19629525990E+02 -0.32044301338E+02  0.11418828475E+03  0.12021285737E+03  0.10566000000E+00 0.  1.
         13    1    4    4    0    0  0.98885002181E+01  0.15815563084E+02  0.12076873142E+03  0.12220070427E+03  0.10566000000E+00 0. -1.
        -13    1    4    4    0    0  0.77758614619E+01  0.12412365377E+02  0.88509573292E+02  0.89713357780E+02  0.10566000000E+00 0.  1.
         14    1    4    4    0    0  0.19651643103E+01  0.38163728767E+01  0.29919434424E+02  0.30225802370E+02  0.00000000000E+00 0. -1.
<mgrwt>
<rscale>  0 0.80111255E+02</rscale>
<asrwt>0</asrwt>
<pdfrwt beam="1">  1        2 0.55056844E-01 0.80111255E+02</pdfrwt>
<pdfrwt beam="2">  1       -1 0.68974578E-03 0.80111255E+02</pdfrwt>
<totfact> 0.27065458E+05</totfact>
</mgrwt>
</event>
<event>
 8    1  0.1226832E-024  0.7991349E+02  0.7818608E-02  0.1329297E+00
         -1   -1    0    0    0  501 -0.00000000000E+00  0.00000000000E+00  0.23564763624E+01  0.23564817522E+01  0.50400000000E-02 0.  1.
          2   -1    0    0  501    0  0.00000000000E+00 -0.00000000000E+00 -0.67751147269E+03  0.67751147270E+03  0.25500000000E-02 0. -1.
         24    2    1    2    0    0  0.00000000000E+00  0.00000000000E+00 -0.67515499633E+03  0.67986795445E+03  0.79913493340E+02 0.  0.
         66    2    3    3    0    0  0.77464170460E+01  0.28850750096E+02 -0.56322457426E+03  0.56401976367E+03  0.20000002451E+01 0.  0.
        -13    1    3    3    0    0 -0.77464170460E+01 -0.28850750096E+02 -0.11193042206E+03  0.11584819077E+03  0.10566000000E+00 0.  1.
         13    1    4    4    0    0  0.15582065754E+01  0.41754731854E+01 -0.89622564809E+02  0.89733371000E+02  0.10566000000E+00 0. -1.
        -13    1    4    4    0    0  0.13357269605E+01  0.40245424389E+01 -0.85182115379E+02  0.85287660613E+02  0.10566000000E+00 0.  1.
        -14    1    4    4    0    0  0.48524835102E+01  0.20650734472E+02 -0.38841989408E+03  0.38899873206E+03  0.00000000000E+00 0.  1.
<mgrwt>
<rscale>  0 0.79913493E+02</rscale>
<asrwt>0</asrwt>
<pdfrwt beam="1">  1        2 0.10423238E+00 0.79913493E+02</pdfrwt>
<pdfrwt beam="2">  1       -1 0.36253578E-03 0.79913493E+02</pdfrwt>
<totfact> 0.33289760E+05</totfact>
</mgrwt>
</event>
<event>
 8    1  0.1226832E-024  0.7803361E+02  0.7818608E-02  0.1334726E+00
         -1   -1    0    0    0  501 -0.00000000000E+00  0.00000000000E+00  0.13140667644E+03  0.13140667654E+03  0.50400000000E-02 0.  1.
          2   -1    0    0  501    0  0.00000000000E+00 -0.00000000000E+00 -0.11584731652E+02  0.11584731933E+02  0.25500000000E-02 0. -1.
         24    2    1    2    0    0 -0.71054273576E-14 -0.88817841970E-15  0.11982194479E+03  0.14299140847E+03  0.78033610986E+02 0.  0.
         66    2    3    3    0    0 -0.28081454144E+02 -0.40188615906E+01  0.10931785178E+02  0.30466756330E+02  0.19999996914E+01 0.  0.
        -13    1    3    3    0    0  0.28081454144E+02  0.40188615906E+01  0.10889015961E+03  0.11252465214E+03  0.10566000000E+00 0.  1.
         13    1    4    4    0    0 -0.50802906439E+01 -0.82909658802E+00  0.26996258366E+01  0.58134239371E+01  0.10566000000E+00 0. -1.
        -13    1    4    4    0    0 -0.60734545234E+01 -0.72151094674E+00  0.25544953230E+01  0.66290299656E+01  0.10566000000E+00 0.  1.
        -14    1    4    4    0    0 -0.16927708977E+02 -0.24682540558E+01  0.56776640180E+01  0.18024302427E+02  0.00000000000E+00 0.  1.
<mgrwt>
<rscale>  0 0.78033611E+02</rscale>
<asrwt>0</asrwt>
<pdfrwt beam="1">  1        2 0.17822665E-02 0.78033611E+02</pdfrwt>
<pdfrwt beam="2">  1       -1 0.20216411E-01 0.78033611E+02</pdfrwt>
<totfact> 0.11865560E+05</totfact>
</mgrwt>
</event>
<event>
 8    1  0.1226832E-024  0.7779501E+02  0.7818608E-02  0.1335428E+00
          2   -1    0    0  501    0  0.00000000000E+00  0.00000000000E+00  0.17450809004E+04  0.17450809004E+04  0.25500000000E-02 0. -1.
         -1   -1    0    0    0  501 -0.00000000000E+00 -0.00000000000E+00 -0.86701026569E+00  0.86702491452E+00  0.50400000000E-02 0.  1.
         24    2    1    2    0    0  0.35527136788E-14 -0.44408920985E-15  0.17442138902E+04  0.17459479254E+04  0.77795008704E+02 0.  0.
         66    2    3    3    0    0 -0.19300782808E+02 -0.35647508979E+01  0.16257024912E+04  0.16258221974E+04  0.20000005912E+01 0.  0.
        -13    1    3    3    0    0  0.19300782808E+02  0.35647508979E+01  0.11851139899E+03  0.12012572797E+03  0.10566000000E+00 0.  1.
         13    1    4    4    0    0 -0.38837274440E+01 -0.57217492030E+00  0.31201327028E+03  0.31203798281E+03  0.10566000000E+00 0. -1.
        -13    1    4    4    0    0 -0.13385249718E+02 -0.19899271646E+01  0.11245318716E+04  0.11246132963E+04  0.10566000000E+00 0.  1.
         14    1    4    4    0    0 -0.20318056454E+01 -0.10026488131E+01  0.18915734926E+03  0.18917091827E+03  0.00000000000E+00 0. -1.
<mgrwt>
<rscale>  0 0.77795009E+02</rscale>
<asrwt>0</asrwt>
<pdfrwt beam="1">  1        2 0.26847141E+00 0.77795009E+02</pdfrwt>
<pdfrwt beam="2">  1       -1 0.13338860E-03 0.77795009E+02</pdfrwt>
<totfact> 0.33166673E+05</totfact>
</mgrwt>
</event>
<event>
 8    1  0.1226832E-024  0.7845851E+02  0.7818608E-02  0.1333484E+00
          2   -1    0    0  501    0  0.00000000000E+00  0.00000000000E+00  0.28763132845E+02  0.28763132958E+02  0.25500000000E-02 0. -1.
         -1   -1    0    0    0  501 -0.00000000000E+00 -0.00000000000E+00 -0.53503711615E+02  0.53503711852E+02  0.50400000000E-02 0.  1.
         24    2    1    2    0    0 -0.35527136788E-14  0.00000000000E+00 -0.24740578770E+02  0.82266844810E+02  0.78458508252E+02 0.  0.
         66    2    3    3    0    0  0.21388692998E+02 -0.20300382172E+02  0.14708693832E+02  0.33014048165E+02  0.19999993793E+01 0.  0.
        -13    1    3    3    0    0 -0.21388692998E+02  0.20300382172E+02 -0.39449272602E+02  0.49252796645E+02  0.10566000000E+00 0.  1.
         13    1    4    4    0    0  0.47339941896E+01 -0.41676708569E+01  0.31700742527E+01  0.70597957592E+01  0.10566000000E+00 0. -1.
        -13    1    4    4    0    0  0.51060582177E+01 -0.46094983431E+01  0.42437406831E+01  0.80833040595E+01  0.10566000000E+00 0.  1.
        -14    1    4    4    0    0  0.11548640590E+02 -0.11523212972E+02  0.72948788965E+01  0.17870948346E+02  0.00000000000E+00 0.  1.
<mgrwt>
<rscale>  0 0.78458508E+02</rscale>
<asrwt>0</asrwt>
<pdfrwt beam="1">  1        2 0.44250974E-02 0.78458508E+02</pdfrwt>
<pdfrwt beam="2">  1       -1 0.82313403E-02 0.78458508E+02</pdfrwt>
<totfact> 0.14092321E+05</totfact>
</mgrwt>
</event>
<event>
 8    1  0.1226832E-024  0.7360546E+02  0.7818608E-02  0.1348245E+00
          2   -1    0    0  501    0  0.00000000000E+00  0.00000000000E+00  0.50084680218E+03  0.50084680219E+03  0.25500000000E-02 0. -1.
         -1   -1    0    0    0  501 -0.00000000000E+00 -0.00000000000E+00 -0.27042994851E+01  0.27043041816E+01  0.50400000000E-02 0.  1.
         24    2    1    2    0    0  0.00000000000E+00  0.35527136788E-14  0.49814250270E+03  0.50355110637E+03  0.73605459943E+02 0.  0.
         66    2    3    3    0    0  0.66961334012E+01  0.31909189719E+02  0.36563611918E+03  0.36709236745E+03  0.19999999375E+01 0.  0.
        -13    1    3    3    0    0 -0.66961334012E+01 -0.31909189719E+02  0.13250638352E+03  0.13645873893E+03  0.10566000000E+00 0.  1.
         13    1    4    4    0    0  0.27716212854E+01  0.16113138785E+02  0.17604473452E+03  0.17680236096E+03  0.10566000000E+00 0. -1.
        -13    1    4    4    0    0  0.29439486040E+01  0.10564671822E+02  0.12680210282E+03  0.12727554191E+03  0.10566000000E+00 0.  1.
         14    1    4    4    0    0  0.98056351184E+00  0.52313791112E+01  0.62789281836E+02  0.63014464576E+02  0.00000000000E+00 0. -1.
<mgrwt>
<rscale>  0 0.73605460E+02</rscale>
<asrwt>0</asrwt>
<pdfrwt beam="1">  1        2 0.77053235E-01 0.73605460E+02</pdfrwt>
<pdfrwt beam="2">  1       -1 0.41604708E-03 0.73605460E+02</pdfrwt>
<totfact> 0.37819744E+05</totfact>
</mgrwt>
</event>
<event>
 8    1  0.1226832E-024  0.8150228E+02  0.7818608E-02  0.1324841E+00
          2   -1    0    0  501    0  0.00000000000E+00  0.00000000000E+00  0.18246724713E+03  0.18246724715E+03  0.25500000000E-02 0. -1.
         -1   -1    0    0    0  501 -0.00000000000E+00 -0.00000000000E+00 -0.91011146341E+01  0.91011160297E+01  0.50400000000E-02 0.  1.
         24    2    1    2    0    0 -0.35527136788E-14  0.35527136788E-14  0.17336613250E+03  0.19156836318E+03  0.81502281404E+02 0.  0.
         66    2    3    3    0    0  0.92434041158E+01 -0.21767918487E+02  0.16466885672E+03  0.16637041555E+03  0.20000002241E+01 0.  0.
        -13    1    3    3    0    0 -0.92434041158E+01  0.21767918487E+02  0.86972757777E+01  0.25197947632E+02  0.10566000000E+00 0.  1.
         13    1    4    4    0    0  0.70083911729E+01 -0.15149287611E+02  0.11474190562E+03  0.11594970691E+03  0.10566000000E+00 0. -1.
        -13    1    4    4    0    0  0.37431116427E+00 -0.10466586191E+01  0.10370094260E+02  0.10430034617E+02  0.10566000000E+00 0.  1.
        -14    1    4    4    0    0  0.18607017787E+01 -0.55719722563E+01  0.39556856840E+02  0.39990674025E+02  0.00000000000E+00 0.  1.
<mgrwt>
<rscale>  0 0.81502281E+02</rscale>
<asrwt>0</asrwt>
<pdfrwt beam="1">  1        2 0.28071884E-01 0.81502281E+02</pdfrwt>
<pdfrwt beam="2">  1       -1 0.14001716E-02 0.81502281E+02</pdfrwt>
<totfact> 0.20346608E+05</totfact>
</mgrwt>
</event>
<event>
 8    1  0.1226832E-024  0.8972563E+02  0.7818608E-02  0.1303517E+00
          2   -1    0    0  501    0  0.00000000000E+00  0.00000000000E+00  0.46847993161E+03  0.46847993161E+03  0.25500000000E-02 0. -1.
         -1   -1    0    0    0  501 -0.00000000000E+00 -0.00000000000E+00 -0.42961740953E+01  0.42961770516E+01  0.50400000000E-02 0.  1.
         24    2    1    2    0    0  0.17763568394E-14  0.71054273576E-14  0.46418375751E+03  0.47277610866E+03  0.89725627260E+02 0.  0.
         66    2    3    3    0    0 -0.92444629925E+01 -0.41116529202E+02  0.31291886858E+03  0.31575029278E+03  0.20000005542E+01 0.  0.
        -13    1    3    3    0    0  0.92444629925E+01  0.41116529202E+02  0.15126488893E+03  0.15702581589E+03  0.10566000000E+00 0.  1.
         13    1    4    4    0    0 -0.29646229989E+01 -0.17547715424E+02  0.13283812242E+03  0.13402495752E+03  0.10566000000E+00 0. -1.
        -13    1    4    4    0    0 -0.52362977369E+01 -0.19697570659E+02  0.15126453815E+03  0.15263153268E+03  0.10566000000E+00 0.  1.
         14    1    4    4    0    0 -0.10435422566E+01 -0.38712431193E+01  0.28816208014E+02  0.29093802571E+02  0.00000000000E+00 0. -1.
<mgrwt>
<rscale>  0 0.89725627E+02</rscale>
<asrwt>0</asrwt>
<pdfrwt beam="1">  1        2 0.72073771E-01 0.89725627E+02</pdfrwt>
<pdfrwt beam="2">  1       -1 0.66095069E-03 0.89725627E+02</pdfrwt>
<totfact> 0.22068315E+05</totfact>
</mgrwt>
</event>
<event>
 8    1  0.1226832E-024  0.7880359E+02  0.7818608E-02  0.1332481E+00
         -1   -1    0    0    0  501 -0.00000000000E+00  0.00000000000E+00  0.35696680965E+01  0.35696716544E+01  0.50400000000E-02 0.  1.
          2   -1    0    0  501    0  0.00000000000E+00 -0.00000000000E+00 -0.43491461502E+03  0.43491461503E+03  0.25500000000E-02 0. -1.
         24    2    1    2    0    0  0.17763568394E-14 -0.35527136788E-14 -0.43134494693E+03  0.43848428668E+03  0.78803594020E+02 0.  0.
         66    2    3    3    0    0 -0.11905879348E+02  0.17973365808E+02 -0.39915381935E+03  0.39974062010E+03  0.20000043209E+01 0.  0.
        -13    1    3    3    0    0  0.11905879348E+02 -0.17973365808E+02 -0.32191127578E+02  0.38743666583E+02  0.10566000000E+00 0.  1.
         13    1    4    4    0    0 -0.48952497573E+01  0.72350094418E+01 -0.17135143857E+03  0.17157399423E+03  0.10566000000E+00 0. -1.
        -13    1    4    4    0    0 -0.16770731395E+01  0.33770979028E+01 -0.73448056341E+02  0.73544853721E+02  0.10566000000E+00 0.  1.
        -14    1    4    4    0    0 -0.53335564516E+01  0.73612584634E+01 -0.15435432444E+03  0.15462177215E+03  0.00000000000E+00 0.  1.
<mgrwt>
<rscale>  0 0.78803594E+02</rscale>
<asrwt>0</asrwt>
<pdfrwt beam="1">  1        2 0.66909899E-01 0.78803594E+02</pdfrwt>
<pdfrwt beam="2">  1       -1 0.54918033E-03 0.78803594E+02</pdfrwt>
<totfact> 0.30246961E+05</totfact>
</mgrwt>
</event>
<event>
 8    1  0.1226832E-024  0.7937175E+02  0.7818608E-02  0.1330844E+00
          2   -1    0    0  501    0  0.00000000000E+00  0.00000000000E+00  0.68622017844E+01  0.68622022582E+01  0.25500000000E-02 0. -1.
         -1   -1    0    0    0  501 -0.00000000000E+00 -0.00000000000E+00 -0.22951361835E+03  0.22951361840E+03  0.50400000000E-02 0.  1.
         24    2    1    2    0    0  0.00000000000E+00  0.35527136788E-14 -0.22265141656E+03  0.23637582066E+03  0.79371753764E+02 0.  0.
         66    2    3    3    0    0 -0.34002686558E+02 -0.17987600233E+02 -0.14015089903E+03  0.14534789631E+03  0.20000015297E+01 0.  0.
        -13    1    3    3    0    0  0.34002686558E+02  0.17987600233E+02 -0.82500517530E+02  0.91027924353E+02  0.10566000000E+00 0.  1.
         13    1    4    4    0    0 -0.16026085678E+02 -0.83525897867E+01 -0.64658181333E+02  0.67136374311E+02  0.10566000000E+00 0. -1.
        -13    1    4    4    0    0 -0.15384348369E+02 -0.84223989694E+01 -0.66521942739E+02  0.68795312406E+02  0.10566000000E+00 0.  1.
         14    1    4    4    0    0 -0.25922525099E+01 -0.12126114767E+01 -0.89707749579E+01  0.94162095885E+01  0.00000000000E+00 0. -1.
<mgrwt>
<rscale>  0 0.79371754E+02</rscale>
<asrwt>0</asrwt>
<pdfrwt beam="1">  1        2 0.10557236E-02 0.79371754E+02</pdfrwt>
<pdfrwt beam="2">  1       -1 0.35309782E-01 0.79371754E+02</pdfrwt>
<totfact> 0.97292562E+04</totfact>
</mgrwt>
</event>
<event>
 8    1  0.1226832E-024  0.7941373E+02  0.7818608E-02  0.1330723E+00
          2   -1    0    0  501    0  0.00000000000E+00  0.00000000000E+00  0.64695386516E+03  0.64695386516E+03  0.25500000000E-02 0. -1.
         -1   -1    0    0    0  501 -0.00000000000E+00 -0.00000000000E+00 -0.24370103873E+01  0.24370155989E+01  0.50400000000E-02 0.  1.
         24    2    1    2    0    0 -0.35527136788E-14  0.17763568394E-14  0.64451685477E+03  0.64939088076E+03  0.79413726353E+02 0.  0.
         66    2    3    3    0    0 -0.22726353286E+02  0.15890344496E+02  0.55456542759E+03  0.55526192348E+03  0.20000035726E+01 0.  0.
        -13    1    3    3    0    0  0.22726353286E+02 -0.15890344496E+02  0.89951427186E+02  0.94128957281E+02  0.10566000000E+00 0.  1.
         13    1    4    4    0    0 -0.12283764921E+02  0.80630719768E+01  0.29122086513E+03  0.29159133640E+03  0.10566000000E+00 0. -1.
        -13    1    4    4    0    0 -0.99937029760E+01  0.72885197909E+01  0.24403345468E+03  0.24434675113E+03  0.10566000000E+00 0.  1.
         14    1    4    4    0    0 -0.44888538823E+00  0.53875272871E+00  0.19311107770E+02  0.19323835952E+02  0.00000000000E+00 0. -1.
<mgrwt>
<rscale>  0 0.79413726E+02</rscale>
<asrwt>0</asrwt>
<pdfrwt beam="1">  1        2 0.99531320E-01 0.79413726E+02</pdfrwt>
<pdfrwt beam="2">  1       -1 0.37492524E-03 0.79413726E+02</pdfrwt>
<totfact> 0.33451590E+05</totfact>
</mgrwt>
</event>
<event>
 8    1  0.1226832E-024  0.7889025E+02  0.7818608E-02  0.1332231E+00
          2   -1    0    0  501    0  0.00000000000E+00  0.00000000000E+00  0.23354032499E+02  0.23354032638E+02  0.25500000000E-02 0. -1.
         -1   -1    0    0    0  501 -0.00000000000E+00 -0.00000000000E+00 -0.66623086933E+02  0.66623087124E+02  0.50400000000E-02 0.  1.
         24    2    1    2    0    0  0.35527136788E-14  0.00000000000E+00 -0.43269054435E+02  0.89977119762E+02  0.78890246602E+02 0.  0.
         66    2    3    3    0    0  0.13863939281E+02  0.36721344944E+02 -0.25799508176E+02  0.47013621331E+02  0.19999953943E+01 0.  0.
        -13    1    3    3    0    0 -0.13863939281E+02 -0.36721344944E+02 -0.17469546259E+02  0.42963498431E+02  0.10566000000E+00 0.  1.
         13    1    4    4    0    0  0.11401798459E+02  0.30235053821E+02 -0.21967271634E+02  0.39073413912E+02  0.10566000000E+00 0.  1.
        -13    1    4    4    0    0  0.22946368077E+01  0.56902784379E+01 -0.32918332176E+01  0.69636166428E+01  0.10566000000E+00 0. -1.
        -14    1    4    4    0    0  0.16750401415E+00  0.79601268550E+00 -0.54040332481E+00  0.97659077596E+00  0.00000000000E+00 0.  1.
<mgrwt>
<rscale>  0 0.78890247E+02</rscale>
<asrwt>0</asrwt>
<pdfrwt beam="1">  1        2 0.35929281E-02 0.78890247E+02</pdfrwt>
<pdfrwt beam="2">  1       -1 0.10249706E-01 0.78890247E+02</pdfrwt>
<totfact> 0.13324955E+05</totfact>
</mgrwt>
</event>
<event>
 8    1  0.1226832E-024  0.7902020E+02  0.7818608E-02  0.1331855E+00
          2   -1    0    0  501    0  0.00000000000E+00  0.00000000000E+00  0.60375385349E+03  0.60375385350E+03  0.25500000000E-02 0. -1.
         -1   -1    0    0    0  501 -0.00000000000E+00 -0.00000000000E+00 -0.25855678450E+01  0.25855727571E+01  0.50400000000E-02 0.  1.
         24    2    1    2    0    0 -0.35527136788E-14  0.00000000000E+00  0.60116828565E+03  0.60633942626E+03  0.79020200980E+02 0.  0.
         66    2    3    3    0    0  0.16828105954E+02  0.32540913403E+02  0.41379592397E+03  0.41541926158E+03  0.20000005043E+01 0.  0.
        -13    1    3    3    0    0 -0.16828105954E+02 -0.32540913403E+02  0.18737236167E+03  0.19092016467E+03  0.10566000000E+00 0.  1.
         13    1    4    4    0    0  0.24843953556E+01  0.52516775331E+01  0.64736234345E+02  0.64996488662E+02  0.10566000000E+00 0. -1.
        -13    1    4    4    0    0  0.36091336414E+01  0.84400722449E+01  0.10712362441E+03  0.10751624406E+03  0.10566000000E+00 0.  1.
        -14    1    4    4    0    0  0.10734576957E+02  0.18849163625E+02  0.24193606522E+03  0.24290652886E+03  0.00000000000E+00 0.  1.
<mgrwt>
<rscale>  0 0.79020201E+02</rscale>
<asrwt>0</asrwt>
<pdfrwt beam="1">  1        2 0.92885152E-01 0.79020201E+02</pdfrwt>
<pdfrwt beam="2">  1       -1 0.39778029E-03 0.79020201E+02</pdfrwt>
<totfact> 0.33268429E+05</totfact>
</mgrwt>
</event>
<event>
 8    1  0.1226832E-024  0.7801992E+02  0.7818608E-02  0.1334766E+00
         -1   -1    0    0    0  501 -0.00000000000E+00  0.00000000000E+00  0.16528770310E+02  0.16528771079E+02  0.50400000000E-02 0.  1.
          2   -1    0    0  501    0  0.00000000000E+00 -0.00000000000E+00 -0.92068366936E+02  0.92068366971E+02  0.25500000000E-02 0. -1.
         24    2    1    2    0    0  0.00000000000E+00  0.00000000000E+00 -0.75539596626E+02  0.10859713805E+03  0.78019918830E+02 0.  0.
         66    2    3    3    0    0  0.26762884288E+02 -0.19512266847E+02 -0.66414968080E+02  0.74242363373E+02  0.20000003128E+01 0.  0.
        -13    1    3    3    0    0 -0.26762884288E+02  0.19512266847E+02 -0.91246285458E+01  0.34354774677E+02  0.10566000000E+00 0.  1.
         13    1    4    4    0    0  0.15698812006E+02 -0.11362649471E+02 -0.39468221708E+02  0.43969468842E+02  0.10566000000E+00 0. -1.
        -13    1    4    4    0    0  0.47773338604E+01 -0.38745875282E+01 -0.13222962937E+02  0.14584007000E+02  0.10566000000E+00 0.  1.
        -14    1    4    4    0    0  0.62867384218E+01 -0.42750298476E+01 -0.13723783435E+02  0.15688887530E+02  0.00000000000E+00 0.  1.
<mgrwt>
<rscale>  0 0.78019919E+02</rscale>
<asrwt>0</asrwt>
<pdfrwt beam="1">  1        2 0.14164364E-01 0.78019919E+02</pdfrwt>
<pdfrwt beam="2">  1       -1 0.25428879E-02 0.78019919E+02</pdfrwt>
<totfact> 0.18530808E+05</totfact>
</mgrwt>
</event>
<event>
 8    1  0.1226832E-024  0.7963936E+02  0.7818608E-02  0.1330078E+00
         -1   -1    0    0    0  501 -0.00000000000E+00  0.00000000000E+00  0.41111477579E+02  0.41111477888E+02  0.50400000000E-02 0.  1.
          2   -1    0    0  501    0  0.00000000000E+00 -0.00000000000E+00 -0.38568470080E+02  0.38568470164E+02  0.25500000000E-02 0. -1.
         24    2    1    2    0    0 -0.17763568394E-14 -0.71054273576E-14  0.25430074992E+01  0.79679948053E+02  0.79639357321E+02 0.  0.
         66    2    3    3    0    0  0.13718441783E+02  0.33601753876E+02 -0.15055582603E+02  0.39343921400E+02  0.20000187862E+01 0.  0.
        -13    1    3    3    0    0 -0.13718441783E+02 -0.33601753876E+02  0.17598590102E+02  0.40336026652E+02  0.10566000000E+00 0.  1.
         13    1    4    4    0    0  0.70524025277E+01  0.18901695676E+02 -0.78757832220E+01  0.21657553099E+02  0.10566000000E+00 0. -1.
        -13    1    4    4    0    0  0.50478916922E+01  0.10323056837E+02 -0.53105685396E+01  0.12659384473E+02  0.10566000000E+00 0.  1.
        -14    1    4    4    0    0  0.16181475628E+01  0.43770013633E+01 -0.18692308412E+01  0.50269838280E+01  0.00000000000E+00 0.  1.
<mgrwt>
<rscale>  0 0.79639357E+02</rscale>
<asrwt>0</asrwt>
<pdfrwt beam="1">  1        2 0.59336108E-02 0.79639357E+02</pdfrwt>
<pdfrwt beam="2">  1       -1 0.63248428E-02 0.79639357E+02</pdfrwt>
<totfact> 0.14327302E+05</totfact>
</mgrwt>
</event>
<event>
 8    1  0.1226832E-024  0.8024078E+02  0.7818608E-02  0.1328370E+00
         -1   -1    0    0    0  501 -0.00000000000E+00  0.00000000000E+00  0.68782545443E+01  0.68782563909E+01  0.50400000000E-02 0.  1.
          2   -1    0    0  501    0  0.00000000000E+00 -0.00000000000E+00 -0.23401944047E+03  0.23401944049E+03  0.25500000000E-02 0. -1.
         24    2    1    2    0    0  0.88817841970E-15  0.00000000000E+00 -0.22714118593E+03  0.24089769688E+03  0.80240775270E+02 0.  0.
         66    2    3    3    0    0  0.67744518915E+01 -0.98289688920E+01 -0.22855600057E+03  0.22887627049E+03  0.19999921042E+01 0.  0.
        -13    1    3    3    0    0 -0.67744518915E+01  0.98289688920E+01  0.14148146416E+01  0.12021426389E+02  0.10566000000E+00 0.  1.
         13    1    4    4    0    0  0.32458955700E+01 -0.33896332150E+01 -0.94072276090E+02  0.94189329247E+02  0.10566000000E+00 0. -1.
        -13    1    4    4    0    0  0.27581432879E+01 -0.51385475643E+01 -0.11267550726E+03  0.11282638489E+03  0.10566000000E+00 0.  1.
        -14    1    4    4    0    0  0.77041303358E+00 -0.13007881127E+01 -0.21808217217E+02  0.21860556355E+02  0.00000000000E+00 0.  1.
<mgrwt>
<rscale>  0 0.80240775E+02</rscale>
<asrwt>0</asrwt>
<pdfrwt beam="1">  1        2 0.36002985E-01 0.80240775E+02</pdfrwt>
<pdfrwt beam="2">  1       -1 0.10581933E-02 0.80240775E+02</pdfrwt>
<totfact> 0.23128349E+05</totfact>
</mgrwt>
</event>
<event>
 8    1  0.1226832E-024  0.7931518E+02  0.7818608E-02  0.1331006E+00
         -1   -1    0    0    0  501 -0.00000000000E+00  0.00000000000E+00  0.16574811394E+02  0.16574812160E+02  0.50400000000E-02 0.  1.
          2   -1    0    0  501    0  0.00000000000E+00 -0.00000000000E+00 -0.94886404952E+02  0.94886404986E+02  0.25500000000E-02 0. -1.
         24    2    1    2    0    0 -0.71054273576E-14 -0.35527136788E-14 -0.78311593558E+02  0.11146121715E+03  0.79315176619E+02 0.  0.
         66    2    3    3    0    0 -0.32247607116E+02 -0.19756435141E+02 -0.55837635861E+02  0.67469003827E+02  0.20000011509E+01 0.  0.
        -13    1    3    3    0    0  0.32247607116E+02  0.19756435141E+02 -0.22473957697E+02  0.43992213320E+02  0.10566000000E+00 0.  1.
         13    1    4    4    0    0 -0.11944880826E+02 -0.81204637629E+01 -0.22188586514E+02  0.26475774686E+02  0.10566000000E+00 0. -1.
        -13    1    4    4    0    0 -0.16274382570E+02 -0.92884791949E+01 -0.26406785385E+02  0.32379945216E+02  0.10566000000E+00 0.  1.
         14    1    4    4    0    0 -0.40283437199E+01 -0.23474921828E+01 -0.72422639616E+01  0.86132839244E+01  0.00000000000E+00 0. -1.
<mgrwt>
<rscale>  0 0.79315177E+02</rscale>
<asrwt>0</asrwt>
<pdfrwt beam="1">  1        2 0.14597908E-01 0.79315177E+02</pdfrwt>
<pdfrwt beam="2">  1       -1 0.25499711E-02 0.79315177E+02</pdfrwt>
<totfact> 0.17877213E+05</totfact>
</mgrwt>
</event>
<event>
 8    1  0.1514079E-024  0.7989260E+02  0.7818608E-02  0.1329356E+00
          2   -1    0    0  501    0  0.00000000000E+00  0.00000000000E+00  0.12124113784E+03  0.12124113787E+03  0.25500000000E-02 0. -1.
         -1   -1    0    0    0  501 -0.00000000000E+00 -0.00000000000E+00 -0.13161431655E+02  0.13161432620E+02  0.50400000000E-02 0.  1.
         24    2    1    2    0    0  0.00000000000E+00  0.00000000000E+00  0.10807970619E+03  0.13440257049E+03  0.79892603314E+02 0.  0.
         66    2    3    3    0    0 -0.24162176752E+02 -0.27420389936E+02  0.81095917815E+02  0.88973234497E+02  0.20000002341E+01 0.  0.
        -13    1    3    3    0    0  0.24162176752E+02  0.27420389936E+02  0.26983788371E+02  0.45429335990E+02  0.10566000000E+00 0.  1.
         13    1    4    4    0    0 -0.13676277294E+02 -0.15364301306E+02  0.45697963433E+02  0.50114043353E+02  0.10566000000E+00 0. -1.
        -13    1    4    4    0    0 -0.76965862603E+01 -0.96115998750E+01  0.27746813265E+02  0.30356500171E+02  0.10566000000E+00 0.  1.
        -14    1    4    4    0    0 -0.27893131981E+01 -0.24444887550E+01  0.76511411170E+01  0.85026909730E+01  0.00000000000E+00 0.  1.
<mgrwt>
<rscale>  0 0.79892603E+02</rscale>
<asrwt>0</asrwt>
<pdfrwt beam="1">  1        2 0.18652483E-01 0.79892603E+02</pdfrwt>
<pdfrwt beam="2">  1       -1 0.20248357E-02 0.79892603E+02</pdfrwt>
<totfact> 0.18811505E+05</totfact>
</mgrwt>
</event>
<event>
 8    1  0.1226832E-024  0.8038259E+02  0.7818608E-02  0.1327969E+00
         -1   -1    0    0    0  501 -0.00000000000E+00  0.00000000000E+00  0.34606470737E+01  0.34606507437E+01  0.50400000000E-02 0.  1.
          2   -1    0    0  501    0  0.00000000000E+00 -0.00000000000E+00 -0.46677377756E+03  0.46677377757E+03  0.25500000000E-02 0. -1.
         24    2    1    2    0    0  0.00000000000E+00 -0.35527136788E-14 -0.46331313049E+03  0.47023442831E+03  0.80382589456E+02 0.  0.
         66    2    3    3    0    0  0.10382077174E+02 -0.19649980596E+02 -0.42752629339E+03  0.42810821157E+03  0.20000014568E+01 0.  0.
        -13    1    3    3    0    0 -0.10382077174E+02  0.19649980596E+02 -0.35786837094E+02  0.42126216743E+02  0.10566000000E+00 0.  1.
         13    1    4    4    0    0  0.21475854996E+01 -0.33928344035E+01 -0.69652676207E+02  0.69768401986E+02  0.10566000000E+00 0. -1.
        -13    1    4    4    0    0  0.42580964287E+01 -0.73882683989E+01 -0.17665625477E+03  0.17686198407E+03  0.10566000000E+00 0.  1.
        -14    1    4    4    0    0  0.39763952460E+01 -0.88688777935E+01 -0.18121736241E+03  0.18147782551E+03  0.00000000000E+00 0.  1.
<mgrwt>
<rscale>  0 0.80382589E+02</rscale>
<asrwt>0</asrwt>
<pdfrwt beam="1">  1        2 0.71811301E-01 0.80382589E+02</pdfrwt>
<pdfrwt beam="2">  1       -1 0.53240790E-03 0.80382589E+02</pdfrwt>
<totfact> 0.29410863E+05</totfact>
</mgrwt>
</event>
<event>
 8    1  0.1226832E-024  0.8056614E+02  0.7818608E-02  0.1327452E+00
         -1   -1    0    0    0  501 -0.00000000000E+00  0.00000000000E+00  0.56542524496E+02  0.56542524721E+02  0.50400000000E-02 0.  1.
          2   -1    0    0  501    0  0.00000000000E+00 -0.00000000000E+00 -0.28699210685E+02  0.28699210799E+02  0.25500000000E-02 0. -1.
         24    2    1    2    0    0  0.00000000000E+00  0.00000000000E+00  0.27843313810E+02  0.85241735519E+02  0.80566142705E+02 0.  0.
         66    2    3    3    0    0 -0.13903338848E+02 -0.37778501469E+02  0.14406760218E+02  0.42802718791E+02  0.19999978990E+01 0.  0.
        -13    1    3    3    0    0  0.13903338848E+02  0.37778501469E+02  0.13436553592E+02  0.42439016728E+02  0.10566000000E+00 0.  1.
         13    1    4    4    0    0 -0.42101489951E+01 -0.12637930667E+02  0.53476440840E+01  0.14354480394E+02  0.10566000000E+00 0.  1.
        -13    1    4    4    0    0 -0.41732730595E+01 -0.11284286693E+02  0.45937294816E+01  0.12878852774E+02  0.10566000000E+00 0. -1.
        -14    1    4    4    0    0 -0.55199167935E+01 -0.13856284109E+02  0.44653866526E+01  0.15569385623E+02  0.00000000000E+00 0.  1.
<mgrwt>
<rscale>  0 0.80566143E+02</rscale>
<asrwt>0</asrwt>
<pdfrwt beam="1">  1        2 0.44152632E-02 0.80566143E+02</pdfrwt>
<pdfrwt beam="2">  1       -1 0.86988499E-02 0.80566143E+02</pdfrwt>
<totfact> 0.13076337E+05</totfact>
</mgrwt>
</event>
<event>
 8    1  0.1226832E-024  0.7680204E+02  0.7818608E-02  0.1338380E+00
         -1   -1    0    0    0  501 -0.00000000000E+00  0.00000000000E+00  0.23106726709E+02  0.23106727259E+02  0.50400000000E-02 0.  1.
          2   -1    0    0  501    0  0.00000000000E+00 -0.00000000000E+00 -0.63818564272E+02  0.63818564323E+02  0.25500000000E-02 0. -1.
         24    2    1    2    0    0 -0.44408920985E-15  0.00000000000E+00 -0.40711837562E+02  0.86925291582E+02  0.76802035122E+02 0.  0.
         66    2    3    3    0    0  0.21752095112E+01  0.15245107370E+02 -0.60152247802E+02  0.62124373262E+02  0.20000006239E+01 0.  0.
        -13    1    3    3    0    0 -0.21752095112E+01 -0.15245107370E+02  0.19440410240E+02  0.24800918319E+02  0.10566000000E+00 0.  1.
         13    1    4    4    0    0  0.32700983188E-01  0.29511152860E+01 -0.12636222235E+02  0.12976726367E+02  0.10566000000E+00 0. -1.
        -13    1    4    4    0    0  0.44239680112E+00  0.52379854770E+01 -0.17981752785E+02  0.18734641818E+02  0.10566000000E+00 0.  1.
         14    1    4    4    0    0  0.17001117269E+01  0.70560066073E+01 -0.29534272781E+02  0.30413005078E+02  0.00000000000E+00 0. -1.
<mgrwt>
<rscale>  0 0.76802035E+02</rscale>
<asrwt>0</asrwt>
<pdfrwt beam="1">  1        2 0.98182406E-02 0.76802035E+02</pdfrwt>
<pdfrwt beam="2">  1       -1 0.35548811E-02 0.76802035E+02</pdfrwt>
<totfact> 0.17636458E+05</totfact>
</mgrwt>
</event>
<event>
 8    1  0.1226832E-024  0.7985762E+02  0.7818608E-02  0.1329456E+00
          2   -1    0    0  501    0  0.00000000000E+00  0.00000000000E+00  0.63484081003E+02  0.63484081055E+02  0.25500000000E-02 0. -1.
         -1   -1    0    0    0  501 -0.00000000000E+00 -0.00000000000E+00 -0.25113540408E+02  0.25113540914E+02  0.50400000000E-02 0.  1.
         24    2    1    2    0    0  0.00000000000E+00  0.00000000000E+00  0.38370540595E+02  0.88597621969E+02  0.79857624764E+02 0.  0.
         66    2    3    3    0    0 -0.17309725570E+02  0.33470698083E+01  0.58912844982E+02  0.61526846044E+02  0.20000011766E+01 0.  0.
        -13    1    3    3    0    0  0.17309725570E+02 -0.33470698083E+01 -0.20542304387E+02  0.27070775925E+02  0.10566000000E+00 0.  1.
         13    1    4    4    0    0 -0.43316668378E+01  0.13750027217E+01  0.13349010283E+02  0.14101815828E+02  0.10566000000E+00 0. -1.
        -13    1    4    4    0    0 -0.61461082693E+01  0.51068945247E+00  0.21083298607E+02  0.21967068415E+02  0.10566000000E+00 0.  1.
         14    1    4    4    0    0 -0.68319504629E+01  0.14613776341E+01  0.24480536092E+02  0.25457961801E+02  0.00000000000E+00 0. -1.
<mgrwt>
<rscale>  0 0.79857625E+02</rscale>
<asrwt>0</asrwt>
<pdfrwt beam="1">  1        2 0.97667817E-02 0.79857625E+02</pdfrwt>
<pdfrwt beam="2">  1       -1 0.38636217E-02 0.79857625E+02</pdfrwt>
<totfact> 0.15848967E+05</totfact>
</mgrwt>
</event>
<event>
 8    1  0.1226832E-024  0.7430819E+02  0.7818608E-02  0.1346027E+00
         -1   -1    0    0    0  501 -0.00000000000E+00  0.00000000000E+00  0.74153528953E+02  0.74153529124E+02  0.50400000000E-02 0.  1.
          2   -1    0    0  501    0  0.00000000000E+00 -0.00000000000E+00 -0.18615792066E+02  0.18615792241E+02  0.25500000000E-02 0. -1.
         24    2    1    2    0    0  0.00000000000E+00  0.00000000000E+00  0.55537736887E+02  0.92769321365E+02  0.74308187759E+02 0.  0.
         66    2    3    3    0    0  0.78597450636E+01 -0.29561872223E+02  0.15199584180E+01  0.30691858171E+02  0.20000006597E+01 0.  0.
        -13    1    3    3    0    0 -0.78597450636E+01  0.29561872223E+02  0.54017778469E+02  0.62077463193E+02  0.10566000000E+00 0.  1.
         13    1    4    4    0    0  0.26741735511E+01 -0.87268543854E+01  0.73240451050E+00  0.91573343309E+01  0.10566000000E+00 0. -1.
        -13    1    4    4    0    0  0.46604973201E+01 -0.16785913980E+02  0.96249687011E+00  0.17447770851E+02  0.10566000000E+00 0.  1.
        -14    1    4    4    0    0  0.52507419238E+00 -0.40491038572E+01 -0.17494296262E+00  0.40867529891E+01  0.00000000000E+00 0.  1.
<mgrwt>
<rscale>  0 0.74308188E+02</rscale>
<asrwt>0</asrwt>
<pdfrwt beam="1">  1        2 0.28639680E-02 0.74308188E+02</pdfrwt>
<pdfrwt beam="2">  1       -1 0.11408235E-01 0.74308188E+02</pdfrwt>
<totfact> 0.15115179E+05</totfact>
</mgrwt>
</event>
<event>
 8    1  0.1226832E-024  0.8072539E+02  0.7818608E-02  0.1327005E+00
         -1   -1    0    0    0  501 -0.00000000000E+00  0.00000000000E+00  0.60781999344E+01  0.60782020239E+01  0.50400000000E-02 0.  1.
          2   -1    0    0  501    0  0.00000000000E+00 -0.00000000000E+00 -0.26803112262E+03  0.26803112263E+03  0.25500000000E-02 0. -1.
         24    2    1    2    0    0 -0.17763568394E-14  0.00000000000E+00 -0.26195292268E+03  0.27410932465E+03  0.80725387331E+02 0.  0.
         66    2    3    3    0    0 -0.98248819226E+01  0.20788296890E+02 -0.24359636808E+03  0.24468729458E+03  0.19999994855E+01 0.  0.
        -13    1    3    3    0    0  0.98248819226E+01 -0.20788296890E+02 -0.18356554606E+02  0.29422030069E+02  0.10566000000E+00 0.  1.
         13    1    4    4    0    0 -0.48217248518E+01  0.11625481244E+02 -0.13884231127E+03  0.13941161863E+03  0.10566000000E+00 0. -1.
        -13    1    4    4    0    0 -0.28415677310E+01  0.51531851519E+01 -0.55337383964E+02  0.55649501816E+02  0.10566000000E+00 0.  1.
         14    1    4    4    0    0 -0.21615893398E+01  0.40096304940E+01 -0.49416672840E+02  0.49626174140E+02  0.00000000000E+00 0. -1.
<mgrwt>
<rscale>  0 0.80725387E+02</rscale>
<asrwt>0</asrwt>
<pdfrwt beam="1">  1        2 0.41235548E-01 0.80725387E+02</pdfrwt>
<pdfrwt beam="2">  1       -1 0.93510806E-03 0.80725387E+02</pdfrwt>
<totfact> 0.23901373E+05</totfact>
</mgrwt>
</event>
<event>
 8    1  0.1251077E-024  0.8037495E+02  0.7818608E-02  0.1327991E+00
         -1   -1    0    0    0  501 -0.00000000000E+00  0.00000000000E+00  0.20915923381E+01  0.20915984104E+01  0.50400000000E-02 0.  1.
          2   -1    0    0  501    0  0.00000000000E+00 -0.00000000000E+00 -0.77215371410E+03  0.77215371410E+03  0.25500000000E-02 0. -1.
         24    2    1    2    0    0  0.71054273576E-14  0.00000000000E+00 -0.77006212176E+03  0.77424531251E+03  0.80374949944E+02 0.  0.
         66    2    3    3    0    0 -0.34082042306E+02  0.11829158273E+02 -0.55528737267E+03  0.55646166160E+03  0.19999983252E+01 0.  0.
        -13    1    3    3    0    0  0.34082042306E+02 -0.11829158273E+02 -0.21477474909E+03  0.21778365091E+03  0.10566000000E+00 0.  1.
         13    1    4    4    0    0 -0.15078996044E+02  0.50333219841E+01 -0.24053854801E+03  0.24106330018E+03  0.10566000000E+00 0. -1.
        -13    1    4    4    0    0 -0.16825338902E+02  0.64693009463E+01 -0.27884919232E+03  0.27943125650E+03  0.10566000000E+00 0.  1.
        -14    1    4    4    0    0 -0.21777073599E+01  0.32653534288E+00 -0.35899632334E+02  0.35967104921E+02  0.00000000000E+00 0.  1.
<mgrwt>
<rscale>  0 0.80374950E+02</rscale>
<asrwt>0</asrwt>
<pdfrwt beam="1">  1        2 0.11879265E+00 0.80374950E+02</pdfrwt>
<pdfrwt beam="2">  1       -1 0.32178452E-03 0.80374950E+02</pdfrwt>
<totfact> 0.33733897E+05</totfact>
</mgrwt>
</event>
<event>
 8    1  0.1226832E-024  0.8026164E+02  0.7818608E-02  0.1328311E+00
          2   -1    0    0  501    0  0.00000000000E+00  0.00000000000E+00  0.98916338962E+03  0.98916338962E+03  0.25500000000E-02 0. -1.
         -1   -1    0    0    0  501 -0.00000000000E+00 -0.00000000000E+00 -0.16281220859E+01  0.16281298867E+01  0.50400000000E-02 0.  1.
         24    2    1    2    0    0  0.00000000000E+00  0.00000000000E+00  0.98753526753E+03  0.99079151951E+03  0.80261637843E+02 0.  0.
         66    2    3    3    0    0  0.17818451735E+02  0.52285012367E+01  0.93289345968E+03  0.93308040466E+03  0.20000006117E+01 0.  0.
        -13    1    3    3    0    0 -0.17818451735E+02 -0.52285012367E+01  0.54641807848E+02  0.57711114842E+02  0.10566000000E+00 0.  1.
         13    1    4    4    0    0  0.55121328805E+01  0.16928918763E+01  0.28147712096E+03  0.28153619711E+03  0.10566000000E+00 0. -1.
        -13    1    4    4    0    0  0.64165099704E+01  0.13895002120E+01  0.29859100289E+03  0.29866318903E+03  0.10566000000E+00 0.  1.
        -14    1    4    4    0    0  0.58898088837E+01  0.21461091484E+01  0.35282533583E+03  0.35288101853E+03  0.00000000000E+00 0.  1.
<mgrwt>
<rscale>  0 0.80261638E+02</rscale>
<asrwt>0</asrwt>
<pdfrwt beam="1">  1        2 0.15217945E+00 0.80261638E+02</pdfrwt>
<pdfrwt beam="2">  1       -1 0.25048015E-03 0.80261638E+02</pdfrwt>
<totfact> 0.34916358E+05</totfact>
</mgrwt>
</event>
<event>
 8    1  0.1226832E-024  0.7770231E+02  0.7818608E-02  0.1335701E+00
          2   -1    0    0  501    0  0.00000000000E+00  0.00000000000E+00  0.19881835625E+03  0.19881835626E+03  0.25500000000E-02 0. -1.
         -1   -1    0    0    0  501 -0.00000000000E+00 -0.00000000000E+00 -0.75919157659E+01  0.75919174389E+01  0.50400000000E-02 0.  1.
         24    2    1    2    0    0 -0.17763568394E-14  0.00000000000E+00  0.19122644048E+03  0.20641027370E+03  0.77702313677E+02 0.  0.
         66    2    3    3    0    0  0.10517674255E+02 -0.34767638856E+02  0.13209917249E+03  0.13701679297E+03  0.20000003339E+01 0.  0.
        -13    1    3    3    0    0 -0.10517674255E+02  0.34767638856E+02  0.59127267994E+02  0.69393480730E+02  0.10566000000E+00 0.  1.
         13    1    4    4    0    0  0.30791606263E+01 -0.10579978238E+02  0.38208783199E+02  0.39766058986E+02  0.10566000000E+00 0. -1.
        -13    1    4    4    0    0  0.16699100888E+00 -0.29293090901E+00  0.17363767589E+01  0.17719658008E+01  0.10566000000E+00 0.  1.
         14    1    4    4    0    0  0.72715226200E+01 -0.23894729709E+02  0.92154012529E+02  0.95478768186E+02  0.00000000000E+00 0. -1.
<mgrwt>
<rscale>  0 0.77702314E+02</rscale>
<asrwt>0</asrwt>
<pdfrwt beam="1">  1        2 0.30587432E-01 0.77702314E+02</pdfrwt>
<pdfrwt beam="2">  1       -1 0.11679874E-02 0.77702314E+02</pdfrwt>
<totfact> 0.23770159E+05</totfact>
</mgrwt>
</event>
<event>
 8    1  0.1226832E-024  0.7929608E+02  0.7818608E-02  0.1331061E+00
          2   -1    0    0  501    0  0.00000000000E+00  0.00000000000E+00  0.12523359330E+03  0.12523359332E+03  0.25500000000E-02 0. -1.
         -1   -1    0    0    0  501 -0.00000000000E+00 -0.00000000000E+00 -0.12552279979E+02  0.12552280991E+02  0.50400000000E-02 0.  1.
         24    2    1    2    0    0  0.00000000000E+00  0.00000000000E+00  0.11268131332E+03  0.13778587431E+03  0.79296083064E+02 0.  0.
         66    2    3    3    0    0 -0.29347955882E+01  0.13737350586E+02  0.12075334848E+03  0.12158412311E+03  0.19999993455E+01 0.  0.
        -13    1    3    3    0    0  0.29347955882E+01 -0.13737350586E+02 -0.80720351630E+01  0.16201751201E+02  0.10566000000E+00 0.  1.
         13    1    4    4    0    0  0.18277374623E+00  0.52101349269E+00  0.40220088227E+01  0.40611057986E+01  0.10566000000E+00 0. -1.
        -13    1    4    4    0    0 -0.31305905443E+00  0.27761428411E+01  0.26048556401E+02  0.26198156990E+02  0.10566000000E+00 0. -1.
         14    1    4    4    0    0 -0.28045102800E+01  0.10440194253E+02  0.90682783256E+02  0.91324860323E+02  0.00000000000E+00 0. -1.
<mgrwt>
<rscale>  0 0.79296083E+02</rscale>
<asrwt>0</asrwt>
<pdfrwt beam="1">  1        2 0.19266708E-01 0.79296083E+02</pdfrwt>
<pdfrwt beam="2">  1       -1 0.19311200E-02 0.79296083E+02</pdfrwt>
<totfact> 0.19379536E+05</totfact>
</mgrwt>
</event>
<event>
 8    1  0.1226832E-024  0.7168401E+02  0.7818608E-02  0.1354458E+00
         -1   -1    0    0    0  501 -0.00000000000E+00  0.00000000000E+00  0.26857446828E+02  0.26857447301E+02  0.50400000000E-02 0.  1.
          2   -1    0    0  501    0  0.00000000000E+00 -0.00000000000E+00 -0.47832141487E+02  0.47832141555E+02  0.25500000000E-02 0. -1.
         24    2    1    2    0    0  0.00000000000E+00  0.00000000000E+00 -0.20974694658E+02  0.74689588856E+02  0.71684007055E+02 0.  0.
         66    2    3    3    0    0 -0.22259616192E+02  0.85430122778E+01 -0.38339951476E+02  0.45193201278E+02  0.19999976915E+01 0.  0.
        -13    1    3    3    0    0  0.22259616192E+02 -0.85430122778E+01  0.17365256817E+02  0.29496387578E+02  0.10566000000E+00 0.  1.
         13    1    4    4    0    0 -0.46257142704E+01  0.21942069206E+01 -0.77390024152E+01  0.92798221395E+01  0.10566000000E+00 0. -1.
        -13    1    4    4    0    0 -0.15658211523E+02  0.61042427034E+01 -0.27272124507E+02  0.32034689108E+02  0.10566000000E+00 0.  1.
        -14    1    4    4    0    0 -0.19756903982E+01  0.24456265385E+00 -0.33288245532E+01  0.38786900298E+01  0.00000000000E+00 0.  1.
<mgrwt>
<rscale>  0 0.71684007E+02</rscale>
<asrwt>0</asrwt>
<pdfrwt beam="1">  1        2 0.73587910E-02 0.71684007E+02</pdfrwt>
<pdfrwt beam="2">  1       -1 0.41319150E-02 0.71684007E+02</pdfrwt>
<totfact> 0.19948723E+05</totfact>
</mgrwt>
</event>
<event>
 8    1  0.1226832E-024  0.8018800E+02  0.7818608E-02  0.1328519E+00
          2   -1    0    0  501    0  0.00000000000E+00  0.00000000000E+00  0.19798884696E+03  0.19798884698E+03  0.25500000000E-02 0. -1.
         -1   -1    0    0    0  501 -0.00000000000E+00 -0.00000000000E+00 -0.81192880886E+01  0.81192896528E+01  0.50400000000E-02 0.  1.
         24    2    1    2    0    0  0.00000000000E+00  0.88817841970E-15  0.18986955888E+03  0.20610813663E+03  0.80187995354E+02 0.  0.
         66    2    3    3    0    0  0.37009028573E+02  0.52300898890E+01  0.13210790686E+03  0.13730812469E+03  0.20000035341E+01 0.  0.
        -13    1    3    3    0    0 -0.37009028573E+02 -0.52300898890E+01  0.57761652018E+02  0.68800011948E+02  0.10566000000E+00 0.  1.
         13    1    4    4    0    0  0.18137853761E+02  0.25649290310E+01  0.68240848511E+02  0.70656812619E+02  0.10566000000E+00 0. -1.
        -13    1    4    4    0    0  0.39220744839E+01  0.41896469747E+00  0.13084615913E+02  0.13666621283E+02  0.10566000000E+00 0. -1.
         14    1    4    4    0    0  0.14949100328E+02  0.22461961605E+01  0.50782442435E+02  0.52984690784E+02  0.00000000000E+00 0. -1.
<mgrwt>
<rscale>  0 0.80187995E+02</rscale>
<asrwt>0</asrwt>
<pdfrwt beam="1">  1        2 0.30459817E-01 0.80187995E+02</pdfrwt>
<pdfrwt beam="2">  1       -1 0.12491216E-02 0.80187995E+02</pdfrwt>
<totfact> 0.21845589E+05</totfact>
</mgrwt>
</event>
<event>
 8    1  0.1226832E-024  0.7994773E+02  0.7818608E-02  0.1329200E+00
          2   -1    0    0  501    0  0.00000000000E+00  0.00000000000E+00  0.58061479177E+03  0.58061479178E+03  0.25500000000E-02 0. -1.
         -1   -1    0    0    0  501 -0.00000000000E+00 -0.00000000000E+00 -0.27520977877E+01  0.27521024026E+01  0.50400000000E-02 0.  1.
         24    2    1    2    0    0  0.00000000000E+00  0.00000000000E+00  0.57786269399E+03  0.58336689418E+03  0.79947733718E+02 0.  0.
         66    2    3    3    0    0  0.25528618861E+02  0.25521789884E+02  0.41397805773E+03  0.41555373229E+03  0.19999992838E+01 0.  0.
        -13    1    3    3    0    0 -0.25528618861E+02 -0.25521789884E+02  0.16388463625E+03  0.16781316189E+03  0.10566000000E+00 0.  1.
         13    1    4    4    0    0  0.10116282919E+02  0.10134857403E+02  0.17384978862E+03  0.17443856994E+03  0.10566000000E+00 0. -1.
        -13    1    4    4    0    0  0.62803658398E+01  0.60314898051E+01  0.92227400119E+02  0.92637607704E+02  0.10566000000E+00 0.  1.
         14    1    4    4    0    0  0.91319701020E+01  0.93554426765E+01  0.14790086899E+03  0.14847755465E+03  0.00000000000E+00 0. -1.
<mgrwt>
<rscale>  0 0.79947734E+02</rscale>
<asrwt>0</asrwt>
<pdfrwt beam="1">  1        2 0.89325299E-01 0.79947734E+02</pdfrwt>
<pdfrwt beam="2">  1       -1 0.42340027E-03 0.79947734E+02</pdfrwt>
<totfact> 0.31920488E+05</totfact>
</mgrwt>
</event>
<event>
 8    1  0.1226832E-024  0.7712120E+02  0.7818608E-02  0.1337425E+00
         -1   -1    0    0    0  501 -0.00000000000E+00  0.00000000000E+00  0.31152300648E+02  0.31152301055E+02  0.50400000000E-02 0.  1.
          2   -1    0    0  501    0  0.00000000000E+00 -0.00000000000E+00 -0.47730659922E+02  0.47730659990E+02  0.25500000000E-02 0. -1.
         24    2    1    2    0    0  0.00000000000E+00 -0.17763568394E-14 -0.16578359274E+02  0.78882961045E+02  0.77121200373E+02 0.  0.
         66    2    3    3    0    0 -0.12855416360E+02  0.15046565153E+02 -0.42114457157E+02  0.46575619591E+02  0.19999964949E+01 0.  0.
        -13    1    3    3    0    0  0.12855416360E+02 -0.15046565153E+02  0.25536097883E+02  0.32307341454E+02  0.10566000000E+00 0.  1.
         13    1    4    4    0    0 -0.21798751051E+01  0.27045441577E+01 -0.63084015792E+01  0.72023266445E+01  0.10566000000E+00 0.  1.
        -13    1    4    4    0    0 -0.66837829251E+01  0.67175460900E+01 -0.20384992512E+02  0.22480157103E+02  0.10566000000E+00 0. -1.
         14    1    4    4    0    0 -0.39917583294E+01  0.56244749056E+01 -0.15421063066E+02  0.16893135843E+02  0.00000000000E+00 0. -1.
<mgrwt>
<rscale>  0 0.77121200E+02</rscale>
<asrwt>0</asrwt>
<pdfrwt beam="1">  1        2 0.73431784E-02 0.77121200E+02</pdfrwt>
<pdfrwt beam="2">  1       -1 0.47926617E-02 0.77121200E+02</pdfrwt>
<totfact> 0.16354552E+05</totfact>
</mgrwt>
</event>
<event>
 8    1  0.1226832E-024  0.8128559E+02  0.7818608E-02  0.1325442E+00
          2   -1    0    0  501    0  0.00000000000E+00  0.00000000000E+00  0.10547050048E+02  0.10547050356E+02  0.25500000000E-02 0. -1.
         -1   -1    0    0    0  501 -0.00000000000E+00 -0.00000000000E+00 -0.15661598675E+03  0.15661598683E+03  0.50400000000E-02 0.  1.
         24    2    1    2    0    0  0.00000000000E+00  0.35527136788E-14 -0.14606893670E+03  0.16716303719E+03  0.81285587483E+02 0.  0.
         66    2    3    3    0    0 -0.11650667938E+02 -0.25908883817E+02 -0.13375719234E+02  0.31462965521E+02  0.20000025827E+01 0.  0.
        -13    1    3    3    0    0  0.11650667938E+02  0.25908883817E+02 -0.13269321747E+03  0.13570007167E+03  0.10566000000E+00 0.  1.
         13    1    4    4    0    0 -0.18461097863E+01 -0.46714439423E+01 -0.17965085096E+01  0.53356458569E+01  0.10566000000E+00 0. -1.
        -13    1    4    4    0    0 -0.24916522091E+01 -0.64920691159E+01 -0.37440735815E+01  0.78983886430E+01  0.10566000000E+00 0.  1.
         14    1    4    4    0    0 -0.73129059430E+01 -0.14745370759E+02 -0.78351371424E+01  0.18228931021E+02  0.00000000000E+00 0. -1.
<mgrwt>
<rscale>  0 0.81285587E+02</rscale>
<asrwt>0</asrwt>
<pdfrwt beam="1">  1        2 0.16226232E-02 0.81285587E+02</pdfrwt>
<pdfrwt beam="2">  1       -1 0.24094766E-01 0.81285587E+02</pdfrwt>
<totfact> 0.10246000E+05</totfact>
</mgrwt>
</event>
<event>
 8    1  0.1226832E-024  0.8086040E+02  0.7818608E-02  0.1326627E+00
          2   -1    0    0  501    0  0.00000000000E+00  0.00000000000E+00  0.11160347469E+04  0.11160347469E+04  0.25500000000E-02 0. -1.
         -1   -1    0    0    0  501 -0.00000000000E+00 -0.00000000000E+00 -0.14646462116E+01  0.14646548832E+01  0.50400000000E-02 0.  1.
         24    2    1    2    0    0  0.35527136788E-14  0.00000000000E+00  0.11145701007E+04  0.11174994018E+04  0.80860396016E+02 0.  0.
         66    2    3    3    0    0  0.28614736905E+02  0.38530352725E+00  0.95183602132E+03  0.95226822017E+03  0.20000084468E+01 0.  0.
        -13    1    3    3    0    0 -0.28614736905E+02 -0.38530352725E+00  0.16273407939E+03  0.16523118164E+03  0.10566000000E+00 0.  1.
         13    1    4    4    0    0  0.83446517095E+01 -0.93379220692E-01  0.25529919287E+03  0.25543557109E+03  0.10566000000E+00 0. -1.
        -13    1    4    4    0    0  0.19812356974E+02  0.60637594922E+00  0.68246528368E+03  0.68275308258E+03  0.10566000000E+00 0.  1.
        -14    1    4    4    0    0  0.45772822161E+00 -0.12769320127E+00  0.14071544767E+02  0.14079566499E+02  0.00000000000E+00 0.  1.
<mgrwt>
<rscale>  0 0.80860396E+02</rscale>
<asrwt>0</asrwt>
<pdfrwt beam="1">  1        2 0.17169714E+00 0.80860396E+02</pdfrwt>
<pdfrwt beam="2">  1       -1 0.22533153E-03 0.80860396E+02</pdfrwt>
<totfact> 0.34267088E+05</totfact>
</mgrwt>
</event>
<event>
 8    1  0.1226832E-024  0.8087779E+02  0.7818608E-02  0.1326579E+00
          2   -1    0    0  501    0  0.00000000000E+00  0.00000000000E+00  0.31390204475E+02  0.31390204578E+02  0.25500000000E-02 0. -1.
         -1   -1    0    0    0  501 -0.00000000000E+00 -0.00000000000E+00 -0.52095999937E+02  0.52096000180E+02  0.50400000000E-02 0.  1.
         24    2    1    2    0    0  0.00000000000E+00  0.00000000000E+00 -0.20705795462E+02  0.83486204759E+02  0.80877786934E+02 0.  0.
         66    2    3    3    0    0  0.30878762713E+02  0.19981689847E+02  0.69300959500E+01  0.37480557562E+02  0.20000123794E+01 0.  0.
        -13    1    3    3    0    0 -0.30878762713E+02 -0.19981689847E+02 -0.27635891412E+02  0.46005647196E+02  0.10566000000E+00 0.  1.
         13    1    4    4    0    0  0.10595891340E+02  0.63344586063E+01  0.27941819790E+01  0.12657681307E+02  0.10566000000E+00 0. -1.
        -13    1    4    4    0    0  0.14228854317E+02  0.94189084946E+01  0.34226698411E+01  0.17404078984E+02  0.10566000000E+00 0.  1.
        -14    1    4    4    0    0  0.60540170564E+01  0.42283227459E+01  0.71324412996E+00  0.74187972712E+01  0.00000000000E+00 0.  1.
<mgrwt>
<rscale>  0 0.80877787E+02</rscale>
<asrwt>0</asrwt>
<pdfrwt beam="1">  1        2 0.48292623E-02 0.80877787E+02</pdfrwt>
<pdfrwt beam="2">  1       -1 0.80147693E-02 0.80877787E+02</pdfrwt>
<totfact> 0.13167882E+05</totfact>
</mgrwt>
</event>
<event>
 8    1  0.1226832E-024  0.7989295E+02  0.7818608E-02  0.1329355E+00
          2   -1    0    0  501    0  0.00000000000E+00  0.00000000000E+00  0.88736493293E+03  0.88736493293E+03  0.25500000000E-02 0. -1.
         -1   -1    0    0    0  501 -0.00000000000E+00 -0.00000000000E+00 -0.17982656232E+01  0.17982726860E+01  0.50400000000E-02 0.  1.
         24    2    1    2    0    0 -0.35527136788E-14  0.00000000000E+00  0.88556666731E+03  0.88916320562E+03  0.79892953275E+02 0.  0.
         66    2    3    3    0    0  0.28024117045E+02  0.89974772286E+01  0.74322689584E+03  0.74381215664E+03  0.19999853452E+01 0.  0.
        -13    1    3    3    0    0 -0.28024117045E+02 -0.89974772286E+01  0.14233977147E+03  0.14535104898E+03  0.10566000000E+00 0.  1.
         13    1    4    4    0    0  0.21878395551E+01  0.59184850695E+00  0.54335842193E+02  0.54383194440E+02  0.10566000000E+00 0.  1.
        -13    1    4    4    0    0  0.19676618336E+02  0.68972966780E+01  0.51264837603E+03  0.51307222749E+03  0.10566000000E+00 0.  1.
         14    1    4    4    0    0  0.61596591536E+01  0.15083320436E+01  0.17624267761E+03  0.17635673471E+03  0.00000000000E+00 0. -1.
<mgrwt>
<rscale>  0 0.79892953E+02</rscale>
<asrwt>0</asrwt>
<pdfrwt beam="1">  1        2 0.13651801E+00 0.79892953E+02</pdfrwt>
<pdfrwt beam="2">  1       -1 0.27665613E-03 0.79892953E+02</pdfrwt>
<totfact> 0.35011747E+05</totfact>
</mgrwt>
</event>
<event>
 8    1  0.1226832E-024  0.7967769E+02  0.7818608E-02  0.1329969E+00
         -1   -1    0    0    0  501 -0.00000000000E+00  0.00000000000E+00  0.31834608719E+01  0.31834648615E+01  0.50400000000E-02 0.  1.
          2   -1    0    0  501    0  0.00000000000E+00 -0.00000000000E+00 -0.49855564621E+03  0.49855564621E+03  0.25500000000E-02 0. -1.
         24    2    1    2    0    0  0.00000000000E+00  0.00000000000E+00 -0.49537218533E+03  0.50173911107E+03  0.79677685575E+02 0.  0.
         66    2    3    3    0    0  0.17703489782E+02  0.35559161400E+02 -0.26480998046E+03  0.26778012109E+03  0.19999986041E+01 0.  0.
        -13    1    3    3    0    0 -0.17703489782E+02 -0.35559161400E+02 -0.23056220488E+03  0.23395898998E+03  0.10566000000E+00 0.  1.
         13    1    4    4    0    0  0.74154919543E+01  0.16310673230E+02 -0.11458397687E+03  0.11597640493E+03  0.10566000000E+00 0. -1.
        -13    1    4    4    0    0  0.34981845912E+01  0.67576384852E+01 -0.53390010920E+02  0.53929652357E+02  0.10566000000E+00 0.  1.
         14    1    4    4    0    0  0.67898132366E+01  0.12490849684E+02 -0.96835992667E+02  0.97874063803E+02  0.00000000000E+00 0. -1.
<mgrwt>
<rscale>  0 0.79677686E+02</rscale>
<asrwt>0</asrwt>
<pdfrwt beam="1">  1        2 0.76700807E-01 0.79677686E+02</pdfrwt>
<pdfrwt beam="2">  1       -1 0.48976392E-03 0.79677686E+02</pdfrwt>
<totfact> 0.30744984E+05</totfact>
</mgrwt>
</event>
<event>
 8    1  0.1226832E-024  0.8401015E+02  0.7818608E-02  0.1318042E+00
          2   -1    0    0  501    0  0.00000000000E+00  0.00000000000E+00  0.16720707920E+04  0.16720707920E+04  0.25500000000E-02 0. -1.
         -1   -1    0    0    0  501 -0.00000000000E+00 -0.00000000000E+00 -0.10552282616E+01  0.10552402976E+01  0.50400000000E-02 0.  1.
         24    2    1    2    0    0  0.00000000000E+00 -0.17763568394E-14  0.16710155637E+04  0.16731260323E+04  0.84010152376E+02 0.  0.
         66    2    3    3    0    0  0.11705304587E+02 -0.96680952335E+01  0.16154817131E+04  0.16155542862E+04  0.19999993125E+01 0.  0.
        -13    1    3    3    0    0 -0.11705304587E+02  0.96680952335E+01  0.55533850606E+02  0.57571746092E+02  0.10566000000E+00 0.  1.
         13    1    4    4    0    0  0.47589936986E+01 -0.43030094027E+01  0.67686574187E+03  0.67689615717E+03  0.10566000000E+00 0. -1.
        -13    1    4    4    0    0  0.53511313851E+01 -0.47172461343E+01  0.71820597322E+03  0.71824140660E+03  0.10566000000E+00 0.  1.
         14    1    4    4    0    0  0.15951795033E+01 -0.64783969652E+00  0.22040999803E+03  0.22041672242E+03  0.00000000000E+00 0. -1.
<mgrwt>
<rscale>  0 0.84010152E+02</rscale>
<asrwt>0</asrwt>
<pdfrwt beam="1">  1        2 0.25724156E+00 0.84010152E+02</pdfrwt>
<pdfrwt beam="2">  1       -1 0.16234380E-03 0.84010152E+02</pdfrwt>
<totfact> 0.27840683E+05</totfact>
</mgrwt>
</event>
<event>
 8    1  0.1226832E-024  0.8095450E+02  0.7818608E-02  0.1326364E+00
          2   -1    0    0  501    0  0.00000000000E+00  0.00000000000E+00  0.15970838618E+03  0.15970838620E+03  0.25500000000E-02 0. -1.
         -1   -1    0    0    0  501 -0.00000000000E+00 -0.00000000000E+00 -0.10258746061E+02  0.10258747299E+02  0.50400000000E-02 0.  1.
         24    2    1    2    0    0 -0.35527136788E-14  0.35527136788E-14  0.14944964012E+03  0.16996713350E+03  0.80954502891E+02 0.  0.
         66    2    3    3    0    0 -0.20208871327E+02  0.15325506315E+02  0.14093520829E+03  0.14321313683E+03  0.20000008928E+01 0.  0.
        -13    1    3    3    0    0  0.20208871327E+02 -0.15325506315E+02  0.85144318354E+01  0.26753996666E+02  0.10566000000E+00 0.  1.
         13    1    4    4    0    0 -0.23635348285E+00  0.17001308821E+00  0.22360319185E+01  0.22573812693E+01  0.10566000000E+00 0.  1.
        -13    1    4    4    0    0 -0.31228156581E+01  0.20186062746E+01  0.18042604341E+02  0.18422092290E+02  0.10566000000E+00 0. -1.
         14    1    4    4    0    0 -0.16849702186E+02  0.13136886952E+02  0.12065657203E+03  0.12253366328E+03  0.00000000000E+00 0. -1.
<mgrwt>
<rscale>  0 0.80954503E+02</rscale>
<asrwt>0</asrwt>
<pdfrwt beam="1">  1        2 0.24570519E-01 0.80954503E+02</pdfrwt>
<pdfrwt beam="2">  1       -1 0.15782688E-02 0.80954503E+02</pdfrwt>
<totfact> 0.19809674E+05</totfact>
</mgrwt>
</event>
<event>
 8    1  0.1226832E-024  0.7903374E+02  0.7818608E-02  0.1331816E+00
          2   -1    0    0  501    0  0.00000000000E+00  0.00000000000E+00  0.21016670949E+03  0.21016670951E+03  0.25500000000E-02 0. -1.
         -1   -1    0    0    0  501 -0.00000000000E+00 -0.00000000000E+00 -0.74302099817E+01  0.74302116910E+01  0.50400000000E-02 0.  1.
         24    2    1    2    0    0  0.00000000000E+00  0.00000000000E+00  0.20273649951E+03  0.21759692120E+03  0.79033738880E+02 0.  0.
         66    2    3    3    0    0  0.38491714544E+02  0.22925109415E+01  0.77956216457E+02  0.86994479040E+02  0.20000010338E+01 0.  0.
        -13    1    3    3    0    0 -0.38491714544E+02 -0.22925109415E+01  0.12478028305E+03  0.13060244216E+03  0.10566000000E+00 0.  1.
         13    1    4    4    0    0  0.16949896144E+02  0.13272360820E+01  0.35556227797E+02  0.39412143231E+02  0.10566000000E+00 0. -1.
        -13    1    4    4    0    0  0.58105048270E+01  0.62148514214E+00  0.10714910905E+02  0.12205273035E+02  0.10566000000E+00 0.  1.
         14    1    4    4    0    0  0.15731313573E+02  0.34378971735E+00  0.31685077756E+02  0.35377062773E+02  0.00000000000E+00 0. -1.
<mgrwt>
<rscale>  0 0.79033739E+02</rscale>
<asrwt>0</asrwt>
<pdfrwt beam="1">  1        2 0.32333341E-01 0.79033739E+02</pdfrwt>
<pdfrwt beam="2">  1       -1 0.11431093E-02 0.79033739E+02</pdfrwt>
<totfact> 0.23173627E+05</totfact>
</mgrwt>
</event>
<event>
 8    1  0.1226832E-024  0.8003369E+02  0.7818608E-02  0.1328956E+00
          2   -1    0    0  501    0  0.00000000000E+00  0.00000000000E+00  0.12567328045E+02  0.12567328304E+02  0.25500000000E-02 0. -1.
         -1   -1    0    0    0  501 -0.00000000000E+00 -0.00000000000E+00 -0.12742151847E+03  0.12742151857E+03  0.50400000000E-02 0.  1.
         24    2    1    2    0    0  0.00000000000E+00  0.00000000000E+00 -0.11485419042E+03  0.13998884687E+03  0.80033694098E+02 0.  0.
         66    2    3    3    0    0 -0.21611641559E+01  0.35652970681E+02 -0.26001074759E+02  0.44225115344E+02  0.19999974252E+01 0.  0.
        -13    1    3    3    0    0  0.21611641559E+01 -0.35652970681E+02 -0.88853115666E+02  0.95763731530E+02  0.10566000000E+00 0.  1.
         13    1    4    4    0    0 -0.48056712181E+00  0.21775266399E+02 -0.15641015132E+02  0.26815027315E+02  0.10566000000E+00 0. -1.
        -13    1    4    4    0    0 -0.12070961647E+01  0.10613134457E+02 -0.82088576173E+01  0.13471904526E+02  0.10566000000E+00 0.  1.
         14    1    4    4    0    0 -0.47350086947E+00  0.32645698251E+01 -0.21512020097E+01  0.39381835029E+01  0.00000000000E+00 0. -1.
<mgrwt>
<rscale>  0 0.80033694E+02</rscale>
<asrwt>0</asrwt>
<pdfrwt beam="1">  1        2 0.19334352E-02 0.80033694E+02</pdfrwt>
<pdfrwt beam="2">  1       -1 0.19603310E-01 0.80033694E+02</pdfrwt>
<totfact> 0.11214963E+05</totfact>
</mgrwt>
</event>
<event>
 8    1  0.1226832E-024  0.8037258E+02  0.7818608E-02  0.1327997E+00
          2   -1    0    0  501    0  0.00000000000E+00  0.00000000000E+00  0.49274096364E+03  0.49274096364E+03  0.25500000000E-02 0. -1.
         -1   -1    0    0    0  501 -0.00000000000E+00 -0.00000000000E+00 -0.32774565186E+01  0.32774603938E+01  0.50400000000E-02 0.  1.
         24    2    1    2    0    0  0.88817841970E-15  0.00000000000E+00  0.48946350712E+03  0.49601842404E+03  0.80372583534E+02 0.  0.
         66    2    3    3    0    0  0.74101962777E+01 -0.25046620819E+02  0.43315764774E+03  0.43394906615E+03  0.19999999773E+01 0.  0.
        -13    1    3    3    0    0 -0.74101962777E+01  0.25046620819E+02  0.56305859383E+02  0.62069357884E+02  0.10566000000E+00 0.  1.
         13    1    4    4    0    0  0.10659930840E+01 -0.32303196988E+01  0.49488732889E+02  0.49605616149E+02  0.10566000000E+00 0. -1.
        -13    1    4    4    0    0  0.11886802071E+01 -0.28495312569E+01  0.47306464396E+02  0.47407230743E+02  0.10566000000E+00 0.  1.
         14    1    4    4    0    0  0.51555229866E+01 -0.18966769863E+02  0.33636245045E+03  0.33693621926E+03  0.00000000000E+00 0. -1.
<mgrwt>
<rscale>  0 0.80372584E+02</rscale>
<asrwt>0</asrwt>
<pdfrwt beam="1">  1        2 0.75806268E-01 0.80372584E+02</pdfrwt>
<pdfrwt beam="2">  1       -1 0.50422461E-03 0.80372584E+02</pdfrwt>
<totfact> 0.29944221E+05</totfact>
</mgrwt>
</event>
<event>
 8    1  0.1226832E-024  0.7952554E+02  0.7818608E-02  0.1330403E+00
         -1   -1    0    0    0  501 -0.00000000000E+00  0.00000000000E+00  0.23606118254E+01  0.23606172057E+01  0.50400000000E-02 0.  1.
          2   -1    0    0  501    0  0.00000000000E+00 -0.00000000000E+00 -0.66977378828E+03  0.66977378828E+03  0.25500000000E-02 0. -1.
         24    2    1    2    0    0 -0.88817841970E-15 -0.35527136788E-14 -0.66741317645E+03  0.67213440549E+03  0.79525536394E+02 0.  0.
         66    2    3    3    0    0  0.46295782942E+01  0.25625834525E+02 -0.58760592611E+03  0.58818605970E+03  0.20000071490E+01 0.  0.
        -13    1    3    3    0    0 -0.46295782942E+01 -0.25625834525E+02 -0.79807250336E+02  0.83948345788E+02  0.10566000000E+00 0.  1.
         13    1    4    4    0    0  0.44567048985E+01  0.22073391592E+02 -0.51377708857E+03  0.51427036152E+03  0.10566000000E+00 0. -1.
        -13    1    4    4    0    0  0.28727857767E+00  0.26862264216E+01 -0.54066887328E+02  0.54134442001E+02  0.10566000000E+00 0.  1.
        -14    1    4    4    0    0 -0.11440518198E+00  0.86621651098E+00 -0.19761950212E+02  0.19781256173E+02  0.00000000000E+00 0.  1.
<mgrwt>
<rscale>  0 0.79525536E+02</rscale>
<asrwt>0</asrwt>
<pdfrwt beam="1">  1        2 0.10304197E+00 0.79525536E+02</pdfrwt>
<pdfrwt beam="2">  1       -1 0.36317200E-03 0.79525536E+02</pdfrwt>
<totfact> 0.33619755E+05</totfact>
</mgrwt>
</event>
<event>
 8    1  0.1226832E-024  0.7996622E+02  0.7818608E-02  0.1329147E+00
          2   -1    0    0  501    0  0.00000000000E+00  0.00000000000E+00  0.45308175831E+03  0.45308175831E+03  0.25500000000E-02 0. -1.
         -1   -1    0    0    0  501 -0.00000000000E+00 -0.00000000000E+00 -0.35283881364E+01  0.35283917360E+01  0.50400000000E-02 0.  1.
         24    2    1    2    0    0  0.00000000000E+00  0.00000000000E+00  0.44955337017E+03  0.45661015005E+03  0.79966220975E+02 0.  0.
         66    2    3    3    0    0  0.74889768140E+01 -0.16290746950E+02  0.42881969912E+03  0.42919903024E+03  0.19999990846E+01 0.  0.
        -13    1    3    3    0    0 -0.74889768140E+01  0.16290746950E+02  0.20733671049E+02  0.27411119808E+02  0.10566000000E+00 0.  1.
         13    1    4    4    0    0  0.26343689033E+01 -0.69373022715E+01  0.19660262039E+03  0.19674264299E+03  0.10566000000E+00 0. -1.
        -13    1    4    4    0    0  0.33512267539E+01 -0.67274676694E+01  0.16787260372E+03  0.16804080394E+03  0.10566000000E+00 0.  1.
        -14    1    4    4    0    0  0.15033811568E+01 -0.26259770092E+01  0.64344475002E+02  0.64415583312E+02  0.00000000000E+00 0.  1.
<mgrwt>
<rscale>  0 0.79966221E+02</rscale>
<asrwt>0</asrwt>
<pdfrwt beam="1">  1        2 0.69704913E-01 0.79966221E+02</pdfrwt>
<pdfrwt beam="2">  1       -1 0.54282901E-03 0.79966221E+02</pdfrwt>
<totfact> 0.29518374E+05</totfact>
</mgrwt>
</event>
<event>
 8    1  0.1226832E-024  0.7967813E+02  0.7818608E-02  0.1329967E+00
         -1   -1    0    0    0  501 -0.00000000000E+00  0.00000000000E+00  0.22705814490E+01  0.22705870427E+01  0.50400000000E-02 0.  1.
          2   -1    0    0  501    0  0.00000000000E+00 -0.00000000000E+00 -0.69900557304E+03  0.69900557305E+03  0.25500000000E-02 0. -1.
         24    2    1    2    0    0  0.00000000000E+00  0.00000000000E+00 -0.69673499159E+03  0.70127616009E+03  0.79678128741E+02 0.  0.
         66    2    3    3    0    0 -0.19810970184E+02 -0.27183659344E+02 -0.53606165790E+03  0.53711965793E+03  0.19999991206E+01 0.  0.
        -13    1    3    3    0    0  0.19810970184E+02  0.27183659344E+02 -0.16067333370E+03  0.16415650216E+03  0.10566000000E+00 0.  1.
         13    1    4    4    0    0 -0.13962272498E+02 -0.18104291594E+02 -0.35845351322E+03  0.35918190757E+03  0.10566000000E+00 0. -1.
        -13    1    4    4    0    0 -0.31970464613E+01 -0.50629086259E+01 -0.92562045005E+02  0.92755579290E+02  0.10566000000E+00 0.  1.
         14    1    4    4    0    0 -0.26516512251E+01 -0.40164591242E+01 -0.85046099676E+02  0.85182171070E+02  0.00000000000E+00 0. -1.
<mgrwt>
<rscale>  0 0.79678129E+02</rscale>
<asrwt>0</asrwt>
<pdfrwt beam="1">  1        2 0.10753915E+00 0.79678129E+02</pdfrwt>
<pdfrwt beam="2">  1       -1 0.34932121E-03 0.79678129E+02</pdfrwt>
<totfact> 0.33793032E+05</totfact>
</mgrwt>
</event>
<event>
 8    1  0.1226832E-024  0.7899665E+02  0.7818608E-02  0.1331923E+00
         -1   -1    0    0    0  501 -0.00000000000E+00  0.00000000000E+00  0.65381985645E+01  0.65382005070E+01  0.50400000000E-02 0.  1.
          2   -1    0    0  501    0  0.00000000000E+00 -0.00000000000E+00 -0.23861581852E+03  0.23861581853E+03  0.25500000000E-02 0. -1.
         24    2    1    2    0    0 -0.71054273576E-14  0.00000000000E+00 -0.23207761995E+03  0.24515401904E+03  0.78996654154E+02 0.  0.
         66    2    3    3    0    0 -0.38683930840E+02  0.42382066946E+01 -0.95597064939E+02  0.10323375282E+03  0.19999990165E+01 0.  0.
        -13    1    3    3    0    0  0.38683930840E+02 -0.42382066946E+01 -0.13648055501E+03  0.14192026621E+03  0.10566000000E+00 0.  1.
         13    1    4    4    0    0 -0.33137523476E+01  0.36793659783E+00 -0.78003047208E+01  0.84836460165E+01  0.10566000000E+00 0. -1.
        -13    1    4    4    0    0 -0.10371596259E+02  0.13570668992E+01 -0.27954019052E+02  0.29847110157E+02  0.10566000000E+00 0.  1.
        -14    1    4    4    0    0 -0.24998582233E+02  0.25132031975E+01 -0.59842741166E+02  0.64902996651E+02  0.00000000000E+00 0.  1.
<mgrwt>
<rscale>  0 0.78996654E+02</rscale>
<asrwt>0</asrwt>
<pdfrwt beam="1">  1        2 0.36710119E-01 0.78996654E+02</pdfrwt>
<pdfrwt beam="2">  1       -1 0.10058770E-02 0.78996654E+02</pdfrwt>
<totfact> 0.24266108E+05</totfact>
</mgrwt>
</event>
<event>
 8    1  0.1226832E-024  0.7886247E+02  0.7818608E-02  0.1332311E+00
         -1   -1    0    0    0  501 -0.00000000000E+00  0.00000000000E+00  0.30782183579E+01  0.30782224839E+01  0.50400000000E-02 0.  1.
          2   -1    0    0  501    0  0.00000000000E+00 -0.00000000000E+00 -0.50510422109E+03  0.50510422109E+03  0.25500000000E-02 0. -1.
         24    2    1    2    0    0  0.00000000000E+00  0.17763568394E-14 -0.50202600273E+03  0.50818244358E+03  0.78862466003E+02 0.  0.
         66    2    3    3    0    0  0.16147300310E+02 -0.15347995327E+02 -0.46062784625E+03  0.46117058558E+03  0.20000004355E+01 0.  0.
        -13    1    3    3    0    0 -0.16147300310E+02  0.15347995327E+02 -0.41398156483E+02  0.47011857995E+02  0.10566000000E+00 0.  1.
         13    1    4    4    0    0  0.84070831697E+01 -0.78644638394E+01 -0.22763076388E+03  0.22792170732E+03  0.10566000000E+00 0. -1.
        -13    1    4    4    0    0  0.81211483573E+00 -0.12061331028E+01 -0.26116298089E+02  0.26156958490E+02  0.10566000000E+00 0.  1.
         14    1    4    4    0    0  0.69281023049E+01 -0.62773983846E+01 -0.20688078428E+03  0.20709191977E+03  0.00000000000E+00 0. -1.
<mgrwt>
<rscale>  0 0.78862466E+02</rscale>
<asrwt>0</asrwt>
<pdfrwt beam="1">  1        2 0.77708276E-01 0.78862466E+02</pdfrwt>
<pdfrwt beam="2">  1       -1 0.47357278E-03 0.78862466E+02</pdfrwt>
<totfact> 0.31710603E+05</totfact>
</mgrwt>
</event>
<event>
 8    1  0.1226832E-024  0.8182482E+02  0.7818608E-02  0.1323951E+00
         -1   -1    0    0    0  501 -0.00000000000E+00  0.00000000000E+00  0.42703464440E+02  0.42703464737E+02  0.50400000000E-02 0.  1.
          2   -1    0    0  501    0  0.00000000000E+00 -0.00000000000E+00 -0.39196477344E+02  0.39196477427E+02  0.25500000000E-02 0. -1.
         24    2    1    2    0    0  0.00000000000E+00  0.88817841970E-15  0.35069870958E+01  0.81899942164E+02  0.81824822444E+02 0.  0.
         66    2    3    3    0    0 -0.11345942661E+02 -0.59329190962E+01 -0.37112676594E+02  0.39310058550E+02  0.19999988462E+01 0.  0.
        -13    1    3    3    0    0  0.11345942661E+02  0.59329190962E+01  0.40619663690E+02  0.42589883613E+02  0.10566000000E+00 0.  1.
         13    1    4    4    0    0 -0.39930091620E+01 -0.14256688062E+01 -0.12254270002E+02  0.12967457385E+02  0.10566000000E+00 0. -1.
        -13    1    4    4    0    0 -0.43236094665E+01 -0.24487734338E+01 -0.16087143214E+02  0.16837381951E+02  0.10566000000E+00 0.  1.
        -14    1    4    4    0    0 -0.30293240322E+01 -0.20584768562E+01 -0.87712633782E+01  0.95052192142E+01  0.00000000000E+00 0.  1.
<mgrwt>
<rscale>  0 0.81824822E+02</rscale>
<asrwt>0</asrwt>
<pdfrwt beam="1">  1        2 0.60302274E-02 0.81824822E+02</pdfrwt>
<pdfrwt beam="2">  1       -1 0.65697637E-02 0.81824822E+02</pdfrwt>
<totfact> 0.13335661E+05</totfact>
</mgrwt>
</event>
<event>
 8    1  0.1226832E-024  0.8011294E+02  0.7818608E-02  0.1328731E+00
          2   -1    0    0  501    0  0.00000000000E+00  0.00000000000E+00  0.90539371259E+02  0.90539371295E+02  0.25500000000E-02 0. -1.
         -1   -1    0    0    0  501 -0.00000000000E+00 -0.00000000000E+00 -0.17721802702E+02  0.17721803418E+02  0.50400000000E-02 0.  1.
         24    2    1    2    0    0 -0.35527136788E-14  0.88817841970E-15  0.72817568557E+02  0.10826117471E+03  0.80112943147E+02 0.  0.
         66    2    3    3    0    0 -0.25086091165E+02 -0.54634659948E+01  0.77937090658E+02  0.82081371406E+02  0.20000002559E+01 0.  0.
        -13    1    3    3    0    0  0.25086091165E+02  0.54634659948E+01 -0.51195221010E+01  0.26179803307E+02  0.10566000000E+00 0.  1.
         13    1    4    4    0    0 -0.12843359755E+01 -0.22968343204E+00  0.32770559552E+01  0.35288146942E+01  0.10566000000E+00 0.  1.
        -13    1    4    4    0    0 -0.18888124852E+02 -0.36519379194E+01  0.57505410849E+02  0.60638117978E+02  0.10566000000E+00 0. -1.
         14    1    4    4    0    0 -0.49136303370E+01 -0.15818446434E+01  0.17154623854E+02  0.17914438734E+02  0.00000000000E+00 0. -1.
<mgrwt>
<rscale>  0 0.80112943E+02</rscale>
<asrwt>0</asrwt>
<pdfrwt beam="1">  1        2 0.13929134E-01 0.80112943E+02</pdfrwt>
<pdfrwt beam="2">  1       -1 0.27264312E-02 0.80112943E+02</pdfrwt>
<totfact> 0.17183197E+05</totfact>
</mgrwt>
</event>
<event>
 8    1  0.1226832E-024  0.7908052E+02  0.7818608E-02  0.1331681E+00
          2   -1    0    0  501    0  0.00000000000E+00  0.00000000000E+00  0.52074252206E+03  0.52074252207E+03  0.25500000000E-02 0. -1.
         -1   -1    0    0    0  501 -0.00000000000E+00 -0.00000000000E+00 -0.30023112693E+01  0.30023154996E+01  0.50400000000E-02 0.  1.
         24    2    1    2    0    0  0.00000000000E+00  0.00000000000E+00  0.51774021079E+03  0.52374483757E+03  0.79080522300E+02 0.  0.
         66    2    3    3    0    0  0.45290408304E+01 -0.16881087607E+02  0.49374725689E+03  0.49406056007E+03  0.19999997207E+01 0.  0.
        -13    1    3    3    0    0 -0.45290408304E+01  0.16881087607E+02  0.23992953900E+02  0.29684277497E+02  0.10566000000E+00 0.  1.
         13    1    4    4    0    0  0.11836442186E+01 -0.65991109740E+01  0.19304684497E+03  0.19316325944E+03  0.10566000000E+00 0. -1.
        -13    1    4    4    0    0  0.38417483350E+00 -0.76992080080E+00  0.33555035569E+02  0.33566232205E+02  0.10566000000E+00 0.  1.
        -14    1    4    4    0    0  0.29612217783E+01 -0.95120558320E+01  0.26714537635E+03  0.26733106843E+03  0.00000000000E+00 0.  1.
<mgrwt>
<rscale>  0 0.79080522E+02</rscale>
<asrwt>0</asrwt>
<pdfrwt beam="1">  1        2 0.80114235E-01 0.79080522E+02</pdfrwt>
<pdfrwt beam="2">  1       -1 0.46189436E-03 0.79080522E+02</pdfrwt>
<totfact> 0.31786022E+05</totfact>
</mgrwt>
</event>
<event>
 8    1  0.1226832E-024  0.7900349E+02  0.7818608E-02  0.1331903E+00
         -1   -1    0    0    0  501 -0.00000000000E+00  0.00000000000E+00  0.54769579351E+02  0.54769579583E+02  0.50400000000E-02 0.  1.
          2   -1    0    0  501    0  0.00000000000E+00 -0.00000000000E+00 -0.28490046171E+02  0.28490046285E+02  0.25500000000E-02 0. -1.
         24    2    1    2    0    0 -0.88817841970E-15  0.00000000000E+00  0.26279533180E+02  0.83259625867E+02  0.79003490020E+02 0.  0.
         66    2    3    3    0    0 -0.78858882050E+01 -0.16539141979E+02 -0.23702022686E+02  0.30025261581E+02  0.20000008515E+01 0.  0.
        -13    1    3    3    0    0  0.78858882050E+01  0.16539141979E+02  0.49981555866E+02  0.53234364287E+02  0.10566000000E+00 0.  1.
         13    1    4    4    0    0 -0.53800819524E+00 -0.18300482002E+01 -0.17955794644E+01  0.26217930661E+01  0.10566000000E+00 0. -1.
        -13    1    4    4    0    0 -0.99414339902E+00 -0.26532571277E+01 -0.36706974933E+01  0.46382408957E+01  0.10566000000E+00 0.  1.
         14    1    4    4    0    0 -0.63537366107E+01 -0.12055836651E+02 -0.18235745728E+02  0.22765227619E+02  0.00000000000E+00 0. -1.
<mgrwt>
<rscale>  0 0.79003490E+02</rscale>
<asrwt>0</asrwt>
<pdfrwt beam="1">  1        2 0.43830841E-02 0.79003490E+02</pdfrwt>
<pdfrwt beam="2">  1       -1 0.84260890E-02 0.79003490E+02</pdfrwt>
<totfact> 0.13795992E+05</totfact>
</mgrwt>
</event>
<event>
 8    1  0.1226832E-024  0.8276762E+02  0.7818608E-02  0.1321376E+00
          2   -1    0    0  501    0  0.00000000000E+00  0.00000000000E+00  0.15031785300E+02  0.15031785516E+02  0.25500000000E-02 0. -1.
         -1   -1    0    0    0  501 -0.00000000000E+00 -0.00000000000E+00 -0.11393321843E+03  0.11393321854E+03  0.50400000000E-02 0.  1.
         24    2    1    2    0    0  0.00000000000E+00  0.00000000000E+00 -0.98901433128E+02  0.12896500406E+03  0.82767619249E+02 0.  0.
         66    2    3    3    0    0 -0.11699391420E+02  0.39187529525E+02 -0.39864722647E+02  0.57146604057E+02  0.20000034254E+01 0.  0.
        -13    1    3    3    0    0  0.11699391420E+02 -0.39187529525E+02 -0.59036710482E+02  0.71818399999E+02  0.10566000000E+00 0.  1.
         13    1    4    4    0    0 -0.59840172755E+01  0.17276427723E+02 -0.17635588668E+02  0.25402924424E+02  0.10566000000E+00 0. -1.
        -13    1    4    4    0    0 -0.18776504932E+01  0.62430054942E+01 -0.68245338221E+01  0.94385441091E+01  0.10566000000E+00 0.  1.
         14    1    4    4    0    0 -0.38377236508E+01  0.15668096307E+02 -0.15404600157E+02  0.22305135523E+02  0.00000000000E+00 0. -1.
<mgrwt>
<rscale>  0 0.82767619E+02</rscale>
<asrwt>0</asrwt>
<pdfrwt beam="1">  1        2 0.23125824E-02 0.82767619E+02</pdfrwt>
<pdfrwt beam="2">  1       -1 0.17528187E-01 0.82767619E+02</pdfrwt>
<totfact> 0.10578202E+05</totfact>
</mgrwt>
</event>
<event>
 8    1  0.1226832E-024  0.7947607E+02  0.7818608E-02  0.1330545E+00
          2   -1    0    0  501    0  0.00000000000E+00  0.00000000000E+00  0.67473374124E+02  0.67473374172E+02  0.25500000000E-02 0. -1.
         -1   -1    0    0    0  501 -0.00000000000E+00 -0.00000000000E+00 -0.23403476989E+02  0.23403477532E+02  0.50400000000E-02 0.  1.
         24    2    1    2    0    0  0.35527136788E-14  0.00000000000E+00  0.44069897135E+02  0.90876851704E+02  0.79476074023E+02 0.  0.
         66    2    3    3    0    0 -0.16190475848E+02 -0.35515840077E+02  0.13677423114E+02  0.41407466770E+02  0.19999991671E+01 0.  0.
        -13    1    3    3    0    0  0.16190475848E+02  0.35515840077E+02  0.30392474021E+02  0.49469384934E+02  0.10566000000E+00 0.  1.
         13    1    4    4    0    0 -0.13971155351E+01 -0.32874825204E+01  0.14336294592E+01  0.38504455070E+01  0.10566000000E+00 0. -1.
        -13    1    4    4    0    0 -0.37216527513E+01 -0.65069653810E+01  0.28512411923E+01  0.80207255310E+01  0.10566000000E+00 0.  1.
         14    1    4    4    0    0 -0.11071707562E+02 -0.25721392176E+02  0.93925524620E+01  0.29536295732E+02  0.00000000000E+00 0. -1.
<mgrwt>
<rscale>  0 0.79476074E+02</rscale>
<asrwt>0</asrwt>
<pdfrwt beam="1">  1        2 0.10380519E-01 0.79476074E+02</pdfrwt>
<pdfrwt beam="2">  1       -1 0.36005350E-02 0.79476074E+02</pdfrwt>
<totfact> 0.16290564E+05</totfact>
</mgrwt>
</event>
<event>
 8    1  0.1226832E-024  0.7991506E+02  0.7818608E-02  0.1329293E+00
          2   -1    0    0  501    0  0.00000000000E+00  0.00000000000E+00  0.34934059774E+03  0.34934059775E+03  0.25500000000E-02 0. -1.
         -1   -1    0    0    0  501 -0.00000000000E+00 -0.00000000000E+00 -0.45703358730E+01  0.45703386520E+01  0.50400000000E-02 0.  1.
         24    2    1    2    0    0  0.00000000000E+00  0.00000000000E+00  0.34477026187E+03  0.35391093641E+03  0.79915063891E+02 0.  0.
         66    2    3    3    0    0 -0.35221991908E+02 -0.21203072897E+01  0.25528667857E+03  0.25772150215E+03  0.20000002202E+01 0.  0.
        -13    1    3    3    0    0  0.35221991908E+02  0.21203072897E+01  0.89483583304E+02  0.96189434254E+02  0.10566000000E+00 0.  1.
         13    1    4    4    0    0 -0.40498901276E+01 -0.26986692200E+00  0.26945751500E+02  0.27249938094E+02  0.10566000000E+00 0. -1.
        -13    1    4    4    0    0 -0.26836692850E+02 -0.11842806951E+01  0.19358509479E+03  0.19544004373E+03  0.10566000000E+00 0.  1.
        -14    1    4    4    0    0 -0.43354089306E+01 -0.66615967265E+00  0.34755832277E+02  0.35031520329E+02  0.00000000000E+00 0.  1.
<mgrwt>
<rscale>  0 0.79915064E+02</rscale>
<asrwt>0</asrwt>
<pdfrwt beam="1">  1        2 0.53744729E-01 0.79915064E+02</pdfrwt>
<pdfrwt beam="2">  1       -1 0.70312853E-03 0.79915064E+02</pdfrwt>
<totfact> 0.27006405E+05</totfact>
</mgrwt>
</event>
<event>
 8    1  0.1226832E-024  0.7488884E+02  0.7818608E-02  0.1344216E+00
         -1   -1    0    0    0  501 -0.00000000000E+00  0.00000000000E+00  0.44224583873E+01  0.44224612592E+01  0.50400000000E-02 0.  1.
          2   -1    0    0  501    0  0.00000000000E+00 -0.00000000000E+00 -0.31703725239E+03  0.31703725240E+03  0.25500000000E-02 0. -1.
         24    2    1    2    0    0  0.17763568394E-14  0.00000000000E+00 -0.31261479400E+03  0.32145971366E+03  0.74888838132E+02 0.  0.
         66    2    3    3    0    0  0.14431615134E+02 -0.20602716315E+02 -0.27532416768E+03  0.27647810175E+03  0.19999999998E+01 0.  0.
        -13    1    3    3    0    0 -0.14431615134E+02  0.20602716315E+02 -0.37290626320E+02  0.44981611914E+02  0.10566000000E+00 0.  1.
         13    1    4    4    0    0  0.74913771328E+01 -0.11105955257E+02 -0.14082609786E+03  0.14146188171E+03  0.10566000000E+00 0. -1.
        -13    1    4    4    0    0  0.31295805057E+01 -0.34931854520E+01 -0.56851091836E+02  0.57044319838E+02  0.10566000000E+00 0.  1.
        -14    1    4    4    0    0  0.38106574959E+01 -0.60035756065E+01 -0.77646977982E+02  0.77971900197E+02  0.00000000000E+00 0.  1.
<mgrwt>
<rscale>  0 0.74888838E+02</rscale>
<asrwt>0</asrwt>
<pdfrwt beam="1">  1        2 0.48774944E-01 0.74888838E+02</pdfrwt>
<pdfrwt beam="2">  1       -1 0.68037868E-03 0.74888838E+02</pdfrwt>
<totfact> 0.30901639E+05</totfact>
</mgrwt>
</event>
<event>
 8    1  0.1226832E-024  0.7971821E+02  0.7818608E-02  0.1329853E+00
         -1   -1    0    0    0  501 -0.00000000000E+00  0.00000000000E+00  0.44805012497E+01  0.44805040844E+01  0.50400000000E-02 0.  1.
          2   -1    0    0  501    0  0.00000000000E+00 -0.00000000000E+00 -0.35459152767E+03  0.35459152768E+03  0.25500000000E-02 0. -1.
         24    2    1    2    0    0  0.17763568394E-14 -0.71054273576E-14 -0.35011102642E+03  0.35907203177E+03  0.79718211055E+02 0.  0.
         66    2    3    3    0    0 -0.12118086281E+02  0.36557197345E+02 -0.22098213384E+03  0.22432204565E+03  0.19999995466E+01 0.  0.
        -13    1    3    3    0    0  0.12118086281E+02 -0.36557197345E+02 -0.12912889259E+03  0.13474998611E+03  0.10566000000E+00 0.  1.
         13    1    4    4    0    0 -0.86848331679E+01  0.25374226329E+02 -0.15272205384E+03  0.15505906804E+03  0.10566000000E+00 0. -1.
        -13    1    4    4    0    0 -0.71633889272E+00  0.35014462181E+01 -0.22754860293E+02  0.23034063862E+02  0.10566000000E+00 0.  1.
        -14    1    4    4    0    0 -0.27169142206E+01  0.76815247980E+01 -0.45505219705E+02  0.46228913750E+02  0.00000000000E+00 0.  1.
<mgrwt>
<rscale>  0 0.79718211E+02</rscale>
<asrwt>0</asrwt>
<pdfrwt beam="1">  1        2 0.54552521E-01 0.79718211E+02</pdfrwt>
<pdfrwt beam="2">  1       -1 0.68930838E-03 0.79718211E+02</pdfrwt>
<totfact> 0.27326211E+05</totfact>
</mgrwt>
</event>
<event>
 8    1  0.1226832E-024  0.8658521E+02  0.7818608E-02  0.1311338E+00
         -1   -1    0    0    0  501 -0.00000000000E+00  0.00000000000E+00  0.37792756019E+01  0.37792789625E+01  0.50400000000E-02 0.  1.
          2   -1    0    0  501    0  0.00000000000E+00 -0.00000000000E+00 -0.49592810046E+03  0.49592810047E+03  0.25500000000E-02 0. -1.
         24    2    1    2    0    0  0.35527136788E-14 -0.35527136788E-14 -0.49214882486E+03  0.49970737943E+03  0.86585213788E+02 0.  0.
         66    2    3    3    0    0  0.26443452076E+02 -0.16719507510E+02 -0.41871218885E+03  0.41988414496E+03  0.20000018159E+01 0.  0.
        -13    1    3    3    0    0 -0.26443452076E+02  0.16719507510E+02 -0.73436636012E+02  0.79823234474E+02  0.10566000000E+00 0.  1.
         13    1    4    4    0    0  0.18625512677E+02 -0.11779414672E+02 -0.29529346099E+03  0.29611467981E+03  0.10566000000E+00 0. -1.
        -13    1    4    4    0    0  0.42638587484E+01 -0.30853171345E+01 -0.64450525600E+02  0.64665145847E+02  0.10566000000E+00 0.  1.
        -14    1    4    4    0    0  0.35540806509E+01 -0.18547757030E+01 -0.58968202261E+02  0.59104319301E+02  0.00000000000E+00 0.  1.
<mgrwt>
<rscale>  0 0.86585214E+02</rscale>
<asrwt>0</asrwt>
<pdfrwt beam="1">  1        2 0.76296580E-01 0.86585214E+02</pdfrwt>
<pdfrwt beam="2">  1       -1 0.58142767E-03 0.86585214E+02</pdfrwt>
<totfact> 0.24693675E+05</totfact>
</mgrwt>
</event>
<event>
 8    1  0.1226832E-024  0.7924411E+02  0.7818608E-02  0.1331210E+00
          2   -1    0    0  501    0  0.00000000000E+00  0.00000000000E+00  0.60676852659E+03  0.60676852659E+03  0.25500000000E-02 0. -1.
         -1   -1    0    0    0  501 -0.00000000000E+00 -0.00000000000E+00 -0.25873221235E+01  0.25873270324E+01  0.50400000000E-02 0.  1.
         24    2    1    2    0    0 -0.35527136788E-14  0.00000000000E+00  0.60418120446E+03  0.60935585362E+03  0.79244107162E+02 0.  0.
         66    2    3    3    0    0  0.16764977980E+02 -0.28453076035E+01  0.57725891631E+03  0.57751278490E+03  0.20000019312E+01 0.  0.
        -13    1    3    3    0    0 -0.16764977980E+02  0.28453076035E+01  0.26922288156E+02  0.31843068722E+02  0.10566000000E+00 0.  1.
         13    1    4    4    0    0  0.82902018436E+00 -0.31127797352E+00  0.40283041830E+02  0.40292912424E+02  0.10566000000E+00 0. -1.
        -13    1    4    4    0    0  0.11294272859E+01 -0.33221252613E-01  0.29302171598E+02  0.29324139101E+02  0.10566000000E+00 0.  1.
         14    1    4    4    0    0  0.14806530510E+02 -0.25008083774E+01  0.50767370288E+03  0.50789573338E+03  0.00000000000E+00 0. -1.
<mgrwt>
<rscale>  0 0.79244107E+02</rscale>
<asrwt>0</asrwt>
<pdfrwt beam="1">  1        2 0.93349129E-01 0.79244107E+02</pdfrwt>
<pdfrwt beam="2">  1       -1 0.39804940E-03 0.79244107E+02</pdfrwt>
<totfact> 0.33070048E+05</totfact>
</mgrwt>
</event>
<event>
 8    1  0.1226832E-024  0.7234710E+02  0.7818608E-02  0.1352289E+00
          2   -1    0    0  501    0  0.00000000000E+00  0.00000000000E+00  0.12223995819E+04  0.12223995819E+04  0.25500000000E-02 0. -1.
         -1   -1    0    0    0  501 -0.00000000000E+00 -0.00000000000E+00 -0.10704506259E+01  0.10704624907E+01  0.50400000000E-02 0.  1.
         24    2    1    2    0    0  0.00000000000E+00  0.00000000000E+00  0.12213291313E+04  0.12234700444E+04  0.72347098278E+02 0.  0.
         66    2    3    3    0    0 -0.73984256031E+01 -0.10065431563E+02  0.11847312132E+04  0.11847987580E+04  0.20000003121E+01 0.  0.
        -13    1    3    3    0    0  0.73984256031E+01  0.10065431563E+02  0.36597918109E+02  0.38671286349E+02  0.10566000000E+00 0.  1.
         13    1    4    4    0    0 -0.42703575999E+01 -0.45632149209E+01  0.56887710312E+03  0.56891144171E+03  0.10566000000E+00 0. -1.
        -13    1    4    4    0    0 -0.56080991327E+00 -0.97521336353E+00  0.80865447197E+02  0.80873340869E+02  0.10566000000E+00 0.  1.
         14    1    4    4    0    0 -0.25672580900E+01 -0.45270032789E+01  0.53498866284E+03  0.53501397547E+03  0.00000000000E+00 0. -1.
<mgrwt>
<rscale>  0 0.72347098E+02</rscale>
<asrwt>0</asrwt>
<pdfrwt beam="1">  1        2 0.18806105E+00 0.72347098E+02</pdfrwt>
<pdfrwt beam="2">  1       -1 0.16468600E-03 0.72347098E+02</pdfrwt>
<totfact> 0.45331214E+05</totfact>
</mgrwt>
</event>
<event>
 8    1  0.1226832E-024  0.7431900E+02  0.7818608E-02  0.1345993E+00
          2   -1    0    0  501    0  0.00000000000E+00  0.00000000000E+00  0.12501914873E+03  0.12501914876E+03  0.25500000000E-02 0. -1.
         -1   -1    0    0    0  501 -0.00000000000E+00 -0.00000000000E+00 -0.11044933497E+02  0.11044934647E+02  0.50400000000E-02 0.  1.
         24    2    1    2    0    0  0.00000000000E+00  0.00000000000E+00  0.11397421523E+03  0.13606408340E+03  0.74318995244E+02 0.  0.
         66    2    3    3    0    0  0.23353211633E+02 -0.26939175286E+02  0.76030971432E+02  0.83998811168E+02  0.20000005151E+01 0.  0.
        -13    1    3    3    0    0 -0.23353211633E+02  0.26939175286E+02  0.37943243801E+02  0.52065272234E+02  0.10566000000E+00 0.  1.
         13    1    4    4    0    0  0.17989728688E+02 -0.21406539859E+02  0.59663861042E+02  0.65891257125E+02  0.10566000000E+00 0. -1.
        -13    1    4    4    0    0  0.81213233788E+00 -0.12615798153E+01  0.31044581089E+01  0.34496328428E+01  0.10566000000E+00 0.  1.
        -14    1    4    4    0    0  0.45513506068E+01 -0.42710556118E+01  0.13262652281E+02  0.14657921200E+02  0.00000000000E+00 0.  1.
<mgrwt>
<rscale>  0 0.74318995E+02</rscale>
<asrwt>0</asrwt>
<pdfrwt beam="1">  1        2 0.19233715E-01 0.74318995E+02</pdfrwt>
<pdfrwt beam="2">  1       -1 0.16992207E-02 0.74318995E+02</pdfrwt>
<totfact> 0.23000344E+05</totfact>
</mgrwt>
</event>
<event>
 8    1  0.1226832E-024  0.7918962E+02  0.7818608E-02  0.1331367E+00
         -1   -1    0    0    0  501 -0.00000000000E+00  0.00000000000E+00  0.62046751965E+01  0.62046772435E+01  0.50400000000E-02 0.  1.
          2   -1    0    0  501    0  0.00000000000E+00 -0.00000000000E+00 -0.25267217368E+03  0.25267217369E+03  0.25500000000E-02 0. -1.
         24    2    1    2    0    0  0.00000000000E+00  0.88817841970E-15 -0.24646749848E+03  0.25887685094E+03  0.79189621428E+02 0.  0.
         66    2    3    3    0    0 -0.37073934124E+02  0.73181864820E+01 -0.16167493371E+03  0.16604462243E+03  0.20000006002E+01 0.  0.
        -13    1    3    3    0    0  0.37073934124E+02 -0.73181864820E+01 -0.84792564775E+02  0.92832228509E+02  0.10566000000E+00 0.  1.
         13    1    4    4    0    0 -0.91638438866E+01  0.21830546159E+01 -0.42142298905E+02  0.43182476576E+02  0.10566000000E+00 0. -1.
        -13    1    4    4    0    0 -0.23787292158E+02  0.43114356287E+01 -0.10372358192E+03  0.10650359785E+03  0.10566000000E+00 0.  1.
        -14    1    4    4    0    0 -0.41227980801E+01  0.82369623749E+00 -0.15809052885E+02  0.16358547999E+02  0.00000000000E+00 0.  1.
<mgrwt>
<rscale>  0 0.79189621E+02</rscale>
<asrwt>0</asrwt>
<pdfrwt beam="1">  1        2 0.38872634E-01 0.79189621E+02</pdfrwt>
<pdfrwt beam="2">  1       -1 0.95456577E-03 0.79189621E+02</pdfrwt>
<totfact> 0.24609008E+05</totfact>
</mgrwt>
</event>
<event>
 8    1  0.1226832E-024  0.7870244E+02  0.7818608E-02  0.1332775E+00
          2   -1    0    0  501    0  0.00000000000E+00  0.00000000000E+00  0.13077204810E+04  0.13077204810E+04  0.25500000000E-02 0. -1.
         -1   -1    0    0    0  501 -0.00000000000E+00 -0.00000000000E+00 -0.11841302161E+01  0.11841409419E+01  0.50400000000E-02 0.  1.
         24    2    1    2    0    0  0.00000000000E+00  0.00000000000E+00  0.13065363508E+04  0.13089046220E+04  0.78702435972E+02 0.  0.
         66    2    3    3    0    0 -0.35563049009E+01  0.23004409495E+02  0.11808338599E+04  0.11810649663E+04  0.19999811693E+01 0.  0.
        -13    1    3    3    0    0  0.35563049009E+01 -0.23004409495E+02  0.12570249094E+03  0.12783965563E+03  0.10566000000E+00 0.  1.
         13    1    4    4    0    0 -0.11848527856E+01  0.91527360758E+01  0.50805520521E+03  0.50813903527E+03  0.10566000000E+00 0. -1.
        -13    1    4    4    0    0 -0.23112315521E+00  0.21773549607E+01  0.11744567735E+03  0.11746613378E+03  0.10566000000E+00 0.  1.
        -14    1    4    4    0    0 -0.21403289601E+01  0.11674318458E+02  0.55533297731E+03  0.55545979729E+03  0.00000000000E+00 0.  1.
<mgrwt>
<rscale>  0 0.78702436E+02</rscale>
<asrwt>0</asrwt>
<pdfrwt beam="1">  1        2 0.20118865E+00 0.78702436E+02</pdfrwt>
<pdfrwt beam="2">  1       -1 0.18217391E-03 0.78702436E+02</pdfrwt>
<totfact> 0.36075295E+05</totfact>
</mgrwt>
</event>
<event>
 8    1  0.1226832E-024  0.7925549E+02  0.7818608E-02  0.1331178E+00
         -1   -1    0    0    0  501 -0.00000000000E+00  0.00000000000E+00  0.77978876605E+01  0.77978892893E+01  0.50400000000E-02 0.  1.
          2   -1    0    0  501    0  0.00000000000E+00 -0.00000000000E+00 -0.20138248423E+03  0.20138248425E+03  0.25500000000E-02 0. -1.
         24    2    1    2    0    0  0.35527136788E-14  0.00000000000E+00 -0.19358459657E+03  0.20918037354E+03  0.79255489674E+02 0.  0.
         66    2    3    3    0    0  0.24366946637E+02 -0.28430806220E+02 -0.13088912435E+03  0.13615440397E+03  0.20000038630E+01 0.  0.
        -13    1    3    3    0    0 -0.24366946637E+02  0.28430806220E+02 -0.62695472218E+02  0.73025969568E+02  0.10566000000E+00 0.  1.
         13    1    4    4    0    0  0.17821343453E+02 -0.19846630759E+02 -0.95090744333E+02  0.98761074603E+02  0.10566000000E+00 0. -1.
        -13    1    4    4    0    0  0.90521793914E+00 -0.14031600344E+01 -0.55151919110E+01  0.57634003375E+01  0.10566000000E+00 0. -1.
         14    1    4    4    0    0  0.56403852445E+01 -0.71810154268E+01 -0.30283188108E+02  0.31629929027E+02  0.00000000000E+00 0. -1.
<mgrwt>
<rscale>  0 0.79255490E+02</rscale>
<asrwt>0</asrwt>
<pdfrwt beam="1">  1        2 0.30981917E-01 0.79255490E+02</pdfrwt>
<pdfrwt beam="2">  1       -1 0.11996753E-02 0.79255490E+02</pdfrwt>
<totfact> 0.22663393E+05</totfact>
</mgrwt>
</event>
<event>
 8    1  0.1226832E-024  0.7778308E+02  0.7818608E-02  0.1335463E+00
          2   -1    0    0  501    0  0.00000000000E+00  0.00000000000E+00  0.10960540235E+03  0.10960540238E+03  0.25500000000E-02 0. -1.
         -1   -1    0    0    0  501 -0.00000000000E+00 -0.00000000000E+00 -0.13799975204E+02  0.13799976124E+02  0.50400000000E-02 0.  1.
         24    2    1    2    0    0  0.00000000000E+00  0.00000000000E+00  0.95805427149E+02  0.12340537851E+03  0.77783080251E+02 0.  0.
         66    2    3    3    0    0  0.32705663758E+02 -0.45966372155E+01  0.80439144664E+02  0.86978419850E+02  0.20000024480E+01 0.  0.
        -13    1    3    3    0    0 -0.32705663758E+02  0.45966372155E+01  0.15366282485E+02  0.36426958657E+02  0.10566000000E+00 0.  1.
         13    1    4    4    0    0  0.14207464917E+02 -0.21294558224E+01  0.32553967595E+02  0.35583122567E+02  0.10566000000E+00 0. -1.
        -13    1    4    4    0    0  0.33992270892E+01 -0.54193878532E+00  0.91844697675E+01  0.98088781926E+01  0.10566000000E+00 0.  1.
         14    1    4    4    0    0  0.15098971752E+02 -0.19252426078E+01  0.38700707302E+02  0.41586419090E+02  0.00000000000E+00 0. -1.
<mgrwt>
<rscale>  0 0.77783080E+02</rscale>
<asrwt>0</asrwt>
<pdfrwt beam="1">  1        2 0.16862369E-01 0.77783080E+02</pdfrwt>
<pdfrwt beam="2">  1       -1 0.21230732E-02 0.77783080E+02</pdfrwt>
<totfact> 0.19611671E+05</totfact>
</mgrwt>
</event>
<event>
 8    1  0.1226832E-024  0.7973633E+02  0.7818608E-02  0.1329801E+00
          2   -1    0    0  501    0  0.00000000000E+00  0.00000000000E+00  0.56738540980E+03  0.56738540981E+03  0.25500000000E-02 0. -1.
         -1   -1    0    0    0  501 -0.00000000000E+00 -0.00000000000E+00 -0.28013923992E+01  0.28013969329E+01  0.50400000000E-02 0.  1.
         24    2    1    2    0    0  0.00000000000E+00  0.00000000000E+00  0.56458401740E+03  0.57018680674E+03  0.79736327194E+02 0.  0.
         66    2    3    3    0    0 -0.65518768836E+01 -0.10470938400E+02  0.55334567859E+03  0.55348713414E+03  0.20000011219E+01 0.  0.
        -13    1    3    3    0    0  0.65518768836E+01  0.10470938400E+02  0.11238338818E+02  0.16699672604E+02  0.10566000000E+00 0.  1.
         13    1    4    4    0    0 -0.24795160913E+01 -0.29659533771E+01  0.15263378621E+03  0.15268277158E+03  0.10566000000E+00 0. -1.
        -13    1    4    4    0    0 -0.28964143016E+01 -0.53132490273E+01  0.30577880532E+03  0.30583869732E+03  0.10566000000E+00 0.  1.
        -14    1    4    4    0    0 -0.11759464907E+01 -0.21917359952E+01  0.94933087055E+02  0.94965665241E+02  0.00000000000E+00 0.  1.
<mgrwt>
<rscale>  0 0.79736327E+02</rscale>
<asrwt>0</asrwt>
<pdfrwt beam="1">  1        2 0.87290013E-01 0.79736327E+02</pdfrwt>
<pdfrwt beam="2">  1       -1 0.43098405E-03 0.79736327E+02</pdfrwt>
<totfact> 0.31927113E+05</totfact>
</mgrwt>
</event>
<event>
 8    1  0.1226832E-024  0.7785106E+02  0.7818608E-02  0.1335263E+00
          2   -1    0    0  501    0  0.00000000000E+00  0.00000000000E+00  0.24985217067E+02  0.24985217197E+02  0.25500000000E-02 0. -1.
         -1   -1    0    0    0  501 -0.00000000000E+00 -0.00000000000E+00 -0.60643727400E+02  0.60643727609E+02  0.50400000000E-02 0.  1.
         24    2    1    2    0    0  0.00000000000E+00  0.00000000000E+00 -0.35658510333E+02  0.85628944807E+02  0.77851055417E+02 0.  0.
         66    2    3    3    0    0  0.36902139143E+02  0.12050108075E+02 -0.15098092963E+02  0.41700424407E+02  0.20000016650E+01 0.  0.
        -13    1    3    3    0    0 -0.36902139143E+02 -0.12050108075E+02 -0.20560417370E+02  0.43928520399E+02  0.10566000000E+00 0.  1.
         13    1    4    4    0    0  0.46469892655E+01  0.18098766723E+01 -0.21521371366E+01  0.54325888022E+01  0.10566000000E+00 0. -1.
        -13    1    4    4    0    0  0.19984617352E+02  0.67175973164E+01 -0.73371252950E+01  0.22323879950E+02  0.10566000000E+00 0.  1.
        -14    1    4    4    0    0  0.12270532526E+02  0.35226340865E+01 -0.56088305310E+01  0.13943955655E+02  0.00000000000E+00 0.  1.
<mgrwt>
<rscale>  0 0.77851055E+02</rscale>
<asrwt>0</asrwt>
<pdfrwt beam="1">  1        2 0.38438796E-02 0.77851055E+02</pdfrwt>
<pdfrwt beam="2">  1       -1 0.93298042E-02 0.77851055E+02</pdfrwt>
<totfact> 0.14016534E+05</totfact>
</mgrwt>
</event>
<event>
 8    1  0.1226832E-024  0.7429853E+02  0.7818608E-02  0.1346057E+00
          2   -1    0    0  501    0  0.00000000000E+00  0.00000000000E+00  0.66472238273E+02  0.66472238322E+02  0.25500000000E-02 0. -1.
         -1   -1    0    0    0  501 -0.00000000000E+00 -0.00000000000E+00 -0.20761568090E+02  0.20761568702E+02  0.50400000000E-02 0.  1.
         24    2    1    2    0    0  0.00000000000E+00 -0.17763568394E-14  0.45710670184E+02  0.87233807024E+02  0.74298531071E+02 0.  0.
         66    2    3    3    0    0 -0.68815828900E+01 -0.10074905322E+02  0.64035742262E+02  0.65218373097E+02  0.20000005140E+01 0.  0.
        -13    1    3    3    0    0  0.68815828900E+01  0.10074905322E+02 -0.18325072078E+02  0.22015433927E+02  0.10566000000E+00 0.  1.
         13    1    4    4    0    0 -0.38215363774E+01 -0.46453505082E+01  0.32280935161E+02  0.32836768424E+02  0.10566000000E+00 0. -1.
        -13    1    4    4    0    0 -0.40322265515E+00 -0.12796375110E+01  0.89407786200E+01  0.90415013707E+01  0.10566000000E+00 0.  1.
        -14    1    4    4    0    0 -0.26568238575E+01 -0.41499173025E+01  0.22814028481E+02  0.23340103302E+02  0.00000000000E+00 0.  1.
<mgrwt>
<rscale>  0 0.74298531E+02</rscale>
<asrwt>0</asrwt>
<pdfrwt beam="1">  1        2 0.10226498E-01 0.74298531E+02</pdfrwt>
<pdfrwt beam="2">  1       -1 0.31940875E-02 0.74298531E+02</pdfrwt>
<totfact> 0.19464820E+05</totfact>
</mgrwt>
</event>
<event>
 8    1  0.1226832E-024  0.8005766E+02  0.7818608E-02  0.1328888E+00
          2   -1    0    0  501    0  0.00000000000E+00  0.00000000000E+00  0.17428338589E+03  0.17428338591E+03  0.25500000000E-02 0. -1.
         -1   -1    0    0    0  501 -0.00000000000E+00 -0.00000000000E+00 -0.91936892003E+01  0.91936905818E+01  0.50400000000E-02 0.  1.
         24    2    1    2    0    0  0.00000000000E+00  0.00000000000E+00  0.16508969669E+03  0.18347707649E+03  0.80057664495E+02 0.  0.
         66    2    3    3    0    0 -0.23591399568E+02 -0.14271153394E+02  0.14902249033E+03  0.15156491208E+03  0.19999998176E+01 0.  0.
        -13    1    3    3    0    0  0.23591399568E+02  0.14271153394E+02  0.16067206365E+02  0.31912164408E+02  0.10566000000E+00 0.  1.
         13    1    4    4    0    0 -0.29715095023E+01 -0.16918079771E+01  0.20266312420E+02  0.20553020851E+02  0.10566000000E+00 0. -1.
        -13    1    4    4    0    0 -0.22166108357E+01 -0.19146181806E+01  0.16538939376E+02  0.16796630796E+02  0.10566000000E+00 0.  1.
         14    1    4    4    0    0 -0.18403279230E+02 -0.10664727236E+02  0.11221723853E+03  0.11421526044E+03  0.00000000000E+00 0. -1.
<mgrwt>
<rscale>  0 0.80057664E+02</rscale>
<asrwt>0</asrwt>
<pdfrwt beam="1">  1        2 0.26812827E-01 0.80057664E+02</pdfrwt>
<pdfrwt beam="2">  1       -1 0.14144139E-02 0.80057664E+02</pdfrwt>
<totfact> 0.21003735E+05</totfact>
</mgrwt>
</event>
<event>
 8    1  0.1226832E-024  0.8215487E+02  0.7818608E-02  0.1323045E+00
         -1   -1    0    0    0  501 -0.00000000000E+00  0.00000000000E+00  0.13378739737E+01  0.13378834669E+01  0.50400000000E-02 0.  1.
          2   -1    0    0  501    0  0.00000000000E+00 -0.00000000000E+00 -0.12612173291E+04  0.12612173291E+04  0.25500000000E-02 0. -1.
         24    2    1    2    0    0  0.00000000000E+00  0.00000000000E+00 -0.12598794552E+04  0.12625552126E+04  0.82154874093E+02 0.  0.
         66    2    3    3    0    0  0.26638926483E+02 -0.54716110102E+01 -0.11029320057E+04  0.11032690425E+04  0.20000004985E+01 0.  0.
        -13    1    3    3    0    0 -0.26638926483E+02  0.54716110102E+01 -0.15694744945E+03  0.15928617009E+03  0.10566000000E+00 0.  1.
         13    1    4    4    0    0  0.67534974291E+01 -0.15837107819E+01 -0.28448551214E+03  0.28457008917E+03  0.10566000000E+00 0.  1.
        -13    1    4    4    0    0  0.72644309638E+01 -0.10482627271E+01 -0.32531861503E+03  0.32540141866E+03  0.10566000000E+00 0. -1.
        -14    1    4    4    0    0  0.12620998090E+02 -0.28396375012E+01 -0.49312787854E+03  0.49329753468E+03  0.00000000000E+00 0.  1.
<mgrwt>
<rscale>  0 0.82154874E+02</rscale>
<asrwt>0</asrwt>
<pdfrwt beam="1">  1        2 0.19403249E+00 0.82154874E+02</pdfrwt>
<pdfrwt beam="2">  1       -1 0.20582850E-03 0.82154874E+02</pdfrwt>
<totfact> 0.32479065E+05</totfact>
</mgrwt>
</event>
<event>
 8    1  0.1226832E-024  0.8055937E+02  0.7818608E-02  0.1327471E+00
         -1   -1    0    0    0  501 -0.00000000000E+00  0.00000000000E+00  0.42269895811E+01  0.42269925858E+01  0.50400000000E-02 0.  1.
          2   -1    0    0  501    0  0.00000000000E+00 -0.00000000000E+00 -0.38383169899E+03  0.38383169900E+03  0.25500000000E-02 0. -1.
         24    2    1    2    0    0  0.17763568394E-14  0.00000000000E+00 -0.37960470941E+03  0.38805869158E+03  0.80559373810E+02 0.  0.
         66    2    3    3    0    0 -0.87007115192E+01 -0.20746057134E+02 -0.35072104987E+03  0.35144751542E+03  0.20000018357E+01 0.  0.
        -13    1    3    3    0    0  0.87007115192E+01  0.20746057134E+02 -0.28883659539E+02  0.36611176161E+02  0.10566000000E+00 0.  1.
         13    1    4    4    0    0 -0.73901828977E+01 -0.18125255521E+02 -0.30711426664E+03  0.30773742644E+03  0.10566000000E+00 0. -1.
        -13    1    4    4    0    0 -0.13211800366E+01 -0.25234614251E+01 -0.43085995430E+02  0.43180175318E+02  0.10566000000E+00 0.  1.
         14    1    4    4    0    0  0.10651415165E-01 -0.97340187845E-01 -0.52078779606E+00  0.52991366593E+00  0.00000000000E+00 0. -1.
<mgrwt>
<rscale>  0 0.80559374E+02</rscale>
<asrwt>0</asrwt>
<pdfrwt beam="1">  1        2 0.59051003E-01 0.80559374E+02</pdfrwt>
<pdfrwt beam="2">  1       -1 0.65030663E-03 0.80559374E+02</pdfrwt>
<totfact> 0.27344242E+05</totfact>
</mgrwt>
</event>
<event>
 8    1  0.1226832E-024  0.8281313E+02  0.7818608E-02  0.1321253E+00
         -1   -1    0    0    0  501 -0.00000000000E+00  0.00000000000E+00  0.12759647609E+01  0.12759747147E+01  0.50400000000E-02 0.  1.
          2   -1    0    0  501    0  0.00000000000E+00 -0.00000000000E+00 -0.13436868207E+04  0.13436868207E+04  0.25500000000E-02 0. -1.
         24    2    1    2    0    0  0.00000000000E+00  0.17763568394E-14 -0.13424108559E+04  0.13449627954E+04  0.82813132490E+02 0.  0.
         66    2    3    3    0    0  0.15546416756E+02  0.12614354256E+02 -0.12597970864E+04  0.12599577421E+04  0.19999947445E+01 0.  0.
        -13    1    3    3    0    0 -0.15546416756E+02 -0.12614354256E+02 -0.82613769543E+02  0.85005053317E+02  0.10566000000E+00 0.  1.
         13    1    4    4    0    0  0.13006808616E+02  0.10728367641E+02 -0.10564445306E+04  0.10565790706E+04  0.10566000000E+00 0. -1.
        -13    1    4    4    0    0  0.87336005373E+00  0.76012181437E+00 -0.98256164999E+02  0.98263043242E+02  0.10566000000E+00 0.  1.
         14    1    4    4    0    0  0.16662480871E+01  0.11258648005E+01 -0.10509639075E+03  0.10511562826E+03  0.00000000000E+00 0. -1.
<mgrwt>
<rscale>  0 0.82813132E+02</rscale>
<asrwt>0</asrwt>
<pdfrwt beam="1">  1        2 0.20671992E+00 0.82813132E+02</pdfrwt>
<pdfrwt beam="2">  1       -1 0.19630411E-03 0.82813132E+02</pdfrwt>
<totfact> 0.31418157E+05</totfact>
</mgrwt>
</event>
<event>
 8    1  0.1226832E-024  0.7885313E+02  0.7818608E-02  0.1332338E+00
         -1   -1    0    0    0  501 -0.00000000000E+00  0.00000000000E+00  0.20253773556E+03  0.20253773562E+03  0.50400000000E-02 0.  1.
          2   -1    0    0  501    0  0.00000000000E+00 -0.00000000000E+00 -0.76748861446E+01  0.76748865682E+01  0.25500000000E-02 0. -1.
         24    2    1    2    0    0 -0.35527136788E-14 -0.71054273576E-14  0.19486284942E+03  0.21021262219E+03  0.78853132126E+02 0.  0.
         66    2    3    3    0    0  0.16486553834E+02  0.31526369363E+02  0.52352326694E+02  0.63328386574E+02  0.20000033079E+01 0.  0.
        -13    1    3    3    0    0 -0.16486553834E+02 -0.31526369363E+02  0.14251052272E+03  0.14688423562E+03  0.10566000000E+00 0.  1.
         13    1    4    4    0    0  0.10048584740E+02  0.19397360417E+02  0.32646842446E+02  0.39281791356E+02  0.10566000000E+00 0. -1.
        -13    1    4    4    0    0  0.11280698360E+01  0.19890877576E+01  0.25918024944E+01  0.34579785812E+01  0.10566000000E+00 0. -1.
        -14    1    4    4    0    0  0.53098992579E+01  0.10139921188E+02  0.17113681753E+02  0.20588616636E+02  0.00000000000E+00 0.  1.
<mgrwt>
<rscale>  0 0.78853132E+02</rscale>
<asrwt>0</asrwt>
<pdfrwt beam="1">  1        2 0.11807520E-02 0.78853132E+02</pdfrwt>
<pdfrwt beam="2">  1       -1 0.31159645E-01 0.78853132E+02</pdfrwt>
<totfact> 0.10293774E+05</totfact>
</mgrwt>
</event>
<event>
 8    1  0.1226832E-024  0.7833998E+02  0.7818608E-02  0.1333829E+00
         -1   -1    0    0    0  501 -0.00000000000E+00  0.00000000000E+00  0.56371680732E+02  0.56371680958E+02  0.50400000000E-02 0.  1.
          2   -1    0    0  501    0  0.00000000000E+00 -0.00000000000E+00 -0.27217352586E+02  0.27217352705E+02  0.25500000000E-02 0. -1.
         24    2    1    2    0    0  0.71054273576E-14 -0.17763568394E-14  0.29154328146E+02  0.83589033663E+02  0.78339975102E+02 0.  0.
         66    2    3    3    0    0 -0.27637247816E+02 -0.12461743208E+02 -0.11834802166E+02  0.32606365251E+02  0.20000004896E+01 0.  0.
        -13    1    3    3    0    0  0.27637247816E+02  0.12461743208E+02  0.40989130312E+02  0.50982668412E+02  0.10566000000E+00 0.  1.
         13    1    4    4    0    0 -0.62087037548E+00 -0.16471112446E+00 -0.43326260966E+00  0.78197845380E+00  0.10566000000E+00 0.  1.
        -13    1    4    4    0    0 -0.50020831192E+01 -0.18037858289E+01 -0.17929845521E+01  0.56125249654E+01  0.10566000000E+00 0.  1.
         14    1    4    4    0    0 -0.22014294321E+02 -0.10493246255E+02 -0.96085550043E+01  0.26211861832E+02  0.00000000000E+00 0. -1.
<mgrwt>
<rscale>  0 0.78339975E+02</rscale>
<asrwt>0</asrwt>
<pdfrwt beam="1">  1        2 0.41872851E-02 0.78339975E+02</pdfrwt>
<pdfrwt beam="2">  1       -1 0.86725662E-02 0.78339975E+02</pdfrwt>
<totfact> 0.14001498E+05</totfact>
</mgrwt>
</event>
<event>
 8    1  0.1226832E-024  0.8224089E+02  0.7818608E-02  0.1322810E+00
          2   -1    0    0  501    0  0.00000000000E+00  0.00000000000E+00  0.90445291190E+03  0.90445291191E+03  0.25500000000E-02 0. -1.
         -1   -1    0    0    0  501 -0.00000000000E+00 -0.00000000000E+00 -0.18695146452E+01  0.18695214389E+01  0.50400000000E-02 0.  1.
         24    2    1    2    0    0 -0.35527136788E-14 -0.17763568394E-14  0.90258339726E+03  0.90632243335E+03  0.82240891166E+02 0.  0.
         66    2    3    3    0    0 -0.19205249180E+02 -0.63830735813E+01  0.84572575735E+03  0.84597023700E+03  0.20000029412E+01 0.  0.
        -13    1    3    3    0    0  0.19205249180E+02  0.63830735813E+01  0.56857639908E+02  0.60352196351E+02  0.10566000000E+00 0.  1.
         13    1    4    4    0    0 -0.11638033408E+02 -0.43224392193E+01  0.52780332407E+03  0.52794932273E+03  0.10566000000E+00 0. -1.
        -13    1    4    4    0    0 -0.12565007331E+01 -0.70109439223E+00  0.66184538353E+02  0.66200261393E+02  0.10566000000E+00 0.  1.
         14    1    4    4    0    0 -0.63107150394E+01 -0.13595399697E+01  0.25173789493E+03  0.25182065288E+03  0.00000000000E+00 0. -1.
<mgrwt>
<rscale>  0 0.82240891E+02</rscale>
<asrwt>0</asrwt>
<pdfrwt beam="1">  1        2 0.13914666E+00 0.82240891E+02</pdfrwt>
<pdfrwt beam="2">  1       -1 0.28761805E-03 0.82240891E+02</pdfrwt>
<totfact> 0.32541687E+05</totfact>
</mgrwt>
</event>
<event>
 8    1  0.1226832E-024  0.7827920E+02  0.7818608E-02  0.1334007E+00
          2   -1    0    0  501    0  0.00000000000E+00  0.00000000000E+00  0.74788124344E+03  0.74788124345E+03  0.25500000000E-02 0. -1.
         -1   -1    0    0    0  501 -0.00000000000E+00 -0.00000000000E+00 -0.20483276202E+01  0.20483338208E+01  0.50400000000E-02 0.  1.
         24    2    1    2    0    0  0.88817841970E-15 -0.71054273576E-14  0.74583291582E+03  0.74992957727E+03  0.78279196067E+02 0.  0.
         66    2    3    3    0    0 -0.61409616811E+01  0.23669115469E+02  0.66562419203E+03  0.66607619944E+03  0.20000002263E+01 0.  0.
        -13    1    3    3    0    0  0.61409616811E+01 -0.23669115469E+02  0.80208723789E+02  0.83853377829E+02  0.10566000000E+00 0.  1.
         13    1    4    4    0    0 -0.15628733821E+01  0.73859589293E+01  0.18983839950E+03  0.18998848399E+03  0.10566000000E+00 0. -1.
        -13    1    4    4    0    0 -0.25432448297E+01  0.73135184239E+01  0.20885838157E+03  0.20900189081E+03  0.10566000000E+00 0.  1.
        -14    1    4    4    0    0 -0.20348434693E+01  0.89696381162E+01  0.26692741097E+03  0.26708582464E+03  0.00000000000E+00 0.  1.
<mgrwt>
<rscale>  0 0.78279196E+02</rscale>
<asrwt>0</asrwt>
<pdfrwt beam="1">  1        2 0.11505877E+00 0.78279196E+02</pdfrwt>
<pdfrwt beam="2">  1       -1 0.31512749E-03 0.78279196E+02</pdfrwt>
<totfact> 0.35903765E+05</totfact>
</mgrwt>
</event>
<event>
 8    1  0.1226832E-024  0.7708426E+02  0.7818608E-02  0.1337536E+00
          2   -1    0    0  501    0  0.00000000000E+00  0.00000000000E+00  0.15677338322E+03  0.15677338324E+03  0.25500000000E-02 0. -1.
         -1   -1    0    0    0  501 -0.00000000000E+00 -0.00000000000E+00 -0.94754322525E+01  0.94754335929E+01  0.50400000000E-02 0.  1.
         24    2    1    2    0    0  0.00000000000E+00  0.00000000000E+00  0.14729795097E+03  0.16624881683E+03  0.77084257403E+02 0.  0.
         66    2    3    3    0    0  0.28237321208E+02 -0.11416075819E+02  0.12454467974E+03  0.12823045796E+03  0.19999999135E+01 0.  0.
        -13    1    3    3    0    0 -0.28237321208E+02  0.11416075819E+02  0.22753271224E+02  0.38018358875E+02  0.10566000000E+00 0.  1.
         13    1    4    4    0    0  0.74700698859E+01 -0.24237696014E+01  0.31551702693E+02  0.32514576886E+02  0.10566000000E+00 0. -1.
        -13    1    4    4    0    0  0.12176577615E+02 -0.56631783597E+01  0.57354523868E+02  0.58905799407E+02  0.10566000000E+00 0.  1.
        -14    1    4    4    0    0  0.85906737079E+01 -0.33291278581E+01  0.35638453181E+02  0.36810081665E+02  0.00000000000E+00 0.  1.
<mgrwt>
<rscale>  0 0.77084257E+02</rscale>
<asrwt>0</asrwt>
<pdfrwt beam="1">  1        2 0.24118982E-01 0.77084257E+02</pdfrwt>
<pdfrwt beam="2">  1       -1 0.14577589E-02 0.77084257E+02</pdfrwt>
<totfact> 0.22416247E+05</totfact>
</mgrwt>
</event>
<event>
 8    1  0.1226832E-024  0.7962293E+02  0.7818608E-02  0.1330125E+00
         -1   -1    0    0    0  501 -0.00000000000E+00  0.00000000000E+00  0.52411624228E+01  0.52411648460E+01  0.50400000000E-02 0.  1.
          2   -1    0    0  501    0  0.00000000000E+00 -0.00000000000E+00 -0.30240477135E+03  0.30240477136E+03  0.25500000000E-02 0. -1.
         24    2    1    2    0    0  0.00000000000E+00  0.71054273576E-14 -0.29716360892E+03  0.30764593620E+03  0.79622933843E+02 0.  0.
         66    2    3    3    0    0  0.13015889207E+02 -0.36979461002E+02 -0.17489614451E+03  0.17924719040E+03  0.19999977190E+01 0.  0.
        -13    1    3    3    0    0 -0.13015889207E+02  0.36979461002E+02 -0.12226746441E+03  0.12839874581E+03  0.10566000000E+00 0.  1.
         13    1    4    4    0    0  0.12206991764E+01 -0.31238529384E+01 -0.15823115309E+02  0.16175002497E+02  0.10566000000E+00 0. -1.
        -13    1    4    4    0    0  0.17694430361E+01 -0.71709325695E+01 -0.32450105248E+02  0.33280229826E+02  0.10566000000E+00 0. -1.
        -14    1    4    4    0    0  0.10025746994E+02 -0.26684675494E+02 -0.12662292396E+03  0.12979195807E+03  0.00000000000E+00 0.  1.
<mgrwt>
<rscale>  0 0.79622934E+02</rscale>
<asrwt>0</asrwt>
<pdfrwt beam="1">  1        2 0.46523797E-01 0.79622934E+02</pdfrwt>
<pdfrwt beam="2">  1       -1 0.80633311E-03 0.79622934E+02</pdfrwt>
<totfact> 0.25886839E+05</totfact>
</mgrwt>
</event>
<event>
 8    1  0.1226832E-024  0.8163979E+02  0.7818608E-02  0.1324461E+00
          2   -1    0    0  501    0  0.00000000000E+00  0.00000000000E+00  0.13938012761E+02  0.13938012994E+02  0.25500000000E-02 0. -1.
         -1   -1    0    0    0  501 -0.00000000000E+00 -0.00000000000E+00 -0.11954817051E+03  0.11954817061E+03  0.50400000000E-02 0.  1.
         24    2    1    2    0    0  0.00000000000E+00  0.17763568394E-14 -0.10561015775E+03  0.13348618361E+03  0.81639792962E+02 0.  0.
         66    2    3    3    0    0 -0.13497899801E+02 -0.15056413561E+02  0.50955572955E+01  0.20948832495E+02  0.19999975975E+01 0.  0.
        -13    1    3    3    0    0  0.13497899801E+02  0.15056413561E+02 -0.11070571504E+03  0.11253735111E+03  0.10566000000E+00 0.  1.
         13    1    4    4    0    0 -0.70879960367E+01 -0.71923203147E+01  0.26972236794E+01  0.10452527873E+02  0.10566000000E+00 0. -1.
        -13    1    4    4    0    0 -0.17837266446E+01 -0.18167380128E+01  0.10865485179E+01  0.27701930379E+01  0.10566000000E+00 0.  1.
        -14    1    4    4    0    0 -0.46261771196E+01 -0.60473552339E+01  0.13117850982E+01  0.77261115841E+01  0.00000000000E+00 0.  1.
<mgrwt>
<rscale>  0 0.81639793E+02</rscale>
<asrwt>0</asrwt>
<pdfrwt beam="1">  1        2 0.21443098E-02 0.81639793E+02</pdfrwt>
<pdfrwt beam="2">  1       -1 0.18392026E-01 0.81639793E+02</pdfrwt>
<totfact> 0.10828571E+05</totfact>
</mgrwt>
</event>
<event>
 8    1  0.1226832E-024  0.7930076E+02  0.7818608E-02  0.1331048E+00
          2   -1    0    0  501    0  0.00000000000E+00  0.00000000000E+00  0.86358759097E+03  0.86358759098E+03  0.25500000000E-02 0. -1.
         -1   -1    0    0    0  501 -0.00000000000E+00 -0.00000000000E+00 -0.18204866723E+01  0.18204936489E+01  0.50400000000E-02 0.  1.
         24    2    1    2    0    0  0.00000000000E+00  0.00000000000E+00  0.86176710430E+03  0.86540808463E+03  0.79300762170E+02 0.  0.
         66    2    3    3    0    0  0.18838184331E+01  0.21827498217E+02  0.79147702875E+03  0.79178271987E+03  0.19999993797E+01 0.  0.
        -13    1    3    3    0    0 -0.18838184331E+01 -0.21827498217E+02  0.70290075555E+02  0.73625364759E+02  0.10566000000E+00 0.  1.
         13    1    4    4    0    0  0.42082294012E+00  0.37688426387E+01  0.11246685818E+03  0.11253082519E+03  0.10566000000E+00 0. -1.
        -13    1    4    4    0    0  0.35847278123E+00  0.51467060588E+01  0.19534113774E+03  0.19540928418E+03  0.10566000000E+00 0. -1.
         14    1    4    4    0    0  0.11045227117E+01  0.12911949519E+02  0.48366903283E+03  0.48384261049E+03  0.00000000000E+00 0. -1.
<mgrwt>
<rscale>  0 0.79300762E+02</rscale>
<asrwt>0</asrwt>
<pdfrwt beam="1">  1        2 0.13285976E+00 0.79300762E+02</pdfrwt>
<pdfrwt beam="2">  1       -1 0.28007514E-03 0.79300762E+02</pdfrwt>
<totfact> 0.35572612E+05</totfact>
</mgrwt>
</event>
<event>
 8    1  0.1226832E-024  0.7938484E+02  0.7818608E-02  0.1330806E+00
          2   -1    0    0  501    0  0.00000000000E+00  0.00000000000E+00  0.96667230384E+02  0.96667230418E+02  0.25500000000E-02 0. -1.
         -1   -1    0    0    0  501 -0.00000000000E+00 -0.00000000000E+00 -0.16298059786E+02  0.16298060565E+02  0.50400000000E-02 0.  1.
         24    2    1    2    0    0  0.35527136788E-14  0.00000000000E+00  0.80369170598E+02  0.11296529098E+03  0.79384843542E+02 0.  0.
         66    2    3    3    0    0  0.19923584153E+02 -0.24479960030E+02  0.74399722987E+02  0.80842664730E+02  0.20000028450E+01 0.  0.
        -13    1    3    3    0    0 -0.19923584153E+02  0.24479960030E+02  0.59694476108E+01  0.32122626253E+02  0.10566000000E+00 0.  1.
         13    1    4    4    0    0  0.45865440835E+01 -0.55207008103E+01  0.18104460136E+02  0.19475553007E+02  0.10566000000E+00 0. -1.
        -13    1    4    4    0    0  0.55648540693E+01 -0.65239339555E+01  0.18192486119E+02  0.20112360137E+02  0.10566000000E+00 0.  1.
        -14    1    4    4    0    0  0.97721860005E+01 -0.12435325265E+02  0.38102776732E+02  0.41254751585E+02  0.00000000000E+00 0.  1.
<mgrwt>
<rscale>  0 0.79384844E+02</rscale>
<asrwt>0</asrwt>
<pdfrwt beam="1">  1        2 0.14871881E-01 0.79384844E+02</pdfrwt>
<pdfrwt beam="2">  1       -1 0.25073939E-02 0.79384844E+02</pdfrwt>
<totfact> 0.17926576E+05</totfact>
</mgrwt>
</event>
<event>
 8    1  0.1226832E-024  0.7466112E+02  0.7818608E-02  0.1344924E+00
         -1   -1    0    0    0  501 -0.00000000000E+00  0.00000000000E+00  0.15394190858E+01  0.15394273361E+01  0.50400000000E-02 0.  1.
          2   -1    0    0  501    0  0.00000000000E+00 -0.00000000000E+00 -0.90525508851E+03  0.90525508852E+03  0.25500000000E-02 0. -1.
         24    2    1    2    0    0  0.00000000000E+00  0.17763568394E-14 -0.90371566943E+03  0.90679451585E+03  0.74661119816E+02 0.  0.
         66    2    3    3    0    0 -0.13170620218E+02  0.14812627202E+02 -0.83600242191E+03  0.83623975546E+03  0.20000001577E+01 0.  0.
        -13    1    3    3    0    0  0.13170620218E+02 -0.14812627202E+02 -0.67713247514E+02  0.70554760395E+02  0.10566000000E+00 0.  1.
         13    1    4    4    0    0 -0.24597793356E+01  0.24005738340E+01 -0.15884909353E+03  0.15888630825E+03  0.10566000000E+00 0. -1.
        -13    1    4    4    0    0 -0.12662084350E+01  0.82935585488E+00 -0.65025511159E+02  0.65043211640E+02  0.10566000000E+00 0.  1.
         14    1    4    4    0    0 -0.94446324471E+01  0.11582697513E+02 -0.61212781722E+03  0.61231023557E+03  0.00000000000E+00 0. -1.
<mgrwt>
<rscale>  0 0.74661120E+02</rscale>
<asrwt>0</asrwt>
<pdfrwt beam="1">  1        2 0.13926959E+00 0.74661120E+02</pdfrwt>
<pdfrwt beam="2">  1       -1 0.23683506E-03 0.74661120E+02</pdfrwt>
<totfact> 0.41810847E+05</totfact>
</mgrwt>
</event>
<event>
 8    1  0.1226832E-024  0.8005260E+02  0.7818608E-02  0.1328902E+00
         -1   -1    0    0    0  501 -0.00000000000E+00  0.00000000000E+00  0.85384154903E+02  0.85384155052E+02  0.50400000000E-02 0.  1.
          2   -1    0    0  501    0  0.00000000000E+00 -0.00000000000E+00 -0.18763489353E+02  0.18763489526E+02  0.25500000000E-02 0. -1.
         24    2    1    2    0    0 -0.17763568394E-14 -0.88817841970E-15  0.66620665550E+02  0.10414764458E+03  0.80052600162E+02 0.  0.
         66    2    3    3    0    0 -0.14378317758E+02 -0.74971804537E+01 -0.14242427610E+02  0.21674650599E+02  0.19999995183E+01 0.  0.
        -13    1    3    3    0    0  0.14378317758E+02  0.74971804537E+01  0.80863093160E+02  0.82472993978E+02  0.10566000000E+00 0.  1.
         13    1    4    4    0    0 -0.95193392516E+00 -0.50919886987E+00 -0.13886075006E+01  0.17620603035E+01  0.10566000000E+00 0.  1.
        -13    1    4    4    0    0 -0.59682782166E+01 -0.39079242961E+01 -0.62737888096E+01  0.95007266689E+01  0.10566000000E+00 0.  1.
         14    1    4    4    0    0 -0.74581056163E+01 -0.30800572877E+01 -0.65800312995E+01  0.10411863627E+02  0.00000000000E+00 0. -1.
<mgrwt>
<rscale>  0 0.80052600E+02</rscale>
<asrwt>0</asrwt>
<pdfrwt beam="1">  1        2 0.28866908E-02 0.80052600E+02</pdfrwt>
<pdfrwt beam="2">  1       -1 0.13136024E-01 0.80052600E+02</pdfrwt>
<totfact> 0.12232164E+05</totfact>
</mgrwt>
</event>
<event>
 8    1  0.1226832E-024  0.8215867E+02  0.7818608E-02  0.1323035E+00
         -1   -1    0    0    0  501 -0.00000000000E+00  0.00000000000E+00  0.42581203433E+03  0.42581203436E+03  0.50400000000E-02 0.  1.
          2   -1    0    0  501    0  0.00000000000E+00 -0.00000000000E+00 -0.39630438559E+01  0.39630446763E+01  0.25500000000E-02 0. -1.
         24    2    1    2    0    0  0.00000000000E+00  0.00000000000E+00  0.42184899047E+03  0.42977507904E+03  0.82158674506E+02 0.  0.
         66    2    3    3    0    0 -0.36166292317E+02 -0.15250914248E+02  0.27402088998E+03  0.27682492524E+03  0.20000013647E+01 0.  0.
        -13    1    3    3    0    0  0.36166292317E+02  0.15250914248E+02  0.14782810050E+03  0.15295015379E+03  0.10566000000E+00 0.  1.
         13    1    4    4    0    0 -0.13178799599E+02 -0.55829714162E+01  0.96145101979E+02  0.97204640462E+02  0.10566000000E+00 0. -1.
        -13    1    4    4    0    0 -0.20889910222E+02 -0.89257357482E+01  0.16437791054E+03  0.16594024752E+03  0.10566000000E+00 0.  1.
         14    1    4    4    0    0 -0.20975824965E+01 -0.74220708392E+00  0.13497877454E+02  0.13680037260E+02  0.00000000000E+00 0. -1.
<mgrwt>
<rscale>  0 0.82158675E+02</rscale>
<asrwt>0</asrwt>
<pdfrwt beam="1">  1        2 0.60969917E-03 0.82158675E+02</pdfrwt>
<pdfrwt beam="2">  1       -1 0.65509538E-01 0.82158675E+02</pdfrwt>
<totfact> 0.68472433E+04</totfact>
</mgrwt>
</event>
<event>
 8    1  0.1226832E-024  0.8131782E+02  0.7818608E-02  0.1325353E+00
         -1   -1    0    0    0  501 -0.00000000000E+00  0.00000000000E+00  0.97424852999E+01  0.97424866035E+01  0.50400000000E-02 0.  1.
          2   -1    0    0  501    0  0.00000000000E+00 -0.00000000000E+00 -0.16968428430E+03  0.16968428432E+03  0.25500000000E-02 0. -1.
         24    2    1    2    0    0 -0.35527136788E-14  0.00000000000E+00 -0.15994179900E+03  0.17942677092E+03  0.81317815123E+02 0.  0.
         66    2    3    3    0    0 -0.23548185318E+02 -0.28659351140E+02 -0.11662731537E+03  0.12240018857E+03  0.20000075315E+01 0.  0.
        -13    1    3    3    0    0  0.23548185318E+02  0.28659351140E+02 -0.43314483629E+02  0.57026582360E+02  0.10566000000E+00 0.  1.
         13    1    4    4    0    0 -0.32529087867E+01 -0.45413535339E+01 -0.17859399888E+02  0.18712953692E+02  0.10566000000E+00 0. -1.
        -13    1    4    4    0    0 -0.69679912195E+01 -0.91524904044E+01 -0.37593987690E+02  0.39314629042E+02  0.10566000000E+00 0.  1.
        -14    1    4    4    0    0 -0.13327285311E+02 -0.14965507202E+02 -0.61173927795E+02  0.64372605831E+02  0.00000000000E+00 0.  1.
<mgrwt>
<rscale>  0 0.81317815E+02</rscale>
<asrwt>0</asrwt>
<pdfrwt beam="1">  1        2 0.26105272E-01 0.81317815E+02</pdfrwt>
<pdfrwt beam="2">  1       -1 0.14988441E-02 0.81317815E+02</pdfrwt>
<totfact> 0.19972890E+05</totfact>
</mgrwt>
</event>
<event>
 8    1  0.1226832E-024  0.7642564E+02  0.7818608E-02  0.1339512E+00
         -1   -1    0    0    0  501 -0.00000000000E+00  0.00000000000E+00  0.18760627337E+02  0.18760628014E+02  0.50400000000E-02 0.  1.
          2   -1    0    0  501    0  0.00000000000E+00 -0.00000000000E+00 -0.77834253542E+02  0.77834253584E+02  0.25500000000E-02 0. -1.
         24    2    1    2    0    0  0.00000000000E+00  0.35527136788E-14 -0.59073626205E+02  0.96594881598E+02  0.76425636000E+02 0.  0.
         66    2    3    3    0    0  0.21359083706E+02  0.29903395103E+02 -0.42679177839E+02  0.56355440788E+02  0.19999974614E+01 0.  0.
        -13    1    3    3    0    0 -0.21359083706E+02 -0.29903395103E+02 -0.16394448365E+02  0.40239440810E+02  0.10566000000E+00 0.  1.
         13    1    4    4    0    0  0.63485460352E+01  0.98869650992E+01 -0.13829724720E+02  0.18147412088E+02  0.10566000000E+00 0. -1.
        -13    1    4    4    0    0  0.17603927555E+01  0.19388228077E+01 -0.26072943099E+01  0.36969127914E+01  0.10566000000E+00 0.  1.
        -14    1    4    4    0    0  0.13250144916E+02  0.18077607196E+02 -0.26242158810E+02  0.34511115908E+02  0.00000000000E+00 0.  1.
<mgrwt>
<rscale>  0 0.76425636E+02</rscale>
<asrwt>0</asrwt>
<pdfrwt beam="1">  1        2 0.11974500E-01 0.76425636E+02</pdfrwt>
<pdfrwt beam="2">  1       -1 0.28862505E-02 0.76425636E+02</pdfrwt>
<totfact> 0.18748314E+05</totfact>
</mgrwt>
</event>
<event>
 8    1  0.1226832E-024  0.7756776E+02  0.7818608E-02  0.1336099E+00
         -1   -1    0    0    0  501 -0.00000000000E+00  0.00000000000E+00  0.75577200226E+02  0.75577200394E+02  0.50400000000E-02 0.  1.
          2   -1    0    0  501    0  0.00000000000E+00 -0.00000000000E+00 -0.19902685629E+02  0.19902685793E+02  0.25500000000E-02 0. -1.
         24    2    1    2    0    0  0.27755575616E-16  0.00000000000E+00  0.55674514597E+02  0.95479886187E+02  0.77567758061E+02 0.  0.
         66    2    3    3    0    0 -0.79446188052E-01  0.38300744316E+02  0.35161941423E+02  0.52031869557E+02  0.19999995270E+01 0.  0.
        -13    1    3    3    0    0  0.79446188052E-01 -0.38300744316E+02  0.20512573174E+02  0.43448016630E+02  0.10566000000E+00 0.  1.
         13    1    4    4    0    0  0.13819476519E+00  0.24955923283E+02  0.22005191551E+02  0.33272463449E+02  0.10566000000E+00 0. -1.
        -13    1    4    4    0    0 -0.30091841717E+00  0.53791998820E+01  0.57825273985E+01  0.79041211032E+01  0.10566000000E+00 0.  1.
        -14    1    4    4    0    0  0.83277463931E-01  0.79656211501E+01  0.73742224742E+01  0.10855285005E+02  0.00000000000E+00 0.  1.
<mgrwt>
<rscale>  0 0.77567758E+02</rscale>
<asrwt>0</asrwt>
<pdfrwt beam="1">  1        2 0.30619517E-02 0.77567758E+02</pdfrwt>
<pdfrwt beam="2">  1       -1 0.11627262E-01 0.77567758E+02</pdfrwt>
<totfact> 0.13550293E+05</totfact>
</mgrwt>
</event>
<event>
 8    1  0.1226832E-024  0.7946445E+02  0.7818608E-02  0.1330578E+00
         -1   -1    0    0    0  501 -0.00000000000E+00  0.00000000000E+00  0.56889724806E+01  0.56889747132E+01  0.50400000000E-02 0.  1.
          2   -1    0    0  501    0  0.00000000000E+00 -0.00000000000E+00 -0.27749288288E+03  0.27749288289E+03  0.25500000000E-02 0. -1.
         24    2    1    2    0    0  0.00000000000E+00  0.00000000000E+00 -0.27180391040E+03  0.28318185761E+03  0.79464449713E+02 0.  0.
         66    2    3    3    0    0 -0.33071024236E+01 -0.26972983030E+02 -0.23915878482E+03  0.24070605122E+03  0.19999993839E+01 0.  0.
        -13    1    3    3    0    0  0.33071024236E+01  0.26972983030E+02 -0.32645125583E+02  0.42475806388E+02  0.10566000000E+00 0.  1.
         13    1    4    4    0    0 -0.11785456396E+01 -0.74995458601E+01 -0.72123317436E+02  0.72521832850E+02  0.10566000000E+00 0. -1.
        -13    1    4    4    0    0 -0.57010527511E-01 -0.49837076360E+01 -0.43297999150E+02  0.43584039354E+02  0.10566000000E+00 0.  1.
         14    1    4    4    0    0 -0.20715462565E+01 -0.14489729534E+02 -0.12373746823E+03  0.12460017902E+03  0.00000000000E+00 0. -1.
<mgrwt>
<rscale>  0 0.79464450E+02</rscale>
<asrwt>0</asrwt>
<pdfrwt beam="1">  1        2 0.42691202E-01 0.79464450E+02</pdfrwt>
<pdfrwt beam="2">  1       -1 0.87522693E-03 0.79464450E+02</pdfrwt>
<totfact> 0.25224957E+05</totfact>
</mgrwt>
</event>
<event>
 8    1  0.1226832E-024  0.7967217E+02  0.7818608E-02  0.1329984E+00
          2   -1    0    0  501    0  0.00000000000E+00  0.00000000000E+00  0.30094993842E+03  0.30094993843E+03  0.25500000000E-02 0. -1.
         -1   -1    0    0    0  501 -0.00000000000E+00 -0.00000000000E+00 -0.52730144295E+01  0.52730168381E+01  0.50400000000E-02 0.  1.
         24    2    1    2    0    0  0.00000000000E+00  0.71054273576E-14  0.29567692399E+03  0.30622295527E+03  0.79672171761E+02 0.  0.
         66    2    3    3    0    0  0.13473669627E+02  0.37309231866E+02  0.16090307363E+03  0.16573266927E+03  0.20000008501E+01 0.  0.
        -13    1    3    3    0    0 -0.13473669627E+02 -0.37309231866E+02  0.13477385036E+03  0.14049028600E+03  0.10566000000E+00 0.  1.
         13    1    4    4    0    0  0.10710525928E+01  0.25990179567E+01  0.10260112995E+02  0.10638756069E+02  0.10566000000E+00 0. -1.
        -13    1    4    4    0    0  0.53671244130E+01  0.15470563093E+02  0.63923794315E+02  0.65987930643E+02  0.10566000000E+00 0.  1.
         14    1    4    4    0    0  0.70354926210E+01  0.19239650817E+02  0.86719166321E+02  0.89105982557E+02  0.00000000000E+00 0. -1.
<mgrwt>
<rscale>  0 0.79672172E+02</rscale>
<asrwt>0</asrwt>
<pdfrwt beam="1">  1        2 0.46300005E-01 0.79672172E+02</pdfrwt>
<pdfrwt beam="2">  1       -1 0.81123293E-03 0.79672172E+02</pdfrwt>
<totfact> 0.25799886E+05</totfact>
</mgrwt>
</event>
<event>
 8    1  0.1226832E-024  0.7806175E+02  0.7818608E-02  0.1334644E+00
         -1   -1    0    0    0  501 -0.00000000000E+00  0.00000000000E+00  0.14740825002E+03  0.14740825011E+03  0.50400000000E-02 0.  1.
          2   -1    0    0  501    0  0.00000000000E+00 -0.00000000000E+00 -0.10334626905E+02  0.10334627219E+02  0.25500000000E-02 0. -1.
         24    2    1    2    0    0 -0.35527136788E-14 -0.35527136788E-14  0.13707362312E+03  0.15774287733E+03  0.78061752434E+02 0.  0.
         66    2    3    3    0    0 -0.24091441185E+02 -0.29776145125E+02  0.83484309786E+02  0.91872990245E+02  0.19999998170E+01 0.  0.
        -13    1    3    3    0    0  0.24091441185E+02  0.29776145125E+02  0.53589313332E+02  0.65869887083E+02  0.10566000000E+00 0.  1.
         13    1    4    4    0    0 -0.67855031297E+01 -0.85836170668E+01  0.22470531019E+02  0.24993148320E+02  0.10566000000E+00 0. -1.
        -13    1    4    4    0    0 -0.54449720024E+01 -0.69317639072E+01  0.18301842516E+02  0.20314174226E+02  0.10566000000E+00 0.  1.
        -14    1    4    4    0    0 -0.11860966053E+02 -0.14260764151E+02  0.42711936251E+02  0.46565667699E+02  0.00000000000E+00 0.  1.
<mgrwt>
<rscale>  0 0.78061752E+02</rscale>
<asrwt>0</asrwt>
<pdfrwt beam="1">  1        2 0.15899427E-02 0.78061752E+02</pdfrwt>
<pdfrwt beam="2">  1       -1 0.22678191E-01 0.78061752E+02</pdfrwt>
<totfact> 0.11527444E+05</totfact>
</mgrwt>
</event>
<event>
 8    1  0.1226832E-024  0.8025950E+02  0.7818608E-02  0.1328317E+00
          2   -1    0    0  501    0  0.00000000000E+00  0.00000000000E+00  0.22678925509E+02  0.22678925652E+02  0.25500000000E-02 0. -1.
         -1   -1    0    0    0  501 -0.00000000000E+00 -0.00000000000E+00 -0.71008510624E+02  0.71008510803E+02  0.50400000000E-02 0.  1.
         24    2    1    2    0    0  0.00000000000E+00  0.00000000000E+00 -0.48329585116E+02  0.93687436456E+02  0.80259497582E+02 0.  0.
         66    2    3    3    0    0  0.24103673701E+02 -0.44154827144E+01  0.12879389952E+02  0.27755400492E+02  0.19999993713E+01 0.  0.
        -13    1    3    3    0    0 -0.24103673701E+02  0.44154827144E+01 -0.61208975067E+02  0.65932035963E+02  0.10566000000E+00 0.  1.
         13    1    4    4    0    0  0.10301898412E+02 -0.12976200721E+01  0.53845155839E+01  0.11696884237E+02  0.10566000000E+00 0.  1.
        -13    1    4    4    0    0  0.33149934642E+00  0.66144278902E-01  0.11372050985E+00  0.37197213911E+00  0.10566000000E+00 0. -1.
         14    1    4    4    0    0  0.13470275942E+02 -0.31840069212E+01  0.73811538578E+01  0.15686544116E+02  0.00000000000E+00 0. -1.
<mgrwt>
<rscale>  0 0.80259498E+02</rscale>
<asrwt>0</asrwt>
<pdfrwt beam="1">  1        2 0.34890655E-02 0.80259498E+02</pdfrwt>
<pdfrwt beam="2">  1       -1 0.10924386E-01 0.80259498E+02</pdfrwt>
<totfact> 0.12615457E+05</totfact>
</mgrwt>
</event>
<event>
 8    1  0.1226832E-024  0.8032587E+02  0.7818608E-02  0.1328129E+00
         -1   -1    0    0    0  501 -0.00000000000E+00  0.00000000000E+00  0.50425500888E+01  0.50425526075E+01  0.50400000000E-02 0.  1.
          2   -1    0    0  501    0  0.00000000000E+00 -0.00000000000E+00 -0.31988993653E+03  0.31988993654E+03  0.25500000000E-02 0. -1.
         24    2    1    2    0    0  0.35527136788E-14  0.00000000000E+00 -0.31484738645E+03  0.32493248915E+03  0.80325872264E+02 0.  0.
         66    2    3    3    0    0 -0.26036283267E+02 -0.21276839327E+02 -0.24618931040E+03  0.24848293384E+03  0.19999782541E+01 0.  0.
        -13    1    3    3    0    0  0.26036283267E+02  0.21276839327E+02 -0.68658076043E+02  0.76449555316E+02  0.10566000000E+00 0.  1.
         13    1    4    4    0    0 -0.17806084262E+02 -0.15123238992E+02 -0.16979962349E+03  0.17139921907E+03  0.10566000000E+00 0. -1.
        -13    1    4    4    0    0 -0.73277660167E+01 -0.53747077163E+01 -0.69495217513E+02  0.70086946424E+02  0.10566000000E+00 0.  1.
         14    1    4    4    0    0 -0.90243298862E+00 -0.77889261882E+00 -0.68944693949E+01  0.69967683432E+01  0.00000000000E+00 0. -1.
<mgrwt>
<rscale>  0 0.80325872E+02</rscale>
<asrwt>0</asrwt>
<pdfrwt beam="1">  1        2 0.49213821E-01 0.80325872E+02</pdfrwt>
<pdfrwt beam="2">  1       -1 0.77577738E-03 0.80325872E+02</pdfrwt>
<totfact> 0.25816563E+05</totfact>
</mgrwt>
</event>
<event>
 8    1  0.1226832E-024  0.7992613E+02  0.7818608E-02  0.1329261E+00
          2   -1    0    0  501    0  0.00000000000E+00  0.00000000000E+00  0.29798793631E+02  0.29798793740E+02  0.25500000000E-02 0. -1.
         -1   -1    0    0    0  501 -0.00000000000E+00 -0.00000000000E+00 -0.53594330804E+02  0.53594331041E+02  0.50400000000E-02 0.  1.
         24    2    1    2    0    0  0.00000000000E+00 -0.35527136788E-14 -0.23795537173E+02  0.83393124781E+02  0.79926126338E+02 0.  0.
         66    2    3    3    0    0 -0.30544186872E+02 -0.24665931574E+02 -0.42602987357E+01  0.39541189396E+02  0.19999953691E+01 0.  0.
        -13    1    3    3    0    0  0.30544186872E+02  0.24665931574E+02 -0.19535238437E+02  0.43851935384E+02  0.10566000000E+00 0.  1.
         13    1    4    4    0    0 -0.11785879435E+02 -0.10671842125E+02 -0.20288798934E+01  0.16028808005E+02  0.10566000000E+00 0. -1.
        -13    1    4    4    0    0 -0.20796525740E+01 -0.15331093290E+01 -0.18288736510E+00  0.25922945178E+01  0.10566000000E+00 0.  1.
         14    1    4    4    0    0 -0.16678654863E+02 -0.12460980120E+02 -0.20485314771E+01  0.20920086874E+02  0.00000000000E+00 0. -1.
<mgrwt>
<rscale>  0 0.79926126E+02</rscale>
<asrwt>0</asrwt>
<pdfrwt beam="1">  1        2 0.45844298E-02 0.79926126E+02</pdfrwt>
<pdfrwt beam="2">  1       -1 0.82452817E-02 0.79926126E+02</pdfrwt>
<totfact> 0.13472214E+05</totfact>
</mgrwt>
</event>
<event>
 8    1  0.1226832E-024  0.7945063E+02  0.7818608E-02  0.1330618E+00
          2   -1    0    0  501    0  0.00000000000E+00  0.00000000000E+00  0.16406136764E+02  0.16406136962E+02  0.25500000000E-02 0. -1.
         -1   -1    0    0    0  501 -0.00000000000E+00 -0.00000000000E+00 -0.96189645151E+02  0.96189645283E+02  0.50400000000E-02 0.  1.
         24    2    1    2    0    0  0.00000000000E+00  0.00000000000E+00 -0.79783508387E+02  0.11259578225E+03  0.79450625982E+02 0.  0.
         66    2    3    3    0    0 -0.17731176123E+02 -0.19537868465E+02  0.21227158056E+01  0.26544845955E+02  0.20000033905E+01 0.  0.
        -13    1    3    3    0    0  0.17731176123E+02  0.19537868465E+02 -0.81906224192E+02  0.86050936290E+02  0.10566000000E+00 0.  1.
         13    1    4    4    0    0 -0.76054244309E+01 -0.90020921976E+01  0.92566537869E+00  0.11821512811E+02  0.10566000000E+00 0. -1.
        -13    1    4    4    0    0 -0.91074586208E+00 -0.15670292224E+01  0.15426095856E+00  0.18220864656E+01  0.10566000000E+00 0.  1.
         14    1    4    4    0    0 -0.92150058300E+01 -0.89687470447E+01  0.10427894683E+01  0.12901246679E+02  0.00000000000E+00 0. -1.
<mgrwt>
<rscale>  0 0.79450626E+02</rscale>
<asrwt>0</asrwt>
<pdfrwt beam="1">  1        2 0.25240211E-02 0.79450626E+02</pdfrwt>
<pdfrwt beam="2">  1       -1 0.14798407E-01 0.79450626E+02</pdfrwt>
<totfact> 0.12158210E+05</totfact>
</mgrwt>
</event>
<event>
 8    1  0.1226832E-024  0.7848616E+02  0.7818608E-02  0.1333403E+00
         -1   -1    0    0    0  501 -0.00000000000E+00  0.00000000000E+00  0.71198005159E+01  0.71198022998E+01  0.50400000000E-02 0.  1.
          2   -1    0    0  501    0  0.00000000000E+00 -0.00000000000E+00 -0.21630086469E+03  0.21630086470E+03  0.25500000000E-02 0. -1.
         24    2    1    2    0    0  0.00000000000E+00 -0.35527136788E-14 -0.20918106417E+03  0.22342066700E+03  0.78486156969E+02 0.  0.
         66    2    3    3    0    0 -0.37206142646E+01 -0.22838203505E+02 -0.19479284569E+03  0.19617257523E+03  0.20000082123E+01 0.  0.
        -13    1    3    3    0    0  0.37206142646E+01  0.22838203505E+02 -0.14388218484E+02  0.27248091769E+02  0.10566000000E+00 0.  1.
         13    1    4    4    0    0 -0.20779233383E+01 -0.10473694213E+02 -0.96179127381E+02  0.96770097364E+02  0.10566000000E+00 0. -1.
        -13    1    4    4    0    0 -0.51505673711E+00 -0.66197981035E+01 -0.51415686899E+02  0.51842752952E+02  0.10566000000E+00 0.  1.
         14    1    4    4    0    0 -0.11276341891E+01 -0.57447111884E+01 -0.47198031407E+02  0.47559724917E+02  0.00000000000E+00 0. -1.
<mgrwt>
<rscale>  0 0.78486157E+02</rscale>
<asrwt>0</asrwt>
<pdfrwt beam="1">  1        2 0.33277051E-01 0.78486157E+02</pdfrwt>
<pdfrwt beam="2">  1       -1 0.10953542E-02 0.78486157E+02</pdfrwt>
<totfact> 0.23840697E+05</totfact>
</mgrwt>
</event>
<event>
 8    1  0.1226832E-024  0.7751010E+02  0.7818608E-02  0.1336270E+00
          2   -1    0    0  501    0  0.00000000000E+00  0.00000000000E+00  0.16901341844E+02  0.16901342036E+02  0.25500000000E-02 0. -1.
         -1   -1    0    0    0  501 -0.00000000000E+00 -0.00000000000E+00 -0.88865962517E+02  0.88865962660E+02  0.50400000000E-02 0.  1.
         24    2    1    2    0    0  0.00000000000E+00  0.00000000000E+00 -0.71964620673E+02  0.10576730470E+03  0.77510103303E+02 0.  0.
         66    2    3    3    0    0 -0.33218551954E+02 -0.15594207276E+02 -0.19111098450E+02  0.41423249260E+02  0.20000001863E+01 0.  0.
        -13    1    3    3    0    0  0.33218551954E+02  0.15594207276E+02 -0.52853522224E+02  0.64344055436E+02  0.10566000000E+00 0.  1.
         13    1    4    4    0    0 -0.86973344769E+01 -0.38648140771E+01 -0.42118142316E+01  0.10408215890E+02  0.10566000000E+00 0.  1.
        -13    1    4    4    0    0 -0.20224376992E+02 -0.10038130976E+02 -0.12134795481E+02  0.25633063095E+02  0.10566000000E+00 0. -1.
         14    1    4    4    0    0 -0.42968404852E+01 -0.16912622234E+01 -0.27644887373E+01  0.53819702751E+01  0.00000000000E+00 0. -1.
<mgrwt>
<rscale>  0 0.77510103E+02</rscale>
<asrwt>0</asrwt>
<pdfrwt beam="1">  1        2 0.26002065E-02 0.77510103E+02</pdfrwt>
<pdfrwt beam="2">  1       -1 0.13671686E-01 0.77510103E+02</pdfrwt>
<totfact> 0.13142717E+05</totfact>
</mgrwt>
</event>
<event>
 8    1  0.1226832E-024  0.8117232E+02  0.7818608E-02  0.1325757E+00
          2   -1    0    0  501    0  0.00000000000E+00  0.00000000000E+00  0.56949901296E+03  0.56949901296E+03  0.25500000000E-02 0. -1.
         -1   -1    0    0    0  501 -0.00000000000E+00 -0.00000000000E+00 -0.28924283432E+01  0.28924327343E+01  0.50400000000E-02 0.  1.
         24    2    1    2    0    0  0.00000000000E+00  0.00000000000E+00  0.56660658461E+03  0.57239144570E+03  0.81172319046E+02 0.  0.
         66    2    3    3    0    0  0.58329950364E+01 -0.11158125452E+02  0.55536740861E+03  0.55551371374E+03  0.20000027693E+01 0.  0.
        -13    1    3    3    0    0 -0.58329950364E+01  0.11158125452E+02  0.11239175997E+02  0.16877731952E+02  0.10566000000E+00 0.  1.
         13    1    4    4    0    0  0.23442696397E+01 -0.47145985210E+01  0.20645059860E+03  0.20651775678E+03  0.10566000000E+00 0. -1.
        -13    1    4    4    0    0  0.94700189478E+00 -0.94793119717E+00  0.51627958330E+02  0.51645451218E+02  0.10566000000E+00 0.  1.
        -14    1    4    4    0    0  0.25417235020E+01 -0.54955957338E+01  0.29728885169E+03  0.29735050575E+03  0.00000000000E+00 0.  1.
<mgrwt>
<rscale>  0 0.81172319E+02</rscale>
<asrwt>0</asrwt>
<pdfrwt beam="1">  1        2 0.87615279E-01 0.81172319E+02</pdfrwt>
<pdfrwt beam="2">  1       -1 0.44498908E-03 0.81172319E+02</pdfrwt>
<totfact> 0.30509946E+05</totfact>
</mgrwt>
</event>
<event>
 8    1  0.1226832E-024  0.7702130E+02  0.7818608E-02  0.1337724E+00
          2   -1    0    0  501    0  0.00000000000E+00  0.00000000000E+00  0.10431517638E+02  0.10431517949E+02  0.25500000000E-02 0. -1.
         -1   -1    0    0    0  501 -0.00000000000E+00 -0.00000000000E+00 -0.14217203274E+03  0.14217203283E+03  0.50400000000E-02 0.  1.
         24    2    1    2    0    0  0.00000000000E+00  0.00000000000E+00 -0.13174051510E+03  0.15260355077E+03  0.77021298293E+02 0.  0.
         66    2    3    3    0    0  0.23230928402E+02  0.59910360010E+01 -0.62938271513E+01  0.24883343964E+02  0.19999999692E+01 0.  0.
        -13    1    3    3    0    0 -0.23230928402E+02 -0.59910360010E+01 -0.12544668795E+03  0.12772020681E+03  0.10566000000E+00 0.  1.
         13    1    4    4    0    0  0.46333221274E+01  0.90174895537E+00 -0.17730479096E+01  0.50433806163E+01  0.10566000000E+00 0. -1.
        -13    1    4    4    0    0  0.78683022893E+01  0.26897968886E+01 -0.16703018978E+01  0.84821141635E+01  0.10566000000E+00 0.  1.
        -14    1    4    4    0    0  0.10729303985E+02  0.23994901570E+01 -0.28504773439E+01  0.11357849185E+02  0.00000000000E+00 0.  1.
<mgrwt>
<rscale>  0 0.77021298E+02</rscale>
<asrwt>0</asrwt>
<pdfrwt beam="1">  1        2 0.16048490E-02 0.77021298E+02</pdfrwt>
<pdfrwt beam="2">  1       -1 0.21872619E-01 0.77021298E+02</pdfrwt>
<totfact> 0.12031860E+05</totfact>
</mgrwt>
</event>
<event>
 8    1  0.1226832E-024  0.8211926E+02  0.7818608E-02  0.1323143E+00
         -1   -1    0    0    0  501 -0.00000000000E+00  0.00000000000E+00  0.14353833604E+01  0.14353922088E+01  0.50400000000E-02 0.  1.
          2   -1    0    0  501    0  0.00000000000E+00 -0.00000000000E+00 -0.11745210569E+04  0.11745210569E+04  0.25500000000E-02 0. -1.
         24    2    1    2    0    0 -0.88817841970E-15  0.00000000000E+00 -0.11730856735E+04  0.11759564491E+04  0.82119259269E+02 0.  0.
         66    2    3    3    0    0 -0.79376643346E+01  0.24711532525E+02 -0.10420398242E+04  0.10423649369E+04  0.20000003246E+01 0.  0.
        -13    1    3    3    0    0  0.79376643346E+01 -0.24711532525E+02 -0.13104584929E+03  0.13359151221E+03  0.10566000000E+00 0.  1.
         13    1    4    4    0    0 -0.25877356446E+01  0.62216367803E+01 -0.27314491920E+03  0.27322804247E+03  0.10566000000E+00 0. -1.
        -13    1    4    4    0    0 -0.29897663411E+00  0.24753563580E+01 -0.94108806544E+02  0.94141889770E+02  0.10566000000E+00 0.  1.
         14    1    4    4    0    0 -0.50509520560E+01  0.16014539387E+02 -0.67478609846E+03  0.67499500462E+03  0.00000000000E+00 0. -1.
<mgrwt>
<rscale>  0 0.82119259E+02</rscale>
<asrwt>0</asrwt>
<pdfrwt beam="1">  1        2 0.18069478E+00 0.82119259E+02</pdfrwt>
<pdfrwt beam="2">  1       -1 0.22082983E-03 0.82119259E+02</pdfrwt>
<totfact> 0.32805845E+05</totfact>
</mgrwt>
</event>
<event>
 8    1  0.1226832E-024  0.7905448E+02  0.7818608E-02  0.1331756E+00
         -1   -1    0    0    0  501 -0.00000000000E+00  0.00000000000E+00  0.11647778598E+02  0.11647779688E+02  0.50400000000E-02 0.  1.
          2   -1    0    0  501    0  0.00000000000E+00 -0.00000000000E+00 -0.13413739984E+03  0.13413739987E+03  0.25500000000E-02 0. -1.
         24    2    1    2    0    0  0.88817841970E-15  0.71054273576E-14 -0.12248962125E+03  0.14578517956E+03  0.79054482893E+02 0.  0.
         66    2    3    3    0    0 -0.68235479448E+01 -0.38111448107E+02 -0.75728662368E+02  0.85075693291E+02  0.20000004170E+01 0.  0.
        -13    1    3    3    0    0  0.68235479448E+01  0.38111448107E+02 -0.46760958879E+02  0.60709486266E+02  0.10566000000E+00 0.  1.
         13    1    4    4    0    0 -0.18190987744E+01 -0.78054474226E+01 -0.15178464806E+02  0.17164821226E+02  0.10566000000E+00 0. -1.
        -13    1    4    4    0    0 -0.20124111759E+01 -0.10569447200E+02 -0.19839442772E+02  0.22569396677E+02  0.10566000000E+00 0.  1.
        -14    1    4    4    0    0 -0.29920379944E+01 -0.19736553485E+02 -0.40710754790E+02  0.45341475388E+02  0.00000000000E+00 0.  1.
<mgrwt>
<rscale>  0 0.79054483E+02</rscale>
<asrwt>0</asrwt>
<pdfrwt beam="1">  1        2 0.20636522E-01 0.79054483E+02</pdfrwt>
<pdfrwt beam="2">  1       -1 0.17919661E-02 0.79054483E+02</pdfrwt>
<totfact> 0.19953925E+05</totfact>
</mgrwt>
</event>
<event>
 8    1  0.1226832E-024  0.8051978E+02  0.7818608E-02  0.1327583E+00
         -1   -1    0    0    0  501 -0.00000000000E+00  0.00000000000E+00  0.21559386803E+03  0.21559386809E+03  0.50400000000E-02 0.  1.
          2   -1    0    0  501    0  0.00000000000E+00 -0.00000000000E+00 -0.75181107197E+01  0.75181111521E+01  0.25500000000E-02 0. -1.
         24    2    1    2    0    0 -0.71054273576E-14 -0.35527136788E-14  0.20807575731E+03  0.22311197924E+03  0.80519777077E+02 0.  0.
         66    2    3    3    0    0 -0.29460078983E+02 -0.17177501052E+02  0.44938806954E+02  0.56448730347E+02  0.19999978325E+01 0.  0.
        -13    1    3    3    0    0  0.29460078983E+02  0.17177501052E+02  0.16313695035E+03  0.16666324889E+03  0.10566000000E+00 0.  1.
         13    1    4    4    0    0 -0.19716004501E+02 -0.11317243592E+02  0.28554339966E+02  0.36498799034E+02  0.10566000000E+00 0. -1.
        -13    1    4    4    0    0 -0.15737270250E+01 -0.11256471934E+01  0.28981885327E+01  0.34863102501E+01  0.10566000000E+00 0.  1.
         14    1    4    4    0    0 -0.81703474574E+01 -0.47346102659E+01  0.13486278455E+02  0.16463621063E+02  0.00000000000E+00 0. -1.
<mgrwt>
<rscale>  0 0.80519777E+02</rscale>
<asrwt>0</asrwt>
<pdfrwt beam="1">  1        2 0.11566326E-02 0.80519777E+02</pdfrwt>
<pdfrwt beam="2">  1       -1 0.33168284E-01 0.80519777E+02</pdfrwt>
<totfact> 0.95717871E+04</totfact>
</mgrwt>
</event>
<event>
 8    1  0.1226832E-024  0.8058885E+02  0.7818608E-02  0.1327389E+00
          2   -1    0    0  501    0  0.00000000000E+00  0.00000000000E+00  0.27297123925E+03  0.27297123926E+03  0.25500000000E-02 0. -1.
         -1   -1    0    0    0  501 -0.00000000000E+00 -0.00000000000E+00 -0.59480270220E+01  0.59480291573E+01  0.50400000000E-02 0.  1.
         24    2    1    2    0    0 -0.71054273576E-14  0.00000000000E+00  0.26702321223E+03  0.27891926842E+03  0.80588848031E+02 0.  0.
         66    2    3    3    0    0 -0.36531639794E+02  0.16561039402E+02  0.14597945248E+03  0.15140287077E+03  0.19999995248E+01 0.  0.
        -13    1    3    3    0    0  0.36531639794E+02 -0.16561039402E+02  0.12104375974E+03  0.12751639765E+03  0.10566000000E+00 0.  1.
         13    1    4    4    0    0 -0.12642192827E+02  0.54857241027E+01  0.48720848706E+02  0.50632504096E+02  0.10566000000E+00 0. -1.
        -13    1    4    4    0    0 -0.18881019179E+02  0.88602627238E+01  0.79141013518E+02  0.81843193519E+02  0.10566000000E+00 0.  1.
        -14    1    4    4    0    0 -0.50084277879E+01  0.22150525756E+01  0.18117590261E+02  0.18927173157E+02  0.00000000000E+00 0.  1.
<mgrwt>
<rscale>  0 0.80588848E+02</rscale>
<asrwt>0</asrwt>
<pdfrwt beam="1">  1        2 0.41995576E-01 0.80588848E+02</pdfrwt>
<pdfrwt beam="2">  1       -1 0.91508124E-03 0.80588848E+02</pdfrwt>
<totfact> 0.24167300E+05</totfact>
</mgrwt>
</event>
<event>
 8    1  0.1226832E-024  0.7996684E+02  0.7818608E-02  0.1329146E+00
          2   -1    0    0  501    0  0.00000000000E+00  0.00000000000E+00  0.41867481554E+02  0.41867481632E+02  0.25500000000E-02 0. -1.
         -1   -1    0    0    0  501 -0.00000000000E+00 -0.00000000000E+00 -0.38184140526E+02  0.38184140858E+02  0.50400000000E-02 0.  1.
         24    2    1    2    0    0  0.00000000000E+00 -0.17763568394E-14  0.36833410286E+01  0.80051622490E+02  0.79966838515E+02 0.  0.
         66    2    3    3    0    0 -0.36269479003E+02 -0.15173295614E+02  0.89893552437E+01  0.40379605175E+02  0.19999998723E+01 0.  0.
        -13    1    3    3    0    0  0.36269479003E+02  0.15173295614E+02 -0.53060142151E+01  0.39672017315E+02  0.10566000000E+00 0.  1.
         13    1    4    4    0    0 -0.27626341088E+02 -0.12435485202E+02  0.68129621815E+01  0.31052916640E+02  0.10566000000E+00 0. -1.
        -13    1    4    4    0    0 -0.22560269541E+01 -0.75601712241E+00  0.56227081097E+00  0.24471477290E+01  0.10566000000E+00 0. -1.
         14    1    4    4    0    0 -0.63871109601E+01 -0.19817932905E+01  0.16141222513E+01  0.68795408063E+01  0.00000000000E+00 0. -1.
<mgrwt>
<rscale>  0 0.79966839E+02</rscale>
<asrwt>0</asrwt>
<pdfrwt beam="1">  1        2 0.64411510E-02 0.79966839E+02</pdfrwt>
<pdfrwt beam="2">  1       -1 0.58744832E-02 0.79966839E+02</pdfrwt>
<totfact> 0.14406663E+05</totfact>
</mgrwt>
</event>
<event>
 8    1  0.1226832E-024  0.8020805E+02  0.7818608E-02  0.1328462E+00
          2   -1    0    0  501    0  0.00000000000E+00  0.00000000000E+00  0.38839387327E+03  0.38839387328E+03  0.25500000000E-02 0. -1.
         -1   -1    0    0    0  501 -0.00000000000E+00 -0.00000000000E+00 -0.41409828420E+01  0.41409859091E+01  0.50400000000E-02 0.  1.
         24    2    1    2    0    0  0.00000000000E+00 -0.35527136788E-14  0.38425289043E+03  0.39253485919E+03  0.80208053680E+02 0.  0.
         66    2    3    3    0    0 -0.50270047581E+00  0.11739777698E+02  0.37977122258E+03  0.37995823011E+03  0.20000106394E+01 0.  0.
        -13    1    3    3    0    0  0.50270047581E+00 -0.11739777698E+02  0.44816678502E+01  0.12576629077E+02  0.10566000000E+00 0.  1.
         13    1    4    4    0    0 -0.18901139983E+00  0.50515793810E+01  0.16415192565E+03  0.16422977817E+03  0.10566000000E+00 0. -1.
        -13    1    4    4    0    0 -0.78377001189E+00  0.20105238161E+01  0.67516386654E+02  0.67550944718E+02  0.10566000000E+00 0.  1.
        -14    1    4    4    0    0  0.47008093590E+00  0.46776745013E+01  0.14810291028E+03  0.14817750722E+03  0.00000000000E+00 0.  1.
<mgrwt>
<rscale>  0 0.80208054E+02</rscale>
<asrwt>0</asrwt>
<pdfrwt beam="1">  1        2 0.59752892E-01 0.80208054E+02</pdfrwt>
<pdfrwt beam="2">  1       -1 0.63707464E-03 0.80208054E+02</pdfrwt>
<totfact> 0.27774040E+05</totfact>
</mgrwt>
</event>
<event>
 8    1  0.1226832E-024  0.7967124E+02  0.7818608E-02  0.1329987E+00
          2   -1    0    0  501    0  0.00000000000E+00  0.00000000000E+00  0.85750409734E+01  0.85750413526E+01  0.25500000000E-02 0. -1.
         -1   -1    0    0    0  501 -0.00000000000E+00 -0.00000000000E+00 -0.18505759630E+03  0.18505759636E+03  0.50400000000E-02 0.  1.
         24    2    1    2    0    0  0.35527136788E-14  0.35527136788E-14 -0.17648255532E+03  0.19363263772E+03  0.79671237320E+02 0.  0.
         66    2    3    3    0    0  0.28813256298E+02  0.22457799662E+02 -0.49844594745E+02  0.61830738158E+02  0.20000129213E+01 0.  0.
        -13    1    3    3    0    0 -0.28813256298E+02 -0.22457799662E+02 -0.12663796058E+03  0.13180189956E+03  0.10566000000E+00 0.  1.
         13    1    4    4    0    0  0.18661387050E+01  0.19477664782E+01 -0.41967523883E+01  0.49900062689E+01  0.10566000000E+00 0.  1.
        -13    1    4    4    0    0  0.15547796514E+02  0.11554951456E+02 -0.25828779142E+02  0.32286032206E+02  0.10566000000E+00 0. -1.
        -14    1    4    4    0    0  0.11399321079E+02  0.89550817283E+01 -0.19819063215E+02  0.24554699683E+02  0.00000000000E+00 0.  1.
<mgrwt>
<rscale>  0 0.79671237E+02</rscale>
<asrwt>0</asrwt>
<pdfrwt beam="1">  1        2 0.13192372E-02 0.79671237E+02</pdfrwt>
<pdfrwt beam="2">  1       -1 0.28470397E-01 0.79671237E+02</pdfrwt>
<totfact> 0.10298572E+05</totfact>
</mgrwt>
</event>
<event>
 8    1  0.1226832E-024  0.8000143E+02  0.7818608E-02  0.1329047E+00
          2   -1    0    0  501    0  0.00000000000E+00  0.00000000000E+00  0.43046044345E+03  0.43046044346E+03  0.25500000000E-02 0. -1.
         -1   -1    0    0    0  501 -0.00000000000E+00 -0.00000000000E+00 -0.37170810831E+01  0.37170845000E+01  0.50400000000E-02 0.  1.
         24    2    1    2    0    0 -0.88817841970E-15  0.00000000000E+00  0.42674336237E+03  0.43417752796E+03  0.80001427856E+02 0.  0.
         66    2    3    3    0    0 -0.53248264069E+01  0.39599947399E+02  0.20676421496E+03  0.21059902705E+03  0.19999990088E+01 0.  0.
        -13    1    3    3    0    0  0.53248264069E+01 -0.39599947399E+02  0.21997914741E+03  0.22357850091E+03  0.10566000000E+00 0.  1.
         13    1    4    4    0    0 -0.31320474102E+01  0.21529430369E+02  0.10957844558E+03  0.11171738000E+03  0.10566000000E+00 0. -1.
        -13    1    4    4    0    0 -0.76497888434E+00  0.39973598535E+01  0.19938487427E+02  0.20349902295E+02  0.10566000000E+00 0.  1.
        -14    1    4    4    0    0 -0.14278001124E+01  0.14073157177E+02  0.77247281948E+02  0.78531744757E+02  0.00000000000E+00 0.  1.
<mgrwt>
<rscale>  0 0.80001428E+02</rscale>
<asrwt>0</asrwt>
<pdfrwt beam="1">  1        2 0.66224687E-01 0.80001428E+02</pdfrwt>
<pdfrwt beam="2">  1       -1 0.57185887E-03 0.80001428E+02</pdfrwt>
<totfact> 0.28978226E+05</totfact>
</mgrwt>
</event>
<event>
 8    1  0.1226832E-024  0.7679549E+02  0.7818608E-02  0.1338399E+00
          2   -1    0    0  501    0  0.00000000000E+00  0.00000000000E+00  0.45706563633E+03  0.45706563633E+03  0.25500000000E-02 0. -1.
         -1   -1    0    0    0  501 -0.00000000000E+00 -0.00000000000E+00 -0.32257644230E+01  0.32257683602E+01  0.50400000000E-02 0.  1.
         24    2    1    2    0    0  0.00000000000E+00  0.00000000000E+00  0.45383987190E+03  0.46029140469E+03  0.76795494045E+02 0.  0.
         66    2    3    3    0    0  0.33904697798E+02  0.77639839609E+01  0.32419663195E+03  0.32606328242E+03  0.19999986103E+01 0.  0.
        -13    1    3    3    0    0 -0.33904697798E+02 -0.77639839609E+01  0.12964323995E+03  0.13422812227E+03  0.10566000000E+00 0.  1.
         13    1    4    4    0    0  0.28370025162E+02  0.66466649464E+01  0.27584298891E+03  0.27737772474E+03  0.10566000000E+00 0. -1.
        -13    1    4    4    0    0  0.42665631028E+01  0.72823600205E+00  0.38627008165E+02  0.38868892603E+02  0.10566000000E+00 0.  1.
        -14    1    4    4    0    0  0.12681095334E+01  0.38908301251E+00  0.97266348747E+01  0.98166650836E+01  0.00000000000E+00 0.  1.
<mgrwt>
<rscale>  0 0.76795494E+02</rscale>
<asrwt>0</asrwt>
<pdfrwt beam="1">  1        2 0.70317751E-01 0.76795494E+02</pdfrwt>
<pdfrwt beam="2">  1       -1 0.49627203E-03 0.76795494E+02</pdfrwt>
<totfact> 0.32892910E+05</totfact>
</mgrwt>
</event>
<event>
 8    1  0.1226832E-024  0.7954762E+02  0.7818608E-02  0.1330340E+00
          2   -1    0    0  501    0  0.00000000000E+00  0.00000000000E+00  0.53687924976E+03  0.53687924976E+03  0.25500000000E-02 0. -1.
         -1   -1    0    0    0  501 -0.00000000000E+00 -0.00000000000E+00 -0.29465746873E+01  0.29465789977E+01  0.50400000000E-02 0.  1.
         24    2    1    2    0    0  0.88817841970E-15  0.17763568394E-14  0.53393267507E+03  0.53982582876E+03  0.79547620267E+02 0.  0.
         66    2    3    3    0    0 -0.51553941995E+01 -0.15776518415E+02  0.51223515232E+03  0.51250788081E+03  0.19999998097E+01 0.  0.
        -13    1    3    3    0    0  0.51553941995E+01  0.15776518415E+02  0.21697522751E+02  0.27317947950E+02  0.10566000000E+00 0.  1.
         13    1    4    4    0    0 -0.13810002944E+01 -0.47259785392E+01  0.13055577476E+03  0.13064862618E+03  0.10566000000E+00 0. -1.
        -13    1    4    4    0    0 -0.23979724015E+01 -0.71752017388E+01  0.26209135392E+03  0.26220053920E+03  0.10566000000E+00 0.  1.
        -14    1    4    4    0    0 -0.13764215035E+01 -0.38753381368E+01  0.11958802364E+03  0.11965871543E+03  0.00000000000E+00 0.  1.
<mgrwt>
<rscale>  0 0.79547620E+02</rscale>
<asrwt>0</asrwt>
<pdfrwt beam="1">  1        2 0.82596740E-01 0.79547620E+02</pdfrwt>
<pdfrwt beam="2">  1       -1 0.45331989E-03 0.79547620E+02</pdfrwt>
<totfact> 0.31597739E+05</totfact>
</mgrwt>
</event>
<event>
 8    1  0.1226832E-024  0.7969148E+02  0.7818608E-02  0.1329929E+00
          2   -1    0    0  501    0  0.00000000000E+00  0.00000000000E+00  0.12891351765E+03  0.12891351768E+03  0.25500000000E-02 0. -1.
         -1   -1    0    0    0  501 -0.00000000000E+00 -0.00000000000E+00 -0.12315877449E+02  0.12315878480E+02  0.50400000000E-02 0.  1.
         24    2    1    2    0    0 -0.17763568394E-14 -0.35527136788E-14  0.11659764020E+03  0.14122939616E+03  0.79691484100E+02 0.  0.
         66    2    3    3    0    0 -0.12305434370E+02 -0.15219470063E+02  0.11979334877E+03  0.12139811528E+03  0.20000001444E+01 0.  0.
        -13    1    3    3    0    0  0.12305434370E+02  0.15219470063E+02 -0.31957085628E+01  0.19831280879E+02  0.10566000000E+00 0.  1.
         13    1    4    4    0    0 -0.69354522830E+01 -0.83466398443E+01  0.60841402404E+02  0.61801733840E+02  0.10566000000E+00 0. -1.
        -13    1    4    4    0    0 -0.35123960716E+01 -0.48581033302E+01  0.39575532001E+02  0.40027140683E+02  0.10566000000E+00 0.  1.
         14    1    4    4    0    0 -0.18575860154E+01 -0.20147268887E+01  0.19376414361E+02  0.19569240755E+02  0.00000000000E+00 0. -1.
<mgrwt>
<rscale>  0 0.79691484E+02</rscale>
<asrwt>0</asrwt>
<pdfrwt beam="1">  1        2 0.19832850E-01 0.79691484E+02</pdfrwt>
<pdfrwt beam="2">  1       -1 0.18947503E-02 0.79691484E+02</pdfrwt>
<totfact> 0.19294574E+05</totfact>
</mgrwt>
</event>
<event>
 8    1  0.1226832E-024  0.7967429E+02  0.7818608E-02  0.1329978E+00
         -1   -1    0    0    0  501 -0.00000000000E+00  0.00000000000E+00  0.71543915919E+01  0.71543933672E+01  0.50400000000E-02 0.  1.
          2   -1    0    0  501    0  0.00000000000E+00 -0.00000000000E+00 -0.22182152244E+03  0.22182152245E+03  0.25500000000E-02 0. -1.
         24    2    1    2    0    0  0.00000000000E+00  0.17763568394E-14 -0.21466713084E+03  0.22897591582E+03  0.79674292967E+02 0.  0.
         66    2    3    3    0    0  0.18959145768E+02 -0.13359557411E+02 -0.20039581254E+03  0.20174342286E+03  0.20000004850E+01 0.  0.
        -13    1    3    3    0    0 -0.18959145768E+02  0.13359557411E+02 -0.14271318305E+02  0.27232492957E+02  0.10566000000E+00 0.  1.
         13    1    4    4    0    0  0.26516490815E+01 -0.24525348372E+01 -0.27456418334E+02  0.27693180419E+02  0.10566000000E+00 0. -1.
        -13    1    4    4    0    0  0.12258154738E+01 -0.10080977613E+01 -0.14743976089E+02  0.14829527289E+02  0.10566000000E+00 0.  1.
         14    1    4    4    0    0  0.15081681212E+02 -0.98989248124E+01 -0.15819541812E+03  0.15922071515E+03  0.00000000000E+00 0. -1.
<mgrwt>
<rscale>  0 0.79674293E+02</rscale>
<asrwt>0</asrwt>
<pdfrwt beam="1">  1        2 0.34126383E-01 0.79674293E+02</pdfrwt>
<pdfrwt beam="2">  1       -1 0.11006759E-02 0.79674293E+02</pdfrwt>
<totfact> 0.23120790E+05</totfact>
</mgrwt>
</event>
<event>
 8    1  0.1226832E-024  0.7847005E+02  0.7818608E-02  0.1333450E+00
          2   -1    0    0  501    0  0.00000000000E+00  0.00000000000E+00  0.14483055693E+03  0.14483055695E+03  0.25500000000E-02 0. -1.
         -1   -1    0    0    0  501 -0.00000000000E+00 -0.00000000000E+00 -0.10628882542E+02  0.10628883737E+02  0.50400000000E-02 0.  1.
         24    2    1    2    0    0  0.00000000000E+00  0.00000000000E+00  0.13420167439E+03  0.15545944069E+03  0.78470047093E+02 0.  0.
         66    2    3    3    0    0  0.11250156830E+02 -0.34409351099E+02  0.96980734618E+02  0.10353662303E+03  0.19999876810E+01 0.  0.
        -13    1    3    3    0    0 -0.11250156830E+02  0.34409351099E+02  0.37220939769E+02  0.51922817653E+02  0.10566000000E+00 0.  1.
         13    1    4    4    0    0  0.36813181649E+01 -0.10126369917E+02  0.30963746403E+02  0.32785061026E+02  0.10566000000E+00 0.  1.
        -13    1    4    4    0    0  0.41851096108E+00 -0.13324667431E+01  0.32573219255E+01  0.35456916403E+01  0.10566000000E+00 0. -1.
         14    1    4    4    0    0  0.71503277035E+01 -0.22950514438E+02  0.62759666289E+02  0.67205870369E+02  0.00000000000E+00 0. -1.
<mgrwt>
<rscale>  0 0.78470047E+02</rscale>
<asrwt>0</asrwt>
<pdfrwt beam="1">  1        2 0.22281622E-01 0.78470047E+02</pdfrwt>
<pdfrwt beam="2">  1       -1 0.16352130E-02 0.78470047E+02</pdfrwt>
<totfact> 0.20847025E+05</totfact>
</mgrwt>
</event>
<event>
 8    1  0.1226832E-024  0.8260965E+02  0.7818608E-02  0.1321805E+00
         -1   -1    0    0    0  501 -0.00000000000E+00  0.00000000000E+00  0.22646957060E+02  0.22646957621E+02  0.50400000000E-02 0.  1.
          2   -1    0    0  501    0  0.00000000000E+00 -0.00000000000E+00 -0.75334116160E+02  0.75334116203E+02  0.25500000000E-02 0. -1.
         24    2    1    2    0    0  0.00000000000E+00  0.00000000000E+00 -0.52687159100E+02  0.97981073824E+02  0.82609648914E+02 0.  0.
         66    2    3    3    0    0 -0.13717853061E+02  0.65846161298E+01 -0.71873079597E+02  0.73493375453E+02  0.20000006204E+01 0.  0.
        -13    1    3    3    0    0  0.13717853061E+02 -0.65846161298E+01  0.19185920497E+02  0.24487698371E+02  0.10566000000E+00 0.  1.
         13    1    4    4    0    0 -0.61663972840E+01  0.25500813081E+01 -0.33263538412E+02  0.33926413336E+02  0.10566000000E+00 0. -1.
        -13    1    4    4    0    0 -0.52288556134E+00  0.42541776821E+00 -0.46892524473E+01  0.47386329398E+01  0.10566000000E+00 0.  1.
        -14    1    4    4    0    0 -0.70285702152E+01  0.36091170535E+01 -0.33920288738E+02  0.34828329177E+02  0.00000000000E+00 0.  1.
<mgrwt>
<rscale>  0 0.82609649E+02</rscale>
<asrwt>0</asrwt>
<pdfrwt beam="1">  1        2 0.11589864E-01 0.82609649E+02</pdfrwt>
<pdfrwt beam="2">  1       -1 0.34841473E-02 0.82609649E+02</pdfrwt>
<totfact> 0.15074681E+05</totfact>
</mgrwt>
</event>
<event>
 8    1  0.1226832E-024  0.7918085E+02  0.7818608E-02  0.1331392E+00
         -1   -1    0    0    0  501 -0.00000000000E+00  0.00000000000E+00  0.49058023731E+02  0.49058023990E+02  0.50400000000E-02 0.  1.
          2   -1    0    0  501    0  0.00000000000E+00 -0.00000000000E+00 -0.31949953713E+02  0.31949953814E+02  0.25500000000E-02 0. -1.
         24    2    1    2    0    0  0.00000000000E+00  0.71054273576E-14  0.17108070019E+02  0.81007977805E+02  0.79180846221E+02 0.  0.
         66    2    3    3    0    0 -0.19071973095E+01 -0.38650775744E+02  0.16988326538E+02  0.42309846459E+02  0.20000004104E+01 0.  0.
        -13    1    3    3    0    0  0.19071973095E+01  0.38650775744E+02  0.11974348118E+00  0.38698131346E+02  0.10566000000E+00 0.  1.
         13    1    4    4    0    0 -0.35513869060E+00 -0.63997966782E+01  0.30386655709E+01  0.70942352301E+01  0.10566000000E+00 0. -1.
        -13    1    4    4    0    0 -0.38702051769E+00 -0.10300676089E+02  0.53286204204E+01  0.11604269576E+02  0.10566000000E+00 0.  1.
        -14    1    4    4    0    0 -0.11650381012E+01 -0.21950302976E+02  0.86210405462E+01  0.23611341652E+02  0.00000000000E+00 0.  1.
<mgrwt>
<rscale>  0 0.79180846E+02</rscale>
<asrwt>0</asrwt>
<pdfrwt beam="1">  1        2 0.49153775E-02 0.79180846E+02</pdfrwt>
<pdfrwt beam="2">  1       -1 0.75473883E-02 0.79180846E+02</pdfrwt>
<totfact> 0.14021031E+05</totfact>
</mgrwt>
</event>
<event>
 8    1  0.1226832E-024  0.8139126E+02  0.7818608E-02  0.1325149E+00
         -1   -1    0    0    0  501 -0.00000000000E+00  0.00000000000E+00  0.31383004625E+02  0.31383005030E+02  0.50400000000E-02 0.  1.
          2   -1    0    0  501    0  0.00000000000E+00 -0.00000000000E+00 -0.52771693964E+02  0.52771694025E+02  0.25500000000E-02 0. -1.
         24    2    1    2    0    0  0.44408920985E-15 -0.35527136788E-14 -0.21388689338E+02  0.84154699055E+02  0.81391260842E+02 0.  0.
         66    2    3    3    0    0 -0.32383069915E+01  0.21779176397E+02 -0.46056974415E+02  0.51088785952E+02  0.20000002846E+01 0.  0.
        -13    1    3    3    0    0  0.32383069915E+01 -0.21779176397E+02  0.24668285077E+02  0.33065913103E+02  0.10566000000E+00 0.  1.
         13    1    4    4    0    0 -0.76438643484E+00  0.45643005467E+01 -0.11457066088E+02  0.12356886885E+02  0.10566000000E+00 0. -1.
        -13    1    4    4    0    0 -0.14053594021E+01  0.11705657018E+02 -0.23872213726E+02  0.26625010675E+02  0.10566000000E+00 0.  1.
        -14    1    4    4    0    0 -0.10685611545E+01  0.55092188324E+01 -0.10727694601E+02  0.12106888392E+02  0.00000000000E+00 0.  1.
<mgrwt>
<rscale>  0 0.81391261E+02</rscale>
<asrwt>0</asrwt>
<pdfrwt beam="1">  1        2 0.81187222E-02 0.81391261E+02</pdfrwt>
<pdfrwt beam="2">  1       -1 0.48281546E-02 0.81391261E+02</pdfrwt>
<totfact> 0.14424010E+05</totfact>
</mgrwt>
</event>
<event>
 8    1  0.1226832E-024  0.7003761E+02  0.7818608E-02  0.1359965E+00
          2   -1    0    0  501    0  0.00000000000E+00  0.00000000000E+00  0.41773514263E+03  0.41773514264E+03  0.25500000000E-02 0. -1.
         -1   -1    0    0    0  501 -0.00000000000E+00 -0.00000000000E+00 -0.29356297968E+01  0.29356341232E+01  0.50400000000E-02 0.  1.
         24    2    1    2    0    0 -0.17763568394E-14  0.00000000000E+00  0.41479951284E+03  0.42067077676E+03  0.70037608284E+02 0.  0.
         66    2    3    3    0    0 -0.10726801347E+02 -0.11828298607E+02  0.39457153614E+03  0.39489956957E+03  0.19999994409E+01 0.  0.
        -13    1    3    3    0    0  0.10726801347E+02  0.11828298607E+02  0.20227976692E+02  0.25771207192E+02  0.10566000000E+00 0.  1.
         13    1    4    4    0    0 -0.11996616802E+01 -0.13738197065E+01  0.52698805869E+02  0.52730464371E+02  0.10566000000E+00 0. -1.
        -13    1    4    4    0    0 -0.61899037846E+00 -0.43438537810E+00  0.27515787847E+02  0.27526379795E+02  0.10566000000E+00 0.  1.
         14    1    4    4    0    0 -0.89081492878E+01 -0.10020093522E+02  0.31435694243E+03  0.31464272541E+03  0.00000000000E+00 0. -1.
<mgrwt>
<rscale>  0 0.70037608E+02</rscale>
<asrwt>0</asrwt>
<pdfrwt beam="1">  1        2 0.64266898E-01 0.70037608E+02</pdfrwt>
<pdfrwt beam="2">  1       -1 0.45163602E-03 0.70037608E+02</pdfrwt>
<totfact> 0.40490007E+05</totfact>
</mgrwt>
</event>
<event>
 8    1  0.1226832E-024  0.7918781E+02  0.7818608E-02  0.1331372E+00
         -1   -1    0    0    0  501 -0.00000000000E+00  0.00000000000E+00  0.35532272236E+01  0.35532307981E+01  0.50400000000E-02 0.  1.
          2   -1    0    0  501    0  0.00000000000E+00 -0.00000000000E+00 -0.44119795144E+03  0.44119795144E+03  0.25500000000E-02 0. -1.
         24    2    1    2    0    0 -0.88817841970E-15 -0.71054273576E-14 -0.43764472421E+03  0.44475118224E+03  0.79187811400E+02 0.  0.
         66    2    3    3    0    0  0.66953408755E+01  0.38189687627E+02 -0.26332500287E+03  0.26617163066E+03  0.20000001564E+01 0.  0.
        -13    1    3    3    0    0 -0.66953408755E+01 -0.38189687627E+02 -0.17431972134E+03  0.17857955158E+03  0.10566000000E+00 0.  1.
         13    1    4    4    0    0  0.49832699364E+01  0.27127328559E+02 -0.18627485802E+03  0.18830575889E+03  0.10566000000E+00 0. -1.
        -13    1    4    4    0    0  0.10371914924E+01  0.83157944160E+01 -0.60061965656E+02  0.60643870964E+02  0.10566000000E+00 0.  1.
         14    1    4    4    0    0  0.67487944676E+00  0.27465646523E+01 -0.16988179192E+02  0.17222000811E+02  0.00000000000E+00 0. -1.
<mgrwt>
<rscale>  0 0.79187811E+02</rscale>
<asrwt>0</asrwt>
<pdfrwt beam="1">  1        2 0.67876564E-01 0.79187811E+02</pdfrwt>
<pdfrwt beam="2">  1       -1 0.54665097E-03 0.79187811E+02</pdfrwt>
<totfact> 0.30011493E+05</totfact>
</mgrwt>
</event>
<event>
 8    1  0.1226832E-024  0.7531737E+02  0.7818608E-02  0.1342891E+00
         -1   -1    0    0    0  501 -0.00000000000E+00  0.00000000000E+00  0.15427476870E+01  0.15427559195E+01  0.50400000000E-02 0.  1.
          2   -1    0    0  501    0  0.00000000000E+00 -0.00000000000E+00 -0.91925115227E+03  0.91925115228E+03  0.25500000000E-02 0. -1.
         24    2    1    2    0    0  0.00000000000E+00  0.00000000000E+00 -0.91770840459E+03  0.92079390820E+03  0.75317365349E+02 0.  0.
         66    2    3    3    0    0  0.25034505770E+02 -0.65393564449E+00 -0.80258500726E+03  0.80297811178E+03  0.19999990718E+01 0.  0.
        -13    1    3    3    0    0 -0.25034505770E+02  0.65393564449E+00 -0.11512339732E+03  0.11781579642E+03  0.10566000000E+00 0.  1.
         13    1    4    4    0    0  0.16424326805E+02  0.32284745662E+00 -0.52149605190E+03  0.52175473746E+03  0.10566000000E+00 0. -1.
        -13    1    4    4    0    0  0.63728474625E+01 -0.10210672243E+01 -0.21077462967E+03  0.21087344887E+03  0.10566000000E+00 0.  1.
        -14    1    4    4    0    0  0.22373315029E+01  0.44284123164E-01 -0.70314325687E+02  0.70349925445E+02  0.00000000000E+00 0.  1.
<mgrwt>
<rscale>  0 0.75317365E+02</rscale>
<asrwt>0</asrwt>
<pdfrwt beam="1">  1        2 0.14142282E+00 0.75317365E+02</pdfrwt>
<pdfrwt beam="2">  1       -1 0.23734717E-03 0.75317365E+02</pdfrwt>
<totfact> 0.40941352E+05</totfact>
</mgrwt>
</event>
<event>
 8    1  0.1226832E-024  0.8160607E+02  0.7818608E-02  0.1324554E+00
          2   -1    0    0  501    0  0.00000000000E+00  0.00000000000E+00  0.67551192896E+03  0.67551192896E+03  0.25500000000E-02 0. -1.
         -1   -1    0    0    0  501 -0.00000000000E+00 -0.00000000000E+00 -0.24646285127E+01  0.24646336659E+01  0.50400000000E-02 0.  1.
         24    2    1    2    0    0  0.00000000000E+00  0.00000000000E+00  0.67304730044E+03  0.67797656263E+03  0.81606071080E+02 0.  0.
         66    2    3    3    0    0  0.36336074592E+02  0.13498428652E+02  0.44193273413E+03  0.44363392498E+03  0.20000012405E+01 0.  0.
        -13    1    3    3    0    0 -0.36336074592E+02 -0.13498428652E+02  0.23111456631E+03  0.23434263765E+03  0.10566000000E+00 0.  1.
         13    1    4    4    0    0  0.53642459912E+01  0.14763730989E+01  0.58805366272E+02  0.59068071570E+02  0.10566000000E+00 0. -1.
        -13    1    4    4    0    0  0.20801465374E+02  0.80665495318E+01  0.26115549719E+03  0.26210680086E+03  0.10566000000E+00 0.  1.
         14    1    4    4    0    0  0.10170363227E+02  0.39555060214E+01  0.12197187067E+03  0.12245905255E+03  0.00000000000E+00 0. -1.
<mgrwt>
<rscale>  0 0.81606071E+02</rscale>
<asrwt>0</asrwt>
<pdfrwt beam="1">  1        2 0.10392506E+00 0.81606071E+02</pdfrwt>
<pdfrwt beam="2">  1       -1 0.37917347E-03 0.81606071E+02</pdfrwt>
<totfact> 0.31500160E+05</totfact>
</mgrwt>
</event>
<event>
 8    1  0.1226832E-024  0.8076786E+02  0.7818608E-02  0.1326886E+00
         -1   -1    0    0    0  501 -0.00000000000E+00  0.00000000000E+00  0.17558758946E+02  0.17558759670E+02  0.50400000000E-02 0.  1.
          2   -1    0    0  501    0  0.00000000000E+00 -0.00000000000E+00 -0.92880243254E+02  0.92880243289E+02  0.25500000000E-02 0. -1.
         24    2    1    2    0    0 -0.35527136788E-14  0.00000000000E+00 -0.75321484308E+02  0.11043900296E+03  0.80767861035E+02 0.  0.
         66    2    3    3    0    0  0.30704670794E+02 -0.26033468450E+02 -0.41632250489E+02  0.57946204144E+02  0.20000014500E+01 0.  0.
        -13    1    3    3    0    0 -0.30704670794E+02  0.26033468450E+02 -0.33689233819E+02  0.52492798815E+02  0.10566000000E+00 0.  1.
         13    1    4    4    0    0  0.18913352840E+02 -0.16937994727E+02 -0.25705344328E+02  0.36130132467E+02  0.10566000000E+00 0. -1.
        -13    1    4    4    0    0  0.54245336720E+01 -0.45604278177E+01 -0.78403280360E+01  0.10569057441E+02  0.10566000000E+00 0.  1.
         14    1    4    4    0    0  0.63667842821E+01 -0.45350459056E+01 -0.80865781245E+01  0.11247014236E+02  0.00000000000E+00 0. -1.
<mgrwt>
<rscale>  0 0.80767861E+02</rscale>
<asrwt>0</asrwt>
<pdfrwt beam="1">  1        2 0.14289268E-01 0.80767861E+02</pdfrwt>
<pdfrwt beam="2">  1       -1 0.27013476E-02 0.80767861E+02</pdfrwt>
<totfact> 0.16928212E+05</totfact>
</mgrwt>
</event>
<event>
 8    1  0.1226832E-024  0.8184604E+02  0.7818608E-02  0.1323893E+00
         -1   -1    0    0    0  501 -0.00000000000E+00  0.00000000000E+00  0.95163752554E+02  0.95163752687E+02  0.50400000000E-02 0.  1.
          2   -1    0    0  501    0  0.00000000000E+00 -0.00000000000E+00 -0.17598019851E+02  0.17598020036E+02  0.25500000000E-02 0. -1.
         24    2    1    2    0    0  0.22204460493E-15  0.00000000000E+00  0.77565732703E+02  0.11276177272E+03  0.81846041431E+02 0.  0.
         66    2    3    3    0    0  0.19833008906E+01  0.34918158406E+02  0.95968631016E+01  0.36322321732E+02  0.20000014453E+01 0.  0.
        -13    1    3    3    0    0 -0.19833008906E+01 -0.34918158406E+02  0.67968869601E+02  0.76439450991E+02  0.10566000000E+00 0.  1.
         13    1    4    4    0    0  0.21426237893E+01  0.29534120553E+02  0.81529684267E+01  0.30713794487E+02  0.10566000000E+00 0. -1.
        -13    1    4    4    0    0  0.11103781410E+00  0.29417225505E+01  0.56884557306E+00  0.30001350440E+01  0.10566000000E+00 0.  1.
         14    1    4    4    0    0 -0.27036071284E+00  0.24423153017E+01  0.87504910183E+00  0.26083922018E+01  0.00000000000E+00 0. -1.
<mgrwt>
<rscale>  0 0.81846041E+02</rscale>
<asrwt>0</asrwt>
<pdfrwt beam="1">  1        2 0.27073877E-02 0.81846041E+02</pdfrwt>
<pdfrwt beam="2">  1       -1 0.14640577E-01 0.81846041E+02</pdfrwt>
<totfact> 0.11317914E+05</totfact>
</mgrwt>
</event>
<event>
 8    1  0.1226832E-024  0.7949797E+02  0.7818608E-02  0.1330482E+00
          2   -1    0    0  501    0  0.00000000000E+00  0.00000000000E+00  0.20818465533E+02  0.20818465689E+02  0.25500000000E-02 0. -1.
         -1   -1    0    0    0  501 -0.00000000000E+00 -0.00000000000E+00 -0.75893280626E+02  0.75893280793E+02  0.50400000000E-02 0.  1.
         24    2    1    2    0    0 -0.35527136788E-14 -0.22204460493E-15 -0.55074815093E+02  0.96711746482E+02  0.79497966327E+02 0.  0.
         66    2    3    3    0    0  0.29398325708E+02  0.10404782485E+01  0.49207261618E+01  0.29892435771E+02  0.20000052411E+01 0.  0.
        -13    1    3    3    0    0 -0.29398325708E+02 -0.10404782485E+01 -0.59995541255E+02  0.66819310711E+02  0.10566000000E+00 0.  1.
         13    1    4    4    0    0  0.11496376251E+02 -0.34400358655E+00  0.13698503331E+01  0.11583292250E+02  0.10566000000E+00 0. -1.
        -13    1    4    4    0    0  0.15235163136E+02  0.13366428262E+01  0.30578416370E+01  0.15596742267E+02  0.10566000000E+00 0.  1.
         14    1    4    4    0    0  0.26667863206E+01  0.47839008842E-01  0.49303419179E+00  0.27124012544E+01  0.00000000000E+00 0. -1.
<mgrwt>
<rscale>  0 0.79497966E+02</rscale>
<asrwt>0</asrwt>
<pdfrwt beam="1">  1        2 0.32028409E-02 0.79497966E+02</pdfrwt>
<pdfrwt beam="2">  1       -1 0.11675889E-01 0.79497966E+02</pdfrwt>
<totfact> 0.12744136E+05</totfact>
</mgrwt>
</event>
<event>
 8    1  0.1226832E-024  0.8130806E+02  0.7818608E-02  0.1325380E+00
          2   -1    0    0  501    0  0.00000000000E+00  0.00000000000E+00  0.78395625957E+03  0.78395625958E+03  0.25500000000E-02 0. -1.
         -1   -1    0    0    0  501 -0.00000000000E+00 -0.00000000000E+00 -0.21082142934E+01  0.21082203178E+01  0.50400000000E-02 0.  1.
         24    2    1    2    0    0  0.00000000000E+00  0.00000000000E+00  0.78184804528E+03  0.78606447990E+03  0.81308060148E+02 0.  0.
         66    2    3    3    0    0  0.11097349598E+02  0.27627899834E+02  0.65843256634E+03  0.65910841023E+03  0.20000023844E+01 0.  0.
        -13    1    3    3    0    0 -0.11097349598E+02 -0.27627899834E+02  0.12341547894E+03  0.12695606966E+03  0.10566000000E+00 0.  1.
         13    1    4    4    0    0  0.15872143397E+01  0.45222858834E+01  0.10220391634E+03  0.10231628413E+03  0.10566000000E+00 0. -1.
        -13    1    4    4    0    0  0.65078699640E+01  0.17485728634E+02  0.42253544942E+03  0.42294718377E+03  0.10566000000E+00 0.  1.
        -14    1    4    4    0    0  0.30022652940E+01  0.56198853163E+01  0.13369320057E+03  0.13384494233E+03  0.00000000000E+00 0.  1.
<mgrwt>
<rscale>  0 0.81308060E+02</rscale>
<asrwt>0</asrwt>
<pdfrwt beam="1">  1        2 0.12060863E+00 0.81308060E+02</pdfrwt>
<pdfrwt beam="2">  1       -1 0.32434120E-03 0.81308060E+02</pdfrwt>
<totfact> 0.32828520E+05</totfact>
</mgrwt>
</event>
<event>
 8    1  0.1226832E-024  0.8052030E+02  0.7818608E-02  0.1327581E+00
         -1   -1    0    0    0  501 -0.00000000000E+00  0.00000000000E+00  0.59753771382E+01  0.59753792638E+01  0.50400000000E-02 0.  1.
          2   -1    0    0  501    0  0.00000000000E+00 -0.00000000000E+00 -0.27125978617E+03  0.27125978618E+03  0.25500000000E-02 0. -1.
         24    2    1    2    0    0  0.00000000000E+00  0.00000000000E+00 -0.26528440903E+03  0.27723516544E+03  0.80520303553E+02 0.  0.
         66    2    3    3    0    0 -0.36432861738E+01  0.29443533338E+02 -0.22630121187E+03  0.22824643190E+03  0.19999976355E+01 0.  0.
        -13    1    3    3    0    0  0.36432861738E+01 -0.29443533338E+02 -0.38983197156E+02  0.48988733543E+02  0.10566000000E+00 0.  1.
         13    1    4    4    0    0 -0.54776224260E+00  0.91725590608E+01 -0.72115555556E+02  0.72698696002E+02  0.10566000000E+00 0.  1.
        -13    1    4    4    0    0 -0.29584536761E+01  0.16314787288E+02 -0.12450302176E+03  0.12560230223E+03  0.10566000000E+00 0. -1.
         14    1    4    4    0    0 -0.13707025511E+00  0.39561869889E+01 -0.29682634551E+02  0.29945433670E+02  0.00000000000E+00 0. -1.
<mgrwt>
<rscale>  0 0.80520304E+02</rscale>
<asrwt>0</asrwt>
<pdfrwt beam="1">  1        2 0.41732265E-01 0.80520304E+02</pdfrwt>
<pdfrwt beam="2">  1       -1 0.91928917E-03 0.80520304E+02</pdfrwt>
<totfact> 0.24166257E+05</totfact>
</mgrwt>
</event>
<event>
 8    1  0.1226832E-024  0.7786658E+02  0.7818608E-02  0.1335217E+00
         -1   -1    0    0    0  501 -0.00000000000E+00  0.00000000000E+00  0.79311795523E+00  0.79313396883E+00  0.50400000000E-02 0.  1.
          2   -1    0    0  501    0  0.00000000000E+00 -0.00000000000E+00 -0.19111729655E+04  0.19111729655E+04  0.25500000000E-02 0. -1.
         24    2    1    2    0    0  0.00000000000E+00 -0.17763568394E-14 -0.19103798476E+04  0.19119660995E+04  0.77866575753E+02 0.  0.
         66    2    3    3    0    0 -0.65152282640E+01 -0.14375297937E+02 -0.18290362167E+04  0.18291054042E+04  0.20000024037E+01 0.  0.
        -13    1    3    3    0    0  0.65152282640E+01  0.14375297937E+02 -0.81343630856E+02  0.82860695356E+02  0.10566000000E+00 0.  1.
         13    1    4    4    0    0 -0.47667680870E+01 -0.99766179111E+01 -0.13577021933E+04  0.13577472194E+04  0.10566000000E+00 0. -1.
        -13    1    4    4    0    0 -0.39280753946E+00 -0.60564253785E+00 -0.86750295712E+02  0.86753363455E+02  0.10566000000E+00 0.  1.
         14    1    4    4    0    0 -0.13556526376E+01 -0.37930374878E+01 -0.38458372773E+03  0.38460482129E+03  0.00000000000E+00 0. -1.
<mgrwt>
<rscale>  0 0.77866576E+02</rscale>
<asrwt>0</asrwt>
<pdfrwt beam="1">  1        2 0.29402292E+00 0.77866576E+02</pdfrwt>
<pdfrwt beam="2">  1       -1 0.12202091E-03 0.77866576E+02</pdfrwt>
<totfact> 0.30989536E+05</totfact>
</mgrwt>
</event>
<event>
 8    1  0.1226832E-024  0.7884654E+02  0.7818608E-02  0.1332357E+00
         -1   -1    0    0    0  501 -0.00000000000E+00  0.00000000000E+00  0.15086828216E+03  0.15086828224E+03  0.50400000000E-02 0.  1.
          2   -1    0    0  501    0  0.00000000000E+00 -0.00000000000E+00 -0.10301662179E+02  0.10301662494E+02  0.25500000000E-02 0. -1.
         24    2    1    2    0    0  0.00000000000E+00  0.00000000000E+00  0.14056661998E+03  0.16116994473E+03  0.78846537234E+02 0.  0.
         66    2    3    3    0    0 -0.24101389787E+02  0.12862863441E+02  0.12301295455E+02  0.30027522595E+02  0.19999994436E+01 0.  0.
        -13    1    3    3    0    0  0.24101389787E+02 -0.12862863441E+02  0.12826532452E+03  0.13114242214E+03  0.10566000000E+00 0.  1.
         13    1    4    4    0    0 -0.55188613217E+01  0.29402109108E+01  0.32881976415E+01  0.70658388216E+01  0.10566000000E+00 0. -1.
        -13    1    4    4    0    0 -0.13102032248E+01  0.11001067683E+01  0.92456286359E+00  0.19475235342E+01  0.10566000000E+00 0.  1.
        -14    1    4    4    0    0 -0.17272325241E+02  0.88225457620E+01  0.80885349498E+01  0.21014160240E+02  0.00000000000E+00 0.  1.
<mgrwt>
<rscale>  0 0.78846537E+02</rscale>
<asrwt>0</asrwt>
<pdfrwt beam="1">  1        2 0.15848711E-02 0.78846537E+02</pdfrwt>
<pdfrwt beam="2">  1       -1 0.23210505E-01 0.78846537E+02</pdfrwt>
<totfact> 0.11174105E+05</totfact>
</mgrwt>
</event>
<event>
 8    1  0.1226832E-024  0.7947656E+02  0.7818608E-02  0.1330543E+00
          2   -1    0    0  501    0  0.00000000000E+00  0.00000000000E+00  0.36993163842E+03  0.36993163843E+03  0.25500000000E-02 0. -1.
         -1   -1    0    0    0  501 -0.00000000000E+00 -0.00000000000E+00 -0.42687081589E+01  0.42687111342E+01  0.50400000000E-02 0.  1.
         24    2    1    2    0    0  0.71054273576E-14  0.00000000000E+00  0.36566293026E+03  0.37420034956E+03  0.79476556581E+02 0.  0.
         66    2    3    3    0    0 -0.34377536162E+02 -0.76242424214E+01  0.26940332663E+03  0.27170222022E+03  0.20000009547E+01 0.  0.
        -13    1    3    3    0    0  0.34377536162E+02  0.76242424214E+01  0.96259603624E+02  0.10249812934E+03  0.10566000000E+00 0.  1.
         13    1    4    4    0    0 -0.23920259537E+02 -0.56536985106E+01  0.18408933424E+03  0.18572301222E+03  0.10566000000E+00 0. -1.
        -13    1    4    4    0    0 -0.48284564781E+01 -0.70474353809E+00  0.36216675092E+02  0.36544074405E+02  0.10566000000E+00 0.  1.
        -14    1    4    4    0    0 -0.56288201469E+01 -0.12658003728E+01  0.49097317302E+02  0.49435133591E+02  0.00000000000E+00 0.  1.
<mgrwt>
<rscale>  0 0.79476557E+02</rscale>
<asrwt>0</asrwt>
<pdfrwt beam="1">  1        2 0.56912588E-01 0.79476557E+02</pdfrwt>
<pdfrwt beam="2">  1       -1 0.65672424E-03 0.79476557E+02</pdfrwt>
<totfact> 0.27961095E+05</totfact>
</mgrwt>
</event>
<event>
 8    1  0.1226832E-024  0.8083175E+02  0.7818608E-02  0.1326707E+00
         -1   -1    0    0    0  501 -0.00000000000E+00  0.00000000000E+00  0.41731767466E+02  0.41731767770E+02  0.50400000000E-02 0.  1.
          2   -1    0    0  501    0  0.00000000000E+00 -0.00000000000E+00 -0.39141473896E+02  0.39141473979E+02  0.25500000000E-02 0. -1.
         24    2    1    2    0    0  0.35527136788E-14 -0.35527136788E-14  0.25902935700E+01  0.80873241750E+02  0.80831748777E+02 0.  0.
         66    2    3    3    0    0 -0.23256145627E+02  0.21991674050E+02 -0.23353183940E+02  0.39671819125E+02  0.19999988876E+01 0.  0.
        -13    1    3    3    0    0  0.23256145627E+02 -0.21991674050E+02  0.25943477510E+02  0.41201422625E+02  0.10566000000E+00 0.  1.
         13    1    4    4    0    0 -0.56171635757E+01  0.49423201473E+01 -0.52722428526E+01  0.91535110098E+01  0.10566000000E+00 0.  1.
        -13    1    4    4    0    0 -0.15945491731E+02  0.15005206404E+02 -0.15597687965E+02  0.26883339816E+02  0.10566000000E+00 0. -1.
         14    1    4    4    0    0 -0.16934903203E+01  0.20441474988E+01 -0.24832531225E+01  0.36349682986E+01  0.00000000000E+00 0. -1.
<mgrwt>
<rscale>  0 0.80831749E+02</rscale>
<asrwt>0</asrwt>
<pdfrwt beam="1">  1        2 0.60217652E-02 0.80831749E+02</pdfrwt>
<pdfrwt beam="2">  1       -1 0.64202720E-02 0.80831749E+02</pdfrwt>
<totfact> 0.13791167E+05</totfact>
</mgrwt>
</event>
<event>
 8    1  0.1226832E-024  0.7950098E+02  0.7818608E-02  0.1330474E+00
          2   -1    0    0  501    0  0.00000000000E+00  0.00000000000E+00  0.18737497831E+03  0.18737497832E+03  0.25500000000E-02 0. -1.
         -1   -1    0    0    0  501 -0.00000000000E+00 -0.00000000000E+00 -0.84328294435E+01  0.84328309496E+01  0.50400000000E-02 0.  1.
         24    2    1    2    0    0  0.35527136788E-14  0.35527136788E-14  0.17894214886E+03  0.19580780927E+03  0.79500978187E+02 0.  0.
         66    2    3    3    0    0 -0.25989853097E+02 -0.22555396891E+02  0.13840835249E+03  0.14263621718E+03  0.20000051096E+01 0.  0.
        -13    1    3    3    0    0  0.25989853097E+02  0.22555396891E+02  0.40533796370E+02  0.53171592088E+02  0.10566000000E+00 0.  1.
         13    1    4    4    0    0 -0.87519743255E+01 -0.78662584373E+01  0.46944390549E+02  0.48396921849E+02  0.10566000000E+00 0. -1.
        -13    1    4    4    0    0 -0.14929585045E+01 -0.18795753300E+01  0.93014282860E+01  0.96067403791E+01  0.10566000000E+00 0.  1.
        -14    1    4    4    0    0 -0.15744920267E+02 -0.12809563124E+02  0.82162533657E+02  0.84632554957E+02  0.00000000000E+00 0.  1.
<mgrwt>
<rscale>  0 0.79500978E+02</rscale>
<asrwt>0</asrwt>
<pdfrwt beam="1">  1        2 0.28826919E-01 0.79500978E+02</pdfrwt>
<pdfrwt beam="2">  1       -1 0.12973585E-02 0.79500978E+02</pdfrwt>
<totfact> 0.21927211E+05</totfact>
</mgrwt>
</event>
<event>
 8    1  0.1226832E-024  0.7903175E+02  0.7818608E-02  0.1331822E+00
         -1   -1    0    0    0  501 -0.00000000000E+00  0.00000000000E+00  0.68518515303E+01  0.68518533840E+01  0.50400000000E-02 0.  1.
          2   -1    0    0  501    0  0.00000000000E+00 -0.00000000000E+00 -0.22789519236E+03  0.22789519238E+03  0.25500000000E-02 0. -1.
         24    2    1    2    0    0  0.00000000000E+00  0.00000000000E+00 -0.22104334083E+03  0.23474704576E+03  0.79031746578E+02 0.  0.
         66    2    3    3    0    0  0.11049919865E+01  0.24672744140E+02 -0.20212021810E+03  0.20363336631E+03  0.20000006191E+01 0.  0.
        -13    1    3    3    0    0 -0.11049919865E+01 -0.24672744140E+02 -0.18923122739E+02  0.31113679450E+02  0.10566000000E+00 0.  1.
         13    1    4    4    0    0  0.20552214574E+00  0.62600331643E+01 -0.49696770670E+02  0.50090023294E+02  0.10566000000E+00 0. -1.
        -13    1    4    4    0    0 -0.47878128135E+00  0.65057576987E+01 -0.53410205603E+02  0.53807205292E+02  0.10566000000E+00 0.  1.
        -14    1    4    4    0    0  0.13782511221E+01  0.11906953277E+02 -0.99013241822E+02  0.99736137727E+02  0.00000000000E+00 0.  1.
<mgrwt>
<rscale>  0 0.79031747E+02</rscale>
<asrwt>0</asrwt>
<pdfrwt beam="1">  1        2 0.35060793E-01 0.79031747E+02</pdfrwt>
<pdfrwt beam="2">  1       -1 0.10541313E-02 0.79031747E+02</pdfrwt>
<totfact> 0.23845378E+05</totfact>
</mgrwt>
</event>
<event>
 8    1  0.1226832E-024  0.8316143E+02  0.7818608E-02  0.1320312E+00
          2   -1    0    0  501    0  0.00000000000E+00  0.00000000000E+00  0.37134980479E+03  0.37134980480E+03  0.25500000000E-02 0. -1.
         -1   -1    0    0    0  501 -0.00000000000E+00 -0.00000000000E+00 -0.46558670629E+01  0.46558697908E+01  0.50400000000E-02 0.  1.
         24    2    1    2    0    0  0.00000000000E+00  0.00000000000E+00  0.36669393772E+03  0.37600567459E+03  0.83161429507E+02 0.  0.
         66    2    3    3    0    0 -0.83094856386E+01  0.40674105579E+02  0.19193607536E+03  0.19638453986E+03  0.20000143764E+01 0.  0.
        -13    1    3    3    0    0  0.83094856386E+01 -0.40674105579E+02  0.17475786237E+03  0.17962113472E+03  0.10566000000E+00 0.  1.
         13    1    4    4    0    0 -0.27286829956E+01  0.15360124049E+02  0.72644367421E+02  0.74300702579E+02  0.10566000000E+00 0. -1.
        -13    1    4    4    0    0 -0.80723330609E+00  0.22868571540E+01  0.12488945412E+02  0.12722667283E+02  0.10566000000E+00 0.  1.
        -14    1    4    4    0    0 -0.47735693369E+01  0.23027124376E+02  0.10680276252E+03  0.10936117000E+03  0.00000000000E+00 0.  1.
<mgrwt>
<rscale>  0 0.83161430E+02</rscale>
<asrwt>0</asrwt>
<pdfrwt beam="1">  1        2 0.57130726E-01 0.83161430E+02</pdfrwt>
<pdfrwt beam="2">  1       -1 0.71628762E-03 0.83161430E+02</pdfrwt>
<totfact> 0.24865490E+05</totfact>
</mgrwt>
</event>
<event>
 8    1  0.1226832E-024  0.7928560E+02  0.7818608E-02  0.1331091E+00
         -1   -1    0    0    0  501 -0.00000000000E+00  0.00000000000E+00  0.52324357285E+01  0.52324381558E+01  0.50400000000E-02 0.  1.
          2   -1    0    0  501    0  0.00000000000E+00 -0.00000000000E+00 -0.30034790535E+03  0.30034790536E+03  0.25500000000E-02 0. -1.
         24    2    1    2    0    0 -0.35527136788E-14  0.00000000000E+00 -0.29511546962E+03  0.30558034352E+03  0.79285597266E+02 0.  0.
         66    2    3    3    0    0  0.30386995511E+02  0.22640787426E+02 -0.10310744166E+03  0.10986864556E+03  0.19999999889E+01 0.  0.
        -13    1    3    3    0    0 -0.30386995511E+02 -0.22640787426E+02 -0.19200802796E+03  0.19571169795E+03  0.10566000000E+00 0.  1.
         13    1    4    4    0    0  0.20318914972E+02  0.14937673832E+02 -0.68194975386E+02  0.72708721877E+02  0.10566000000E+00 0. -1.
        -13    1    4    4    0    0  0.81152630600E+00  0.37268481181E+00 -0.19780678959E+01  0.21728749505E+01  0.10566000000E+00 0.  1.
         14    1    4    4    0    0  0.92565542330E+01  0.73304287826E+01 -0.32934398379E+02  0.34987048732E+02  0.00000000000E+00 0. -1.
<mgrwt>
<rscale>  0 0.79285597E+02</rscale>
<asrwt>0</asrwt>
<pdfrwt beam="1">  1        2 0.46207356E-01 0.79285597E+02</pdfrwt>
<pdfrwt beam="2">  1       -1 0.80499054E-03 0.79285597E+02</pdfrwt>
<totfact> 0.26111839E+05</totfact>
</mgrwt>
</event>
<event>
 8    1  0.1226832E-024  0.8099375E+02  0.7818608E-02  0.1326255E+00
         -1   -1    0    0    0  501 -0.00000000000E+00  0.00000000000E+00  0.37739779912E+02  0.37739780248E+02  0.50400000000E-02 0.  1.
          2   -1    0    0  501    0  0.00000000000E+00 -0.00000000000E+00 -0.43455391581E+02  0.43455391656E+02  0.25500000000E-02 0. -1.
         24    2    1    2    0    0 -0.71054273576E-14  0.00000000000E+00 -0.57156116699E+01  0.81195171904E+02  0.80993751141E+02 0.  0.
         66    2    3    3    0    0 -0.39774241963E+02 -0.29162684268E+01 -0.97684899876E+01  0.41108616403E+02  0.20000001567E+01 0.  0.
        -13    1    3    3    0    0  0.39774241963E+02  0.29162684268E+01  0.40528783177E+01  0.40086555502E+02  0.10566000000E+00 0.  1.
         13    1    4    4    0    0 -0.15671050071E+02 -0.68226542681E+00 -0.39995539834E+01  0.16188109604E+02  0.10566000000E+00 0. -1.
        -13    1    4    4    0    0 -0.11636887270E+02 -0.72328636172E+00 -0.21985286643E+01  0.11865284692E+02  0.10566000000E+00 0.  1.
        -14    1    4    4    0    0 -0.12466304622E+02 -0.15107166383E+01 -0.35704073400E+01  0.13055222107E+02  0.00000000000E+00 0.  1.
<mgrwt>
<rscale>  0 0.80993751E+02</rscale>
<asrwt>0</asrwt>
<pdfrwt beam="1">  1        2 0.66854449E-02 0.80993751E+02</pdfrwt>
<pdfrwt beam="2">  1       -1 0.58061200E-02 0.80993751E+02</pdfrwt>
<totfact> 0.14016977E+05</totfact>
</mgrwt>
</event>
<event>
 8    1  0.1226832E-024  0.7980055E+02  0.7818608E-02  0.1329618E+00
          2   -1    0    0  501    0  0.00000000000E+00  0.00000000000E+00  0.39649526897E+03  0.39649526898E+03  0.25500000000E-02 0. -1.
         -1   -1    0    0    0  501 -0.00000000000E+00 -0.00000000000E+00 -0.40152593757E+01  0.40152625388E+01  0.50400000000E-02 0.  1.
         24    2    1    2    0    0 -0.17763568394E-14  0.00000000000E+00  0.39248000959E+03  0.40051053152E+03  0.79800550905E+02 0.  0.
         66    2    3    3    0    0 -0.12020652772E+02 -0.17576416647E+02  0.36556744986E+03  0.36619255444E+03  0.20000033525E+01 0.  0.
        -13    1    3    3    0    0  0.12020652772E+02  0.17576416647E+02  0.26912559728E+02  0.34317977073E+02  0.10566000000E+00 0.  1.
         13    1    4    4    0    0 -0.16404010778E+01 -0.27273704950E+01  0.53268227994E+02  0.53363327699E+02  0.10566000000E+00 0. -1.
        -13    1    4    4    0    0 -0.86153614012E+01 -0.12366245732E+02  0.24755165524E+03  0.24801004347E+03  0.10566000000E+00 0.  1.
         14    1    4    4    0    0 -0.17648902932E+01 -0.24828004197E+01  0.64747566629E+02  0.64819183272E+02  0.00000000000E+00 0. -1.
<mgrwt>
<rscale>  0 0.79800551E+02</rscale>
<asrwt>0</asrwt>
<pdfrwt beam="1">  1        2 0.60999291E-01 0.79800551E+02</pdfrwt>
<pdfrwt beam="2">  1       -1 0.61773227E-03 0.79800551E+02</pdfrwt>
<totfact> 0.28351000E+05</totfact>
</mgrwt>
</event>
<event>
 8    1  0.1226832E-024  0.7999931E+02  0.7818608E-02  0.1329053E+00
         -1   -1    0    0    0  501 -0.00000000000E+00  0.00000000000E+00  0.77031430489E+02  0.77031430654E+02  0.50400000000E-02 0.  1.
          2   -1    0    0  501    0  0.00000000000E+00 -0.00000000000E+00 -0.20770382426E+02  0.20770382583E+02  0.25500000000E-02 0. -1.
         24    2    1    2    0    0 -0.44408920985E-15 -0.35527136788E-14  0.56261048063E+02  0.97801813237E+02  0.79999307142E+02 0.  0.
         66    2    3    3    0    0  0.30948041250E+01  0.24707383906E+02 -0.10082938707E+02  0.26938787782E+02  0.20000005297E+01 0.  0.
        -13    1    3    3    0    0 -0.30948041250E+01 -0.24707383906E+02  0.66343986770E+02  0.70863025455E+02  0.10566000000E+00 0.  1.
         13    1    4    4    0    0  0.95351891237E+00  0.99860526592E+01 -0.44766195911E+01  0.10985523794E+02  0.10566000000E+00 0. -1.
        -13    1    4    4    0    0 -0.11081194099E+00  0.28023295668E+00 -0.14309319896E+00  0.34992784323E+00  0.10566000000E+00 0.  1.
         14    1    4    4    0    0  0.22520971536E+01  0.14441098290E+02 -0.54632259172E+01  0.15603336144E+02  0.00000000000E+00 0. -1.
<mgrwt>
<rscale>  0 0.79999307E+02</rscale>
<asrwt>0</asrwt>
<pdfrwt beam="1">  1        2 0.31954435E-02 0.79999307E+02</pdfrwt>
<pdfrwt beam="2">  1       -1 0.11850989E-01 0.79999307E+02</pdfrwt>
<totfact> 0.12511030E+05</totfact>
</mgrwt>
</event>
<event>
 8    1  0.1226832E-024  0.8350484E+02  0.7818608E-02  0.1319389E+00
         -1   -1    0    0    0  501 -0.00000000000E+00  0.00000000000E+00  0.74781679646E+00  0.74783378011E+00  0.50400000000E-02 0.  1.
          2   -1    0    0  501    0  0.00000000000E+00 -0.00000000000E+00 -0.23311119408E+04  0.23311119408E+04  0.25500000000E-02 0. -1.
         24    2    1    2    0    0  0.00000000000E+00  0.00000000000E+00 -0.23303641240E+04  0.23318597746E+04  0.83504837396E+02 0.  0.
         66    2    3    3    0    0 -0.16978820292E+02  0.16059447637E+01 -0.22293417453E+04  0.22294078758E+04  0.20000075123E+01 0.  0.
        -13    1    3    3    0    0  0.16978820292E+02 -0.16059447637E+01 -0.10102237871E+03  0.10245189877E+03  0.10566000000E+00 0.  1.
         13    1    4    4    0    0 -0.31985923576E+01  0.62733981510E+00 -0.38166217781E+03  0.38167611096E+03  0.10566000000E+00 0. -1.
        -13    1    4    4    0    0 -0.74071687824E+01 -0.85696518377E-02 -0.92541660493E+03  0.92544625456E+03  0.10566000000E+00 0.  1.
         14    1    4    4    0    0 -0.63730591520E+01  0.98717460048E+00 -0.92226296256E+03  0.92228551030E+03  0.00000000000E+00 0. -1.
<mgrwt>
<rscale>  0 0.83504837E+02</rscale>
<asrwt>0</asrwt>
<pdfrwt beam="1">  1        2 0.35862679E+00 0.83504837E+02</pdfrwt>
<pdfrwt beam="2">  1       -1 0.11505191E-03 0.83504837E+02</pdfrwt>
<totfact> 0.20833313E+05</totfact>
</mgrwt>
</event>
<event>
 8    1  0.1226832E-024  0.7908982E+02  0.7818608E-02  0.1331654E+00
          2   -1    0    0  501    0  0.00000000000E+00  0.00000000000E+00  0.75957709091E+03  0.75957709091E+03  0.25500000000E-02 0. -1.
         -1   -1    0    0    0  501 -0.00000000000E+00 -0.00000000000E+00 -0.20587738761E+01  0.20587800452E+01  0.50400000000E-02 0.  1.
         24    2    1    2    0    0  0.00000000000E+00 -0.88817841970E-15  0.75751831703E+03  0.76163587096E+03  0.79089817867E+02 0.  0.
         66    2    3    3    0    0 -0.16346275479E+02  0.53306131206E+01  0.72166929403E+03  0.72187684969E+03  0.20000017279E+01 0.  0.
        -13    1    3    3    0    0  0.16346275479E+02 -0.53306131206E+01  0.35849022997E+02  0.39759021268E+02  0.10566000000E+00 0.  1.
         13    1    4    4    0    0 -0.74310143799E+01  0.27502641822E+01  0.32829383298E+03  0.32838945761E+03  0.10566000000E+00 0. -1.
        -13    1    4    4    0    0 -0.53430870695E+01  0.85726306213E+00  0.23410583569E+03  0.23416839443E+03  0.10566000000E+00 0.  1.
        -14    1    4    4    0    0 -0.35721740300E+01  0.17230858763E+01  0.15926962536E+03  0.15931899766E+03  0.00000000000E+00 0.  1.
<mgrwt>
<rscale>  0 0.79089818E+02</rscale>
<asrwt>0</asrwt>
<pdfrwt beam="1">  1        2 0.11685790E+00 0.79089818E+02</pdfrwt>
<pdfrwt beam="2">  1       -1 0.31673523E-03 0.79089818E+02</pdfrwt>
<totfact> 0.35065163E+05</totfact>
</mgrwt>
</event>
<event>
 8    1  0.1226832E-024  0.8215831E+02  0.7818608E-02  0.1323036E+00
          2   -1    0    0  501    0  0.00000000000E+00  0.00000000000E+00  0.13633374541E+04  0.13633374541E+04  0.25500000000E-02 0. -1.
         -1   -1    0    0    0  501 -0.00000000000E+00 -0.00000000000E+00 -0.12377641084E+01  0.12377743694E+01  0.50400000000E-02 0.  1.
         24    2    1    2    0    0  0.00000000000E+00 -0.35527136788E-14  0.13620996900E+04  0.13645752285E+04  0.82158314755E+02 0.  0.
         66    2    3    3    0    0  0.33912728729E+01  0.24117389695E+02  0.12303930502E+04  0.12306356923E+04  0.19999984425E+01 0.  0.
        -13    1    3    3    0    0 -0.33912728729E+01 -0.24117389695E+02  0.13170663976E+03  0.13393953613E+03  0.10566000000E+00 0.  1.
         13    1    4    4    0    0  0.21952029182E+01  0.15886210312E+02  0.77840223484E+03  0.77856742865E+03  0.10566000000E+00 0. -1.
        -13    1    4    4    0    0  0.65782309926E+00  0.26567844127E+01  0.13152592851E+03  0.13155444602E+03  0.10566000000E+00 0.  1.
         14    1    4    4    0    0  0.53824685543E+00  0.55743949696E+01  0.32046488687E+03  0.32051381765E+03  0.00000000000E+00 0. -1.
<mgrwt>
<rscale>  0 0.82158315E+02</rscale>
<asrwt>0</asrwt>
<pdfrwt beam="1">  1        2 0.20974496E+00 0.82158315E+02</pdfrwt>
<pdfrwt beam="2">  1       -1 0.19042537E-03 0.82158315E+02</pdfrwt>
<totfact> 0.31962689E+05</totfact>
</mgrwt>
</event>
<event>
 8    1  0.1226832E-024  0.7648344E+02  0.7818608E-02  0.1339338E+00
          2   -1    0    0  501    0  0.00000000000E+00  0.00000000000E+00  0.23112047628E+03  0.23112047629E+03  0.25500000000E-02 0. -1.
         -1   -1    0    0    0  501 -0.00000000000E+00 -0.00000000000E+00 -0.63275603924E+01  0.63275623996E+01  0.50400000000E-02 0.  1.
         24    2    1    2    0    0 -0.88817841970E-15  0.00000000000E+00  0.22479291588E+03  0.23744803869E+03  0.76483436417E+02 0.  0.
         66    2    3    3    0    0 -0.58161144985E+01  0.13938052962E+02  0.22145748545E+03  0.22198088742E+03  0.20000023087E+01 0.  0.
        -13    1    3    3    0    0  0.58161144985E+01 -0.13938052962E+02  0.33354304345E+01  0.15467151272E+02  0.10566000000E+00 0.  1.
         13    1    4    4    0    0 -0.13827530258E+01  0.51267956386E+01  0.78084153147E+02  0.78264565265E+02  0.10566000000E+00 0. -1.
        -13    1    4    4    0    0 -0.33130028379E+01  0.63417710662E+01  0.96818295960E+02  0.97082375562E+02  0.10566000000E+00 0.  1.
        -14    1    4    4    0    0 -0.11203586348E+01  0.24694862576E+01  0.46555036344E+02  0.46633946593E+02  0.00000000000E+00 0.  1.
<mgrwt>
<rscale>  0 0.76483436E+02</rscale>
<asrwt>0</asrwt>
<pdfrwt beam="1">  1        2 0.35556995E-01 0.76483436E+02</pdfrwt>
<pdfrwt beam="2">  1       -1 0.97347104E-03 0.76483436E+02</pdfrwt>
<totfact> 0.26117181E+05</totfact>
</mgrwt>
</event>
<event>
 8    1  0.1226832E-024  0.7991751E+02  0.7818608E-02  0.1329286E+00
          2   -1    0    0  501    0  0.00000000000E+00  0.00000000000E+00  0.13540666389E+02  0.13540666629E+02  0.25500000000E-02 0. -1.
         -1   -1    0    0    0  501 -0.00000000000E+00 -0.00000000000E+00 -0.11791901861E+03  0.11791901872E+03  0.50400000000E-02 0.  1.
         24    2    1    2    0    0  0.00000000000E+00  0.88817841970E-15 -0.10437835222E+03  0.13145968535E+03  0.79917510342E+02 0.  0.
         66    2    3    3    0    0  0.17234493271E+02 -0.66982570085E+01  0.60008826018E+01  0.19542389769E+02  0.20000001529E+01 0.  0.
        -13    1    3    3    0    0 -0.17234493271E+02  0.66982570085E+01 -0.11037923483E+03  0.11191729558E+03  0.10566000000E+00 0.  1.
         13    1    4    4    0    0  0.75686897159E+01 -0.23143904862E+01  0.19905442388E+01  0.81617950073E+01  0.10566000000E+00 0. -1.
        -13    1    4    4    0    0  0.12937672288E+01 -0.82503151018E+00  0.80009484654E+00  0.17337319384E+01  0.10566000000E+00 0.  1.
         14    1    4    4    0    0  0.83720363267E+01 -0.35588350121E+01  0.32102435164E+01  0.96468628234E+01  0.00000000000E+00 0. -1.
<mgrwt>
<rscale>  0 0.79917510E+02</rscale>
<asrwt>0</asrwt>
<pdfrwt beam="1">  1        2 0.20831795E-02 0.79917510E+02</pdfrwt>
<pdfrwt beam="2">  1       -1 0.18141387E-01 0.79917510E+02</pdfrwt>
<totfact> 0.11459613E+05</totfact>
</mgrwt>
</event>
<event>
 8    1  0.1226832E-024  0.8013103E+02  0.7818608E-02  0.1328680E+00
          2   -1    0    0  501    0  0.00000000000E+00  0.00000000000E+00  0.65566975407E+03  0.65566975407E+03  0.25500000000E-02 0. -1.
         -1   -1    0    0    0  501 -0.00000000000E+00 -0.00000000000E+00 -0.24482505037E+01  0.24482556914E+01  0.50400000000E-02 0.  1.
         24    2    1    2    0    0  0.00000000000E+00  0.00000000000E+00  0.65322150356E+03  0.65811800976E+03  0.80131030553E+02 0.  0.
         66    2    3    3    0    0  0.14157688302E+02 -0.28390587983E+02  0.52744940425E+03  0.52840641524E+03  0.19999997461E+01 0.  0.
        -13    1    3    3    0    0 -0.14157688302E+02  0.28390587983E+02  0.12577209931E+03  0.12971159452E+03  0.10566000000E+00 0.  1.
         13    1    4    4    0    0  0.69029646088E+01 -0.14119035217E+02  0.25358628614E+03  0.25407285128E+03  0.10566000000E+00 0. -1.
        -13    1    4    4    0    0  0.63600108637E-01 -0.30724729243E+00  0.39742564650E+01  0.39880226125E+01  0.10566000000E+00 0. -1.
         14    1    4    4    0    0  0.71911235847E+01 -0.13964305473E+02  0.26988886165E+03  0.27034554135E+03  0.00000000000E+00 0. -1.
<mgrwt>
<rscale>  0 0.80131031E+02</rscale>
<asrwt>0</asrwt>
<pdfrwt beam="1">  1        2 0.10087232E+00 0.80131031E+02</pdfrwt>
<pdfrwt beam="2">  1       -1 0.37665415E-03 0.80131031E+02</pdfrwt>
<totfact> 0.32789751E+05</totfact>
</mgrwt>
</event>
<event>
 8    1  0.1226832E-024  0.7919395E+02  0.7818608E-02  0.1331355E+00
          2   -1    0    0  501    0  0.00000000000E+00  0.00000000000E+00  0.42165567001E+03  0.42165567001E+03  0.25500000000E-02 0. -1.
         -1   -1    0    0    0  501 -0.00000000000E+00 -0.00000000000E+00 -0.37184837720E+01  0.37184871876E+01  0.50400000000E-02 0.  1.
         24    2    1    2    0    0  0.00000000000E+00 -0.71054273576E-14  0.41793718623E+03  0.42537415720E+03  0.79193951647E+02 0.  0.
         66    2    3    3    0    0 -0.19133100998E+02  0.30922825080E+02  0.29293827330E+03  0.29519337497E+03  0.19999987563E+01 0.  0.
        -13    1    3    3    0    0  0.19133100998E+02 -0.30922825080E+02  0.12499891293E+03  0.13018078223E+03  0.10566000000E+00 0.  1.
         13    1    4    4    0    0 -0.51098510861E+01  0.84874213093E+01  0.75372763016E+02  0.76021125139E+02  0.10566000000E+00 0. -1.
        -13    1    4    4    0    0 -0.12099642597E+02  0.19629357367E+02  0.19284464325E+03  0.19421838383E+03  0.10566000000E+00 0.  1.
        -14    1    4    4    0    0 -0.19236073146E+01  0.28060464036E+01  0.24720867032E+02  0.24953866000E+02  0.00000000000E+00 0.  1.
<mgrwt>
<rscale>  0 0.79193952E+02</rscale>
<asrwt>0</asrwt>
<pdfrwt beam="1">  1        2 0.64870104E-01 0.79193952E+02</pdfrwt>
<pdfrwt beam="2">  1       -1 0.57207468E-03 0.79193952E+02</pdfrwt>
<totfact> 0.29545534E+05</totfact>
</mgrwt>
</event>
<event>
 8    1  0.1226832E-024  0.7948280E+02  0.7818608E-02  0.1330526E+00
         -1   -1    0    0    0  501 -0.00000000000E+00  0.00000000000E+00  0.10370386923E+01  0.10370509395E+01  0.50400000000E-02 0.  1.
          2   -1    0    0  501    0  0.00000000000E+00 -0.00000000000E+00 -0.15229612382E+04  0.15229612382E+04  0.25500000000E-02 0. -1.
         24    2    1    2    0    0  0.00000000000E+00 -0.88817841970E-15 -0.15219241995E+04  0.15239982891E+04  0.79482804804E+02 0.  0.
         66    2    3    3    0    0  0.16652275183E+02  0.41151914504E+01 -0.14482713596E+04  0.14483743177E+04  0.20000002419E+01 0.  0.
        -13    1    3    3    0    0 -0.16652275183E+02 -0.41151914504E+01 -0.73652839901E+02  0.75623971457E+02  0.10566000000E+00 0.  1.
         13    1    4    4    0    0  0.12658437021E+02  0.36953691123E+01 -0.10962040986E+04  0.10962834163E+04  0.10566000000E+00 0. -1.
        -13    1    4    4    0    0  0.21326804551E+01  0.27904338553E+00 -0.21826319258E+03  0.21827381563E+03  0.10566000000E+00 0.  1.
        -14    1    4    4    0    0  0.18611577074E+01  0.14077895257E+00 -0.13380406840E+03  0.13381708578E+03  0.00000000000E+00 0.  1.
<mgrwt>
<rscale>  0 0.79482805E+02</rscale>
<asrwt>0</asrwt>
<pdfrwt beam="1">  1        2 0.23429994E+00 0.79482805E+02</pdfrwt>
<pdfrwt beam="2">  1       -1 0.15954658E-03 0.79482805E+02</pdfrwt>
<totfact> 0.33618471E+05</totfact>
</mgrwt>
</event>
<event>
 8    1  0.1226832E-024  0.8273879E+02  0.7818608E-02  0.1321454E+00
          2   -1    0    0  501    0  0.00000000000E+00  0.00000000000E+00  0.46471822550E+03  0.46471822550E+03  0.25500000000E-02 0. -1.
         -1   -1    0    0    0  501 -0.00000000000E+00 -0.00000000000E+00 -0.36827175914E+01  0.36827210401E+01  0.50400000000E-02 0.  1.
         24    2    1    2    0    0  0.17763568394E-14  0.00000000000E+00  0.46103550790E+03  0.46840094654E+03  0.82738788809E+02 0.  0.
         66    2    3    3    0    0 -0.10890392060E+02  0.33056453878E+02  0.35699862304E+03  0.35869673350E+03  0.19999979459E+01 0.  0.
        -13    1    3    3    0    0  0.10890392060E+02 -0.33056453878E+02  0.10403688487E+03  0.10970421304E+03  0.10566000000E+00 0.  1.
         13    1    4    4    0    0 -0.84187591012E+01  0.25148745642E+02  0.27419449669E+03  0.27547407880E+03  0.10566000000E+00 0. -1.
        -13    1    4    4    0    0 -0.69145020498E+00  0.20835813174E+01  0.26120757418E+02  0.26213060612E+02  0.10566000000E+00 0.  1.
        -14    1    4    4    0    0 -0.17801827539E+01  0.58241269187E+01  0.56683368930E+02  0.57009594089E+02  0.00000000000E+00 0.  1.
<mgrwt>
<rscale>  0 0.82738789E+02</rscale>
<asrwt>0</asrwt>
<pdfrwt beam="1">  1        2 0.71495139E-01 0.82738789E+02</pdfrwt>
<pdfrwt beam="2">  1       -1 0.56657199E-03 0.82738789E+02</pdfrwt>
<totfact> 0.27232573E+05</totfact>
</mgrwt>
</event>
<event>
 8    1  0.1226832E-024  0.7883099E+02  0.7818608E-02  0.1332402E+00
          2   -1    0    0  501    0  0.00000000000E+00  0.00000000000E+00  0.48049343244E+03  0.48049343245E+03  0.25500000000E-02 0. -1.
         -1   -1    0    0    0  501 -0.00000000000E+00 -0.00000000000E+00 -0.32333021695E+01  0.32333060976E+01  0.50400000000E-02 0.  1.
         24    2    1    2    0    0  0.00000000000E+00  0.00000000000E+00  0.47726013027E+03  0.48372673854E+03  0.78830994139E+02 0.  0.
         66    2    3    3    0    0  0.17090733040E+02  0.21725291787E+02  0.41098079726E+03  0.41191418666E+03  0.20000001575E+01 0.  0.
        -13    1    3    3    0    0 -0.17090733040E+02 -0.21725291787E+02  0.66279333014E+02  0.71812551883E+02  0.10566000000E+00 0.  1.
         13    1    4    4    0    0  0.67349597581E+01  0.83475342118E+01  0.16612216538E+03  0.16646809305E+03  0.10566000000E+00 0. -1.
        -13    1    4    4    0    0  0.42058793835E+01  0.43896381309E+01  0.86707334354E+02  0.86920258508E+02  0.10566000000E+00 0.  1.
        -14    1    4    4    0    0  0.61498938984E+01  0.89881194442E+01  0.15815129752E+03  0.15852583510E+03  0.00000000000E+00 0.  1.
<mgrwt>
<rscale>  0 0.78830994E+02</rscale>
<asrwt>0</asrwt>
<pdfrwt beam="1">  1        2 0.73922114E-01 0.78830994E+02</pdfrwt>
<pdfrwt beam="2">  1       -1 0.49743109E-03 0.78830994E+02</pdfrwt>
<totfact> 0.31238803E+05</totfact>
</mgrwt>
</event>
<event>
 8    1  0.1226832E-024  0.7973575E+02  0.7818608E-02  0.1329803E+00
          2   -1    0    0  501    0  0.00000000000E+00  0.00000000000E+00  0.39304601184E+03  0.39304601185E+03  0.25500000000E-02 0. -1.
         -1   -1    0    0    0  501 -0.00000000000E+00 -0.00000000000E+00 -0.40439200867E+01  0.40439232274E+01  0.50400000000E-02 0.  1.
         24    2    1    2    0    0  0.27755575616E-16  0.17763568394E-14  0.38900209176E+03  0.39708993508E+03  0.79735745748E+02 0.  0.
         66    2    3    3    0    0  0.11779813644E+00  0.14013315512E+02  0.38036418552E+03  0.38062750888E+03  0.20000013753E+01 0.  0.
        -13    1    3    3    0    0 -0.11779813644E+00 -0.14013315512E+02  0.86379062385E+01  0.16462426196E+02  0.10566000000E+00 0.  1.
         13    1    4    4    0    0  0.44722354752E+00  0.71842673750E+01  0.18383987340E+03  0.18398077053E+03  0.10566000000E+00 0. -1.
        -13    1    4    4    0    0 -0.74546347668E+00  0.35884122467E+01  0.10729597376E+03  0.10735860267E+03  0.10566000000E+00 0.  1.
        -14    1    4    4    0    0  0.41603806560E+00  0.32406358903E+01  0.89228338359E+02  0.89288135690E+02  0.00000000000E+00 0.  1.
<mgrwt>
<rscale>  0 0.79735746E+02</rscale>
<asrwt>0</asrwt>
<pdfrwt beam="1">  1        2 0.60468631E-01 0.79735746E+02</pdfrwt>
<pdfrwt beam="2">  1       -1 0.62214165E-03 0.79735746E+02</pdfrwt>
<totfact> 0.28324303E+05</totfact>
</mgrwt>
</event>
<event>
 8    1  0.1226832E-024  0.7828035E+02  0.7818608E-02  0.1334004E+00
          2   -1    0    0  501    0  0.00000000000E+00  0.00000000000E+00  0.24461048455E+03  0.24461048456E+03  0.25500000000E-02 0. -1.
         -1   -1    0    0    0  501 -0.00000000000E+00 -0.00000000000E+00 -0.62628261282E+01  0.62628281562E+01  0.50400000000E-02 0.  1.
         24    2    1    2    0    0  0.00000000000E+00  0.00000000000E+00  0.23834765842E+03  0.25087331272E+03  0.78280347212E+02 0.  0.
         66    2    3    3    0    0 -0.61672567658E+01 -0.19150732397E+02  0.22675162956E+03  0.22765124010E+03  0.20000008651E+01 0.  0.
        -13    1    3    3    0    0  0.61672567658E+01  0.19150732397E+02  0.11596028862E+02  0.23222072620E+02  0.10566000000E+00 0.  1.
         13    1    4    4    0    0 -0.16622956488E+01 -0.55225693200E+01  0.64531329814E+02  0.64788623155E+02  0.10566000000E+00 0. -1.
        -13    1    4    4    0    0 -0.37618364829E+01 -0.10535738374E+02  0.11858999414E+03  0.11911654407E+03  0.10566000000E+00 0.  1.
         14    1    4    4    0    0 -0.74312463408E+00 -0.30924247030E+01  0.43630305603E+02  0.43746072873E+02  0.00000000000E+00 0. -1.
<mgrwt>
<rscale>  0 0.78280347E+02</rscale>
<asrwt>0</asrwt>
<pdfrwt beam="1">  1        2 0.37632384E-01 0.78280347E+02</pdfrwt>
<pdfrwt beam="2">  1       -1 0.96351183E-03 0.78280347E+02</pdfrwt>
<totfact> 0.25074212E+05</totfact>
</mgrwt>
</event>
<event>
 8    1  0.1226832E-024  0.7851668E+02  0.7818608E-02  0.1333314E+00
          2   -1    0    0  501    0  0.00000000000E+00  0.00000000000E+00  0.57461240989E+03  0.57461240989E+03  0.25500000000E-02 0. -1.
         -1   -1    0    0    0  501 -0.00000000000E+00 -0.00000000000E+00 -0.26821832320E+01  0.26821879673E+01  0.50400000000E-02 0.  1.
         24    2    1    2    0    0  0.00000000000E+00  0.00000000000E+00  0.57193022665E+03  0.57729459786E+03  0.78516676934E+02 0.  0.
         66    2    3    3    0    0 -0.17158672491E+02  0.25327170487E+02  0.46674767531E+03  0.46775343721E+03  0.20000003963E+01 0.  0.
        -13    1    3    3    0    0  0.17158672491E+02 -0.25327170487E+02  0.10518255134E+03  0.10954116065E+03  0.10566000000E+00 0.  1.
         13    1    4    4    0    0 -0.45340953240E+01  0.63031242104E+01  0.10922164914E+03  0.10949733878E+03  0.10566000000E+00 0. -1.
        -13    1    4    4    0    0 -0.54641279970E+01  0.91354627123E+01  0.17049332137E+03  0.17082534112E+03  0.10566000000E+00 0.  1.
        -14    1    4    4    0    0 -0.71604491699E+01  0.98885835646E+01  0.18703270480E+03  0.18743075730E+03  0.00000000000E+00 0.  1.
<mgrwt>
<rscale>  0 0.78516677E+02</rscale>
<asrwt>0</asrwt>
<pdfrwt beam="1">  1        2 0.88401972E-01 0.78516677E+02</pdfrwt>
<pdfrwt beam="2">  1       -1 0.41264365E-03 0.78516677E+02</pdfrwt>
<totfact> 0.33355481E+05</totfact>
</mgrwt>
</event>
<event>
 8    1  0.1226832E-024  0.7713896E+02  0.7818608E-02  0.1337372E+00
          2   -1    0    0  501    0  0.00000000000E+00  0.00000000000E+00  0.10830191437E+04  0.10830191437E+04  0.25500000000E-02 0. -1.
         -1   -1    0    0    0  501 -0.00000000000E+00 -0.00000000000E+00 -0.13735674504E+01  0.13735766969E+01  0.50400000000E-02 0.  1.
         24    2    1    2    0    0 -0.88817841970E-15  0.00000000000E+00  0.10816455763E+04  0.10843927204E+04  0.77138961854E+02 0.  0.
         66    2    3    3    0    0 -0.60729579519E+01 -0.25527762145E+02  0.93806263074E+03  0.93843169525E+03  0.19999987750E+01 0.  0.
        -13    1    3    3    0    0  0.60729579519E+01  0.25527762145E+02  0.14358294551E+03  0.14596102516E+03  0.10566000000E+00 0.  1.
         13    1    4    4    0    0 -0.41810169869E+01 -0.19554281197E+02  0.69998104305E+03  0.70026660824E+03  0.10566000000E+00 0. -1.
        -13    1    4    4    0    0 -0.70182395556E+00 -0.23717562577E+01  0.10693218636E+03  0.10696084063E+03  0.10566000000E+00 0.  1.
        -14    1    4    4    0    0 -0.11901170094E+01 -0.36017246905E+01  0.13114940133E+03  0.13120424638E+03  0.00000000000E+00 0.  1.
<mgrwt>
<rscale>  0 0.77138962E+02</rscale>
<asrwt>0</asrwt>
<pdfrwt beam="1">  1        2 0.16661888E+00 0.77138962E+02</pdfrwt>
<pdfrwt beam="2">  1       -1 0.21131809E-03 0.77138962E+02</pdfrwt>
<totfact> 0.38755629E+05</totfact>
</mgrwt>
</event>
<event>
 8    1  0.1226832E-024  0.7721762E+02  0.7818608E-02  0.1337138E+00
          2   -1    0    0  501    0  0.00000000000E+00  0.00000000000E+00  0.19752212935E+03  0.19752212936E+03  0.25500000000E-02 0. -1.
         -1   -1    0    0    0  501 -0.00000000000E+00 -0.00000000000E+00 -0.75466998349E+01  0.75467015179E+01  0.50400000000E-02 0.  1.
         24    2    1    2    0    0  0.35527136788E-14  0.17763568394E-14  0.18997542951E+03  0.20506883088E+03  0.77217624806E+02 0.  0.
         66    2    3    3    0    0  0.26109952060E+02  0.11890562365E+02  0.16356282683E+03  0.16607201288E+03  0.20000176128E+01 0.  0.
        -13    1    3    3    0    0 -0.26109952060E+02 -0.11890562365E+02  0.26412602680E+02  0.38996818002E+02  0.10566000000E+00 0.  1.
         13    1    4    4    0    0  0.12754416378E+02  0.63357059058E+01  0.79870469508E+02  0.81130261739E+02  0.10566000000E+00 0. -1.
        -13    1    4    4    0    0  0.13423305193E+01  0.89469706504E+00  0.82504482738E+01  0.84073417212E+01  0.10566000000E+00 0. -1.
         14    1    4    4    0    0  0.12013205163E+02  0.46601593940E+01  0.75441909050E+02  0.76534409418E+02  0.00000000000E+00 0. -1.
<mgrwt>
<rscale>  0 0.77217625E+02</rscale>
<asrwt>0</asrwt>
<pdfrwt beam="1">  1        2 0.30388019E-01 0.77217625E+02</pdfrwt>
<pdfrwt beam="2">  1       -1 0.11610309E-02 0.77217625E+02</pdfrwt>
<totfact> 0.24110120E+05</totfact>
</mgrwt>
</event>
<event>
 8    1  0.1226832E-024  0.7902448E+02  0.7818608E-02  0.1331843E+00
         -1   -1    0    0    0  501 -0.00000000000E+00  0.00000000000E+00  0.14390193231E+03  0.14390193240E+03  0.50400000000E-02 0.  1.
          2   -1    0    0  501    0  0.00000000000E+00 -0.00000000000E+00 -0.10849174169E+02  0.10849174469E+02  0.25500000000E-02 0. -1.
         24    2    1    2    0    0  0.00000000000E+00 -0.35527136788E-14  0.13305275814E+03  0.15475110687E+03  0.79024481193E+02 0.  0.
         66    2    3    3    0    0 -0.22646888851E+02 -0.27041515228E+02  0.31808260663E+02  0.47538306540E+02  0.20000054596E+01 0.  0.
        -13    1    3    3    0    0  0.22646888851E+02  0.27041515228E+02  0.10124449748E+03  0.10721280033E+03  0.10566000000E+00 0.  1.
         13    1    4    4    0    0 -0.92032889071E+01 -0.11258410698E+02  0.13259528104E+02  0.19679395004E+02  0.10566000000E+00 0. -1.
        -13    1    4    4    0    0 -0.76003150507E+01 -0.78815759922E+01  0.10185336660E+02  0.14954473441E+02  0.10566000000E+00 0.  1.
        -14    1    4    4    0    0 -0.58432848926E+01 -0.79015285384E+01  0.83633958991E+01  0.12904438095E+02  0.00000000000E+00 0.  1.
<mgrwt>
<rscale>  0 0.79024481E+02</rscale>
<asrwt>0</asrwt>
<pdfrwt beam="1">  1        2 0.16691038E-02 0.79024481E+02</pdfrwt>
<pdfrwt beam="2">  1       -1 0.22138758E-01 0.79024481E+02</pdfrwt>
<totfact> 0.11243622E+05</totfact>
</mgrwt>
</event>
<event>
 8    1  0.1226832E-024  0.7705992E+02  0.7818608E-02  0.1337608E+00
         -1   -1    0    0    0  501 -0.00000000000E+00  0.00000000000E+00  0.28226536239E+02  0.28226536689E+02  0.50400000000E-02 0.  1.
          2   -1    0    0  501    0  0.00000000000E+00 -0.00000000000E+00 -0.52594408391E+02  0.52594408453E+02  0.25500000000E-02 0. -1.
         24    2    1    2    0    0  0.71054273576E-14  0.35527136788E-14 -0.24367872152E+02  0.80820945142E+02  0.77059924607E+02 0.  0.
         66    2    3    3    0    0 -0.32317015237E+02 -0.20630748331E+02 -0.15905522042E+02  0.41557224178E+02  0.19999998658E+01 0.  0.
        -13    1    3    3    0    0  0.32317015237E+02  0.20630748331E+02 -0.84623501096E+01  0.39263720964E+02  0.10566000000E+00 0.  1.
         13    1    4    4    0    0 -0.15649177518E+02 -0.90131862666E+01 -0.74181495657E+01  0.19523687938E+02  0.10566000000E+00 0. -1.
        -13    1    4    4    0    0 -0.15338354903E+01 -0.12106139040E+01 -0.10190272153E+01  0.22063131774E+01  0.10566000000E+00 0.  1.
         14    1    4    4    0    0 -0.15134002228E+02 -0.10406948160E+02 -0.74683452611E+01  0.19827223063E+02  0.00000000000E+00 0. -1.
<mgrwt>
<rscale>  0 0.77059925E+02</rscale>
<asrwt>0</asrwt>
<pdfrwt beam="1">  1        2 0.80914474E-02 0.77059925E+02</pdfrwt>
<pdfrwt beam="2">  1       -1 0.43425441E-02 0.77059925E+02</pdfrwt>
<totfact> 0.16734007E+05</totfact>
</mgrwt>
</event>
<event>
 8    1  0.1226832E-024  0.8066561E+02  0.7818608E-02  0.1327173E+00
         -1   -1    0    0    0  501 -0.00000000000E+00  0.00000000000E+00  0.11783926189E+01  0.11784033969E+01  0.50400000000E-02 0.  1.
          2   -1    0    0  501    0  0.00000000000E+00 -0.00000000000E+00 -0.13804632750E+04  0.13804632750E+04  0.25500000000E-02 0. -1.
         24    2    1    2    0    0  0.17763568394E-14  0.00000000000E+00 -0.13792848824E+04  0.13816416784E+04  0.80665610545E+02 0.  0.
         66    2    3    3    0    0  0.15139609950E+02  0.18819433571E+02 -0.12427857875E+04  0.12430220804E+04  0.19999985865E+01 0.  0.
        -13    1    3    3    0    0 -0.15139609950E+02 -0.18819433571E+02 -0.13649909489E+03  0.13861959796E+03  0.10566000000E+00 0.  1.
         13    1    4    4    0    0  0.48131165973E+01  0.72710136794E+01 -0.44593509724E+03  0.44602035363E+03  0.10566000000E+00 0. -1.
        -13    1    4    4    0    0  0.46662365632E+01  0.55611122504E+01 -0.35529099974E+03  0.35536517189E+03  0.10566000000E+00 0.  1.
         14    1    4    4    0    0  0.56602567898E+01  0.59873076414E+01 -0.44155969049E+03  0.44163655491E+03  0.00000000000E+00 0. -1.
<mgrwt>
<rscale>  0 0.80665611E+02</rscale>
<asrwt>0</asrwt>
<pdfrwt beam="1">  1        2 0.21237767E+00 0.80665611E+02</pdfrwt>
<pdfrwt beam="2">  1       -1 0.18129311E-03 0.80665611E+02</pdfrwt>
<totfact> 0.33417439E+05</totfact>
</mgrwt>
</event>
<event>
 8    1  0.1226832E-024  0.8184679E+02  0.7818608E-02  0.1323891E+00
         -1   -1    0    0    0  501 -0.00000000000E+00  0.00000000000E+00  0.21120852802E+01  0.21120912936E+01  0.50400000000E-02 0.  1.
          2   -1    0    0  501    0  0.00000000000E+00 -0.00000000000E+00 -0.79292333071E+03  0.79292333071E+03  0.25500000000E-02 0. -1.
         24    2    1    2    0    0  0.00000000000E+00 -0.35527136788E-14 -0.79081124543E+03  0.79503542200E+03  0.81846785818E+02 0.  0.
         66    2    3    3    0    0  0.48874302792E+01  0.26865255870E+02 -0.69140542130E+03  0.69194731414E+03  0.20000004893E+01 0.  0.
        -13    1    3    3    0    0 -0.48874302792E+01 -0.26865255870E+02 -0.99405824127E+02  0.10308810786E+03  0.10566000000E+00 0.  1.
         13    1    4    4    0    0  0.21003440194E+00  0.32170375391E+01 -0.74988270168E+02  0.75057613017E+02  0.10566000000E+00 0. -1.
        -13    1    4    4    0    0  0.17497121257E+01  0.86114969958E+01 -0.24071356564E+03  0.24087393221E+03  0.10566000000E+00 0.  1.
         14    1    4    4    0    0  0.29276837515E+01  0.15036721335E+02 -0.37570358549E+03  0.37601576891E+03  0.00000000000E+00 0. -1.
<mgrwt>
<rscale>  0 0.81846786E+02</rscale>
<asrwt>0</asrwt>
<pdfrwt beam="1">  1        2 0.12198797E+00 0.81846786E+02</pdfrwt>
<pdfrwt beam="2">  1       -1 0.32493729E-03 0.81846786E+02</pdfrwt>
<totfact> 0.32334971E+05</totfact>
</mgrwt>
</event>
<event>
 8    1  0.1226832E-024  0.7983726E+02  0.7818608E-02  0.1329514E+00
         -1   -1    0    0    0  501 -0.00000000000E+00  0.00000000000E+00  0.83409693326E+01  0.83409708553E+01  0.50400000000E-02 0.  1.
          2   -1    0    0  501    0  0.00000000000E+00 -0.00000000000E+00 -0.19104458654E+03  0.19104458655E+03  0.25500000000E-02 0. -1.
         24    2    1    2    0    0 -0.35527136788E-14  0.35527136788E-14 -0.18270361721E+03  0.19938555741E+03  0.79837264256E+02 0.  0.
         66    2    3    3    0    0 -0.19469283385E+02  0.19532880455E+02 -0.16339761329E+03  0.16572074840E+03  0.20000020335E+01 0.  0.
        -13    1    3    3    0    0  0.19469283385E+02 -0.19532880455E+02 -0.19306003920E+02  0.33664809012E+02  0.10566000000E+00 0.  1.
         13    1    4    4    0    0 -0.14204984476E+02  0.13712194727E+02 -0.11423323656E+03  0.11592691391E+03  0.10566000000E+00 0. -1.
        -13    1    4    4    0    0 -0.41405148832E+01  0.50340860353E+01 -0.40218849650E+02  0.40743746967E+02  0.10566000000E+00 0.  1.
        -14    1    4    4    0    0 -0.11237840258E+01  0.78659969210E+00 -0.89455270739E+01  0.90500875267E+01  0.00000000000E+00 0.  1.
<mgrwt>
<rscale>  0 0.79837264E+02</rscale>
<asrwt>0</asrwt>
<pdfrwt beam="1">  1        2 0.29391472E-01 0.79837264E+02</pdfrwt>
<pdfrwt beam="2">  1       -1 0.12832263E-02 0.79837264E+02</pdfrwt>
<totfact> 0.21829023E+05</totfact>
</mgrwt>
</event>
<event>
 8    1  0.1226832E-024  0.8019876E+02  0.7818608E-02  0.1328488E+00
          2   -1    0    0  501    0  0.00000000000E+00  0.00000000000E+00  0.19691800383E+03  0.19691800385E+03  0.25500000000E-02 0. -1.
         -1   -1    0    0    0  501 -0.00000000000E+00 -0.00000000000E+00 -0.81656326071E+01  0.81656341625E+01  0.50400000000E-02 0.  1.
         24    2    1    2    0    0  0.71054273576E-14  0.88817841970E-15  0.18875237123E+03  0.20508363801E+03  0.80198758948E+02 0.  0.
         66    2    3    3    0    0 -0.37424458062E+02 -0.63728114499E+01  0.61611633344E+02  0.72396105892E+02  0.19999994777E+01 0.  0.
        -13    1    3    3    0    0  0.37424458062E+02  0.63728114499E+01  0.12714073788E+03  0.13268753212E+03  0.10566000000E+00 0.  1.
         13    1    4    4    0    0 -0.25537327022E+02 -0.42518357904E+01  0.43133698055E+02  0.50306662093E+02  0.10566000000E+00 0. -1.
        -13    1    4    4    0    0 -0.31867612048E+01 -0.42937955271E+00  0.55465809029E+01  0.64121398554E+01  0.10566000000E+00 0. -1.
         14    1    4    4    0    0 -0.87003698359E+01 -0.16915961068E+01  0.12931354386E+02  0.15677303943E+02  0.00000000000E+00 0. -1.
<mgrwt>
<rscale>  0 0.80198759E+02</rscale>
<asrwt>0</asrwt>
<pdfrwt beam="1">  1        2 0.30295076E-01 0.80198759E+02</pdfrwt>
<pdfrwt beam="2">  1       -1 0.12562514E-02 0.80198759E+02</pdfrwt>
<totfact> 0.21796849E+05</totfact>
</mgrwt>
</event>
<event>
 8    1  0.1226832E-024  0.8087665E+02  0.7818608E-02  0.1326582E+00
         -1   -1    0    0    0  501 -0.00000000000E+00  0.00000000000E+00  0.24667375485E+01  0.24667426973E+01  0.50400000000E-02 0.  1.
          2   -1    0    0  501    0  0.00000000000E+00 -0.00000000000E+00 -0.66292273456E+03  0.66292273457E+03  0.25500000000E-02 0. -1.
         24    2    1    2    0    0  0.44408920985E-15  0.00000000000E+00 -0.66045599701E+03  0.66538947726E+03  0.80876649677E+02 0.  0.
         66    2    3    3    0    0  0.25751171181E+01  0.35913413467E+02 -0.48142702440E+03  0.48277570808E+03  0.19999996795E+01 0.  0.
        -13    1    3    3    0    0 -0.25751171181E+01 -0.35913413467E+02 -0.17902897262E+03  0.18261376918E+03  0.10566000000E+00 0.  1.
         13    1    4    4    0    0  0.12132791945E+01  0.16545312738E+02 -0.21979420350E+03  0.22041942400E+03  0.10566000000E+00 0. -1.
        -13    1    4    4    0    0  0.57236959635E+00  0.11572194253E+02 -0.16494821464E+03  0.16535467325E+03  0.10566000000E+00 0.  1.
        -14    1    4    4    0    0  0.78946832720E+00  0.77959064764E+01 -0.96684606249E+02  0.97001610830E+02  0.00000000000E+00 0.  1.
<mgrwt>
<rscale>  0 0.80876650E+02</rscale>
<asrwt>0</asrwt>
<pdfrwt beam="1">  1        2 0.10198797E+00 0.80876650E+02</pdfrwt>
<pdfrwt beam="2">  1       -1 0.37949901E-03 0.80876650E+02</pdfrwt>
<totfact> 0.32097049E+05</totfact>
</mgrwt>
</event>
<event>
 8    1  0.1226832E-024  0.8019921E+02  0.7818608E-02  0.1328487E+00
         -1   -1    0    0    0  501 -0.00000000000E+00  0.00000000000E+00  0.18606327160E+01  0.18606395420E+01  0.50400000000E-02 0.  1.
          2   -1    0    0  501    0  0.00000000000E+00 -0.00000000000E+00 -0.86420885519E+03  0.86420885519E+03  0.25500000000E-02 0. -1.
         24    2    1    2    0    0 -0.71054273576E-14  0.44408920985E-15 -0.86234822247E+03  0.86606949473E+03  0.80199207651E+02 0.  0.
         66    2    3    3    0    0  0.23748198370E+02 -0.30178409278E+01 -0.77850544323E+03  0.77887599105E+03  0.20000012954E+01 0.  0.
        -13    1    3    3    0    0 -0.23748198370E+02  0.30178409278E+01 -0.83842779243E+02  0.87193503685E+02  0.10566000000E+00 0.  1.
         13    1    4    4    0    0  0.10116268889E+02 -0.15062836232E+01 -0.31883266023E+03  0.31899668365E+03  0.10566000000E+00 0. -1.
        -13    1    4    4    0    0  0.12568105629E+02 -0.14389728626E+01 -0.43411879999E+03  0.43430308724E+03  0.10566000000E+00 0.  1.
        -14    1    4    4    0    0  0.10638238508E+01 -0.72584442027E-01 -0.25553983014E+02  0.25576220158E+02  0.00000000000E+00 0.  1.
<mgrwt>
<rscale>  0 0.80199208E+02</rscale>
<asrwt>0</asrwt>
<pdfrwt beam="1">  1        2 0.13295489E+00 0.80199208E+02</pdfrwt>
<pdfrwt beam="2">  1       -1 0.28625240E-03 0.80199208E+02</pdfrwt>
<totfact> 0.34550568E+05</totfact>
</mgrwt>
</event>
<event>
 8    1  0.1226832E-024  0.8111201E+02  0.7818608E-02  0.1325925E+00
          2   -1    0    0  501    0  0.00000000000E+00  0.00000000000E+00  0.11482591790E+03  0.11482591793E+03  0.25500000000E-02 0. -1.
         -1   -1    0    0    0  501 -0.00000000000E+00 -0.00000000000E+00 -0.14324199579E+02  0.14324200465E+02  0.50400000000E-02 0.  1.
         24    2    1    2    0    0  0.00000000000E+00  0.00000000000E+00  0.10050171832E+03  0.12915011839E+03  0.81112007098E+02 0.  0.
         66    2    3    3    0    0  0.16789799268E+02 -0.31666047482E+02  0.80414247119E+02  0.88062972155E+02  0.20000006305E+01 0.  0.
        -13    1    3    3    0    0 -0.16789799268E+02  0.31666047482E+02  0.20087471200E+02  0.41087146236E+02  0.10566000000E+00 0.  1.
         13    1    4    4    0    0  0.73847994033E+01 -0.13973299309E+02  0.35567935923E+02  0.38921428361E+02  0.10566000000E+00 0.  1.
        -13    1    4    4    0    0  0.36638173887E+01 -0.59846439606E+01  0.17085555598E+02  0.18470703704E+02  0.10566000000E+00 0. -1.
        -14    1    4    4    0    0  0.57411824757E+01 -0.11708104213E+02  0.27760755598E+02  0.30670840090E+02  0.00000000000E+00 0.  1.
<mgrwt>
<rscale>  0 0.81112007E+02</rscale>
<asrwt>0</asrwt>
<pdfrwt beam="1">  1        2 0.17665526E-01 0.81112007E+02</pdfrwt>
<pdfrwt beam="2">  1       -1 0.22037231E-02 0.81112007E+02</pdfrwt>
<totfact> 0.17775867E+05</totfact>
</mgrwt>
</event>
<event>
 8    1  0.1226832E-024  0.8013206E+02  0.7818608E-02  0.1328677E+00
         -1   -1    0    0    0  501 -0.00000000000E+00  0.00000000000E+00  0.29800457014E+02  0.29800457440E+02  0.50400000000E-02 0.  1.
          2   -1    0    0  501    0  0.00000000000E+00 -0.00000000000E+00 -0.53867851357E+02  0.53867851417E+02  0.25500000000E-02 0. -1.
         24    2    1    2    0    0  0.00000000000E+00  0.00000000000E+00 -0.24067394342E+02  0.83668308857E+02  0.80132056236E+02 0.  0.
         66    2    3    3    0    0  0.34616014734E+02  0.38912772235E+01 -0.32657686248E+02  0.47790533097E+02  0.20000170174E+01 0.  0.
        -13    1    3    3    0    0 -0.34616014734E+02 -0.38912772235E+01  0.85902919058E+01  0.35877775761E+02  0.10566000000E+00 0.  1.
         13    1    4    4    0    0  0.18909380018E+02  0.20996105943E+01 -0.16805982596E+02  0.25385531949E+02  0.10566000000E+00 0. -1.
        -13    1    4    4    0    0  0.66567412913E+01  0.37712997264E+00 -0.69764560776E+01  0.96507271785E+01  0.10566000000E+00 0.  1.
         14    1    4    4    0    0  0.90498934251E+01  0.14145366565E+01 -0.88752475745E+01  0.12754273969E+02  0.00000000000E+00 0. -1.
<mgrwt>
<rscale>  0 0.80132056E+02</rscale>
<asrwt>0</asrwt>
<pdfrwt beam="1">  1        2 0.82873617E-02 0.80132056E+02</pdfrwt>
<pdfrwt beam="2">  1       -1 0.45846858E-02 0.80132056E+02</pdfrwt>
<totfact> 0.15121890E+05</totfact>
</mgrwt>
</event>
<event>
 8    1  0.1226832E-024  0.7752901E+02  0.7818608E-02  0.1336214E+00
         -1   -1    0    0    0  501 -0.00000000000E+00  0.00000000000E+00  0.29859394511E+02  0.29859394936E+02  0.50400000000E-02 0.  1.
          2   -1    0    0  501    0  0.00000000000E+00 -0.00000000000E+00 -0.50325422292E+02  0.50325422357E+02  0.25500000000E-02 0. -1.
         24    2    1    2    0    0 -0.17763568394E-14 -0.71054273576E-14 -0.20466027781E+02  0.80184817293E+02  0.77529005096E+02 0.  0.
         66    2    3    3    0    0 -0.11154436279E+02 -0.34549957772E+02 -0.24214153884E+02  0.43685767387E+02  0.19999982702E+01 0.  0.
        -13    1    3    3    0    0  0.11154436279E+02  0.34549957772E+02  0.37481261032E+01  0.36499049906E+02  0.10566000000E+00 0.  1.
         13    1    4    4    0    0 -0.72345334280E+01 -0.22722071779E+02 -0.15548229408E+02  0.28467343072E+02  0.10566000000E+00 0. -1.
        -13    1    4    4    0    0  0.23213059094E-01 -0.60607825192E+00 -0.43073490915E+00  0.75137626468E+00  0.10566000000E+00 0.  1.
        -14    1    4    4    0    0 -0.39431159098E+01 -0.11221807741E+02 -0.82351895672E+01  0.14467048050E+02  0.00000000000E+00 0.  1.
<mgrwt>
<rscale>  0 0.77529005E+02</rscale>
<asrwt>0</asrwt>
<pdfrwt beam="1">  1        2 0.77423727E-02 0.77529005E+02</pdfrwt>
<pdfrwt beam="2">  1       -1 0.45937531E-02 0.77529005E+02</pdfrwt>
<totfact> 0.16303616E+05</totfact>
</mgrwt>
</event>
<event>
 8    1  0.1226832E-024  0.7983527E+02  0.7818608E-02  0.1329520E+00
          2   -1    0    0  501    0  0.00000000000E+00  0.00000000000E+00  0.69105523916E+03  0.69105523916E+03  0.25500000000E-02 0. -1.
         -1   -1    0    0    0  501 -0.00000000000E+00 -0.00000000000E+00 -0.23057717145E+01  0.23057772227E+01  0.50400000000E-02 0.  1.
         24    2    1    2    0    0  0.00000000000E+00  0.00000000000E+00  0.68874946744E+03  0.69336101638E+03  0.79835268768E+02 0.  0.
         66    2    3    3    0    0 -0.12048830200E+01  0.28052863579E+02  0.59069601104E+03  0.59136637743E+03  0.20000007754E+01 0.  0.
        -13    1    3    3    0    0  0.12048830200E+01 -0.28052863579E+02  0.98053456404E+02  0.10199463895E+03  0.10566000000E+00 0.  1.
         13    1    4    4    0    0 -0.47956670242E+00  0.11984031220E+02  0.24021412594E+03  0.24051337687E+03  0.10566000000E+00 0. -1.
        -13    1    4    4    0    0  0.25215045636E+00  0.11775335833E+01  0.25314851189E+02  0.25343697835E+02  0.10566000000E+00 0.  1.
        -14    1    4    4    0    0 -0.97746677399E+00  0.14891298775E+02  0.32516703391E+03  0.32550930273E+03  0.00000000000E+00 0.  1.
<mgrwt>
<rscale>  0 0.79835269E+02</rscale>
<asrwt>0</asrwt>
<pdfrwt beam="1">  1        2 0.10631627E+00 0.79835269E+02</pdfrwt>
<pdfrwt beam="2">  1       -1 0.35473427E-03 0.79835269E+02</pdfrwt>
<totfact> 0.33531584E+05</totfact>
</mgrwt>
</event>
<event>
 8    1  0.1226832E-024  0.8016202E+02  0.7818608E-02  0.1328592E+00
          2   -1    0    0  501    0  0.00000000000E+00  0.00000000000E+00  0.80227548732E+03  0.80227548732E+03  0.25500000000E-02 0. -1.
         -1   -1    0    0    0  501 -0.00000000000E+00 -0.00000000000E+00 -0.20024103133E+01  0.20024166561E+01  0.50400000000E-02 0.  1.
         24    2    1    2    0    0  0.35527136788E-14 -0.35527136788E-14  0.80027307700E+03  0.80427790398E+03  0.80162017495E+02 0.  0.
         66    2    3    3    0    0 -0.18995779077E+02  0.22417495256E+02  0.67351874580E+03  0.67416235779E+03  0.20000005858E+01 0.  0.
        -13    1    3    3    0    0  0.18995779077E+02 -0.22417495256E+02  0.12675433120E+03  0.13011554618E+03  0.10566000000E+00 0.  1.
         13    1    4    4    0    0 -0.13931496633E+02  0.16851290639E+02  0.51743430226E+03  0.51789605223E+03  0.10566000000E+00 0. -1.
        -13    1    4    4    0    0 -0.77241146812E+00  0.95899999138E+00  0.27658753928E+02  0.27686352836E+02  0.10566000000E+00 0. -1.
         14    1    4    4    0    0 -0.42918709762E+01  0.46072046257E+01  0.12842568961E+03  0.12857995273E+03  0.00000000000E+00 0. -1.
<mgrwt>
<rscale>  0 0.80162017E+02</rscale>
<asrwt>0</asrwt>
<pdfrwt beam="1">  1        2 0.12342703E+00 0.80162017E+02</pdfrwt>
<pdfrwt beam="2">  1       -1 0.30806352E-03 0.80162017E+02</pdfrwt>
<totfact> 0.34202183E+05</totfact>
</mgrwt>
</event>
<event>
 8    1  0.1734383E-024  0.8271048E+02  0.7818608E-02  0.1321531E+00
         -1   -1    0    0    0  501 -0.00000000000E+00  0.00000000000E+00  0.60313608555E+01  0.60313629612E+01  0.50400000000E-02 0.  1.
          2   -1    0    0  501    0  0.00000000000E+00 -0.00000000000E+00 -0.28356049521E+03  0.28356049522E+03  0.25500000000E-02 0. -1.
         24    2    1    2    0    0  0.00000000000E+00  0.00000000000E+00 -0.27752913435E+03  0.28959185818E+03  0.82710482468E+02 0.  0.
         66    2    3    3    0    0  0.15451681347E+02  0.36130883564E+01 -0.27246576668E+03  0.27293479601E+03  0.19999992576E+01 0.  0.
        -13    1    3    3    0    0 -0.15451681347E+02 -0.36130883564E+01 -0.50633676726E+01  0.16657062170E+02  0.10566000000E+00 0.  1.
         13    1    4    4    0    0  0.65083614277E+01  0.14329125238E+01 -0.11945515826E+03  0.11964095455E+03  0.10566000000E+00 0. -1.
        -13    1    4    4    0    0  0.69236652622E+01  0.22460187160E+01 -0.12309286486E+03  0.12330793277E+03  0.10566000000E+00 0.  1.
        -14    1    4    4    0    0  0.20196546568E+01 -0.65842883383E-01 -0.29917743557E+02  0.29985908686E+02  0.00000000000E+00 0.  1.
<mgrwt>
<rscale>  0 0.82710482E+02</rscale>
<asrwt>0</asrwt>
<pdfrwt beam="1">  1        2 0.43624681E-01 0.82710482E+02</pdfrwt>
<pdfrwt beam="2">  1       -1 0.92790205E-03 0.82710482E+02</pdfrwt>
<totfact> 0.22884844E+05</totfact>
</mgrwt>
</event>
<event>
 8    1  0.1226832E-024  0.7561124E+02  0.7818608E-02  0.1341989E+00
          2   -1    0    0  501    0  0.00000000000E+00  0.00000000000E+00  0.97916315558E+03  0.97916315558E+03  0.25500000000E-02 0. -1.
         -1   -1    0    0    0  501 -0.00000000000E+00 -0.00000000000E+00 -0.14596755159E+01  0.14596842170E+01  0.50400000000E-02 0.  1.
         24    2    1    2    0    0  0.00000000000E+00 -0.17763568394E-14  0.97770348006E+03  0.98062283980E+03  0.75611235994E+02 0.  0.
         66    2    3    3    0    0  0.23922503638E+01 -0.11368678844E+02  0.95541795035E+03  0.95549067477E+03  0.19999999202E+01 0.  0.
        -13    1    3    3    0    0 -0.23922503638E+01  0.11368678844E+02  0.22285529712E+02  0.25132165029E+02  0.10566000000E+00 0.  1.
         13    1    4    4    0    0  0.92896183512E+00 -0.28665400281E+01  0.24721506443E+03  0.24723345095E+03  0.10566000000E+00 0. -1.
        -13    1    4    4    0    0  0.37262108348E+00 -0.51090048321E+01  0.36794934412E+03  0.36798501570E+03  0.10566000000E+00 0.  1.
         14    1    4    4    0    0  0.10906674452E+01 -0.33931339838E+01  0.34025354180E+03  0.34027220812E+03  0.00000000000E+00 0. -1.
<mgrwt>
<rscale>  0 0.75611236E+02</rscale>
<asrwt>0</asrwt>
<pdfrwt beam="1">  1        2 0.15064022E+00 0.75611236E+02</pdfrwt>
<pdfrwt beam="2">  1       -1 0.22456653E-03 0.75611236E+02</pdfrwt>
<totfact> 0.40729491E+05</totfact>
</mgrwt>
</event>
<event>
 8    1  0.1226832E-024  0.8154587E+02  0.7818608E-02  0.1324721E+00
          2   -1    0    0  501    0  0.00000000000E+00  0.00000000000E+00  0.25076296282E+03  0.25076296284E+03  0.25500000000E-02 0. -1.
         -1   -1    0    0    0  501 -0.00000000000E+00 -0.00000000000E+00 -0.66294955849E+01  0.66294975007E+01  0.50400000000E-02 0.  1.
         24    2    1    2    0    0  0.00000000000E+00 -0.88817841970E-15  0.24413346724E+03  0.25739246034E+03  0.81545869377E+02 0.  0.
         66    2    3    3    0    0 -0.13371101633E+02  0.76669753163E+01  0.24120237029E+03  0.24170261130E+03  0.20000014467E+01 0.  0.
        -13    1    3    3    0    0  0.13371101633E+02 -0.76669753163E+01  0.29310969449E+01  0.15689849035E+02  0.10566000000E+00 0.  1.
         13    1    4    4    0    0 -0.54338701836E+01  0.32058197182E+01  0.96211141531E+02  0.96417836233E+02  0.10566000000E+00 0. -1.
        -13    1    4    4    0    0 -0.80537703738E+00  0.23267720688E+00  0.84799025268E+01  0.85218942586E+01  0.10566000000E+00 0.  1.
         14    1    4    4    0    0 -0.71318544125E+01  0.42284783912E+01  0.13651132624E+03  0.13676288081E+03  0.00000000000E+00 0. -1.
<mgrwt>
<rscale>  0 0.81545869E+02</rscale>
<asrwt>0</asrwt>
<pdfrwt beam="1">  1        2 0.38578907E-01 0.81545869E+02</pdfrwt>
<pdfrwt beam="2">  1       -1 0.10199228E-02 0.81545869E+02</pdfrwt>
<totfact> 0.22720851E+05</totfact>
</mgrwt>
</event>
<event>
 8    1  0.1226832E-024  0.7034693E+02  0.7818608E-02  0.1358917E+00
          2   -1    0    0  501    0  0.00000000000E+00  0.00000000000E+00  0.60190597650E+03  0.60190597651E+03  0.25500000000E-02 0. -1.
         -1   -1    0    0    0  501 -0.00000000000E+00 -0.00000000000E+00 -0.20554219759E+01  0.20554281551E+01  0.50400000000E-02 0.  1.
         24    2    1    2    0    0 -0.35527136788E-14  0.00000000000E+00  0.59985055453E+03  0.60396140466E+03  0.70346929974E+02 0.  0.
         66    2    3    3    0    0 -0.16510697875E+02 -0.28207238991E+02  0.41108795869E+03  0.41239005966E+03  0.20000123648E+01 0.  0.
        -13    1    3    3    0    0  0.16510697875E+02  0.28207238991E+02  0.18876259584E+03  0.19157134501E+03  0.10566000000E+00 0.  1.
         13    1    4    4    0    0 -0.33262629017E+01 -0.60684669808E+01  0.79101156362E+02  0.79403365283E+02  0.10566000000E+00 0.  1.
        -13    1    4    4    0    0 -0.64565862516E+01 -0.11714476836E+02  0.16993763729E+03  0.17046327524E+03  0.10566000000E+00 0. -1.
         14    1    4    4    0    0 -0.67278487217E+01 -0.10424295175E+02  0.16204916504E+03  0.16252341914E+03  0.00000000000E+00 0. -1.
<mgrwt>
<rscale>  0 0.70346930E+02</rscale>
<asrwt>0</asrwt>
<pdfrwt beam="1">  1        2 0.92600791E-01 0.70346930E+02</pdfrwt>
<pdfrwt beam="2">  1       -1 0.31621968E-03 0.70346930E+02</pdfrwt>
<totfact> 0.44882889E+05</totfact>
</mgrwt>
</event>
<event>
 8    1  0.1226832E-024  0.7858899E+02  0.7818608E-02  0.1333104E+00
          2   -1    0    0  501    0  0.00000000000E+00  0.00000000000E+00  0.10595168066E+03  0.10595168070E+03  0.25500000000E-02 0. -1.
         -1   -1    0    0    0  501 -0.00000000000E+00 -0.00000000000E+00 -0.14573222949E+02  0.14573223820E+02  0.50400000000E-02 0.  1.
         24    2    1    2    0    0 -0.17763568394E-14 -0.71054273576E-14  0.91378457716E+02  0.12052490452E+03  0.78588994611E+02 0.  0.
         66    2    3    3    0    0 -0.87613063501E+01 -0.37671742497E+02  0.35302381526E+02  0.52403996149E+02  0.19999998221E+01 0.  0.
        -13    1    3    3    0    0  0.87613063501E+01  0.37671742497E+02  0.56076076191E+02  0.68120908367E+02  0.10566000000E+00 0.  1.
         13    1    4    4    0    0 -0.31220740126E+01 -0.14293225464E+02  0.13225760621E+02  0.19722463039E+02  0.10566000000E+00 0. -1.
        -13    1    4    4    0    0 -0.43155284720E+01 -0.14929546013E+02  0.13930971771E+02  0.20870991080E+02  0.10566000000E+00 0.  1.
        -14    1    4    4    0    0 -0.13237038656E+01 -0.84489710195E+01  0.81456491342E+01  0.11810542029E+02  0.00000000000E+00 0.  1.
<mgrwt>
<rscale>  0 0.78588995E+02</rscale>
<asrwt>0</asrwt>
<pdfrwt beam="1">  1        2 0.16300258E-01 0.78588995E+02</pdfrwt>
<pdfrwt beam="2">  1       -1 0.22420344E-02 0.78588995E+02</pdfrwt>
<totfact> 0.18895658E+05</totfact>
</mgrwt>
</event>
<event>
 8    1  0.1226832E-024  0.8047997E+02  0.7818608E-02  0.1327695E+00
          2   -1    0    0  501    0  0.00000000000E+00  0.00000000000E+00  0.19398476255E+03  0.19398476257E+03  0.25500000000E-02 0. -1.
         -1   -1    0    0    0  501 -0.00000000000E+00 -0.00000000000E+00 -0.83473376747E+01  0.83473391963E+01  0.50400000000E-02 0.  1.
         24    2    1    2    0    0 -0.17763568394E-14  0.00000000000E+00  0.18563742488E+03  0.20233210176E+03  0.80479971978E+02 0.  0.
         66    2    3    3    0    0 -0.14568866912E+02 -0.15321566890E+02  0.17887937993E+03  0.18013560135E+03  0.20000036303E+01 0.  0.
        -13    1    3    3    0    0  0.14568866912E+02  0.15321566890E+02  0.67580449454E+01  0.22196500413E+02  0.10566000000E+00 0.  1.
         13    1    4    4    0    0 -0.72245656149E+01 -0.76008050798E+01  0.85198949512E+02  0.85841940496E+02  0.10566000000E+00 0. -1.
        -13    1    4    4    0    0 -0.63466337134E-01 -0.93544848830E-01  0.68051074220E+00  0.69788073518E+00  0.10566000000E+00 0. -1.
         14    1    4    4    0    0 -0.72808349598E+01 -0.76272169617E+01  0.92999919677E+02  0.93595780119E+02  0.00000000000E+00 0. -1.
<mgrwt>
<rscale>  0 0.80479972E+02</rscale>
<asrwt>0</asrwt>
<pdfrwt beam="1">  1        2 0.29843813E-01 0.80479972E+02</pdfrwt>
<pdfrwt beam="2">  1       -1 0.12842058E-02 0.80479972E+02</pdfrwt>
<totfact> 0.21484465E+05</totfact>
</mgrwt>
</event>
<event>
 8    1  0.1226832E-024  0.8147925E+02  0.7818608E-02  0.1324905E+00
          2   -1    0    0  501    0  0.00000000000E+00  0.00000000000E+00  0.23055259806E+02  0.23055259947E+02  0.25500000000E-02 0. -1.
         -1   -1    0    0    0  501 -0.00000000000E+00 -0.00000000000E+00 -0.71988652191E+02  0.71988652367E+02  0.50400000000E-02 0.  1.
         24    2    1    2    0    0  0.00000000000E+00  0.71054273576E-14 -0.48933392385E+02  0.95043912314E+02  0.81479251209E+02 0.  0.
         66    2    3    3    0    0  0.21457787201E+02  0.33628809945E+02 -0.33985067743E+02  0.52443477298E+02  0.19999979432E+01 0.  0.
        -13    1    3    3    0    0 -0.21457787201E+02 -0.33628809945E+02 -0.14948324642E+02  0.42600435016E+02  0.10566000000E+00 0.  1.
         13    1    4    4    0    0  0.75000889648E+01  0.11407339497E+02 -0.11702910992E+02  0.17981880286E+02  0.10566000000E+00 0.  1.
        -13    1    4    4    0    0  0.13236977370E+02  0.21069118481E+02 -0.20630936862E+02  0.32322933705E+02  0.10566000000E+00 0. -1.
         14    1    4    4    0    0  0.72072086594E+00  0.11523519664E+01 -0.16512198880E+01  0.21386633067E+01  0.00000000000E+00 0. -1.
<mgrwt>
<rscale>  0 0.81479251E+02</rscale>
<asrwt>0</asrwt>
<pdfrwt beam="1">  1        2 0.35469631E-02 0.81479251E+02</pdfrwt>
<pdfrwt beam="2">  1       -1 0.11075177E-01 0.81479251E+02</pdfrwt>
<totfact> 0.12124045E+05</totfact>
</mgrwt>
</event>
<event>
 8    1  0.1226832E-024  0.8176173E+02  0.7818608E-02  0.1324125E+00
          2   -1    0    0  501    0  0.00000000000E+00  0.00000000000E+00  0.12020130788E+02  0.12020131058E+02  0.25500000000E-02 0. -1.
         -1   -1    0    0    0  501 -0.00000000000E+00 -0.00000000000E+00 -0.13903718978E+03  0.13903718987E+03  0.50400000000E-02 0.  1.
         24    2    1    2    0    0  0.00000000000E+00  0.00000000000E+00 -0.12701705899E+03  0.15105732093E+03  0.81761732684E+02 0.  0.
         66    2    3    3    0    0 -0.33345940307E+02 -0.16719822757E+02 -0.32756557392E+02  0.49683963809E+02  0.19999999010E+01 0.  0.
        -13    1    3    3    0    0  0.33345940307E+02  0.16719822757E+02 -0.94260501601E+02  0.10137335712E+03  0.10566000000E+00 0.  1.
         13    1    4    4    0    0 -0.11088701382E+02 -0.59988310854E+01 -0.11936854845E+02  0.17362169805E+02  0.10566000000E+00 0. -1.
        -13    1    4    4    0    0 -0.24625063120E+01 -0.89992076318E+00 -0.20800656317E+01  0.33483774853E+01  0.10566000000E+00 0.  1.
         14    1    4    4    0    0 -0.19794732613E+02 -0.98210709080E+01 -0.18739636916E+02  0.28973416519E+02  0.00000000000E+00 0. -1.
<mgrwt>
<rscale>  0 0.81761733E+02</rscale>
<asrwt>0</asrwt>
<pdfrwt beam="1">  1        2 0.18492510E-02 0.81761733E+02</pdfrwt>
<pdfrwt beam="2">  1       -1 0.21390336E-01 0.81761733E+02</pdfrwt>
<totfact> 0.10406195E+05</totfact>
</mgrwt>
</event>
<event>
 8    1  0.1226832E-024  0.8192379E+02  0.7818608E-02  0.1323679E+00
         -1   -1    0    0    0  501 -0.00000000000E+00  0.00000000000E+00  0.79106814117E+01  0.79106830172E+01  0.50400000000E-02 0.  1.
          2   -1    0    0  501    0  0.00000000000E+00 -0.00000000000E+00 -0.21210264786E+03  0.21210264788E+03  0.25500000000E-02 0. -1.
         24    2    1    2    0    0  0.17763568394E-14 -0.35527136788E-14 -0.20419196645E+03  0.22001333090E+03  0.81923785365E+02 0.  0.
         66    2    3    3    0    0 -0.97837782046E+01  0.19346566630E+02 -0.19541493645E+03  0.19662403044E+03  0.20000003062E+01 0.  0.
        -13    1    3    3    0    0  0.97837782046E+01 -0.19346566630E+02 -0.87770300035E+01  0.23389300461E+02  0.10566000000E+00 0.  1.
         13    1    4    4    0    0 -0.30623549928E+01  0.53206327981E+01 -0.48283340864E+02  0.48672161658E+02  0.10566000000E+00 0.  1.
        -13    1    4    4    0    0 -0.55303772242E+01  0.11682039025E+02 -0.12339432190E+03  0.12406943599E+03  0.10566000000E+00 0. -1.
        -14    1    4    4    0    0 -0.11910459876E+01  0.23438948068E+01 -0.23737273690E+02  0.23882432783E+02  0.00000000000E+00 0.  1.
<mgrwt>
<rscale>  0 0.81923785E+02</rscale>
<asrwt>0</asrwt>
<pdfrwt beam="1">  1        2 0.32631172E-01 0.81923785E+02</pdfrwt>
<pdfrwt beam="2">  1       -1 0.12170282E-02 0.81923785E+02</pdfrwt>
<totfact> 0.21146987E+05</totfact>
</mgrwt>
</event>
